<event>
 6    1  0.1415125E-002  0.7638821E+03  0.7818608E-02  0.9613820E-01
          1   -1    0    0  502    0  0.00000000000E+00  0.00000000000E+00  0.16509509223E+03  0.16509509223E+03  0.00000000000E+00 0.  1.
         13   -1    0    0    0    0 -0.00000000000E+00 -0.00000000000E+00 -0.10000000000E+04  0.10000000000E+04  0.00000000000E+00 0.  1.
    9000005    2    1    2  501    0 -0.89755440098E+01 -0.16698862787E+01 -0.85286790585E+03  0.11449451987E+04  0.76382752911E+03 0.  0.
         13    1    3    3    0    0 -0.21408174780E+03  0.21914580257E+03 -0.81829014333E+02  0.31709914082E+03  0.00000000000E+00 0.  1.
          3    1    3    3  501    0  0.20510620379E+03 -0.22081568885E+03 -0.77103889151E+03  0.82784605785E+03  0.00000000000E+00 0.  1.
         21    1    1    2  502  501  0.89755440098E+01  0.16698862787E+01  0.17962998074E+02  0.20149893554E+02  0.00000000000E+00 0. -1.
<mgrwt>
<rscale>  1 0.76388209E+03</rscale>
<asrwt>0</asrwt>
<pdfrwt beam="1">  1        1 0.60034706E+00 0.76388209E+03</pdfrwt>
<pdfrwt beam="2">0</pdfrwt>
<totfact> 0.13842369E-01</totfact>
</mgrwt>
</event>
<event>
 6    1  0.1415125E-002  0.6444670E+03  0.7818608E-02  0.9817217E-01
          1   -1    0    0  502    0  0.00000000000E+00  0.00000000000E+00  0.10511678427E+03  0.10511678427E+03  0.00000000000E+00 0.  1.
         13   -1    0    0    0    0 -0.00000000000E+00 -0.00000000000E+00 -0.10000000000E+04  0.10000000000E+04  0.00000000000E+00 0.  1.
    9000005    2    1    2  501    0 -0.16574088512E+01  0.15647838236E+01 -0.89493644860E+03  0.11028367873E+04  0.64446298327E+03 0.  0.
         13    1    3    3    0    0 -0.24843381046E+02  0.32202946985E+03 -0.46160792760E+03  0.56338446186E+03  0.00000000000E+00 0.  1.
          3    1    3    3  501    0  0.23185972195E+02 -0.32046468603E+03 -0.43332852099E+03  0.53945232542E+03  0.00000000000E+00 0.  1.
         21    1    1    2  502  501  0.16574088512E+01 -0.15647838236E+01  0.53232864385E-01  0.22799969852E+01  0.00000000000E+00 0.  1.
<mgrwt>
<rscale>  1 0.64446701E+03</rscale>
<asrwt>0</asrwt>
<pdfrwt beam="1">  1        1 0.38224366E+00 0.64446701E+03</pdfrwt>
<pdfrwt beam="2">0</pdfrwt>
<totfact> 0.16056066E+00</totfact>
</mgrwt>
</event>
<event>
 6    1  0.1415125E-002  0.6505600E+03  0.7818608E-02  0.9805729E-01
          1   -1    0    0  502    0  0.00000000000E+00  0.00000000000E+00  0.11887679846E+03  0.11887679846E+03  0.00000000000E+00 0.  1.
         13   -1    0    0    0    0 -0.00000000000E+00 -0.00000000000E+00 -0.10000000000E+04  0.10000000000E+04  0.00000000000E+00 0.  1.
    9000005    2    1    2  501    0 -0.61361479593E+00  0.59052410043E+00 -0.89417756438E+03  0.11057946874E+04  0.65055948899E+03 0.  0.
         13    1    3    3    0    0  0.29874855489E+02  0.31384265462E+03 -0.30951851694E+03  0.44180474328E+03  0.00000000000E+00 0.  1.
          3    1    3    3  501    0 -0.30488470285E+02 -0.31325213052E+03 -0.58465904743E+03  0.66398994408E+03  0.00000000000E+00 0.  1.
         21    1    1    2  502  501  0.61361479593E+00 -0.59052410043E+00  0.13054362834E+02  0.13082111100E+02  0.00000000000E+00 0.  1.
<mgrwt>
<rscale>  1 0.65056005E+03</rscale>
<asrwt>0</asrwt>
<pdfrwt beam="1">  1        1 0.43228018E+00 0.65056005E+03</pdfrwt>
<pdfrwt beam="2">0</pdfrwt>
<totfact> 0.95742129E-01</totfact>
</mgrwt>
</event>
<event>
 6    1  0.1415125E-002  0.6491542E+03  0.7818608E-02  0.9808368E-01
          1   -1    0    0  502    0  0.00000000000E+00  0.00000000000E+00  0.11638207869E+03  0.11638207869E+03  0.00000000000E+00 0.  1.
         13   -1    0    0    0    0 -0.00000000000E+00 -0.00000000000E+00 -0.10000000000E+04  0.10000000000E+04  0.00000000000E+00 0.  1.
    9000005    2    1    2  501    0 -0.22069184224E-01  0.15502523391E+00 -0.89464909943E+03  0.11053497892E+04  0.64915415807E+03 0.  0.
         13    1    3    3    0    0 -0.19202596314E+02  0.24183531727E+03 -0.80086899930E+02  0.25547401418E+03  0.00000000000E+00 0.  1.
          1    1    3    3  501    0  0.19180527130E+02 -0.24168029203E+03 -0.81456219950E+03  0.84987577506E+03  0.00000000000E+00 0.  1.
         21    1    1    2  502  501  0.22069184224E-01 -0.15502523391E+00  0.11031178116E+02  0.11032289450E+02  0.00000000000E+00 0.  1.
<mgrwt>
<rscale>  1 0.64915418E+03</rscale>
<asrwt>0</asrwt>
<pdfrwt beam="1">  1        1 0.42320845E+00 0.64915418E+03</pdfrwt>
<pdfrwt beam="2">0</pdfrwt>
<totfact> 0.10527969E+00</totfact>
</mgrwt>
</event>
<event>
 6    1  0.1415125E-002  0.6526915E+03  0.7818608E-02  0.9801742E-01
          1   -1    0    0  502    0  0.00000000000E+00  0.00000000000E+00  0.11130272581E+03  0.11130272581E+03  0.00000000000E+00 0.  1.
         13   -1    0    0    0    0 -0.00000000000E+00 -0.00000000000E+00 -0.10000000000E+04  0.10000000000E+04  0.00000000000E+00 0.  1.
    9000005    2    1    2  501    0  0.96099199266E+01  0.59797839675E+01 -0.88446244228E+03  0.10992179346E+04  0.65259340141E+03 0.  0.
         13    1    3    3    0    0  0.15328859595E+02 -0.75967713910E+01  0.10664121985E+03  0.10800478991E+03  0.00000000000E+00 0.  1.
          1    1    3    3  501    0 -0.57189396683E+01  0.13576555358E+02 -0.99110366213E+03  0.99121314470E+03  0.00000000000E+00 0.  1.
         21    1    1    2  502  501 -0.96099199266E+01 -0.59797839675E+01 -0.42348319024E+01  0.12084791208E+02  0.00000000000E+00 0.  1.
<mgrwt>
<rscale>  1 0.65269155E+03</rscale>
<asrwt>0</asrwt>
<pdfrwt beam="1">  1        1 0.40473804E+00 0.65269155E+03</pdfrwt>
<pdfrwt beam="2">0</pdfrwt>
<totfact> 0.12736336E+00</totfact>
</mgrwt>
</event>
<event>
 6    1  0.1415125E-002  0.6610442E+03  0.7818608E-02  0.9786273E-01
          1   -1    0    0  502    0  0.00000000000E+00  0.00000000000E+00  0.10924498235E+03  0.10924498235E+03  0.00000000000E+00 0.  1.
         13   -1    0    0    0    0 -0.00000000000E+00 -0.00000000000E+00 -0.10000000000E+04  0.10000000000E+04  0.00000000000E+00 0.  1.
    9000005    2    1    2  501    0  0.12031109122E-04  0.23919818908E-05 -0.89075512468E+03  0.11092448746E+04  0.66104424946E+03 0.  0.
         13    1    3    3    0    0  0.31845549289E+03 -0.31696174907E+02 -0.30673693266E+03  0.44329007920E+03  0.00000000000E+00 0.  1.
          3    1    3    3  501    0 -0.31845548086E+03  0.31696177299E+02 -0.58401819201E+03  0.66595479542E+03  0.00000000000E+00 0.  1.
         21    1    1    2  502  501 -0.12031109113E-04 -0.23919818923E-05  0.10702111309E-03  0.10772180749E-03  0.00000000000E+00 0. -1.
<mgrwt>
<rscale>  1 0.66104425E+03</rscale>
<asrwt>0</asrwt>
<pdfrwt beam="1">  1        1 0.39725532E+00 0.66104425E+03</pdfrwt>
<pdfrwt beam="2">0</pdfrwt>
<totfact> 0.13732142E+00</totfact>
</mgrwt>
</event>
<event>
 6    1  0.1415125E-002  0.6581568E+03  0.7818608E-02  0.9791593E-01
          1   -1    0    0  502    0  0.00000000000E+00  0.00000000000E+00  0.10829265937E+03  0.10829265937E+03  0.00000000000E+00 0.  1.
         13   -1    0    0    0    0 -0.00000000000E+00 -0.00000000000E+00 -0.10000000000E+04  0.10000000000E+04  0.00000000000E+00 0.  1.
    9000005    2    1    2  501    0 -0.95609253208E-05 -0.79159594861E-05 -0.89170740781E+03  0.11082925911E+04  0.65815679458E+03 0.  0.
         13    1    3    3    0    0  0.22881433686E+03  0.15270991247E+03 -0.14173563935E+03  0.30945970590E+03  0.00000000000E+00 0.  1.
          3    1    3    3  501    0 -0.22881434642E+03 -0.15270992039E+03 -0.74997176846E+03  0.79883288515E+03  0.00000000000E+00 0.  1.
         21    1    1    2  502  501  0.95609253321E-05  0.79159594745E-05  0.67173063692E-04  0.68310278827E-04  0.00000000000E+00 0.  1.
<mgrwt>
<rscale>  1 0.65815679E+03</rscale>
<asrwt>0</asrwt>
<pdfrwt beam="1">  1        1 0.39379232E+00 0.65815679E+03</pdfrwt>
<pdfrwt beam="2">0</pdfrwt>
<totfact> 0.14235600E+00</totfact>
</mgrwt>
</event>
<event>
 6    1  0.1415125E-002  0.6264024E+03  0.7818608E-02  0.9852094E-01
          1   -1    0    0  502    0  0.00000000000E+00  0.00000000000E+00  0.98095020687E+02  0.98095020687E+02  0.00000000000E+00 0.  1.
         13   -1    0    0    0    0 -0.00000000000E+00 -0.00000000000E+00 -0.10000000000E+04  0.10000000000E+04  0.00000000000E+00 0.  1.
    9000005    2    1    2  501    0  0.35943997432E-05 -0.26620866329E-05 -0.90190499291E+03  0.10980950064E+04  0.62640244793E+03 0.  0.
         13    1    3    3    0    0 -0.27486769944E+03 -0.12717499918E+02 -0.71320907567E+03  0.76444827988E+03  0.00000000000E+00 0.  1.
          1    1    3    3  501    0  0.27486770304E+03  0.12717497256E+02 -0.18869591724E+03  0.33364672649E+03  0.00000000000E+00 0.  1.
         21    1    1    2  502  501 -0.35943997899E-05  0.26620866337E-05  0.13599778930E-04  0.14316438176E-04  0.00000000000E+00 0. -1.
<mgrwt>
<rscale>  1 0.62640245E+03</rscale>
<asrwt>0</asrwt>
<pdfrwt beam="1">  1        1 0.35670992E+00 0.62640245E+03</pdfrwt>
<pdfrwt beam="2">0</pdfrwt>
<totfact> 0.20854085E+00</totfact>
</mgrwt>
</event>
<event>
 6    1  0.1415125E-002  0.6483481E+03  0.7818608E-02  0.9809884E-01
          1   -1    0    0  502    0  0.00000000000E+00  0.00000000000E+00  0.10508884904E+03  0.10508884904E+03  0.00000000000E+00 0.  1.
         13   -1    0    0    0    0 -0.00000000000E+00 -0.00000000000E+00 -0.10000000000E+04  0.10000000000E+04  0.00000000000E+00 0.  1.
    9000005    2    1    2  501    0 -0.68422909294E-05 -0.26379274516E-05 -0.89491117576E+03  0.11050888232E+04  0.64834812763E+03 0.  0.
         13    1    3    3    0    0  0.15734973521E+03 -0.21212808968E+03 -0.12707195730E+03  0.29309477637E+03  0.00000000000E+00 0.  1.
          3    1    3    3  501    0 -0.15734974206E+03  0.21212808704E+03 -0.76783921847E+03  0.81199404681E+03  0.00000000000E+00 0.  1.
         21    1    1    2  502  501  0.68422909347E-05  0.26379274406E-05  0.24807551770E-04  0.25868711434E-04  0.00000000000E+00 0. -1.
<mgrwt>
<rscale>  1 0.64834813E+03</rscale>
<asrwt>0</asrwt>
<pdfrwt beam="1">  1        1 0.38214208E+00 0.64834813E+03</pdfrwt>
<pdfrwt beam="2">0</pdfrwt>
<totfact> 0.16061151E+00</totfact>
</mgrwt>
</event>
<event>
 6    1  0.1415125E-002  0.4968820E+03  0.7818608E-02  0.1014596E+00
          1   -1    0    0  502    0  0.00000000000E+00  0.00000000000E+00  0.62475925253E+02  0.62475925253E+02  0.00000000000E+00 0.  1.
         13   -1    0    0    0    0 -0.00000000000E+00 -0.00000000000E+00 -0.10000000000E+04  0.10000000000E+04  0.00000000000E+00 0.  1.
    9000005    2    1    2  501    0 -0.14827090089E+01  0.12552666200E+00 -0.93744276500E+03  0.10609856923E+04  0.49687975150E+03 0.  0.
         13    1    3    3    0    0  0.65208836794E+02 -0.11410980127E+03 -0.18678938333E+02  0.13274841573E+03  0.00000000000E+00 0.  1.
          3    1    3    3  501    0 -0.66691545803E+02  0.11423532793E+03 -0.91876382667E+03  0.92823727658E+03  0.00000000000E+00 0.  1.
         21    1    1    2  502  501  0.14827090089E+01 -0.12552666200E+00 -0.81309743769E-01  0.14902329423E+01  0.00000000000E+00 0. -1.
<mgrwt>
<rscale>  1 0.49688198E+03</rscale>
<asrwt>0</asrwt>
<pdfrwt beam="1">  1        1 0.22718566E+00 0.49688198E+03</pdfrwt>
<pdfrwt beam="2">0</pdfrwt>
<totfact> 0.77762770E+00</totfact>
</mgrwt>
</event>
<event>
 6    1  0.1415125E-002  0.6462736E+03  0.7818608E-02  0.9813797E-01
          1   -1    0    0  502    0  0.00000000000E+00  0.00000000000E+00  0.10454910309E+03  0.10454910309E+03  0.00000000000E+00 0.  1.
         13   -1    0    0    0    0 -0.00000000000E+00 -0.00000000000E+00 -0.10000000000E+04  0.10000000000E+04  0.00000000000E+00 0.  1.
    9000005    2    1    2  501    0 -0.67533598459E-01  0.44779747681E-01 -0.89556870196E+03  0.11044061204E+04  0.64627360486E+03 0.  0.
         13    1    3    3    0    0  0.14873336484E+03  0.15312307032E+03 -0.33233594763E+02  0.21603879351E+03  0.00000000000E+00 0.  1.
          3    1    3    3  501    0 -0.14880089844E+03 -0.15307829057E+03 -0.86233510720E+03  0.88836732691E+03  0.00000000000E+00 0.  1.
         21    1    1    2  502  501  0.67533598459E-01 -0.44779747681E-01  0.11780504686E+00  0.14298266255E+00  0.00000000000E+00 0.  1.
<mgrwt>
<rscale>  1 0.64627361E+03</rscale>
<asrwt>0</asrwt>
<pdfrwt beam="1">  1        1 0.38017936E+00 0.64627361E+03</pdfrwt>
<pdfrwt beam="2">0</pdfrwt>
<totfact> 0.16391071E+00</totfact>
</mgrwt>
</event>
<event>
 6    1  0.1415125E-002  0.6410642E+03  0.7818608E-02  0.9823693E-01
          1   -1    0    0  502    0  0.00000000000E+00  0.00000000000E+00  0.11568482984E+03  0.11568482984E+03  0.00000000000E+00 0.  1.
         13   -1    0    0    0    0 -0.00000000000E+00 -0.00000000000E+00 -0.10000000000E+04  0.10000000000E+04  0.00000000000E+00 0.  1.
    9000005    2    1    2  501    0 -0.15870496552E+00  0.22858219889E+00 -0.89725752310E+03  0.11027394856E+04  0.64106414106E+03 0.  0.
         13    1    3    3    0    0 -0.25353968421E+03  0.15907898887E+03 -0.64664470630E+03  0.71255727654E+03  0.00000000000E+00 0.  1.
          1    1    3    3  501    0  0.25338097924E+03 -0.15885040667E+03 -0.25061281681E+03  0.39018220909E+03  0.00000000000E+00 0.  1.
         21    1    1    2  502  501  0.15870496552E+00 -0.22858219889E+00  0.12942352941E+02  0.12945344210E+02  0.00000000000E+00 0. -1.
<mgrwt>
<rscale>  1 0.64106420E+03</rscale>
<asrwt>0</asrwt>
<pdfrwt beam="1">  1        1 0.42067300E+00 0.64106420E+03</pdfrwt>
<pdfrwt beam="2">0</pdfrwt>
<totfact> 0.10826627E+00</totfact>
</mgrwt>
</event>
<event>
 6    1  0.1415125E-002  0.6504452E+03  0.7818608E-02  0.9805944E-01
          1   -1    0    0  502    0  0.00000000000E+00  0.00000000000E+00  0.10578692345E+03  0.10578692345E+03  0.00000000000E+00 0.  1.
         13   -1    0    0    0    0 -0.00000000000E+00 -0.00000000000E+00 -0.10000000000E+04  0.10000000000E+04  0.00000000000E+00 0.  1.
    9000005    2    1    2  501    0  0.10291776310E-02  0.44087170312E-02 -0.89422994255E+03  0.11057694604E+04  0.65044516248E+03 0.  0.
         13    1    3    3    0    0  0.30838806483E+03  0.17025373620E+02 -0.62029312430E+03  0.69293334595E+03  0.00000000000E+00 0.  1.
          3    1    3    3  501    0 -0.30838703565E+03 -0.17020964903E+02 -0.27393681825E+03  0.41283611445E+03  0.00000000000E+00 0.  1.
         21    1    1    2  502  501 -0.10291776310E-02 -0.44087170312E-02  0.16866002356E-01  0.17463047498E-01  0.00000000000E+00 0.  1.
<mgrwt>
<rscale>  1 0.65044516E+03</rscale>
<asrwt>0</asrwt>
<pdfrwt beam="1">  1        1 0.38468053E+00 0.65044516E+03</pdfrwt>
<pdfrwt beam="2">0</pdfrwt>
<totfact> 0.15645502E+00</totfact>
</mgrwt>
</event>
<event>
 6    1  0.1415125E-002  0.6581403E+03  0.7818608E-02  0.9791623E-01
          1   -1    0    0  502    0  0.00000000000E+00  0.00000000000E+00  0.10844150275E+03  0.10844150275E+03  0.00000000000E+00 0.  1.
         13   -1    0    0    0    0 -0.00000000000E+00 -0.00000000000E+00 -0.10000000000E+04  0.10000000000E+04  0.00000000000E+00 0.  1.
    9000005    2    1    2  501    0 -0.44094760351E-02 -0.20238465374E-01 -0.89171205528E+03  0.11082865540E+04  0.65814033144E+03 0.  0.
         13    1    3    3    0    0 -0.25112119336E+03 -0.11385390245E+03 -0.14337636597E+03  0.31077539667E+03  0.00000000000E+00 0.  1.
          1    1    3    3  501    0  0.25111678389E+03  0.11383366398E+03 -0.74833568931E+03  0.79751115735E+03  0.00000000000E+00 0.  1.
         21    1    1    2  502  501  0.44094760351E-02  0.20238465374E-01  0.15355803263E+00  0.15494872812E+00  0.00000000000E+00 0.  1.
<mgrwt>
<rscale>  1 0.65814033E+03</rscale>
<asrwt>0</asrwt>
<pdfrwt beam="1">  1        1 0.39433357E+00 0.65814033E+03</pdfrwt>
<pdfrwt beam="2">0</pdfrwt>
<totfact> 0.14157009E+00</totfact>
</mgrwt>
</event>
<event>
 6    1  0.1415125E-002  0.6367330E+03  0.7818608E-02  0.9831997E-01
          1   -1    0    0  502    0  0.00000000000E+00  0.00000000000E+00  0.10135736126E+03  0.10135736126E+03  0.00000000000E+00 0.  1.
         13   -1    0    0    0    0 -0.00000000000E+00 -0.00000000000E+00 -0.10000000000E+04  0.10000000000E+04  0.00000000000E+00 0.  1.
    9000005    2    1    2  501    0 -0.17561085560E-04 -0.77463176922E-05 -0.89864277553E+03  0.11013572231E+04  0.63673298558E+03 0.  0.
         13    1    3    3    0    0  0.31016315951E+02  0.30408333047E+03 -0.60333793000E+03  0.67634705700E+03  0.00000000000E+00 0.  1.
          3    1    3    3  501    0 -0.31016333512E+02 -0.30408333822E+03 -0.29530484553E+03  0.42501016613E+03  0.00000000000E+00 0.  1.
         21    1    1    2  502  501  0.17561085558E-04  0.77463177103E-05  0.13679520233E-03  0.13813516766E-03  0.00000000000E+00 0. -1.
<mgrwt>
<rscale>  1 0.63673299E+03</rscale>
<asrwt>0</asrwt>
<pdfrwt beam="1">  1        1 0.36857300E+00 0.63673299E+03</pdfrwt>
<pdfrwt beam="2">0</pdfrwt>
<totfact> 0.18468866E+00</totfact>
</mgrwt>
</event>
<event>
 6    1  0.1415125E-002  0.6555464E+03  0.7818608E-02  0.9796427E-01
          1   -1    0    0  502    0  0.00000000000E+00  0.00000000000E+00  0.10745603848E+03  0.10745603848E+03  0.00000000000E+00 0.  1.
         13   -1    0    0    0    0 -0.00000000000E+00 -0.00000000000E+00 -0.10000000000E+04  0.10000000000E+04  0.00000000000E+00 0.  1.
    9000005    2    1    2  501    0  0.37415521176E-02 -0.78068114063E-02 -0.89256373794E+03  0.11074344502E+04  0.65554636388E+03 0.  0.
         13    1    3    3    0    0  0.99088253637E+02  0.36685546731E+02 -0.97044029894E+03  0.97617554013E+03  0.00000000000E+00 0.  1.
          3    1    3    3  501    0 -0.99084512085E+02 -0.36693353542E+02  0.77876560992E+02  0.13125891010E+03  0.00000000000E+00 0.  1.
         21    1    1    2  502  501 -0.37415521176E-02  0.78068114063E-02  0.19776419735E-01  0.21588244350E-01  0.00000000000E+00 0. -1.
<mgrwt>
<rscale>  1 0.65554636E+03</rscale>
<asrwt>0</asrwt>
<pdfrwt beam="1">  1        1 0.39075005E+00 0.65554636E+03</pdfrwt>
<pdfrwt beam="2">0</pdfrwt>
<totfact> 0.14692465E+00</totfact>
</mgrwt>
</event>
<event>
 6    1  0.1415125E-002  0.6501409E+03  0.7818608E-02  0.9806515E-01
          1   -1    0    0  502    0  0.00000000000E+00  0.00000000000E+00  0.10581504558E+03  0.10581504558E+03  0.00000000000E+00 0.  1.
         13   -1    0    0    0    0 -0.00000000000E+00 -0.00000000000E+00 -0.10000000000E+04  0.10000000000E+04  0.00000000000E+00 0.  1.
    9000005    2    1    2  501    0  0.43205636469E-01 -0.15805792821E+00 -0.89427585021E+03  0.11056276661E+04  0.65014091769E+03 0.  0.
         13    1    3    3    0    0  0.13506538428E+03  0.28923254961E+03 -0.34315283306E+03  0.46867045205E+03  0.00000000000E+00 0.  1.
          1    1    3    3  501    0 -0.13502217865E+03 -0.28939060754E+03 -0.55112301715E+03  0.63695721402E+03  0.00000000000E+00 0.  1.
         21    1    1    2  502  501 -0.43205636469E-01  0.15805792821E+00  0.90895790623E-01  0.18737950914E+00  0.00000000000E+00 0. -1.
<mgrwt>
<rscale>  1 0.65014094E+03</rscale>
<asrwt>0</asrwt>
<pdfrwt beam="1">  1        1 0.38478280E+00 0.65014094E+03</pdfrwt>
<pdfrwt beam="2">0</pdfrwt>
<totfact> 0.15630095E+00</totfact>
</mgrwt>
</event>
<event>
 6    1  0.1415125E-002  0.6522174E+03  0.7818608E-02  0.9802627E-01
          1   -1    0    0  502    0  0.00000000000E+00  0.00000000000E+00  0.10634718471E+03  0.10634718471E+03  0.00000000000E+00 0.  1.
         13   -1    0    0    0    0 -0.00000000000E+00 -0.00000000000E+00 -0.10000000000E+04  0.10000000000E+04  0.00000000000E+00 0.  1.
    9000005    2    1    2  501    0 -0.58706763866E-03  0.65406115326E-03 -0.89365191488E+03  0.11063459265E+04  0.65221742083E+03 0.  0.
         13    1    3    3    0    0  0.29069952113E+03 -0.42834605096E+02 -0.68675035947E+03  0.74697193469E+03  0.00000000000E+00 0.  1.
          1    1    3    3  501    0 -0.29070010820E+03  0.42835259157E+02 -0.20690155541E+03  0.35937399177E+03  0.00000000000E+00 0.  1.
         21    1    1    2  502  501  0.58706763870E-03 -0.65406115326E-03 -0.90041529913E-03  0.12582496237E-02  0.00000000000E+00 0.  1.
<mgrwt>
<rscale>  1 0.65221742E+03</rscale>
<asrwt>0</asrwt>
<pdfrwt beam="1">  1        1 0.38671785E+00 0.65221742E+03</pdfrwt>
<pdfrwt beam="2">0</pdfrwt>
<totfact> 0.15319074E+00</totfact>
</mgrwt>
</event>
<event>
 6    1  0.1415125E-002  0.6484315E+03  0.7818608E-02  0.9809727E-01
          1   -1    0    0  502    0  0.00000000000E+00  0.00000000000E+00  0.10511593209E+03  0.10511593209E+03  0.00000000000E+00 0.  1.
         13   -1    0    0    0    0 -0.00000000000E+00 -0.00000000000E+00 -0.10000000000E+04  0.10000000000E+04  0.00000000000E+00 0.  1.
    9000005    2    1    2  501    0  0.12696557377E-04  0.16509744228E-04 -0.89488415949E+03  0.11051158382E+04  0.64843145889E+03 0.  0.
         13    1    3    3    0    0  0.13497667249E+03 -0.29419838644E+03 -0.41581182167E+03  0.52694483938E+03  0.00000000000E+00 0.  1.
          1    1    3    3  501    0 -0.13497665979E+03  0.29419840295E+03 -0.47907233782E+03  0.57817099880E+03  0.00000000000E+00 0.  1.
         21    1    1    2  502  501 -0.12696557376E-04 -0.16509744212E-04  0.91573862566E-04  0.93912440754E-04  0.00000000000E+00 0.  1.
<mgrwt>
<rscale>  1 0.64843146E+03</rscale>
<asrwt>0</asrwt>
<pdfrwt beam="1">  1        1 0.38224056E+00 0.64843146E+03</pdfrwt>
<pdfrwt beam="2">0</pdfrwt>
<totfact> 0.16044825E+00</totfact>
</mgrwt>
</event>
<event>
 6    1  0.1415125E-002  0.6280867E+03  0.7818608E-02  0.9848790E-01
          1   -1    0    0  502    0  0.00000000000E+00  0.00000000000E+00  0.98623621084E+02  0.98623621084E+02  0.00000000000E+00 0.  1.
         13   -1    0    0    0    0 -0.00000000000E+00 -0.00000000000E+00 -0.10000000000E+04  0.10000000000E+04  0.00000000000E+00 0.  1.
    9000005    2    1    2  501    0 -0.68877772016E-03  0.60559996300E-03 -0.90137603655E+03  0.10986226421E+04  0.62808673804E+03 0.  0.
         13    1    3    3    0    0 -0.94165760373E+02  0.81546692466E+02 -0.95493826138E+03  0.96302862706E+03  0.00000000000E+00 0.  1.
          1    1    3    3  501    0  0.94165071595E+02 -0.81546086866E+02  0.53562224830E+02  0.13559401506E+03  0.00000000000E+00 0.  1.
         21    1    1    2  502  501  0.68877772016E-03 -0.60559996299E-03 -0.34236454376E-03  0.97896861226E-03  0.00000000000E+00 0. -1.
<mgrwt>
<rscale>  1 0.62808674E+03</rscale>
<asrwt>0</asrwt>
<pdfrwt beam="1">  1        1 0.35863211E+00 0.62808674E+03</pdfrwt>
<pdfrwt beam="2">0</pdfrwt>
<totfact> 0.20448450E+00</totfact>
</mgrwt>
</event>
<event>
 6    1  0.1415125E-002  0.5452859E+03  0.7818608E-02  0.1002591E+00
          1   -1    0    0  502    0  0.00000000000E+00  0.00000000000E+00  0.74919478596E+02  0.74919478596E+02  0.00000000000E+00 0.  1.
         13   -1    0    0    0    0 -0.00000000000E+00 -0.00000000000E+00 -0.10000000000E+04  0.10000000000E+04  0.00000000000E+00 0.  1.
    9000005    2    1    2  501    0 -0.16948457944E-01 -0.24073820677E-02 -0.92566569149E+03  0.10743340582E+04  0.54528588451E+03 0.  0.
         13    1    3    3    0    0  0.20671900224E+03  0.59310948378E+02 -0.13266975657E+03  0.25268913469E+03  0.00000000000E+00 0.  1.
          3    1    3    3  501    0 -0.20673595069E+03 -0.59313355760E+02 -0.79299593492E+03  0.82164492348E+03  0.00000000000E+00 0.  1.
         21    1    1    2  502  501  0.16948457944E-01  0.24073820677E-02  0.58517008655E+00  0.58542042662E+00  0.00000000000E+00 0.  1.
<mgrwt>
<rscale>  1 0.54528588E+03</rscale>
<asrwt>0</asrwt>
<pdfrwt beam="1">  1        1 0.27243504E+00 0.54528588E+03</pdfrwt>
<pdfrwt beam="2">0</pdfrwt>
<totfact> 0.48992508E+00</totfact>
</mgrwt>
</event>
<event>
 6    1  0.1415125E-002  0.6455253E+03  0.7818608E-02  0.9815212E-01
          1   -1    0    0  502    0  0.00000000000E+00  0.00000000000E+00  0.10501759419E+03  0.10501759419E+03  0.00000000000E+00 0.  1.
         13   -1    0    0    0    0 -0.00000000000E+00 -0.00000000000E+00 -0.10000000000E+04  0.10000000000E+04  0.00000000000E+00 0.  1.
    9000005    2    1    2  501    0  0.31881949572E+00  0.65044020065E+00 -0.89564877680E+03  0.11040333337E+04  0.64552486081E+03 0.  0.
         13    1    3    3    0    0 -0.24344622468E+03  0.46569691263E+01 -0.80971603772E+03  0.84553404036E+03  0.00000000000E+00 0.  1.
          1    1    3    3  501    0  0.24376504417E+03 -0.40065289257E+01 -0.85932739078E+02  0.25849929338E+03  0.00000000000E+00 0.  1.
         21    1    1    2  502  501 -0.31881949572E+00 -0.65044020065E+00  0.66637099146E+00  0.98426044507E+00  0.00000000000E+00 0.  1.
<mgrwt>
<rscale>  1 0.64552527E+03</rscale>
<asrwt>0</asrwt>
<pdfrwt beam="1">  1        1 0.38188297E+00 0.64552527E+03</pdfrwt>
<pdfrwt beam="2">0</pdfrwt>
<totfact> 0.16111911E+00</totfact>
</mgrwt>
</event>
<event>
 6    1  0.1415125E-002  0.7004720E+03  0.7818608E-02  0.9716425E-01
          1   -1    0    0  502    0  0.00000000000E+00  0.00000000000E+00  0.12719952549E+03  0.12719952549E+03  0.00000000000E+00 0.  1.
         13   -1    0    0    0    0 -0.00000000000E+00 -0.00000000000E+00 -0.10000000000E+04  0.10000000000E+04  0.00000000000E+00 0.  1.
    9000005    2    1    2  501    0  0.69114863477E-01 -0.22408441408E-01 -0.87733442260E+03  0.11226649953E+04  0.70047198178E+03 0.  0.
         13    1    3    3    0    0  0.32656439990E+03  0.84385221477E+02 -0.59008129951E+03  0.67967721230E+03  0.00000000000E+00 0.  1.
          1    1    3    3  501    0 -0.32649528504E+03 -0.84407629918E+02 -0.28725312309E+03  0.44298778297E+03  0.00000000000E+00 0.  1.
         21    1    1    2  502  501 -0.69114863477E-01  0.22408441408E-01  0.45339480945E+01  0.45345302211E+01  0.00000000000E+00 0.  1.
<mgrwt>
<rscale>  1 0.70047199E+03</rscale>
<asrwt>0</asrwt>
<pdfrwt beam="1">  1        1 0.46254470E+00 0.70047199E+03</pdfrwt>
<pdfrwt beam="2">0</pdfrwt>
<totfact> 0.68787225E-01</totfact>
</mgrwt>
</event>
<event>
 6    1  0.1415125E-002  0.6538888E+03  0.7818608E-02  0.9799509E-01
          1   -1    0    0  502    0  0.00000000000E+00  0.00000000000E+00  0.10689263954E+03  0.10689263954E+03  0.00000000000E+00 0.  1.
         13   -1    0    0    0    0 -0.00000000000E+00 -0.00000000000E+00 -0.10000000000E+04  0.10000000000E+04  0.00000000000E+00 0.  1.
    9000005    2    1    2  501    0 -0.18604567913E-05 -0.15519267436E-05 -0.89310735846E+03  0.11068926364E+04  0.65388879391E+03 0.  0.
         13    1    3    3    0    0 -0.18182581834E+03  0.26862525833E+03 -0.37732561305E+03  0.49758896279E+03  0.00000000000E+00 0.  1.
          1    1    3    3  501    0  0.18182581648E+03 -0.26862525988E+03 -0.51578174541E+03  0.60930367361E+03  0.00000000000E+00 0.  1.
         21    1    1    2  502  501  0.18604567790E-05  0.15519267566E-05 -0.19973135074E-05  0.31399104018E-05  0.00000000000E+00 0.  1.
<mgrwt>
<rscale>  1 0.65388879E+03</rscale>
<asrwt>0</asrwt>
<pdfrwt beam="1">  1        1 0.38870133E+00 0.65388879E+03</pdfrwt>
<pdfrwt beam="2">0</pdfrwt>
<totfact> 0.15007642E+00</totfact>
</mgrwt>
</event>
<event>
 6    1  0.1415125E-002  0.4851090E+03  0.7818608E-02  0.1017740E+00
          1   -1    0    0  502    0  0.00000000000E+00  0.00000000000E+00  0.58832814424E+02  0.58832814424E+02  0.00000000000E+00 0.  1.
         13   -1    0    0    0    0 -0.00000000000E+00 -0.00000000000E+00 -0.10000000000E+04  0.10000000000E+04  0.00000000000E+00 0.  1.
    9000005    2    1    2  501    0  0.22626548741E-04 -0.17253121605E-04 -0.94116730193E+03  0.10588326946E+04  0.48510904445E+03 0.  0.
         13    1    3    3    0    0  0.17467481257E+03  0.17919521862E+02 -0.83581608246E+03  0.85406142818E+03  0.00000000000E+00 0.  1.
          1    1    3    3  501    0 -0.17467478994E+03 -0.17919539115E+02 -0.10535121948E+03  0.20477126646E+03  0.00000000000E+00 0.  1.
         21    1    1    2  502  501 -0.22626548757E-04  0.17253121604E-04  0.11635773788E-03  0.11978628501E-03  0.00000000000E+00 0.  1.
<mgrwt>
<rscale>  1 0.48510904E+03</rscale>
<asrwt>0</asrwt>
<pdfrwt beam="1">  1        1 0.21393796E+00 0.48510904E+03</pdfrwt>
<pdfrwt beam="2">0</pdfrwt>
<totfact> 0.89198957E+00</totfact>
</mgrwt>
</event>
<event>
 6    1  0.1415125E-002  0.6510117E+03  0.7818608E-02  0.9804883E-01
          1   -1    0    0  502    0  0.00000000000E+00  0.00000000000E+00  0.10598468075E+03  0.10598468075E+03  0.00000000000E+00 0.  1.
         13   -1    0    0    0    0 -0.00000000000E+00 -0.00000000000E+00 -0.10000000000E+04  0.10000000000E+04  0.00000000000E+00 0.  1.
    9000005    2    1    2  501    0 -0.12013930020E-02 -0.20824990759E-03 -0.89404592253E+03  0.11059540532E+04  0.65101171738E+03 0.  0.
         13    1    3    3    0    0  0.46710289783E+02 -0.29050704901E+03 -0.68350672817E+03  0.74414893950E+03  0.00000000000E+00 0.  1.
          3    1    3    3  501    0 -0.46711491176E+02  0.29050684076E+03 -0.21053919436E+03  0.36180511369E+03  0.00000000000E+00 0.  1.
         21    1    1    2  502  501  0.12013930020E-02  0.20824990758E-03  0.30603285208E-01  0.30627565667E-01  0.00000000000E+00 0. -1.
<mgrwt>
<rscale>  1 0.65101172E+03</rscale>
<asrwt>0</asrwt>
<pdfrwt beam="1">  1        1 0.38539965E+00 0.65101172E+03</pdfrwt>
<pdfrwt beam="2">0</pdfrwt>
<totfact> 0.15529704E+00</totfact>
</mgrwt>
</event>
<event>
 6    1  0.1415125E-002  0.6564927E+03  0.7818608E-02  0.9794672E-01
          1   -1    0    0  502    0  0.00000000000E+00  0.00000000000E+00  0.14636389950E+03  0.14636389950E+03  0.00000000000E+00 0.  1.
         13   -1    0    0    0    0 -0.00000000000E+00 -0.00000000000E+00 -0.10000000000E+04  0.10000000000E+04  0.00000000000E+00 0.  1.
    9000005    2    1    2  501    0  0.57440387816E+01  0.55397859128E+02 -0.86851552350E+03  0.10887157078E+04  0.65412595200E+03 0.  0.
         13    1    3    3    0    0 -0.25829041150E+03  0.10123941214E+03 -0.74239583249E+03  0.79253701954E+03  0.00000000000E+00 0.  1.
          1    1    3    3  501    0  0.26403445029E+03 -0.45841553016E+02 -0.12611969101E+03  0.29617868826E+03  0.00000000000E+00 0.  1.
         21    1    1    2  502  501 -0.57440387816E+01 -0.55397859128E+02  0.14879423001E+02  0.57648191701E+02  0.00000000000E+00 0. -1.
<mgrwt>
<rscale>  1 0.65649271E+03</rscale>
<asrwt>0</asrwt>
<pdfrwt beam="1">  1        1 0.53223348E+00 0.65649271E+03</pdfrwt>
<pdfrwt beam="2">0</pdfrwt>
<totfact> 0.32113308E-01</totfact>
</mgrwt>
</event>
<event>
 6    1  0.1415125E-002  0.6562423E+03  0.7818608E-02  0.9795136E-01
          1   -1    0    0  502    0  0.00000000000E+00  0.00000000000E+00  0.10766358036E+03  0.10766358036E+03  0.00000000000E+00 0.  1.
         13   -1    0    0    0    0 -0.00000000000E+00 -0.00000000000E+00 -0.10000000000E+04  0.10000000000E+04  0.00000000000E+00 0.  1.
    9000005    2    1    2  501    0  0.10596375830E-04 -0.53117353360E-06 -0.89233652436E+03  0.11076634751E+04  0.65624225816E+03 0.  0.
         13    1    3    3    0    0  0.32554521802E+03 -0.36553780233E+02 -0.41469872967E+03  0.52847980493E+03  0.00000000000E+00 0.  1.
          3    1    3    3  501    0 -0.32554520743E+03  0.36553779702E+02 -0.47763779469E+03  0.57918367018E+03  0.00000000000E+00 0.  1.
         21    1    1    2  502  501 -0.10596375813E-04  0.53117353546E-06  0.10471855011E-03  0.10525464390E-03  0.00000000000E+00 0.  1.
<mgrwt>
<rscale>  1 0.65624226E+03</rscale>
<asrwt>0</asrwt>
<pdfrwt beam="1">  1        1 0.39150475E+00 0.65624226E+03</pdfrwt>
<pdfrwt beam="2">0</pdfrwt>
<totfact> 0.14577720E+00</totfact>
</mgrwt>
</event>
<event>
 6    1  0.1415125E-002  0.6427877E+03  0.7818608E-02  0.9820407E-01
          1   -1    0    0  502    0  0.00000000000E+00  0.00000000000E+00  0.11590708765E+03  0.11590708765E+03  0.00000000000E+00 0.  1.
         13   -1    0    0    0    0 -0.00000000000E+00 -0.00000000000E+00 -0.10000000000E+04  0.10000000000E+04  0.00000000000E+00 0.  1.
    9000005    2    1    2  501    0 -0.43321896034E+00 -0.15069854075E+00 -0.89670138175E+03  0.11032902779E+04  0.64278756894E+03 0.  0.
         13    1    3    3    0    0 -0.23415524033E+03  0.74693844487E+02 -0.92721097695E+02  0.26268812104E+03  0.00000000000E+00 0.  1.
          3    1    3    3  501    0  0.23372202137E+03 -0.74844543028E+02 -0.80398028406E+03  0.84060215682E+03  0.00000000000E+00 0.  1.
         21    1    1    2  502  501  0.43321896034E+00  0.15069854075E+00  0.12608469407E+02  0.12616809799E+02  0.00000000000E+00 0. -1.
<mgrwt>
<rscale>  1 0.64278773E+03</rscale>
<asrwt>0</asrwt>
<pdfrwt beam="1">  1        1 0.42148121E+00 0.64278773E+03</pdfrwt>
<pdfrwt beam="2">0</pdfrwt>
<totfact> 0.10732400E+00</totfact>
</mgrwt>
</event>
<event>
 6    1  0.1415125E-002  0.6430687E+03  0.7818608E-02  0.9819873E-01
          1   -1    0    0  502    0  0.00000000000E+00  0.00000000000E+00  0.12357373450E+03  0.12357373450E+03  0.00000000000E+00 0.  1.
         13   -1    0    0    0    0 -0.00000000000E+00 -0.00000000000E+00 -0.10000000000E+04  0.10000000000E+04  0.00000000000E+00 0.  1.
    9000005    2    1    2  501    0 -0.17538766436E+02 -0.76725615101E+01 -0.89148358477E+03  0.10992180495E+04  0.64278368204E+03 0.  0.
         13    1    3    3    0    0  0.31122622666E+03  0.88661784942E+01 -0.38469418997E+03  0.49490402411E+03  0.00000000000E+00 0.  1.
          1    1    3    3  501    0 -0.32876499309E+03 -0.16538740004E+02 -0.50678939480E+03  0.60431402539E+03  0.00000000000E+00 0.  1.
         21    1    1    2  502  501  0.17538766436E+02  0.76725615101E+01  0.15057319264E+02  0.24355684997E+02  0.00000000000E+00 0. -1.
<mgrwt>
<rscale>  1 0.64306869E+03</rscale>
<asrwt>0</asrwt>
<pdfrwt beam="1">  1        1 0.44935998E+00 0.64306869E+03</pdfrwt>
<pdfrwt beam="2">0</pdfrwt>
<totfact> 0.80104840E-01</totfact>
</mgrwt>
</event>
<event>
 6    1  0.1415125E-002  0.6594550E+03  0.7818608E-02  0.9789197E-01
          1   -1    0    0  502    0  0.00000000000E+00  0.00000000000E+00  0.10872023600E+03  0.10872023600E+03  0.00000000000E+00 0.  1.
         13   -1    0    0    0    0 -0.00000000000E+00 -0.00000000000E+00 -0.10000000000E+04  0.10000000000E+04  0.00000000000E+00 0.  1.
    9000005    2    1    2  501    0  0.93845028459E-06 -0.15415797492E-05 -0.89127976699E+03  0.11087202325E+04  0.65945502570E+03 0.  0.
         13    1    3    3    0    0 -0.25715740686E+03 -0.81073476770E+02 -0.76471498928E+03  0.81085871480E+03  0.00000000000E+00 0.  1.
          3    1    3    3  501    0  0.25715740780E+03  0.81073475228E+02 -0.12656477771E+03  0.29786151770E+03  0.00000000000E+00 0.  1.
         21    1    1    2  502  501 -0.93845030217E-06  0.15415797583E-05  0.29935946929E-05  0.34955351959E-05  0.00000000000E+00 0.  1.
<mgrwt>
<rscale>  1 0.65945503E+03</rscale>
<asrwt>0</asrwt>
<pdfrwt beam="1">  1        1 0.39534715E+00 0.65945503E+03</pdfrwt>
<pdfrwt beam="2">0</pdfrwt>
<totfact> 0.14007428E+00</totfact>
</mgrwt>
</event>
<event>
 6    1  0.1415125E-002  0.6478101E+03  0.7818608E-02  0.9810897E-01
          1   -1    0    0  502    0  0.00000000000E+00  0.00000000000E+00  0.10616331274E+03  0.10616331274E+03  0.00000000000E+00 0.  1.
         13   -1    0    0    0    0 -0.00000000000E+00 -0.00000000000E+00 -0.10000000000E+04  0.10000000000E+04  0.00000000000E+00 0.  1.
    9000005    2    1    2  501    0 -0.40864203411E+00  0.29059489012E+01 -0.89277295113E+03  0.11030419249E+04  0.64780346894E+03 0.  0.
         13    1    3    3    0    0  0.58459299391E+02  0.30688887546E+03 -0.60223884955E+03  0.67844668432E+03  0.00000000000E+00 0.  1.
          3    1    3    3  501    0 -0.58867941425E+02 -0.30398292656E+03 -0.29053410158E+03  0.42459524061E+03  0.00000000000E+00 0.  1.
         21    1    1    2  502  501  0.40864203411E+00 -0.29059489012E+01 -0.10637361310E+01  0.31213878139E+01  0.00000000000E+00 0.  1.
<mgrwt>
<rscale>  1 0.64781012E+03</rscale>
<asrwt>0</asrwt>
<pdfrwt beam="1">  1        1 0.38604922E+00 0.64781012E+03</pdfrwt>
<pdfrwt beam="2">0</pdfrwt>
<totfact> 0.15436418E+00</totfact>
</mgrwt>
</event>
<event>
 6    1  0.1415125E-002  0.6367418E+03  0.7818608E-02  0.9831980E-01
          1   -1    0    0  502    0  0.00000000000E+00  0.00000000000E+00  0.10152745618E+03  0.10152745618E+03  0.00000000000E+00 0.  1.
         13   -1    0    0    0    0 -0.00000000000E+00 -0.00000000000E+00 -0.10000000000E+04  0.10000000000E+04  0.00000000000E+00 0.  1.
    9000005    2    1    2  501    0 -0.10333856984E-01 -0.84169735506E-02 -0.89863967539E+03  0.11013597940E+04  0.63674180760E+03 0.  0.
         13    1    3    3    0    0 -0.25346321055E+03 -0.17147376230E+03 -0.29738014268E+03  0.42671043990E+03  0.00000000000E+00 0.  1.
          1    1    3    3  501    0  0.25345287669E+03  0.17146534533E+03 -0.60125953271E+03  0.67464935413E+03  0.00000000000E+00 0.  1.
         21    1    1    2  502  501  0.10333856984E-01  0.84169735506E-02  0.16713156912E+00  0.16766214671E+00  0.00000000000E+00 0.  1.
<mgrwt>
<rscale>  1 0.63674181E+03</rscale>
<asrwt>0</asrwt>
<pdfrwt beam="1">  1        1 0.36919153E+00 0.63674181E+03</pdfrwt>
<pdfrwt beam="2">0</pdfrwt>
<totfact> 0.18353733E+00</totfact>
</mgrwt>
</event>
<event>
 6    1  0.1415125E-002  0.6476048E+03  0.7818608E-02  0.9811284E-01
          1   -1    0    0  502    0  0.00000000000E+00  0.00000000000E+00  0.10484943079E+03  0.10484943079E+03  0.00000000000E+00 0.  1.
         13   -1    0    0    0    0 -0.00000000000E+00 -0.00000000000E+00 -0.10000000000E+04  0.10000000000E+04  0.00000000000E+00 0.  1.
    9000005    2    1    2  501    0  0.34639929052E-02  0.18078161133E-03 -0.89514912717E+03  0.11048456743E+04  0.64760482093E+03 0.  0.
         13    1    3    3    0    0  0.78988609959E+02  0.15364322963E+03  0.19654511361E+02  0.17387277628E+03  0.00000000000E+00 0.  1.
          3    1    3    3  501    0 -0.78985145966E+02 -0.15364304885E+03 -0.91480363853E+03  0.93097289800E+03  0.00000000000E+00 0.  1.
         21    1    1    2  502  501 -0.34639929052E-02 -0.18078161135E-03 -0.14420429492E-02  0.37565165653E-02  0.00000000000E+00 0. -1.
<mgrwt>
<rscale>  1 0.64760482E+03</rscale>
<asrwt>0</asrwt>
<pdfrwt beam="1">  1        1 0.38127146E+00 0.64760482E+03</pdfrwt>
<pdfrwt beam="2">0</pdfrwt>
<totfact> 0.16206180E+00</totfact>
</mgrwt>
</event>
<event>
 6    1  0.1415125E-002  0.6400019E+03  0.7818608E-02  0.9825723E-01
          1   -1    0    0  502    0  0.00000000000E+00  0.00000000000E+00  0.10258544269E+03  0.10258544269E+03  0.00000000000E+00 0.  1.
         13   -1    0    0    0    0 -0.00000000000E+00 -0.00000000000E+00 -0.10000000000E+04  0.10000000000E+04  0.00000000000E+00 0.  1.
    9000005    2    1    2  501    0  0.12094981669E+00 -0.14471339604E+00 -0.89754485501E+03  0.11023562085E+04  0.64000188131E+03 0.  0.
         13    1    3    3    0    0  0.16408391553E+03 -0.20110505775E+03 -0.77149693296E+03  0.81398666645E+03  0.00000000000E+00 0.  1.
          3    1    3    3  501    0 -0.16396296571E+03  0.20096034435E+03 -0.12604792204E+03  0.28836954204E+03  0.00000000000E+00 0.  1.
         21    1    1    2  502  501 -0.12094981669E+00  0.14471339604E+00  0.13029769711E+00  0.22923419253E+00  0.00000000000E+00 0.  1.
<mgrwt>
<rscale>  1 0.64000191E+03</rscale>
<asrwt>0</asrwt>
<pdfrwt beam="1">  1        1 0.37303876E+00 0.64000191E+03</pdfrwt>
<pdfrwt beam="2">0</pdfrwt>
<totfact> 0.17642557E+00</totfact>
</mgrwt>
</event>
<event>
 6    1  0.1415125E-002  0.6452519E+03  0.7818608E-02  0.9815730E-01
          1   -1    0    0  502    0  0.00000000000E+00  0.00000000000E+00  0.10480722610E+03  0.10480722610E+03  0.00000000000E+00 0.  1.
         13   -1    0    0    0    0 -0.00000000000E+00 -0.00000000000E+00 -0.10000000000E+04  0.10000000000E+04  0.00000000000E+00 0.  1.
    9000005    2    1    2  501    0  0.80105039309E+00 -0.20639219241E+00 -0.89564035216E+03  0.11038666913E+04  0.64525138311E+03 0.  0.
         13    1    3    3    0    0 -0.20073308244E+03  0.19473661634E+03 -0.72148236009E+03  0.77379126129E+03  0.00000000000E+00 0.  1.
          1    1    3    3  501    0  0.20153413283E+03 -0.19494300854E+03 -0.17415799207E+03  0.33007542998E+03  0.00000000000E+00 0.  1.
         21    1    1    2  502  501 -0.80105039309E+00  0.20639219241E+00  0.44757826567E+00  0.94053483362E+00  0.00000000000E+00 0.  1.
<mgrwt>
<rscale>  1 0.64525191E+03</rscale>
<asrwt>0</asrwt>
<pdfrwt beam="1">  1        1 0.38111799E+00 0.64525191E+03</pdfrwt>
<pdfrwt beam="2">0</pdfrwt>
<totfact> 0.16238520E+00</totfact>
</mgrwt>
</event>
<event>
 6    1  0.1415125E-002  0.6497866E+03  0.7818608E-02  0.9807180E-01
          1   -1    0    0  502    0  0.00000000000E+00  0.00000000000E+00  0.10556036523E+03  0.10556036523E+03  0.00000000000E+00 0.  1.
         13   -1    0    0    0    0 -0.00000000000E+00 -0.00000000000E+00 -0.10000000000E+04  0.10000000000E+04  0.00000000000E+00 0.  1.
    9000005    2    1    2  501    0  0.87714992787E-04  0.28245279168E-04 -0.89444434630E+03  0.11055556528E+04  0.64978659020E+03 0.  0.
         13    1    3    3    0    0 -0.17590839970E+03  0.24022244924E+03 -0.66843897775E+03  0.73175218290E+03  0.00000000000E+00 0.  1.
          3    1    3    3  501    0  0.17590848741E+03 -0.24022242100E+03 -0.22600536855E+03  0.37380346990E+03  0.00000000000E+00 0.  1.
         21    1    1    2  502  501 -0.87714992780E-04 -0.28245279177E-04  0.47115275408E-02  0.47124286184E-02  0.00000000000E+00 0.  1.
<mgrwt>
<rscale>  1 0.64978659E+03</rscale>
<asrwt>0</asrwt>
<pdfrwt beam="1">  1        1 0.38385668E+00 0.64978659E+03</pdfrwt>
<pdfrwt beam="2">0</pdfrwt>
<totfact> 0.15779202E+00</totfact>
</mgrwt>
</event>
<event>
 6    1  0.1415125E-002  0.6458866E+03  0.7818608E-02  0.9814528E-01
          1   -1    0    0  502    0  0.00000000000E+00  0.00000000000E+00  0.10429239292E+03  0.10429239292E+03  0.00000000000E+00 0.  1.
         13   -1    0    0    0    0 -0.00000000000E+00 -0.00000000000E+00 -0.10000000000E+04  0.10000000000E+04  0.00000000000E+00 0.  1.
    9000005    2    1    2  501    0 -0.35845987156E-04  0.11531999775E-04 -0.89570757641E+03  0.11042923444E+04  0.64588661495E+03 0.  0.
         13    1    3    3    0    0 -0.31817228793E+03 -0.42317283515E+02 -0.50873640386E+03  0.60152895683E+03  0.00000000000E+00 0.  1.
          1    1    3    3  501    0  0.31817225208E+03  0.42317295047E+02 -0.38697117255E+03  0.50276338753E+03  0.00000000000E+00 0.  1.
         21    1    1    2  502  501  0.35845987193E-04 -0.11531999777E-04 -0.30669320607E-04  0.48564689263E-04  0.00000000000E+00 0. -1.
<mgrwt>
<rscale>  1 0.64588661E+03</rscale>
<asrwt>0</asrwt>
<pdfrwt beam="1">  1        1 0.37924586E+00 0.64588661E+03</pdfrwt>
<pdfrwt beam="2">0</pdfrwt>
<totfact> 0.16548415E+00</totfact>
</mgrwt>
</event>
<event>
 6    1  0.1415125E-002  0.6520863E+03  0.7818608E-02  0.9802872E-01
          1   -1    0    0  502    0  0.00000000000E+00  0.00000000000E+00  0.10866470813E+03  0.10866470813E+03  0.00000000000E+00 0.  1.
         13   -1    0    0    0    0 -0.00000000000E+00 -0.00000000000E+00 -0.10000000000E+04  0.10000000000E+04  0.00000000000E+00 0.  1.
    9000005    2    1    2  501    0  0.10134867775E+00 -0.69069270963E-01 -0.89369408635E+03  0.11063027273E+04  0.65208633583E+03 0.  0.
         13    1    3    3    0    0  0.12011597855E+03  0.30255386620E+03 -0.41606853914E+03  0.52827996319E+03  0.00000000000E+00 0.  1.
          1    1    3    3  501    0 -0.12001462987E+03 -0.30262293547E+03 -0.47762554721E+03  0.57802276409E+03  0.00000000000E+00 0.  1.
         21    1    1    2  502  501 -0.10134867775E+00  0.69069270963E-01  0.23587944794E+01  0.23619808456E+01  0.00000000000E+00 0.  1.
<mgrwt>
<rscale>  1 0.65208635E+03</rscale>
<asrwt>0</asrwt>
<pdfrwt beam="1">  1        1 0.39514523E+00 0.65208635E+03</pdfrwt>
<pdfrwt beam="2">0</pdfrwt>
<totfact> 0.14055784E+00</totfact>
</mgrwt>
</event>
