<event>
 6    1  0.2516802E-002  0.6800144E+03  0.7818608E-02  0.9752034E-01
          1   -1    0    0  502    0  0.00000000000E+00  0.00000000000E+00  0.12024782870E+03  0.12024782870E+03  0.00000000000E+00 0.  1.
         13   -1    0    0    0    0 -0.00000000000E+00 -0.00000000000E+00 -0.10000000000E+04  0.10000000000E+04  0.00000000000E+00 0.  1.
    9000005    2    1    2  501    0 -0.34017277681E+00 -0.51645196388E-01 -0.88438799880E+03  0.11155992503E+04  0.68001429132E+03 0.  0.
         13    1    3    3    0    0 -0.19446592879E+03  0.52968919907E+02 -0.89173537550E+03  0.91422901062E+03  0.00000000000E+00 0.  1.
          1    1    3    3  501    0  0.19412575602E+03 -0.53020565103E+02  0.73473767010E+01  0.20137023965E+03  0.00000000000E+00 0.  1.
         21    1    1    2  502  501  0.34017277681E+00  0.51645196388E-01  0.46358275032E+01  0.46485784261E+01  0.00000000000E+00 0. -1.
<mgrwt>
<rscale>  1 0.68001438E+03</rscale>
<asrwt>0</asrwt>
<pdfrwt beam="1">  1        1 0.43726575E+00 0.68001438E+03</pdfrwt>
<pdfrwt beam="2">0</pdfrwt>
<totfact> 0.90331389E-01</totfact>
</mgrwt>
</event>
<event>
 6    1  0.2516802E-002  0.6463838E+03  0.7818608E-02  0.9813588E-01
          1   -1    0    0  502    0  0.00000000000E+00  0.00000000000E+00  0.10445302898E+03  0.10445302898E+03  0.00000000000E+00 0.  1.
         13   -1    0    0    0    0 -0.00000000000E+00 -0.00000000000E+00 -0.10000000000E+04  0.10000000000E+04  0.00000000000E+00 0.  1.
    9000005    2    1    2  501    0 -0.28832423595E-04  0.11693166670E-04 -0.89554695755E+03  0.11044529951E+04  0.64638383732E+03 0.  0.
         13    1    3    3    0    0 -0.16784711688E+03  0.97589220448E+02 -0.63004214644E+01  0.19425757618E+03  0.00000000000E+00 0.  1.
          3    1    3    3  501    0  0.16784708805E+03 -0.97589208754E+02 -0.88924653609E+03  0.91019541889E+03  0.00000000000E+00 0.  1.
         21    1    1    2  502  501  0.28832423602E-04 -0.11693166664E-04 -0.13471427759E-04  0.33904544876E-04  0.00000000000E+00 0. -1.
<mgrwt>
<rscale>  1 0.64638384E+03</rscale>
<asrwt>0</asrwt>
<pdfrwt beam="1">  1        1 0.37983000E+00 0.64638384E+03</pdfrwt>
<pdfrwt beam="2">0</pdfrwt>
<totfact> 0.16449018E+00</totfact>
</mgrwt>
</event>
<event>
 6    1  0.2516802E-002  0.6549847E+03  0.7818608E-02  0.9797470E-01
          1   -1    0    0  502    0  0.00000000000E+00  0.00000000000E+00  0.10725136149E+03  0.10725136149E+03  0.00000000000E+00 0.  1.
         13   -1    0    0    0    0 -0.00000000000E+00 -0.00000000000E+00 -0.10000000000E+04  0.10000000000E+04  0.00000000000E+00 0.  1.
    9000005    2    1    2  501    0 -0.10226544958E-04  0.39829630794E-05 -0.89274875347E+03  0.11072512460E+04  0.65498472117E+03 0.  0.
         13    1    3    3    0    0 -0.77051044556E+02  0.24075616461E+03 -0.94397744820E+02  0.26983574354E+03  0.00000000000E+00 0.  1.
          1    1    3    3  501    0  0.77051034330E+02 -0.24075616062E+03 -0.79835100865E+03  0.83741550247E+03  0.00000000000E+00 0.  1.
         21    1    1    2  502  501  0.10226544970E-04 -0.39829630694E-05  0.11495393853E-03  0.11547663920E-03  0.00000000000E+00 0.  1.
<mgrwt>
<rscale>  1 0.65498472E+03</rscale>
<asrwt>0</asrwt>
<pdfrwt beam="1">  1        1 0.39000577E+00 0.65498472E+03</pdfrwt>
<pdfrwt beam="2">0</pdfrwt>
<totfact> 0.14806121E+00</totfact>
</mgrwt>
</event>
<event>
 6    1  0.2516802E-002  0.7254672E+03  0.7818608E-02  0.9674645E-01
          1   -1    0    0  502    0  0.00000000000E+00  0.00000000000E+00  0.13157567573E+03  0.13157567573E+03  0.00000000000E+00 0.  1.
         13   -1    0    0    0    0 -0.00000000000E+00 -0.00000000000E+00 -0.10000000000E+04  0.10000000000E+04  0.00000000000E+00 0.  1.
    9000005    2    1    2  501    0 -0.31335348325E-04  0.14991771934E-04 -0.86842432004E+03  0.11315756407E+04  0.72546718126E+03 0.  0.
         13    1    3    3    0    0 -0.21479393175E+03  0.29191165975E+03 -0.45770337900E+03  0.58381609550E+03  0.00000000000E+00 0.  1.
          1    1    3    3  501    0  0.21479390041E+03 -0.29191164476E+03 -0.41072094103E+03  0.54775954524E+03  0.00000000000E+00 0.  1.
         21    1    1    2  502  501  0.31335348339E-04 -0.14991771930E-04 -0.42332708266E-05  0.34993968953E-04  0.00000000000E+00 0.  1.
<mgrwt>
<rscale>  1 0.72546718E+03</rscale>
<asrwt>0</asrwt>
<pdfrwt beam="1">  1        1 0.47845801E+00 0.72546718E+03</pdfrwt>
<pdfrwt beam="2">0</pdfrwt>
<totfact> 0.57638247E-01</totfact>
</mgrwt>
</event>
<event>
 6    1  0.2516802E-002  0.6536771E+03  0.7818608E-02  0.9799904E-01
          1   -1    0    0  502    0  0.00000000000E+00  0.00000000000E+00  0.10786151571E+03  0.10786151571E+03  0.00000000000E+00 0.  1.
         13   -1    0    0    0    0 -0.00000000000E+00 -0.00000000000E+00 -0.10000000000E+04  0.10000000000E+04  0.00000000000E+00 0.  1.
    9000005    2    1    2  501    0  0.86940101452E+00 -0.84554825389E+00 -0.89276904886E+03  0.11064946135E+04  0.65367597805E+03 0.  0.
         13    1    3    3    0    0 -0.43124444197E+02 -0.30276128054E+03 -0.25003749839E+03  0.39502260858E+03  0.00000000000E+00 0.  1.
          3    1    3    3  501    0  0.43993845211E+02  0.30191573229E+03 -0.64273155047E+03  0.71147200492E+03  0.00000000000E+00 0.  1.
         21    1    1    2  502  501 -0.86940101452E+00  0.84554825389E+00  0.63056457607E+00  0.13669022124E+01  0.00000000000E+00 0. -1.
<mgrwt>
<rscale>  1 0.65367710E+03</rscale>
<asrwt>0</asrwt>
<pdfrwt beam="1">  1        1 0.39222452E+00 0.65367710E+03</pdfrwt>
<pdfrwt beam="2">0</pdfrwt>
<totfact> 0.14477776E+00</totfact>
</mgrwt>
</event>
<event>
 6    1  0.2516802E-002  0.6414394E+03  0.7818608E-02  0.9822976E-01
          1   -1    0    0  502    0  0.00000000000E+00  0.00000000000E+00  0.10286115807E+03  0.10286115807E+03  0.00000000000E+00 0.  1.
         13   -1    0    0    0    0 -0.00000000000E+00 -0.00000000000E+00 -0.10000000000E+04  0.10000000000E+04  0.00000000000E+00 0.  1.
    9000005    2    1    2  501    0 -0.95213879732E-05 -0.69236924674E-05 -0.89713886069E+03  0.11028611359E+04  0.64143943578E+03 0.  0.
         13    1    3    3    0    0  0.24511724993E+02  0.20418370185E+03 -0.87171670332E+03  0.89564603478E+03  0.00000000000E+00 0.  1.
          1    1    3    3  501    0 -0.24511734514E+02 -0.20418370877E+03 -0.25422157365E+02  0.20721510115E+03  0.00000000000E+00 0.  1.
         21    1    1    2  502  501  0.95213879723E-05  0.69236924813E-05  0.18762872361E-04  0.22150388839E-04  0.00000000000E+00 0. -1.
<mgrwt>
<rscale>  1 0.64143944E+03</rscale>
<asrwt>0</asrwt>
<pdfrwt beam="1">  1        1 0.37404136E+00 0.64143944E+03</pdfrwt>
<pdfrwt beam="2">0</pdfrwt>
<totfact> 0.17459715E+00</totfact>
</mgrwt>
</event>
<event>
 6    1  0.2516802E-002  0.6547553E+03  0.7818608E-02  0.9797897E-01
          1   -1    0    0  502    0  0.00000000000E+00  0.00000000000E+00  0.12248558821E+03  0.12248558821E+03  0.00000000000E+00 0.  1.
         13   -1    0    0    0    0 -0.00000000000E+00 -0.00000000000E+00 -0.10000000000E+04  0.10000000000E+04  0.00000000000E+00 0.  1.
    9000005    2    1    2  501    0  0.97019910258E-01 -0.47652333382E+00 -0.89281961327E+03  0.11071726630E+04  0.65475507428E+03 0.  0.
         13    1    3    3    0    0 -0.19282371577E+03 -0.24052050818E+03 -0.25952315444E+03  0.40296819714E+03  0.00000000000E+00 0.  1.
          3    1    3    3  501    0  0.19292073568E+03  0.24004398485E+03 -0.63329645883E+03  0.70420446582E+03  0.00000000000E+00 0.  1.
         21    1    1    2  502  501 -0.97019910258E-01  0.47652333382E+00  0.15305201473E+02  0.15312925242E+02  0.00000000000E+00 0.  1.
<mgrwt>
<rscale>  1 0.65475525E+03</rscale>
<asrwt>0</asrwt>
<pdfrwt beam="1">  1        1 0.44540308E+00 0.65475525E+03</pdfrwt>
<pdfrwt beam="2">0</pdfrwt>
<totfact> 0.83327322E-01</totfact>
</mgrwt>
</event>
<event>
 6    1  0.2516802E-002  0.6365121E+03  0.7818608E-02  0.9832423E-01
          1   -1    0    0  502    0  0.00000000000E+00  0.00000000000E+00  0.10444610281E+03  0.10444610281E+03  0.00000000000E+00 0.  1.
         13   -1    0    0    0    0 -0.00000000000E+00 -0.00000000000E+00 -0.10000000000E+04  0.10000000000E+04  0.00000000000E+00 0.  1.
    9000005    2    1    2  501    0  0.97661071594E+01 -0.23460985549E-01 -0.88408695470E+03  0.10893839592E+04  0.63643718443E+03 0.  0.
         13    1    3    3    0    0  0.23932748545E+03 -0.79228708503E+02 -0.78949790880E+03  0.82877124802E+03  0.00000000000E+00 0.  1.
          1    1    3    3  501    0 -0.22956137829E+03  0.79205247517E+02 -0.94589045906E+02  0.26061271120E+03  0.00000000000E+00 0.  1.
         21    1    1    2  502  501 -0.97661071594E+01  0.23460985549E-01 -0.11466942488E+02  0.15062143589E+02  0.00000000000E+00 0. -1.
<mgrwt>
<rscale>  1 0.63651211E+03</rscale>
<asrwt>0</asrwt>
<pdfrwt beam="1">  1        1 0.37980481E+00 0.63651211E+03</pdfrwt>
<pdfrwt beam="2">0</pdfrwt>
<totfact> 0.16483296E+00</totfact>
</mgrwt>
</event>
<event>
 6    1  0.2516802E-002  0.6488426E+03  0.7818608E-02  0.9808953E-01
          1   -1    0    0  502    0  0.00000000000E+00  0.00000000000E+00  0.10526356904E+03  0.10526356904E+03  0.00000000000E+00 0.  1.
         13   -1    0    0    0    0 -0.00000000000E+00 -0.00000000000E+00 -0.10000000000E+04  0.10000000000E+04  0.00000000000E+00 0.  1.
    9000005    2    1    2  501    0 -0.16969074374E-02  0.49710361780E-02 -0.89475029093E+03  0.11052487471E+04  0.64884259251E+03 0.  0.
         13    1    3    3    0    0  0.28897253900E+03 -0.11115018887E+03 -0.61242541307E+03  0.68623930181E+03  0.00000000000E+00 0.  1.
          3    1    3    3  501    0 -0.28897423591E+03  0.11115515991E+03 -0.28232487786E+03  0.41900944530E+03  0.00000000000E+00 0.  1.
         21    1    1    2  502  501  0.16969074374E-02 -0.49710361780E-02  0.13859968722E-01  0.14821923914E-01  0.00000000000E+00 0. -1.
<mgrwt>
<rscale>  1 0.64884259E+03</rscale>
<asrwt>0</asrwt>
<pdfrwt beam="1">  1        1 0.38277742E+00 0.64884259E+03</pdfrwt>
<pdfrwt beam="2">0</pdfrwt>
<totfact> 0.15956234E+00</totfact>
</mgrwt>
</event>
<event>
 6    1  0.2516802E-002  0.6533482E+03  0.7818608E-02  0.9800517E-01
          3   -1    0    0  502    0  0.00000000000E+00  0.00000000000E+00  0.10671928877E+03  0.10671928877E+03  0.00000000000E+00 0.  1.
         13   -1    0    0    0    0 -0.00000000000E+00 -0.00000000000E+00 -0.10000000000E+04  0.10000000000E+04  0.00000000000E+00 0.  1.
    9000005    2    1    2  501    0 -0.47503282068E-02 -0.33791398087E-03 -0.89328202867E+03  0.11067143476E+04  0.65334819533E+03 0.  0.
         13    1    3    3    0    0  0.78769708879E+02  0.13980398190E+03 -0.92863392698E+03  0.94239630238E+03  0.00000000000E+00 0.  1.
          1    1    3    3  501    0 -0.78774459207E+02 -0.13980431981E+03  0.35351898308E+02  0.16431804519E+03  0.00000000000E+00 0.  1.
         21    1    1    2  502  501  0.47503282068E-02  0.33791398085E-03  0.13174455701E-02  0.49412009431E-02  0.00000000000E+00 0.  1.
<mgrwt>
<rscale>  1 0.65334820E+03</rscale>
<asrwt>0</asrwt>
<pdfrwt beam="1">  1        3 0.38807096E+00 0.65334820E+03</pdfrwt>
<pdfrwt beam="2">0</pdfrwt>
<totfact> 0.68393906E-02</totfact>
</mgrwt>
</event>
<event>
 6    1  0.2516802E-002  0.6511396E+03  0.7818608E-02  0.9804643E-01
          1   -1    0    0  502    0  0.00000000000E+00  0.00000000000E+00  0.10601461120E+03  0.10601461120E+03  0.00000000000E+00 0.  1.
         13   -1    0    0    0    0 -0.00000000000E+00 -0.00000000000E+00 -0.10000000000E+04  0.10000000000E+04  0.00000000000E+00 0.  1.
    9000005    2    1    2  501    0  0.12972715784E-03 -0.22575701519E-03 -0.89400428991E+03  0.11059957083E+04  0.65113964431E+03 0.  0.
         13    1    3    3    0    0  0.81474565959E+02 -0.31503700723E+03 -0.42923882509E+03  0.53863938752E+03  0.00000000000E+00 0.  1.
          3    1    3    3  501    0 -0.81474436232E+02  0.31503678147E+03 -0.46476546481E+03  0.56735632078E+03  0.00000000000E+00 0.  1.
         21    1    1    2  502  501 -0.12972715785E-03  0.22575701514E-03  0.18901107896E-01  0.18902901234E-01  0.00000000000E+00 0. -1.
<mgrwt>
<rscale>  1 0.65113964E+03</rscale>
<asrwt>0</asrwt>
<pdfrwt beam="1">  1        1 0.38550849E+00 0.65113964E+03</pdfrwt>
<pdfrwt beam="2">0</pdfrwt>
<totfact> 0.15512128E+00</totfact>
</mgrwt>
</event>
<event>
 6    1  0.2516802E-002  0.5818551E+03  0.7818608E-02  0.9943783E-01
          1   -1    0    0  502    0  0.00000000000E+00  0.00000000000E+00  0.84648001653E+02  0.84648001653E+02  0.00000000000E+00 0.  1.
         13   -1    0    0    0    0 -0.00000000000E+00 -0.00000000000E+00 -0.10000000000E+04  0.10000000000E+04  0.00000000000E+00 0.  1.
    9000005    2    1    2  501    0 -0.17795454932E-03 -0.13039922713E-02 -0.91536109766E+03  0.10846388077E+04  0.58185514001E+03 0.  0.
         13    1    3    3    0    0  0.27661504586E+03 -0.85928124466E+01 -0.29043906882E+03  0.40117897841E+03  0.00000000000E+00 0.  1.
          1    1    3    3  501    0 -0.27661522381E+03  0.85915084543E+01 -0.62492202884E+03  0.68345982925E+03  0.00000000000E+00 0.  1.
         21    1    1    2  502  501  0.17795454930E-03  0.13039922713E-02  0.90993146801E-02  0.91939975698E-02  0.00000000000E+00 0. -1.
<mgrwt>
<rscale>  1 0.58185514E+03</rscale>
<asrwt>0</asrwt>
<pdfrwt beam="1">  1        1 0.30781156E+00 0.58185514E+03</pdfrwt>
<pdfrwt beam="2">0</pdfrwt>
<totfact> 0.34253042E+00</totfact>
</mgrwt>
</event>
<event>
 6    1  0.2516802E-002  0.6429125E+03  0.7818608E-02  0.9820170E-01
          1   -1    0    0  502    0  0.00000000000E+00  0.00000000000E+00  0.10334954688E+03  0.10334954688E+03  0.00000000000E+00 0.  1.
         13   -1    0    0    0    0 -0.00000000000E+00 -0.00000000000E+00 -0.10000000000E+04  0.10000000000E+04  0.00000000000E+00 0.  1.
    9000005    2    1    2  501    0  0.22890137328E-02 -0.35664697587E-02 -0.89666554256E+03  0.11033338736E+04  0.64291254576E+03 0.  0.
         13    1    3    3    0    0  0.20831703391E+03 -0.22112253967E+03 -0.26798271056E+03  0.40509986094E+03  0.00000000000E+00 0.  1.
          3    1    3    3  501    0 -0.20831474490E+03  0.22111897320E+03 -0.62868283200E+03  0.69823401271E+03  0.00000000000E+00 0.  1.
         21    1    1    2  502  501 -0.22890137328E-02  0.35664697586E-02  0.15089436786E-01  0.15673238112E-01  0.00000000000E+00 0. -1.
<mgrwt>
<rscale>  1 0.64291255E+03</rscale>
<asrwt>0</asrwt>
<pdfrwt beam="1">  1        1 0.37581733E+00 0.64291255E+03</pdfrwt>
<pdfrwt beam="2">0</pdfrwt>
<totfact> 0.17143634E+00</totfact>
</mgrwt>
</event>
<event>
 6    1  0.2516802E-002  0.6544663E+03  0.7818608E-02  0.9798434E-01
          1   -1    0    0  502    0  0.00000000000E+00  0.00000000000E+00  0.11803485291E+03  0.11803485291E+03  0.00000000000E+00 0.  1.
         13   -1    0    0    0    0 -0.00000000000E+00 -0.00000000000E+00 -0.10000000000E+04  0.10000000000E+04  0.00000000000E+00 0.  1.
    9000005    2    1    2  501    0 -0.13607744501E+02  0.80703107303E+01 -0.88618783909E+03  0.11016601238E+04  0.65427505041E+03 0.  0.
         13    1    3    3    0    0  0.21236263268E+03  0.15618908914E+03 -0.12078566748E+03  0.28996913076E+03  0.00000000000E+00 0.  1.
          1    1    3    3  501    0 -0.22597037718E+03 -0.14811877841E+03 -0.76540217161E+03  0.81169099304E+03  0.00000000000E+00 0.  1.
         21    1    1    2  502  501  0.13607744501E+02 -0.80703107303E+01  0.42226919974E+01  0.16374729109E+02  0.00000000000E+00 0.  1.
<mgrwt>
<rscale>  1 0.65446630E+03</rscale>
<asrwt>0</asrwt>
<pdfrwt beam="1">  1        1 0.42921855E+00 0.65446630E+03</pdfrwt>
<pdfrwt beam="2">0</pdfrwt>
<totfact> 0.98779928E-01</totfact>
</mgrwt>
</event>
<event>
 6    1  0.2516802E-002  0.6060621E+03  0.7818608E-02  0.9892908E-01
          1   -1    0    0  502    0  0.00000000000E+00  0.00000000000E+00  0.91829606338E+02  0.91829606338E+02  0.00000000000E+00 0.  1.
         13   -1    0    0    0    0 -0.00000000000E+00 -0.00000000000E+00 -0.10000000000E+04  0.10000000000E+04  0.00000000000E+00 0.  1.
    9000005    2    1    2  501    0  0.10824040423E-02 -0.13628269044E-02 -0.90817169791E+03  0.10918274315E+04  0.60606213154E+03 0.  0.
         13    1    3    3    0    0  0.29475454390E+03 -0.43948674895E+02 -0.55303021909E+03  0.62821505108E+03  0.00000000000E+00 0.  1.
          1    1    3    3  501    0 -0.29475346149E+03  0.43947312068E+02 -0.35514147881E+03  0.46361238041E+03  0.00000000000E+00 0.  1.
         21    1    1    2  502  501 -0.10824040423E-02  0.13628269044E-02  0.13042437051E-02  0.21748442070E-02  0.00000000000E+00 0.  1.
<mgrwt>
<rscale>  1 0.60606213E+03</rscale>
<asrwt>0</asrwt>
<pdfrwt beam="1">  1        1 0.33392655E+00 0.60606213E+03</pdfrwt>
<pdfrwt beam="2">0</pdfrwt>
<totfact> 0.26296359E+00</totfact>
</mgrwt>
</event>
<event>
 6    1  0.2516802E-002  0.6540617E+03  0.7818608E-02  0.9799187E-01
          1   -1    0    0  502    0  0.00000000000E+00  0.00000000000E+00  0.11643727530E+03  0.11643727530E+03  0.00000000000E+00 0.  1.
         13   -1    0    0    0    0 -0.00000000000E+00 -0.00000000000E+00 -0.10000000000E+04  0.10000000000E+04  0.00000000000E+00 0.  1.
    9000005    2    1    2  501    0 -0.74494286880E+01 -0.74100051910E+01 -0.88971627264E+03  0.11042607275E+04  0.65397729800E+03 0.  0.
         13    1    3    3    0    0 -0.15798192814E+03  0.28162580605E+03 -0.37293761174E+03  0.49330907806E+03  0.00000000000E+00 0.  1.
          3    1    3    3  501    0  0.15053249945E+03 -0.28903581124E+03 -0.51677866090E+03  0.61095164942E+03  0.00000000000E+00 0.  1.
         21    1    1    2  502  501  0.74494286880E+01  0.74100051910E+01  0.61535479402E+01  0.12176547826E+02  0.00000000000E+00 0.  1.
<mgrwt>
<rscale>  1 0.65406170E+03</rscale>
<asrwt>0</asrwt>
<pdfrwt beam="1">  1        1 0.42340917E+00 0.65406170E+03</pdfrwt>
<pdfrwt beam="2">0</pdfrwt>
<totfact> 0.10495773E+00</totfact>
</mgrwt>
</event>
<event>
 6    1  0.2516802E-002  0.6397896E+03  0.7818608E-02  0.9826129E-01
          1   -1    0    0  502    0  0.00000000000E+00  0.00000000000E+00  0.10235969827E+03  0.10235969827E+03  0.00000000000E+00 0.  1.
         13   -1    0    0    0    0 -0.00000000000E+00 -0.00000000000E+00 -0.10000000000E+04  0.10000000000E+04  0.00000000000E+00 0.  1.
    9000005    2    1    2  501    0  0.37634923393E-03  0.29116628377E-03 -0.89766731234E+03  0.11023326835E+04  0.63978960712E+03 0.  0.
         13    1    3    3    0    0 -0.16692412609E+03 -0.26977346236E+03 -0.37797879717E+03  0.49346667159E+03  0.00000000000E+00 0.  1.
          3    1    3    3  501    0  0.16692450244E+03  0.26977375352E+03 -0.51968851518E+03  0.60886601187E+03  0.00000000000E+00 0.  1.
         21    1    1    2  502  501 -0.37634923391E-03 -0.29116628379E-03  0.27010610941E-01  0.27014801868E-01  0.00000000000E+00 0. -1.
<mgrwt>
<rscale>  1 0.63978961E+03</rscale>
<asrwt>0</asrwt>
<pdfrwt beam="1">  1        1 0.37221787E+00 0.63978961E+03</pdfrwt>
<pdfrwt beam="2">0</pdfrwt>
<totfact> 0.17790486E+00</totfact>
</mgrwt>
</event>
<event>
 6    1  0.2516802E-002  0.6498632E+03  0.7818608E-02  0.9807036E-01
          1   -1    0    0  502    0  0.00000000000E+00  0.00000000000E+00  0.11069256207E+03  0.11069256207E+03  0.00000000000E+00 0.  1.
         13   -1    0    0    0    0 -0.00000000000E+00 -0.00000000000E+00 -0.10000000000E+04  0.10000000000E+04  0.00000000000E+00 0.  1.
    9000005    2    1    2  501    0 -0.10637288672E+00 -0.19923090743E+00 -0.89441671310E+03  0.11055782976E+04  0.64986311209E+03 0.  0.
         13    1    3    3    0    0  0.84542282199E+02  0.15278223799E+03 -0.91318991179E+03  0.92973416884E+03  0.00000000000E+00 0.  1.
          3    1    3    3  501    0 -0.84648655086E+02 -0.15298146889E+03  0.18773198685E+02  0.17584412877E+03  0.00000000000E+00 0.  1.
         21    1    1    2  502  501  0.10637288672E+00  0.19923090743E+00  0.51092751744E+01  0.51142644587E+01  0.00000000000E+00 0.  1.
<mgrwt>
<rscale>  1 0.64986315E+03</rscale>
<asrwt>0</asrwt>
<pdfrwt beam="1">  1        1 0.40251926E+00 0.64986315E+03</pdfrwt>
<pdfrwt beam="2">0</pdfrwt>
<totfact> 0.13037355E+00</totfact>
</mgrwt>
</event>
<event>
 6    1  0.2516802E-002  0.6503320E+03  0.7818608E-02  0.9806156E-01
          1   -1    0    0  502    0  0.00000000000E+00  0.00000000000E+00  0.10573293472E+03  0.10573293472E+03  0.00000000000E+00 0.  1.
         13   -1    0    0    0    0 -0.00000000000E+00 -0.00000000000E+00 -0.10000000000E+04  0.10000000000E+04  0.00000000000E+00 0.  1.
    9000005    2    1    2  501    0 -0.14624145024E-04  0.13547117192E-04 -0.89426707755E+03  0.11057329113E+04  0.65033196537E+03 0.  0.
         13    1    3    3    0    0 -0.11376833317E+03 -0.29156006695E+03 -0.59712692555E+03  0.67417436282E+03  0.00000000000E+00 0.  1.
          1    1    3    3  501    0  0.11376831854E+03  0.29156008050E+03 -0.29714015200E+03  0.43155854849E+03  0.00000000000E+00 0.  1.
         21    1    1    2  502  501  0.14624145027E-04 -0.13547117183E-04  0.12270741651E-04  0.23408568996E-04  0.00000000000E+00 0. -1.
<mgrwt>
<rscale>  1 0.65033197E+03</rscale>
<asrwt>0</asrwt>
<pdfrwt beam="1">  1        1 0.38448421E+00 0.65033197E+03</pdfrwt>
<pdfrwt beam="2">0</pdfrwt>
<totfact> 0.15677138E+00</totfact>
</mgrwt>
</event>
<event>
 6    1  0.2516802E-002  0.6413937E+03  0.7818608E-02  0.9823064E-01
          1   -1    0    0  502    0  0.00000000000E+00  0.00000000000E+00  0.10290529162E+03  0.10290529162E+03  0.00000000000E+00 0.  1.
         13   -1    0    0    0    0 -0.00000000000E+00 -0.00000000000E+00 -0.10000000000E+04  0.10000000000E+04  0.00000000000E+00 0.  1.
    9000005    2    1    2  501    0  0.47687786736E-03  0.97456147754E-03 -0.89715351447E+03  0.11028464755E+04  0.64139373248E+03 0.  0.
         13    1    3    3    0    0 -0.12768268898E+03 -0.94187454399E+01  0.56997677441E+02  0.14014391555E+03  0.00000000000E+00 0.  1.
          1    1    3    3  501    0  0.12768316586E+03  0.94197200014E+01 -0.95415119191E+03  0.96270255998E+03  0.00000000000E+00 0.  1.
         21    1    1    2  502  501 -0.47687786736E-03 -0.97456147754E-03  0.58806085075E-01  0.58816093244E-01  0.00000000000E+00 0. -1.
<mgrwt>
<rscale>  1 0.64139373E+03</rscale>
<asrwt>0</asrwt>
<pdfrwt beam="1">  1        1 0.37420185E+00 0.64139373E+03</pdfrwt>
<pdfrwt beam="2">0</pdfrwt>
<totfact> 0.17431495E+00</totfact>
</mgrwt>
</event>
<event>
 6    1  0.2516802E-002  0.5374593E+03  0.7818608E-02  0.1004439E+00
          1   -1    0    0  502    0  0.00000000000E+00  0.00000000000E+00  0.75942259769E+02  0.75942259769E+02  0.00000000000E+00 0.  1.
         13   -1    0    0    0    0 -0.00000000000E+00 -0.00000000000E+00 -0.10000000000E+04  0.10000000000E+04  0.00000000000E+00 0.  1.
    9000005    2    1    2  501    0 -0.38768965215E-01  0.68135720751E-01 -0.92778393385E+03  0.10722152416E+04  0.53745929172E+03 0.  0.
         13    1    3    3    0    0  0.98070760327E+02  0.17091556668E+03 -0.99358753437E+02  0.22068567432E+03  0.00000000000E+00 0.  1.
          1    1    3    3  501    0 -0.98109529292E+02 -0.17084743096E+03 -0.82842518042E+03  0.85152956728E+03  0.00000000000E+00 0.  1.
         21    1    1    2  502  501  0.38768965215E-01 -0.68135720751E-01  0.37261936242E+01  0.37270181693E+01  0.00000000000E+00 0.  1.
<mgrwt>
<rscale>  1 0.53745930E+03</rscale>
<asrwt>0</asrwt>
<pdfrwt beam="1">  1        1 0.27615425E+00 0.53745930E+03</pdfrwt>
<pdfrwt beam="2">0</pdfrwt>
<totfact> 0.47277232E+00</totfact>
</mgrwt>
</event>
<event>
 6    1  0.2516802E-002  0.6342804E+03  0.7818608E-02  0.9836731E-01
          1   -1    0    0  502    0  0.00000000000E+00  0.00000000000E+00  0.10057855728E+03  0.10057855728E+03  0.00000000000E+00 0.  1.
         13   -1    0    0    0    0 -0.00000000000E+00 -0.00000000000E+00 -0.10000000000E+04  0.10000000000E+04  0.00000000000E+00 0.  1.
    9000005    2    1    2  501    0  0.18284115937E-03 -0.28426266056E-04 -0.89942209381E+03  0.11005778804E+04  0.63428035441E+03 0.  0.
         13    1    3    3    0    0 -0.19778387920E+02  0.20834927251E+03 -0.86316465210E+03  0.88817443141E+03  0.00000000000E+00 0.  1.
          3    1    3    3  501    0  0.19778570761E+02 -0.20834930094E+03 -0.36257441716E+02  0.21240344899E+03  0.00000000000E+00 0.  1.
         21    1    1    2  502  501 -0.18284115937E-03  0.28426266055E-04  0.65109189297E-03  0.67687487414E-03  0.00000000000E+00 0.  1.
<mgrwt>
<rscale>  1 0.63428035E+03</rscale>
<asrwt>0</asrwt>
<pdfrwt beam="1">  1        1 0.36574098E+00 0.63428035E+03</pdfrwt>
<pdfrwt beam="2">0</pdfrwt>
<totfact> 0.19013239E+00</totfact>
</mgrwt>
</event>
<event>
 6    1  0.2516802E-002  0.5656318E+03  0.7818608E-02  0.9979392E-01
          1   -1    0    0  502    0  0.00000000000E+00  0.00000000000E+00  0.79984869693E+02  0.79984869693E+02  0.00000000000E+00 0.  1.
         13   -1    0    0    0    0 -0.00000000000E+00 -0.00000000000E+00 -0.10000000000E+04  0.10000000000E+04  0.00000000000E+00 0.  1.
    9000005    2    1    2  501    0 -0.10250195572E-05 -0.15752876237E-04 -0.92001516931E+03  0.10799848276E+04  0.56563178494E+03 0.  0.
         13    1    3    3    0    0  0.86991229815E+02 -0.24206831892E+03 -0.23554582206E+03  0.34877841014E+03  0.00000000000E+00 0.  1.
          3    1    3    3  501    0 -0.86991230840E+02  0.24206830317E+03 -0.68446934725E+03  0.73120641748E+03  0.00000000000E+00 0.  1.
         21    1    1    2  502  501  0.10250195542E-05  0.15752876219E-04  0.38998986322E-04  0.42072850016E-04  0.00000000000E+00 0.  1.
<mgrwt>
<rscale>  1 0.56563178E+03</rscale>
<asrwt>0</asrwt>
<pdfrwt beam="1">  1        1 0.29085468E+00 0.56563178E+03</pdfrwt>
<pdfrwt beam="2">0</pdfrwt>
<totfact> 0.40652925E+00</totfact>
</mgrwt>
</event>
