<event>
 6    1  0.9480355E-012  0.3000000E+03  0.7818608E-02  0.1093470E+00
          1   -1    0    0  502    0  0.00000000000E+00  0.00000000000E+00  0.23699767377E+03  0.23699767377E+03  0.00000000000E+00 0.  1.
         13   -1    0    0    0    0 -0.00000000000E+00 -0.00000000000E+00 -0.27500000000E+03  0.27500000000E+03  0.00000000000E+00 0.  1.
    9000005    2    1    2  501    0  0.19169582402E+02  0.39776408977E+02 -0.57441741428E+02  0.46375322887E+03  0.45805880412E+03 0.  0.
         13    1    3    3    0    0  0.20948271078E+03 -0.82006147581E+02 -0.74985683805E+02  0.23713048546E+03  0.00000000000E+00 0.  1.
          3    1    3    3  501    0 -0.19031312838E+03  0.12178255656E+03  0.17543942378E+02  0.22662274341E+03  0.00000000000E+00 0.  1.
         21    1    1    2  502  501 -0.19169582402E+02 -0.39776408977E+02  0.19439415199E+02  0.48244444901E+02  0.00000000000E+00 0. -1.
<scales pt_clust_4="550.00000" pt_clust_5="550.00000" pt_clust_6="44.15468"></scales>
<mgrwt>
<rscale>  0 0.30000000E+03</rscale>
<asrwt>  1 0.44154678E+02</asrwt>
<pdfrwt beam="1">  1        1 0.86180972E+00 0.30000000E+03</pdfrwt>
<pdfrwt beam="2">0</pdfrwt>
<totfact> 0.29642523E-04</totfact>
</mgrwt>
<clustering>
<clus scale="   44.155">  1  6  2 -1</clus>
<clus scale="  458.059">  4  5 -1 -1</clus>
<clus scale="  300.000">  1  4  2 -1</clus>
</clustering>
</event>
<event>
 6    1  0.9480355E-012  0.3000000E+03  0.7818608E-02  0.1093470E+00
          1   -1    0    0  502    0  0.00000000000E+00  0.00000000000E+00  0.22909862521E+03  0.22909862521E+03  0.00000000000E+00 0.  1.
         13   -1    0    0    0    0 -0.00000000000E+00 -0.00000000000E+00 -0.27500000000E+03  0.27500000000E+03  0.00000000000E+00 0.  1.
    9000005    2    1    2  501    0 -0.30542098061E+02  0.13055065605E+02 -0.35355368304E+02  0.46924933907E+03  0.46673513437E+03 0.  0.
         13    1    3    3    0    0 -0.66121880518E+02 -0.64148786196E+02 -0.23491755490E+03  0.25233594167E+03  0.00000000000E+00 0.  1.
          1    1    3    3  501    0  0.35579782457E+02  0.77203851802E+02  0.19956218660E+03  0.21691339740E+03  0.00000000000E+00 0.  1.
         21    1    1    2  502  501  0.30542098061E+02 -0.13055065605E+02 -0.10546006484E+02  0.34849286143E+02  0.00000000000E+00 0. -1.
<scales pt_clust_4="550.00000" pt_clust_5="550.00000" pt_clust_6="33.21529"></scales>
<mgrwt>
<rscale>  0 0.30000000E+03</rscale>
<asrwt>  1 0.33215292E+02</asrwt>
<pdfrwt beam="1">  1        1 0.83308591E+00 0.30000000E+03</pdfrwt>
<pdfrwt beam="2">0</pdfrwt>
<totfact> 0.56444697E-04</totfact>
</mgrwt>
<clustering>
<clus scale="   33.215">  1  6  2 -1</clus>
<clus scale="  466.735">  4  5 -1 -1</clus>
<clus scale="  300.000">  1  4  2 -1</clus>
</clustering>
</event>
<event>
 6    1  0.9480355E-012  0.3000000E+03  0.7818608E-02  0.1093470E+00
          1   -1    0    0  502    0  0.00000000000E+00  0.00000000000E+00  0.22054918118E+03  0.22054918118E+03  0.00000000000E+00 0.  1.
         13   -1    0    0    0    0 -0.00000000000E+00 -0.00000000000E+00 -0.27500000000E+03  0.27500000000E+03  0.00000000000E+00 0.  1.
    9000005    2    1    2  501    0  0.21125747925E+02 -0.22721963371E+02 -0.62790143306E+02  0.46342241387E+03  0.45809949437E+03 0.  0.
         13    1    3    3    0    0  0.19467935284E+03 -0.87113781016E+00  0.10486526439E+03  0.22112786568E+03  0.00000000000E+00 0.  1.
          1    1    3    3  501    0 -0.17355360491E+03 -0.21850825561E+02 -0.16765540770E+03  0.24229454820E+03  0.00000000000E+00 0.  1.
         21    1    1    2  502  501 -0.21125747925E+02  0.22721963371E+02  0.83393244890E+01  0.32126767310E+02  0.00000000000E+00 0. -1.
<scales pt_clust_4="550.00000" pt_clust_5="550.00000" pt_clust_6="31.02555"></scales>
<mgrwt>
<rscale>  0 0.30000000E+03</rscale>
<asrwt>  1 0.31025551E+02</asrwt>
<pdfrwt beam="1">  1        1 0.80199702E+00 0.30000000E+03</pdfrwt>
<pdfrwt beam="2">0</pdfrwt>
<totfact> 0.10261493E-03</totfact>
</mgrwt>
<clustering>
<clus scale="   31.026">  1  6  2 -1</clus>
<clus scale="  458.099">  4  5 -1 -1</clus>
<clus scale="  300.000">  1  4  2 -1</clus>
</clustering>
</event>
<event>
 6    1  0.9480355E-012  0.3000000E+03  0.7818608E-02  0.1093470E+00
          1   -1    0    0  502    0  0.00000000000E+00  0.00000000000E+00  0.24304188301E+03  0.24304188301E+03  0.00000000000E+00 0.  1.
         13   -1    0    0    0    0 -0.00000000000E+00 -0.00000000000E+00 -0.27500000000E+03  0.27500000000E+03  0.00000000000E+00 0.  1.
    9000005    2    1    2  501    0  0.30664262258E+02 -0.29556136170E+02 -0.13353461068E+02  0.47156613249E+03  0.46944908161E+03 0.  0.
         13    1    3    3    0    0 -0.13107602866E+03 -0.11762760299E+03  0.14543086062E+03  0.22840164950E+03  0.00000000000E+00 0.  1.
          3    1    3    3  501    0  0.16174029092E+03  0.88071466815E+02 -0.15878432169E+03  0.24316448299E+03  0.00000000000E+00 0.  1.
         21    1    1    2  502  501 -0.30664262258E+02  0.29556136170E+02 -0.18604655917E+02  0.46475750526E+02  0.00000000000E+00 0. -1.
<scales pt_clust_4="550.00000" pt_clust_5="550.00000" pt_clust_6="42.58948"></scales>
<mgrwt>
<rscale>  0 0.30000000E+03</rscale>
<asrwt>  1 0.42589482E+02</asrwt>
<pdfrwt beam="1">  1        1 0.88378867E+00 0.30000000E+03</pdfrwt>
<pdfrwt beam="2">0</pdfrwt>
<totfact> 0.17002930E-04</totfact>
</mgrwt>
<clustering>
<clus scale="   42.589">  1  6  2 -1</clus>
<clus scale="  469.449">  4  5 -1 -1</clus>
<clus scale="  300.000">  1  4  2 -1</clus>
</clustering>
</event>
<event>
 6    1  0.9480355E-012  0.3000000E+03  0.7818608E-02  0.1093470E+00
          1   -1    0    0  502    0  0.00000000000E+00  0.00000000000E+00  0.25209720960E+03  0.25209720960E+03  0.00000000000E+00 0.  1.
         13   -1    0    0    0    0 -0.00000000000E+00 -0.00000000000E+00 -0.27500000000E+03  0.27500000000E+03  0.00000000000E+00 0.  1.
    9000005    2    1    2  501    0  0.40137618005E+01  0.34848895748E+02 -0.27054907068E+02  0.49177305510E+03  0.48977363537E+03 0.  0.
         13    1    3    3    0    0  0.21900788872E+03  0.12267555199E+03 -0.57551087574E+02  0.25753810215E+03  0.00000000000E+00 0.  1.
          3    1    3    3  501    0 -0.21499412692E+03 -0.87826656246E+02  0.30496180506E+02  0.23423495295E+03  0.00000000000E+00 0.  1.
         21    1    1    2  502  501 -0.40137618005E+01 -0.34848895748E+02  0.41521166697E+01  0.35324154505E+02  0.00000000000E+00 0.  1.
<scales pt_clust_4="550.00000" pt_clust_5="550.00000" pt_clust_6="35.07928"></scales>
<mgrwt>
<rscale>  0 0.30000000E+03</rscale>
<asrwt>  1 0.35079279E+02</asrwt>
<pdfrwt beam="1">  1        1 0.91671713E+00 0.30000000E+03</pdfrwt>
<pdfrwt beam="2">0</pdfrwt>
<totfact> 0.49422260E-05</totfact>
</mgrwt>
<clustering>
<clus scale="   35.079">  1  6  2 -1</clus>
<clus scale="  489.774">  4  5 -1 -1</clus>
<clus scale="  300.000">  1  4  2 -1</clus>
</clustering>
</event>
<event>
 6    1  0.9480355E-012  0.3000000E+03  0.7818608E-02  0.1093470E+00
          1   -1    0    0  502    0  0.00000000000E+00  0.00000000000E+00  0.22342806779E+03  0.22342806779E+03  0.00000000000E+00 0.  1.
         13   -1    0    0    0    0 -0.00000000000E+00 -0.00000000000E+00 -0.27500000000E+03  0.27500000000E+03  0.00000000000E+00 0.  1.
    9000005    2    1    2  501    0  0.10771469567E+02  0.31364158370E+02 -0.62665794313E+02  0.46345938519E+03  0.45800421936E+03 0.  0.
         13    1    3    3    0    0 -0.10104837672E+03 -0.18768798131E+03 -0.24266890634E+02  0.21453772336E+03  0.00000000000E+00 0.  1.
          3    1    3    3  501    0  0.11181984628E+03  0.21905213968E+03 -0.38398903679E+02  0.24892166182E+03  0.00000000000E+00 0.  1.
         21    1    1    2  502  501 -0.10771469567E+02 -0.31364158370E+02  0.11093862108E+02  0.34968682608E+02  0.00000000000E+00 0. -1.
<scales pt_clust_4="550.00000" pt_clust_5="550.00000" pt_clust_6="33.16225"></scales>
<mgrwt>
<rscale>  0 0.30000000E+03</rscale>
<asrwt>  1 0.33162252E+02</asrwt>
<pdfrwt beam="1">  1        1 0.81246570E+00 0.30000000E+03</pdfrwt>
<pdfrwt beam="2">0</pdfrwt>
<totfact> 0.84258785E-04</totfact>
</mgrwt>
<clustering>
<clus scale="   33.162">  1  6  2 -1</clus>
<clus scale="  458.004">  4  5 -1 -1</clus>
<clus scale="  300.000">  1  4  2 -1</clus>
</clustering>
</event>
<event>
 6    1  0.9480355E-012  0.3000000E+03  0.7818608E-02  0.1093470E+00
          1   -1    0    0  502    0  0.00000000000E+00  0.00000000000E+00  0.23125532247E+03  0.23125532247E+03  0.00000000000E+00 0.  1.
         13   -1    0    0    0    0 -0.00000000000E+00 -0.00000000000E+00 -0.27500000000E+03  0.27500000000E+03  0.00000000000E+00 0.  1.
    9000005    2    1    2  501    0 -0.29705075316E+02  0.19280499042E+02 -0.65861896979E+02  0.46450247180E+03  0.45844370177E+03 0.  0.
         13    1    3    3    0    0  0.89076413457E+02 -0.15677792955E+03  0.89553883188E+02  0.20133013838E+03  0.00000000000E+00 0.  1.
          3    1    3    3  501    0 -0.11878148877E+03  0.17605842859E+03 -0.15541578017E+03  0.26317233342E+03  0.00000000000E+00 0.  1.
         21    1    1    2  502  501  0.29705075316E+02 -0.19280499042E+02  0.22117219446E+02  0.41752850667E+02  0.00000000000E+00 0.  1.
<scales pt_clust_4="550.00000" pt_clust_5="550.00000" pt_clust_6="35.41369"></scales>
<mgrwt>
<rscale>  0 0.30000000E+03</rscale>
<asrwt>  1 0.35413686E+02</asrwt>
<pdfrwt beam="1">  1        1 0.84092845E+00 0.30000000E+03</pdfrwt>
<pdfrwt beam="2">0</pdfrwt>
<totfact> 0.48776064E-04</totfact>
</mgrwt>
<clustering>
<clus scale="   35.414">  1  6  2 -1</clus>
<clus scale="  458.444">  4  5 -1 -1</clus>
<clus scale="  300.000">  1  4  2 -1</clus>
</clustering>
</event>
<event>
 6    1  0.9480355E-012  0.3000000E+03  0.7818608E-02  0.1093470E+00
          1   -1    0    0  502    0  0.00000000000E+00  0.00000000000E+00  0.23631883509E+03  0.23631883509E+03  0.00000000000E+00 0.  1.
         13   -1    0    0    0    0 -0.00000000000E+00 -0.00000000000E+00 -0.27500000000E+03  0.27500000000E+03  0.00000000000E+00 0.  1.
    9000005    2    1    2  501    0  0.88963498954E+01 -0.43645594418E+02 -0.53034019088E+02  0.46452046571E+03  0.45932839334E+03 0.  0.
         13    1    3    3    0    0  0.14925389398E+03 -0.15345254540E+03  0.93701793160E+02  0.23367591788E+03  0.00000000000E+00 0.  1.
          3    1    3    3  501    0 -0.14035754408E+03  0.10980695098E+03 -0.14673581225E+03  0.23084454783E+03  0.00000000000E+00 0.  1.
         21    1    1    2  502  501 -0.88963498954E+01  0.43645594418E+02  0.14352854175E+02  0.46798369379E+02  0.00000000000E+00 0.  1.
<scales pt_clust_4="550.00000" pt_clust_5="550.00000" pt_clust_6="44.54305"></scales>
<mgrwt>
<rscale>  0 0.30000000E+03</rscale>
<asrwt>  1 0.44543046E+02</asrwt>
<pdfrwt beam="1">  1        1 0.85934122E+00 0.30000000E+03</pdfrwt>
<pdfrwt beam="2">0</pdfrwt>
<totfact> 0.31453963E-04</totfact>
</mgrwt>
<clustering>
<clus scale="   44.543">  1  6  2 -1</clus>
<clus scale="  459.328">  4  5 -1 -1</clus>
<clus scale="  300.000">  1  4  2 -1</clus>
</clustering>
</event>
<event>
 6    1  0.9480355E-012  0.3000000E+03  0.7818608E-02  0.1093470E+00
          1   -1    0    0  502    0  0.00000000000E+00  0.00000000000E+00  0.26115772335E+03  0.26115772335E+03  0.00000000000E+00 0.  1.
         13   -1    0    0    0    0 -0.00000000000E+00 -0.00000000000E+00 -0.27500000000E+03  0.27500000000E+03  0.00000000000E+00 0.  1.
    9000005    2    1    2  501    0  0.29970379412E+02 -0.61748765416E+02 -0.26244122473E+02  0.46640860542E+03  0.46058343388E+03 0.  0.
         13    1    3    3    0    0  0.12858699776E+03 -0.68102523195E+02 -0.21133830730E+03  0.25658614497E+03  0.00000000000E+00 0.  1.
          3    1    3    3  501    0 -0.98616618346E+02  0.63537577783E+01  0.18509418483E+03  0.20982246045E+03  0.00000000000E+00 0.  1.
         21    1    1    2  502  501 -0.29970379412E+02  0.61748765416E+02  0.12401845821E+02  0.69749117932E+02  0.00000000000E+00 0.  1.
<scales pt_clust_4="550.00000" pt_clust_5="550.00000" pt_clust_6="68.63770"></scales>
<mgrwt>
<rscale>  0 0.30000000E+03</rscale>
<asrwt>  1 0.68637699E+02</asrwt>
<pdfrwt beam="1">  1        1 0.94966445E+00 0.30000000E+03</pdfrwt>
<pdfrwt beam="2">0</pdfrwt>
<totfact> 0.11131770E-05</totfact>
</mgrwt>
<clustering>
<clus scale="   68.638">  1  6  2 -1</clus>
<clus scale="  460.583">  4  5 -1 -1</clus>
<clus scale="  300.000">  1  4  2 -1</clus>
</clustering>
</event>
<event>
 6    1  0.9480355E-012  0.3000000E+03  0.7818608E-02  0.1093470E+00
          1   -1    0    0  502    0  0.00000000000E+00  0.00000000000E+00  0.23414613617E+03  0.23414613617E+03  0.00000000000E+00 0.  1.
         13   -1    0    0    0    0 -0.00000000000E+00 -0.00000000000E+00 -0.27500000000E+03  0.27500000000E+03  0.00000000000E+00 0.  1.
    9000005    2    1    2  501    0 -0.32864132623E+02 -0.66886757219E+01 -0.38772095270E+02  0.47554370536E+03  0.47277240903E+03 0.  0.
         13    1    3    3    0    0  0.20903139503E+03 -0.39955066669E+02 -0.81071255405E+02  0.22773466998E+03  0.00000000000E+00 0.  1.
          3    1    3    3  501    0 -0.24189552765E+03  0.33266390947E+02  0.42299160135E+02  0.24780903537E+03  0.00000000000E+00 0.  1.
         21    1    1    2  502  501  0.32864132623E+02  0.66886757219E+01 -0.20817685634E+01  0.33602430810E+02  0.00000000000E+00 0. -1.
<scales pt_clust_4="550.00000" pt_clust_5="550.00000" pt_clust_6="33.53788"></scales>
<mgrwt>
<rscale>  0 0.30000000E+03</rscale>
<asrwt>  1 0.33537883E+02</asrwt>
<pdfrwt beam="1">  1        1 0.85144050E+00 0.30000000E+03</pdfrwt>
<pdfrwt beam="2">0</pdfrwt>
<totfact> 0.39759307E-04</totfact>
</mgrwt>
<clustering>
<clus scale="   33.538">  1  6  2 -1</clus>
<clus scale="  472.772">  4  5 -1 -1</clus>
<clus scale="  300.000">  1  4  2 -1</clus>
</clustering>
</event>
<event>
 6    1  0.9480355E-012  0.3000000E+03  0.7818608E-02  0.1093470E+00
          1   -1    0    0  502    0  0.00000000000E+00  0.00000000000E+00  0.25032042154E+03  0.25032042154E+03  0.00000000000E+00 0.  1.
         13   -1    0    0    0    0 -0.00000000000E+00 -0.00000000000E+00 -0.27500000000E+03  0.27500000000E+03  0.00000000000E+00 0.  1.
    9000005    2    1    2  501    0  0.35036372183E+02  0.61548758811E+01 -0.55851900076E+02  0.47802197011E+03  0.47341328593E+03 0.  0.
         13    1    3    3    0    0 -0.27059281764E+02  0.18513921869E+03  0.11773917177E+03  0.22106842288E+03  0.00000000000E+00 0.  1.
          3    1    3    3  501    0  0.62095653946E+02 -0.17898434281E+03 -0.17359107185E+03  0.25695354723E+03  0.00000000000E+00 0.  1.
         21    1    1    2  502  501 -0.35036372183E+02 -0.61548758811E+01  0.31172321612E+02  0.47298451429E+02  0.00000000000E+00 0. -1.
<scales pt_clust_4="550.00000" pt_clust_5="550.00000" pt_clust_6="35.57288"></scales>
<mgrwt>
<rscale>  0 0.30000000E+03</rscale>
<asrwt>  1 0.35572881E+02</asrwt>
<pdfrwt beam="1">  1        1 0.91025608E+00 0.30000000E+03</pdfrwt>
<pdfrwt beam="2">0</pdfrwt>
<totfact> 0.70617935E-05</totfact>
</mgrwt>
<clustering>
<clus scale="   35.573">  1  6  2 -1</clus>
<clus scale="  473.413">  4  5 -1 -1</clus>
<clus scale="  300.000">  1  4  2 -1</clus>
</clustering>
</event>
<event>
 6    1  0.9480355E-012  0.3000000E+03  0.7818608E-02  0.1093470E+00
          1   -1    0    0  502    0  0.00000000000E+00  0.00000000000E+00  0.23811847864E+03  0.23811847864E+03  0.00000000000E+00 0.  1.
         13   -1    0    0    0    0 -0.00000000000E+00 -0.00000000000E+00 -0.27500000000E+03  0.27500000000E+03  0.00000000000E+00 0.  1.
    9000005    2    1    2  501    0  0.34625236645E+02 -0.81763007394E+01 -0.54887940612E+02  0.47324379945E+03  0.46870166288E+03 0.  0.
         13    1    3    3    0    0  0.19523664885E+03  0.61800319782E+02  0.11017405618E+03  0.23254021423E+03  0.00000000000E+00 0.  1.
          3    1    3    3  501    0 -0.16061141221E+03 -0.69976620522E+02 -0.16506199679E+03  0.24070358521E+03  0.00000000000E+00 0.  1.
         21    1    1    2  502  501 -0.34625236645E+02  0.81763007394E+01  0.18006419249E+02  0.39874679192E+02  0.00000000000E+00 0.  1.
<scales pt_clust_4="550.00000" pt_clust_5="550.00000" pt_clust_6="35.57751"></scales>
<mgrwt>
<rscale>  0 0.30000000E+03</rscale>
<asrwt>  1 0.35577506E+02</asrwt>
<pdfrwt beam="1">  1        1 0.86588538E+00 0.30000000E+03</pdfrwt>
<pdfrwt beam="2">0</pdfrwt>
<totfact> 0.27867035E-04</totfact>
</mgrwt>
<clustering>
<clus scale="   35.578">  1  6  2 -1</clus>
<clus scale="  468.702">  4  5 -1 -1</clus>
<clus scale="  300.000">  1  4  2 -1</clus>
</clustering>
</event>
<event>
 6    1  0.9480355E-012  0.3000000E+03  0.7818608E-02  0.1093470E+00
          1   -1    0    0  502    0  0.00000000000E+00  0.00000000000E+00  0.22790575352E+03  0.22790575352E+03  0.00000000000E+00 0.  1.
         13   -1    0    0    0    0 -0.00000000000E+00 -0.00000000000E+00 -0.27500000000E+03  0.27500000000E+03  0.00000000000E+00 0.  1.
    9000005    2    1    2  501    0 -0.10812864645E+02  0.30609831173E+02 -0.41697904867E+02  0.46999678348E+03  0.46701646802E+03 0.  0.
         13    1    3    3    0    0 -0.12087857700E+03  0.17152728331E+03  0.10872201104E+03  0.23633390570E+03  0.00000000000E+00 0.  1.
          3    1    3    3  501    0  0.11006571236E+03 -0.14091745213E+03 -0.15041991591E+03  0.23366287778E+03  0.00000000000E+00 0.  1.
         21    1    1    2  502  501  0.10812864645E+02 -0.30609831173E+02 -0.53963416130E+01  0.32908970040E+02  0.00000000000E+00 0.  1.
<scales pt_clust_4="550.00000" pt_clust_5="550.00000" pt_clust_6="32.46353"></scales>
<mgrwt>
<rscale>  0 0.30000000E+03</rscale>
<asrwt>  1 0.32463531E+02</asrwt>
<pdfrwt beam="1">  1        1 0.82874819E+00 0.30000000E+03</pdfrwt>
<pdfrwt beam="2">0</pdfrwt>
<totfact> 0.61414606E-04</totfact>
</mgrwt>
<clustering>
<clus scale="   32.464">  1  6  2 -1</clus>
<clus scale="  467.016">  4  5 -1 -1</clus>
<clus scale="  300.000">  1  4  2 -1</clus>
</clustering>
</event>
<event>
 6    1  0.9480355E-012  0.3000000E+03  0.7818608E-02  0.1093470E+00
          1   -1    0    0  502    0  0.00000000000E+00  0.00000000000E+00  0.24100507785E+03  0.24100507785E+03  0.00000000000E+00 0.  1.
         13   -1    0    0    0    0 -0.00000000000E+00 -0.00000000000E+00 -0.27500000000E+03  0.27500000000E+03  0.00000000000E+00 0.  1.
    9000005    2    1    2  501    0  0.87584560940E+01  0.42437135253E+02 -0.31139910729E+02  0.47257960040E+03  0.46955741254E+03 0.  0.
         13    1    3    3    0    0 -0.14960272433E+03 -0.38717273298E+02  0.15233110737E+03  0.21699025013E+03  0.00000000000E+00 0.  1.
          3    1    3    3  501    0  0.15836118043E+03  0.81154408551E+02 -0.18347101809E+03  0.25558935027E+03  0.00000000000E+00 0.  1.
         21    1    1    2  502  501 -0.87584560940E+01 -0.42437135253E+02 -0.28550114190E+01  0.43425477451E+02  0.00000000000E+00 0.  1.
<scales pt_clust_4="550.00000" pt_clust_5="550.00000" pt_clust_6="43.33152"></scales>
<mgrwt>
<rscale>  0 0.30000000E+03</rscale>
<asrwt>  1 0.43331524E+02</asrwt>
<pdfrwt beam="1">  1        1 0.87638210E+00 0.30000000E+03</pdfrwt>
<pdfrwt beam="2">0</pdfrwt>
<totfact> 0.20902222E-04</totfact>
</mgrwt>
<clustering>
<clus scale="   43.332">  1  6  2 -1</clus>
<clus scale="  469.557">  4  5 -1 -1</clus>
<clus scale="  300.000">  1  4  2 -1</clus>
</clustering>
</event>
<event>
 6    1  0.9480355E-012  0.3000000E+03  0.7818608E-02  0.1093470E+00
          1   -1    0    0  502    0  0.00000000000E+00  0.00000000000E+00  0.22227926111E+03  0.22227926111E+03  0.00000000000E+00 0.  1.
         13   -1    0    0    0    0 -0.00000000000E+00 -0.00000000000E+00 -0.27500000000E+03  0.27500000000E+03  0.00000000000E+00 0.  1.
    9000005    2    1    2  501    0 -0.20402777009E+02  0.25787721137E+02 -0.54799421186E+02  0.46433080453E+03  0.45991177372E+03 0.  0.
         13    1    3    3    0    0  0.20160912640E+03  0.98812473002E+02 -0.10864328743E+01  0.22452466458E+03  0.00000000000E+00 0.  1.
          1    1    3    3  501    0 -0.22201190341E+03 -0.73024751865E+02 -0.53712988312E+02  0.23980613995E+03  0.00000000000E+00 0.  1.
         21    1    1    2  502  501  0.20402777009E+02 -0.25787721137E+02  0.20786822996E+01  0.32948456584E+02  0.00000000000E+00 0.  1.
<scales pt_clust_4="550.00000" pt_clust_5="550.00000" pt_clust_6="32.88282"></scales>
<mgrwt>
<rscale>  0 0.30000000E+03</rscale>
<asrwt>  1 0.32882820E+02</asrwt>
<pdfrwt beam="1">  1        1 0.80828822E+00 0.30000000E+03</pdfrwt>
<pdfrwt beam="2">0</pdfrwt>
<totfact> 0.90985058E-04</totfact>
</mgrwt>
<clustering>
<clus scale="   32.883">  1  6  2 -1</clus>
<clus scale="  459.912">  4  5 -1 -1</clus>
<clus scale="  300.000">  1  4  2 -1</clus>
</clustering>
</event>
<event>
 6    1  0.9480355E-012  0.3000000E+03  0.7818608E-02  0.1093470E+00
          1   -1    0    0  502    0  0.00000000000E+00  0.00000000000E+00  0.24700787440E+03  0.24700787440E+03  0.00000000000E+00 0.  1.
         13   -1    0    0    0    0 -0.00000000000E+00 -0.00000000000E+00 -0.27500000000E+03  0.27500000000E+03  0.00000000000E+00 0.  1.
    9000005    2    1    2  501    0 -0.26477134422E+01  0.33913658884E+02 -0.56157526508E+02  0.47784412848E+03  0.47331194438E+03 0.  0.
         13    1    3    3    0    0 -0.13352562050E+03 -0.14014825296E+03 -0.14580053089E+03  0.24233947047E+03  0.00000000000E+00 0.  1.
          3    1    3    3  501    0  0.13087790706E+03  0.17406191184E+03  0.89643004382E+02  0.23550465801E+03  0.00000000000E+00 0.  1.
         21    1    1    2  502  501  0.26477134422E+01 -0.33913658884E+02  0.28165400904E+02  0.44163745917E+02  0.00000000000E+00 0.  1.
<scales pt_clust_4="550.00000" pt_clust_5="550.00000" pt_clust_6="34.01686"></scales>
<mgrwt>
<rscale>  0 0.30000000E+03</rscale>
<asrwt>  1 0.34016858E+02</asrwt>
<pdfrwt beam="1">  1        1 0.89821045E+00 0.30000000E+03</pdfrwt>
<pdfrwt beam="2">0</pdfrwt>
<totfact> 0.11666023E-04</totfact>
</mgrwt>
<clustering>
<clus scale="   34.017">  1  6  2 -1</clus>
<clus scale="  473.312">  4  5 -1 -1</clus>
<clus scale="  300.000">  1  4  2 -1</clus>
</clustering>
</event>
<event>
 6    1  0.9480355E-012  0.3000000E+03  0.7818608E-02  0.1093470E+00
          1   -1    0    0  502    0  0.00000000000E+00  0.00000000000E+00  0.26920866254E+03  0.26920866254E+03  0.00000000000E+00 0.  1.
         13   -1    0    0    0    0 -0.00000000000E+00 -0.00000000000E+00 -0.27500000000E+03  0.27500000000E+03  0.00000000000E+00 0.  1.
    9000005    2    1    2  501    0 -0.13780608868E+02 -0.33178398318E+02 -0.30087680620E+02  0.50083789373E+03  0.49864076847E+03 0.  0.
         13    1    3    3    0    0  0.15505597136E+03 -0.72080245775E+02 -0.19658540590E+03  0.26054507844E+03  0.00000000000E+00 0.  1.
          1    1    3    3  501    0 -0.16883658023E+03  0.38901847457E+02  0.16649772528E+03  0.24029281529E+03  0.00000000000E+00 0.  1.
         21    1    1    2  502  501  0.13780608868E+02  0.33178398318E+02  0.24296343157E+02  0.43370768803E+02  0.00000000000E+00 0. -1.
<scales pt_clust_4="550.00000" pt_clust_5="550.00000" pt_clust_6="35.92647"></scales>
<mgrwt>
<rscale>  0 0.30000000E+03</rscale>
<asrwt>  1 0.35926471E+02</asrwt>
<pdfrwt beam="1">  1        1 0.97894059E+00 0.30000000E+03</pdfrwt>
<pdfrwt beam="2">0</pdfrwt>
<totfact> 0.31266920E-06</totfact>
</mgrwt>
<clustering>
<clus scale="   35.926">  1  6  2 -1</clus>
<clus scale="  498.641">  4  5 -1 -1</clus>
<clus scale="  300.000">  1  4  2 -1</clus>
</clustering>
</event>
<event>
 6    1  0.9480355E-012  0.3000000E+03  0.7818608E-02  0.1093470E+00
          1   -1    0    0  502    0  0.00000000000E+00  0.00000000000E+00  0.24318104016E+03  0.24318104016E+03  0.00000000000E+00 0.  1.
         13   -1    0    0    0    0 -0.00000000000E+00 -0.00000000000E+00 -0.27500000000E+03  0.27500000000E+03  0.00000000000E+00 0.  1.
    9000005    2    1    2  501    0  0.19381195308E+02 -0.26939436709E+02 -0.55083714530E+02  0.47765188038E+03  0.47330300996E+03 0.  0.
         13    1    3    3    0    0 -0.22264048966E+03  0.45681967853E+01  0.16525135032E+02  0.22329965550E+03  0.00000000000E+00 0.  1.
          3    1    3    3  501    0  0.24202168497E+03 -0.31507633494E+02 -0.71608849562E+02  0.25435222488E+03  0.00000000000E+00 0.  1.
         21    1    1    2  502  501 -0.19381195308E+02  0.26939436709E+02  0.23264754685E+02  0.40529159778E+02  0.00000000000E+00 0.  1.
<scales pt_clust_4="550.00000" pt_clust_5="550.00000" pt_clust_6="33.18680"></scales>
<mgrwt>
<rscale>  0 0.30000000E+03</rscale>
<asrwt>  1 0.33186804E+02</asrwt>
<pdfrwt beam="1">  1        1 0.88429469E+00 0.30000000E+03</pdfrwt>
<pdfrwt beam="2">0</pdfrwt>
<totfact> 0.17525469E-04</totfact>
</mgrwt>
<clustering>
<clus scale="   33.187">  1  6  2 -1</clus>
<clus scale="  473.303">  4  5 -1 -1</clus>
<clus scale="  300.000">  1  4  2 -1</clus>
</clustering>
</event>
<event>
 6    1  0.9480355E-012  0.3000000E+03  0.7818608E-02  0.1093470E+00
          1   -1    0    0  502    0  0.00000000000E+00  0.00000000000E+00  0.22683005576E+03  0.22683005576E+03  0.00000000000E+00 0.  1.
         13   -1    0    0    0    0 -0.00000000000E+00 -0.00000000000E+00 -0.27500000000E+03  0.27500000000E+03  0.00000000000E+00 0.  1.
    9000005    2    1    2  501    0 -0.24867404119E+02  0.17079361406E+02 -0.41784334365E+02  0.47099390186E+03  0.46816581744E+03 0.  0.
         13    1    3    3    0    0  0.18336395010E+03 -0.92201393086E+02 -0.10062405116E+03  0.22857960267E+03  0.00000000000E+00 0.  1.
          3    1    3    3  501    0 -0.20823135422E+03  0.10928075449E+03  0.58839716800E+02  0.24241429920E+03  0.00000000000E+00 0.  1.
         21    1    1    2  502  501  0.24867404119E+02 -0.17079361406E+02 -0.63856098743E+01  0.30836153897E+02  0.00000000000E+00 0.  1.
<scales pt_clust_4="550.00000" pt_clust_5="550.00000" pt_clust_6="30.16775"></scales>
<mgrwt>
<rscale>  0 0.30000000E+03</rscale>
<asrwt>  1 0.30167752E+02</asrwt>
<pdfrwt beam="1">  1        1 0.82483657E+00 0.30000000E+03</pdfrwt>
<pdfrwt beam="2">0</pdfrwt>
<totfact> 0.67410227E-04</totfact>
</mgrwt>
<clustering>
<clus scale="   30.168">  1  6  2 -1</clus>
<clus scale="  468.166">  4  5 -1 -1</clus>
<clus scale="  300.000">  1  4  2 -1</clus>
</clustering>
</event>
<event>
 6    1  0.9480355E-012  0.3000000E+03  0.7818608E-02  0.1093470E+00
          1   -1    0    0  502    0  0.00000000000E+00  0.00000000000E+00  0.23223310674E+03  0.23223310674E+03  0.00000000000E+00 0.  1.
         13   -1    0    0    0    0 -0.00000000000E+00 -0.00000000000E+00 -0.27500000000E+03  0.27500000000E+03  0.00000000000E+00 0.  1.
    9000005    2    1    2  501    0 -0.29024714945E+02  0.27480170152E+02 -0.62945061944E+02  0.46245864615E+03  0.45640806824E+03 0.  0.
         13    1    3    3    0    0 -0.12414454977E+03 -0.73227666613E+02 -0.21367399976E+03  0.25774161203E+03  0.00000000000E+00 0.  1.
          1    1    3    3  501    0  0.95119834829E+02  0.10070783677E+03  0.15072893782E+03  0.20471703412E+03  0.00000000000E+00 0.  1.
         21    1    1    2  502  501  0.29024714945E+02 -0.27480170152E+02  0.20178168682E+02  0.44774460584E+02  0.00000000000E+00 0.  1.
<scales pt_clust_4="550.00000" pt_clust_5="550.00000" pt_clust_6="39.96991"></scales>
<mgrwt>
<rscale>  0 0.30000000E+03</rscale>
<asrwt>  1 0.39969912E+02</asrwt>
<pdfrwt beam="1">  1        1 0.84448402E+00 0.30000000E+03</pdfrwt>
<pdfrwt beam="2">0</pdfrwt>
<totfact> 0.44545461E-04</totfact>
</mgrwt>
<clustering>
<clus scale="   39.970">  1  6  2 -1</clus>
<clus scale="  456.408">  4  5 -1 -1</clus>
<clus scale="  300.000">  1  4  2 -1</clus>
</clustering>
</event>
<event>
 6    1  0.9480355E-012  0.3000000E+03  0.7818608E-02  0.1093470E+00
          1   -1    0    0  502    0  0.00000000000E+00  0.00000000000E+00  0.23193299065E+03  0.23193299065E+03  0.00000000000E+00 0.  1.
         13   -1    0    0    0    0 -0.00000000000E+00 -0.00000000000E+00 -0.27500000000E+03  0.27500000000E+03  0.00000000000E+00 0.  1.
    9000005    2    1    2  501    0 -0.16391873930E+02 -0.38964421002E+02 -0.46815171876E+02  0.46449517312E+03  0.46019255306E+03 0.  0.
         13    1    3    3    0    0  0.21359239881E+03 -0.78218902393E+02 -0.40886905689E+02  0.23110960296E+03  0.00000000000E+00 0.  1.
          3    1    3    3  501    0 -0.22998427274E+03  0.39254481390E+02 -0.59282661867E+01  0.23338557016E+03  0.00000000000E+00 0.  1.
         21    1    1    2  502  501  0.16391873930E+02  0.38964421002E+02  0.37481625311E+01  0.42437817538E+02  0.00000000000E+00 0.  1.
<scales pt_clust_4="550.00000" pt_clust_5="550.00000" pt_clust_6="42.27197"></scales>
<mgrwt>
<rscale>  0 0.30000000E+03</rscale>
<asrwt>  1 0.42271972E+02</asrwt>
<pdfrwt beam="1">  1        1 0.84339269E+00 0.30000000E+03</pdfrwt>
<pdfrwt beam="2">0</pdfrwt>
<totfact> 0.45055530E-04</totfact>
</mgrwt>
<clustering>
<clus scale="   42.272">  1  6  2 -1</clus>
<clus scale="  460.193">  4  5 -1 -1</clus>
<clus scale="  300.000">  1  4  2 -1</clus>
</clustering>
</event>
<event>
 6    1  0.9480355E-012  0.3000000E+03  0.7818608E-02  0.1093470E+00
          1   -1    0    0  502    0  0.00000000000E+00  0.00000000000E+00  0.23678647421E+03  0.23678647421E+03  0.00000000000E+00 0.  1.
         13   -1    0    0    0    0 -0.00000000000E+00 -0.00000000000E+00 -0.27500000000E+03  0.27500000000E+03  0.00000000000E+00 0.  1.
    9000005    2    1    2  501    0 -0.41025941322E+01 -0.35684806558E+02 -0.61843991820E+02  0.46879071137E+03  0.46330315674E+03 0.  0.
         13    1    3    3    0    0  0.21981841039E+03 -0.28341899243E+02 -0.97131410505E+02  0.24198741229E+03  0.00000000000E+00 0.  1.
          3    1    3    3  501    0 -0.22392100453E+03 -0.73429073144E+01  0.35287418685E+02  0.22680329908E+03  0.00000000000E+00 0.  1.
         21    1    1    2  502  501  0.41025941322E+01  0.35684806558E+02  0.23630466035E+02  0.42995762846E+02  0.00000000000E+00 0.  1.
<scales pt_clust_4="550.00000" pt_clust_5="550.00000" pt_clust_6="35.91986"></scales>
<mgrwt>
<rscale>  0 0.30000000E+03</rscale>
<asrwt>  1 0.35919865E+02</asrwt>
<pdfrwt beam="1">  1        1 0.86104172E+00 0.30000000E+03</pdfrwt>
<pdfrwt beam="2">0</pdfrwt>
<totfact> 0.31373526E-04</totfact>
</mgrwt>
<clustering>
<clus scale="   35.920">  1  6  2 -1</clus>
<clus scale="  463.303">  4  5 -1 -1</clus>
<clus scale="  300.000">  1  4  2 -1</clus>
</clustering>
</event>
<event>
 6    1  0.9480355E-012  0.3000000E+03  0.7818608E-02  0.1093470E+00
          1   -1    0    0  502    0  0.00000000000E+00  0.00000000000E+00  0.23665479283E+03  0.23665479283E+03  0.00000000000E+00 0.  1.
         13   -1    0    0    0    0 -0.00000000000E+00 -0.00000000000E+00 -0.27500000000E+03  0.27500000000E+03  0.00000000000E+00 0.  1.
    9000005    2    1    2  501    0 -0.70647726867E+01 -0.39425264557E+02 -0.59776748064E+02  0.46622822083E+03  0.46064219497E+03 0.  0.
         13    1    3    3    0    0 -0.12981208143E+03  0.50943927533E+02 -0.21008691790E+03  0.25215664439E+03  0.00000000000E+00 0.  1.
          3    1    3    3  501    0  0.12274730875E+03 -0.90369192090E+02  0.15031016983E+03  0.21407157644E+03  0.00000000000E+00 0.  1.
         21    1    1    2  502  501  0.70647726867E+01  0.39425264557E+02  0.21431540891E+02  0.45426571998E+02  0.00000000000E+00 0.  1.
<scales pt_clust_4="550.00000" pt_clust_5="550.00000" pt_clust_6="40.05325"></scales>
<mgrwt>
<rscale>  0 0.30000000E+03</rscale>
<asrwt>  1 0.40053246E+02</asrwt>
<pdfrwt beam="1">  1        1 0.86056288E+00 0.30000000E+03</pdfrwt>
<pdfrwt beam="2">0</pdfrwt>
<totfact> 0.31116176E-04</totfact>
</mgrwt>
<clustering>
<clus scale="   40.053">  1  6  2 -1</clus>
<clus scale="  460.642">  4  5 -1 -1</clus>
<clus scale="  300.000">  1  4  2 -1</clus>
</clustering>
</event>
<event>
 6    1  0.9480355E-012  0.3000000E+03  0.7818608E-02  0.1093470E+00
          1   -1    0    0  502    0  0.00000000000E+00  0.00000000000E+00  0.23622546903E+03  0.23622546903E+03  0.00000000000E+00 0.  1.
         13   -1    0    0    0    0 -0.00000000000E+00 -0.00000000000E+00 -0.27500000000E+03  0.27500000000E+03  0.00000000000E+00 0.  1.
    9000005    2    1    2  501    0  0.13341682807E+02  0.29841730029E+02 -0.53075243184E+02  0.47554578684E+03  0.47144276916E+03 0.  0.
         13    1    3    3    0    0 -0.10079567549E+02  0.70654672022E+02 -0.25676081776E+03  0.26649539939E+03  0.00000000000E+00 0.  1.
          1    1    3    3  501    0  0.23421250355E+02 -0.40812941993E+02  0.20368557458E+03  0.20905038745E+03  0.00000000000E+00 0.  1.
         21    1    1    2  502  501 -0.13341682807E+02 -0.29841730029E+02  0.14300712216E+02  0.35679682189E+02  0.00000000000E+00 0.  1.
<scales pt_clust_4="550.00000" pt_clust_5="550.00000" pt_clust_6="32.68837"></scales>
<mgrwt>
<rscale>  0 0.30000000E+03</rscale>
<asrwt>  1 0.32688367E+02</asrwt>
<pdfrwt beam="1">  1        1 0.85900171E+00 0.30000000E+03</pdfrwt>
<pdfrwt beam="2">0</pdfrwt>
<totfact> 0.33574516E-04</totfact>
</mgrwt>
<clustering>
<clus scale="   32.688">  1  6  2 -1</clus>
<clus scale="  471.443">  4  5 -1 -1</clus>
<clus scale="  300.000">  1  4  2 -1</clus>
</clustering>
</event>
<event>
 6    1  0.9480355E-012  0.3000000E+03  0.7818608E-02  0.1093470E+00
          1   -1    0    0  502    0  0.00000000000E+00  0.00000000000E+00  0.23480526200E+03  0.23480526200E+03  0.00000000000E+00 0.  1.
         13   -1    0    0    0    0 -0.00000000000E+00 -0.00000000000E+00 -0.27500000000E+03  0.27500000000E+03  0.00000000000E+00 0.  1.
    9000005    2    1    2  501    0  0.33663499648E+02 -0.16430453774E+02 -0.51385342039E+02  0.47071024137E+03  0.46639520466E+03 0.  0.
         13    1    3    3    0    0 -0.14688798037E+03 -0.11683235612E+03  0.10180671922E+03  0.21351928787E+03  0.00000000000E+00 0.  1.
          3    1    3    3  501    0  0.18055148001E+03  0.10040190234E+03 -0.15319206126E+03  0.25719095350E+03  0.00000000000E+00 0.  1.
         21    1    1    2  502  501 -0.33663499648E+02  0.16430453774E+02  0.11190604041E+02  0.39095020636E+02  0.00000000000E+00 0. -1.
<scales pt_clust_4="550.00000" pt_clust_5="550.00000" pt_clust_6="37.45919"></scales>
<mgrwt>
<rscale>  0 0.30000000E+03</rscale>
<asrwt>  1 0.37459191E+02</asrwt>
<pdfrwt beam="1">  1        1 0.85383732E+00 0.30000000E+03</pdfrwt>
<pdfrwt beam="2">0</pdfrwt>
<totfact> 0.36932925E-04</totfact>
</mgrwt>
<clustering>
<clus scale="   37.459">  1  6  2 -1</clus>
<clus scale="  466.395">  4  5 -1 -1</clus>
<clus scale="  300.000">  1  4  2 -1</clus>
</clustering>
</event>
<event>
 6    1  0.9480355E-012  0.3000000E+03  0.7818608E-02  0.1093470E+00
          1   -1    0    0  502    0  0.00000000000E+00  0.00000000000E+00  0.22639500410E+03  0.22639500410E+03  0.00000000000E+00 0.  1.
         13   -1    0    0    0    0 -0.00000000000E+00 -0.00000000000E+00 -0.27500000000E+03  0.27500000000E+03  0.00000000000E+00 0.  1.
    9000005    2    1    2  501    0  0.30627039316E+02 -0.13427342487E+02 -0.41118519080E+02  0.46712612028E+03  0.46410965361E+03 0.  0.
         13    1    3    3    0    0 -0.25513931040E+02 -0.23517233460E+03 -0.23022584765E+02  0.23766999611E+03  0.00000000000E+00 0.  1.
          1    1    3    3  501    0  0.56140970356E+02  0.22174499212E+03 -0.18095934315E+02  0.22945612417E+03  0.00000000000E+00 0.  1.
         21    1    1    2  502  501 -0.30627039316E+02  0.13427342487E+02 -0.74864768153E+01  0.34268883825E+02  0.00000000000E+00 0.  1.
<scales pt_clust_4="550.00000" pt_clust_5="550.00000" pt_clust_6="33.44115"></scales>
<mgrwt>
<rscale>  0 0.30000000E+03</rscale>
<asrwt>  1 0.33441145E+02</asrwt>
<pdfrwt beam="1">  1        1 0.82325456E+00 0.30000000E+03</pdfrwt>
<pdfrwt beam="2">0</pdfrwt>
<totfact> 0.68286686E-04</totfact>
</mgrwt>
<clustering>
<clus scale="   33.441">  1  6  2 -1</clus>
<clus scale="  464.110">  4  5 -1 -1</clus>
<clus scale="  300.000">  1  4  2 -1</clus>
</clustering>
</event>
<event>
 6    1  0.9480355E-012  0.3000000E+03  0.7818608E-02  0.1093470E+00
          1   -1    0    0  502    0  0.00000000000E+00  0.00000000000E+00  0.21815875217E+03  0.21815875217E+03  0.00000000000E+00 0.  1.
         13   -1    0    0    0    0 -0.00000000000E+00 -0.00000000000E+00 -0.27500000000E+03  0.27500000000E+03  0.00000000000E+00 0.  1.
    9000005    2    1    2  501    0  0.12043648392E+02 -0.27622607830E+02 -0.54701282393E+02  0.46294886336E+03  0.45871708259E+03 0.  0.
         13    1    3    3    0    0 -0.18883534657E+03  0.71822521056E+01  0.93562611604E+02  0.21086568035E+03  0.00000000000E+00 0.  1.
          3    1    3    3  501    0  0.20087899496E+03 -0.34804859936E+02 -0.14826389400E+03  0.25208318301E+03  0.00000000000E+00 0.  1.
         21    1    1    2  502  501 -0.12043648392E+02  0.27622607830E+02 -0.21399654368E+01  0.30209888812E+02  0.00000000000E+00 0. -1.
<scales pt_clust_4="550.00000" pt_clust_5="550.00000" pt_clust_6="30.13400"></scales>
<mgrwt>
<rscale>  0 0.30000000E+03</rscale>
<asrwt>  1 0.30134000E+02</asrwt>
<pdfrwt beam="1">  1        1 0.79330455E+00 0.30000000E+03</pdfrwt>
<pdfrwt beam="2">0</pdfrwt>
<totfact> 0.11953775E-03</totfact>
</mgrwt>
<clustering>
<clus scale="   30.134">  1  6  2 -1</clus>
<clus scale="  458.717">  4  5 -1 -1</clus>
<clus scale="  300.000">  1  4  2 -1</clus>
</clustering>
</event>
<event>
 6    1  0.9480355E-012  0.3000000E+03  0.7818608E-02  0.1093470E+00
          1   -1    0    0  502    0  0.00000000000E+00  0.00000000000E+00  0.22578317208E+03  0.22578317208E+03  0.00000000000E+00 0.  1.
         13   -1    0    0    0    0 -0.00000000000E+00 -0.00000000000E+00 -0.27500000000E+03  0.27500000000E+03  0.00000000000E+00 0.  1.
    9000005    2    1    2  501    0 -0.28991315905E+02  0.12925252310E+02 -0.63198719421E+02  0.46609813445E+03  0.46070145893E+03 0.  0.
         13    1    3    3    0    0 -0.66824397857E+02  0.88234631650E+02  0.17855351687E+03  0.21007667352E+03  0.00000000000E+00 0.  1.
          3    1    3    3  501    0  0.37833081951E+02 -0.75309379341E+02 -0.24175223629E+03  0.25602146093E+03  0.00000000000E+00 0.  1.
         21    1    1    2  502  501  0.28991315905E+02 -0.12925252310E+02  0.13981891498E+02  0.34685037625E+02  0.00000000000E+00 0.  1.
<scales pt_clust_4="550.00000" pt_clust_5="550.00000" pt_clust_6="31.74206"></scales>
<mgrwt>
<rscale>  0 0.30000000E+03</rscale>
<asrwt>  1 0.31742063E+02</asrwt>
<pdfrwt beam="1">  1        1 0.82102972E+00 0.30000000E+03</pdfrwt>
<pdfrwt beam="2">0</pdfrwt>
<totfact> 0.72167740E-04</totfact>
</mgrwt>
<clustering>
<clus scale="   31.742">  1  6  2 -1</clus>
<clus scale="  460.701">  4  5 -1 -1</clus>
<clus scale="  300.000">  1  4  2 -1</clus>
</clustering>
</event>
<event>
 6    1  0.9480355E-012  0.3000000E+03  0.7818608E-02  0.1093470E+00
          1   -1    0    0  502    0  0.00000000000E+00  0.00000000000E+00  0.22752599801E+03  0.22752599801E+03  0.00000000000E+00 0.  1.
         13   -1    0    0    0    0 -0.00000000000E+00 -0.00000000000E+00 -0.27500000000E+03  0.27500000000E+03  0.00000000000E+00 0.  1.
    9000005    2    1    2  501    0 -0.26629477565E+02  0.22380839770E+02 -0.60992467945E+02  0.46520603035E+03  0.45987665571E+03 0.  0.
         13    1    3    3    0    0  0.13531214317E+03 -0.31408715358E+02 -0.20110248311E+03  0.24441377253E+03  0.00000000000E+00 0.  1.
          3    1    3    3  501    0 -0.16194162073E+03  0.53789555128E+02  0.14011001516E+03  0.22079225782E+03  0.00000000000E+00 0.  1.
         21    1    1    2  502  501  0.26629477565E+02 -0.22380839770E+02  0.13518465953E+02  0.37319967657E+02  0.00000000000E+00 0.  1.
<scales pt_clust_4="550.00000" pt_clust_5="550.00000" pt_clust_6="34.78550"></scales>
<mgrwt>
<rscale>  0 0.30000000E+03</rscale>
<asrwt>  1 0.34785501E+02</asrwt>
<pdfrwt beam="1">  1        1 0.82736727E+00 0.30000000E+03</pdfrwt>
<pdfrwt beam="2">0</pdfrwt>
<totfact> 0.62310762E-04</totfact>
</mgrwt>
<clustering>
<clus scale="   34.786">  1  6  2 -1</clus>
<clus scale="  459.877">  4  5 -1 -1</clus>
<clus scale="  300.000">  1  4  2 -1</clus>
</clustering>
</event>
<event>
 6    1  0.9480355E-012  0.3000000E+03  0.7818608E-02  0.1093470E+00
          1   -1    0    0  502    0  0.00000000000E+00  0.00000000000E+00  0.23523264823E+03  0.23523264823E+03  0.00000000000E+00 0.  1.
         13   -1    0    0    0    0 -0.00000000000E+00 -0.00000000000E+00 -0.27500000000E+03  0.27500000000E+03  0.00000000000E+00 0.  1.
    9000005    2    1    2  501    0 -0.19762977693E+02 -0.27086095591E+02 -0.38451637292E+02  0.47667727659E+03  0.47393930597E+03 0.  0.
         13    1    3    3    0    0 -0.63658547135E+01 -0.73174441475E+02  0.21060093733E+03  0.22304209871E+03  0.00000000000E+00 0.  1.
          3    1    3    3  501    0 -0.13397122980E+02  0.46088345884E+02 -0.24905257462E+03  0.25363517788E+03  0.00000000000E+00 0.  1.
         21    1    1    2  502  501  0.19762977693E+02  0.27086095591E+02 -0.13157144755E+01  0.33555371645E+02  0.00000000000E+00 0.  1.
<scales pt_clust_4="550.00000" pt_clust_5="550.00000" pt_clust_6="33.52957"></scales>
<mgrwt>
<rscale>  0 0.30000000E+03</rscale>
<asrwt>  1 0.33529567E+02</asrwt>
<pdfrwt beam="1">  1        1 0.85539145E+00 0.30000000E+03</pdfrwt>
<pdfrwt beam="2">0</pdfrwt>
<totfact> 0.36400433E-04</totfact>
</mgrwt>
<clustering>
<clus scale="   33.530">  1  6  2 -1</clus>
<clus scale="  473.939">  4  5 -1 -1</clus>
<clus scale="  300.000">  1  4  2 -1</clus>
</clustering>
</event>
<event>
 6    1  0.9480355E-012  0.3000000E+03  0.7818608E-02  0.1093470E+00
          1   -1    0    0  502    0  0.00000000000E+00  0.00000000000E+00  0.24970226325E+03  0.24970226325E+03  0.00000000000E+00 0.  1.
         13   -1    0    0    0    0 -0.00000000000E+00 -0.00000000000E+00 -0.27500000000E+03  0.27500000000E+03  0.00000000000E+00 0.  1.
    9000005    2    1    2  501    0 -0.32029461244E+02 -0.10542165526E+02 -0.64309145294E+02  0.47313760832E+03  0.46753235888E+03 0.  0.
         13    1    3    3    0    0 -0.16597086564E+03 -0.15429935787E+03  0.67596943078E+02  0.23648248729E+03  0.00000000000E+00 0.  1.
          1    1    3    3  501    0  0.13394140439E+03  0.14375719235E+03 -0.13190608837E+03  0.23665512103E+03  0.00000000000E+00 0.  1.
         21    1    1    2  502  501  0.32029461244E+02  0.10542165526E+02  0.39011408543E+02  0.51564654930E+02  0.00000000000E+00 0. -1.
<scales pt_clust_4="550.00000" pt_clust_5="550.00000" pt_clust_6="33.71978"></scales>
<mgrwt>
<rscale>  0 0.30000000E+03</rscale>
<asrwt>  1 0.33719781E+02</asrwt>
<pdfrwt beam="1">  1        1 0.90800823E+00 0.30000000E+03</pdfrwt>
<pdfrwt beam="2">0</pdfrwt>
<totfact> 0.80602725E-05</totfact>
</mgrwt>
<clustering>
<clus scale="   33.720">  1  6  2 -1</clus>
<clus scale="  467.532">  4  5 -1 -1</clus>
<clus scale="  300.000">  1  4  2 -1</clus>
</clustering>
</event>
<event>
 6    1  0.9480355E-012  0.3000000E+03  0.7818608E-02  0.1093470E+00
          1   -1    0    0  502    0  0.00000000000E+00  0.00000000000E+00  0.24080883401E+03  0.24080883401E+03  0.00000000000E+00 0.  1.
         13   -1    0    0    0    0 -0.00000000000E+00 -0.00000000000E+00 -0.27500000000E+03  0.27500000000E+03  0.00000000000E+00 0.  1.
    9000005    2    1    2  501    0 -0.27946524295E+02 -0.14170298605E+02 -0.40372626195E+02  0.48387114416E+03  0.48116476348E+03 0.  0.
         13    1    3    3    0    0  0.20557953738E+03 -0.29257812114E+02 -0.11610839874E+03  0.23790780992E+03  0.00000000000E+00 0.  1.
          3    1    3    3  501    0 -0.23352606168E+03  0.15087513509E+02  0.75735772545E+02  0.24596333424E+03  0.00000000000E+00 0.  1.
         21    1    1    2  502  501  0.27946524295E+02  0.14170298605E+02  0.61814602003E+01  0.31937689850E+02  0.00000000000E+00 0. -1.
<scales pt_clust_4="550.00000" pt_clust_5="550.00000" pt_clust_6="31.33378"></scales>
<mgrwt>
<rscale>  0 0.30000000E+03</rscale>
<asrwt>  1 0.31333777E+02</asrwt>
<pdfrwt beam="1">  1        1 0.87566849E+00 0.30000000E+03</pdfrwt>
<pdfrwt beam="2">0</pdfrwt>
<totfact> 0.22594483E-04</totfact>
</mgrwt>
<clustering>
<clus scale="   31.334">  1  6  2 -1</clus>
<clus scale="  481.165">  4  5 -1 -1</clus>
<clus scale="  300.000">  1  4  2 -1</clus>
</clustering>
</event>
<event>
 6    1  0.9480355E-012  0.3000000E+03  0.7818608E-02  0.1093470E+00
          1   -1    0    0  502    0  0.00000000000E+00  0.00000000000E+00  0.23289869192E+03  0.23289869192E+03  0.00000000000E+00 0.  1.
         13   -1    0    0    0    0 -0.00000000000E+00 -0.00000000000E+00 -0.27500000000E+03  0.27500000000E+03  0.00000000000E+00 0.  1.
    9000005    2    1    2  501    0  0.14946943165E+02  0.33848889542E+02 -0.42322667154E+02  0.47089588888E+03  0.46752815057E+03 0.  0.
         13    1    3    3    0    0 -0.49606320887E+02  0.13905969124E+03 -0.21366986478E+03  0.25971753102E+03  0.00000000000E+00 0.  1.
          3    1    3    3  501    0  0.64553264052E+02 -0.10521080170E+03  0.17134719763E+03  0.21117835786E+03  0.00000000000E+00 0.  1.
         21    1    1    2  502  501 -0.14946943165E+02 -0.33848889542E+02  0.22135907485E+00  0.37002803043E+02  0.00000000000E+00 0. -1.
<scales pt_clust_4="550.00000" pt_clust_5="550.00000" pt_clust_6="37.00214"></scales>
<mgrwt>
<rscale>  0 0.30000000E+03</rscale>
<asrwt>  1 0.37002141E+02</asrwt>
<pdfrwt beam="1">  1        1 0.84690433E+00 0.30000000E+03</pdfrwt>
<pdfrwt beam="2">0</pdfrwt>
<totfact> 0.43010274E-04</totfact>
</mgrwt>
<clustering>
<clus scale="   37.002">  1  6  2 -1</clus>
<clus scale="  467.528">  4  5 -1 -1</clus>
<clus scale="  300.000">  1  4  2 -1</clus>
</clustering>
</event>
<event>
 6    1  0.9480355E-012  0.3000000E+03  0.7818608E-02  0.1093470E+00
          1   -1    0    0  502    0  0.00000000000E+00  0.00000000000E+00  0.24860442392E+03  0.24860442392E+03  0.00000000000E+00 0.  1.
         13   -1    0    0    0    0 -0.00000000000E+00 -0.00000000000E+00 -0.27500000000E+03  0.27500000000E+03  0.00000000000E+00 0.  1.
    9000005    2    1    2  501    0 -0.52380465322E+02 -0.19669751162E+02 -0.26269775646E+02  0.46765240802E+03  0.46354941630E+03 0.  0.
         13    1    3    3    0    0  0.16280777434E+03 -0.19983617807E+02  0.12362856082E+03  0.20540140558E+03  0.00000000000E+00 0.  1.
          3    1    3    3  501    0 -0.21518823966E+03  0.31386664448E+00 -0.14989833647E+03  0.26225100243E+03  0.00000000000E+00 0.  1.
         21    1    1    2  502  501  0.52380465322E+02  0.19669751162E+02 -0.12580043338E+00  0.55952015905E+02  0.00000000000E+00 0.  1.
<scales pt_clust_4="550.00000" pt_clust_5="550.00000" pt_clust_6="55.95187"></scales>
<mgrwt>
<rscale>  0 0.30000000E+03</rscale>
<asrwt>  1 0.55951874E+02</asrwt>
<pdfrwt beam="1">  1        1 0.90401609E+00 0.30000000E+03</pdfrwt>
<pdfrwt beam="2">0</pdfrwt>
<totfact> 0.88586392E-05</totfact>
</mgrwt>
<clustering>
<clus scale="   55.952">  1  6  2 -1</clus>
<clus scale="  463.549">  4  5 -1 -1</clus>
<clus scale="  300.000">  1  4  2 -1</clus>
</clustering>
</event>
<event>
 6    1  0.9480355E-012  0.3000000E+03  0.7818608E-02  0.1093470E+00
          1   -1    0    0  502    0  0.00000000000E+00  0.00000000000E+00  0.23725920482E+03  0.23725920482E+03  0.00000000000E+00 0.  1.
         13   -1    0    0    0    0 -0.00000000000E+00 -0.00000000000E+00 -0.27500000000E+03  0.27500000000E+03  0.00000000000E+00 0.  1.
    9000005    2    1    2  501    0  0.33692686282E+02 -0.15655708162E+02 -0.63417491805E+02  0.46709737297E+03  0.46127852677E+03 0.  0.
         13    1    3    3    0    0  0.23271788898E+03 -0.58796032740E+02 -0.10028901315E+03  0.26013933857E+03  0.00000000000E+00 0.  1.
          3    1    3    3  501    0 -0.19902520270E+03  0.43140324578E+02  0.36871521341E+02  0.20695803439E+03  0.00000000000E+00 0.  1.
         21    1    1    2  502  501 -0.33692686282E+02  0.15655708162E+02  0.25676696627E+02  0.45161831856E+02  0.00000000000E+00 0.  1.
<scales pt_clust_4="550.00000" pt_clust_5="550.00000" pt_clust_6="37.15237"></scales>
<mgrwt>
<rscale>  0 0.30000000E+03</rscale>
<asrwt>  1 0.37152366E+02</asrwt>
<pdfrwt beam="1">  1        1 0.86276074E+00 0.30000000E+03</pdfrwt>
<pdfrwt beam="2">0</pdfrwt>
<totfact> 0.29873613E-04</totfact>
</mgrwt>
<clustering>
<clus scale="   37.152">  1  6  2 -1</clus>
<clus scale="  461.279">  4  5 -1 -1</clus>
<clus scale="  300.000">  1  4  2 -1</clus>
</clustering>
</event>
<event>
 6    1  0.9480355E-012  0.3000000E+03  0.7818608E-02  0.1093470E+00
          1   -1    0    0  502    0  0.00000000000E+00  0.00000000000E+00  0.23365265569E+03  0.23365265569E+03  0.00000000000E+00 0.  1.
         13   -1    0    0    0    0 -0.00000000000E+00 -0.00000000000E+00 -0.27500000000E+03  0.27500000000E+03  0.00000000000E+00 0.  1.
    9000005    2    1    2  501    0 -0.27917780351E+02 -0.20249264010E+02 -0.69823799674E+02  0.46392745404E+03  0.45734438278E+03 0.  0.
         13    1    3    3    0    0  0.11246003842E+03  0.17856476901E+03 -0.63851558504E+02  0.22047598168E+03  0.00000000000E+00 0.  1.
          1    1    3    3  501    0 -0.14037781877E+03 -0.19881403302E+03 -0.59722411699E+01  0.24345147236E+03  0.00000000000E+00 0.  1.
         21    1    1    2  502  501  0.27917780351E+02  0.20249264010E+02  0.28476455369E+02  0.44725201654E+02  0.00000000000E+00 0. -1.
<scales pt_clust_4="550.00000" pt_clust_5="550.00000" pt_clust_6="34.48819"></scales>
<mgrwt>
<rscale>  0 0.30000000E+03</rscale>
<asrwt>  1 0.34488189E+02</asrwt>
<pdfrwt beam="1">  1        1 0.84964602E+00 0.30000000E+03</pdfrwt>
<pdfrwt beam="2">0</pdfrwt>
<totfact> 0.41123807E-04</totfact>
</mgrwt>
<clustering>
<clus scale="   34.488">  1  6  2 -1</clus>
<clus scale="  457.344">  4  5 -1 -1</clus>
<clus scale="  300.000">  1  4  2 -1</clus>
</clustering>
</event>
<event>
 6    1  0.9480355E-012  0.3000000E+03  0.7818608E-02  0.1093470E+00
          1   -1    0    0  502    0  0.00000000000E+00  0.00000000000E+00  0.26009431647E+03  0.26009431647E+03  0.00000000000E+00 0.  1.
         13   -1    0    0    0    0 -0.00000000000E+00 -0.00000000000E+00 -0.27500000000E+03  0.27500000000E+03  0.00000000000E+00 0.  1.
    9000005    2    1    2  501    0  0.55017859908E+01 -0.45514641878E+02 -0.66671950124E+02  0.46594521213E+03  0.45886592758E+03 0.  0.
         13    1    3    3    0    0 -0.15007882666E+03  0.14921838260E+03 -0.22775788614E+02  0.21285797252E+03  0.00000000000E+00 0.  1.
          3    1    3    3  501    0  0.15558061265E+03 -0.19473302448E+03 -0.43896161510E+02  0.25308723961E+03  0.00000000000E+00 0.  1.
         21    1    1    2  502  501 -0.55017859908E+01  0.45514641878E+02  0.51766266595E+02  0.69149104344E+02  0.00000000000E+00 0.  1.
<scales pt_clust_4="550.00000" pt_clust_5="550.00000" pt_clust_6="45.84596"></scales>
<mgrwt>
<rscale>  0 0.30000000E+03</rscale>
<asrwt>  1 0.45845962E+02</asrwt>
<pdfrwt beam="1">  1        1 0.94579751E+00 0.30000000E+03</pdfrwt>
<pdfrwt beam="2">0</pdfrwt>
<totfact> 0.14281006E-05</totfact>
</mgrwt>
<clustering>
<clus scale="   45.846">  1  6  2 -1</clus>
<clus scale="  458.866">  4  5 -1 -1</clus>
<clus scale="  300.000">  1  4  2 -1</clus>
</clustering>
</event>
<event>
 6    1  0.9480355E-012  0.3000000E+03  0.7818608E-02  0.1093470E+00
          1   -1    0    0  502    0  0.00000000000E+00  0.00000000000E+00  0.24789910646E+03  0.24789910646E+03  0.00000000000E+00 0.  1.
         13   -1    0    0    0    0 -0.00000000000E+00 -0.00000000000E+00 -0.27500000000E+03  0.27500000000E+03  0.00000000000E+00 0.  1.
    9000005    2    1    2  501    0 -0.43629711165E+02  0.13763163671E+02 -0.51866616972E+02  0.47087682827E+03  0.46577018483E+03 0.  0.
         13    1    3    3    0    0  0.17400494802E+03  0.71339048586E+02 -0.13434895003E+03  0.23112036294E+03  0.00000000000E+00 0.  1.
          1    1    3    3  501    0 -0.21763465919E+03 -0.57575884915E+02  0.82482333063E+02  0.23975646534E+03  0.00000000000E+00 0.  1.
         21    1    1    2  502  501  0.43629711165E+02 -0.13763163671E+02  0.24765723433E+02  0.52022278187E+02  0.00000000000E+00 0.  1.
<scales pt_clust_4="550.00000" pt_clust_5="550.00000" pt_clust_6="45.74906"></scales>
<mgrwt>
<rscale>  0 0.30000000E+03</rscale>
<asrwt>  1 0.45749059E+02</asrwt>
<pdfrwt beam="1">  1        1 0.90145130E+00 0.30000000E+03</pdfrwt>
<pdfrwt beam="2">0</pdfrwt>
<totfact> 0.10063827E-04</totfact>
</mgrwt>
<clustering>
<clus scale="   45.749">  1  6  2 -1</clus>
<clus scale="  465.770">  4  5 -1 -1</clus>
<clus scale="  300.000">  1  4  2 -1</clus>
</clustering>
</event>
<event>
 6    1  0.9480355E-012  0.3000000E+03  0.7818608E-02  0.1093470E+00
          1   -1    0    0  502    0  0.00000000000E+00  0.00000000000E+00  0.21818461882E+03  0.21818461882E+03  0.00000000000E+00 0.  1.
         13   -1    0    0    0    0 -0.00000000000E+00 -0.00000000000E+00 -0.27500000000E+03  0.27500000000E+03  0.00000000000E+00 0.  1.
    9000005    2    1    2  501    0  0.12124490710E+01  0.30251337549E+02 -0.53142687841E+02  0.46268704297E+03  0.45862679926E+03 0.  0.
         13    1    3    3    0    0 -0.13664485365E+03 -0.16880035305E+03 -0.16503236258E+02  0.21780204780E+03  0.00000000000E+00 0.  1.
          3    1    3    3  501    0  0.13785730272E+03  0.19905169060E+03 -0.36639451584E+02  0.24488499517E+03  0.00000000000E+00 0.  1.
         21    1    1    2  502  501 -0.12124490710E+01 -0.30251337549E+02 -0.36726933425E+01  0.30497575849E+02  0.00000000000E+00 0. -1.
<scales pt_clust_4="550.00000" pt_clust_5="550.00000" pt_clust_6="30.27564"></scales>
<mgrwt>
<rscale>  0 0.30000000E+03</rscale>
<asrwt>  1 0.30275640E+02</asrwt>
<pdfrwt beam="1">  1        1 0.79339861E+00 0.30000000E+03</pdfrwt>
<pdfrwt beam="2">0</pdfrwt>
<totfact> 0.11923204E-03</totfact>
</mgrwt>
<clustering>
<clus scale="   30.276">  1  6  2 -1</clus>
<clus scale="  458.627">  4  5 -1 -1</clus>
<clus scale="  300.000">  1  4  2 -1</clus>
</clustering>
</event>
<event>
 6    1  0.9480355E-012  0.3000000E+03  0.7818608E-02  0.1093470E+00
          1   -1    0    0  502    0  0.00000000000E+00  0.00000000000E+00  0.23304733173E+03  0.23304733173E+03  0.00000000000E+00 0.  1.
         13   -1    0    0    0    0 -0.00000000000E+00 -0.00000000000E+00 -0.27500000000E+03  0.27500000000E+03  0.00000000000E+00 0.  1.
    9000005    2    1    2  501    0 -0.82248595518E+01  0.38571119606E+02 -0.63177349467E+02  0.46326042880E+03  0.45723458730E+03 0.  0.
         13    1    3    3    0    0  0.70036997372E+02 -0.19107013738E+03 -0.83139245771E+02  0.21982973545E+03  0.00000000000E+00 0.  1.
          3    1    3    3  501    0 -0.78261856924E+02  0.22964125699E+03  0.19961896304E+02  0.24343069335E+03  0.00000000000E+00 0.  1.
         21    1    1    2  502  501  0.82248595518E+01 -0.38571119606E+02  0.21224681201E+02  0.44786902934E+02  0.00000000000E+00 0. -1.
<scales pt_clust_4="550.00000" pt_clust_5="550.00000" pt_clust_6="39.43830"></scales>
<mgrwt>
<rscale>  0 0.30000000E+03</rscale>
<asrwt>  1 0.39438301E+02</asrwt>
<pdfrwt beam="1">  1        1 0.84744484E+00 0.30000000E+03</pdfrwt>
<pdfrwt beam="2">0</pdfrwt>
<totfact> 0.42032740E-04</totfact>
</mgrwt>
<clustering>
<clus scale="   39.438">  1  6  2 -1</clus>
<clus scale="  457.235">  4  5 -1 -1</clus>
<clus scale="  300.000">  1  4  2 -1</clus>
</clustering>
</event>
<event>
 6    1  0.9480355E-012  0.3000000E+03  0.7818608E-02  0.1093470E+00
          1   -1    0    0  502    0  0.00000000000E+00  0.00000000000E+00  0.23205105301E+03  0.23205105301E+03  0.00000000000E+00 0.  1.
         13   -1    0    0    0    0 -0.00000000000E+00 -0.00000000000E+00 -0.27500000000E+03  0.27500000000E+03  0.00000000000E+00 0.  1.
    9000005    2    1    2  501    0 -0.16181681387E+01 -0.36487401673E+02 -0.55634527343E+02  0.46838746681E+03  0.46363527636E+03 0.  0.
         13    1    3    3    0    0  0.38727228635E+02  0.20971412002E+03 -0.48985168240E+02  0.21881352125E+03  0.00000000000E+00 0.  1.
          3    1    3    3  501    0 -0.40345396774E+02 -0.24620152169E+03 -0.66493591029E+01  0.24957394556E+03  0.00000000000E+00 0.  1.
         21    1    1    2  502  501  0.16181681387E+01  0.36487401673E+02  0.12685580351E+02  0.38663586200E+02  0.00000000000E+00 0. -1.
<scales pt_clust_4="550.00000" pt_clust_5="550.00000" pt_clust_6="36.52327"></scales>
<mgrwt>
<rscale>  0 0.30000000E+03</rscale>
<asrwt>  1 0.36523266E+02</asrwt>
<pdfrwt beam="1">  1        1 0.84382201E+00 0.30000000E+03</pdfrwt>
<pdfrwt beam="2">0</pdfrwt>
<totfact> 0.45889216E-04</totfact>
</mgrwt>
<clustering>
<clus scale="   36.523">  1  6  2 -1</clus>
<clus scale="  463.635">  4  5 -1 -1</clus>
<clus scale="  300.000">  1  4  2 -1</clus>
</clustering>
</event>
<event>
 6    1  0.9480355E-012  0.3000000E+03  0.7818608E-02  0.1093470E+00
          1   -1    0    0  502    0  0.00000000000E+00  0.00000000000E+00  0.23210790297E+03  0.23210790297E+03  0.00000000000E+00 0.  1.
         13   -1    0    0    0    0 -0.00000000000E+00 -0.00000000000E+00 -0.27500000000E+03  0.27500000000E+03  0.00000000000E+00 0.  1.
    9000005    2    1    2  501    0  0.69620064660E+01 -0.34298624936E+02 -0.56149489514E+02  0.46968299600E+03  0.46499944769E+03 0.  0.
         13    1    3    3    0    0 -0.11150743321E+03 -0.13143996648E+03  0.13910630150E+03  0.22149703286E+03  0.00000000000E+00 0.  1.
          3    1    3    3  501    0  0.11846943968E+03  0.97141341549E+02 -0.19525579101E+03  0.24818596314E+03  0.00000000000E+00 0.  1.
         21    1    1    2  502  501 -0.69620064660E+01  0.34298624936E+02  0.13257392488E+02  0.37424906975E+02  0.00000000000E+00 0.  1.
<scales pt_clust_4="550.00000" pt_clust_5="550.00000" pt_clust_6="34.99807"></scales>
<mgrwt>
<rscale>  0 0.30000000E+03</rscale>
<asrwt>  1 0.34998074E+02</asrwt>
<pdfrwt beam="1">  1        1 0.84402874E+00 0.30000000E+03</pdfrwt>
<pdfrwt beam="2">0</pdfrwt>
<totfact> 0.46067021E-04</totfact>
</mgrwt>
<clustering>
<clus scale="   34.998">  1  6  2 -1</clus>
<clus scale="  464.999">  4  5 -1 -1</clus>
<clus scale="  300.000">  1  4  2 -1</clus>
</clustering>
</event>
<event>
 6    1  0.9480355E-012  0.3000000E+03  0.7818608E-02  0.1093470E+00
          1   -1    0    0  502    0  0.00000000000E+00  0.00000000000E+00  0.22418345343E+03  0.22418345343E+03  0.00000000000E+00 0.  1.
         13   -1    0    0    0    0 -0.00000000000E+00 -0.00000000000E+00 -0.27500000000E+03  0.27500000000E+03  0.00000000000E+00 0.  1.
    9000005    2    1    2  501    0  0.30651867172E+02  0.16768777677E+02 -0.57088888797E+02  0.46368597263E+03  0.45882982807E+03 0.  0.
         13    1    3    3    0    0  0.63031471911E+02 -0.21461742775E+03 -0.22386602588E+01  0.22369313433E+03  0.00000000000E+00 0.  1.
          3    1    3    3  501    0 -0.32379604739E+02  0.23138620543E+03 -0.54850228538E+02  0.23999283830E+03  0.00000000000E+00 0.  1.
         21    1    1    2  502  501 -0.30651867172E+02 -0.16768777677E+02  0.62723422249E+01  0.35497480796E+02  0.00000000000E+00 0.  1.
<scales pt_clust_4="550.00000" pt_clust_5="550.00000" pt_clust_6="34.93893"></scales>
<mgrwt>
<rscale>  0 0.30000000E+03</rscale>
<asrwt>  1 0.34938931E+02</asrwt>
<pdfrwt beam="1">  1        1 0.81521256E+00 0.30000000E+03</pdfrwt>
<pdfrwt beam="2">0</pdfrwt>
<totfact> 0.79315613E-04</totfact>
</mgrwt>
<clustering>
<clus scale="   34.939">  1  6  2 -1</clus>
<clus scale="  458.830">  4  5 -1 -1</clus>
<clus scale="  300.000">  1  4  2 -1</clus>
</clustering>
</event>
<event>
 6    1  0.9480355E-012  0.3000000E+03  0.7818608E-02  0.1093470E+00
          1   -1    0    0  502    0  0.00000000000E+00  0.00000000000E+00  0.25296001413E+03  0.25296001413E+03  0.00000000000E+00 0.  1.
         13   -1    0    0    0    0 -0.00000000000E+00 -0.00000000000E+00 -0.27500000000E+03  0.27500000000E+03  0.00000000000E+00 0.  1.
    9000005    2    1    2  501    0  0.16104664784E+02  0.34915312318E+02 -0.60700003326E+02  0.47343445855E+03  0.46795005810E+03 0.  0.
         13    1    3    3    0    0  0.15744859764E+03 -0.44218044661E+02  0.14016715445E+03  0.21538831807E+03  0.00000000000E+00 0.  1.
          1    1    3    3  501    0 -0.14134393286E+03  0.79133356979E+02 -0.20086715778E+03  0.25804614048E+03  0.00000000000E+00 0.  1.
         21    1    1    2  502  501 -0.16104664784E+02 -0.34915312318E+02  0.38660017459E+02  0.54525555586E+02  0.00000000000E+00 0.  1.
<scales pt_clust_4="550.00000" pt_clust_5="550.00000" pt_clust_6="38.45048"></scales>
<mgrwt>
<rscale>  0 0.30000000E+03</rscale>
<asrwt>  1 0.38450478E+02</asrwt>
<pdfrwt beam="1">  1        1 0.91985460E+00 0.30000000E+03</pdfrwt>
<pdfrwt beam="2">0</pdfrwt>
<totfact> 0.41377553E-05</totfact>
</mgrwt>
<clustering>
<clus scale="   38.450">  1  6  2 -1</clus>
<clus scale="  467.950">  4  5 -1 -1</clus>
<clus scale="  300.000">  1  4  2 -1</clus>
</clustering>
</event>
<event>
 6    1  0.9480355E-012  0.3000000E+03  0.7818608E-02  0.1093470E+00
          1   -1    0    0  502    0  0.00000000000E+00  0.00000000000E+00  0.23978513556E+03  0.23978513556E+03  0.00000000000E+00 0.  1.
         13   -1    0    0    0    0 -0.00000000000E+00 -0.00000000000E+00 -0.27500000000E+03  0.27500000000E+03  0.00000000000E+00 0.  1.
    9000005    2    1    2  501    0  0.31339025285E+01  0.38142847113E+02 -0.42882390748E+02  0.47575323718E+03  0.47226850956E+03 0.  0.
         13    1    3    3    0    0  0.21381838666E+03 -0.83409545984E+02 -0.36799935769E+02  0.23244287493E+03  0.00000000000E+00 0.  1.
          1    1    3    3  501    0 -0.21068448413E+03  0.12155239310E+03 -0.60824549794E+01  0.24331036225E+03  0.00000000000E+00 0.  1.
         21    1    1    2  502  501 -0.31339025285E+01 -0.38142847113E+02  0.76675263038E+01  0.39031898373E+02  0.00000000000E+00 0. -1.
<scales pt_clust_4="550.00000" pt_clust_5="550.00000" pt_clust_6="38.27137"></scales>
<mgrwt>
<rscale>  0 0.30000000E+03</rscale>
<asrwt>  1 0.38271375E+02</asrwt>
<pdfrwt beam="1">  1        1 0.87194595E+00 0.30000000E+03</pdfrwt>
<pdfrwt beam="2">0</pdfrwt>
<totfact> 0.23794772E-04</totfact>
</mgrwt>
<clustering>
<clus scale="   38.271">  1  6  2 -1</clus>
<clus scale="  472.269">  4  5 -1 -1</clus>
<clus scale="  300.000">  1  4  2 -1</clus>
</clustering>
</event>
<event>
 6    1  0.9480355E-012  0.3000000E+03  0.7818608E-02  0.1093470E+00
          1   -1    0    0  502    0  0.00000000000E+00  0.00000000000E+00  0.23793625471E+03  0.23793625471E+03  0.00000000000E+00 0.  1.
         13   -1    0    0    0    0 -0.00000000000E+00 -0.00000000000E+00 -0.27500000000E+03  0.27500000000E+03  0.00000000000E+00 0.  1.
    9000005    2    1    2  501    0 -0.14739731495E+01  0.38774714805E+02 -0.56299832998E+02  0.46962715434E+03  0.46462279517E+03 0.  0.
         13    1    3    3    0    0  0.21067717502E+02  0.23620745852E+03 -0.11340971798E+03  0.26286798267E+03  0.00000000000E+00 0.  1.
          1    1    3    3  501    0 -0.22541690651E+02 -0.19743274371E+03  0.57109884982E+02  0.20675917167E+03  0.00000000000E+00 0.  1.
         21    1    1    2  502  501  0.14739731495E+01 -0.38774714805E+02  0.19236087709E+02  0.43309100376E+02  0.00000000000E+00 0.  1.
<scales pt_clust_4="550.00000" pt_clust_5="550.00000" pt_clust_6="38.80272"></scales>
<mgrwt>
<rscale>  0 0.30000000E+03</rscale>
<asrwt>  1 0.38802720E+02</asrwt>
<pdfrwt beam="1">  1        1 0.86522274E+00 0.30000000E+03</pdfrwt>
<pdfrwt beam="2">0</pdfrwt>
<totfact> 0.27875184E-04</totfact>
</mgrwt>
<clustering>
<clus scale="   38.803">  1  6  2 -1</clus>
<clus scale="  464.623">  4  5 -1 -1</clus>
<clus scale="  300.000">  1  4  2 -1</clus>
</clustering>
</event>
<event>
 6    1  0.9480355E-012  0.3000000E+03  0.7818608E-02  0.1093470E+00
          1   -1    0    0  502    0  0.00000000000E+00  0.00000000000E+00  0.24115816098E+03  0.24115816098E+03  0.00000000000E+00 0.  1.
         13   -1    0    0    0    0 -0.00000000000E+00 -0.00000000000E+00 -0.27500000000E+03  0.27500000000E+03  0.00000000000E+00 0.  1.
    9000005    2    1    2  501    0 -0.36411328199E+02  0.84076381004E+01 -0.17410179883E+02  0.47533570856E+03  0.47354455785E+03 0.  0.
         13    1    3    3    0    0 -0.21210745311E+02  0.22695091743E+03  0.71527871168E+02  0.23889924862E+03  0.00000000000E+00 0.  1.
          1    1    3    3  501    0 -0.15200582888E+02 -0.21854327933E+03 -0.88938051051E+02  0.23643645993E+03  0.00000000000E+00 0.  1.
         21    1    1    2  502  501  0.36411328199E+02 -0.84076381004E+01 -0.16431659138E+02  0.40822452422E+02  0.00000000000E+00 0.  1.
<scales pt_clust_4="550.00000" pt_clust_5="550.00000" pt_clust_6="37.36943"></scales>
<mgrwt>
<rscale>  0 0.30000000E+03</rscale>
<asrwt>  1 0.37369434E+02</asrwt>
<pdfrwt beam="1">  1        1 0.87693877E+00 0.30000000E+03</pdfrwt>
<pdfrwt beam="2">0</pdfrwt>
<totfact> 0.21173160E-04</totfact>
</mgrwt>
<clustering>
<clus scale="   37.369">  1  6  2 -1</clus>
<clus scale="  473.545">  4  5 -1 -1</clus>
<clus scale="  300.000">  1  4  2 -1</clus>
</clustering>
</event>
<event>
 6    1  0.9480355E-012  0.3000000E+03  0.7818608E-02  0.1093470E+00
          1   -1    0    0  502    0  0.00000000000E+00  0.00000000000E+00  0.23879284794E+03  0.23879284794E+03  0.00000000000E+00 0.  1.
         13   -1    0    0    0    0 -0.00000000000E+00 -0.00000000000E+00 -0.27500000000E+03  0.27500000000E+03  0.00000000000E+00 0.  1.
    9000005    2    1    2  501    0  0.34792982707E+02  0.21604351928E+01 -0.28246139703E+02  0.47803537538E+03  0.47592515859E+03 0.  0.
         13    1    3    3    0    0 -0.23025576342E+02  0.23140333277E+03  0.30193245289E+02  0.23449799923E+03  0.00000000000E+00 0.  1.
          3    1    3    3  501    0  0.57818559049E+02 -0.22924289758E+03 -0.58439384992E+02  0.24353737614E+03  0.00000000000E+00 0.  1.
         21    1    1    2  502  501 -0.34792982707E+02 -0.21604351928E+01 -0.79610123615E+01  0.35757472557E+02  0.00000000000E+00 0.  1.
<scales pt_clust_4="550.00000" pt_clust_5="550.00000" pt_clust_6="34.86001"></scales>
<mgrwt>
<rscale>  0 0.30000000E+03</rscale>
<asrwt>  1 0.34860011E+02</asrwt>
<pdfrwt beam="1">  1        1 0.86833763E+00 0.30000000E+03</pdfrwt>
<pdfrwt beam="2">0</pdfrwt>
<totfact> 0.26361399E-04</totfact>
</mgrwt>
<clustering>
<clus scale="   34.860">  1  6  2 -1</clus>
<clus scale="  475.925">  4  5 -1 -1</clus>
<clus scale="  300.000">  1  4  2 -1</clus>
</clustering>
</event>
<event>
 6    1  0.9480355E-012  0.3000000E+03  0.7818608E-02  0.1093470E+00
          1   -1    0    0  502    0  0.00000000000E+00  0.00000000000E+00  0.22928510964E+03  0.22928510964E+03  0.00000000000E+00 0.  1.
         13   -1    0    0    0    0 -0.00000000000E+00 -0.00000000000E+00 -0.27500000000E+03  0.27500000000E+03  0.00000000000E+00 0.  1.
    9000005    2    1    2  501    0  0.30723371398E+02 -0.21968649098E+02 -0.44680584734E+02  0.46650129192E+03  0.46281805672E+03 0.  0.
         13    1    3    3    0    0  0.22506388330E+03  0.72842401466E+02  0.28386951333E+02  0.23825529590E+03  0.00000000000E+00 0.  1.
          3    1    3    3  501    0 -0.19434051190E+03 -0.94811050564E+02 -0.73067536068E+02  0.22824599603E+03  0.00000000000E+00 0.  1.
         21    1    1    2  502  501 -0.30723371398E+02  0.21968649098E+02 -0.10343056229E+01  0.37783817718E+02  0.00000000000E+00 0.  1.
<scales pt_clust_4="550.00000" pt_clust_5="550.00000" pt_clust_6="37.76966"></scales>
<mgrwt>
<rscale>  0 0.30000000E+03</rscale>
<asrwt>  1 0.37769658E+02</asrwt>
<pdfrwt beam="1">  1        1 0.83376404E+00 0.30000000E+03</pdfrwt>
<pdfrwt beam="2">0</pdfrwt>
<totfact> 0.54467546E-04</totfact>
</mgrwt>
<clustering>
<clus scale="   37.770">  1  6  2 -1</clus>
<clus scale="  462.818">  4  5 -1 -1</clus>
<clus scale="  300.000">  1  4  2 -1</clus>
</clustering>
</event>
<event>
 6    1  0.9480355E-012  0.3000000E+03  0.7818608E-02  0.1093470E+00
          1   -1    0    0  502    0  0.00000000000E+00  0.00000000000E+00  0.23651641209E+03  0.23651641209E+03  0.00000000000E+00 0.  1.
         13   -1    0    0    0    0 -0.00000000000E+00 -0.00000000000E+00 -0.27500000000E+03  0.27500000000E+03  0.00000000000E+00 0.  1.
    9000005    2    1    2  501    0  0.22950118940E+02 -0.30529605395E+02 -0.57602896851E+02  0.46880443790E+03  0.46368172544E+03 0.  0.
         13    1    3    3    0    0  0.98497476386E+01  0.13023046678E+03 -0.20974177174E+03  0.24708015464E+03  0.00000000000E+00 0.  1.
          1    1    3    3  501    0  0.13100371301E+02 -0.16076007217E+03  0.15213887489E+03  0.22172428326E+03  0.00000000000E+00 0.  1.
         21    1    1    2  502  501 -0.22950118940E+02  0.30529605395E+02  0.19119308942E+02  0.42711974192E+02  0.00000000000E+00 0.  1.
<scales pt_clust_4="550.00000" pt_clust_5="550.00000" pt_clust_6="38.19378"></scales>
<mgrwt>
<rscale>  0 0.30000000E+03</rscale>
<asrwt>  1 0.38193779E+02</asrwt>
<pdfrwt beam="1">  1        1 0.86005968E+00 0.30000000E+03</pdfrwt>
<pdfrwt beam="2">0</pdfrwt>
<totfact> 0.31779784E-04</totfact>
</mgrwt>
<clustering>
<clus scale="   38.194">  1  6  2 -1</clus>
<clus scale="  463.682">  4  5 -1 -1</clus>
<clus scale="  300.000">  1  4  2 -1</clus>
</clustering>
</event>
<event>
 6    1  0.9480355E-012  0.3000000E+03  0.7818608E-02  0.1093470E+00
          1   -1    0    0  502    0  0.00000000000E+00  0.00000000000E+00  0.22622078316E+03  0.22622078316E+03  0.00000000000E+00 0.  1.
         13   -1    0    0    0    0 -0.00000000000E+00 -0.00000000000E+00 -0.27500000000E+03  0.27500000000E+03  0.00000000000E+00 0.  1.
    9000005    2    1    2  501    0  0.27386678906E+02  0.20742524860E+02 -0.52063509564E+02  0.46670891422E+03  0.46252169578E+03 0.  0.
         13    1    3    3    0    0  0.40476758268E+02  0.22904539147E+03  0.44378887374E+02  0.23679029744E+03  0.00000000000E+00 0.  1.
          1    1    3    3  501    0 -0.13090079363E+02 -0.20830286661E+03 -0.96442396938E+02  0.22991861679E+03  0.00000000000E+00 0.  1.
         21    1    1    2  502  501 -0.27386678906E+02 -0.20742524860E+02  0.32842927256E+01  0.34511868940E+02  0.00000000000E+00 0.  1.
<scales pt_clust_4="550.00000" pt_clust_5="550.00000" pt_clust_6="34.35524"></scales>
<mgrwt>
<rscale>  0 0.30000000E+03</rscale>
<asrwt>  1 0.34355240E+02</asrwt>
<pdfrwt beam="1">  1        1 0.82262103E+00 0.30000000E+03</pdfrwt>
<pdfrwt beam="2">0</pdfrwt>
<totfact> 0.68829998E-04</totfact>
</mgrwt>
<clustering>
<clus scale="   34.355">  1  6  2 -1</clus>
<clus scale="  462.522">  4  5 -1 -1</clus>
<clus scale="  300.000">  1  4  2 -1</clus>
</clustering>
</event>
<event>
 6    1  0.9480355E-012  0.3000000E+03  0.7818608E-02  0.1093470E+00
          1   -1    0    0  502    0  0.00000000000E+00  0.00000000000E+00  0.22982458599E+03  0.22982458599E+03  0.00000000000E+00 0.  1.
         13   -1    0    0    0    0 -0.00000000000E+00 -0.00000000000E+00 -0.27500000000E+03  0.27500000000E+03  0.00000000000E+00 0.  1.
    9000005    2    1    2  501    0 -0.15445732586E+02  0.33269388993E+02 -0.54161856546E+02  0.46705980016E+03  0.46245640586E+03 0.  0.
         13    1    3    3    0    0 -0.18435860169E+03  0.13264253404E+03 -0.12430534355E+03  0.25890916223E+03  0.00000000000E+00 0.  1.
          1    1    3    3  501    0  0.16891286910E+03 -0.99373145044E+02  0.70143487002E+02  0.20815063793E+03  0.00000000000E+00 0.  1.
         21    1    1    2  502  501  0.15445732586E+02 -0.33269388993E+02  0.89864425343E+01  0.37764785827E+02  0.00000000000E+00 0.  1.
<scales pt_clust_4="550.00000" pt_clust_5="550.00000" pt_clust_6="36.68001"></scales>
<mgrwt>
<rscale>  0 0.30000000E+03</rscale>
<asrwt>  1 0.36680007E+02</asrwt>
<pdfrwt beam="1">  1        1 0.83572577E+00 0.30000000E+03</pdfrwt>
<pdfrwt beam="2">0</pdfrwt>
<totfact> 0.52980291E-04</totfact>
</mgrwt>
<clustering>
<clus scale="   36.680">  1  6  2 -1</clus>
<clus scale="  462.456">  4  5 -1 -1</clus>
<clus scale="  300.000">  1  4  2 -1</clus>
</clustering>
</event>
<event>
 6    1  0.9480355E-012  0.3000000E+03  0.7818608E-02  0.1093470E+00
          1   -1    0    0  502    0  0.00000000000E+00  0.00000000000E+00  0.23420096611E+03  0.23420096611E+03  0.00000000000E+00 0.  1.
         13   -1    0    0    0    0 -0.00000000000E+00 -0.00000000000E+00 -0.27500000000E+03  0.27500000000E+03  0.00000000000E+00 0.  1.
    9000005    2    1    2  501    0  0.39658349739E+01 -0.32057044886E+02 -0.65703168087E+02  0.46841373926E+03  0.46265661441E+03 0.  0.
         13    1    3    3    0    0 -0.58415854224E+02  0.17865674245E+03 -0.14223483274E+03  0.23571463953E+03  0.00000000000E+00 0.  1.
          3    1    3    3  501    0  0.62381689198E+02 -0.21071378733E+03  0.76531664648E+02  0.23269909973E+03  0.00000000000E+00 0.  1.
         21    1    1    2  502  501 -0.39658349739E+01  0.32057044886E+02  0.24904134194E+02  0.40787226847E+02  0.00000000000E+00 0.  1.
<scales pt_clust_4="550.00000" pt_clust_5="550.00000" pt_clust_6="32.30142"></scales>
<mgrwt>
<rscale>  0 0.30000000E+03</rscale>
<asrwt>  1 0.32301424E+02</asrwt>
<pdfrwt beam="1">  1        1 0.85163988E+00 0.30000000E+03</pdfrwt>
<pdfrwt beam="2">0</pdfrwt>
<totfact> 0.39867944E-04</totfact>
</mgrwt>
<clustering>
<clus scale="   32.301">  1  6  2 -1</clus>
<clus scale="  462.657">  4  5 -1 -1</clus>
<clus scale="  300.000">  1  4  2 -1</clus>
</clustering>
</event>
<event>
 6    1  0.9480355E-012  0.3000000E+03  0.7818608E-02  0.1093470E+00
          1   -1    0    0  502    0  0.00000000000E+00  0.00000000000E+00  0.25423777055E+03  0.25423777055E+03  0.00000000000E+00 0.  1.
         13   -1    0    0    0    0 -0.00000000000E+00 -0.00000000000E+00 -0.27500000000E+03  0.27500000000E+03  0.00000000000E+00 0.  1.
    9000005    2    1    2  501    0  0.15731255471E+02 -0.26542036873E+02 -0.17639157692E+02  0.49822639043E+03  0.49695718539E+03 0.  0.
         13    1    3    3    0    0  0.25388358975E+03 -0.19239583327E+02  0.26223344160E+02  0.25595839993E+03  0.00000000000E+00 0.  1.
          1    1    3    3  501    0 -0.23815233428E+03 -0.73024535460E+01 -0.43862501853E+02  0.24226799050E+03  0.00000000000E+00 0.  1.
         21    1    1    2  502  501 -0.15731255471E+02  0.26542036873E+02 -0.31230717557E+01  0.31011380125E+02  0.00000000000E+00 0. -1.
<scales pt_clust_4="550.00000" pt_clust_5="550.00000" pt_clust_6="30.85374"></scales>
<mgrwt>
<rscale>  0 0.30000000E+03</rscale>
<asrwt>  1 0.30853737E+02</asrwt>
<pdfrwt beam="1">  1        1 0.92450098E+00 0.30000000E+03</pdfrwt>
<pdfrwt beam="2">0</pdfrwt>
<totfact> 0.34392826E-05</totfact>
</mgrwt>
<clustering>
<clus scale="   30.854">  1  6  2 -1</clus>
<clus scale="  496.957">  4  5 -1 -1</clus>
<clus scale="  300.000">  1  4  2 -1</clus>
</clustering>
</event>
<event>
 6    1  0.9480355E-012  0.3000000E+03  0.7818608E-02  0.1093470E+00
          1   -1    0    0  502    0  0.00000000000E+00  0.00000000000E+00  0.22694730902E+03  0.22694730902E+03  0.00000000000E+00 0.  1.
         13   -1    0    0    0    0 -0.00000000000E+00 -0.00000000000E+00 -0.27500000000E+03  0.27500000000E+03  0.00000000000E+00 0.  1.
    9000005    2    1    2  501    0 -0.22609865434E+02  0.24862298273E+02 -0.48002876509E+02  0.46834161945E+03  0.46466144284E+03 0.  0.
         13    1    3    3    0    0 -0.23819592654E+00 -0.19123126454E+02 -0.25491238127E+03  0.25562877934E+03  0.00000000000E+00 0.  1.
          3    1    3    3  501    0 -0.22371669508E+02  0.43985424726E+02  0.20690950476E+03  0.21271284011E+03  0.00000000000E+00 0.  1.
         21    1    1    2  502  501  0.22609865434E+02 -0.24862298273E+02 -0.49814466518E-01  0.33605689575E+02  0.00000000000E+00 0.  1.
<scales pt_clust_4="550.00000" pt_clust_5="550.00000" pt_clust_6="33.60565"></scales>
<mgrwt>
<rscale>  0 0.30000000E+03</rscale>
<asrwt>  1 0.33605653E+02</asrwt>
<pdfrwt beam="1">  1        1 0.82526294E+00 0.30000000E+03</pdfrwt>
<pdfrwt beam="2">0</pdfrwt>
<totfact> 0.65463056E-04</totfact>
</mgrwt>
<clustering>
<clus scale="   33.606">  1  6  2 -1</clus>
<clus scale="  464.661">  4  5 -1 -1</clus>
<clus scale="  300.000">  1  4  2 -1</clus>
</clustering>
</event>
<event>
 6    1  0.9480355E-012  0.3000000E+03  0.7818608E-02  0.1093470E+00
          1   -1    0    0  502    0  0.00000000000E+00  0.00000000000E+00  0.24171263749E+03  0.24171263749E+03  0.00000000000E+00 0.  1.
         13   -1    0    0    0    0 -0.00000000000E+00 -0.00000000000E+00 -0.27500000000E+03  0.27500000000E+03  0.00000000000E+00 0.  1.
    9000005    2    1    2  501    0 -0.30915486760E+02 -0.87730843923E+01 -0.56259292524E+02  0.47721018313E+03  0.47279140914E+03 0.  0.
         13    1    3    3    0    0 -0.22976160746E+03  0.85620254573E+02 -0.74708143704E+02  0.25632504948E+03  0.00000000000E+00 0.  1.
          1    1    3    3  501    0  0.19884612070E+03 -0.94393338965E+02  0.18448851179E+02  0.22088513365E+03  0.00000000000E+00 0.  1.
         21    1    1    2  502  501  0.30915486760E+02  0.87730843923E+01  0.22971930010E+02  0.39502454351E+02  0.00000000000E+00 0.  1.
<scales pt_clust_4="550.00000" pt_clust_5="550.00000" pt_clust_6="32.13618"></scales>
<mgrwt>
<rscale>  0 0.30000000E+03</rscale>
<asrwt>  1 0.32136184E+02</asrwt>
<pdfrwt beam="1">  1        1 0.87895505E+00 0.30000000E+03</pdfrwt>
<pdfrwt beam="2">0</pdfrwt>
<totfact> 0.20650956E-04</totfact>
</mgrwt>
<clustering>
<clus scale="   32.136">  1  6  2 -1</clus>
<clus scale="  472.791">  4  5 -1 -1</clus>
<clus scale="  300.000">  1  4  2 -1</clus>
</clustering>
</event>
<event>
 6    1  0.9480355E-012  0.3000000E+03  0.7818608E-02  0.1093470E+00
          1   -1    0    0  502    0  0.00000000000E+00  0.00000000000E+00  0.24258646626E+03  0.24258646626E+03  0.00000000000E+00 0.  1.
         13   -1    0    0    0    0 -0.00000000000E+00 -0.00000000000E+00 -0.27500000000E+03  0.27500000000E+03  0.00000000000E+00 0.  1.
    9000005    2    1    2  501    0  0.27144353945E+02  0.19910371982E+02 -0.14478081815E+02  0.47944306186E+03  0.47804057971E+03 0.  0.
         13    1    3    3    0    0 -0.12268425048E+03  0.10592660862E+03  0.16432363756E+03  0.23081189222E+03  0.00000000000E+00 0.  1.
          1    1    3    3  501    0  0.14982860442E+03 -0.86016236637E+02 -0.17880171937E+03  0.24863116964E+03  0.00000000000E+00 0.  1.
         21    1    1    2  502  501 -0.27144353945E+02 -0.19910371982E+02 -0.17935451925E+02  0.38143404402E+02  0.00000000000E+00 0.  1.
<scales pt_clust_4="550.00000" pt_clust_5="550.00000" pt_clust_6="33.66363"></scales>
<mgrwt>
<rscale>  0 0.30000000E+03</rscale>
<asrwt>  1 0.33663630E+02</asrwt>
<pdfrwt beam="1">  1        1 0.88213260E+00 0.30000000E+03</pdfrwt>
<pdfrwt beam="2">0</pdfrwt>
<totfact> 0.18679435E-04</totfact>
</mgrwt>
<clustering>
<clus scale="   33.664">  1  6  2 -1</clus>
<clus scale="  478.041">  4  5 -1 -1</clus>
<clus scale="  300.000">  1  4  2 -1</clus>
</clustering>
</event>
<event>
 6    1  0.9480355E-012  0.3000000E+03  0.7818608E-02  0.1093470E+00
          1   -1    0    0  502    0  0.00000000000E+00  0.00000000000E+00  0.25983661290E+03  0.25983661290E+03  0.00000000000E+00 0.  1.
         13   -1    0    0    0    0 -0.00000000000E+00 -0.00000000000E+00 -0.27500000000E+03  0.27500000000E+03  0.00000000000E+00 0.  1.
    9000005    2    1    2  501    0  0.10813523772E+02 -0.31902501734E+02 -0.35108410801E+02  0.49568937949E+03  0.49329571103E+03 0.  0.
         13    1    3    3    0    0  0.23109835709E+03 -0.56158383952E+02  0.73456725067E+02  0.24890983346E+03  0.00000000000E+00 0.  1.
          3    1    3    3  501    0 -0.22028483332E+03  0.24255882218E+02 -0.10856513587E+03  0.24677954603E+03  0.00000000000E+00 0.  1.
         21    1    1    2  502  501 -0.10813523772E+02  0.31902501734E+02  0.19945023701E+02  0.39147233411E+02  0.00000000000E+00 0.  1.
<scales pt_clust_4="550.00000" pt_clust_5="550.00000" pt_clust_6="33.68534"></scales>
<mgrwt>
<rscale>  0 0.30000000E+03</rscale>
<asrwt>  1 0.33685337E+02</asrwt>
<pdfrwt beam="1">  1        1 0.94486041E+00 0.30000000E+03</pdfrwt>
<pdfrwt beam="2">0</pdfrwt>
<totfact> 0.15757255E-05</totfact>
</mgrwt>
<clustering>
<clus scale="   33.685">  1  6  2 -1</clus>
<clus scale="  493.296">  4  5 -1 -1</clus>
<clus scale="  300.000">  1  4  2 -1</clus>
</clustering>
</event>
<event>
 6    1  0.9480355E-012  0.3000000E+03  0.7818608E-02  0.1093470E+00
          1   -1    0    0  502    0  0.00000000000E+00  0.00000000000E+00  0.23636536624E+03  0.23636536624E+03  0.00000000000E+00 0.  1.
         13   -1    0    0    0    0 -0.00000000000E+00 -0.00000000000E+00 -0.27500000000E+03  0.27500000000E+03  0.00000000000E+00 0.  1.
    9000005    2    1    2  501    0 -0.29356282141E+02 -0.29499396936E+02 -0.42358405113E+02  0.46958173076E+03  0.46581193808E+03 0.  0.
         13    1    3    3    0    0 -0.22476031890E+03  0.25685691743E+02  0.70912463107E+02  0.23707706160E+03  0.00000000000E+00 0.  1.
          3    1    3    3  501    0  0.19540403676E+03 -0.55185088678E+02 -0.11327086822E+03  0.23250466916E+03  0.00000000000E+00 0.  1.
         21    1    1    2  502  501  0.29356282141E+02  0.29499396936E+02  0.37237713551E+01  0.41783635479E+02  0.00000000000E+00 0.  1.
<scales pt_clust_4="550.00000" pt_clust_5="550.00000" pt_clust_6="41.61737"></scales>
<mgrwt>
<rscale>  0 0.30000000E+03</rscale>
<asrwt>  1 0.41617373E+02</asrwt>
<pdfrwt beam="1">  1        1 0.85951042E+00 0.30000000E+03</pdfrwt>
<pdfrwt beam="2">0</pdfrwt>
<totfact> 0.31709780E-04</totfact>
</mgrwt>
<clustering>
<clus scale="   41.617">  1  6  2 -1</clus>
<clus scale="  465.812">  4  5 -1 -1</clus>
<clus scale="  300.000">  1  4  2 -1</clus>
</clustering>
</event>
<event>
 6    1  0.9480355E-012  0.3000000E+03  0.7818608E-02  0.1093470E+00
          1   -1    0    0  502    0  0.00000000000E+00  0.00000000000E+00  0.23482344379E+03  0.23482344379E+03  0.00000000000E+00 0.  1.
         13   -1    0    0    0    0 -0.00000000000E+00 -0.00000000000E+00 -0.27500000000E+03  0.27500000000E+03  0.00000000000E+00 0.  1.
    9000005    2    1    2  501    0 -0.29079170941E+02 -0.79685696909E+01 -0.68612198510E+02  0.46837851601E+03  0.46234370785E+03 0.  0.
         13    1    3    3    0    0  0.69647770804E+02  0.47962823582E+02  0.17791584569E+03  0.19699059006E+03  0.00000000000E+00 0.  1.
          3    1    3    3  501    0 -0.98726941745E+02 -0.55931393273E+02 -0.24652804420E+03  0.27138792596E+03  0.00000000000E+00 0.  1.
         21    1    1    2  502  501  0.29079170941E+02  0.79685696909E+01  0.28435642302E+02  0.41444927780E+02  0.00000000000E+00 0. -1.
<scales pt_clust_4="550.00000" pt_clust_5="550.00000" pt_clust_6="30.15122"></scales>
<mgrwt>
<rscale>  0 0.30000000E+03</rscale>
<asrwt>  1 0.30151224E+02</asrwt>
<pdfrwt beam="1">  1        1 0.85390343E+00 0.30000000E+03</pdfrwt>
<pdfrwt beam="2">0</pdfrwt>
<totfact> 0.38418379E-04</totfact>
</mgrwt>
<clustering>
<clus scale="   30.151">  1  6  2 -1</clus>
<clus scale="  462.344">  4  5 -1 -1</clus>
<clus scale="  300.000">  1  4  2 -1</clus>
</clustering>
</event>
<event>
 6    1  0.9480355E-012  0.3000000E+03  0.7818608E-02  0.1093470E+00
          1   -1    0    0  502    0  0.00000000000E+00  0.00000000000E+00  0.23209804889E+03  0.23209804889E+03  0.00000000000E+00 0.  1.
         13   -1    0    0    0    0 -0.00000000000E+00 -0.00000000000E+00 -0.27500000000E+03  0.27500000000E+03  0.00000000000E+00 0.  1.
    9000005    2    1    2  501    0 -0.15692543913E+02  0.34034547439E+02 -0.61788795615E+02  0.46512997472E+03  0.45948169906E+03 0.  0.
         13    1    3    3    0    0 -0.23011267404E+03  0.55278300195E+02  0.13088007713E+02  0.23702073574E+03  0.00000000000E+00 0.  1.
          3    1    3    3  501    0  0.21442013012E+03 -0.21243752755E+02 -0.74876803328E+02  0.22810923898E+03  0.00000000000E+00 0.  1.
         21    1    1    2  502  501  0.15692543913E+02 -0.34034547439E+02  0.18886844503E+02  0.41968074165E+02  0.00000000000E+00 0. -1.
<scales pt_clust_4="550.00000" pt_clust_5="550.00000" pt_clust_6="37.47808"></scales>
<mgrwt>
<rscale>  0 0.30000000E+03</rscale>
<asrwt>  1 0.37478078E+02</asrwt>
<pdfrwt beam="1">  1        1 0.84399291E+00 0.30000000E+03</pdfrwt>
<pdfrwt beam="2">0</pdfrwt>
<totfact> 0.45516637E-04</totfact>
</mgrwt>
<clustering>
<clus scale="   37.478">  1  6  2 -1</clus>
<clus scale="  459.482">  4  5 -1 -1</clus>
<clus scale="  300.000">  1  4  2 -1</clus>
</clustering>
</event>
<event>
 6    1  0.9480355E-012  0.3000000E+03  0.7818608E-02  0.1093470E+00
          1   -1    0    0  502    0  0.00000000000E+00  0.00000000000E+00  0.23176534204E+03  0.23176534204E+03  0.00000000000E+00 0.  1.
         13   -1    0    0    0    0 -0.00000000000E+00 -0.00000000000E+00 -0.27500000000E+03  0.27500000000E+03  0.00000000000E+00 0.  1.
    9000005    2    1    2  501    0 -0.27141999879E+02  0.15991326029E+02 -0.56487220054E+02  0.47258872624E+03  0.46814195227E+03 0.  0.
         13    1    3    3    0    0  0.15084302724E+03  0.10106622012E+03  0.11184880093E+03  0.21325607608E+03  0.00000000000E+00 0.  1.
          1    1    3    3  501    0 -0.17798502711E+03 -0.85074894089E+02 -0.16833602098E+03  0.25933265016E+03  0.00000000000E+00 0.  1.
         21    1    1    2  502  501  0.27141999879E+02 -0.15991326029E+02  0.13252562094E+02  0.34176615802E+02  0.00000000000E+00 0.  1.
<scales pt_clust_4="550.00000" pt_clust_5="550.00000" pt_clust_6="31.50255"></scales>
<mgrwt>
<rscale>  0 0.30000000E+03</rscale>
<asrwt>  1 0.31502550E+02</asrwt>
<pdfrwt beam="1">  1        1 0.84278306E+00 0.30000000E+03</pdfrwt>
<pdfrwt beam="2">0</pdfrwt>
<totfact> 0.48150367E-04</totfact>
</mgrwt>
<clustering>
<clus scale="   31.503">  1  6  2 -1</clus>
<clus scale="  468.142">  4  5 -1 -1</clus>
<clus scale="  300.000">  1  4  2 -1</clus>
</clustering>
</event>
<event>
 6    1  0.9480355E-012  0.3000000E+03  0.7818608E-02  0.1093470E+00
          1   -1    0    0  502    0  0.00000000000E+00  0.00000000000E+00  0.23203535786E+03  0.23203535786E+03  0.00000000000E+00 0.  1.
         13   -1    0    0    0    0 -0.00000000000E+00 -0.00000000000E+00 -0.27500000000E+03  0.27500000000E+03  0.00000000000E+00 0.  1.
    9000005    2    1    2  501    0  0.34834625079E+02  0.57956017807E+01 -0.39632593512E+02  0.47156505122E+03  0.46856783390E+03 0.  0.
         13    1    3    3    0    0 -0.62667116697E+02  0.17412159218E+03  0.11946268112E+03  0.22026535942E+03  0.00000000000E+00 0.  1.
          3    1    3    3  501    0  0.97501741777E+02 -0.16832599040E+03 -0.15909527463E+03  0.25129969181E+03  0.00000000000E+00 0.  1.
         21    1    1    2  502  501 -0.34834625079E+02 -0.57956017807E+01 -0.33320486323E+01  0.35470306631E+02  0.00000000000E+00 0. -1.
<scales pt_clust_4="550.00000" pt_clust_5="550.00000" pt_clust_6="35.31347"></scales>
<mgrwt>
<rscale>  0 0.30000000E+03</rscale>
<asrwt>  1 0.35313473E+02</asrwt>
<pdfrwt beam="1">  1        1 0.84376494E+00 0.30000000E+03</pdfrwt>
<pdfrwt beam="2">0</pdfrwt>
<totfact> 0.46229876E-04</totfact>
</mgrwt>
<clustering>
<clus scale="   35.313">  1  6  2 -1</clus>
<clus scale="  468.568">  4  5 -1 -1</clus>
<clus scale="  300.000">  1  4  2 -1</clus>
</clustering>
</event>
<event>
 6    1  0.9480355E-012  0.3000000E+03  0.7818608E-02  0.1093470E+00
          1   -1    0    0  502    0  0.00000000000E+00  0.00000000000E+00  0.23681683707E+03  0.23681683707E+03  0.00000000000E+00 0.  1.
         13   -1    0    0    0    0 -0.00000000000E+00 -0.00000000000E+00 -0.27500000000E+03  0.27500000000E+03  0.00000000000E+00 0.  1.
    9000005    2    1    2  501    0 -0.26053588484E+02 -0.23062470905E+02 -0.47282051987E+02  0.47585217637E+03  0.47221714738E+03 0.  0.
         13    1    3    3    0    0  0.84939131508E+02  0.10580254151E+03 -0.20372308515E+03  0.24476913464E+03  0.00000000000E+00 0.  1.
          3    1    3    3  501    0 -0.11099271999E+03 -0.12886501241E+03  0.15644103316E+03  0.23108304172E+03  0.00000000000E+00 0.  1.
         21    1    1    2  502  501  0.26053588484E+02  0.23062470905E+02  0.90988890528E+01  0.35964660698E+02  0.00000000000E+00 0.  1.
<scales pt_clust_4="550.00000" pt_clust_5="550.00000" pt_clust_6="34.79464"></scales>
<mgrwt>
<rscale>  0 0.30000000E+03</rscale>
<asrwt>  1 0.34794641E+02</asrwt>
<pdfrwt beam="1">  1        1 0.86115213E+00 0.30000000E+03</pdfrwt>
<pdfrwt beam="2">0</pdfrwt>
<totfact> 0.31474323E-04</totfact>
</mgrwt>
<clustering>
<clus scale="   34.795">  1  6  2 -1</clus>
<clus scale="  472.217">  4  5 -1 -1</clus>
<clus scale="  300.000">  1  4  2 -1</clus>
</clustering>
</event>
<event>
 6    1  0.9480355E-012  0.3000000E+03  0.7818608E-02  0.1093470E+00
          1   -1    0    0  502    0  0.00000000000E+00  0.00000000000E+00  0.24119154798E+03  0.24119154798E+03  0.00000000000E+00 0.  1.
         13   -1    0    0    0    0 -0.00000000000E+00 -0.00000000000E+00 -0.27500000000E+03  0.27500000000E+03  0.00000000000E+00 0.  1.
    9000005    2    1    2  501    0  0.59145878088E+01 -0.34349923240E+02 -0.38874820138E+02  0.48096985493E+03  0.47812744131E+03 0.  0.
         13    1    3    3    0    0  0.19698043920E+02 -0.22951371021E+03  0.89313555114E+02  0.24706571440E+03  0.00000000000E+00 0.  1.
          3    1    3    3  501    0 -0.13783456112E+02  0.19516378697E+03 -0.12818837525E+03  0.23390414053E+03  0.00000000000E+00 0.  1.
         21    1    1    2  502  501 -0.59145878088E+01  0.34349923240E+02  0.50663681200E+01  0.35221693052E+02  0.00000000000E+00 0. -1.
<scales pt_clust_4="550.00000" pt_clust_5="550.00000" pt_clust_6="34.85541"></scales>
<mgrwt>
<rscale>  0 0.30000000E+03</rscale>
<asrwt>  1 0.34855410E+02</asrwt>
<pdfrwt beam="1">  1        1 0.87706017E+00 0.30000000E+03</pdfrwt>
<pdfrwt beam="2">0</pdfrwt>
<totfact> 0.21382749E-04</totfact>
</mgrwt>
<clustering>
<clus scale="   34.855">  1  6  2 -1</clus>
<clus scale="  478.127">  4  5 -1 -1</clus>
<clus scale="  300.000">  1  4  2 -1</clus>
</clustering>
</event>
<event>
 6    1  0.9480355E-012  0.3000000E+03  0.7818608E-02  0.1093470E+00
          1   -1    0    0  502    0  0.00000000000E+00  0.00000000000E+00  0.25067904588E+03  0.25067904588E+03  0.00000000000E+00 0.  1.
         13   -1    0    0    0    0 -0.00000000000E+00 -0.00000000000E+00 -0.27500000000E+03  0.27500000000E+03  0.00000000000E+00 0.  1.
    9000005    2    1    2  501    0  0.18717773274E+02  0.26140661622E+02 -0.50755924835E+02  0.48405577231E+03  0.48031254155E+03 0.  0.
         13    1    3    3    0    0 -0.14007091797E+03  0.10376348201E+02  0.16437236826E+03  0.21620778457E+03  0.00000000000E+00 0.  1.
          3    1    3    3  501    0  0.15878869124E+03  0.15764313420E+02 -0.21512829309E+03  0.26784798773E+03  0.00000000000E+00 0.  1.
         21    1    1    2  502  501 -0.18717773274E+02 -0.26140661622E+02  0.26434970715E+02  0.41623273574E+02  0.00000000000E+00 0.  1.
<scales pt_clust_4="550.00000" pt_clust_5="550.00000" pt_clust_6="32.15104"></scales>
<mgrwt>
<rscale>  0 0.30000000E+03</rscale>
<asrwt>  1 0.32151038E+02</asrwt>
<pdfrwt beam="1">  1        1 0.91156017E+00 0.30000000E+03</pdfrwt>
<pdfrwt beam="2">0</pdfrwt>
<totfact> 0.66814954E-05</totfact>
</mgrwt>
<clustering>
<clus scale="   32.151">  1  6  2 -1</clus>
<clus scale="  480.313">  4  5 -1 -1</clus>
<clus scale="  300.000">  1  4  2 -1</clus>
</clustering>
</event>
<event>
 6    1  0.9480355E-012  0.3000000E+03  0.7818608E-02  0.1093470E+00
          1   -1    0    0  502    0  0.00000000000E+00  0.00000000000E+00  0.25360313040E+03  0.25360313040E+03  0.00000000000E+00 0.  1.
         13   -1    0    0    0    0 -0.00000000000E+00 -0.00000000000E+00 -0.27500000000E+03  0.27500000000E+03  0.00000000000E+00 0.  1.
    9000005    2    1    2  501    0  0.32934936739E+02  0.74992237237E+01 -0.50526525038E+02  0.48399948436E+03  0.48016832748E+03 0.  0.
         13    1    3    3    0    0  0.85739806243E+02 -0.55685259454E+02 -0.24897333370E+03  0.26914658346E+03  0.00000000000E+00 0.  1.
          3    1    3    3  501    0 -0.52804869503E+02  0.63184483178E+02  0.19844680866E+03  0.21485290090E+03  0.00000000000E+00 0.  1.
         21    1    1    2  502  501 -0.32934936739E+02 -0.74992237237E+01  0.29129655443E+02  0.44603646047E+02  0.00000000000E+00 0. -1.
<scales pt_clust_4="550.00000" pt_clust_5="550.00000" pt_clust_6="33.77793"></scales>
<mgrwt>
<rscale>  0 0.30000000E+03</rscale>
<asrwt>  1 0.33777928E+02</asrwt>
<pdfrwt beam="1">  1        1 0.92219320E+00 0.30000000E+03</pdfrwt>
<pdfrwt beam="2">0</pdfrwt>
<totfact> 0.37770615E-05</totfact>
</mgrwt>
<clustering>
<clus scale="   33.778">  1  6  2 -1</clus>
<clus scale="  480.168">  4  5 -1 -1</clus>
<clus scale="  300.000">  1  4  2 -1</clus>
</clustering>
</event>
<event>
 6    1  0.9480355E-012  0.3000000E+03  0.7818608E-02  0.1093470E+00
          1   -1    0    0  502    0  0.00000000000E+00  0.00000000000E+00  0.22824240601E+03  0.22824240601E+03  0.00000000000E+00 0.  1.
         13   -1    0    0    0    0 -0.00000000000E+00 -0.00000000000E+00 -0.27500000000E+03  0.27500000000E+03  0.00000000000E+00 0.  1.
    9000005    2    1    2  501    0 -0.34635145536E+02 -0.17503079459E+02 -0.50342010325E+02  0.46427063241E+03  0.45989884868E+03 0.  0.
         13    1    3    3    0    0 -0.22145960151E+03 -0.10612278656E+03 -0.73156205954E+02  0.25623862199E+03  0.00000000000E+00 0.  1.
          3    1    3    3  501    0  0.18682445598E+03  0.88619707101E+02  0.22814195629E+02  0.20803201042E+03  0.00000000000E+00 0.  1.
         21    1    1    2  502  501  0.34635145536E+02  0.17503079459E+02  0.35844163330E+01  0.38971773597E+02  0.00000000000E+00 0.  1.
<scales pt_clust_4="550.00000" pt_clust_5="550.00000" pt_clust_6="38.80659"></scales>
<mgrwt>
<rscale>  0 0.30000000E+03</rscale>
<asrwt>  1 0.38806586E+02</asrwt>
<pdfrwt beam="1">  1        1 0.82997239E+00 0.30000000E+03</pdfrwt>
<pdfrwt beam="2">0</pdfrwt>
<totfact> 0.58011667E-04</totfact>
</mgrwt>
<clustering>
<clus scale="   38.807">  1  6  2 -1</clus>
<clus scale="  459.899">  4  5 -1 -1</clus>
<clus scale="  300.000">  1  4  2 -1</clus>
</clustering>
</event>
<event>
 6    1  0.9480355E-012  0.3000000E+03  0.7818608E-02  0.1093470E+00
          1   -1    0    0  502    0  0.00000000000E+00  0.00000000000E+00  0.25985639357E+03  0.25985639357E+03  0.00000000000E+00 0.  1.
         13   -1    0    0    0    0 -0.00000000000E+00 -0.00000000000E+00 -0.27500000000E+03  0.27500000000E+03  0.00000000000E+00 0.  1.
    9000005    2    1    2  501    0  0.47052158086E+01  0.36574872694E+02 -0.52329828698E+01  0.49667156900E+03  0.49527305900E+03 0.  0.
         13    1    3    3    0    0  0.46063862259E+02  0.12534182458E+03 -0.22185392831E+03  0.25894327159E+03  0.00000000000E+00 0.  1.
          3    1    3    3  501    0 -0.41358646450E+02 -0.88766951886E+02  0.21662094544E+03  0.23772829740E+03  0.00000000000E+00 0.  1.
         21    1    1    2  502  501 -0.47052158086E+01 -0.36574872694E+02 -0.99106235604E+01  0.38184824574E+02  0.00000000000E+00 0. -1.
<scales pt_clust_4="550.00000" pt_clust_5="550.00000" pt_clust_6="36.87630"></scales>
<mgrwt>
<rscale>  0 0.30000000E+03</rscale>
<asrwt>  1 0.36876303E+02</asrwt>
<pdfrwt beam="1">  1        1 0.94493234E+00 0.30000000E+03</pdfrwt>
<pdfrwt beam="2">0</pdfrwt>
<totfact> 0.15443740E-05</totfact>
</mgrwt>
<clustering>
<clus scale="   36.876">  1  6  2 -1</clus>
<clus scale="  495.273">  4  5 -1 -1</clus>
<clus scale="  300.000">  1  4  2 -1</clus>
</clustering>
</event>
<event>
 6    1  0.9480355E-012  0.3000000E+03  0.7818608E-02  0.1093470E+00
          1   -1    0    0  502    0  0.00000000000E+00  0.00000000000E+00  0.26242895925E+03  0.26242895925E+03  0.00000000000E+00 0.  1.
         13   -1    0    0    0    0 -0.00000000000E+00 -0.00000000000E+00 -0.27500000000E+03  0.27500000000E+03  0.00000000000E+00 0.  1.
    9000005    2    1    2  501    0  0.37782611794E+02  0.10159274129E+02 -0.42556865188E+02  0.48813508263E+03  0.48469994380E+03 0.  0.
         13    1    3    3    0    0 -0.88674261637E+02  0.68666270220E+02 -0.22922966496E+03  0.25519486797E+03  0.00000000000E+00 0.  1.
          1    1    3    3  501    0  0.12645687343E+03 -0.58506996091E+02  0.18667279977E+03  0.23294021466E+03  0.00000000000E+00 0.  1.
         21    1    1    2  502  501 -0.37782611794E+02 -0.10159274129E+02  0.29985824435E+02  0.49293876616E+02  0.00000000000E+00 0.  1.
<scales pt_clust_4="550.00000" pt_clust_5="550.00000" pt_clust_6="39.12463"></scales>
<mgrwt>
<rscale>  0 0.30000000E+03</rscale>
<asrwt>  1 0.39124629E+02</asrwt>
<pdfrwt beam="1">  1        1 0.95428712E+00 0.30000000E+03</pdfrwt>
<pdfrwt beam="2">0</pdfrwt>
<totfact> 0.98449795E-06</totfact>
</mgrwt>
<clustering>
<clus scale="   39.125">  1  6  2 -1</clus>
<clus scale="  484.700">  4  5 -1 -1</clus>
<clus scale="  300.000">  1  4  2 -1</clus>
</clustering>
</event>
<event>
 6    1  0.9480355E-012  0.3000000E+03  0.7818608E-02  0.1093470E+00
          1   -1    0    0  502    0  0.00000000000E+00  0.00000000000E+00  0.25077064821E+03  0.25077064821E+03  0.00000000000E+00 0.  1.
         13   -1    0    0    0    0 -0.00000000000E+00 -0.00000000000E+00 -0.27500000000E+03  0.27500000000E+03  0.00000000000E+00 0.  1.
    9000005    2    1    2  501    0  0.39977712653E+01 -0.30330594005E+02 -0.73087091581E+02  0.46812512934E+03  0.46137131105E+03 0.  0.
         13    1    3    3    0    0  0.95214966329E+02 -0.17569942447E+03  0.10078951478E+03  0.22381846184E+03  0.00000000000E+00 0.  1.
          1    1    3    3  501    0 -0.91217195063E+02  0.14536883046E+03 -0.17387660637E+03  0.24430666750E+03  0.00000000000E+00 0.  1.
         21    1    1    2  502  501 -0.39977712653E+01  0.30330594005E+02  0.48857739794E+02  0.57645518868E+02  0.00000000000E+00 0.  1.
<scales pt_clust_4="550.00000" pt_clust_5="550.00000" pt_clust_6="30.59293"></scales>
<mgrwt>
<rscale>  0 0.30000000E+03</rscale>
<asrwt>  1 0.30592926E+02</asrwt>
<pdfrwt beam="1">  1        1 0.91189327E+00 0.30000000E+03</pdfrwt>
<pdfrwt beam="2">0</pdfrwt>
<totfact> 0.66169606E-05</totfact>
</mgrwt>
<clustering>
<clus scale="   30.593">  1  6  2 -1</clus>
<clus scale="  461.371">  4  5 -1 -1</clus>
<clus scale="  300.000">  1  4  2 -1</clus>
</clustering>
</event>
<event>
 6    1  0.9480355E-012  0.3000000E+03  0.7818608E-02  0.1093470E+00
          1   -1    0    0  502    0  0.00000000000E+00  0.00000000000E+00  0.23481640834E+03  0.23481640834E+03  0.00000000000E+00 0.  1.
         13   -1    0    0    0    0 -0.00000000000E+00 -0.00000000000E+00 -0.27500000000E+03  0.27500000000E+03  0.00000000000E+00 0.  1.
    9000005    2    1    2  501    0  0.12622551064E+02  0.27379093427E+02 -0.36373892074E+02  0.47942796707E+03  0.47709451058E+03 0.  0.
         13    1    3    3    0    0  0.24057433302E+03  0.29482439114E+02  0.24134296710E+02  0.24357275752E+03  0.00000000000E+00 0.  1.
          3    1    3    3  501    0 -0.22795178196E+03 -0.21033456871E+01 -0.60508188784E+02  0.23585520955E+03  0.00000000000E+00 0.  1.
         21    1    1    2  502  501 -0.12622551064E+02 -0.27379093427E+02 -0.38096995843E+01  0.30388441275E+02  0.00000000000E+00 0.  1.
<scales pt_clust_4="550.00000" pt_clust_5="550.00000" pt_clust_6="30.14871"></scales>
<mgrwt>
<rscale>  0 0.30000000E+03</rscale>
<asrwt>  1 0.30148706E+02</asrwt>
<pdfrwt beam="1">  1        1 0.85387785E+00 0.30000000E+03</pdfrwt>
<pdfrwt beam="2">0</pdfrwt>
<totfact> 0.38440979E-04</totfact>
</mgrwt>
<clustering>
<clus scale="   30.149">  1  6  2 -1</clus>
<clus scale="  477.095">  4  5 -1 -1</clus>
<clus scale="  300.000">  1  4  2 -1</clus>
</clustering>
</event>
<event>
 6    1  0.9480355E-012  0.3000000E+03  0.7818608E-02  0.1093470E+00
          1   -1    0    0  502    0  0.00000000000E+00  0.00000000000E+00  0.24245830296E+03  0.24245830296E+03  0.00000000000E+00 0.  1.
         13   -1    0    0    0    0 -0.00000000000E+00 -0.00000000000E+00 -0.27500000000E+03  0.27500000000E+03  0.00000000000E+00 0.  1.
    9000005    2    1    2  501    0 -0.21771984665E+02 -0.39671180373E+02 -0.42525506444E+02  0.47111719466E+03  0.46700660652E+03 0.  0.
         13    1    3    3    0    0 -0.67598800120E+02  0.10595560452E+03  0.16877755946E+03  0.21043301187E+03  0.00000000000E+00 0.  1.
          1    1    3    3  501    0  0.45826815455E+02 -0.14562678489E+03 -0.21130306591E+03  0.26068418279E+03  0.00000000000E+00 0.  1.
         21    1    1    2  502  501  0.21771984665E+02  0.39671180373E+02  0.99838094013E+01  0.46341108302E+02  0.00000000000E+00 0.  1.
<scales pt_clust_4="550.00000" pt_clust_5="550.00000" pt_clust_6="45.25287"></scales>
<mgrwt>
<rscale>  0 0.30000000E+03</rscale>
<asrwt>  1 0.45252866E+02</asrwt>
<pdfrwt beam="1">  1        1 0.88166656E+00 0.30000000E+03</pdfrwt>
<pdfrwt beam="2">0</pdfrwt>
<totfact> 0.17941618E-04</totfact>
</mgrwt>
<clustering>
<clus scale="   45.253">  1  6  2 -1</clus>
<clus scale="  467.007">  4  5 -1 -1</clus>
<clus scale="  300.000">  1  4  2 -1</clus>
</clustering>
</event>
<event>
 6    1  0.9480355E-012  0.3000000E+03  0.7818608E-02  0.1093470E+00
          1   -1    0    0  502    0  0.00000000000E+00  0.00000000000E+00  0.26453857678E+03  0.26453857678E+03  0.00000000000E+00 0.  1.
         13   -1    0    0    0    0 -0.00000000000E+00 -0.00000000000E+00 -0.27500000000E+03  0.27500000000E+03  0.00000000000E+00 0.  1.
    9000005    2    1    2  501    0 -0.34657078498E+02 -0.44400946207E+01 -0.25405392714E+02  0.50153660637E+03  0.49967259883E+03 0.  0.
         13    1    3    3    0    0  0.17249549195E+03  0.11425839163E+03 -0.12622937855E+03  0.24237064758E+03  0.00000000000E+00 0.  1.
          1    1    3    3  501    0 -0.20715257045E+03 -0.11869848625E+03  0.10082398583E+03  0.25916595880E+03  0.00000000000E+00 0.  1.
         21    1    1    2  502  501  0.34657078498E+02  0.44400946207E+01  0.14943969490E+02  0.38001970401E+02  0.00000000000E+00 0.  1.
<scales pt_clust_4="550.00000" pt_clust_5="550.00000" pt_clust_6="34.94034"></scales>
<mgrwt>
<rscale>  0 0.30000000E+03</rscale>
<asrwt>  1 0.34940342E+02</asrwt>
<pdfrwt beam="1">  1        1 0.96195846E+00 0.30000000E+03</pdfrwt>
<pdfrwt beam="2">0</pdfrwt>
<totfact> 0.68853121E-06</totfact>
</mgrwt>
<clustering>
<clus scale="   34.940">  1  6  2 -1</clus>
<clus scale="  499.673">  4  5 -1 -1</clus>
<clus scale="  300.000">  1  4  2 -1</clus>
</clustering>
</event>
<event>
 6    1  0.9480355E-012  0.3000000E+03  0.7818608E-02  0.1093470E+00
          1   -1    0    0  502    0  0.00000000000E+00  0.00000000000E+00  0.24284487257E+03  0.24284487257E+03  0.00000000000E+00 0.  1.
         13   -1    0    0    0    0 -0.00000000000E+00 -0.00000000000E+00 -0.27500000000E+03  0.27500000000E+03  0.00000000000E+00 0.  1.
    9000005    2    1    2  501    0 -0.26425217259E+02 -0.22761795081E+02 -0.49235474785E+02  0.47901022711E+03  0.47519498553E+03 0.  0.
         13    1    3    3    0    0 -0.20957424021E+03  0.10012330005E+03  0.49313016193E+02  0.23744012075E+03  0.00000000000E+00 0.  1.
          1    1    3    3  501    0  0.18314902295E+03 -0.12288509513E+03 -0.98548490978E+02  0.24157010636E+03  0.00000000000E+00 0.  1.
         21    1    1    2  502  501  0.26425217259E+02  0.22761795081E+02  0.17080347357E+02  0.38834645464E+02  0.00000000000E+00 0. -1.
<scales pt_clust_4="550.00000" pt_clust_5="550.00000" pt_clust_6="34.87680"></scales>
<mgrwt>
<rscale>  0 0.30000000E+03</rscale>
<asrwt>  1 0.34876804E+02</asrwt>
<pdfrwt beam="1">  1        1 0.88307226E+00 0.30000000E+03</pdfrwt>
<pdfrwt beam="2">0</pdfrwt>
<totfact> 0.18033253E-04</totfact>
</mgrwt>
<clustering>
<clus scale="   34.877">  1  6  2 -1</clus>
<clus scale="  475.195">  4  5 -1 -1</clus>
<clus scale="  300.000">  1  4  2 -1</clus>
</clustering>
</event>
<event>
 6    1  0.9480355E-012  0.3000000E+03  0.7818608E-02  0.1093470E+00
          1   -1    0    0  502    0  0.00000000000E+00  0.00000000000E+00  0.24764552063E+03  0.24764552063E+03  0.00000000000E+00 0.  1.
         13   -1    0    0    0    0 -0.00000000000E+00 -0.00000000000E+00 -0.27500000000E+03  0.27500000000E+03  0.00000000000E+00 0.  1.
    9000005    2    1    2  501    0 -0.28410463937E+02 -0.11961074725E+02 -0.71030184326E+02  0.46918722873E+03  0.46275387275E+03 0.  0.
         13    1    3    3    0    0 -0.17096232017E+03 -0.15443778987E+03  0.47691930025E+02  0.23527359828E+03  0.00000000000E+00 0.  1.
          3    1    3    3  501    0  0.14255185623E+03  0.14247671515E+03 -0.11872211435E+03  0.23391363045E+03  0.00000000000E+00 0.  1.
         21    1    1    2  502  501  0.28410463937E+02  0.11961074725E+02  0.43675704955E+02  0.53458291901E+02  0.00000000000E+00 0.  1.
<scales pt_clust_4="550.00000" pt_clust_5="550.00000" pt_clust_6="30.82567"></scales>
<mgrwt>
<rscale>  0 0.30000000E+03</rscale>
<asrwt>  1 0.30825667E+02</asrwt>
<pdfrwt beam="1">  1        1 0.90052917E+00 0.30000000E+03</pdfrwt>
<pdfrwt beam="2">0</pdfrwt>
<totfact> 0.11138287E-04</totfact>
</mgrwt>
<clustering>
<clus scale="   30.826">  1  6  2 -1</clus>
<clus scale="  462.754">  4  5 -1 -1</clus>
<clus scale="  300.000">  1  4  2 -1</clus>
</clustering>
</event>
<event>
 6    1  0.9480355E-012  0.3000000E+03  0.7818608E-02  0.1093470E+00
          1   -1    0    0  502    0  0.00000000000E+00  0.00000000000E+00  0.24895168767E+03  0.24895168767E+03  0.00000000000E+00 0.  1.
         13   -1    0    0    0    0 -0.00000000000E+00 -0.00000000000E+00 -0.27500000000E+03  0.27500000000E+03  0.00000000000E+00 0.  1.
    9000005    2    1    2  501    0  0.33055030687E+02  0.24684772957E+01 -0.48474646745E+02  0.48393083174E+03  0.48035458788E+03 0.  0.
         13    1    3    3    0    0 -0.26421668129E+01 -0.35944618816E+02 -0.26179263014E+03  0.26426194933E+03  0.00000000000E+00 0.  1.
          3    1    3    3  501    0  0.35697197500E+02  0.38413096112E+02  0.21331798339E+03  0.21966888241E+03  0.00000000000E+00 0.  1.
         21    1    1    2  502  501 -0.33055030687E+02 -0.24684772957E+01  0.22426334411E+02  0.40020855926E+02  0.00000000000E+00 0.  1.
<scales pt_clust_4="550.00000" pt_clust_5="550.00000" pt_clust_6="33.14707"></scales>
<mgrwt>
<rscale>  0 0.30000000E+03</rscale>
<asrwt>  1 0.33147073E+02</asrwt>
<pdfrwt beam="1">  1        1 0.90527886E+00 0.30000000E+03</pdfrwt>
<pdfrwt beam="2">0</pdfrwt>
<totfact> 0.92276804E-05</totfact>
</mgrwt>
<clustering>
<clus scale="   33.147">  1  6  2 -1</clus>
<clus scale="  480.355">  4  5 -1 -1</clus>
<clus scale="  300.000">  1  4  2 -1</clus>
</clustering>
</event>
<event>
 6    1  0.9480355E-012  0.3000000E+03  0.7818608E-02  0.1093470E+00
          1   -1    0    0  502    0  0.00000000000E+00  0.00000000000E+00  0.21929905138E+03  0.21929905138E+03  0.00000000000E+00 0.  1.
         13   -1    0    0    0    0 -0.00000000000E+00 -0.00000000000E+00 -0.27500000000E+03  0.27500000000E+03  0.00000000000E+00 0.  1.
    9000005    2    1    2  501    0  0.24287403421E+02 -0.21300312421E+02 -0.58136900782E+02  0.46190283035E+03  0.45708942689E+03 0.  0.
         13    1    3    3    0    0  0.15268025930E+03 -0.54520065082E+01  0.15175967004E+03  0.21534155058E+03  0.00000000000E+00 0.  1.
          3    1    3    3  501    0 -0.12839285587E+03 -0.15848305913E+02 -0.20989657082E+03  0.24656127977E+03  0.00000000000E+00 0.  1.
         21    1    1    2  502  501 -0.24287403421E+02  0.21300312421E+02  0.24359521603E+01  0.32396221031E+02  0.00000000000E+00 0.  1.
<scales pt_clust_4="550.00000" pt_clust_5="550.00000" pt_clust_6="32.30451"></scales>
<mgrwt>
<rscale>  0 0.30000000E+03</rscale>
<asrwt>  1 0.32304509E+02</asrwt>
<pdfrwt beam="1">  1        1 0.79745110E+00 0.30000000E+03</pdfrwt>
<pdfrwt beam="2">0</pdfrwt>
<totfact> 0.10985723E-03</totfact>
</mgrwt>
<clustering>
<clus scale="   32.305">  1  6  2 -1</clus>
<clus scale="  457.089">  4  5 -1 -1</clus>
<clus scale="  300.000">  1  4  2 -1</clus>
</clustering>
</event>
<event>
 6    1  0.9480355E-012  0.3000000E+03  0.7818608E-02  0.1093470E+00
          1   -1    0    0  502    0  0.00000000000E+00  0.00000000000E+00  0.23327063117E+03  0.23327063117E+03  0.00000000000E+00 0.  1.
         13   -1    0    0    0    0 -0.00000000000E+00 -0.00000000000E+00 -0.27500000000E+03  0.27500000000E+03  0.00000000000E+00 0.  1.
    9000005    2    1    2  501    0  0.22189848442E+02  0.35248959227E+02 -0.59069144271E+02  0.46315360209E+03  0.45747919824E+03 0.  0.
         13    1    3    3    0    0  0.46040497724E+01  0.21230211278E+03  0.90385878505E+02  0.23078776267E+03  0.00000000000E+00 0.  1.
          1    1    3    3  501    0  0.17585798669E+02 -0.17705315355E+03 -0.14945502278E+03  0.23236583942E+03  0.00000000000E+00 0.  1.
         21    1    1    2  502  501 -0.22189848442E+02 -0.35248959227E+02  0.17339775437E+02  0.45117029076E+02  0.00000000000E+00 0. -1.
<scales pt_clust_4="550.00000" pt_clust_5="550.00000" pt_clust_6="41.65187"></scales>
<mgrwt>
<rscale>  0 0.30000000E+03</rscale>
<asrwt>  1 0.41651873E+02</asrwt>
<pdfrwt beam="1">  1        1 0.84825684E+00 0.30000000E+03</pdfrwt>
<pdfrwt beam="2">0</pdfrwt>
<totfact> 0.40912579E-04</totfact>
</mgrwt>
<clustering>
<clus scale="   41.652">  1  6  2 -1</clus>
<clus scale="  457.479">  4  5 -1 -1</clus>
<clus scale="  300.000">  1  4  2 -1</clus>
</clustering>
</event>
<event>
 6    1  0.9480355E-012  0.3000000E+03  0.7818608E-02  0.1093470E+00
          1   -1    0    0  502    0  0.00000000000E+00  0.00000000000E+00  0.21779644961E+03  0.21779644961E+03  0.00000000000E+00 0.  1.
         13   -1    0    0    0    0 -0.00000000000E+00 -0.00000000000E+00 -0.27500000000E+03  0.27500000000E+03  0.00000000000E+00 0.  1.
    9000005    2    1    2  501    0  0.29639926224E+02  0.87574389815E+01 -0.59868294976E+02  0.46177518549E+03  0.45683354871E+03 0.  0.
         13    1    3    3    0    0  0.27034684765E+02  0.11522642194E+03 -0.23137638381E+03  0.25989042591E+03  0.00000000000E+00 0.  1.
          1    1    3    3  501    0  0.26052414599E+01 -0.10646898296E+03  0.17150808883E+03  0.20188475958E+03  0.00000000000E+00 0.  1.
         21    1    1    2  502  501 -0.29639926224E+02 -0.87574389815E+01  0.26647445871E+01  0.31021264123E+02  0.00000000000E+00 0.  1.
<scales pt_clust_4="550.00000" pt_clust_5="550.00000" pt_clust_6="30.90660"></scales>
<mgrwt>
<rscale>  0 0.30000000E+03</rscale>
<asrwt>  1 0.30906601E+02</asrwt>
<pdfrwt beam="1">  1        1 0.79198709E+00 0.30000000E+03</pdfrwt>
<pdfrwt beam="2">0</pdfrwt>
<totfact> 0.12178379E-03</totfact>
</mgrwt>
<clustering>
<clus scale="   30.907">  1  6  2 -1</clus>
<clus scale="  456.834">  4  5 -1 -1</clus>
<clus scale="  300.000">  1  4  2 -1</clus>
</clustering>
</event>
<event>
 6    1  0.9480355E-012  0.3000000E+03  0.7818608E-02  0.1093470E+00
          1   -1    0    0  502    0  0.00000000000E+00  0.00000000000E+00  0.22603141442E+03  0.22603141442E+03  0.00000000000E+00 0.  1.
         13   -1    0    0    0    0 -0.00000000000E+00 -0.00000000000E+00 -0.27500000000E+03  0.27500000000E+03  0.00000000000E+00 0.  1.
    9000005    2    1    2  501    0 -0.36730888606E+02 -0.17379129129E+02 -0.42868018527E+02  0.45994115736E+03  0.45613266591E+03 0.  0.
         13    1    3    3    0    0  0.20988706498E+03  0.43668321647E+01 -0.97237396278E+01  0.21015756084E+03  0.00000000000E+00 0.  1.
          1    1    3    3  501    0 -0.24661795358E+03 -0.21745961294E+02 -0.33144278899E+02  0.24978359651E+03  0.00000000000E+00 0.  1.
         21    1    1    2  502  501  0.36730888606E+02  0.17379129129E+02 -0.61005670554E+01  0.41090257063E+02  0.00000000000E+00 0. -1.
<scales pt_clust_4="550.00000" pt_clust_5="550.00000" pt_clust_6="40.63489"></scales>
<mgrwt>
<rscale>  0 0.30000000E+03</rscale>
<asrwt>  1 0.40634886E+02</asrwt>
<pdfrwt beam="1">  1        1 0.82193242E+00 0.30000000E+03</pdfrwt>
<pdfrwt beam="2">0</pdfrwt>
<totfact> 0.67673126E-04</totfact>
</mgrwt>
<clustering>
<clus scale="   40.635">  1  6  2 -1</clus>
<clus scale="  456.133">  4  5 -1 -1</clus>
<clus scale="  300.000">  1  4  2 -1</clus>
</clustering>
</event>
<event>
 6    1  0.9480355E-012  0.3000000E+03  0.7818608E-02  0.1093470E+00
          1   -1    0    0  502    0  0.00000000000E+00  0.00000000000E+00  0.24149279564E+03  0.24149279564E+03  0.00000000000E+00 0.  1.
         13   -1    0    0    0    0 -0.00000000000E+00 -0.00000000000E+00 -0.27500000000E+03  0.27500000000E+03  0.00000000000E+00 0.  1.
    9000005    2    1    2  501    0  0.31480881178E+02 -0.27346592987E+01 -0.71147995056E+02  0.46734655097E+03  0.46081692380E+03 0.  0.
         13    1    3    3    0    0 -0.17315323162E+03 -0.13174575511E+03 -0.57549768105E+02  0.22505768465E+03  0.00000000000E+00 0.  1.
          1    1    3    3  501    0  0.20463411280E+03  0.12901109581E+03 -0.13598226951E+02  0.24228886632E+03  0.00000000000E+00 0.  1.
         21    1    1    2  502  501 -0.31480881178E+02  0.27346592987E+01  0.37640790692E+02  0.49146244670E+02  0.00000000000E+00 0.  1.
<scales pt_clust_4="550.00000" pt_clust_5="550.00000" pt_clust_6="31.59943"></scales>
<mgrwt>
<rscale>  0 0.30000000E+03</rscale>
<asrwt>  1 0.31599434E+02</asrwt>
<pdfrwt beam="1">  1        1 0.87815562E+00 0.30000000E+03</pdfrwt>
<pdfrwt beam="2">0</pdfrwt>
<totfact> 0.21168918E-04</totfact>
</mgrwt>
<clustering>
<clus scale="   31.599">  1  6  2 -1</clus>
<clus scale="  460.817">  4  5 -1 -1</clus>
<clus scale="  300.000">  1  4  2 -1</clus>
</clustering>
</event>
<event>
 6    1  0.9480355E-012  0.3000000E+03  0.7818608E-02  0.1093470E+00
          1   -1    0    0  502    0  0.00000000000E+00  0.00000000000E+00  0.24286081493E+03  0.24286081493E+03  0.00000000000E+00 0.  1.
         13   -1    0    0    0    0 -0.00000000000E+00 -0.00000000000E+00 -0.27500000000E+03  0.27500000000E+03  0.00000000000E+00 0.  1.
    9000005    2    1    2  501    0 -0.14670925016E+02 -0.26944953251E+02 -0.73330789355E+02  0.46649920660E+03  0.45967688494E+03 0.  0.
         13    1    3    3    0    0 -0.23100039276E+03 -0.34441373435E+02  0.11918386542E+02  0.23385772939E+03  0.00000000000E+00 0.  1.
          1    1    3    3  501    0  0.21632946774E+03  0.74964201841E+01 -0.85249175898E+02  0.23264147721E+03  0.00000000000E+00 0.  1.
         21    1    1    2  502  501  0.14670925016E+02  0.26944953251E+02  0.41191604285E+02  0.51361608329E+02  0.00000000000E+00 0. -1.
<scales pt_clust_4="550.00000" pt_clust_5="550.00000" pt_clust_6="30.68007"></scales>
<mgrwt>
<rscale>  0 0.30000000E+03</rscale>
<asrwt>  1 0.30680068E+02</asrwt>
<pdfrwt beam="1">  1        1 0.88313024E+00 0.30000000E+03</pdfrwt>
<pdfrwt beam="2">0</pdfrwt>
<totfact> 0.18443697E-04</totfact>
</mgrwt>
<clustering>
<clus scale="   30.680">  1  6  2 -1</clus>
<clus scale="  459.677">  4  5 -1 -1</clus>
<clus scale="  300.000">  1  4  2 -1</clus>
</clustering>
</event>
<event>
 6    1  0.9480355E-012  0.3000000E+03  0.7818608E-02  0.1093470E+00
          1   -1    0    0  502    0  0.00000000000E+00  0.00000000000E+00  0.22389827483E+03  0.22389827483E+03  0.00000000000E+00 0.  1.
         13   -1    0    0    0    0 -0.00000000000E+00 -0.00000000000E+00 -0.27500000000E+03  0.27500000000E+03  0.00000000000E+00 0.  1.
    9000005    2    1    2  501    0  0.70153549369E+01  0.31809723832E+02 -0.56881508451E+02  0.46581535431E+03  0.46118040350E+03 0.  0.
         13    1    3    3    0    0  0.19269115128E+03  0.10527012340E+03 -0.12763252322E+03  0.25397192688E+03  0.00000000000E+00 0.  1.
          1    1    3    3  501    0 -0.18567579634E+03 -0.73460399572E+02  0.70751014765E+02  0.21184342742E+03  0.00000000000E+00 0.  1.
         21    1    1    2  502  501 -0.70153549369E+01 -0.31809723832E+02  0.57797832772E+01  0.33082920517E+02  0.00000000000E+00 0. -1.
<scales pt_clust_4="550.00000" pt_clust_5="550.00000" pt_clust_6="32.57413"></scales>
<mgrwt>
<rscale>  0 0.30000000E+03</rscale>
<asrwt>  1 0.32574127E+02</asrwt>
<pdfrwt beam="1">  1        1 0.81417554E+00 0.30000000E+03</pdfrwt>
<pdfrwt beam="2">0</pdfrwt>
<totfact> 0.81931368E-04</totfact>
</mgrwt>
<clustering>
<clus scale="   32.574">  1  6  2 -1</clus>
<clus scale="  461.180">  4  5 -1 -1</clus>
<clus scale="  300.000">  1  4  2 -1</clus>
</clustering>
</event>
<event>
 6    1  0.9480355E-012  0.3000000E+03  0.7818608E-02  0.1093470E+00
          1   -1    0    0  502    0  0.00000000000E+00  0.00000000000E+00  0.22913808688E+03  0.22913808688E+03  0.00000000000E+00 0.  1.
         13   -1    0    0    0    0 -0.00000000000E+00 -0.00000000000E+00 -0.27500000000E+03  0.27500000000E+03  0.00000000000E+00 0.  1.
    9000005    2    1    2  501    0  0.25992192191E+02  0.15402587017E+02 -0.60486855742E+02  0.47057139672E+03  0.46568867921E+03 0.  0.
         13    1    3    3    0    0 -0.54109996431E+02  0.39136506852E+02 -0.25249416404E+03  0.26117591918E+03  0.00000000000E+00 0.  1.
          1    1    3    3  501    0  0.80102188622E+02 -0.23733919835E+02  0.19200730830E+03  0.20939547754E+03  0.00000000000E+00 0.  1.
         21    1    1    2  502  501 -0.25992192191E+02 -0.15402587017E+02  0.14624942619E+02  0.33566690160E+02  0.00000000000E+00 0. -1.
<scales pt_clust_4="550.00000" pt_clust_5="550.00000" pt_clust_6="30.21314"></scales>
<mgrwt>
<rscale>  0 0.30000000E+03</rscale>
<asrwt>  1 0.30213139E+02</asrwt>
<pdfrwt beam="1">  1        1 0.83322941E+00 0.30000000E+03</pdfrwt>
<pdfrwt beam="2">0</pdfrwt>
<totfact> 0.57330556E-04</totfact>
</mgrwt>
<clustering>
<clus scale="   30.213">  1  6  2 -1</clus>
<clus scale="  465.689">  4  5 -1 -1</clus>
<clus scale="  300.000">  1  4  2 -1</clus>
</clustering>
</event>
<event>
 6    1  0.9480355E-012  0.3000000E+03  0.7818608E-02  0.1093470E+00
          1   -1    0    0  502    0  0.00000000000E+00  0.00000000000E+00  0.25077576104E+03  0.25077576104E+03  0.00000000000E+00 0.  1.
         13   -1    0    0    0    0 -0.00000000000E+00 -0.00000000000E+00 -0.27500000000E+03  0.27500000000E+03  0.00000000000E+00 0.  1.
    9000005    2    1    2  501    0 -0.13862006163E+02  0.48049378259E+02 -0.36672302223E+02  0.47424079966E+03  0.47016867223E+03 0.  0.
         13    1    3    3    0    0  0.92386839513E+02 -0.77190478644E+02  0.17121547018E+03  0.20930464720E+03  0.00000000000E+00 0.  1.
          1    1    3    3  501    0 -0.10624884568E+03  0.12523985690E+03 -0.20788777241E+03  0.26493615246E+03  0.00000000000E+00 0.  1.
         21    1    1    2  502  501  0.13862006163E+02 -0.48049378259E+02  0.12448063267E+02  0.51534961386E+02  0.00000000000E+00 0. -1.
<scales pt_clust_4="550.00000" pt_clust_5="550.00000" pt_clust_6="50.00898"></scales>
<mgrwt>
<rscale>  0 0.30000000E+03</rscale>
<asrwt>  1 0.50008979E+02</asrwt>
<pdfrwt beam="1">  1        1 0.91191186E+00 0.30000000E+03</pdfrwt>
<pdfrwt beam="2">0</pdfrwt>
<totfact> 0.60403337E-05</totfact>
</mgrwt>
<clustering>
<clus scale="   50.009">  1  6  2 -1</clus>
<clus scale="  470.169">  4  5 -1 -1</clus>
<clus scale="  300.000">  1  4  2 -1</clus>
</clustering>
</event>
<event>
 6    1  0.9480355E-012  0.3000000E+03  0.7818608E-02  0.1093470E+00
          1   -1    0    0  502    0  0.00000000000E+00  0.00000000000E+00  0.22242265893E+03  0.22242265893E+03  0.00000000000E+00 0.  1.
         13   -1    0    0    0    0 -0.00000000000E+00 -0.00000000000E+00 -0.27500000000E+03  0.27500000000E+03  0.00000000000E+00 0.  1.
    9000005    2    1    2  501    0  0.21272513378E+02  0.26653607393E+02 -0.39380913083E+02  0.46085654998E+03  0.45790279397E+03 0.  0.
         13    1    3    3    0    0 -0.80863098457E+01  0.70138782457E+02  0.20192493285E+03  0.21391240197E+03  0.00000000000E+00 0.  1.
          1    1    3    3  501    0  0.29358823224E+02 -0.43485175063E+02 -0.24130584593E+03  0.24694414800E+03  0.00000000000E+00 0.  1.
         21    1    1    2  502  501 -0.21272513378E+02 -0.26653607393E+02 -0.13196427986E+02  0.36566108955E+02  0.00000000000E+00 0.  1.
<scales pt_clust_4="550.00000" pt_clust_5="550.00000" pt_clust_6="34.10184"></scales>
<mgrwt>
<rscale>  0 0.30000000E+03</rscale>
<asrwt>  1 0.34101844E+02</asrwt>
<pdfrwt beam="1">  1        1 0.80880967E+00 0.30000000E+03</pdfrwt>
<pdfrwt beam="2">0</pdfrwt>
<totfact> 0.89527446E-04</totfact>
</mgrwt>
<clustering>
<clus scale="   34.102">  1  6  2 -1</clus>
<clus scale="  457.903">  4  5 -1 -1</clus>
<clus scale="  300.000">  1  4  2 -1</clus>
</clustering>
</event>
<event>
 6    1  0.9480355E-012  0.3000000E+03  0.7818608E-02  0.1093470E+00
          1   -1    0    0  502    0  0.00000000000E+00  0.00000000000E+00  0.24237466823E+03  0.24237466823E+03  0.00000000000E+00 0.  1.
         13   -1    0    0    0    0 -0.00000000000E+00 -0.00000000000E+00 -0.27500000000E+03  0.27500000000E+03  0.00000000000E+00 0.  1.
    9000005    2    1    2  501    0  0.94329638094E+01 -0.42170314201E+02 -0.60519921566E+02  0.46594097941E+03  0.45996849803E+03 0.  0.
         13    1    3    3    0    0 -0.54269549221E+02 -0.29087004165E+02  0.19384777281E+03  0.20339173239E+03  0.00000000000E+00 0.  1.
          3    1    3    3  501    0  0.63702513030E+02 -0.13083310036E+02 -0.25436769437E+03  0.26254924701E+03  0.00000000000E+00 0.  1.
         21    1    1    2  502  501 -0.94329638094E+01  0.42170314201E+02  0.27894589796E+02  0.51433688822E+02  0.00000000000E+00 0. -1.
<scales pt_clust_4="550.00000" pt_clust_5="550.00000" pt_clust_6="43.21245"></scales>
<mgrwt>
<rscale>  0 0.30000000E+03</rscale>
<asrwt>  1 0.43212454E+02</asrwt>
<pdfrwt beam="1">  1        1 0.88136243E+00 0.30000000E+03</pdfrwt>
<pdfrwt beam="2">0</pdfrwt>
<totfact> 0.18254418E-04</totfact>
</mgrwt>
<clustering>
<clus scale="   43.212">  1  6  2 -1</clus>
<clus scale="  459.968">  4  5 -1 -1</clus>
<clus scale="  300.000">  1  4  2 -1</clus>
</clustering>
</event>
<event>
 6    1  0.9480355E-012  0.3000000E+03  0.7818608E-02  0.1093470E+00
          1   -1    0    0  502    0  0.00000000000E+00  0.00000000000E+00  0.22377077925E+03  0.22377077925E+03  0.00000000000E+00 0.  1.
         13   -1    0    0    0    0 -0.00000000000E+00 -0.00000000000E+00 -0.27500000000E+03  0.27500000000E+03  0.00000000000E+00 0.  1.
    9000005    2    1    2  501    0  0.22394315264E+02  0.22127283955E+02 -0.39352190672E+02  0.46512280911E+03  0.46238459165E+03 0.  0.
         13    1    3    3    0    0 -0.87171762943E+02 -0.15446293366E+03 -0.14765096057E+03  0.23077807584E+03  0.00000000000E+00 0.  1.
          1    1    3    3  501    0  0.10956607821E+03  0.17659021761E+03  0.10829876990E+03  0.23434473327E+03  0.00000000000E+00 0.  1.
         21    1    1    2  502  501 -0.22394315264E+02 -0.22127283955E+02 -0.11877030076E+02  0.33647970143E+02  0.00000000000E+00 0.  1.
<scales pt_clust_4="550.00000" pt_clust_5="550.00000" pt_clust_6="31.48211"></scales>
<mgrwt>
<rscale>  0 0.30000000E+03</rscale>
<asrwt>  1 0.31482107E+02</asrwt>
<pdfrwt beam="1">  1        1 0.81371192E+00 0.30000000E+03</pdfrwt>
<pdfrwt beam="2">0</pdfrwt>
<totfact> 0.83172812E-04</totfact>
</mgrwt>
<clustering>
<clus scale="   31.482">  1  6  2 -1</clus>
<clus scale="  462.385">  4  5 -1 -1</clus>
<clus scale="  300.000">  1  4  2 -1</clus>
</clustering>
</event>
<event>
 6    1  0.9480355E-012  0.3000000E+03  0.7818608E-02  0.1093470E+00
          1   -1    0    0  502    0  0.00000000000E+00  0.00000000000E+00  0.25071206218E+03  0.25071206218E+03  0.00000000000E+00 0.  1.
         13   -1    0    0    0    0 -0.00000000000E+00 -0.00000000000E+00 -0.27500000000E+03  0.27500000000E+03  0.00000000000E+00 0.  1.
    9000005    2    1    2  501    0 -0.34298169933E+02 -0.94877143325E+01 -0.23038410011E+02  0.49010388189E+03  0.48826700229E+03 0.  0.
         13    1    3    3    0    0  0.42212300090E+02  0.12608324104E+02 -0.24778190795E+03  0.25166788040E+03  0.00000000000E+00 0.  1.
          3    1    3    3  501    0 -0.76510470023E+02 -0.22096038437E+02  0.22474349794E+03  0.23843600149E+03  0.00000000000E+00 0.  1.
         21    1    1    2  502  501  0.34298169933E+02  0.94877143325E+01 -0.12495278077E+01  0.35608180292E+02  0.00000000000E+00 0.  1.
<scales pt_clust_4="550.00000" pt_clust_5="550.00000" pt_clust_6="35.58625"></scales>
<mgrwt>
<rscale>  0 0.30000000E+03</rscale>
<asrwt>  1 0.35586250E+02</asrwt>
<pdfrwt beam="1">  1        1 0.91168023E+00 0.30000000E+03</pdfrwt>
<pdfrwt beam="2">0</pdfrwt>
<totfact> 0.65098905E-05</totfact>
</mgrwt>
<clustering>
<clus scale="   35.586">  1  6  2 -1</clus>
<clus scale="  488.267">  4  5 -1 -1</clus>
<clus scale="  300.000">  1  4  2 -1</clus>
</clustering>
</event>
<event>
 6    1  0.9480355E-012  0.3000000E+03  0.7818608E-02  0.1093470E+00
          1   -1    0    0  502    0  0.00000000000E+00  0.00000000000E+00  0.22725883119E+03  0.22725883119E+03  0.00000000000E+00 0.  1.
         13   -1    0    0    0    0 -0.00000000000E+00 -0.00000000000E+00 -0.27500000000E+03  0.27500000000E+03  0.00000000000E+00 0.  1.
    9000005    2    1    2  501    0 -0.28601749042E+02  0.12087817244E+02 -0.59336793470E+02  0.46911318464E+03  0.46430824844E+03 0.  0.
         13    1    3    3    0    0 -0.33236174873E+02  0.23045220017E+03 -0.87825076752E+02  0.24884956096E+03  0.00000000000E+00 0.  1.
          1    1    3    3  501    0  0.46344258313E+01 -0.21836438292E+03  0.28488283282E+02  0.22026362368E+03  0.00000000000E+00 0.  1.
         21    1    1    2  502  501  0.28601749042E+02 -0.12087817244E+02  0.11595624658E+02  0.33145646549E+02  0.00000000000E+00 0. -1.
<scales pt_clust_4="550.00000" pt_clust_5="550.00000" pt_clust_6="31.05117"></scales>
<mgrwt>
<rscale>  0 0.30000000E+03</rscale>
<asrwt>  1 0.31051173E+02</asrwt>
<pdfrwt beam="1">  1        1 0.82639575E+00 0.30000000E+03</pdfrwt>
<pdfrwt beam="2">0</pdfrwt>
<totfact> 0.64930330E-04</totfact>
</mgrwt>
<clustering>
<clus scale="   31.051">  1  6  2 -1</clus>
<clus scale="  464.308">  4  5 -1 -1</clus>
<clus scale="  300.000">  1  4  2 -1</clus>
</clustering>
</event>
<event>
 6    1  0.9480355E-012  0.3000000E+03  0.7818608E-02  0.1093470E+00
          1   -1    0    0  502    0  0.00000000000E+00  0.00000000000E+00  0.22265949508E+03  0.22265949508E+03  0.00000000000E+00 0.  1.
         13   -1    0    0    0    0 -0.00000000000E+00 -0.00000000000E+00 -0.27500000000E+03  0.27500000000E+03  0.00000000000E+00 0.  1.
    9000005    2    1    2  501    0  0.31461081505E+02  0.31096619841E+01 -0.66166015591E+02  0.46315421443E+03  0.45731216371E+03 0.  0.
         13    1    3    3    0    0  0.22682300084E+03  0.87591958604E+02 -0.11599192982E+02  0.24342466226E+03  0.00000000000E+00 0.  1.
          3    1    3    3  501    0 -0.19536191933E+03 -0.84482296619E+02 -0.54566822609E+02  0.21972955217E+03  0.00000000000E+00 0.  1.
         21    1    1    2  502  501 -0.31461081505E+02 -0.31096619841E+01  0.13825510668E+02  0.34505280645E+02  0.00000000000E+00 0.  1.
<scales pt_clust_4="550.00000" pt_clust_5="550.00000" pt_clust_6="31.61439"></scales>
<mgrwt>
<rscale>  0 0.30000000E+03</rscale>
<asrwt>  1 0.31614390E+02</asrwt>
<pdfrwt beam="1">  1        1 0.80967089E+00 0.30000000E+03</pdfrwt>
<pdfrwt beam="2">0</pdfrwt>
<totfact> 0.89432457E-04</totfact>
</mgrwt>
<clustering>
<clus scale="   31.614">  1  6  2 -1</clus>
<clus scale="  457.312">  4  5 -1 -1</clus>
<clus scale="  300.000">  1  4  2 -1</clus>
</clustering>
</event>
<event>
 6    1  0.9480355E-012  0.3000000E+03  0.7818608E-02  0.1093470E+00
          1   -1    0    0  502    0  0.00000000000E+00  0.00000000000E+00  0.22269215715E+03  0.22269215715E+03  0.00000000000E+00 0.  1.
         13   -1    0    0    0    0 -0.00000000000E+00 -0.00000000000E+00 -0.27500000000E+03  0.27500000000E+03  0.00000000000E+00 0.  1.
    9000005    2    1    2  501    0  0.66943593583E+01 -0.32519502909E+02 -0.56748915777E+02  0.46419505809E+03  0.45951526634E+03 0.  0.
         13    1    3    3    0    0 -0.49629241637E+01 -0.60578421760E+02  0.19826749118E+03  0.20737495957E+03  0.00000000000E+00 0.  1.
          3    1    3    3  501    0  0.11657283522E+02  0.28058918851E+02 -0.25501640696E+03  0.25682009852E+03  0.00000000000E+00 0.  1.
         21    1    1    2  502  501 -0.66943593583E+01  0.32519502909E+02  0.44410729313E+01  0.33497099060E+02  0.00000000000E+00 0.  1.
<scales pt_clust_4="550.00000" pt_clust_5="550.00000" pt_clust_6="33.20139"></scales>
<mgrwt>
<rscale>  0 0.30000000E+03</rscale>
<asrwt>  1 0.33201393E+02</asrwt>
<pdfrwt beam="1">  1        1 0.80978966E+00 0.30000000E+03</pdfrwt>
<pdfrwt beam="2">0</pdfrwt>
<totfact> 0.88416722E-04</totfact>
</mgrwt>
<clustering>
<clus scale="   33.201">  1  6  2 -1</clus>
<clus scale="  459.515">  4  5 -1 -1</clus>
<clus scale="  300.000">  1  4  2 -1</clus>
</clustering>
</event>
<event>
 6    1  0.9480355E-012  0.3000000E+03  0.7818608E-02  0.1093470E+00
          1   -1    0    0  502    0  0.00000000000E+00  0.00000000000E+00  0.22624846440E+03  0.22624846440E+03  0.00000000000E+00 0.  1.
         13   -1    0    0    0    0 -0.00000000000E+00 -0.00000000000E+00 -0.27500000000E+03  0.27500000000E+03  0.00000000000E+00 0.  1.
    9000005    2    1    2  501    0  0.14156108012E+02 -0.37911341036E+02 -0.43368431594E+02  0.46042392543E+03  0.45658701808E+03 0.  0.
         13    1    3    3    0    0 -0.84786271322E+02 -0.19815963809E+03  0.85870660206E+02  0.23201233643E+03  0.00000000000E+00 0.  1.
          1    1    3    3  501    0  0.98942379334E+02  0.16024829706E+03 -0.12923909180E+03  0.22841158899E+03  0.00000000000E+00 0.  1.
         21    1    1    2  502  501 -0.14156108012E+02  0.37911341036E+02 -0.53831040088E+01  0.40824538968E+02  0.00000000000E+00 0. -1.
<scales pt_clust_4="550.00000" pt_clust_5="550.00000" pt_clust_6="40.46810"></scales>
<mgrwt>
<rscale>  0 0.30000000E+03</rscale>
<asrwt>  1 0.40468096E+02</asrwt>
<pdfrwt beam="1">  1        1 0.82272169E+00 0.30000000E+03</pdfrwt>
<pdfrwt beam="2">0</pdfrwt>
<totfact> 0.66639810E-04</totfact>
</mgrwt>
<clustering>
<clus scale="   40.468">  1  6  2 -1</clus>
<clus scale="  456.587">  4  5 -1 -1</clus>
<clus scale="  300.000">  1  4  2 -1</clus>
</clustering>
</event>
<event>
 6    1  0.9480355E-012  0.3000000E+03  0.7818608E-02  0.1093470E+00
          1   -1    0    0  502    0  0.00000000000E+00  0.00000000000E+00  0.22751886738E+03  0.22751886738E+03  0.00000000000E+00 0.  1.
         13   -1    0    0    0    0 -0.00000000000E+00 -0.00000000000E+00 -0.27500000000E+03  0.27500000000E+03  0.00000000000E+00 0.  1.
    9000005    2    1    2  501    0  0.14618114090E+02  0.26241987254E+02 -0.64375368263E+02  0.46805517123E+03  0.46263281782E+03 0.  0.
         13    1    3    3    0    0  0.10039773833E+03 -0.20536626313E+02  0.17874461795E+03  0.20603664074E+03  0.00000000000E+00 0.  1.
          1    1    3    3  501    0 -0.85779624241E+02  0.46778613567E+02 -0.24311998621E+03  0.26201853049E+03  0.00000000000E+00 0.  1.
         21    1    1    2  502  501 -0.14618114090E+02 -0.26241987254E+02  0.16894235648E+02  0.34463696156E+02  0.00000000000E+00 0. -1.
<scales pt_clust_4="550.00000" pt_clust_5="550.00000" pt_clust_6="30.03883"></scales>
<mgrwt>
<rscale>  0 0.30000000E+03</rscale>
<asrwt>  1 0.30038827E+02</asrwt>
<pdfrwt beam="1">  1        1 0.82734134E+00 0.30000000E+03</pdfrwt>
<pdfrwt beam="2">0</pdfrwt>
<totfact> 0.64104305E-04</totfact>
</mgrwt>
<clustering>
<clus scale="   30.039">  1  6  2 -1</clus>
<clus scale="  462.633">  4  5 -1 -1</clus>
<clus scale="  300.000">  1  4  2 -1</clus>
</clustering>
</event>
<event>
 6    1  0.9480355E-012  0.3000000E+03  0.7818608E-02  0.1093470E+00
          1   -1    0    0  502    0  0.00000000000E+00  0.00000000000E+00  0.24698458462E+03  0.24698458462E+03  0.00000000000E+00 0.  1.
         13   -1    0    0    0    0 -0.00000000000E+00 -0.00000000000E+00 -0.27500000000E+03  0.27500000000E+03  0.00000000000E+00 0.  1.
    9000005    2    1    2  501    0 -0.33137033442E+02 -0.50052548513E+01 -0.75828311170E+02  0.46359632754E+03  0.45612334578E+03 0.  0.
         13    1    3    3    0    0  0.14007337467E+03  0.11981084632E+03 -0.14993452745E+03  0.23760377040E+03  0.00000000000E+00 0.  1.
          1    1    3    3  501    0 -0.17321040811E+03 -0.12481610117E+03  0.74106216284E+02  0.22599255713E+03  0.00000000000E+00 0.  1.
         21    1    1    2  502  501  0.33137033442E+02  0.50052548513E+01  0.47812895785E+02  0.58388257079E+02  0.00000000000E+00 0.  1.
<scales pt_clust_4="550.00000" pt_clust_5="550.00000" pt_clust_6="33.51292"></scales>
<mgrwt>
<rscale>  0 0.30000000E+03</rscale>
<asrwt>  1 0.33512916E+02</asrwt>
<pdfrwt beam="1">  1        1 0.89812576E+00 0.30000000E+03</pdfrwt>
<pdfrwt beam="2">0</pdfrwt>
<totfact> 0.11725183E-04</totfact>
</mgrwt>
<clustering>
<clus scale="   33.513">  1  6  2 -1</clus>
<clus scale="  456.123">  4  5 -1 -1</clus>
<clus scale="  300.000">  1  4  2 -1</clus>
</clustering>
</event>
<event>
 6    1  0.9480355E-012  0.3000000E+03  0.7818608E-02  0.1093470E+00
          1   -1    0    0  502    0  0.00000000000E+00  0.00000000000E+00  0.24252995746E+03  0.24252995746E+03  0.00000000000E+00 0.  1.
         13   -1    0    0    0    0 -0.00000000000E+00 -0.00000000000E+00 -0.27500000000E+03  0.27500000000E+03  0.00000000000E+00 0.  1.
    9000005    2    1    2  501    0  0.19005617951E+02  0.26852145173E+02 -0.52726841623E+02  0.47889591647E+03  0.47484621486E+03 0.  0.
         13    1    3    3    0    0  0.45432612858E+02 -0.21815919304E+03 -0.65096596803E+02  0.23215323115E+03  0.00000000000E+00 0.  1.
          1    1    3    3  501    0 -0.26426994907E+02  0.24501133821E+03  0.12369755181E+02  0.24674268532E+03  0.00000000000E+00 0.  1.
         21    1    1    2  502  501 -0.19005617951E+02 -0.26852145173E+02  0.20256799080E+02  0.38634040988E+02  0.00000000000E+00 0.  1.
<scales pt_clust_4="550.00000" pt_clust_5="550.00000" pt_clust_6="32.89759"></scales>
<mgrwt>
<rscale>  0 0.30000000E+03</rscale>
<asrwt>  1 0.32897587E+02</asrwt>
<pdfrwt beam="1">  1        1 0.88192712E+00 0.30000000E+03</pdfrwt>
<pdfrwt beam="2">0</pdfrwt>
<totfact> 0.18876836E-04</totfact>
</mgrwt>
<clustering>
<clus scale="   32.898">  1  6  2 -1</clus>
<clus scale="  474.846">  4  5 -1 -1</clus>
<clus scale="  300.000">  1  4  2 -1</clus>
</clustering>
</event>
<event>
 6    1  0.9480355E-012  0.3000000E+03  0.7818608E-02  0.1093470E+00
          1   -1    0    0  502    0  0.00000000000E+00  0.00000000000E+00  0.23748006914E+03  0.23748006914E+03  0.00000000000E+00 0.  1.
         13   -1    0    0    0    0 -0.00000000000E+00 -0.00000000000E+00 -0.27500000000E+03  0.27500000000E+03  0.00000000000E+00 0.  1.
    9000005    2    1    2  501    0  0.27800883013E+02  0.16867233083E+02 -0.68136915819E+02  0.46781697010E+03  0.46168461699E+03 0.  0.
         13    1    3    3    0    0  0.16559187823E+03  0.15036334733E+03  0.66599869869E+02  0.23337812456E+03  0.00000000000E+00 0.  1.
          1    1    3    3  501    0 -0.13779099521E+03 -0.13349611425E+03 -0.13473678569E+03  0.23443884554E+03  0.00000000000E+00 0.  1.
         21    1    1    2  502  501 -0.27800883013E+02 -0.16867233083E+02  0.30616984958E+02  0.44663099043E+02  0.00000000000E+00 0.  1.
<scales pt_clust_4="550.00000" pt_clust_5="550.00000" pt_clust_6="32.51757"></scales>
<mgrwt>
<rscale>  0 0.30000000E+03</rscale>
<asrwt>  1 0.32517574E+02</asrwt>
<pdfrwt beam="1">  1        1 0.86356389E+00 0.30000000E+03</pdfrwt>
<pdfrwt beam="2">0</pdfrwt>
<totfact> 0.30021614E-04</totfact>
</mgrwt>
<clustering>
<clus scale="   32.518">  1  6  2 -1</clus>
<clus scale="  461.685">  4  5 -1 -1</clus>
<clus scale="  300.000">  1  4  2 -1</clus>
</clustering>
</event>
<event>
 6    1  0.9480355E-012  0.3000000E+03  0.7818608E-02  0.1093470E+00
          1   -1    0    0  502    0  0.00000000000E+00  0.00000000000E+00  0.24019522025E+03  0.24019522025E+03  0.00000000000E+00 0.  1.
         13   -1    0    0    0    0 -0.00000000000E+00 -0.00000000000E+00 -0.27500000000E+03  0.27500000000E+03  0.00000000000E+00 0.  1.
    9000005    2    1    2  501    0  0.46977260058E+02  0.14239729837E+02 -0.43899543046E+02  0.46527180302E+03  0.46058772013E+03 0.  0.
         13    1    3    3    0    0 -0.12317317128E+03 -0.29701666087E+02 -0.19564478758E+03  0.23308947209E+03  0.00000000000E+00 0.  1.
          1    1    3    3  501    0  0.17015043134E+03  0.43941395924E+02  0.15174524453E+03  0.23218233093E+03  0.00000000000E+00 0.  1.
         21    1    1    2  502  501 -0.46977260058E+02 -0.14239729837E+02  0.90947632918E+01  0.49923417228E+02  0.00000000000E+00 0.  1.
<scales pt_clust_4="550.00000" pt_clust_5="550.00000" pt_clust_6="49.08801"></scales>
<mgrwt>
<rscale>  0 0.30000000E+03</rscale>
<asrwt>  1 0.49088011E+02</asrwt>
<pdfrwt beam="1">  1        1 0.87343716E+00 0.30000000E+03</pdfrwt>
<pdfrwt beam="2">0</pdfrwt>
<totfact> 0.21964619E-04</totfact>
</mgrwt>
<clustering>
<clus scale="   49.088">  1  6  2 -1</clus>
<clus scale="  460.588">  4  5 -1 -1</clus>
<clus scale="  300.000">  1  4  2 -1</clus>
</clustering>
</event>
<event>
 6    1  0.9480355E-012  0.3000000E+03  0.7818608E-02  0.1093470E+00
          1   -1    0    0  502    0  0.00000000000E+00  0.00000000000E+00  0.26265015551E+03  0.26265015551E+03  0.00000000000E+00 0.  1.
         13   -1    0    0    0    0 -0.00000000000E+00 -0.00000000000E+00 -0.27500000000E+03  0.27500000000E+03  0.00000000000E+00 0.  1.
    9000005    2    1    2  501    0  0.18626622039E+02  0.47575500261E+02 -0.46034544644E+02  0.47645343748E+03  0.47146401719E+03 0.  0.
         13    1    3    3    0    0 -0.19572323996E+03  0.57694754558E+01  0.93817174195E+02  0.21712331907E+03  0.00000000000E+00 0.  1.
          3    1    3    3  501    0  0.21434986200E+03  0.41806024805E+02 -0.13985171884E+03  0.25933011841E+03  0.00000000000E+00 0.  1.
         21    1    1    2  502  501 -0.18626622039E+02 -0.47575500261E+02  0.33684700150E+02  0.61196718032E+02  0.00000000000E+00 0.  1.
<scales pt_clust_4="550.00000" pt_clust_5="550.00000" pt_clust_6="51.09187"></scales>
<mgrwt>
<rscale>  0 0.30000000E+03</rscale>
<asrwt>  1 0.51091871E+02</asrwt>
<pdfrwt beam="1">  1        1 0.95509147E+00 0.30000000E+03</pdfrwt>
<pdfrwt beam="2">0</pdfrwt>
<totfact> 0.90256542E-06</totfact>
</mgrwt>
<clustering>
<clus scale="   51.092">  1  6  2 -1</clus>
<clus scale="  471.464">  4  5 -1 -1</clus>
<clus scale="  300.000">  1  4  2 -1</clus>
</clustering>
</event>
<event>
 6    1  0.9480355E-012  0.3000000E+03  0.7818608E-02  0.1093470E+00
          1   -1    0    0  502    0  0.00000000000E+00  0.00000000000E+00  0.24406285616E+03  0.24406285616E+03  0.00000000000E+00 0.  1.
         13   -1    0    0    0    0 -0.00000000000E+00 -0.00000000000E+00 -0.27500000000E+03  0.27500000000E+03  0.00000000000E+00 0.  1.
    9000005    2    1    2  501    0  0.78351735527E+01 -0.43883482001E+02 -0.40603411880E+02  0.47344940776E+03  0.46959403181E+03 0.  0.
         13    1    3    3    0    0  0.13228355769E+03  0.81971223560E+02 -0.18733581551E+03  0.24354245810E+03  0.00000000000E+00 0.  1.
          3    1    3    3  501    0 -0.12444838413E+03 -0.12585470556E+03  0.14673240363E+03  0.22990694966E+03  0.00000000000E+00 0.  1.
         21    1    1    2  502  501 -0.78351735527E+01  0.43883482001E+02  0.96662680387E+01  0.45613448400E+02  0.00000000000E+00 0. -1.
<scales pt_clust_4="550.00000" pt_clust_5="550.00000" pt_clust_6="44.57746"></scales>
<mgrwt>
<rscale>  0 0.30000000E+03</rscale>
<asrwt>  1 0.44577460E+02</asrwt>
<pdfrwt beam="1">  1        1 0.88750130E+00 0.30000000E+03</pdfrwt>
<pdfrwt beam="2">0</pdfrwt>
<totfact> 0.14996931E-04</totfact>
</mgrwt>
<clustering>
<clus scale="   44.577">  1  6  2 -1</clus>
<clus scale="  469.594">  4  5 -1 -1</clus>
<clus scale="  300.000">  1  4  2 -1</clus>
</clustering>
</event>
<event>
 6    1  0.9480355E-012  0.3000000E+03  0.7818608E-02  0.1093470E+00
          1   -1    0    0  502    0  0.00000000000E+00  0.00000000000E+00  0.22857607504E+03  0.22857607504E+03  0.00000000000E+00 0.  1.
         13   -1    0    0    0    0 -0.00000000000E+00 -0.00000000000E+00 -0.27500000000E+03  0.27500000000E+03  0.00000000000E+00 0.  1.
    9000005    2    1    2  501    0 -0.32459299577E+02 -0.79842619297E+01 -0.67963788003E+02  0.46381025721E+03  0.45758444428E+03 0.  0.
         13    1    3    3    0    0  0.18900114517E+03 -0.17362354997E+02 -0.13422034722E+03  0.23246071895E+03  0.00000000000E+00 0.  1.
          1    1    3    3  501    0 -0.22146044475E+03  0.93780930671E+01  0.66256559213E+02  0.23134953827E+03  0.00000000000E+00 0.  1.
         21    1    1    2  502  501  0.32459299577E+02  0.79842619297E+01  0.21539863044E+02  0.39765817828E+02  0.00000000000E+00 0. -1.
<scales pt_clust_4="550.00000" pt_clust_5="550.00000" pt_clust_6="33.42685"></scales>
<mgrwt>
<rscale>  0 0.30000000E+03</rscale>
<asrwt>  1 0.33426854E+02</asrwt>
<pdfrwt beam="1">  1        1 0.83118573E+00 0.30000000E+03</pdfrwt>
<pdfrwt beam="2">0</pdfrwt>
<totfact> 0.58312435E-04</totfact>
</mgrwt>
<clustering>
<clus scale="   33.427">  1  6  2 -1</clus>
<clus scale="  457.584">  4  5 -1 -1</clus>
<clus scale="  300.000">  1  4  2 -1</clus>
</clustering>
</event>
<event>
 6    1  0.9480355E-012  0.3000000E+03  0.7818608E-02  0.1093470E+00
          1   -1    0    0  502    0  0.00000000000E+00  0.00000000000E+00  0.22854542797E+03  0.22854542797E+03  0.00000000000E+00 0.  1.
         13   -1    0    0    0    0 -0.00000000000E+00 -0.00000000000E+00 -0.27500000000E+03  0.27500000000E+03  0.00000000000E+00 0.  1.
    9000005    2    1    2  501    0  0.29641619562E+02  0.71447036015E+01 -0.57071615051E+02  0.47125930088E+03  0.46679598009E+03 0.  0.
         13    1    3    3    0    0  0.83251478786E+02 -0.53291874395E+01  0.19560813182E+03  0.21265406226E+03  0.00000000000E+00 0.  1.
          1    1    3    3  501    0 -0.53609859224E+02  0.12473891041E+02 -0.25267974688E+03  0.25860523863E+03  0.00000000000E+00 0.  1.
         21    1    1    2  502  501 -0.29641619562E+02 -0.71447036015E+01  0.10617043024E+02  0.32286127088E+02  0.00000000000E+00 0.  1.
<scales pt_clust_4="550.00000" pt_clust_5="550.00000" pt_clust_6="30.49053"></scales>
<mgrwt>
<rscale>  0 0.30000000E+03</rscale>
<asrwt>  1 0.30490530E+02</asrwt>
<pdfrwt beam="1">  1        1 0.83107428E+00 0.30000000E+03</pdfrwt>
<pdfrwt beam="2">0</pdfrwt>
<totfact> 0.59462753E-04</totfact>
</mgrwt>
<clustering>
<clus scale="   30.491">  1  6  2 -1</clus>
<clus scale="  466.796">  4  5 -1 -1</clus>
<clus scale="  300.000">  1  4  2 -1</clus>
</clustering>
</event>
<event>
 6    1  0.9480355E-012  0.3000000E+03  0.7818608E-02  0.1093470E+00
          1   -1    0    0  502    0  0.00000000000E+00  0.00000000000E+00  0.23112112256E+03  0.23112112256E+03  0.00000000000E+00 0.  1.
         13   -1    0    0    0    0 -0.00000000000E+00 -0.00000000000E+00 -0.27500000000E+03  0.27500000000E+03  0.00000000000E+00 0.  1.
    9000005    2    1    2  501    0  0.36749448210E+02  0.39355142248E+01 -0.46546970219E+02  0.46906536815E+03  0.46528452472E+03 0.  0.
         13    1    3    3    0    0 -0.38472055432E+02 -0.28905461512E+01 -0.24952494857E+03  0.25248990923E+03  0.00000000000E+00 0.  1.
          3    1    3    3  501    0  0.75221503642E+02  0.68260603760E+01  0.20297797835E+03  0.21657545892E+03  0.00000000000E+00 0.  1.
         21    1    1    2  502  501 -0.36749448210E+02 -0.39355142248E+01  0.26680927784E+01  0.37055754412E+02  0.00000000000E+00 0. -1.
<scales pt_clust_4="550.00000" pt_clust_5="550.00000" pt_clust_6="36.95958"></scales>
<mgrwt>
<rscale>  0 0.30000000E+03</rscale>
<asrwt>  1 0.36959575E+02</asrwt>
<pdfrwt beam="1">  1        1 0.84044045E+00 0.30000000E+03</pdfrwt>
<pdfrwt beam="2">0</pdfrwt>
<totfact> 0.48818779E-04</totfact>
</mgrwt>
<clustering>
<clus scale="   36.960">  1  6  2 -1</clus>
<clus scale="  465.285">  4  5 -1 -1</clus>
<clus scale="  300.000">  1  4  2 -1</clus>
</clustering>
</event>
<event>
 6    1  0.9480355E-012  0.3000000E+03  0.7818608E-02  0.1093470E+00
          1   -1    0    0  502    0  0.00000000000E+00  0.00000000000E+00  0.24897718456E+03  0.24897718456E+03  0.00000000000E+00 0.  1.
         13   -1    0    0    0    0 -0.00000000000E+00 -0.00000000000E+00 -0.27500000000E+03  0.27500000000E+03  0.00000000000E+00 0.  1.
    9000005    2    1    2  501    0  0.28909401179E+02  0.20465502031E+02 -0.69046028354E+02  0.46824938989E+03  0.46177434624E+03 0.  0.
         13    1    3    3    0    0  0.23661885509E+03  0.54506804605E+02  0.10992942148E+02  0.24306443407E+03  0.00000000000E+00 0.  1.
          1    1    3    3  501    0 -0.20770945391E+03 -0.34041302574E+02 -0.80038970502E+02  0.22518495581E+03  0.00000000000E+00 0.  1.
         21    1    1    2  502  501 -0.28909401179E+02 -0.20465502031E+02  0.43023212915E+02  0.55727794676E+02  0.00000000000E+00 0.  1.
<scales pt_clust_4="550.00000" pt_clust_5="550.00000" pt_clust_6="35.42020"></scales>
<mgrwt>
<rscale>  0 0.30000000E+03</rscale>
<asrwt>  1 0.35420196E+02</asrwt>
<pdfrwt beam="1">  1        1 0.90537158E+00 0.30000000E+03</pdfrwt>
<pdfrwt beam="2">0</pdfrwt>
<totfact> 0.90759170E-05</totfact>
</mgrwt>
<clustering>
<clus scale="   35.420">  1  6  2 -1</clus>
<clus scale="  461.774">  4  5 -1 -1</clus>
<clus scale="  300.000">  1  4  2 -1</clus>
</clustering>
</event>
<event>
 6    1  0.9480355E-012  0.3000000E+03  0.7818608E-02  0.1093470E+00
          1   -1    0    0  502    0  0.00000000000E+00  0.00000000000E+00  0.22408959166E+03  0.22408959166E+03  0.00000000000E+00 0.  1.
         13   -1    0    0    0    0 -0.00000000000E+00 -0.00000000000E+00 -0.27500000000E+03  0.27500000000E+03  0.00000000000E+00 0.  1.
    9000005    2    1    2  501    0  0.19717020764E+02 -0.27183335878E+02 -0.56061403818E+02  0.46511566914E+03  0.46050191099E+03 0.  0.
         13    1    3    3    0    0 -0.83142721148E+02 -0.15496804316E+03  0.12878641992E+03  0.21797648597E+03  0.00000000000E+00 0.  1.
          1    1    3    3  501    0  0.10285974191E+03  0.12778470728E+03 -0.18484782373E+03  0.24713918317E+03  0.00000000000E+00 0.  1.
         21    1    1    2  502  501 -0.19717020764E+02  0.27183335878E+02  0.51509954820E+01  0.33973922525E+02  0.00000000000E+00 0.  1.
<scales pt_clust_4="550.00000" pt_clust_5="550.00000" pt_clust_6="33.58117"></scales>
<mgrwt>
<rscale>  0 0.30000000E+03</rscale>
<asrwt>  1 0.33581165E+02</asrwt>
<pdfrwt beam="1">  1        1 0.81487124E+00 0.30000000E+03</pdfrwt>
<pdfrwt beam="2">0</pdfrwt>
<totfact> 0.80417483E-04</totfact>
</mgrwt>
<clustering>
<clus scale="   33.581">  1  6  2 -1</clus>
<clus scale="  460.502">  4  5 -1 -1</clus>
<clus scale="  300.000">  1  4  2 -1</clus>
</clustering>
</event>
<event>
 6    1  0.9480355E-012  0.3000000E+03  0.7818608E-02  0.1093470E+00
          1   -1    0    0  502    0  0.00000000000E+00  0.00000000000E+00  0.22575219324E+03  0.22575219324E+03  0.00000000000E+00 0.  1.
         13   -1    0    0    0    0 -0.00000000000E+00 -0.00000000000E+00 -0.27500000000E+03  0.27500000000E+03  0.00000000000E+00 0.  1.
    9000005    2    1    2  501    0 -0.23110751396E+02  0.22754334492E+02 -0.60747223560E+02  0.46634139327E+03  0.46122901398E+03 0.  0.
         13    1    3    3    0    0 -0.44437831536E+02  0.20232436746E+03  0.94805011787E+02  0.22781101992E+03  0.00000000000E+00 0.  1.
          1    1    3    3  501    0  0.21327080139E+02 -0.17957003296E+03 -0.15555223535E+03  0.23853037334E+03  0.00000000000E+00 0.  1.
         21    1    1    2  502  501  0.23110751396E+02 -0.22754334492E+02  0.11499416804E+02  0.34410799977E+02  0.00000000000E+00 0. -1.
<scales pt_clust_4="550.00000" pt_clust_5="550.00000" pt_clust_6="32.43249"></scales>
<mgrwt>
<rscale>  0 0.30000000E+03</rscale>
<asrwt>  1 0.32432492E+02</asrwt>
<pdfrwt beam="1">  1        1 0.82091707E+00 0.30000000E+03</pdfrwt>
<pdfrwt beam="2">0</pdfrwt>
<totfact> 0.72036810E-04</totfact>
</mgrwt>
<clustering>
<clus scale="   32.432">  1  6  2 -1</clus>
<clus scale="  461.229">  4  5 -1 -1</clus>
<clus scale="  300.000">  1  4  2 -1</clus>
</clustering>
</event>
<event>
 6    1  0.9480355E-012  0.3000000E+03  0.7818608E-02  0.1093470E+00
          1   -1    0    0  502    0  0.00000000000E+00  0.00000000000E+00  0.25230685520E+03  0.25230685520E+03  0.00000000000E+00 0.  1.
         13   -1    0    0    0    0 -0.00000000000E+00 -0.00000000000E+00 -0.27500000000E+03  0.27500000000E+03  0.00000000000E+00 0.  1.
    9000005    2    1    2  501    0  0.33166497623E+02 -0.23113092062E+02 -0.21899305066E+02  0.48687343127E+03  0.48469776864E+03 0.  0.
         13    1    3    3    0    0 -0.12519625377E+03  0.18253481274E+03  0.26227935321E+02  0.22289227087E+03  0.00000000000E+00 0.  1.
          3    1    3    3  501    0  0.15836275139E+03 -0.20564790481E+03 -0.48127240387E+02  0.26398116040E+03  0.00000000000E+00 0.  1.
         21    1    1    2  502  501 -0.33166497623E+02  0.23113092062E+02 -0.79383973041E+00  0.40433423931E+02  0.00000000000E+00 0. -1.
<scales pt_clust_4="550.00000" pt_clust_5="550.00000" pt_clust_6="40.42563"></scales>
<mgrwt>
<rscale>  0 0.30000000E+03</rscale>
<asrwt>  1 0.40425630E+02</asrwt>
<pdfrwt beam="1">  1        1 0.91747947E+00 0.30000000E+03</pdfrwt>
<pdfrwt beam="2">0</pdfrwt>
<totfact> 0.46272056E-05</totfact>
</mgrwt>
<clustering>
<clus scale="   40.426">  1  6  2 -1</clus>
<clus scale="  484.698">  4  5 -1 -1</clus>
<clus scale="  300.000">  1  4  2 -1</clus>
</clustering>
</event>
<event>
 6    1  0.9480355E-012  0.3000000E+03  0.7818608E-02  0.1093470E+00
          1   -1    0    0  502    0  0.00000000000E+00  0.00000000000E+00  0.24116053759E+03  0.24116053759E+03  0.00000000000E+00 0.  1.
         13   -1    0    0    0    0 -0.00000000000E+00 -0.00000000000E+00 -0.27500000000E+03  0.27500000000E+03  0.00000000000E+00 0.  1.
    9000005    2    1    2  501    0 -0.17907753392E+02  0.29711954708E+02 -0.33996493836E+02  0.48146885929E+03  0.47901253949E+03 0.  0.
         13    1    3    3    0    0  0.47627460203E+02 -0.16278190602E+02  0.21453486809E+03  0.22036007824E+03  0.00000000000E+00 0.  1.
          1    1    3    3  501    0 -0.65535213595E+02  0.45990145310E+02 -0.24853136192E+03  0.26110878106E+03  0.00000000000E+00 0.  1.
         21    1    1    2  502  501  0.17907753392E+02 -0.29711954708E+02  0.15703142578E+00  0.34691678296E+02  0.00000000000E+00 0. -1.
<scales pt_clust_4="550.00000" pt_clust_5="550.00000" pt_clust_6="34.69132"></scales>
<mgrwt>
<rscale>  0 0.30000000E+03</rscale>
<asrwt>  1 0.34691323E+02</asrwt>
<pdfrwt beam="1">  1        1 0.87694741E+00 0.30000000E+03</pdfrwt>
<pdfrwt beam="2">0</pdfrwt>
<totfact> 0.21463481E-04</totfact>
</mgrwt>
<clustering>
<clus scale="   34.691">  1  6  2 -1</clus>
<clus scale="  479.013">  4  5 -1 -1</clus>
<clus scale="  300.000">  1  4  2 -1</clus>
</clustering>
</event>
<event>
 6    1  0.9480355E-012  0.3000000E+03  0.7818608E-02  0.1093470E+00
          1   -1    0    0  502    0  0.00000000000E+00  0.00000000000E+00  0.22043481237E+03  0.22043481237E+03  0.00000000000E+00 0.  1.
         13   -1    0    0    0    0 -0.00000000000E+00 -0.00000000000E+00 -0.27500000000E+03  0.27500000000E+03  0.00000000000E+00 0.  1.
    9000005    2    1    2  501    0  0.66804122265E+01  0.32609228672E+02 -0.56498420074E+02  0.46209224064E+03  0.45741576021E+03 0.  0.
         13    1    3    3    0    0 -0.47117104935E+02  0.23964178992E+03 -0.19488884355E+02  0.24500617475E+03  0.00000000000E+00 0.  1.
          1    1    3    3  501    0  0.53797517161E+02 -0.20703256125E+03 -0.37009535719E+02  0.21708606589E+03  0.00000000000E+00 0.  1.
         21    1    1    2  502  501 -0.66804122265E+01 -0.32609228672E+02  0.19332324472E+01  0.33342571734E+02  0.00000000000E+00 0. -1.
<scales pt_clust_4="550.00000" pt_clust_5="550.00000" pt_clust_6="33.28648"></scales>
<mgrwt>
<rscale>  0 0.30000000E+03</rscale>
<asrwt>  1 0.33286479E+02</asrwt>
<pdfrwt beam="1">  1        1 0.80158114E+00 0.30000000E+03</pdfrwt>
<pdfrwt beam="2">0</pdfrwt>
<totfact> 0.10196031E-03</totfact>
</mgrwt>
<clustering>
<clus scale="   33.286">  1  6  2 -1</clus>
<clus scale="  457.416">  4  5 -1 -1</clus>
<clus scale="  300.000">  1  4  2 -1</clus>
</clustering>
</event>
<event>
 6    1  0.9480355E-012  0.3000000E+03  0.7818608E-02  0.1093470E+00
          1   -1    0    0  502    0  0.00000000000E+00  0.00000000000E+00  0.22967594170E+03  0.22967594170E+03  0.00000000000E+00 0.  1.
         13   -1    0    0    0    0 -0.00000000000E+00 -0.00000000000E+00 -0.27500000000E+03  0.27500000000E+03  0.00000000000E+00 0.  1.
    9000005    2    1    2  501    0 -0.13603502686E+01 -0.41250180152E+02 -0.56459689561E+02  0.46192748911E+03  0.45660254131E+03 0.  0.
         13    1    3    3    0    0  0.67853886544E+02 -0.13754207115E+03 -0.21490506479E+03  0.26401923818E+03  0.00000000000E+00 0.  1.
          3    1    3    3  501    0 -0.69214236813E+02  0.96291891001E+02  0.15844537523E+03  0.19790825092E+03  0.00000000000E+00 0.  1.
         21    1    1    2  502  501  0.13603502686E+01  0.41250180152E+02  0.11135631257E+02  0.42748452591E+02  0.00000000000E+00 0.  1.
<scales pt_clust_4="550.00000" pt_clust_5="550.00000" pt_clust_6="41.27260"></scales>
<mgrwt>
<rscale>  0 0.30000000E+03</rscale>
<asrwt>  1 0.41272605E+02</asrwt>
<pdfrwt beam="1">  1        1 0.83518524E+00 0.30000000E+03</pdfrwt>
<pdfrwt beam="2">0</pdfrwt>
<totfact> 0.52317815E-04</totfact>
</mgrwt>
<clustering>
<clus scale="   41.273">  1  6  2 -1</clus>
<clus scale="  456.603">  4  5 -1 -1</clus>
<clus scale="  300.000">  1  4  2 -1</clus>
</clustering>
</event>
<event>
 6    1  0.9480355E-012  0.3000000E+03  0.7818608E-02  0.1093470E+00
          1   -1    0    0  502    0  0.00000000000E+00  0.00000000000E+00  0.23339075847E+03  0.23339075847E+03  0.00000000000E+00 0.  1.
         13   -1    0    0    0    0 -0.00000000000E+00 -0.00000000000E+00 -0.27500000000E+03  0.27500000000E+03  0.00000000000E+00 0.  1.
    9000005    2    1    2  501    0  0.40688427473E+02  0.14941011914E+02 -0.55807545252E+02  0.46277964364E+03  0.45735296489E+03 0.  0.
         13    1    3    3    0    0 -0.49905149742E+02  0.15916294516E+03 -0.18493613901E+03  0.24904767133E+03  0.00000000000E+00 0.  1.
          3    1    3    3  501    0  0.90593577215E+02 -0.14422193324E+03  0.12912859376E+03  0.21373197231E+03  0.00000000000E+00 0.  1.
         21    1    1    2  502  501 -0.40688427473E+02 -0.14941011914E+02  0.14198303719E+02  0.45611114827E+02  0.00000000000E+00 0. -1.
<scales pt_clust_4="550.00000" pt_clust_5="550.00000" pt_clust_6="43.34492"></scales>
<mgrwt>
<rscale>  0 0.30000000E+03</rscale>
<asrwt>  1 0.43344919E+02</asrwt>
<pdfrwt beam="1">  1        1 0.84869367E+00 0.30000000E+03</pdfrwt>
<pdfrwt beam="2">0</pdfrwt>
<totfact> 0.40244939E-04</totfact>
</mgrwt>
<clustering>
<clus scale="   43.345">  1  6  2 -1</clus>
<clus scale="  457.353">  4  5 -1 -1</clus>
<clus scale="  300.000">  1  4  2 -1</clus>
</clustering>
</event>
<event>
 6    1  0.9480355E-012  0.3000000E+03  0.7818608E-02  0.1093470E+00
          1   -1    0    0  502    0  0.00000000000E+00  0.00000000000E+00  0.23746634837E+03  0.23746634837E+03  0.00000000000E+00 0.  1.
         13   -1    0    0    0    0 -0.00000000000E+00 -0.00000000000E+00 -0.27500000000E+03  0.27500000000E+03  0.00000000000E+00 0.  1.
    9000005    2    1    2  501    0  0.29931908299E+02 -0.31686206324E+02 -0.55261704845E+02  0.46541086329E+03  0.46005812767E+03 0.  0.
         13    1    3    3    0    0 -0.37919319250E+02 -0.22619703427E+03  0.48992003093E+02  0.23452758783E+03  0.00000000000E+00 0.  1.
          1    1    3    3  501    0  0.67851227549E+02  0.19451082795E+03 -0.10425370794E+03  0.23088327546E+03  0.00000000000E+00 0.  1.
         21    1    1    2  502  501 -0.29931908299E+02  0.31686206324E+02  0.17728053216E+02  0.47055485084E+02  0.00000000000E+00 0.  1.
<scales pt_clust_4="550.00000" pt_clust_5="550.00000" pt_clust_6="43.58824"></scales>
<mgrwt>
<rscale>  0 0.30000000E+03</rscale>
<asrwt>  1 0.43588242E+02</asrwt>
<pdfrwt beam="1">  1        1 0.86351399E+00 0.30000000E+03</pdfrwt>
<pdfrwt beam="2">0</pdfrwt>
<totfact> 0.28476660E-04</totfact>
</mgrwt>
<clustering>
<clus scale="   43.588">  1  6  2 -1</clus>
<clus scale="  460.058">  4  5 -1 -1</clus>
<clus scale="  300.000">  1  4  2 -1</clus>
</clustering>
</event>
<event>
 6    1  0.9480355E-012  0.3000000E+03  0.7818608E-02  0.1093470E+00
          1   -1    0    0  502    0  0.00000000000E+00  0.00000000000E+00  0.23322732364E+03  0.23322732364E+03  0.00000000000E+00 0.  1.
         13   -1    0    0    0    0 -0.00000000000E+00 -0.00000000000E+00 -0.27500000000E+03  0.27500000000E+03  0.00000000000E+00 0.  1.
    9000005    2    1    2  501    0  0.31150221854E+02 -0.14922897111E+02 -0.69781400064E+02  0.46375803330E+03  0.45717506546E+03 0.  0.
         13    1    3    3    0    0  0.78756914015E+02 -0.17742842776E+03 -0.17752099555E+03  0.26305361116E+03  0.00000000000E+00 0.  1.
          3    1    3    3  501    0 -0.47606692161E+02  0.16250553065E+03  0.10773959549E+03  0.20070442214E+03  0.00000000000E+00 0.  1.
         21    1    1    2  502  501 -0.31150221854E+02  0.14922897111E+02  0.28008723701E+02  0.44469290337E+02  0.00000000000E+00 0.  1.
<scales pt_clust_4="550.00000" pt_clust_5="550.00000" pt_clust_6="34.54025"></scales>
<mgrwt>
<rscale>  0 0.30000000E+03</rscale>
<asrwt>  1 0.34540254E+02</asrwt>
<pdfrwt beam="1">  1        1 0.84809936E+00 0.30000000E+03</pdfrwt>
<pdfrwt beam="2">0</pdfrwt>
<totfact> 0.42489898E-04</totfact>
</mgrwt>
<clustering>
<clus scale="   34.540">  1  6  2 -1</clus>
<clus scale="  457.175">  4  5 -1 -1</clus>
<clus scale="  300.000">  1  4  2 -1</clus>
</clustering>
</event>
<event>
 6    1  0.9480355E-012  0.3000000E+03  0.7818608E-02  0.1093470E+00
          1   -1    0    0  502    0  0.00000000000E+00  0.00000000000E+00  0.24220758604E+03  0.24220758604E+03  0.00000000000E+00 0.  1.
         13   -1    0    0    0    0 -0.00000000000E+00 -0.00000000000E+00 -0.27500000000E+03  0.27500000000E+03  0.00000000000E+00 0.  1.
    9000005    2    1    2  501    0  0.32250018750E+02  0.29620387875E+02 -0.38667887470E+02  0.47302668206E+03  0.46940558724E+03 0.  0.
         13    1    3    3    0    0  0.52455667293E+02 -0.20376064985E+03 -0.96896697644E+02  0.23164405771E+03  0.00000000000E+00 0.  1.
          1    1    3    3  501    0 -0.20205648543E+02  0.23338103773E+03  0.58228810174E+02  0.24138262435E+03  0.00000000000E+00 0.  1.
         21    1    1    2  502  501 -0.32250018750E+02 -0.29620387875E+02  0.58754735081E+01  0.44180903976E+02  0.00000000000E+00 0.  1.
<scales pt_clust_4="550.00000" pt_clust_5="550.00000" pt_clust_6="43.78848"></scales>
<mgrwt>
<rscale>  0 0.30000000E+03</rscale>
<asrwt>  1 0.43788481E+02</asrwt>
<pdfrwt beam="1">  1        1 0.88075486E+00 0.30000000E+03</pdfrwt>
<pdfrwt beam="2">0</pdfrwt>
<totfact> 0.18537868E-04</totfact>
</mgrwt>
<clustering>
<clus scale="   43.788">  1  6  2 -1</clus>
<clus scale="  469.406">  4  5 -1 -1</clus>
<clus scale="  300.000">  1  4  2 -1</clus>
</clustering>
</event>
<event>
 6    1  0.9480355E-012  0.3000000E+03  0.7818608E-02  0.1093470E+00
          1   -1    0    0  502    0  0.00000000000E+00  0.00000000000E+00  0.24057918133E+03  0.24057918133E+03  0.00000000000E+00 0.  1.
         13   -1    0    0    0    0 -0.00000000000E+00 -0.00000000000E+00 -0.27500000000E+03  0.27500000000E+03  0.00000000000E+00 0.  1.
    9000005    2    1    2  501    0  0.19861361604E+02 -0.28329369114E+02 -0.65615219764E+02  0.46899466138E+03  0.46309136086E+03 0.  0.
         13    1    3    3    0    0  0.19138418490E+03  0.11768126925E+03 -0.90825678572E+02  0.24233466787E+03  0.00000000000E+00 0.  1.
          1    1    3    3  501    0 -0.17152282329E+03 -0.14601063837E+03  0.25210458808E+02  0.22665999352E+03  0.00000000000E+00 0.  1.
         21    1    1    2  502  501 -0.19861361604E+02  0.28329369114E+02  0.31194401096E+02  0.46584519949E+02  0.00000000000E+00 0. -1.
<scales pt_clust_4="550.00000" pt_clust_5="550.00000" pt_clust_6="34.59808"></scales>
<mgrwt>
<rscale>  0 0.30000000E+03</rscale>
<asrwt>  1 0.34598076E+02</asrwt>
<pdfrwt beam="1">  1        1 0.87483339E+00 0.30000000E+03</pdfrwt>
<pdfrwt beam="2">0</pdfrwt>
<totfact> 0.22632970E-04</totfact>
</mgrwt>
<clustering>
<clus scale="   34.598">  1  6  2 -1</clus>
<clus scale="  463.091">  4  5 -1 -1</clus>
<clus scale="  300.000">  1  4  2 -1</clus>
</clustering>
</event>
<event>
 6    1  0.9480355E-012  0.3000000E+03  0.7818608E-02  0.1093470E+00
          1   -1    0    0  502    0  0.00000000000E+00  0.00000000000E+00  0.24590328067E+03  0.24590328067E+03  0.00000000000E+00 0.  1.
         13   -1    0    0    0    0 -0.00000000000E+00 -0.00000000000E+00 -0.27500000000E+03  0.27500000000E+03  0.00000000000E+00 0.  1.
    9000005    2    1    2  501    0  0.34166597016E+02  0.15507140198E+02 -0.45500762677E+02  0.47995306227E+03  0.47631585616E+03 0.  0.
         13    1    3    3    0    0  0.86692391106E+02 -0.52651388301E+02 -0.24365401968E+03  0.26392237623E+03  0.00000000000E+00 0.  1.
          3    1    3    3  501    0 -0.52525794090E+02  0.68158528499E+02  0.19815325700E+03  0.21603068605E+03  0.00000000000E+00 0.  1.
         21    1    1    2  502  501 -0.34166597016E+02 -0.15507140198E+02  0.16404043348E+02  0.40950218399E+02  0.00000000000E+00 0. -1.
<scales pt_clust_4="550.00000" pt_clust_5="550.00000" pt_clust_6="37.52103"></scales>
<mgrwt>
<rscale>  0 0.30000000E+03</rscale>
<asrwt>  1 0.37521031E+02</asrwt>
<pdfrwt beam="1">  1        1 0.89419375E+00 0.30000000E+03</pdfrwt>
<pdfrwt beam="2">0</pdfrwt>
<totfact> 0.12711012E-04</totfact>
</mgrwt>
<clustering>
<clus scale="   37.521">  1  6  2 -1</clus>
<clus scale="  476.316">  4  5 -1 -1</clus>
<clus scale="  300.000">  1  4  2 -1</clus>
</clustering>
</event>
<event>
 6    1  0.9480355E-012  0.3000000E+03  0.7818608E-02  0.1093470E+00
          1   -1    0    0  502    0  0.00000000000E+00  0.00000000000E+00  0.23741832918E+03  0.23741832918E+03  0.00000000000E+00 0.  1.
         13   -1    0    0    0    0 -0.00000000000E+00 -0.00000000000E+00 -0.27500000000E+03  0.27500000000E+03  0.00000000000E+00 0.  1.
    9000005    2    1    2  501    0 -0.21790337720E+01  0.34416611997E+02 -0.41878518726E+02  0.47766614549E+03  0.47457547856E+03 0.  0.
         13    1    3    3    0    0 -0.21847501703E+03 -0.54555826308E+02  0.42254028476E+02  0.22911367085E+03  0.00000000000E+00 0.  1.
          1    1    3    3  501    0  0.21629598325E+03  0.88972438305E+02 -0.84132547201E+02  0.24855247464E+03  0.00000000000E+00 0.  1.
         21    1    1    2  502  501  0.21790337720E+01 -0.34416611997E+02  0.42968479092E+01  0.34752183694E+02  0.00000000000E+00 0. -1.
<scales pt_clust_4="550.00000" pt_clust_5="550.00000" pt_clust_6="34.48552"></scales>
<mgrwt>
<rscale>  0 0.30000000E+03</rscale>
<asrwt>  1 0.34485524E+02</asrwt>
<pdfrwt beam="1">  1        1 0.86333938E+00 0.30000000E+03</pdfrwt>
<pdfrwt beam="2">0</pdfrwt>
<totfact> 0.29857407E-04</totfact>
</mgrwt>
<clustering>
<clus scale="   34.486">  1  6  2 -1</clus>
<clus scale="  474.575">  4  5 -1 -1</clus>
<clus scale="  300.000">  1  4  2 -1</clus>
</clustering>
</event>
<event>
 6    1  0.9480355E-012  0.3000000E+03  0.7818608E-02  0.1093470E+00
          1   -1    0    0  502    0  0.00000000000E+00  0.00000000000E+00  0.24516354718E+03  0.24516354718E+03  0.00000000000E+00 0.  1.
         13   -1    0    0    0    0 -0.00000000000E+00 -0.00000000000E+00 -0.27500000000E+03  0.27500000000E+03  0.00000000000E+00 0.  1.
    9000005    2    1    2  501    0  0.14494744547E+02 -0.38290711587E+02 -0.36956236352E+02  0.47860674833E+03  0.47541811064E+03 0.  0.
         13    1    3    3    0    0  0.60782928085E+02 -0.13141470655E+03 -0.22275952062E+03  0.26568062307E+03  0.00000000000E+00 0.  1.
          1    1    3    3  501    0 -0.46288183538E+02  0.93123994964E+02  0.18580328427E+03  0.21292612526E+03  0.00000000000E+00 0.  1.
         21    1    1    2  502  501 -0.14494744547E+02  0.38290711587E+02  0.71197835330E+01  0.41556798853E+02  0.00000000000E+00 0. -1.
<scales pt_clust_4="550.00000" pt_clust_5="550.00000" pt_clust_6="40.94235"></scales>
<mgrwt>
<rscale>  0 0.30000000E+03</rscale>
<asrwt>  1 0.40942352E+02</asrwt>
<pdfrwt beam="1">  1        1 0.89150381E+00 0.30000000E+03</pdfrwt>
<pdfrwt beam="2">0</pdfrwt>
<totfact> 0.13465046E-04</totfact>
</mgrwt>
<clustering>
<clus scale="   40.942">  1  6  2 -1</clus>
<clus scale="  475.418">  4  5 -1 -1</clus>
<clus scale="  300.000">  1  4  2 -1</clus>
</clustering>
</event>
<event>
 6    1  0.9480355E-012  0.3000000E+03  0.7818608E-02  0.1093470E+00
          1   -1    0    0  502    0  0.00000000000E+00  0.00000000000E+00  0.22432823197E+03  0.22432823197E+03  0.00000000000E+00 0.  1.
         13   -1    0    0    0    0 -0.00000000000E+00 -0.00000000000E+00 -0.27500000000E+03  0.27500000000E+03  0.00000000000E+00 0.  1.
    9000005    2    1    2  501    0  0.20910208540E+02 -0.24391670041E+02 -0.64435042575E+02  0.46437657801E+03  0.45876087573E+03 0.  0.
         13    1    3    3    0    0 -0.49634109016E+02 -0.72469242729E+02 -0.24737030703E+03  0.26250219945E+03  0.00000000000E+00 0.  1.
          1    1    3    3  501    0  0.70544317556E+02  0.48077572688E+02  0.18293526445E+03  0.20187437855E+03  0.00000000000E+00 0.  1.
         21    1    1    2  502  501 -0.20910208540E+02  0.24391670041E+02  0.13763274544E+02  0.34951653963E+02  0.00000000000E+00 0.  1.
<scales pt_clust_4="550.00000" pt_clust_5="550.00000" pt_clust_6="32.12772"></scales>
<mgrwt>
<rscale>  0 0.30000000E+03</rscale>
<asrwt>  1 0.32127720E+02</asrwt>
<pdfrwt beam="1">  1        1 0.81573903E+00 0.30000000E+03</pdfrwt>
<pdfrwt beam="2">0</pdfrwt>
<totfact> 0.79791030E-04</totfact>
</mgrwt>
<clustering>
<clus scale="   32.128">  1  6  2 -1</clus>
<clus scale="  458.761">  4  5 -1 -1</clus>
<clus scale="  300.000">  1  4  2 -1</clus>
</clustering>
</event>
<event>
 6    1  0.9480355E-012  0.3000000E+03  0.7818608E-02  0.1093470E+00
          1   -1    0    0  502    0  0.00000000000E+00  0.00000000000E+00  0.22201142420E+03  0.22201142420E+03  0.00000000000E+00 0.  1.
         13   -1    0    0    0    0 -0.00000000000E+00 -0.00000000000E+00 -0.27500000000E+03  0.27500000000E+03  0.00000000000E+00 0.  1.
    9000005    2    1    2  501    0  0.19208870387E+02 -0.23324541563E+02 -0.60657533510E+02  0.46583727059E+03  0.46088177590E+03 0.  0.
         13    1    3    3    0    0 -0.92763763608E+02  0.34454308733E+01  0.17806204149E+03  0.20080606926E+03  0.00000000000E+00 0.  1.
          1    1    3    3  501    0  0.11197263400E+03 -0.26769972437E+02 -0.23871957500E+03  0.26503120133E+03  0.00000000000E+00 0.  1.
         21    1    1    2  502  501 -0.19208870387E+02  0.23324541563E+02  0.76689577080E+01  0.31174153605E+02  0.00000000000E+00 0. -1.
<scales pt_clust_4="550.00000" pt_clust_5="550.00000" pt_clust_6="30.21614"></scales>
<mgrwt>
<rscale>  0 0.30000000E+03</rscale>
<asrwt>  1 0.30216137E+02</asrwt>
<pdfrwt beam="1">  1        1 0.80731427E+00 0.30000000E+03</pdfrwt>
<pdfrwt beam="2">0</pdfrwt>
<totfact> 0.94076783E-04</totfact>
</mgrwt>
<clustering>
<clus scale="   30.216">  1  6  2 -1</clus>
<clus scale="  460.882">  4  5 -1 -1</clus>
<clus scale="  300.000">  1  4  2 -1</clus>
</clustering>
</event>
<event>
 6    1  0.9480355E-012  0.3000000E+03  0.7818608E-02  0.1093470E+00
          1   -1    0    0  502    0  0.00000000000E+00  0.00000000000E+00  0.23188000280E+03  0.23188000280E+03  0.00000000000E+00 0.  1.
         13   -1    0    0    0    0 -0.00000000000E+00 -0.00000000000E+00 -0.27500000000E+03  0.27500000000E+03  0.00000000000E+00 0.  1.
    9000005    2    1    2  501    0 -0.55291933384E+01  0.30766031271E+02 -0.66584966716E+02  0.46779387414E+03  0.46197449089E+03 0.  0.
         13    1    3    3    0    0  0.64073614544E+02 -0.17401914540E+03  0.84677350963E+02  0.20385863929E+03  0.00000000000E+00 0.  1.
          1    1    3    3  501    0 -0.69602807883E+02  0.20478517667E+03 -0.15126231768E+03  0.26393523485E+03  0.00000000000E+00 0.  1.
         21    1    1    2  502  501  0.55291933384E+01 -0.30766031271E+02  0.23464969516E+02  0.39086128659E+02  0.00000000000E+00 0.  1.
<scales pt_clust_4="550.00000" pt_clust_5="550.00000" pt_clust_6="31.25893"></scales>
<mgrwt>
<rscale>  0 0.30000000E+03</rscale>
<asrwt>  1 0.31258929E+02</asrwt>
<pdfrwt beam="1">  1        1 0.84320001E+00 0.30000000E+03</pdfrwt>
<pdfrwt beam="2">0</pdfrwt>
<totfact> 0.47833268E-04</totfact>
</mgrwt>
<clustering>
<clus scale="   31.259">  1  6  2 -1</clus>
<clus scale="  461.974">  4  5 -1 -1</clus>
<clus scale="  300.000">  1  4  2 -1</clus>
</clustering>
</event>
<event>
 6    1  0.9480355E-012  0.3000000E+03  0.7818608E-02  0.1093470E+00
          1   -1    0    0  502    0  0.00000000000E+00  0.00000000000E+00  0.24044639755E+03  0.24044639755E+03  0.00000000000E+00 0.  1.
         13   -1    0    0    0    0 -0.00000000000E+00 -0.00000000000E+00 -0.27500000000E+03  0.27500000000E+03  0.00000000000E+00 0.  1.
    9000005    2    1    2  501    0  0.83679698867E+01 -0.34192779289E+02 -0.69622815744E+02  0.46575717541E+03  0.45917669900E+03 0.  0.
         13    1    3    3    0    0  0.94072625127E+02  0.14434557665E+03 -0.17145380208E+03  0.24306729633E+03  0.00000000000E+00 0.  1.
          1    1    3    3  501    0 -0.85704655240E+02 -0.17853835594E+03  0.10183098633E+03  0.22268987909E+03  0.00000000000E+00 0.  1.
         21    1    1    2  502  501 -0.83679698867E+01  0.34192779289E+02  0.35069213297E+02  0.49689222139E+02  0.00000000000E+00 0.  1.
<scales pt_clust_4="550.00000" pt_clust_5="550.00000" pt_clust_6="35.20183"></scales>
<mgrwt>
<rscale>  0 0.30000000E+03</rscale>
<asrwt>  1 0.35201833E+02</asrwt>
<pdfrwt beam="1">  1        1 0.87435054E+00 0.30000000E+03</pdfrwt>
<pdfrwt beam="2">0</pdfrwt>
<totfact> 0.22824809E-04</totfact>
</mgrwt>
<clustering>
<clus scale="   35.202">  1  6  2 -1</clus>
<clus scale="  459.177">  4  5 -1 -1</clus>
<clus scale="  300.000">  1  4  2 -1</clus>
</clustering>
</event>
<event>
 6    1  0.9480355E-012  0.3000000E+03  0.7818608E-02  0.1093470E+00
          1   -1    0    0  502    0  0.00000000000E+00  0.00000000000E+00  0.22480328317E+03  0.22480328317E+03  0.00000000000E+00 0.  1.
         13   -1    0    0    0    0 -0.00000000000E+00 -0.00000000000E+00 -0.27500000000E+03  0.27500000000E+03  0.00000000000E+00 0.  1.
    9000005    2    1    2  501    0  0.25756072723E+02 -0.15873742081E+02 -0.54727079994E+02  0.46921120642E+03  0.46502553906E+03 0.  0.
         13    1    3    3    0    0  0.11051879465E+03 -0.13664663131E+03  0.14014397357E+03  0.22478220380E+03  0.00000000000E+00 0.  1.
          1    1    3    3  501    0 -0.84762721929E+02  0.12077288922E+03 -0.19487105357E+03  0.24442900261E+03  0.00000000000E+00 0.  1.
         21    1    1    2  502  501 -0.25756072723E+02  0.15873742081E+02  0.45303631670E+01  0.30592076755E+02  0.00000000000E+00 0. -1.
<scales pt_clust_4="550.00000" pt_clust_5="550.00000" pt_clust_6="30.25477"></scales>
<mgrwt>
<rscale>  0 0.30000000E+03</rscale>
<asrwt>  1 0.30254768E+02</asrwt>
<pdfrwt beam="1">  1        1 0.81746648E+00 0.30000000E+03</pdfrwt>
<pdfrwt beam="2">0</pdfrwt>
<totfact> 0.78122276E-04</totfact>
</mgrwt>
<clustering>
<clus scale="   30.255">  1  6  2 -1</clus>
<clus scale="  465.026">  4  5 -1 -1</clus>
<clus scale="  300.000">  1  4  2 -1</clus>
</clustering>
</event>
<event>
 6    1  0.9480355E-012  0.3000000E+03  0.7818608E-02  0.1093470E+00
          1   -1    0    0  502    0  0.00000000000E+00  0.00000000000E+00  0.22860744642E+03  0.22860744642E+03  0.00000000000E+00 0.  1.
         13   -1    0    0    0    0 -0.00000000000E+00 -0.00000000000E+00 -0.27500000000E+03  0.27500000000E+03  0.00000000000E+00 0.  1.
    9000005    2    1    2  501    0  0.20455801363E+02  0.23563345816E+02 -0.57864399037E+02  0.47036178033E+03  0.46574482782E+03 0.  0.
         13    1    3    3    0    0 -0.30239384699E+02  0.49454900912E+02 -0.25689341618E+03  0.26335230185E+03  0.00000000000E+00 0.  1.
          3    1    3    3  501    0  0.50695186062E+02 -0.25891555096E+02  0.19902901715E+03  0.20700947848E+03  0.00000000000E+00 0.  1.
         21    1    1    2  502  501 -0.20455801363E+02 -0.23563345816E+02  0.11471845456E+02  0.33245666088E+02  0.00000000000E+00 0.  1.
<scales pt_clust_4="550.00000" pt_clust_5="550.00000" pt_clust_6="31.20370"></scales>
<mgrwt>
<rscale>  0 0.30000000E+03</rscale>
<asrwt>  1 0.31203703E+02</asrwt>
<pdfrwt beam="1">  1        1 0.83129981E+00 0.30000000E+03</pdfrwt>
<pdfrwt beam="2">0</pdfrwt>
<totfact> 0.58956742E-04</totfact>
</mgrwt>
<clustering>
<clus scale="   31.204">  1  6  2 -1</clus>
<clus scale="  465.745">  4  5 -1 -1</clus>
<clus scale="  300.000">  1  4  2 -1</clus>
</clustering>
</event>
<event>
 6    1  0.9480355E-012  0.3000000E+03  0.7818608E-02  0.1093470E+00
          1   -1    0    0  502    0  0.00000000000E+00  0.00000000000E+00  0.22954221307E+03  0.22954221307E+03  0.00000000000E+00 0.  1.
         13   -1    0    0    0    0 -0.00000000000E+00 -0.00000000000E+00 -0.27500000000E+03  0.27500000000E+03  0.00000000000E+00 0.  1.
    9000005    2    1    2  501    0 -0.35258078806E+02 -0.24843559978E+02 -0.44458603672E+02  0.46139904489E+03  0.45722223983E+03 0.  0.
         13    1    3    3    0    0 -0.10885130755E+03 -0.19966993631E+03 -0.12011242156E+03  0.25718414499E+03  0.00000000000E+00 0.  1.
          1    1    3    3  501    0  0.73593228745E+02  0.17482637633E+03  0.75653817891E+02  0.20421489990E+03  0.00000000000E+00 0.  1.
         21    1    1    2  502  501  0.35258078806E+02  0.24843559978E+02 -0.99918325431E+00  0.43143168181E+02  0.00000000000E+00 0.  1.
<scales pt_clust_4="550.00000" pt_clust_5="550.00000" pt_clust_6="43.13160"></scales>
<mgrwt>
<rscale>  0 0.30000000E+03</rscale>
<asrwt>  1 0.43131596E+02</asrwt>
<pdfrwt beam="1">  1        1 0.83469896E+00 0.30000000E+03</pdfrwt>
<pdfrwt beam="2">0</pdfrwt>
<totfact> 0.52329221E-04</totfact>
</mgrwt>
<clustering>
<clus scale="   43.132">  1  6  2 -1</clus>
<clus scale="  457.222">  4  5 -1 -1</clus>
<clus scale="  300.000">  1  4  2 -1</clus>
</clustering>
</event>
<event>
 6    1  0.9480355E-012  0.3000000E+03  0.7818608E-02  0.1093470E+00
          1   -1    0    0  502    0  0.00000000000E+00  0.00000000000E+00  0.23409834039E+03  0.23409834039E+03  0.00000000000E+00 0.  1.
         13   -1    0    0    0    0 -0.00000000000E+00 -0.00000000000E+00 -0.27500000000E+03  0.27500000000E+03  0.00000000000E+00 0.  1.
    9000005    2    1    2  501    0 -0.18641576568E+02  0.24977799159E+02 -0.45074650468E+02  0.47765294836E+03  0.47449891057E+03 0.  0.
         13    1    3    3    0    0  0.16577397366E+03 -0.66535796030E+02  0.11879513170E+03  0.21452343884E+03  0.00000000000E+00 0.  1.
          3    1    3    3  501    0 -0.18441555023E+03  0.91513595189E+02 -0.16386978217E+03  0.26312950952E+03  0.00000000000E+00 0.  1.
         21    1    1    2  502  501  0.18641576568E+02 -0.24977799159E+02  0.41729908630E+01  0.31445392040E+02  0.00000000000E+00 0. -1.
<scales pt_clust_4="550.00000" pt_clust_5="550.00000" pt_clust_6="31.16727"></scales>
<mgrwt>
<rscale>  0 0.30000000E+03</rscale>
<asrwt>  1 0.31167272E+02</asrwt>
<pdfrwt beam="1">  1        1 0.85126669E+00 0.30000000E+03</pdfrwt>
<pdfrwt beam="2">0</pdfrwt>
<totfact> 0.40470294E-04</totfact>
</mgrwt>
<clustering>
<clus scale="   31.167">  1  6  2 -1</clus>
<clus scale="  474.499">  4  5 -1 -1</clus>
<clus scale="  300.000">  1  4  2 -1</clus>
</clustering>
</event>
<event>
 6    1  0.9480355E-012  0.3000000E+03  0.7818608E-02  0.1093470E+00
          1   -1    0    0  502    0  0.00000000000E+00  0.00000000000E+00  0.23274394080E+03  0.23274394080E+03  0.00000000000E+00 0.  1.
         13   -1    0    0    0    0 -0.00000000000E+00 -0.00000000000E+00 -0.27500000000E+03  0.27500000000E+03  0.00000000000E+00 0.  1.
    9000005    2    1    2  501    0  0.38863519518E+02  0.14456355915E+02 -0.47252434916E+02  0.46597884598E+03  0.46171867291E+03 0.  0.
         13    1    3    3    0    0 -0.82674799382E+02  0.11409371306E+03  0.15524452728E+03  0.20965056896E+03  0.00000000000E+00 0.  1.
          3    1    3    3  501    0  0.12153831890E+03 -0.99637357146E+02 -0.20249696220E+03  0.25632827702E+03  0.00000000000E+00 0.  1.
         21    1    1    2  502  501 -0.38863519518E+02 -0.14456355915E+02  0.49963757196E+01  0.41765094828E+02  0.00000000000E+00 0.  1.
<scales pt_clust_4="550.00000" pt_clust_5="550.00000" pt_clust_6="41.46516"></scales>
<mgrwt>
<rscale>  0 0.30000000E+03</rscale>
<asrwt>  1 0.41465159E+02</asrwt>
<pdfrwt beam="1">  1        1 0.84634160E+00 0.30000000E+03</pdfrwt>
<pdfrwt beam="2">0</pdfrwt>
<totfact> 0.42614828E-04</totfact>
</mgrwt>
<clustering>
<clus scale="   41.465">  1  6  2 -1</clus>
<clus scale="  461.719">  4  5 -1 -1</clus>
<clus scale="  300.000">  1  4  2 -1</clus>
</clustering>
</event>
<event>
 6    1  0.9480355E-012  0.3000000E+03  0.7818608E-02  0.1093470E+00
          1   -1    0    0  502    0  0.00000000000E+00  0.00000000000E+00  0.22425271361E+03  0.22425271361E+03  0.00000000000E+00 0.  1.
         13   -1    0    0    0    0 -0.00000000000E+00 -0.00000000000E+00 -0.27500000000E+03  0.27500000000E+03  0.00000000000E+00 0.  1.
    9000005    2    1    2  501    0 -0.30013341710E+02  0.10385303426E+02 -0.65306902681E+02  0.46431508870E+03  0.45860097563E+03 0.  0.
         13    1    3    3    0    0  0.43840701144E+01  0.23172611457E+03 -0.63504205274E+02  0.24031020854E+03  0.00000000000E+00 0.  1.
          1    1    3    3  501    0 -0.34397411825E+02 -0.22134081114E+03 -0.18026974067E+01  0.22400488016E+03  0.00000000000E+00 0.  1.
         21    1    1    2  502  501  0.30013341710E+02 -0.10385303426E+02  0.14559616293E+02  0.34937624912E+02  0.00000000000E+00 0. -1.
<scales pt_clust_4="550.00000" pt_clust_5="550.00000" pt_clust_6="31.75933"></scales>
<mgrwt>
<rscale>  0 0.30000000E+03</rscale>
<asrwt>  1 0.31759333E+02</asrwt>
<pdfrwt beam="1">  1        1 0.81546441E+00 0.30000000E+03</pdfrwt>
<pdfrwt beam="2">0</pdfrwt>
<totfact> 0.80378210E-04</totfact>
</mgrwt>
<clustering>
<clus scale="   31.759">  1  6  2 -1</clus>
<clus scale="  458.601">  4  5 -1 -1</clus>
<clus scale="  300.000">  1  4  2 -1</clus>
</clustering>
</event>
<event>
 6    1  0.9480355E-012  0.3000000E+03  0.7818608E-02  0.1093470E+00
          1   -1    0    0  502    0  0.00000000000E+00  0.00000000000E+00  0.25714000981E+03  0.25714000981E+03  0.00000000000E+00 0.  1.
         13   -1    0    0    0    0 -0.00000000000E+00 -0.00000000000E+00 -0.27500000000E+03  0.27500000000E+03  0.00000000000E+00 0.  1.
    9000005    2    1    2  501    0  0.31375913952E+02 -0.12998612063E+02  0.94887761584E+01  0.48853534363E+03  0.48726105243E+03 0.  0.
         13    1    3    3    0    0 -0.19073396205E+03 -0.55779152989E+02  0.12478505495E+03  0.23465308037E+03  0.00000000000E+00 0.  1.
          3    1    3    3  501    0  0.22210987600E+03  0.42780540925E+02 -0.11529627879E+03  0.25388226327E+03  0.00000000000E+00 0.  1.
         21    1    1    2  502  501 -0.31375913952E+02  0.12998612063E+02 -0.27348766345E+02  0.43604666178E+02  0.00000000000E+00 0. -1.
<scales pt_clust_4="550.00000" pt_clust_5="550.00000" pt_clust_6="33.96194"></scales>
<mgrwt>
<rscale>  0 0.30000000E+03</rscale>
<asrwt>  1 0.33961935E+02</asrwt>
<pdfrwt beam="1">  1        1 0.93505458E+00 0.30000000E+03</pdfrwt>
<pdfrwt beam="2">0</pdfrwt>
<totfact> 0.22618263E-05</totfact>
</mgrwt>
<clustering>
<clus scale="   33.962">  1  6  2 -1</clus>
<clus scale="  487.261">  4  5 -1 -1</clus>
<clus scale="  300.000">  1  4  2 -1</clus>
</clustering>
</event>
<event>
 6    1  0.9480355E-012  0.3000000E+03  0.7818608E-02  0.1093470E+00
          1   -1    0    0  502    0  0.00000000000E+00  0.00000000000E+00  0.23712365886E+03  0.23712365886E+03  0.00000000000E+00 0.  1.
         13   -1    0    0    0    0 -0.00000000000E+00 -0.00000000000E+00 -0.27500000000E+03  0.27500000000E+03  0.00000000000E+00 0.  1.
    9000005    2    1    2  501    0 -0.34891195224E+02  0.16412474934E+02 -0.62823031054E+02  0.46619869642E+03  0.46033436378E+03 0.  0.
         13    1    3    3    0    0 -0.19605415820E+03 -0.13448584632E+03 -0.42666874676E+01  0.23778536631E+03  0.00000000000E+00 0.  1.
          3    1    3    3  501    0  0.16116296298E+03  0.15089832126E+03 -0.58556343587E+02  0.22841333010E+03  0.00000000000E+00 0.  1.
         21    1    1    2  502  501  0.34891195224E+02 -0.16412474934E+02  0.24946689913E+02  0.45924962442E+02  0.00000000000E+00 0.  1.
<scales pt_clust_4="550.00000" pt_clust_5="550.00000" pt_clust_6="38.55859"></scales>
<mgrwt>
<rscale>  0 0.30000000E+03</rscale>
<asrwt>  1 0.38558590E+02</asrwt>
<pdfrwt beam="1">  1        1 0.86226785E+00 0.30000000E+03</pdfrwt>
<pdfrwt beam="2">0</pdfrwt>
<totfact> 0.30036166E-04</totfact>
</mgrwt>
<clustering>
<clus scale="   38.559">  1  6  2 -1</clus>
<clus scale="  460.334">  4  5 -1 -1</clus>
<clus scale="  300.000">  1  4  2 -1</clus>
</clustering>
</event>
<event>
 6    1  0.9480355E-012  0.3000000E+03  0.7818608E-02  0.1093470E+00
          1   -1    0    0  502    0  0.00000000000E+00  0.00000000000E+00  0.24031209613E+03  0.24031209613E+03  0.00000000000E+00 0.  1.
         13   -1    0    0    0    0 -0.00000000000E+00 -0.00000000000E+00 -0.27500000000E+03  0.27500000000E+03  0.00000000000E+00 0.  1.
    9000005    2    1    2  501    0 -0.73211463273E+01 -0.36189498055E+02 -0.26743617314E+02  0.47754450895E+03  0.47536329055E+03 0.  0.
         13    1    3    3    0    0  0.19213001122E+03 -0.15171117168E+03  0.51302672938E+01  0.24486024681E+03  0.00000000000E+00 0.  1.
          3    1    3    3  501    0 -0.19945115755E+03  0.11552167363E+03 -0.31873884608E+02  0.23268426214E+03  0.00000000000E+00 0.  1.
         21    1    1    2  502  501  0.73211463273E+01  0.36189498055E+02 -0.79442865542E+01  0.37767587187E+02  0.00000000000E+00 0.  1.
<scales pt_clust_4="550.00000" pt_clust_5="550.00000" pt_clust_6="36.92263"></scales>
<mgrwt>
<rscale>  0 0.30000000E+03</rscale>
<asrwt>  1 0.36922626E+02</asrwt>
<pdfrwt beam="1">  1        1 0.87386217E+00 0.30000000E+03</pdfrwt>
<pdfrwt beam="2">0</pdfrwt>
<totfact> 0.22889751E-04</totfact>
</mgrwt>
<clustering>
<clus scale="   36.923">  1  6  2 -1</clus>
<clus scale="  475.363">  4  5 -1 -1</clus>
<clus scale="  300.000">  1  4  2 -1</clus>
</clustering>
</event>
<event>
 6    1  0.9480355E-012  0.3000000E+03  0.7818608E-02  0.1093470E+00
          1   -1    0    0  502    0  0.00000000000E+00  0.00000000000E+00  0.22359251945E+03  0.22359251945E+03  0.00000000000E+00 0.  1.
         13   -1    0    0    0    0 -0.00000000000E+00 -0.00000000000E+00 -0.27500000000E+03  0.27500000000E+03  0.00000000000E+00 0.  1.
    9000005    2    1    2  501    0 -0.19462940857E+02 -0.23036520080E+02 -0.65394708875E+02  0.46534902565E+03  0.45974314611E+03 0.  0.
         13    1    3    3    0    0 -0.16566045041E+03  0.11814268850E+02  0.13557884915E+03  0.21439353096E+03  0.00000000000E+00 0.  1.
          3    1    3    3  501    0  0.14619750956E+03 -0.34850788929E+02 -0.20097355803E+03  0.25095549469E+03  0.00000000000E+00 0.  1.
         21    1    1    2  502  501  0.19462940857E+02  0.23036520080E+02  0.13987228329E+02  0.33243493807E+02  0.00000000000E+00 0.  1.
<scales pt_clust_4="550.00000" pt_clust_5="550.00000" pt_clust_6="30.15771"></scales>
<mgrwt>
<rscale>  0 0.30000000E+03</rscale>
<asrwt>  1 0.30157708E+02</asrwt>
<pdfrwt beam="1">  1        1 0.81306371E+00 0.30000000E+03</pdfrwt>
<pdfrwt beam="2">0</pdfrwt>
<totfact> 0.84865352E-04</totfact>
</mgrwt>
<clustering>
<clus scale="   30.158">  1  6  2 -1</clus>
<clus scale="  459.743">  4  5 -1 -1</clus>
<clus scale="  300.000">  1  4  2 -1</clus>
</clustering>
</event>
<event>
 6    1  0.9480355E-012  0.3000000E+03  0.7818608E-02  0.1093470E+00
          1   -1    0    0  502    0  0.00000000000E+00  0.00000000000E+00  0.25432901733E+03  0.25432901733E+03  0.00000000000E+00 0.  1.
         13   -1    0    0    0    0 -0.00000000000E+00 -0.00000000000E+00 -0.27500000000E+03  0.27500000000E+03  0.00000000000E+00 0.  1.
    9000005    2    1    2  501    0  0.38628793709E+02 -0.41942636282E+02 -0.19775637342E+01  0.46932224811E+03  0.46584127486E+03 0.  0.
         13    1    3    3    0    0 -0.13902671994E+03  0.12974824374E+03 -0.85530740571E+02  0.20851509105E+03  0.00000000000E+00 0.  1.
          1    1    3    3  501    0  0.17765551365E+03 -0.17169088002E+03  0.83553176836E+02  0.26080715706E+03  0.00000000000E+00 0.  1.
         21    1    1    2  502  501 -0.38628793709E+02  0.41942636282E+02 -0.18693418932E+02  0.60006769227E+02  0.00000000000E+00 0. -1.
<scales pt_clust_4="550.00000" pt_clust_5="550.00000" pt_clust_6="57.02080"></scales>
<mgrwt>
<rscale>  0 0.30000000E+03</rscale>
<asrwt>  1 0.57020801E+02</asrwt>
<pdfrwt beam="1">  1        1 0.92483279E+00 0.30000000E+03</pdfrwt>
<pdfrwt beam="2">0</pdfrwt>
<totfact> 0.30290609E-05</totfact>
</mgrwt>
<clustering>
<clus scale="   57.021">  1  6  2 -1</clus>
<clus scale="  465.841">  4  5 -1 -1</clus>
<clus scale="  300.000">  1  4  2 -1</clus>
</clustering>
</event>
<event>
 6    1  0.9480355E-012  0.3000000E+03  0.7818608E-02  0.1093470E+00
          1   -1    0    0  502    0  0.00000000000E+00  0.00000000000E+00  0.24051337189E+03  0.24051337189E+03  0.00000000000E+00 0.  1.
         13   -1    0    0    0    0 -0.00000000000E+00 -0.00000000000E+00 -0.27500000000E+03  0.27500000000E+03  0.00000000000E+00 0.  1.
    9000005    2    1    2  501    0 -0.35231842003E+02  0.14250149882E+01 -0.61949517412E+02  0.47081970738E+03  0.46539245889E+03 0.  0.
         13    1    3    3    0    0 -0.95626499115E+01 -0.62790054006E+02  0.19481403369E+03  0.20490618068E+03  0.00000000000E+00 0.  1.
          3    1    3    3  501    0 -0.25669192091E+02  0.64215068994E+02 -0.25676355110E+03  0.26591352670E+03  0.00000000000E+00 0.  1.
         21    1    1    2  502  501  0.35231842003E+02 -0.14250149882E+01  0.27462889301E+02  0.44693664511E+02  0.00000000000E+00 0.  1.
<scales pt_clust_4="550.00000" pt_clust_5="550.00000" pt_clust_6="35.26065"></scales>
<mgrwt>
<rscale>  0 0.30000000E+03</rscale>
<asrwt>  1 0.35260649E+02</asrwt>
<pdfrwt beam="1">  1        1 0.87459408E+00 0.30000000E+03</pdfrwt>
<pdfrwt beam="2">0</pdfrwt>
<totfact> 0.22683960E-04</totfact>
</mgrwt>
<clustering>
<clus scale="   35.261">  1  6  2 -1</clus>
<clus scale="  465.392">  4  5 -1 -1</clus>
<clus scale="  300.000">  1  4  2 -1</clus>
</clustering>
</event>
<event>
 6    1  0.9480355E-012  0.3000000E+03  0.7818608E-02  0.1093470E+00
          1   -1    0    0  502    0  0.00000000000E+00  0.00000000000E+00  0.24945074937E+03  0.24945074937E+03  0.00000000000E+00 0.  1.
         13   -1    0    0    0    0 -0.00000000000E+00 -0.00000000000E+00 -0.27500000000E+03  0.27500000000E+03  0.00000000000E+00 0.  1.
    9000005    2    1    2  501    0 -0.39358853803E+02 -0.61204534799E+01  0.84150512286E+01  0.47210427743E+03  0.47034567752E+03 0.  0.
         13    1    3    3    0    0 -0.17444639027E+03 -0.98891567308E+02 -0.14512991349E+03  0.24753540546E+03  0.00000000000E+00 0.  1.
          1    1    3    3  501    0  0.13508753647E+03  0.92771113828E+02  0.15354496472E+03  0.22456887198E+03  0.00000000000E+00 0.  1.
         21    1    1    2  502  501  0.39358853803E+02  0.61204534799E+01 -0.33964301858E+02  0.52346471936E+02  0.00000000000E+00 0.  1.
<scales pt_clust_4="550.00000" pt_clust_5="550.00000" pt_clust_6="39.83191"></scales>
<mgrwt>
<rscale>  0 0.30000000E+03</rscale>
<asrwt>  1 0.39831908E+02</asrwt>
<pdfrwt beam="1">  1        1 0.90709363E+00 0.30000000E+03</pdfrwt>
<pdfrwt beam="2">0</pdfrwt>
<totfact> 0.81872965E-05</totfact>
</mgrwt>
<clustering>
<clus scale="   39.832">  1  6  2 -1</clus>
<clus scale="  470.346">  4  5 -1 -1</clus>
<clus scale="  300.000">  1  4  2 -1</clus>
</clustering>
</event>
<event>
 6    1  0.9480355E-012  0.3000000E+03  0.7818608E-02  0.1093470E+00
          1   -1    0    0  502    0  0.00000000000E+00  0.00000000000E+00  0.22613351683E+03  0.22613351683E+03  0.00000000000E+00 0.  1.
         13   -1    0    0    0    0 -0.00000000000E+00 -0.00000000000E+00 -0.27500000000E+03  0.27500000000E+03  0.00000000000E+00 0.  1.
    9000005    2    1    2  501    0 -0.35769797117E+02 -0.15088557079E+02 -0.41493279876E+02  0.46161760779E+03  0.45810695324E+03 0.  0.
         13    1    3    3    0    0 -0.16384098445E+03 -0.48727146715E+02 -0.19472028848E+03  0.25910267030E+03  0.00000000000E+00 0.  1.
          1    1    3    3  501    0  0.12807118734E+03  0.33638589636E+02  0.15322700860E+03  0.20251493748E+03  0.00000000000E+00 0.  1.
         21    1    1    2  502  501  0.35769797117E+02  0.15088557079E+02 -0.73732032945E+01  0.39515909041E+02  0.00000000000E+00 0. -1.
<scales pt_clust_4="550.00000" pt_clust_5="550.00000" pt_clust_6="38.82196"></scales>
<mgrwt>
<rscale>  0 0.30000000E+03</rscale>
<asrwt>  1 0.38821958E+02</asrwt>
<pdfrwt beam="1">  1        1 0.82230370E+00 0.30000000E+03</pdfrwt>
<pdfrwt beam="2">0</pdfrwt>
<totfact> 0.67724441E-04</totfact>
</mgrwt>
<clustering>
<clus scale="   38.822">  1  6  2 -1</clus>
<clus scale="  458.107">  4  5 -1 -1</clus>
<clus scale="  300.000">  1  4  2 -1</clus>
</clustering>
</event>
<event>
 6    1  0.9480355E-012  0.3000000E+03  0.7818608E-02  0.1093470E+00
          1   -1    0    0  502    0  0.00000000000E+00  0.00000000000E+00  0.22688582866E+03  0.22688582866E+03  0.00000000000E+00 0.  1.
         13   -1    0    0    0    0 -0.00000000000E+00 -0.00000000000E+00 -0.27500000000E+03  0.27500000000E+03  0.00000000000E+00 0.  1.
    9000005    2    1    2  501    0  0.36206408789E+02 -0.16183023968E+02 -0.41221560700E+02  0.46163284886E+03  0.45807518572E+03 0.  0.
         13    1    3    3    0    0  0.94565051404E+02 -0.23232334212E+02  0.19513163765E+03  0.21807944955E+03  0.00000000000E+00 0.  1.
          3    1    3    3  501    0 -0.58358642616E+02  0.70493102438E+01 -0.23635319836E+03  0.24355339931E+03  0.00000000000E+00 0.  1.
         21    1    1    2  502  501 -0.36206408789E+02  0.16183023968E+02 -0.68926106353E+01  0.40252979809E+02  0.00000000000E+00 0. -1.
<scales pt_clust_4="550.00000" pt_clust_5="550.00000" pt_clust_6="39.65849"></scales>
<mgrwt>
<rscale>  0 0.30000000E+03</rscale>
<asrwt>  1 0.39658491E+02</asrwt>
<pdfrwt beam="1">  1        1 0.82503938E+00 0.30000000E+03</pdfrwt>
<pdfrwt beam="2">0</pdfrwt>
<totfact> 0.63773701E-04</totfact>
</mgrwt>
<clustering>
<clus scale="   39.658">  1  6  2 -1</clus>
<clus scale="  458.075">  4  5 -1 -1</clus>
<clus scale="  300.000">  1  4  2 -1</clus>
</clustering>
</event>
<event>
 6    1  0.9480355E-012  0.3000000E+03  0.7818608E-02  0.1093470E+00
          1   -1    0    0  502    0  0.00000000000E+00  0.00000000000E+00  0.22833798177E+03  0.22833798177E+03  0.00000000000E+00 0.  1.
         13   -1    0    0    0    0 -0.00000000000E+00 -0.00000000000E+00 -0.27500000000E+03  0.27500000000E+03  0.00000000000E+00 0.  1.
    9000005    2    1    2  501    0  0.30203769124E+02 -0.14907323949E+02 -0.56359988449E+02  0.46828735263E+03  0.46366162270E+03 0.  0.
         13    1    3    3    0    0 -0.20130690871E+03 -0.39758681098E+02 -0.10487956679E+03  0.23044510788E+03  0.00000000000E+00 0.  1.
          1    1    3    3  501    0  0.23151067784E+03  0.24851357149E+02  0.48519578339E+02  0.23784224475E+03  0.00000000000E+00 0.  1.
         21    1    1    2  502  501 -0.30203769124E+02  0.14907323949E+02  0.96979702200E+01  0.35050629139E+02  0.00000000000E+00 0. -1.
<scales pt_clust_4="550.00000" pt_clust_5="550.00000" pt_clust_6="33.68228"></scales>
<mgrwt>
<rscale>  0 0.30000000E+03</rscale>
<asrwt>  1 0.33682280E+02</asrwt>
<pdfrwt beam="1">  1        1 0.83031993E+00 0.30000000E+03</pdfrwt>
<pdfrwt beam="2">0</pdfrwt>
<totfact> 0.59169614E-04</totfact>
</mgrwt>
<clustering>
<clus scale="   33.682">  1  6  2 -1</clus>
<clus scale="  463.662">  4  5 -1 -1</clus>
<clus scale="  300.000">  1  4  2 -1</clus>
</clustering>
</event>
<event>
 6    1  0.9480355E-012  0.3000000E+03  0.7818608E-02  0.1093470E+00
          1   -1    0    0  502    0  0.00000000000E+00  0.00000000000E+00  0.23732166987E+03  0.23732166987E+03  0.00000000000E+00 0.  1.
         13   -1    0    0    0    0 -0.00000000000E+00 -0.00000000000E+00 -0.27500000000E+03  0.27500000000E+03  0.00000000000E+00 0.  1.
    9000005    2    1    2  501    0  0.30707654147E+00  0.41655965983E+02 -0.40222047954E+02  0.47058698048E+03  0.46701068430E+03 0.  0.
         13    1    3    3    0    0 -0.64578609234E+02 -0.92678192291E+01 -0.24303698081E+03  0.25164113989E+03  0.00000000000E+00 0.  1.
          3    1    3    3  501    0  0.64885685776E+02  0.50923785212E+02  0.20281493286E+03  0.21894584058E+03  0.00000000000E+00 0.  1.
         21    1    1    2  502  501 -0.30707654147E+00 -0.41655965983E+02  0.25437178197E+01  0.41734689389E+02  0.00000000000E+00 0.  1.
<scales pt_clust_4="550.00000" pt_clust_5="550.00000" pt_clust_6="41.65710"></scales>
<mgrwt>
<rscale>  0 0.30000000E+03</rscale>
<asrwt>  1 0.41657098E+02</asrwt>
<pdfrwt beam="1">  1        1 0.86298789E+00 0.30000000E+03</pdfrwt>
<pdfrwt beam="2">0</pdfrwt>
<totfact> 0.29089281E-04</totfact>
</mgrwt>
<clustering>
<clus scale="   41.657">  1  6  2 -1</clus>
<clus scale="  467.011">  4  5 -1 -1</clus>
<clus scale="  300.000">  1  4  2 -1</clus>
</clustering>
</event>
<event>
 6    1  0.9480355E-012  0.3000000E+03  0.7818608E-02  0.1093470E+00
          1   -1    0    0  502    0  0.00000000000E+00  0.00000000000E+00  0.25210757661E+03  0.25210757661E+03  0.00000000000E+00 0.  1.
         13   -1    0    0    0    0 -0.00000000000E+00 -0.00000000000E+00 -0.27500000000E+03  0.27500000000E+03  0.00000000000E+00 0.  1.
    9000005    2    1    2  501    0  0.18364521275E+02 -0.41995119415E+02 -0.50363736126E+02  0.47367052280E+03  0.46874984006E+03 0.  0.
         13    1    3    3    0    0  0.21630765955E+03  0.64312527785E+02  0.44103564003E+02  0.22993527169E+03  0.00000000000E+00 0.  1.
          1    1    3    3  501    0 -0.19794313827E+03 -0.10630764720E+03 -0.94467300128E+02  0.24373525111E+03  0.00000000000E+00 0.  1.
         21    1    1    2  502  501 -0.18364521275E+02  0.41995119415E+02  0.27471312739E+02  0.53437053810E+02  0.00000000000E+00 0. -1.
<scales pt_clust_4="550.00000" pt_clust_5="550.00000" pt_clust_6="45.83498"></scales>
<mgrwt>
<rscale>  0 0.30000000E+03</rscale>
<asrwt>  1 0.45834983E+02</asrwt>
<pdfrwt beam="1">  1        1 0.91675482E+00 0.30000000E+03</pdfrwt>
<pdfrwt beam="2">0</pdfrwt>
<totfact> 0.46975910E-05</totfact>
</mgrwt>
<clustering>
<clus scale="   45.835">  1  6  2 -1</clus>
<clus scale="  468.750">  4  5 -1 -1</clus>
<clus scale="  300.000">  1  4  2 -1</clus>
</clustering>
</event>
<event>
 6    1  0.9480355E-012  0.3000000E+03  0.7818608E-02  0.1093470E+00
          1   -1    0    0  502    0  0.00000000000E+00  0.00000000000E+00  0.21944789968E+03  0.21944789968E+03  0.00000000000E+00 0.  1.
         13   -1    0    0    0    0 -0.00000000000E+00 -0.00000000000E+00 -0.27500000000E+03  0.27500000000E+03  0.00000000000E+00 0.  1.
    9000005    2    1    2  501    0 -0.76886139564E+01  0.29405666526E+02 -0.51798785371E+02  0.46382282202E+03  0.45991813190E+03 0.  0.
         13    1    3    3    0    0  0.35949584329E+02  0.23627482599E+03 -0.76556895556E+02  0.25095641906E+03  0.00000000000E+00 0.  1.
          3    1    3    3  501    0 -0.43638198286E+02 -0.20686915947E+03  0.24758110184E+02  0.21286640296E+03  0.00000000000E+00 0.  1.
         21    1    1    2  502  501  0.76886139564E+01 -0.29405666526E+02 -0.37533149493E+01  0.30625077658E+02  0.00000000000E+00 0.  1.
<scales pt_clust_4="550.00000" pt_clust_5="550.00000" pt_clust_6="30.39423"></scales>
<mgrwt>
<rscale>  0 0.30000000E+03</rscale>
<asrwt>  1 0.30394225E+02</asrwt>
<pdfrwt beam="1">  1        1 0.79799236E+00 0.30000000E+03</pdfrwt>
<pdfrwt beam="2">0</pdfrwt>
<totfact> 0.11013983E-03</totfact>
</mgrwt>
<clustering>
<clus scale="   30.394">  1  6  2 -1</clus>
<clus scale="  459.918">  4  5 -1 -1</clus>
<clus scale="  300.000">  1  4  2 -1</clus>
</clustering>
</event>
<event>
 6    1  0.9480355E-012  0.3000000E+03  0.7818608E-02  0.1093470E+00
          1   -1    0    0  502    0  0.00000000000E+00  0.00000000000E+00  0.23905210613E+03  0.23905210613E+03  0.00000000000E+00 0.  1.
         13   -1    0    0    0    0 -0.00000000000E+00 -0.00000000000E+00 -0.27500000000E+03  0.27500000000E+03  0.00000000000E+00 0.  1.
    9000005    2    1    2  501    0 -0.31914874882E+02  0.11247627502E+02 -0.55909847135E+02  0.47476409344E+03  0.47024458003E+03 0.  0.
         13    1    3    3    0    0 -0.75603374371E+02 -0.18795197735E+03 -0.14811110546E+03  0.25095560477E+03  0.00000000000E+00 0.  1.
          3    1    3    3  501    0  0.43688499489E+02  0.19919960485E+03  0.92201258326E+02  0.22380848866E+03  0.00000000000E+00 0.  1.
         21    1    1    2  502  501  0.31914874882E+02 -0.11247627502E+02  0.19961953262E+02  0.39288012691E+02  0.00000000000E+00 0. -1.
<scales pt_clust_4="550.00000" pt_clust_5="550.00000" pt_clust_6="33.83886"></scales>
<mgrwt>
<rscale>  0 0.30000000E+03</rscale>
<asrwt>  1 0.33838859E+02</asrwt>
<pdfrwt beam="1">  1        1 0.86928039E+00 0.30000000E+03</pdfrwt>
<pdfrwt beam="2">0</pdfrwt>
<totfact> 0.25922318E-04</totfact>
</mgrwt>
<clustering>
<clus scale="   33.839">  1  6  2 -1</clus>
<clus scale="  470.245">  4  5 -1 -1</clus>
<clus scale="  300.000">  1  4  2 -1</clus>
</clustering>
</event>
<event>
 6    1  0.9480355E-012  0.3000000E+03  0.7818608E-02  0.1093470E+00
          1   -1    0    0  502    0  0.00000000000E+00  0.00000000000E+00  0.23089021700E+03  0.23089021700E+03  0.00000000000E+00 0.  1.
         13   -1    0    0    0    0 -0.00000000000E+00 -0.00000000000E+00 -0.27500000000E+03  0.27500000000E+03  0.00000000000E+00 0.  1.
    9000005    2    1    2  501    0 -0.19763224504E+02 -0.34124544160E+02 -0.48188603686E+02  0.46624546533E+03  0.46206885077E+03 0.  0.
         13    1    3    3    0    0 -0.16665027680E+03  0.56669160470E+02 -0.17790635842E+03  0.25026861743E+03  0.00000000000E+00 0.  1.
          1    1    3    3  501    0  0.14688705230E+03 -0.90793704630E+02  0.12971775473E+03  0.21597684789E+03  0.00000000000E+00 0.  1.
         21    1    1    2  502  501  0.19763224504E+02  0.34124544160E+02  0.40788206846E+01  0.39644751672E+02  0.00000000000E+00 0.  1.
<scales pt_clust_4="550.00000" pt_clust_5="550.00000" pt_clust_6="39.43437"></scales>
<mgrwt>
<rscale>  0 0.30000000E+03</rscale>
<asrwt>  1 0.39434370E+02</asrwt>
<pdfrwt beam="1">  1        1 0.83960079E+00 0.30000000E+03</pdfrwt>
<pdfrwt beam="2">0</pdfrwt>
<totfact> 0.48961415E-04</totfact>
</mgrwt>
<clustering>
<clus scale="   39.434">  1  6  2 -1</clus>
<clus scale="  462.069">  4  5 -1 -1</clus>
<clus scale="  300.000">  1  4  2 -1</clus>
</clustering>
</event>
<event>
 6    1  0.9480355E-012  0.3000000E+03  0.7818608E-02  0.1093470E+00
          1   -1    0    0  502    0  0.00000000000E+00  0.00000000000E+00  0.23325380979E+03  0.23325380979E+03  0.00000000000E+00 0.  1.
         13   -1    0    0    0    0 -0.00000000000E+00 -0.00000000000E+00 -0.27500000000E+03  0.27500000000E+03  0.00000000000E+00 0.  1.
    9000005    2    1    2  501    0  0.64275514235E+01  0.36350539286E+02 -0.64937897171E+02  0.46465873672E+03  0.45861545548E+03 0.  0.
         13    1    3    3    0    0 -0.85959396568E+02  0.22686389251E+03  0.19541322435E+01  0.24261092765E+03  0.00000000000E+00 0.  1.
          3    1    3    3  501    0  0.92386947991E+02 -0.19051335322E+03 -0.66892029414E+02  0.22204780907E+03  0.00000000000E+00 0.  1.
         21    1    1    2  502  501 -0.64275514235E+01 -0.36350539286E+02  0.23191706957E+02  0.43595073062E+02  0.00000000000E+00 0.  1.
<scales pt_clust_4="550.00000" pt_clust_5="550.00000" pt_clust_6="36.91443"></scales>
<mgrwt>
<rscale>  0 0.30000000E+03</rscale>
<asrwt>  1 0.36914430E+02</asrwt>
<pdfrwt beam="1">  1        1 0.84819567E+00 0.30000000E+03</pdfrwt>
<pdfrwt beam="2">0</pdfrwt>
<totfact> 0.41881444E-04</totfact>
</mgrwt>
<clustering>
<clus scale="   36.914">  1  6  2 -1</clus>
<clus scale="  458.615">  4  5 -1 -1</clus>
<clus scale="  300.000">  1  4  2 -1</clus>
</clustering>
</event>
<event>
 6    1  0.9480355E-012  0.3000000E+03  0.7818608E-02  0.1093470E+00
          1   -1    0    0  502    0  0.00000000000E+00  0.00000000000E+00  0.24339677628E+03  0.24339677628E+03  0.00000000000E+00 0.  1.
         13   -1    0    0    0    0 -0.00000000000E+00 -0.00000000000E+00 -0.27500000000E+03  0.27500000000E+03  0.00000000000E+00 0.  1.
    9000005    2    1    2  501    0  0.28660399541E+02 -0.31288334237E+02 -0.28802111818E+02  0.47587355216E+03  0.47310220634E+03 0.  0.
         13    1    3    3    0    0  0.11898075738E+03 -0.22261157593E+03  0.35148758100E+02  0.25484852278E+03  0.00000000000E+00 0.  1.
          1    1    3    3  501    0 -0.90320357837E+02  0.19132324170E+03 -0.63950869918E+02  0.22102502939E+03  0.00000000000E+00 0.  1.
         21    1    1    2  502  501 -0.28660399541E+02  0.31288334237E+02 -0.28011119034E+01  0.42523224115E+02  0.00000000000E+00 0. -1.
<scales pt_clust_4="550.00000" pt_clust_5="550.00000" pt_clust_6="42.43089"></scales>
<mgrwt>
<rscale>  0 0.30000000E+03</rscale>
<asrwt>  1 0.42430887E+02</asrwt>
<pdfrwt beam="1">  1        1 0.88507919E+00 0.30000000E+03</pdfrwt>
<pdfrwt beam="2">0</pdfrwt>
<totfact> 0.16340049E-04</totfact>
</mgrwt>
<clustering>
<clus scale="   42.431">  1  6  2 -1</clus>
<clus scale="  473.102">  4  5 -1 -1</clus>
<clus scale="  300.000">  1  4  2 -1</clus>
</clustering>
</event>
<event>
 6    1  0.9480355E-012  0.3000000E+03  0.7818608E-02  0.1093470E+00
          1   -1    0    0  502    0  0.00000000000E+00  0.00000000000E+00  0.22334577976E+03  0.22334577976E+03  0.00000000000E+00 0.  1.
         13   -1    0    0    0    0 -0.00000000000E+00 -0.00000000000E+00 -0.27500000000E+03  0.27500000000E+03  0.00000000000E+00 0.  1.
    9000005    2    1    2  501    0 -0.18359080096E+02  0.27975403340E+02 -0.59555080058E+02  0.46396406078E+03  0.45890757579E+03 0.  0.
         13    1    3    3    0    0 -0.15423100992E+03  0.13351391835E+03 -0.16483168419E+03  0.26226447515E+03  0.00000000000E+00 0.  1.
          3    1    3    3  501    0  0.13587192982E+03 -0.10553851501E+03  0.10527660413E+03  0.20169958563E+03  0.00000000000E+00 0.  1.
         21    1    1    2  502  501  0.18359080096E+02 -0.27975403340E+02  0.79008598155E+01  0.34381718977E+02  0.00000000000E+00 0. -1.
<scales pt_clust_4="550.00000" pt_clust_5="550.00000" pt_clust_6="33.46161"></scales>
<mgrwt>
<rscale>  0 0.30000000E+03</rscale>
<asrwt>  1 0.33461605E+02</asrwt>
<pdfrwt beam="1">  1        1 0.81216647E+00 0.30000000E+03</pdfrwt>
<pdfrwt beam="2">0</pdfrwt>
<totfact> 0.84576012E-04</totfact>
</mgrwt>
<clustering>
<clus scale="   33.462">  1  6  2 -1</clus>
<clus scale="  458.908">  4  5 -1 -1</clus>
<clus scale="  300.000">  1  4  2 -1</clus>
</clustering>
</event>
<event>
 6    1  0.9480355E-012  0.3000000E+03  0.7818608E-02  0.1093470E+00
          1   -1    0    0  502    0  0.00000000000E+00  0.00000000000E+00  0.24163948087E+03  0.24163948087E+03  0.00000000000E+00 0.  1.
         13   -1    0    0    0    0 -0.00000000000E+00 -0.00000000000E+00 -0.27500000000E+03  0.27500000000E+03  0.00000000000E+00 0.  1.
    9000005    2    1    2  501    0 -0.68363109753E+01  0.30639119912E+02 -0.42893797992E+02  0.48383133824E+03  0.48090268781E+03 0.  0.
         13    1    3    3    0    0  0.98686056450E+02 -0.19732135110E+03  0.29063010702E+02  0.22252935071E+03  0.00000000000E+00 0.  1.
          3    1    3    3  501    0 -0.10552236743E+03  0.22796047101E+03 -0.71956808693E+02  0.26130198753E+03  0.00000000000E+00 0.  1.
         21    1    1    2  502  501  0.68363109753E+01 -0.30639119912E+02  0.95332788622E+01  0.32808142627E+02  0.00000000000E+00 0. -1.
<scales pt_clust_4="550.00000" pt_clust_5="550.00000" pt_clust_6="31.39253"></scales>
<mgrwt>
<rscale>  0 0.30000000E+03</rscale>
<asrwt>  1 0.31392528E+02</asrwt>
<pdfrwt beam="1">  1        1 0.87868902E+00 0.30000000E+03</pdfrwt>
<pdfrwt beam="2">0</pdfrwt>
<totfact> 0.20894163E-04</totfact>
</mgrwt>
<clustering>
<clus scale="   31.393">  1  6  2 -1</clus>
<clus scale="  480.903">  4  5 -1 -1</clus>
<clus scale="  300.000">  1  4  2 -1</clus>
</clustering>
</event>
<event>
 6    1  0.9480355E-012  0.3000000E+03  0.7818608E-02  0.1093470E+00
          1   -1    0    0  502    0  0.00000000000E+00  0.00000000000E+00  0.25517151407E+03  0.25517151407E+03  0.00000000000E+00 0.  1.
         13   -1    0    0    0    0 -0.00000000000E+00 -0.00000000000E+00 -0.27500000000E+03  0.27500000000E+03  0.00000000000E+00 0.  1.
    9000005    2    1    2  501    0 -0.41600201944E+02 -0.24205101355E+02 -0.51782888406E+02  0.47240000231E+03  0.46708011188E+03 0.  0.
         13    1    3    3    0    0 -0.19839881716E+03  0.12077205565E+03  0.47215744745E+02  0.23701752388E+03  0.00000000000E+00 0.  1.
          1    1    3    3  501    0  0.15679861521E+03 -0.14497715700E+03 -0.98998633151E+02  0.23538247843E+03  0.00000000000E+00 0.  1.
         21    1    1    2  502  501  0.41600201944E+02  0.24205101355E+02  0.31954402472E+02  0.57771511757E+02  0.00000000000E+00 0. -1.
<scales pt_clust_4="550.00000" pt_clust_5="550.00000" pt_clust_6="48.12966"></scales>
<mgrwt>
<rscale>  0 0.30000000E+03</rscale>
<asrwt>  1 0.48129655E+02</asrwt>
<pdfrwt beam="1">  1        1 0.92789641E+00 0.30000000E+03</pdfrwt>
<pdfrwt beam="2">0</pdfrwt>
<totfact> 0.27010869E-05</totfact>
</mgrwt>
<clustering>
<clus scale="   48.130">  1  6  2 -1</clus>
<clus scale="  467.080">  4  5 -1 -1</clus>
<clus scale="  300.000">  1  4  2 -1</clus>
</clustering>
</event>
<event>
 6    1  0.9480355E-012  0.3000000E+03  0.7818608E-02  0.1093470E+00
          1   -1    0    0  502    0  0.00000000000E+00  0.00000000000E+00  0.23036432354E+03  0.23036432354E+03  0.00000000000E+00 0.  1.
         13   -1    0    0    0    0 -0.00000000000E+00 -0.00000000000E+00 -0.27500000000E+03  0.27500000000E+03  0.00000000000E+00 0.  1.
    9000005    2    1    2  501    0  0.32743524827E+02  0.17945346983E+02 -0.51467392819E+02  0.46740584300E+03  0.46306063928E+03 0.  0.
         13    1    3    3    0    0  0.59828434245E+02  0.19817643984E+03 -0.15425628904E+03  0.25816340864E+03  0.00000000000E+00 0.  1.
          1    1    3    3  501    0 -0.27084909418E+02 -0.18023109286E+03  0.10278889622E+03  0.20924243436E+03  0.00000000000E+00 0.  1.
         21    1    1    2  502  501 -0.32743524827E+02 -0.17945346983E+02  0.68317163563E+01  0.37958480538E+02  0.00000000000E+00 0.  1.
<scales pt_clust_4="550.00000" pt_clust_5="550.00000" pt_clust_6="37.33864"></scales>
<mgrwt>
<rscale>  0 0.30000000E+03</rscale>
<asrwt>  1 0.37338638E+02</asrwt>
<pdfrwt beam="1">  1        1 0.83768845E+00 0.30000000E+03</pdfrwt>
<pdfrwt beam="2">0</pdfrwt>
<totfact> 0.51099774E-04</totfact>
</mgrwt>
<clustering>
<clus scale="   37.339">  1  6  2 -1</clus>
<clus scale="  463.061">  4  5 -1 -1</clus>
<clus scale="  300.000">  1  4  2 -1</clus>
</clustering>
</event>
<event>
 6    1  0.9480355E-012  0.3000000E+03  0.7818608E-02  0.1093470E+00
          1   -1    0    0  502    0  0.00000000000E+00  0.00000000000E+00  0.25526320914E+03  0.25526320914E+03  0.00000000000E+00 0.  1.
         13   -1    0    0    0    0 -0.00000000000E+00 -0.00000000000E+00 -0.27500000000E+03  0.27500000000E+03  0.00000000000E+00 0.  1.
    9000005    2    1    2  501    0  0.24869225105E+02  0.31661672927E+02 -0.41095722871E+02  0.48468751533E+03  0.48126104058E+03 0.  0.
         13    1    3    3    0    0 -0.10858823089E+03  0.70704198517E+02 -0.22167869176E+03  0.25677213625E+03  0.00000000000E+00 0.  1.
          1    1    3    3  501    0  0.13345745599E+03 -0.39042525590E+02  0.18058296889E+03  0.22791537907E+03  0.00000000000E+00 0.  1.
         21    1    1    2  502  501 -0.24869225105E+02 -0.31661672927E+02  0.21358932007E+02  0.45575693810E+02  0.00000000000E+00 0. -1.
<scales pt_clust_4="550.00000" pt_clust_5="550.00000" pt_clust_6="40.26090"></scales>
<mgrwt>
<rscale>  0 0.30000000E+03</rscale>
<asrwt>  1 0.40260898E+02</asrwt>
<pdfrwt beam="1">  1        1 0.92822985E+00 0.30000000E+03</pdfrwt>
<pdfrwt beam="2">0</pdfrwt>
<totfact> 0.27487571E-05</totfact>
</mgrwt>
<clustering>
<clus scale="   40.261">  1  6  2 -1</clus>
<clus scale="  481.261">  4  5 -1 -1</clus>
<clus scale="  300.000">  1  4  2 -1</clus>
</clustering>
</event>
<event>
 6    1  0.9480355E-012  0.3000000E+03  0.7818608E-02  0.1093470E+00
          1   -1    0    0  502    0  0.00000000000E+00  0.00000000000E+00  0.24294092888E+03  0.24294092888E+03  0.00000000000E+00 0.  1.
         13   -1    0    0    0    0 -0.00000000000E+00 -0.00000000000E+00 -0.27500000000E+03  0.27500000000E+03  0.00000000000E+00 0.  1.
    9000005    2    1    2  501    0  0.17814763052E+02 -0.28195742450E+02 -0.60634484963E+02  0.47402145767E+03  0.46894289193E+03 0.  0.
         13    1    3    3    0    0 -0.19129347198E+03 -0.13600624208E+03 -0.36238506126E+02  0.23749551497E+03  0.00000000000E+00 0.  1.
          3    1    3    3  501    0  0.20910823503E+03  0.10781049963E+03 -0.24395978838E+02  0.23652594270E+03  0.00000000000E+00 0.  1.
         21    1    1    2  502  501 -0.17814763052E+02  0.28195742450E+02  0.28575413843E+02  0.43919471208E+02  0.00000000000E+00 0. -1.
<scales pt_clust_4="550.00000" pt_clust_5="550.00000" pt_clust_6="33.35215"></scales>
<mgrwt>
<rscale>  0 0.30000000E+03</rscale>
<asrwt>  1 0.33352146E+02</asrwt>
<pdfrwt beam="1">  1        1 0.88342156E+00 0.30000000E+03</pdfrwt>
<pdfrwt beam="2">0</pdfrwt>
<totfact> 0.17990881E-04</totfact>
</mgrwt>
<clustering>
<clus scale="   33.352">  1  6  2 -1</clus>
<clus scale="  468.943">  4  5 -1 -1</clus>
<clus scale="  300.000">  1  4  2 -1</clus>
</clustering>
</event>
<event>
 6    1  0.9480355E-012  0.3000000E+03  0.7818608E-02  0.1093470E+00
          1   -1    0    0  502    0  0.00000000000E+00  0.00000000000E+00  0.23572825788E+03  0.23572825788E+03  0.00000000000E+00 0.  1.
         13   -1    0    0    0    0 -0.00000000000E+00 -0.00000000000E+00 -0.27500000000E+03  0.27500000000E+03  0.00000000000E+00 0.  1.
    9000005    2    1    2  501    0 -0.38676336928E+02 -0.69678299408E+01 -0.63458313901E+02  0.46458283615E+03  0.45854753772E+03 0.  0.
         13    1    3    3    0    0  0.42459905637E+02 -0.17299301679E+02 -0.25353926822E+03  0.25765145052E+03  0.00000000000E+00 0.  1.
          1    1    3    3  501    0 -0.81136242565E+02  0.10331471738E+02  0.19008095432E+03  0.20693138563E+03  0.00000000000E+00 0.  1.
         21    1    1    2  502  501  0.38676336928E+02  0.69678299408E+01  0.24186571786E+02  0.46145421734E+02  0.00000000000E+00 0. -1.
<scales pt_clust_4="550.00000" pt_clust_5="550.00000" pt_clust_6="39.29898"></scales>
<mgrwt>
<rscale>  0 0.30000000E+03</rscale>
<asrwt>  1 0.39298978E+02</asrwt>
<pdfrwt beam="1">  1        1 0.85719367E+00 0.30000000E+03</pdfrwt>
<pdfrwt beam="2">0</pdfrwt>
<totfact> 0.33883816E-04</totfact>
</mgrwt>
<clustering>
<clus scale="   39.299">  1  6  2 -1</clus>
<clus scale="  458.548">  4  5 -1 -1</clus>
<clus scale="  300.000">  1  4  2 -1</clus>
</clustering>
</event>
<event>
 6    1  0.9480355E-012  0.3000000E+03  0.7818608E-02  0.1093470E+00
          1   -1    0    0  502    0  0.00000000000E+00  0.00000000000E+00  0.22076013935E+03  0.22076013935E+03  0.00000000000E+00 0.  1.
         13   -1    0    0    0    0 -0.00000000000E+00 -0.00000000000E+00 -0.27500000000E+03  0.27500000000E+03  0.00000000000E+00 0.  1.
    9000005    2    1    2  501    0 -0.19379033374E+02  0.25873764166E+02 -0.63838806926E+02  0.46203865693E+03  0.45646394012E+03 0.  0.
         13    1    3    3    0    0 -0.29757364019E+02  0.85018635093E+02 -0.25036987508E+03  0.26608033256E+03  0.00000000000E+00 0.  1.
          3    1    3    3  501    0  0.10378330646E+02 -0.59144870927E+02  0.18653106816E+03  0.19595832437E+03  0.00000000000E+00 0.  1.
         21    1    1    2  502  501  0.19379033374E+02 -0.25873764166E+02  0.95989462746E+01  0.33721482414E+02  0.00000000000E+00 0.  1.
<scales pt_clust_4="550.00000" pt_clust_5="550.00000" pt_clust_6="32.32644"></scales>
<mgrwt>
<rscale>  0 0.30000000E+03</rscale>
<asrwt>  1 0.32326438E+02</asrwt>
<pdfrwt beam="1">  1        1 0.80276414E+00 0.30000000E+03</pdfrwt>
<pdfrwt beam="2">0</pdfrwt>
<totfact> 0.10050861E-03</totfact>
</mgrwt>
<clustering>
<clus scale="   32.326">  1  6  2 -1</clus>
<clus scale="  456.464">  4  5 -1 -1</clus>
<clus scale="  300.000">  1  4  2 -1</clus>
</clustering>
</event>
<event>
 6    1  0.9480355E-012  0.3000000E+03  0.7818608E-02  0.1093470E+00
          1   -1    0    0  502    0  0.00000000000E+00  0.00000000000E+00  0.23126535609E+03  0.23126535609E+03  0.00000000000E+00 0.  1.
         13   -1    0    0    0    0 -0.00000000000E+00 -0.00000000000E+00 -0.27500000000E+03  0.27500000000E+03  0.00000000000E+00 0.  1.
    9000005    2    1    2  501    0  0.31520335299E+02  0.87755418487E+01 -0.53807032290E+02  0.47203094826E+03  0.46781136980E+03 0.  0.
         13    1    3    3    0    0  0.81685201960E+02 -0.19221647991E+03  0.81947311323E+02  0.22435465050E+03  0.00000000000E+00 0.  1.
          1    1    3    3  501    0 -0.50164866661E+02  0.20099202176E+03 -0.13575434361E+03  0.24767629775E+03  0.00000000000E+00 0.  1.
         21    1    1    2  502  501 -0.31520335299E+02 -0.87755418487E+01  0.10072388384E+02  0.34234407836E+02  0.00000000000E+00 0. -1.
<scales pt_clust_4="550.00000" pt_clust_5="550.00000" pt_clust_6="32.71913"></scales>
<mgrwt>
<rscale>  0 0.30000000E+03</rscale>
<asrwt>  1 0.32719133E+02</asrwt>
<pdfrwt beam="1">  1        1 0.84096493E+00 0.30000000E+03</pdfrwt>
<pdfrwt beam="2">0</pdfrwt>
<totfact> 0.49474152E-04</totfact>
</mgrwt>
<clustering>
<clus scale="   32.719">  1  6  2 -1</clus>
<clus scale="  467.811">  4  5 -1 -1</clus>
<clus scale="  300.000">  1  4  2 -1</clus>
</clustering>
</event>
<event>
 6    1  0.9480355E-012  0.3000000E+03  0.7818608E-02  0.1093470E+00
          1   -1    0    0  502    0  0.00000000000E+00  0.00000000000E+00  0.23437250459E+03  0.23437250459E+03  0.00000000000E+00 0.  1.
         13   -1    0    0    0    0 -0.00000000000E+00 -0.00000000000E+00 -0.27500000000E+03  0.27500000000E+03  0.00000000000E+00 0.  1.
    9000005    2    1    2  501    0  0.32405832816E+02 -0.17508386371E+02 -0.67645375029E+02  0.46369266864E+03  0.45725082022E+03 0.  0.
         13    1    3    3    0    0 -0.39912102313E+02  0.20506047834E+02 -0.25520046131E+03  0.25911532058E+03  0.00000000000E+00 0.  1.
          1    1    3    3  501    0  0.72317935129E+02 -0.38014434205E+02  0.18755508628E+03  0.20457734806E+03  0.00000000000E+00 0.  1.
         21    1    1    2  502  501 -0.32405832816E+02  0.17508386371E+02  0.27017879623E+02  0.45679835958E+02  0.00000000000E+00 0. -1.
<scales pt_clust_4="550.00000" pt_clust_5="550.00000" pt_clust_6="36.83316"></scales>
<mgrwt>
<rscale>  0 0.30000000E+03</rscale>
<asrwt>  1 0.36833159E+02</asrwt>
<pdfrwt beam="1">  1        1 0.85226365E+00 0.30000000E+03</pdfrwt>
<pdfrwt beam="2">0</pdfrwt>
<totfact> 0.38367250E-04</totfact>
</mgrwt>
<clustering>
<clus scale="   36.833">  1  6  2 -1</clus>
<clus scale="  457.251">  4  5 -1 -1</clus>
<clus scale="  300.000">  1  4  2 -1</clus>
</clustering>
</event>
<event>
 6    1  0.9480355E-012  0.3000000E+03  0.7818608E-02  0.1093470E+00
          1   -1    0    0  502    0  0.00000000000E+00  0.00000000000E+00  0.24508964241E+03  0.24508964241E+03  0.00000000000E+00 0.  1.
         13   -1    0    0    0    0 -0.00000000000E+00 -0.00000000000E+00 -0.27500000000E+03  0.27500000000E+03  0.00000000000E+00 0.  1.
    9000005    2    1    2  501    0  0.23338925382E+02  0.19690535838E+02 -0.20361192573E+02  0.48809574936E+03  0.48671394036E+03 0.  0.
         13    1    3    3    0    0  0.44967734715E+02  0.24549393196E+03 -0.62717993502E+02  0.25733813263E+03  0.00000000000E+00 0.  1.
          3    1    3    3  501    0 -0.21628809332E+02 -0.22580339613E+03  0.42356800929E+02  0.23075761673E+03  0.00000000000E+00 0.  1.
         21    1    1    2  502  501 -0.23338925382E+02 -0.19690535838E+02 -0.95491650199E+01  0.31993893045E+02  0.00000000000E+00 0. -1.
<scales pt_clust_4="550.00000" pt_clust_5="550.00000" pt_clust_6="30.53561"></scales>
<mgrwt>
<rscale>  0 0.30000000E+03</rscale>
<asrwt>  1 0.30535612E+02</asrwt>
<pdfrwt beam="1">  1        1 0.89123506E+00 0.30000000E+03</pdfrwt>
<pdfrwt beam="2">0</pdfrwt>
<totfact> 0.14334263E-04</totfact>
</mgrwt>
<clustering>
<clus scale="   30.536">  1  6  2 -1</clus>
<clus scale="  486.714">  4  5 -1 -1</clus>
<clus scale="  300.000">  1  4  2 -1</clus>
</clustering>
</event>
<event>
 6    1  0.9480355E-012  0.3000000E+03  0.7818608E-02  0.1093470E+00
          1   -1    0    0  502    0  0.00000000000E+00  0.00000000000E+00  0.22326259515E+03  0.22326259515E+03  0.00000000000E+00 0.  1.
         13   -1    0    0    0    0 -0.00000000000E+00 -0.00000000000E+00 -0.27500000000E+03  0.27500000000E+03  0.00000000000E+00 0.  1.
    9000005    2    1    2  501    0 -0.22952266125E+02  0.23772009490E+02 -0.65734008214E+02  0.46237638803E+03  0.45648554130E+03 0.  0.
         13    1    3    3    0    0  0.10985272077E+03  0.42476671632E+02  0.16067906531E+03  0.19922261399E+03  0.00000000000E+00 0.  1.
          1    1    3    3  501    0 -0.13280498690E+03 -0.18704662142E+02 -0.22641307353E+03  0.26315377405E+03  0.00000000000E+00 0.  1.
         21    1    1    2  502  501  0.22952266125E+02 -0.23772009490E+02  0.13996603364E+02  0.35886207116E+02  0.00000000000E+00 0. -1.
<scales pt_clust_4="550.00000" pt_clust_5="550.00000" pt_clust_6="33.04414"></scales>
<mgrwt>
<rscale>  0 0.30000000E+03</rscale>
<asrwt>  1 0.33044136E+02</asrwt>
<pdfrwt beam="1">  1        1 0.81186398E+00 0.30000000E+03</pdfrwt>
<pdfrwt beam="2">0</pdfrwt>
<totfact> 0.85244406E-04</totfact>
</mgrwt>
<clustering>
<clus scale="   33.044">  1  6  2 -1</clus>
<clus scale="  456.486">  4  5 -1 -1</clus>
<clus scale="  300.000">  1  4  2 -1</clus>
</clustering>
</event>
<event>
 6    1  0.9480355E-012  0.3000000E+03  0.7818608E-02  0.1093470E+00
          1   -1    0    0  502    0  0.00000000000E+00  0.00000000000E+00  0.23556312419E+03  0.23556312419E+03  0.00000000000E+00 0.  1.
         13   -1    0    0    0    0 -0.00000000000E+00 -0.00000000000E+00 -0.27500000000E+03  0.27500000000E+03  0.00000000000E+00 0.  1.
    9000005    2    1    2  501    0  0.17746271198E+02 -0.30701916807E+02 -0.45731401490E+02  0.47454703208E+03  0.47100529375E+03 0.  0.
         13    1    3    3    0    0 -0.13132501398E+03 -0.50360590961E+02  0.16427547872E+03  0.21626114151E+03  0.00000000000E+00 0.  1.
          1    1    3    3  501    0  0.14907128517E+03  0.19658674153E+02 -0.21000688021E+03  0.25828589057E+03  0.00000000000E+00 0.  1.
         21    1    1    2  502  501 -0.17746271198E+02  0.30701916807E+02  0.62945256802E+01  0.36016092106E+02  0.00000000000E+00 0.  1.
<scales pt_clust_4="550.00000" pt_clust_5="550.00000" pt_clust_6="35.46178"></scales>
<mgrwt>
<rscale>  0 0.30000000E+03</rscale>
<asrwt>  1 0.35461780E+02</asrwt>
<pdfrwt beam="1">  1        1 0.85659318E+00 0.30000000E+03</pdfrwt>
<pdfrwt beam="2">0</pdfrwt>
<totfact> 0.35026911E-04</totfact>
</mgrwt>
<clustering>
<clus scale="   35.462">  1  6  2 -1</clus>
<clus scale="  471.005">  4  5 -1 -1</clus>
<clus scale="  300.000">  1  4  2 -1</clus>
</clustering>
</event>
<event>
 6    1  0.9480355E-012  0.3000000E+03  0.7818608E-02  0.1093470E+00
          1   -1    0    0  502    0  0.00000000000E+00  0.00000000000E+00  0.26201831236E+03  0.26201831236E+03  0.00000000000E+00 0.  1.
         13   -1    0    0    0    0 -0.00000000000E+00 -0.00000000000E+00 -0.27500000000E+03  0.27500000000E+03  0.00000000000E+00 0.  1.
    9000005    2    1    2  501    0 -0.20974730077E+02  0.62790460832E+02  0.57448582272E+01  0.46821958567E+03  0.46348030782E+03 0.  0.
         13    1    3    3    0    0  0.71030366959E+02 -0.18624587618E+03  0.30206576541E+02  0.20160673771E+03  0.00000000000E+00 0.  1.
          3    1    3    3  501    0 -0.92005097035E+02  0.24903633701E+03 -0.24461718314E+02  0.26661284796E+03  0.00000000000E+00 0.  1.
         21    1    1    2  502  501  0.20974730077E+02 -0.62790460832E+02 -0.18726545870E+02  0.68798726686E+02  0.00000000000E+00 0.  1.
<scales pt_clust_4="550.00000" pt_clust_5="550.00000" pt_clust_6="66.20110"></scales>
<mgrwt>
<rscale>  0 0.30000000E+03</rscale>
<asrwt>  1 0.66201100E+02</asrwt>
<pdfrwt beam="1">  1        1 0.95279386E+00 0.30000000E+03</pdfrwt>
<pdfrwt beam="2">0</pdfrwt>
<totfact> 0.96507722E-06</totfact>
</mgrwt>
<clustering>
<clus scale="   66.201">  1  6  2 -1</clus>
<clus scale="  463.480">  4  5 -1 -1</clus>
<clus scale="  300.000">  1  4  2 -1</clus>
</clustering>
</event>
<event>
 6    1  0.9480355E-012  0.3000000E+03  0.7818608E-02  0.1093470E+00
          1   -1    0    0  502    0  0.00000000000E+00  0.00000000000E+00  0.23411826679E+03  0.23411826679E+03  0.00000000000E+00 0.  1.
         13   -1    0    0    0    0 -0.00000000000E+00 -0.00000000000E+00 -0.27500000000E+03  0.27500000000E+03  0.00000000000E+00 0.  1.
    9000005    2    1    2  501    0  0.28841897321E+02 -0.17341375840E+02 -0.56953948017E+02  0.47182356950E+03  0.46716287329E+03 0.  0.
         13    1    3    3    0    0 -0.44478371314E+02  0.20417495175E+03 -0.10458801695E+03  0.23367582187E+03  0.00000000000E+00 0.  1.
          3    1    3    3  501    0  0.73320268635E+02 -0.22151632759E+03  0.47634068931E+02  0.23814774763E+03  0.00000000000E+00 0.  1.
         21    1    1    2  502  501 -0.28841897321E+02  0.17341375840E+02  0.16072214806E+02  0.37294697289E+02  0.00000000000E+00 0.  1.
<scales pt_clust_4="550.00000" pt_clust_5="550.00000" pt_clust_6="33.65380"></scales>
<mgrwt>
<rscale>  0 0.30000000E+03</rscale>
<asrwt>  1 0.33653802E+02</asrwt>
<pdfrwt beam="1">  1        1 0.85133915E+00 0.30000000E+03</pdfrwt>
<pdfrwt beam="2">0</pdfrwt>
<totfact> 0.39821838E-04</totfact>
</mgrwt>
<clustering>
<clus scale="   33.654">  1  6  2 -1</clus>
<clus scale="  467.163">  4  5 -1 -1</clus>
<clus scale="  300.000">  1  4  2 -1</clus>
</clustering>
</event>
<event>
 6    1  0.9480355E-012  0.3000000E+03  0.7818608E-02  0.1093470E+00
          1   -1    0    0  502    0  0.00000000000E+00  0.00000000000E+00  0.24391838507E+03  0.24391838507E+03  0.00000000000E+00 0.  1.
         13   -1    0    0    0    0 -0.00000000000E+00 -0.00000000000E+00 -0.27500000000E+03  0.27500000000E+03  0.00000000000E+00 0.  1.
    9000005    2    1    2  501    0  0.15199579786E+02  0.28292592405E+02 -0.40813051330E+02  0.48535949854E+03  0.48257293713E+03 0.  0.
         13    1    3    3    0    0 -0.13339133184E+03 -0.18116222470E+03 -0.40278140191E+02  0.22855049255E+03  0.00000000000E+00 0.  1.
          3    1    3    3  501    0  0.14859091163E+03  0.20945481711E+03 -0.53491113893E+00  0.25680900599E+03  0.00000000000E+00 0.  1.
         21    1    1    2  502  501 -0.15199579786E+02 -0.28292592405E+02  0.97314364001E+01  0.33558886529E+02  0.00000000000E+00 0.  1.
<scales pt_clust_4="550.00000" pt_clust_5="550.00000" pt_clust_6="32.11694"></scales>
<mgrwt>
<rscale>  0 0.30000000E+03</rscale>
<asrwt>  1 0.32116943E+02</asrwt>
<pdfrwt beam="1">  1        1 0.88697595E+00 0.30000000E+03</pdfrwt>
<pdfrwt beam="2">0</pdfrwt>
<totfact> 0.16199775E-04</totfact>
</mgrwt>
<clustering>
<clus scale="   32.117">  1  6  2 -1</clus>
<clus scale="  482.573">  4  5 -1 -1</clus>
<clus scale="  300.000">  1  4  2 -1</clus>
</clustering>
</event>
<event>
 6    1  0.9480355E-012  0.3000000E+03  0.7818608E-02  0.1093470E+00
          1   -1    0    0  502    0  0.00000000000E+00  0.00000000000E+00  0.22777799404E+03  0.22777799404E+03  0.00000000000E+00 0.  1.
         13   -1    0    0    0    0 -0.00000000000E+00 -0.00000000000E+00 -0.27500000000E+03  0.27500000000E+03  0.00000000000E+00 0.  1.
    9000005    2    1    2  501    0 -0.25744768926E+02  0.20964636793E+02 -0.62430935606E+02  0.46625922265E+03  0.46086628415E+03 0.  0.
         13    1    3    3    0    0  0.89204355335E+02 -0.18686679949E+03 -0.92637009797E+02  0.22684407276E+03  0.00000000000E+00 0.  1.
          1    1    3    3  501    0 -0.11494912426E+03  0.20783143629E+03  0.30206074191E+02  0.23941514989E+03  0.00000000000E+00 0.  1.
         21    1    1    2  502  501  0.25744768926E+02 -0.20964636793E+02  0.15208929650E+02  0.36518771393E+02  0.00000000000E+00 0.  1.
<scales pt_clust_4="550.00000" pt_clust_5="550.00000" pt_clust_6="33.20104"></scales>
<mgrwt>
<rscale>  0 0.30000000E+03</rscale>
<asrwt>  1 0.33201041E+02</asrwt>
<pdfrwt beam="1">  1        1 0.82828361E+00 0.30000000E+03</pdfrwt>
<pdfrwt beam="2">0</pdfrwt>
<totfact> 0.61717797E-04</totfact>
</mgrwt>
<clustering>
<clus scale="   33.201">  1  6  2 -1</clus>
<clus scale="  460.866">  4  5 -1 -1</clus>
<clus scale="  300.000">  1  4  2 -1</clus>
</clustering>
</event>
<event>
 6    1  0.9480355E-012  0.3000000E+03  0.7818608E-02  0.1093470E+00
          1   -1    0    0  502    0  0.00000000000E+00  0.00000000000E+00  0.21882436839E+03  0.21882436839E+03  0.00000000000E+00 0.  1.
         13   -1    0    0    0    0 -0.00000000000E+00 -0.00000000000E+00 -0.27500000000E+03  0.27500000000E+03  0.00000000000E+00 0.  1.
    9000005    2    1    2  501    0  0.21184914633E+02 -0.23729543935E+02 -0.52705202386E+02  0.46182537244E+03  0.45770399212E+03 0.  0.
         13    1    3    3    0    0  0.17391197376E+03 -0.45157595251E+02 -0.18554007085E+03  0.25828221177E+03  0.00000000000E+00 0.  1.
          1    1    3    3  501    0 -0.15272705912E+03  0.21428051316E+02  0.13283486847E+03  0.20354316066E+03  0.00000000000E+00 0.  1.
         21    1    1    2  502  501 -0.21184914633E+02  0.23729543935E+02 -0.34704292201E+01  0.31998995958E+02  0.00000000000E+00 0. -1.
<scales pt_clust_4="550.00000" pt_clust_5="550.00000" pt_clust_6="31.81025"></scales>
<mgrwt>
<rscale>  0 0.30000000E+03</rscale>
<asrwt>  1 0.31810248E+02</asrwt>
<pdfrwt beam="1">  1        1 0.79572498E+00 0.30000000E+03</pdfrwt>
<pdfrwt beam="2">0</pdfrwt>
<totfact> 0.11344442E-03</totfact>
</mgrwt>
<clustering>
<clus scale="   31.810">  1  6  2 -1</clus>
<clus scale="  457.704">  4  5 -1 -1</clus>
<clus scale="  300.000">  1  4  2 -1</clus>
</clustering>
</event>
<event>
 6    1  0.9480355E-012  0.3000000E+03  0.7818608E-02  0.1093470E+00
          1   -1    0    0  502    0  0.00000000000E+00  0.00000000000E+00  0.22492192024E+03  0.22492192024E+03  0.00000000000E+00 0.  1.
         13   -1    0    0    0    0 -0.00000000000E+00 -0.00000000000E+00 -0.27500000000E+03  0.27500000000E+03  0.00000000000E+00 0.  1.
    9000005    2    1    2  501    0  0.10217428074E+02 -0.30771918391E+02 -0.32842134133E+02  0.46320156323E+03  0.46089670817E+03 0.  0.
         13    1    3    3    0    0 -0.16818661391E+03 -0.14969571234E+03  0.54544192746E+02  0.23166918733E+03  0.00000000000E+00 0.  1.
          3    1    3    3  501    0  0.17840404199E+03  0.11892379395E+03 -0.87386326879E+02  0.23153237590E+03  0.00000000000E+00 0.  1.
         21    1    1    2  502  501 -0.10217428074E+02  0.30771918391E+02 -0.17235945624E+02  0.36720357016E+02  0.00000000000E+00 0.  1.
<scales pt_clust_4="550.00000" pt_clust_5="550.00000" pt_clust_6="32.42388"></scales>
<mgrwt>
<rscale>  0 0.30000000E+03</rscale>
<asrwt>  1 0.32423878E+02</asrwt>
<pdfrwt beam="1">  1        1 0.81789789E+00 0.30000000E+03</pdfrwt>
<pdfrwt beam="2">0</pdfrwt>
<totfact> 0.76462729E-04</totfact>
</mgrwt>
<clustering>
<clus scale="   32.424">  1  6  2 -1</clus>
<clus scale="  460.897">  4  5 -1 -1</clus>
<clus scale="  300.000">  1  4  2 -1</clus>
</clustering>
</event>
<event>
 6    1  0.9480355E-012  0.3000000E+03  0.7818608E-02  0.1093470E+00
          1   -1    0    0  502    0  0.00000000000E+00  0.00000000000E+00  0.23932506437E+03  0.23932506437E+03  0.00000000000E+00 0.  1.
         13   -1    0    0    0    0 -0.00000000000E+00 -0.00000000000E+00 -0.27500000000E+03  0.27500000000E+03  0.00000000000E+00 0.  1.
    9000005    2    1    2  501    0  0.29185919486E+02  0.10783300277E+02 -0.33560990791E+02  0.48313907034E+03  0.48096665552E+03 0.  0.
         13    1    3    3    0    0  0.31584975640E+02  0.10979442573E+03 -0.23353523340E+03  0.25998294530E+03  0.00000000000E+00 0.  1.
          3    1    3    3  501    0 -0.23990561531E+01 -0.99011125457E+02  0.19997424261E+03  0.22315612504E+03  0.00000000000E+00 0.  1.
         21    1    1    2  502  501 -0.29185919486E+02 -0.10783300277E+02 -0.21139448354E+01  0.31185994034E+02  0.00000000000E+00 0.  1.
<scales pt_clust_4="550.00000" pt_clust_5="550.00000" pt_clust_6="31.11426"></scales>
<mgrwt>
<rscale>  0 0.30000000E+03</rscale>
<asrwt>  1 0.31114265E+02</asrwt>
<pdfrwt beam="1">  1        1 0.87027296E+00 0.30000000E+03</pdfrwt>
<pdfrwt beam="2">0</pdfrwt>
<totfact> 0.25729164E-04</totfact>
</mgrwt>
<clustering>
<clus scale="   31.114">  1  6  2 -1</clus>
<clus scale="  480.967">  4  5 -1 -1</clus>
<clus scale="  300.000">  1  4  2 -1</clus>
</clustering>
</event>
<event>
 6    1  0.9480355E-012  0.3000000E+03  0.7818608E-02  0.1093470E+00
          1   -1    0    0  502    0  0.00000000000E+00  0.00000000000E+00  0.24698986601E+03  0.24698986601E+03  0.00000000000E+00 0.  1.
         13   -1    0    0    0    0 -0.00000000000E+00 -0.00000000000E+00 -0.27500000000E+03  0.27500000000E+03  0.00000000000E+00 0.  1.
    9000005    2    1    2  501    0  0.36678770877E+02 -0.11436092363E+02 -0.42820042787E+02  0.48081402552E+03  0.47735987958E+03 0.  0.
         13    1    3    3    0    0  0.59975658085E+02  0.19334726943E+03 -0.14670846067E+03  0.25000723708E+03  0.00000000000E+00 0.  1.
          3    1    3    3  501    0 -0.23296887209E+02 -0.20478336179E+03  0.10388841789E+03  0.23080678844E+03  0.00000000000E+00 0.  1.
         21    1    1    2  502  501 -0.36678770877E+02  0.11436092363E+02  0.14809908798E+02  0.41175840491E+02  0.00000000000E+00 0.  1.
<scales pt_clust_4="550.00000" pt_clust_5="550.00000" pt_clust_6="38.42026"></scales>
<mgrwt>
<rscale>  0 0.30000000E+03</rscale>
<asrwt>  1 0.38420261E+02</asrwt>
<pdfrwt beam="1">  1        1 0.89814497E+00 0.30000000E+03</pdfrwt>
<pdfrwt beam="2">0</pdfrwt>
<totfact> 0.11424779E-04</totfact>
</mgrwt>
<clustering>
<clus scale="   38.420">  1  6  2 -1</clus>
<clus scale="  477.360">  4  5 -1 -1</clus>
<clus scale="  300.000">  1  4  2 -1</clus>
</clustering>
</event>
<event>
 6    1  0.9480355E-012  0.3000000E+03  0.7818608E-02  0.1093470E+00
          1   -1    0    0  502    0  0.00000000000E+00  0.00000000000E+00  0.24322566956E+03  0.24322566956E+03  0.00000000000E+00 0.  1.
         13   -1    0    0    0    0 -0.00000000000E+00 -0.00000000000E+00 -0.27500000000E+03  0.27500000000E+03  0.00000000000E+00 0.  1.
    9000005    2    1    2  501    0 -0.28495393150E+02 -0.15940635917E+02 -0.70020449975E+02  0.46793792788E+03  0.46151592565E+03 0.  0.
         13    1    3    3    0    0  0.17981777567E+03  0.93328913345E+02  0.42773631837E+02  0.20706110715E+03  0.00000000000E+00 0.  1.
          3    1    3    3  501    0 -0.20831316882E+03 -0.10926954926E+03 -0.11279408181E+03  0.26087682073E+03  0.00000000000E+00 0.  1.
         21    1    1    2  502  501  0.28495393150E+02  0.15940635917E+02  0.38246119535E+02  0.50287741684E+02  0.00000000000E+00 0.  1.
<scales pt_clust_4="550.00000" pt_clust_5="550.00000" pt_clust_6="32.65105"></scales>
<mgrwt>
<rscale>  0 0.30000000E+03</rscale>
<asrwt>  1 0.32651054E+02</asrwt>
<pdfrwt beam="1">  1        1 0.88445698E+00 0.30000000E+03</pdfrwt>
<pdfrwt beam="2">0</pdfrwt>
<totfact> 0.17490368E-04</totfact>
</mgrwt>
<clustering>
<clus scale="   32.651">  1  6  2 -1</clus>
<clus scale="  461.516">  4  5 -1 -1</clus>
<clus scale="  300.000">  1  4  2 -1</clus>
</clustering>
</event>
<event>
 6    1  0.9480355E-012  0.3000000E+03  0.7818608E-02  0.1093470E+00
          1   -1    0    0  502    0  0.00000000000E+00  0.00000000000E+00  0.24009452909E+03  0.24009452909E+03  0.00000000000E+00 0.  1.
         13   -1    0    0    0    0 -0.00000000000E+00 -0.00000000000E+00 -0.27500000000E+03  0.27500000000E+03  0.00000000000E+00 0.  1.
    9000005    2    1    2  501    0  0.21677247728E+02 -0.33860953826E+02 -0.55321795605E+02  0.47000247239E+03  0.46500038250E+03 0.  0.
         13    1    3    3    0    0  0.11967936203E+02  0.18741346660E+02 -0.25872729793E+03  0.25968112035E+03  0.00000000000E+00 0.  1.
          1    1    3    3  501    0  0.97093115259E+01 -0.52602300486E+02  0.20340550233E+03  0.21032135204E+03  0.00000000000E+00 0.  1.
         21    1    1    2  502  501 -0.21677247728E+02  0.33860953826E+02  0.20416324697E+02  0.45092056698E+02  0.00000000000E+00 0.  1.
<scales pt_clust_4="550.00000" pt_clust_5="550.00000" pt_clust_6="40.20531"></scales>
<mgrwt>
<rscale>  0 0.30000000E+03</rscale>
<asrwt>  1 0.40205314E+02</asrwt>
<pdfrwt beam="1">  1        1 0.87307101E+00 0.30000000E+03</pdfrwt>
<pdfrwt beam="2">0</pdfrwt>
<totfact> 0.22962802E-04</totfact>
</mgrwt>
<clustering>
<clus scale="   40.205">  1  6  2 -1</clus>
<clus scale="  465.000">  4  5 -1 -1</clus>
<clus scale="  300.000">  1  4  2 -1</clus>
</clustering>
</event>
<event>
 6    1  0.9480355E-012  0.3000000E+03  0.7818608E-02  0.1093470E+00
          1   -1    0    0  502    0  0.00000000000E+00  0.00000000000E+00  0.23496835816E+03  0.23496835816E+03  0.00000000000E+00 0.  1.
         13   -1    0    0    0    0 -0.00000000000E+00 -0.00000000000E+00 -0.27500000000E+03  0.27500000000E+03  0.00000000000E+00 0.  1.
    9000005    2    1    2  501    0 -0.47083211783E+01 -0.37939598735E+02 -0.58776383396E+02  0.46738964544E+03  0.46210046092E+03 0.  0.
         13    1    3    3    0    0 -0.55745422655E+02  0.20395267228E+03 -0.61363052381E+02  0.22015828141E+03  0.00000000000E+00 0.  1.
          1    1    3    3  501    0  0.51037101477E+02 -0.24189227101E+03  0.25866689851E+01  0.24723136403E+03  0.00000000000E+00 0.  1.
         21    1    1    2  502  501  0.47083211783E+01  0.37939598735E+02  0.18744741554E+02  0.42578712714E+02  0.00000000000E+00 0.  1.
<scales pt_clust_4="550.00000" pt_clust_5="550.00000" pt_clust_6="38.23063"></scales>
<mgrwt>
<rscale>  0 0.30000000E+03</rscale>
<asrwt>  1 0.38230635E+02</asrwt>
<pdfrwt beam="1">  1        1 0.85443039E+00 0.30000000E+03</pdfrwt>
<pdfrwt beam="2">0</pdfrwt>
<totfact> 0.36308076E-04</totfact>
</mgrwt>
<clustering>
<clus scale="   38.231">  1  6  2 -1</clus>
<clus scale="  462.100">  4  5 -1 -1</clus>
<clus scale="  300.000">  1  4  2 -1</clus>
</clustering>
</event>
<event>
 6    1  0.9480355E-012  0.3000000E+03  0.7818608E-02  0.1093470E+00
          1   -1    0    0  502    0  0.00000000000E+00  0.00000000000E+00  0.22962649062E+03  0.22962649062E+03  0.00000000000E+00 0.  1.
         13   -1    0    0    0    0 -0.00000000000E+00 -0.00000000000E+00 -0.27500000000E+03  0.27500000000E+03  0.00000000000E+00 0.  1.
    9000005    2    1    2  501    0 -0.17325892466E+00  0.32725423591E+02 -0.68708119018E+02  0.46443336465E+03  0.45815560808E+03 0.  0.
         13    1    3    3    0    0  0.64958811176E+02 -0.15772446158E+03 -0.16850497771E+03  0.23977193423E+03  0.00000000000E+00 0.  1.
          3    1    3    3  501    0 -0.65132070100E+02  0.19044988517E+03  0.99796858690E+02  0.22466143043E+03  0.00000000000E+00 0.  1.
         21    1    1    2  502  501  0.17325892466E+00 -0.32725423591E+02  0.23334609637E+02  0.40193125964E+02  0.00000000000E+00 0. -1.
<scales pt_clust_4="550.00000" pt_clust_5="550.00000" pt_clust_6="32.72588"></scales>
<mgrwt>
<rscale>  0 0.30000000E+03</rscale>
<asrwt>  1 0.32725882E+02</asrwt>
<pdfrwt beam="1">  1        1 0.83500542E+00 0.30000000E+03</pdfrwt>
<pdfrwt beam="2">0</pdfrwt>
<totfact> 0.54782330E-04</totfact>
</mgrwt>
<clustering>
<clus scale="   32.726">  1  6  2 -1</clus>
<clus scale="  458.156">  4  5 -1 -1</clus>
<clus scale="  300.000">  1  4  2 -1</clus>
</clustering>
</event>
<event>
 6    1  0.9480355E-012  0.3000000E+03  0.7818608E-02  0.1093470E+00
          1   -1    0    0  502    0  0.00000000000E+00  0.00000000000E+00  0.24048845631E+03  0.24048845631E+03  0.00000000000E+00 0.  1.
         13   -1    0    0    0    0 -0.00000000000E+00 -0.00000000000E+00 -0.27500000000E+03  0.27500000000E+03  0.00000000000E+00 0.  1.
    9000005    2    1    2  501    0 -0.31064505792E+02  0.23277973150E+01 -0.71343005699E+02  0.46724968814E+03  0.46071902983E+03 0.  0.
         13    1    3    3    0    0 -0.13850766739E+03  0.16788748368E+03  0.65258242846E+02  0.22722064026E+03  0.00000000000E+00 0.  1.
          3    1    3    3  501    0  0.10744316160E+03 -0.16555968637E+03 -0.13660124854E+03  0.24002904788E+03  0.00000000000E+00 0.  1.
         21    1    1    2  502  501  0.31064505792E+02 -0.23277973150E+01  0.36831462005E+02  0.48238768163E+02  0.00000000000E+00 0.  1.
<scales pt_clust_4="550.00000" pt_clust_5="550.00000" pt_clust_6="31.15160"></scales>
<mgrwt>
<rscale>  0 0.30000000E+03</rscale>
<asrwt>  1 0.31151600E+02</asrwt>
<pdfrwt beam="1">  1        1 0.87450348E+00 0.30000000E+03</pdfrwt>
<pdfrwt beam="2">0</pdfrwt>
<totfact> 0.23272157E-04</totfact>
</mgrwt>
<clustering>
<clus scale="   31.152">  1  6  2 -1</clus>
<clus scale="  460.719">  4  5 -1 -1</clus>
<clus scale="  300.000">  1  4  2 -1</clus>
</clustering>
</event>
<event>
 6    1  0.9480355E-012  0.3000000E+03  0.7818608E-02  0.1093470E+00
          1   -1    0    0  502    0  0.00000000000E+00  0.00000000000E+00  0.23609432021E+03  0.23609432021E+03  0.00000000000E+00 0.  1.
         13   -1    0    0    0    0 -0.00000000000E+00 -0.00000000000E+00 -0.27500000000E+03  0.27500000000E+03  0.00000000000E+00 0.  1.
    9000005    2    1    2  501    0 -0.78425161390E+01 -0.38457429364E+02 -0.62676333862E+02  0.46520834275E+03  0.45929293529E+03 0.  0.
         13    1    3    3    0    0 -0.23168503742E+03 -0.31477629830E+02 -0.59366263368E+02  0.24123256615E+03  0.00000000000E+00 0.  1.
          3    1    3    3  501    0  0.22384252128E+03 -0.69797995339E+01 -0.33100704940E+01  0.22397577660E+03  0.00000000000E+00 0.  1.
         21    1    1    2  502  501  0.78425161390E+01  0.38457429364E+02  0.23770654076E+02  0.45885977465E+02  0.00000000000E+00 0. -1.
<scales pt_clust_4="550.00000" pt_clust_5="550.00000" pt_clust_6="39.24894"></scales>
<mgrwt>
<rscale>  0 0.30000000E+03</rscale>
<asrwt>  1 0.39248935E+02</asrwt>
<pdfrwt beam="1">  1        1 0.85852480E+00 0.30000000E+03</pdfrwt>
<pdfrwt beam="2">0</pdfrwt>
<totfact> 0.32827493E-04</totfact>
</mgrwt>
<clustering>
<clus scale="   39.249">  1  6  2 -1</clus>
<clus scale="  459.293">  4  5 -1 -1</clus>
<clus scale="  300.000">  1  4  2 -1</clus>
</clustering>
</event>
<event>
 6    1  0.9480355E-012  0.3000000E+03  0.7818608E-02  0.1093470E+00
          1   -1    0    0  502    0  0.00000000000E+00  0.00000000000E+00  0.26761402120E+03  0.26761402120E+03  0.00000000000E+00 0.  1.
         13   -1    0    0    0    0 -0.00000000000E+00 -0.00000000000E+00 -0.27500000000E+03  0.27500000000E+03  0.00000000000E+00 0.  1.
    9000005    2    1    2  501    0 -0.24614125938E+02  0.19865539699E+02  0.65955585771E+01  0.50803110272E+03  0.50700256910E+03 0.  0.
         13    1    3    3    0    0  0.17991714542E+03  0.17520378939E+03  0.73610922095E+00  0.25113161667E+03  0.00000000000E+00 0.  1.
          3    1    3    3  501    0 -0.20453127136E+03 -0.15533824969E+03  0.58594493561E+01  0.25689948604E+03  0.00000000000E+00 0.  1.
         21    1    1    2  502  501  0.24614125938E+02 -0.19865539699E+02 -0.13981537379E+02  0.34582918482E+02  0.00000000000E+00 0. -1.
<scales pt_clust_4="550.00000" pt_clust_5="550.00000" pt_clust_6="31.63062"></scales>
<mgrwt>
<rscale>  0 0.30000000E+03</rscale>
<asrwt>  1 0.31630616E+02</asrwt>
<pdfrwt beam="1">  1        1 0.97314190E+00 0.30000000E+03</pdfrwt>
<pdfrwt beam="2">0</pdfrwt>
<totfact> 0.45164227E-06</totfact>
</mgrwt>
<clustering>
<clus scale="   31.631">  1  6  2 -1</clus>
<clus scale="  507.003">  4  5 -1 -1</clus>
<clus scale="  300.000">  1  4  2 -1</clus>
</clustering>
</event>
<event>
 6    1  0.9480355E-012  0.3000000E+03  0.7818608E-02  0.1093470E+00
          1   -1    0    0  502    0  0.00000000000E+00  0.00000000000E+00  0.23841424519E+03  0.23841424519E+03  0.00000000000E+00 0.  1.
         13   -1    0    0    0    0 -0.00000000000E+00 -0.00000000000E+00 -0.27500000000E+03  0.27500000000E+03  0.00000000000E+00 0.  1.
    9000005    2    1    2  501    0  0.39037661284E+02  0.50490634971E+01 -0.58923968431E+02  0.46815468456E+03  0.46276056723E+03 0.  0.
         13    1    3    3    0    0  0.22128968583E+03 -0.11051709535E+03 -0.48753678112E+02  0.25211123447E+03  0.00000000000E+00 0.  1.
          1    1    3    3  501    0 -0.18225202454E+03  0.11556615885E+03 -0.10170290319E+02  0.21604345009E+03  0.00000000000E+00 0.  1.
         21    1    1    2  502  501 -0.39037661284E+02 -0.50490634971E+01  0.22338213625E+02  0.45259560633E+02  0.00000000000E+00 0.  1.
<scales pt_clust_4="550.00000" pt_clust_5="550.00000" pt_clust_6="39.36283"></scales>
<mgrwt>
<rscale>  0 0.30000000E+03</rscale>
<asrwt>  1 0.39362826E+02</asrwt>
<pdfrwt beam="1">  1        1 0.86696089E+00 0.30000000E+03</pdfrwt>
<pdfrwt beam="2">0</pdfrwt>
<totfact> 0.26642035E-04</totfact>
</mgrwt>
<clustering>
<clus scale="   39.363">  1  6  2 -1</clus>
<clus scale="  462.761">  4  5 -1 -1</clus>
<clus scale="  300.000">  1  4  2 -1</clus>
</clustering>
</event>
<event>
 6    1  0.9480355E-012  0.3000000E+03  0.7818608E-02  0.1093470E+00
          1   -1    0    0  502    0  0.00000000000E+00  0.00000000000E+00  0.23767548942E+03  0.23767548942E+03  0.00000000000E+00 0.  1.
         13   -1    0    0    0    0 -0.00000000000E+00 -0.00000000000E+00 -0.27500000000E+03  0.27500000000E+03  0.00000000000E+00 0.  1.
    9000005    2    1    2  501    0 -0.28872310952E+02 -0.92883743288E+01 -0.66381318844E+02  0.47067331872E+03  0.46498065468E+03 0.  0.
         13    1    3    3    0    0 -0.56612849357E+02 -0.18110648631E+03 -0.18103748065E+03  0.26225778063E+03  0.00000000000E+00 0.  1.
          1    1    3    3  501    0  0.27740538405E+02  0.17181811198E+03  0.11465616181E+03  0.20841553809E+03  0.00000000000E+00 0.  1.
         21    1    1    2  502  501  0.28872310952E+02  0.92883743288E+01  0.29056808264E+02  0.42002170704E+02  0.00000000000E+00 0.  1.
<scales pt_clust_4="550.00000" pt_clust_5="550.00000" pt_clust_6="30.32959"></scales>
<mgrwt>
<rscale>  0 0.30000000E+03</rscale>
<asrwt>  1 0.30329593E+02</asrwt>
<pdfrwt beam="1">  1        1 0.86427451E+00 0.30000000E+03</pdfrwt>
<pdfrwt beam="2">0</pdfrwt>
<totfact> 0.29890057E-04</totfact>
</mgrwt>
<clustering>
<clus scale="   30.330">  1  6  2 -1</clus>
<clus scale="  464.981">  4  5 -1 -1</clus>
<clus scale="  300.000">  1  4  2 -1</clus>
</clustering>
</event>
<event>
 6    1  0.9480355E-012  0.3000000E+03  0.7818608E-02  0.1093470E+00
          1   -1    0    0  502    0  0.00000000000E+00  0.00000000000E+00  0.23130841253E+03  0.23130841253E+03  0.00000000000E+00 0.  1.
         13   -1    0    0    0    0 -0.00000000000E+00 -0.00000000000E+00 -0.27500000000E+03  0.27500000000E+03  0.00000000000E+00 0.  1.
    9000005    2    1    2  501    0 -0.22633176304E+02 -0.22198080615E+02 -0.65610532116E+02  0.46776680402E+03  0.46205630129E+03 0.  0.
         13    1    3    3    0    0 -0.24086866180E+01  0.42443385417E+01 -0.26528821070E+03  0.26533309428E+03  0.00000000000E+00 0.  1.
          3    1    3    3  501    0 -0.20224489686E+02 -0.26442419157E+02  0.19967767858E+03  0.20243370974E+03  0.00000000000E+00 0.  1.
         21    1    1    2  502  501  0.22633176304E+02  0.22198080615E+02  0.21918944650E+02  0.38541608518E+02  0.00000000000E+00 0. -1.
<scales pt_clust_4="550.00000" pt_clust_5="550.00000" pt_clust_6="31.70198"></scales>
<mgrwt>
<rscale>  0 0.30000000E+03</rscale>
<asrwt>  1 0.31701979E+02</asrwt>
<pdfrwt beam="1">  1        1 0.84112150E+00 0.30000000E+03</pdfrwt>
<pdfrwt beam="2">0</pdfrwt>
<totfact> 0.49629299E-04</totfact>
</mgrwt>
<clustering>
<clus scale="   31.702">  1  6  2 -1</clus>
<clus scale="  462.056">  4  5 -1 -1</clus>
<clus scale="  300.000">  1  4  2 -1</clus>
</clustering>
</event>
<event>
 6    1  0.9480355E-012  0.3000000E+03  0.7818608E-02  0.1093470E+00
          1   -1    0    0  502    0  0.00000000000E+00  0.00000000000E+00  0.26935538056E+03  0.26935538056E+03  0.00000000000E+00 0.  1.
         13   -1    0    0    0    0 -0.00000000000E+00 -0.00000000000E+00 -0.27500000000E+03  0.27500000000E+03  0.00000000000E+00 0.  1.
    9000005    2    1    2  501    0 -0.27070238702E+02  0.16541665680E+02 -0.77502573268E+02  0.46580609632E+03  0.45821637463E+03 0.  0.
         13    1    3    3    0    0 -0.18937578720E+03 -0.13597630422E+03 -0.11117374506E+02  0.23340167116E+03  0.00000000000E+00 0.  1.
          1    1    3    3  501    0  0.16230554850E+03  0.15251796990E+03 -0.66385198762E+02  0.23240442515E+03  0.00000000000E+00 0.  1.
         21    1    1    2  502  501  0.27070238702E+02 -0.16541665680E+02  0.71857953825E+02  0.78549284242E+02  0.00000000000E+00 0. -1.
<scales pt_clust_4="550.00000" pt_clust_5="550.00000" pt_clust_6="31.72419"></scales>
<mgrwt>
<rscale>  0 0.30000000E+03</rscale>
<asrwt>  1 0.31724195E+02</asrwt>
<pdfrwt beam="1">  1        1 0.97947411E+00 0.30000000E+03</pdfrwt>
<pdfrwt beam="2">0</pdfrwt>
<totfact> 0.30583561E-06</totfact>
</mgrwt>
<clustering>
<clus scale="   31.724">  1  6  2 -1</clus>
<clus scale="  458.216">  4  5 -1 -1</clus>
<clus scale="  300.000">  1  4  2 -1</clus>
</clustering>
</event>
<event>
 6    1  0.9480355E-012  0.3000000E+03  0.7818608E-02  0.1093470E+00
          1   -1    0    0  502    0  0.00000000000E+00  0.00000000000E+00  0.24237789442E+03  0.24237789442E+03  0.00000000000E+00 0.  1.
         13   -1    0    0    0    0 -0.00000000000E+00 -0.00000000000E+00 -0.27500000000E+03  0.27500000000E+03  0.00000000000E+00 0.  1.
    9000005    2    1    2  501    0 -0.26295359411E+02  0.24788279888E+02 -0.31914128819E+02  0.48123365591E+03  0.47881250528E+03 0.  0.
         13    1    3    3    0    0 -0.15638067687E+03  0.18097705113E+03  0.76171290489E+02  0.25101727954E+03  0.00000000000E+00 0.  1.
          1    1    3    3  501    0  0.13008531746E+03 -0.15618877124E+03 -0.10808541931E+03  0.23021637637E+03  0.00000000000E+00 0.  1.
         21    1    1    2  502  501  0.26295359411E+02 -0.24788279888E+02 -0.70797676200E+00  0.36144238510E+02  0.00000000000E+00 0. -1.
<scales pt_clust_4="550.00000" pt_clust_5="550.00000" pt_clust_6="36.13730"></scales>
<mgrwt>
<rscale>  0 0.30000000E+03</rscale>
<asrwt>  1 0.36137304E+02</asrwt>
<pdfrwt beam="1">  1        1 0.88137416E+00 0.30000000E+03</pdfrwt>
<pdfrwt beam="2">0</pdfrwt>
<totfact> 0.18854724E-04</totfact>
</mgrwt>
<clustering>
<clus scale="   36.137">  1  6  2 -1</clus>
<clus scale="  478.813">  4  5 -1 -1</clus>
<clus scale="  300.000">  1  4  2 -1</clus>
</clustering>
</event>
<event>
 6    1  0.9480355E-012  0.3000000E+03  0.7818608E-02  0.1093470E+00
          1   -1    0    0  502    0  0.00000000000E+00  0.00000000000E+00  0.23273846943E+03  0.23273846943E+03  0.00000000000E+00 0.  1.
         13   -1    0    0    0    0 -0.00000000000E+00 -0.00000000000E+00 -0.27500000000E+03  0.27500000000E+03  0.00000000000E+00 0.  1.
    9000005    2    1    2  501    0  0.29532607129E+02  0.13665120304E+02 -0.55994036984E+02  0.47241861483E+03  0.46795844373E+03 0.  0.
         13    1    3    3    0    0  0.21310823055E+03 -0.19148811559E+02 -0.15220272936E+03  0.26257849443E+03  0.00000000000E+00 0.  1.
          1    1    3    3  501    0 -0.18357562342E+03  0.32813931862E+02  0.96208692380E+02  0.20984012040E+03  0.00000000000E+00 0.  1.
         21    1    1    2  502  501 -0.29532607129E+02 -0.13665120304E+02  0.13732506415E+02  0.35319854603E+02  0.00000000000E+00 0. -1.
<scales pt_clust_4="550.00000" pt_clust_5="550.00000" pt_clust_6="32.54090"></scales>
<mgrwt>
<rscale>  0 0.30000000E+03</rscale>
<asrwt>  1 0.32540903E+02</asrwt>
<pdfrwt beam="1">  1        1 0.84632171E+00 0.30000000E+03</pdfrwt>
<pdfrwt beam="2">0</pdfrwt>
<totfact> 0.44591366E-04</totfact>
</mgrwt>
<clustering>
<clus scale="   32.541">  1  6  2 -1</clus>
<clus scale="  467.958">  4  5 -1 -1</clus>
<clus scale="  300.000">  1  4  2 -1</clus>
</clustering>
</event>
<event>
 6    1  0.9480355E-012  0.3000000E+03  0.7818608E-02  0.1093470E+00
          1   -1    0    0  502    0  0.00000000000E+00  0.00000000000E+00  0.24470549642E+03  0.24470549642E+03  0.00000000000E+00 0.  1.
         13   -1    0    0    0    0 -0.00000000000E+00 -0.00000000000E+00 -0.27500000000E+03  0.27500000000E+03  0.00000000000E+00 0.  1.
    9000005    2    1    2  501    0 -0.27737471524E+02  0.27252959932E+02 -0.64993341271E+02  0.46758927544E+03  0.46141467787E+03 0.  0.
         13    1    3    3    0    0 -0.23301999099E+03  0.79106623912E+02  0.90522873841E-01  0.24608165788E+03  0.00000000000E+00 0.  1.
          3    1    3    3  501    0  0.20528251947E+03 -0.51853663980E+02 -0.65083864145E+02  0.22150761757E+03  0.00000000000E+00 0.  1.
         21    1    1    2  502  501  0.27737471524E+02 -0.27252959932E+02  0.34698837688E+02  0.52116220972E+02  0.00000000000E+00 0. -1.
<scales pt_clust_4="550.00000" pt_clust_5="550.00000" pt_clust_6="38.88562"></scales>
<mgrwt>
<rscale>  0 0.30000000E+03</rscale>
<asrwt>  1 0.38885616E+02</asrwt>
<pdfrwt beam="1">  1        1 0.88983817E+00 0.30000000E+03</pdfrwt>
<pdfrwt beam="2">0</pdfrwt>
<totfact> 0.14286416E-04</totfact>
</mgrwt>
<clustering>
<clus scale="   38.886">  1  6  2 -1</clus>
<clus scale="  461.415">  4  5 -1 -1</clus>
<clus scale="  300.000">  1  4  2 -1</clus>
</clustering>
</event>
<event>
 6    1  0.9480355E-012  0.3000000E+03  0.7818608E-02  0.1093470E+00
          1   -1    0    0  502    0  0.00000000000E+00  0.00000000000E+00  0.24835158171E+03  0.24835158171E+03  0.00000000000E+00 0.  1.
         13   -1    0    0    0    0 -0.00000000000E+00 -0.00000000000E+00 -0.27500000000E+03  0.27500000000E+03  0.00000000000E+00 0.  1.
    9000005    2    1    2  501    0 -0.25121856124E+02  0.22901312220E+02 -0.68883432062E+02  0.46913558642E+03  0.46280416321E+03 0.  0.
         13    1    3    3    0    0  0.15433830572E+03 -0.40610209701E+02 -0.18642419744E+03  0.24540473332E+03  0.00000000000E+00 0.  1.
          1    1    3    3  501    0 -0.17946016184E+03  0.63511521921E+02  0.11754076538E+03  0.22373085311E+03  0.00000000000E+00 0.  1.
         21    1    1    2  502  501  0.25121856124E+02 -0.22901312220E+02  0.42235013773E+02  0.54215995287E+02  0.00000000000E+00 0. -1.
<scales pt_clust_4="550.00000" pt_clust_5="550.00000" pt_clust_6="33.99379"></scales>
<mgrwt>
<rscale>  0 0.30000000E+03</rscale>
<asrwt>  1 0.33993790E+02</asrwt>
<pdfrwt beam="1">  1        1 0.90309666E+00 0.30000000E+03</pdfrwt>
<pdfrwt beam="2">0</pdfrwt>
<totfact> 0.10040315E-04</totfact>
</mgrwt>
<clustering>
<clus scale="   33.994">  1  6  2 -1</clus>
<clus scale="  462.804">  4  5 -1 -1</clus>
<clus scale="  300.000">  1  4  2 -1</clus>
</clustering>
</event>
<event>
 6    1  0.9480355E-012  0.3000000E+03  0.7818608E-02  0.1093470E+00
          1   -1    0    0  502    0  0.00000000000E+00  0.00000000000E+00  0.23589633804E+03  0.23589633804E+03  0.00000000000E+00 0.  1.
         13   -1    0    0    0    0 -0.00000000000E+00 -0.00000000000E+00 -0.27500000000E+03  0.27500000000E+03  0.00000000000E+00 0.  1.
    9000005    2    1    2  501    0  0.22611238184E+02 -0.20613836134E+02 -0.40037520714E+02  0.48028473200E+03  0.47763398371E+03 0.  0.
         13    1    3    3    0    0  0.13957314526E+03 -0.38654515727E+02  0.17964486796E+03  0.23075335978E+03  0.00000000000E+00 0.  1.
          1    1    3    3  501    0 -0.11696190707E+03  0.18040679593E+02 -0.21968238868E+03  0.24953137222E+03  0.00000000000E+00 0.  1.
         21    1    1    2  502  501 -0.22611238184E+02  0.20613836134E+02  0.93385875309E+00  0.30611606043E+02  0.00000000000E+00 0. -1.
<scales pt_clust_4="550.00000" pt_clust_5="550.00000" pt_clust_6="30.59736"></scales>
<mgrwt>
<rscale>  0 0.30000000E+03</rscale>
<asrwt>  1 0.30597358E+02</asrwt>
<pdfrwt beam="1">  1        1 0.85780487E+00 0.30000000E+03</pdfrwt>
<pdfrwt beam="2">0</pdfrwt>
<totfact> 0.34997109E-04</totfact>
</mgrwt>
<clustering>
<clus scale="   30.597">  1  6  2 -1</clus>
<clus scale="  477.634">  4  5 -1 -1</clus>
<clus scale="  300.000">  1  4  2 -1</clus>
</clustering>
</event>
<event>
 6    1  0.9480355E-012  0.3000000E+03  0.7818608E-02  0.1093470E+00
          1   -1    0    0  502    0  0.00000000000E+00  0.00000000000E+00  0.22727701306E+03  0.22727701306E+03  0.00000000000E+00 0.  1.
         13   -1    0    0    0    0 -0.00000000000E+00 -0.00000000000E+00 -0.27500000000E+03  0.27500000000E+03  0.00000000000E+00 0.  1.
    9000005    2    1    2  501    0 -0.28784144242E+02  0.12497670336E+02 -0.69203622685E+02  0.46424891245E+03  0.45798820137E+03 0.  0.
         13    1    3    3    0    0 -0.20569171114E+03 -0.11990080553E+03 -0.37425125328E+02  0.24101021390E+03  0.00000000000E+00 0.  1.
          3    1    3    3  501    0  0.17690756690E+03  0.13239847587E+03 -0.31778497357E+02  0.22323869855E+03  0.00000000000E+00 0.  1.
         21    1    1    2  502  501  0.28784144242E+02 -0.12497670336E+02  0.21480635742E+02  0.38028100603E+02  0.00000000000E+00 0.  1.
<scales pt_clust_4="550.00000" pt_clust_5="550.00000" pt_clust_6="31.38023"></scales>
<mgrwt>
<rscale>  0 0.30000000E+03</rscale>
<asrwt>  1 0.31380228E+02</asrwt>
<pdfrwt beam="1">  1        1 0.82646187E+00 0.30000000E+03</pdfrwt>
<pdfrwt beam="2">0</pdfrwt>
<totfact> 0.64712423E-04</totfact>
</mgrwt>
<clustering>
<clus scale="   31.380">  1  6  2 -1</clus>
<clus scale="  457.988">  4  5 -1 -1</clus>
<clus scale="  300.000">  1  4  2 -1</clus>
</clustering>
</event>
<event>
 6    1  0.9480355E-012  0.3000000E+03  0.7818608E-02  0.1093470E+00
          1   -1    0    0  502    0  0.00000000000E+00  0.00000000000E+00  0.22278603238E+03  0.22278603238E+03  0.00000000000E+00 0.  1.
         13   -1    0    0    0    0 -0.00000000000E+00 -0.00000000000E+00 -0.27500000000E+03  0.27500000000E+03  0.00000000000E+00 0.  1.
    9000005    2    1    2  501    0  0.99704113097E+00  0.30855984521E+02 -0.54241778168E+02  0.46684741755E+03  0.46265673550E+03 0.  0.
         13    1    3    3    0    0  0.21163892016E+03  0.65366952197E+02  0.53315040633E+02  0.22782968315E+03  0.00000000000E+00 0.  1.
          3    1    3    3  501    0 -0.21064187903E+03 -0.34510967676E+02 -0.10755681880E+03  0.23901773441E+03  0.00000000000E+00 0.  1.
         21    1    1    2  502  501 -0.99704113097E+00 -0.30855984521E+02  0.20278105487E+01  0.30938614827E+02  0.00000000000E+00 0. -1.
<scales pt_clust_4="550.00000" pt_clust_5="550.00000" pt_clust_6="30.87209"></scales>
<mgrwt>
<rscale>  0 0.30000000E+03</rscale>
<asrwt>  1 0.30872089E+02</asrwt>
<pdfrwt beam="1">  1        1 0.81013103E+00 0.30000000E+03</pdfrwt>
<pdfrwt beam="2">0</pdfrwt>
<totfact> 0.89100762E-04</totfact>
</mgrwt>
<clustering>
<clus scale="   30.872">  1  6  2 -1</clus>
<clus scale="  462.657">  4  5 -1 -1</clus>
<clus scale="  300.000">  1  4  2 -1</clus>
</clustering>
</event>
<event>
 6    1  0.9480355E-012  0.3000000E+03  0.7818608E-02  0.1093470E+00
          1   -1    0    0  502    0  0.00000000000E+00  0.00000000000E+00  0.24395419724E+03  0.24395419724E+03  0.00000000000E+00 0.  1.
         13   -1    0    0    0    0 -0.00000000000E+00 -0.00000000000E+00 -0.27500000000E+03  0.27500000000E+03  0.00000000000E+00 0.  1.
    9000005    2    1    2  501    0  0.13007207641E+02 -0.55680187626E+02 -0.35407536206E+02  0.46160879233E+03  0.45668316456E+03 0.  0.
         13    1    3    3    0    0  0.77978712851E+02 -0.24506720313E+03  0.55800694835E+01  0.25723481662E+03  0.00000000000E+00 0.  1.
          1    1    3    3  501    0 -0.64971505210E+02  0.18938701550E+03 -0.40987605689E+02  0.20437397571E+03  0.00000000000E+00 0.  1.
         21    1    1    2  502  501 -0.13007207641E+02  0.55680187626E+02  0.43617334420E+01  0.57345404902E+02  0.00000000000E+00 0.  1.
<scales pt_clust_4="550.00000" pt_clust_5="550.00000" pt_clust_6="57.17929"></scales>
<mgrwt>
<rscale>  0 0.30000000E+03</rscale>
<asrwt>  1 0.57179286E+02</asrwt>
<pdfrwt beam="1">  1        1 0.88710617E+00 0.30000000E+03</pdfrwt>
<pdfrwt beam="2">0</pdfrwt>
<totfact> 0.14538677E-04</totfact>
</mgrwt>
<clustering>
<clus scale="   57.179">  1  6  2 -1</clus>
<clus scale="  456.683">  4  5 -1 -1</clus>
<clus scale="  300.000">  1  4  2 -1</clus>
</clustering>
</event>
<event>
 6    1  0.9480355E-012  0.3000000E+03  0.7818608E-02  0.1093470E+00
          1   -1    0    0  502    0  0.00000000000E+00  0.00000000000E+00  0.25584890477E+03  0.25584890477E+03  0.00000000000E+00 0.  1.
         13   -1    0    0    0    0 -0.00000000000E+00 -0.00000000000E+00 -0.27500000000E+03  0.27500000000E+03  0.00000000000E+00 0.  1.
    9000005    2    1    2  501    0 -0.23107989329E+02 -0.34197904322E+02 -0.41515068405E+02  0.48390614040E+03  0.48035213747E+03 0.  0.
         13    1    3    3    0    0  0.27026025058E+02 -0.19713311256E+03  0.13348045341E+03  0.23960154745E+03  0.00000000000E+00 0.  1.
          1    1    3    3  501    0 -0.50134014387E+02  0.16293520823E+03 -0.17499552181E+03  0.24430459295E+03  0.00000000000E+00 0.  1.
         21    1    1    2  502  501  0.23107989329E+02  0.34197904322E+02  0.22363973172E+02  0.46942764372E+02  0.00000000000E+00 0. -1.
<scales pt_clust_4="550.00000" pt_clust_5="550.00000" pt_clust_6="41.27319"></scales>
<mgrwt>
<rscale>  0 0.30000000E+03</rscale>
<asrwt>  1 0.41273185E+02</asrwt>
<pdfrwt beam="1">  1        1 0.93035965E+00 0.30000000E+03</pdfrwt>
<pdfrwt beam="2">0</pdfrwt>
<totfact> 0.25176792E-05</totfact>
</mgrwt>
<clustering>
<clus scale="   41.273">  1  6  2 -1</clus>
<clus scale="  480.352">  4  5 -1 -1</clus>
<clus scale="  300.000">  1  4  2 -1</clus>
</clustering>
</event>
<event>
 6    1  0.9480355E-012  0.3000000E+03  0.7818608E-02  0.1093470E+00
          1   -1    0    0  502    0  0.00000000000E+00  0.00000000000E+00  0.25626651120E+03  0.25626651120E+03  0.00000000000E+00 0.  1.
         13   -1    0    0    0    0 -0.00000000000E+00 -0.00000000000E+00 -0.27500000000E+03  0.27500000000E+03  0.00000000000E+00 0.  1.
    9000005    2    1    2  501    0  0.20471217338E+02  0.37519252404E+02 -0.51548150196E+02  0.47738175415E+03  0.47266199589E+03 0.  0.
         13    1    3    3    0    0  0.62714302713E+01  0.24338056514E+03  0.48200469779E+02  0.24818685625E+03  0.00000000000E+00 0.  1.
          1    1    3    3  501    0  0.14199787067E+02 -0.20586131274E+03 -0.99748619975E+02  0.22919489790E+03  0.00000000000E+00 0.  1.
         21    1    1    2  502  501 -0.20471217338E+02 -0.37519252404E+02  0.32814661400E+02  0.53884757057E+02  0.00000000000E+00 0.  1.
<scales pt_clust_4="550.00000" pt_clust_5="550.00000" pt_clust_6="42.74067"></scales>
<mgrwt>
<rscale>  0 0.30000000E+03</rscale>
<asrwt>  1 0.42740672E+02</asrwt>
<pdfrwt beam="1">  1        1 0.93187822E+00 0.30000000E+03</pdfrwt>
<pdfrwt beam="2">0</pdfrwt>
<totfact> 0.23780351E-05</totfact>
</mgrwt>
<clustering>
<clus scale="   42.741">  1  6  2 -1</clus>
<clus scale="  472.662">  4  5 -1 -1</clus>
<clus scale="  300.000">  1  4  2 -1</clus>
</clustering>
</event>
<event>
 6    1  0.9480355E-012  0.3000000E+03  0.7818608E-02  0.1093470E+00
          1   -1    0    0  502    0  0.00000000000E+00  0.00000000000E+00  0.23001611509E+03  0.23001611509E+03  0.00000000000E+00 0.  1.
         13   -1    0    0    0    0 -0.00000000000E+00 -0.00000000000E+00 -0.27500000000E+03  0.27500000000E+03  0.00000000000E+00 0.  1.
    9000005    2    1    2  501    0 -0.26109529333E+02 -0.19497710997E+02 -0.52453737498E+02  0.47158458875E+03  0.46752407586E+03 0.  0.
         13    1    3    3    0    0  0.10183990600E+03 -0.57503499208E+02 -0.22491545048E+03  0.25350538207E+03  0.00000000000E+00 0.  1.
          1    1    3    3  501    0 -0.12794943534E+03  0.38005788211E+02  0.17246171298E+03  0.21807920668E+03  0.00000000000E+00 0.  1.
         21    1    1    2  502  501  0.26109529333E+02  0.19497710997E+02  0.74698525914E+01  0.33431526347E+02  0.00000000000E+00 0. -1.
<scales pt_clust_4="550.00000" pt_clust_5="550.00000" pt_clust_6="32.58632"></scales>
<mgrwt>
<rscale>  0 0.30000000E+03</rscale>
<asrwt>  1 0.32586320E+02</asrwt>
<pdfrwt beam="1">  1        1 0.83642224E+00 0.30000000E+03</pdfrwt>
<pdfrwt beam="2">0</pdfrwt>
<totfact> 0.53542129E-04</totfact>
</mgrwt>
<clustering>
<clus scale="   32.586">  1  6  2 -1</clus>
<clus scale="  467.524">  4  5 -1 -1</clus>
<clus scale="  300.000">  1  4  2 -1</clus>
</clustering>
</event>
<event>
 6    1  0.9480355E-012  0.3000000E+03  0.7818608E-02  0.1093470E+00
          1   -1    0    0  502    0  0.00000000000E+00  0.00000000000E+00  0.24456388091E+03  0.24456388091E+03  0.00000000000E+00 0.  1.
         13   -1    0    0    0    0 -0.00000000000E+00 -0.00000000000E+00 -0.27500000000E+03  0.27500000000E+03  0.00000000000E+00 0.  1.
    9000005    2    1    2  501    0 -0.26876271258E+02 -0.14778668026E+02 -0.36677921296E+02  0.48826367196E+03  0.48591707159E+03 0.  0.
         13    1    3    3    0    0  0.16493661766E+03 -0.59340943844E+02  0.13951059810E+03  0.22402821796E+03  0.00000000000E+00 0.  1.
          1    1    3    3  501    0 -0.19181288892E+03  0.44562275818E+02 -0.17618851940E+03  0.26423545400E+03  0.00000000000E+00 0.  1.
         21    1    1    2  502  501  0.26876271258E+02  0.14778668026E+02  0.62418022035E+01  0.31300208947E+02  0.00000000000E+00 0. -1.
<scales pt_clust_4="550.00000" pt_clust_5="550.00000" pt_clust_6="30.67153"></scales>
<mgrwt>
<rscale>  0 0.30000000E+03</rscale>
<asrwt>  1 0.30671534E+02</asrwt>
<pdfrwt beam="1">  1        1 0.88932320E+00 0.30000000E+03</pdfrwt>
<pdfrwt beam="2">0</pdfrwt>
<totfact> 0.15176291E-04</totfact>
</mgrwt>
<clustering>
<clus scale="   30.672">  1  6  2 -1</clus>
<clus scale="  485.917">  4  5 -1 -1</clus>
<clus scale="  300.000">  1  4  2 -1</clus>
</clustering>
</event>
<event>
 6    1  0.9480355E-012  0.3000000E+03  0.7818608E-02  0.1093470E+00
          1   -1    0    0  502    0  0.00000000000E+00  0.00000000000E+00  0.21976893691E+03  0.21976893691E+03  0.00000000000E+00 0.  1.
         13   -1    0    0    0    0 -0.00000000000E+00 -0.00000000000E+00 -0.27500000000E+03  0.27500000000E+03  0.00000000000E+00 0.  1.
    9000005    2    1    2  501    0 -0.28629141807E+02  0.10163141147E+02 -0.60575596668E+02  0.46392284740E+03  0.45894671611E+03 0.  0.
         13    1    3    3    0    0 -0.23734543615E+03  0.13315669596E+00 -0.88082886712E+02  0.25316292920E+03  0.00000000000E+00 0.  1.
          1    1    3    3  501    0  0.20871629434E+03  0.10029984451E+02  0.27507290044E+02  0.21075991820E+03  0.00000000000E+00 0.  1.
         21    1    1    2  502  501  0.28629141807E+02 -0.10163141147E+02  0.53445335733E+01  0.30846089504E+02  0.00000000000E+00 0. -1.
<scales pt_clust_4="550.00000" pt_clust_5="550.00000" pt_clust_6="30.37955"></scales>
<mgrwt>
<rscale>  0 0.30000000E+03</rscale>
<asrwt>  1 0.30379552E+02</asrwt>
<pdfrwt beam="1">  1        1 0.79915977E+00 0.30000000E+03</pdfrwt>
<pdfrwt beam="2">0</pdfrwt>
<totfact> 0.10802418E-03</totfact>
</mgrwt>
<clustering>
<clus scale="   30.380">  1  6  2 -1</clus>
<clus scale="  458.947">  4  5 -1 -1</clus>
<clus scale="  300.000">  1  4  2 -1</clus>
</clustering>
</event>
<event>
 6    1  0.9480355E-012  0.3000000E+03  0.7818608E-02  0.1093470E+00
          1   -1    0    0  502    0  0.00000000000E+00  0.00000000000E+00  0.22132112871E+03  0.22132112871E+03  0.00000000000E+00 0.  1.
         13   -1    0    0    0    0 -0.00000000000E+00 -0.00000000000E+00 -0.27500000000E+03  0.27500000000E+03  0.00000000000E+00 0.  1.
    9000005    2    1    2  501    0 -0.42587566833E+01  0.29773286631E+02 -0.51129436824E+02  0.46613694045E+03  0.46234710157E+03 0.  0.
         13    1    3    3    0    0 -0.50197451210E+02 -0.97565096215E+02 -0.22230157263E+03  0.24790466172E+03  0.00000000000E+00 0.  1.
          1    1    3    3  501    0  0.45938694526E+02  0.12733838285E+03  0.17117213581E+03  0.21823227873E+03  0.00000000000E+00 0.  1.
         21    1    1    2  502  501  0.42587566833E+01 -0.29773286631E+02 -0.25494344624E+01  0.30184188267E+02  0.00000000000E+00 0. -1.
<scales pt_clust_4="550.00000" pt_clust_5="550.00000" pt_clust_6="30.07633"></scales>
<mgrwt>
<rscale>  0 0.30000000E+03</rscale>
<asrwt>  1 0.30076330E+02</asrwt>
<pdfrwt beam="1">  1        1 0.80480410E+00 0.30000000E+03</pdfrwt>
<pdfrwt beam="2">0</pdfrwt>
<totfact> 0.98410484E-04</totfact>
</mgrwt>
<clustering>
<clus scale="   30.076">  1  6  2 -1</clus>
<clus scale="  462.347">  4  5 -1 -1</clus>
<clus scale="  300.000">  1  4  2 -1</clus>
</clustering>
</event>
<event>
 6    1  0.9480355E-012  0.3000000E+03  0.7818608E-02  0.1093470E+00
          1   -1    0    0  502    0  0.00000000000E+00  0.00000000000E+00  0.25753287910E+03  0.25753287910E+03  0.00000000000E+00 0.  1.
         13   -1    0    0    0    0 -0.00000000000E+00 -0.00000000000E+00 -0.27500000000E+03  0.27500000000E+03  0.00000000000E+00 0.  1.
    9000005    2    1    2  501    0  0.55240959075E+02 -0.62839305780E+01 -0.23607191320E+01  0.47491990559E+03  0.47164848392E+03 0.  0.
         13    1    3    3    0    0 -0.97112139721E+02 -0.25992464312E+02  0.19822791445E+03  0.22226264182E+03  0.00000000000E+00 0.  1.
          3    1    3    3  501    0  0.15235309880E+03  0.19708533734E+02 -0.20058863358E+03  0.25265726377E+03  0.00000000000E+00 0.  1.
         21    1    1    2  502  501 -0.55240959075E+02  0.62839305780E+01 -0.15106401765E+02  0.57612973515E+02  0.00000000000E+00 0. -1.
<scales pt_clust_4="550.00000" pt_clust_5="550.00000" pt_clust_6="55.59725"></scales>
<mgrwt>
<rscale>  0 0.30000000E+03</rscale>
<asrwt>  1 0.55597252E+02</asrwt>
<pdfrwt beam="1">  1        1 0.93648320E+00 0.30000000E+03</pdfrwt>
<pdfrwt beam="2">0</pdfrwt>
<totfact> 0.19874646E-05</totfact>
</mgrwt>
<clustering>
<clus scale="   55.597">  1  6  2 -1</clus>
<clus scale="  471.648">  4  5 -1 -1</clus>
<clus scale="  300.000">  1  4  2 -1</clus>
</clustering>
</event>
<event>
 6    1  0.9480355E-012  0.3000000E+03  0.7818608E-02  0.1093470E+00
          1   -1    0    0  502    0  0.00000000000E+00  0.00000000000E+00  0.24993979013E+03  0.24993979013E+03  0.00000000000E+00 0.  1.
         13   -1    0    0    0    0 -0.00000000000E+00 -0.00000000000E+00 -0.27500000000E+03  0.27500000000E+03  0.00000000000E+00 0.  1.
    9000005    2    1    2  501    0  0.31353662638E+02  0.33592997973E+02 -0.31043075247E+02  0.47860042941E+03  0.47537685770E+03 0.  0.
         13    1    3    3    0    0  0.61800329628E+02 -0.21535858678E+03 -0.40193181943E+02  0.22762709311E+03  0.00000000000E+00 0.  1.
          3    1    3    3  501    0 -0.30446666990E+02  0.24895158475E+03  0.91501066955E+01  0.25097333630E+03  0.00000000000E+00 0.  1.
         21    1    1    2  502  501 -0.31353662638E+02 -0.33592997973E+02  0.59828653755E+01  0.46339360718E+02  0.00000000000E+00 0. -1.
<scales pt_clust_4="550.00000" pt_clust_5="550.00000" pt_clust_6="45.95151"></scales>
<mgrwt>
<rscale>  0 0.30000000E+03</rscale>
<asrwt>  1 0.45951514E+02</asrwt>
<pdfrwt beam="1">  1        1 0.90887196E+00 0.30000000E+03</pdfrwt>
<pdfrwt beam="2">0</pdfrwt>
<totfact> 0.72754139E-05</totfact>
</mgrwt>
<clustering>
<clus scale="   45.952">  1  6  2 -1</clus>
<clus scale="  475.377">  4  5 -1 -1</clus>
<clus scale="  300.000">  1  4  2 -1</clus>
</clustering>
</event>
<event>
 6    1  0.9480355E-012  0.3000000E+03  0.7818608E-02  0.1093470E+00
          1   -1    0    0  502    0  0.00000000000E+00  0.00000000000E+00  0.24624936459E+03  0.24624936459E+03  0.00000000000E+00 0.  1.
         13   -1    0    0    0    0 -0.00000000000E+00 -0.00000000000E+00 -0.27500000000E+03  0.27500000000E+03  0.00000000000E+00 0.  1.
    9000005    2    1    2  501    0  0.23308000025E+02 -0.27211839227E+02 -0.31618733757E+02  0.48530533800E+03  0.48294697401E+03 0.  0.
         13    1    3    3    0    0  0.18082504629E+03 -0.17417168978E+03 -0.81905253051E+02  0.26408700340E+03  0.00000000000E+00 0.  1.
          1    1    3    3  501    0 -0.15751704627E+03  0.14695985056E+03  0.50286519294E+02  0.22121833460E+03  0.00000000000E+00 0.  1.
         21    1    1    2  502  501 -0.23308000025E+02  0.27211839227E+02  0.28680983440E+01  0.35944026588E+02  0.00000000000E+00 0.  1.
<scales pt_clust_4="550.00000" pt_clust_5="550.00000" pt_clust_6="35.82942"></scales>
<mgrwt>
<rscale>  0 0.30000000E+03</rscale>
<asrwt>  1 0.35829416E+02</asrwt>
<pdfrwt beam="1">  1        1 0.89545223E+00 0.30000000E+03</pdfrwt>
<pdfrwt beam="2">0</pdfrwt>
<totfact> 0.12408817E-04</totfact>
</mgrwt>
<clustering>
<clus scale="   35.829">  1  6  2 -1</clus>
<clus scale="  482.947">  4  5 -1 -1</clus>
<clus scale="  300.000">  1  4  2 -1</clus>
</clustering>
</event>
<event>
 6    1  0.9480355E-012  0.3000000E+03  0.7818608E-02  0.1093470E+00
          1   -1    0    0  502    0  0.00000000000E+00  0.00000000000E+00  0.21760368806E+03  0.21760368806E+03  0.00000000000E+00 0.  1.
         13   -1    0    0    0    0 -0.00000000000E+00 -0.00000000000E+00 -0.27500000000E+03  0.27500000000E+03  0.00000000000E+00 0.  1.
    9000005    2    1    2  501    0 -0.10523528953E+02 -0.29598259584E+02 -0.60077541373E+02  0.46107607122E+03  0.45606472221E+03 0.  0.
         13    1    3    3    0    0 -0.20978545569E+02 -0.24259159133E+03 -0.41627974168E+02  0.24702969010E+03  0.00000000000E+00 0.  1.
          1    1    3    3  501    0  0.10455016616E+02  0.21299333175E+03 -0.18449567205E+02  0.21404638112E+03  0.00000000000E+00 0.  1.
         21    1    1    2  502  501  0.10523528953E+02  0.29598259584E+02  0.26812294326E+01  0.31527616835E+02  0.00000000000E+00 0. -1.
<scales pt_clust_4="550.00000" pt_clust_5="550.00000" pt_clust_6="31.41340"></scales>
<mgrwt>
<rscale>  0 0.30000000E+03</rscale>
<asrwt>  1 0.31413399E+02</asrwt>
<pdfrwt beam="1">  1        1 0.79128614E+00 0.30000000E+03</pdfrwt>
<pdfrwt beam="2">0</pdfrwt>
<totfact> 0.12295108E-03</totfact>
</mgrwt>
<clustering>
<clus scale="   31.413">  1  6  2 -1</clus>
<clus scale="  456.065">  4  5 -1 -1</clus>
<clus scale="  300.000">  1  4  2 -1</clus>
</clustering>
</event>
<event>
 6    1  0.9480355E-012  0.3000000E+03  0.7818608E-02  0.1093470E+00
          1   -1    0    0  502    0  0.00000000000E+00  0.00000000000E+00  0.24342509658E+03  0.24342509658E+03  0.00000000000E+00 0.  1.
         13   -1    0    0    0    0 -0.00000000000E+00 -0.00000000000E+00 -0.27500000000E+03  0.27500000000E+03  0.00000000000E+00 0.  1.
    9000005    2    1    2  501    0 -0.19271782801E+02  0.27528804954E+02 -0.67588056090E+02  0.46916878856E+03  0.46305719962E+03 0.  0.
         13    1    3    3    0    0  0.19928350148E+03 -0.12410741028E+02 -0.13016425524E+03  0.23834989783E+03  0.00000000000E+00 0.  1.
          1    1    3    3  501    0 -0.21855528428E+03  0.39939545982E+02  0.62576199150E+02  0.23081889073E+03  0.00000000000E+00 0.  1.
         21    1    1    2  502  501  0.19271782801E+02 -0.27528804954E+02  0.36013152672E+02  0.49256308021E+02  0.00000000000E+00 0.  1.
<scales pt_clust_4="550.00000" pt_clust_5="550.00000" pt_clust_6="33.60412"></scales>
<mgrwt>
<rscale>  0 0.30000000E+03</rscale>
<asrwt>  1 0.33604118E+02</asrwt>
<pdfrwt beam="1">  1        1 0.88518217E+00 0.30000000E+03</pdfrwt>
<pdfrwt beam="2">0</pdfrwt>
<totfact> 0.17002896E-04</totfact>
</mgrwt>
<clustering>
<clus scale="   33.604">  1  6  2 -1</clus>
<clus scale="  463.057">  4  5 -1 -1</clus>
<clus scale="  300.000">  1  4  2 -1</clus>
</clustering>
</event>
<event>
 6    1  0.9480355E-012  0.3000000E+03  0.7818608E-02  0.1093470E+00
          1   -1    0    0  502    0  0.00000000000E+00  0.00000000000E+00  0.23530796992E+03  0.23530796992E+03  0.00000000000E+00 0.  1.
         13   -1    0    0    0    0 -0.00000000000E+00 -0.00000000000E+00 -0.27500000000E+03  0.27500000000E+03  0.00000000000E+00 0.  1.
    9000005    2    1    2  501    0 -0.24830297362E+02 -0.26391097534E+02 -0.28399268379E+02  0.47235325792E+03  0.47010429494E+03 0.  0.
         13    1    3    3    0    0 -0.45721656933E+02  0.18767494551E+02  0.21669479315E+03  0.22225958279E+03  0.00000000000E+00 0.  1.
          1    1    3    3  501    0  0.20891359571E+02 -0.45158592085E+02 -0.24509406153E+03  0.25009367513E+03  0.00000000000E+00 0.  1.
         21    1    1    2  502  501  0.24830297362E+02  0.26391097534E+02 -0.11292761703E+02  0.37954712000E+02  0.00000000000E+00 0. -1.
<scales pt_clust_4="550.00000" pt_clust_5="550.00000" pt_clust_6="36.23582"></scales>
<mgrwt>
<rscale>  0 0.30000000E+03</rscale>
<asrwt>  1 0.36235825E+02</asrwt>
<pdfrwt beam="1">  1        1 0.85566535E+00 0.30000000E+03</pdfrwt>
<pdfrwt beam="2">0</pdfrwt>
<totfact> 0.35649450E-04</totfact>
</mgrwt>
<clustering>
<clus scale="   36.236">  1  6  2 -1</clus>
<clus scale="  470.104">  4  5 -1 -1</clus>
<clus scale="  300.000">  1  4  2 -1</clus>
</clustering>
</event>
<event>
 6    1  0.9480355E-012  0.3000000E+03  0.7818608E-02  0.1093470E+00
          1   -1    0    0  502    0  0.00000000000E+00  0.00000000000E+00  0.23565678199E+03  0.23565678199E+03  0.00000000000E+00 0.  1.
         13   -1    0    0    0    0 -0.00000000000E+00 -0.00000000000E+00 -0.27500000000E+03  0.27500000000E+03  0.00000000000E+00 0.  1.
    9000005    2    1    2  501    0  0.29208583947E+01  0.39426936428E+02 -0.38683212408E+02  0.47111629214E+03  0.46785805013E+03 0.  0.
         13    1    3    3    0    0 -0.12477358509E+03  0.69325912145E+02  0.17165047898E+03  0.22324519382E+03  0.00000000000E+00 0.  1.
          1    1    3    3  501    0  0.12769444348E+03 -0.29898975717E+02 -0.21033369139E+03  0.24787109831E+03  0.00000000000E+00 0.  1.
         21    1    1    2  502  501 -0.29208583947E+01 -0.39426936428E+02 -0.66000560675E+00  0.39540489846E+02  0.00000000000E+00 0.  1.
<scales pt_clust_4="550.00000" pt_clust_5="550.00000" pt_clust_6="39.53498"></scales>
<mgrwt>
<rscale>  0 0.30000000E+03</rscale>
<asrwt>  1 0.39534981E+02</asrwt>
<pdfrwt beam="1">  1        1 0.85693375E+00 0.30000000E+03</pdfrwt>
<pdfrwt beam="2">0</pdfrwt>
<totfact> 0.34055776E-04</totfact>
</mgrwt>
<clustering>
<clus scale="   39.535">  1  6  2 -1</clus>
<clus scale="  467.858">  4  5 -1 -1</clus>
<clus scale="  300.000">  1  4  2 -1</clus>
</clustering>
</event>
<event>
 6    1  0.9480355E-012  0.3000000E+03  0.7818608E-02  0.1093470E+00
          1   -1    0    0  502    0  0.00000000000E+00  0.00000000000E+00  0.25529612612E+03  0.25529612612E+03  0.00000000000E+00 0.  1.
         13   -1    0    0    0    0 -0.00000000000E+00 -0.00000000000E+00 -0.27500000000E+03  0.27500000000E+03  0.00000000000E+00 0.  1.
    9000005    2    1    2  501    0 -0.19201939197E+01 -0.45951058236E+02 -0.30201209414E+02  0.48312218256E+03  0.47997889884E+03 0.  0.
         13    1    3    3    0    0 -0.17635548429E+03 -0.15589609633E+03  0.80906486530E+02  0.24889899407E+03  0.00000000000E+00 0.  1.
          3    1    3    3  501    0  0.17443529037E+03  0.10994503809E+03 -0.11110769594E+03  0.23422318848E+03  0.00000000000E+00 0.  1.
         21    1    1    2  502  501  0.19201939197E+01  0.45951058236E+02  0.10497335531E+02  0.47173943560E+02  0.00000000000E+00 0.  1.
<scales pt_clust_4="550.00000" pt_clust_5="550.00000" pt_clust_6="45.99116"></scales>
<mgrwt>
<rscale>  0 0.30000000E+03</rscale>
<asrwt>  1 0.45991161E+02</asrwt>
<pdfrwt beam="1">  1        1 0.92834955E+00 0.30000000E+03</pdfrwt>
<pdfrwt beam="2">0</pdfrwt>
<totfact> 0.26699818E-05</totfact>
</mgrwt>
<clustering>
<clus scale="   45.991">  1  6  2 -1</clus>
<clus scale="  479.979">  4  5 -1 -1</clus>
<clus scale="  300.000">  1  4  2 -1</clus>
</clustering>
</event>
<event>
 6    1  0.9480355E-012  0.3000000E+03  0.7818608E-02  0.1093470E+00
          1   -1    0    0  502    0  0.00000000000E+00  0.00000000000E+00  0.22897140417E+03  0.22897140417E+03  0.00000000000E+00 0.  1.
         13   -1    0    0    0    0 -0.00000000000E+00 -0.00000000000E+00 -0.27500000000E+03  0.27500000000E+03  0.00000000000E+00 0.  1.
    9000005    2    1    2  501    0 -0.38783590149E+02  0.15350595051E+02 -0.49072192934E+02  0.46214950659E+03  0.45763990068E+03 0.  0.
         13    1    3    3    0    0  0.54266331345E+02 -0.51827559675E+02  0.18599531922E+03  0.20056218345E+03  0.00000000000E+00 0.  1.
          1    1    3    3  501    0 -0.93049921494E+02  0.67178154727E+02 -0.23506751215E+03  0.26158732315E+03  0.00000000000E+00 0.  1.
         21    1    1    2  502  501  0.38783590149E+02 -0.15350595051E+02  0.30435971020E+01  0.41821897573E+02  0.00000000000E+00 0. -1.
<scales pt_clust_4="550.00000" pt_clust_5="550.00000" pt_clust_6="41.71100"></scales>
<mgrwt>
<rscale>  0 0.30000000E+03</rscale>
<asrwt>  1 0.41711001E+02</asrwt>
<pdfrwt beam="1">  1        1 0.83262329E+00 0.30000000E+03</pdfrwt>
<pdfrwt beam="2">0</pdfrwt>
<totfact> 0.54554765E-04</totfact>
</mgrwt>
<clustering>
<clus scale="   41.711">  1  6  2 -1</clus>
<clus scale="  457.640">  4  5 -1 -1</clus>
<clus scale="  300.000">  1  4  2 -1</clus>
</clustering>
</event>
<event>
 6    1  0.9480355E-012  0.3000000E+03  0.7818608E-02  0.1093470E+00
          1   -1    0    0  502    0  0.00000000000E+00  0.00000000000E+00  0.23384895748E+03  0.23384895748E+03  0.00000000000E+00 0.  1.
         13   -1    0    0    0    0 -0.00000000000E+00 -0.00000000000E+00 -0.27500000000E+03  0.27500000000E+03  0.00000000000E+00 0.  1.
    9000005    2    1    2  501    0 -0.24233651174E+02 -0.20007572128E+02 -0.47895444691E+02  0.47670771058E+03  0.47325330946E+03 0.  0.
         13    1    3    3    0    0 -0.21873270530E+02 -0.12227222294E+03 -0.23366984284E+03  0.26463282472E+03  0.00000000000E+00 0.  1.
          1    1    3    3  501    0 -0.23603806443E+01  0.10226465081E+03  0.18577439815E+03  0.21207488586E+03  0.00000000000E+00 0.  1.
         21    1    1    2  502  501  0.24233651174E+02  0.20007572128E+02  0.67444021710E+01  0.32141246901E+02  0.00000000000E+00 0.  1.
<scales pt_clust_4="550.00000" pt_clust_5="550.00000" pt_clust_6="31.42567"></scales>
<mgrwt>
<rscale>  0 0.30000000E+03</rscale>
<asrwt>  1 0.31425671E+02</asrwt>
<pdfrwt beam="1">  1        1 0.85035985E+00 0.30000000E+03</pdfrwt>
<pdfrwt beam="2">0</pdfrwt>
<totfact> 0.41213093E-04</totfact>
</mgrwt>
<clustering>
<clus scale="   31.426">  1  6  2 -1</clus>
<clus scale="  473.253">  4  5 -1 -1</clus>
<clus scale="  300.000">  1  4  2 -1</clus>
</clustering>
</event>
<event>
 6    1  0.9480355E-012  0.3000000E+03  0.7818608E-02  0.1093470E+00
          1   -1    0    0  502    0  0.00000000000E+00  0.00000000000E+00  0.25822212228E+03  0.25822212228E+03  0.00000000000E+00 0.  1.
         13   -1    0    0    0    0 -0.00000000000E+00 -0.00000000000E+00 -0.27500000000E+03  0.27500000000E+03  0.00000000000E+00 0.  1.
    9000005    2    1    2  501    0  0.25143495200E+02  0.54936934698E+02 -0.26774678406E+02  0.47198326069E+03  0.46733398424E+03 0.  0.
         13    1    3    3    0    0 -0.21251482645E+03  0.87371537150E+02 -0.32450885912E+02  0.23205472838E+03  0.00000000000E+00 0.  1.
          1    1    3    3  501    0  0.23765832165E+03 -0.32434602452E+02  0.56762075060E+01  0.23992853232E+03  0.00000000000E+00 0.  1.
         21    1    1    2  502  501 -0.25143495200E+02 -0.54936934698E+02  0.99968006902E+01  0.61238861591E+02  0.00000000000E+00 0.  1.
<scales pt_clust_4="550.00000" pt_clust_5="550.00000" pt_clust_6="60.41740"></scales>
<mgrwt>
<rscale>  0 0.30000000E+03</rscale>
<asrwt>  1 0.60417399E+02</asrwt>
<pdfrwt beam="1">  1        1 0.93898954E+00 0.30000000E+03</pdfrwt>
<pdfrwt beam="2">0</pdfrwt>
<totfact> 0.18065452E-05</totfact>
</mgrwt>
<clustering>
<clus scale="   60.417">  1  6  2 -1</clus>
<clus scale="  467.334">  4  5 -1 -1</clus>
<clus scale="  300.000">  1  4  2 -1</clus>
</clustering>
</event>
<event>
 6    1  0.9480355E-012  0.3000000E+03  0.7818608E-02  0.1093470E+00
          1   -1    0    0  502    0  0.00000000000E+00  0.00000000000E+00  0.24252355420E+03  0.24252355420E+03  0.00000000000E+00 0.  1.
         13   -1    0    0    0    0 -0.00000000000E+00 -0.00000000000E+00 -0.27500000000E+03  0.27500000000E+03  0.00000000000E+00 0.  1.
    9000005    2    1    2  501    0  0.17607141428E+02 -0.38148824088E+02 -0.65997852328E+02  0.46377386672E+03  0.45712704879E+03 0.  0.
         13    1    3    3    0    0  0.12262911895E+03  0.17729673912E+03 -0.15451489837E+01  0.21557927081E+03  0.00000000000E+00 0.  1.
          3    1    3    3  501    0 -0.10502197752E+03 -0.21544556321E+03 -0.64452703344E+02  0.24819459591E+03  0.00000000000E+00 0.  1.
         21    1    1    2  502  501 -0.17607141428E+02  0.38148824088E+02  0.33521406531E+02  0.53749687482E+02  0.00000000000E+00 0. -1.
<scales pt_clust_4="550.00000" pt_clust_5="550.00000" pt_clust_6="42.01600"></scales>
<mgrwt>
<rscale>  0 0.30000000E+03</rscale>
<asrwt>  1 0.42015999E+02</asrwt>
<pdfrwt beam="1">  1        1 0.88190383E+00 0.30000000E+03</pdfrwt>
<pdfrwt beam="2">0</pdfrwt>
<totfact> 0.18054212E-04</totfact>
</mgrwt>
<clustering>
<clus scale="   42.016">  1  6  2 -1</clus>
<clus scale="  457.127">  4  5 -1 -1</clus>
<clus scale="  300.000">  1  4  2 -1</clus>
</clustering>
</event>
<event>
 6    1  0.9480355E-012  0.3000000E+03  0.7818608E-02  0.1093470E+00
          1   -1    0    0  502    0  0.00000000000E+00  0.00000000000E+00  0.25267913506E+03  0.25267913506E+03  0.00000000000E+00 0.  1.
         13   -1    0    0    0    0 -0.00000000000E+00 -0.00000000000E+00 -0.27500000000E+03  0.27500000000E+03  0.00000000000E+00 0.  1.
    9000005    2    1    2  501    0 -0.77141559161E+01 -0.48711736344E+02 -0.48446956616E+02  0.47186771933E+03  0.46677585144E+03 0.  0.
         13    1    3    3    0    0 -0.12950709264E+03  0.14046357491E+03  0.86268550669E+02  0.20962911476E+03  0.00000000000E+00 0.  1.
          1    1    3    3  501    0  0.12179293672E+03 -0.18917531126E+03 -0.13471550729E+03  0.26223860457E+03  0.00000000000E+00 0.  1.
         21    1    1    2  502  501  0.77141559161E+01  0.48711736344E+02  0.26126091679E+02  0.55811415728E+02  0.00000000000E+00 0.  1.
<scales pt_clust_4="550.00000" pt_clust_5="550.00000" pt_clust_6="49.31877"></scales>
<mgrwt>
<rscale>  0 0.30000000E+03</rscale>
<asrwt>  1 0.49318774E+02</asrwt>
<pdfrwt beam="1">  1        1 0.91883322E+00 0.30000000E+03</pdfrwt>
<pdfrwt beam="2">0</pdfrwt>
<totfact> 0.41659187E-05</totfact>
</mgrwt>
<clustering>
<clus scale="   49.319">  1  6  2 -1</clus>
<clus scale="  466.776">  4  5 -1 -1</clus>
<clus scale="  300.000">  1  4  2 -1</clus>
</clustering>
</event>
<event>
 6    1  0.9480355E-012  0.3000000E+03  0.7818608E-02  0.1093470E+00
          1   -1    0    0  502    0  0.00000000000E+00  0.00000000000E+00  0.24158448946E+03  0.24158448946E+03  0.00000000000E+00 0.  1.
         13   -1    0    0    0    0 -0.00000000000E+00 -0.00000000000E+00 -0.27500000000E+03  0.27500000000E+03  0.00000000000E+00 0.  1.
    9000005    2    1    2  501    0  0.28111286467E+02  0.23288560586E+02 -0.46419288129E+02  0.47783271901E+03  0.47416954306E+03 0.  0.
         13    1    3    3    0    0  0.97028154738E+02  0.23354983399E+03 -0.64579623461E+01  0.25298555896E+03  0.00000000000E+00 0.  1.
          1    1    3    3  501    0 -0.68916868270E+02 -0.21026127340E+03 -0.39961325783E+02  0.22484716005E+03  0.00000000000E+00 0.  1.
         21    1    1    2  502  501 -0.28111286467E+02 -0.23288560586E+02  0.13003777587E+02  0.38751770444E+02  0.00000000000E+00 0. -1.
<scales pt_clust_4="550.00000" pt_clust_5="550.00000" pt_clust_6="36.50481"></scales>
<mgrwt>
<rscale>  0 0.30000000E+03</rscale>
<asrwt>  1 0.36504814E+02</asrwt>
<pdfrwt beam="1">  1        1 0.87848905E+00 0.30000000E+03</pdfrwt>
<pdfrwt beam="2">0</pdfrwt>
<totfact> 0.20419199E-04</totfact>
</mgrwt>
<clustering>
<clus scale="   36.505">  1  6  2 -1</clus>
<clus scale="  474.170">  4  5 -1 -1</clus>
<clus scale="  300.000">  1  4  2 -1</clus>
</clustering>
</event>
<event>
 6    1  0.9480355E-012  0.3000000E+03  0.7818608E-02  0.1093470E+00
          1   -1    0    0  502    0  0.00000000000E+00  0.00000000000E+00  0.23422943426E+03  0.23422943426E+03  0.00000000000E+00 0.  1.
         13   -1    0    0    0    0 -0.00000000000E+00 -0.00000000000E+00 -0.27500000000E+03  0.27500000000E+03  0.00000000000E+00 0.  1.
    9000005    2    1    2  501    0 -0.33072672176E+02 -0.26382099411E+01 -0.51649810374E+02  0.47431353873E+03  0.47032421617E+03 0.  0.
         13    1    3    3    0    0 -0.81103525836E+01  0.21100161841E+03 -0.12699636527E+03  0.24640523043E+03  0.00000000000E+00 0.  1.
          1    1    3    3  501    0 -0.24962319592E+02 -0.21363982835E+03  0.75346554897E+02  0.22790830830E+03  0.00000000000E+00 0.  1.
         21    1    1    2  502  501  0.33072672176E+02  0.26382099411E+01  0.10879244635E+02  0.34915895526E+02  0.00000000000E+00 0.  1.
<scales pt_clust_4="550.00000" pt_clust_5="550.00000" pt_clust_6="33.17773"></scales>
<mgrwt>
<rscale>  0 0.30000000E+03</rscale>
<asrwt>  1 0.33177730E+02</asrwt>
<pdfrwt beam="1">  1        1 0.85174340E+00 0.30000000E+03</pdfrwt>
<pdfrwt beam="2">0</pdfrwt>
<totfact> 0.39576210E-04</totfact>
</mgrwt>
<clustering>
<clus scale="   33.178">  1  6  2 -1</clus>
<clus scale="  470.324">  4  5 -1 -1</clus>
<clus scale="  300.000">  1  4  2 -1</clus>
</clustering>
</event>
<event>
 6    1  0.9480355E-012  0.3000000E+03  0.7818608E-02  0.1093470E+00
          1   -1    0    0  502    0  0.00000000000E+00  0.00000000000E+00  0.21994515582E+03  0.21994515582E+03  0.00000000000E+00 0.  1.
         13   -1    0    0    0    0 -0.00000000000E+00 -0.00000000000E+00 -0.27500000000E+03  0.27500000000E+03  0.00000000000E+00 0.  1.
    9000005    2    1    2  501    0  0.25711863719E+02 -0.15741110263E+02 -0.56746484778E+02  0.46475005462E+03  0.46028639698E+03 0.  0.
         13    1    3    3    0    0  0.13483891671E+03 -0.19832493915E+03 -0.74955323510E+02  0.25126204542E+03  0.00000000000E+00 0.  1.
          1    1    3    3  501    0 -0.10912705299E+03  0.18258382889E+03  0.18208838733E+02  0.21348800920E+03  0.00000000000E+00 0.  1.
         21    1    1    2  502  501 -0.25711863719E+02  0.15741110263E+02  0.16916405939E+01  0.30195101194E+02  0.00000000000E+00 0.  1.
<scales pt_clust_4="550.00000" pt_clust_5="550.00000" pt_clust_6="30.14768"></scales>
<mgrwt>
<rscale>  0 0.30000000E+03</rscale>
<asrwt>  1 0.30147678E+02</asrwt>
<pdfrwt beam="1">  1        1 0.79980057E+00 0.30000000E+03</pdfrwt>
<pdfrwt beam="2">0</pdfrwt>
<totfact> 0.10703510E-03</totfact>
</mgrwt>
<clustering>
<clus scale="   30.148">  1  6  2 -1</clus>
<clus scale="  460.286">  4  5 -1 -1</clus>
<clus scale="  300.000">  1  4  2 -1</clus>
</clustering>
</event>
<event>
 6    1  0.9480355E-012  0.3000000E+03  0.7818608E-02  0.1093470E+00
          1   -1    0    0  502    0  0.00000000000E+00  0.00000000000E+00  0.23699207600E+03  0.23699207600E+03  0.00000000000E+00 0.  1.
         13   -1    0    0    0    0 -0.00000000000E+00 -0.00000000000E+00 -0.27500000000E+03  0.27500000000E+03  0.00000000000E+00 0.  1.
    9000005    2    1    2  501    0 -0.31537441827E+02  0.20457388730E+02 -0.39392415499E+02  0.47437516747E+03  0.47123977137E+03 0.  0.
         13    1    3    3    0    0 -0.19869095635E+03 -0.13327364919E+03  0.18657857068E+02  0.23997515983E+03  0.00000000000E+00 0.  1.
          1    1    3    3  501    0  0.16715351452E+03  0.15373103792E+03 -0.58050272567E+02  0.23440000764E+03  0.00000000000E+00 0.  1.
         21    1    1    2  502  501  0.31537441827E+02 -0.20457388730E+02  0.13844915017E+01  0.37616908530E+02  0.00000000000E+00 0.  1.
<scales pt_clust_4="550.00000" pt_clust_5="550.00000" pt_clust_6="37.59142"></scales>
<mgrwt>
<rscale>  0 0.30000000E+03</rscale>
<asrwt>  1 0.37591422E+02</asrwt>
<pdfrwt beam="1">  1        1 0.86178937E+00 0.30000000E+03</pdfrwt>
<pdfrwt beam="2">0</pdfrwt>
<totfact> 0.30538313E-04</totfact>
</mgrwt>
<clustering>
<clus scale="   37.591">  1  6  2 -1</clus>
<clus scale="  471.240">  4  5 -1 -1</clus>
<clus scale="  300.000">  1  4  2 -1</clus>
</clustering>
</event>
<event>
 6    1  0.9480355E-012  0.3000000E+03  0.7818608E-02  0.1093470E+00
          1   -1    0    0  502    0  0.00000000000E+00  0.00000000000E+00  0.23932063602E+03  0.23932063602E+03  0.00000000000E+00 0.  1.
         13   -1    0    0    0    0 -0.00000000000E+00 -0.00000000000E+00 -0.27500000000E+03  0.27500000000E+03  0.00000000000E+00 0.  1.
    9000005    2    1    2  501    0  0.33567078463E+02 -0.90415636719E+01 -0.50132945876E+02  0.47667220100E+03  0.47275212988E+03 0.  0.
         13    1    3    3    0    0 -0.13095093082E+03  0.73853971501E+02  0.14460896574E+03  0.20860083500E+03  0.00000000000E+00 0.  1.
          1    1    3    3  501    0  0.16451800928E+03 -0.82895535173E+02 -0.19474191161E+03  0.26807136600E+03  0.00000000000E+00 0.  1.
         21    1    1    2  502  501 -0.33567078463E+02  0.90415636719E+01  0.14453581897E+02  0.37648435025E+02  0.00000000000E+00 0. -1.
<scales pt_clust_4="550.00000" pt_clust_5="550.00000" pt_clust_6="34.76347"></scales>
<mgrwt>
<rscale>  0 0.30000000E+03</rscale>
<asrwt>  1 0.34763467E+02</asrwt>
<pdfrwt beam="1">  1        1 0.87025686E+00 0.30000000E+03</pdfrwt>
<pdfrwt beam="2">0</pdfrwt>
<totfact> 0.25204442E-04</totfact>
</mgrwt>
<clustering>
<clus scale="   34.763">  1  6  2 -1</clus>
<clus scale="  472.752">  4  5 -1 -1</clus>
<clus scale="  300.000">  1  4  2 -1</clus>
</clustering>
</event>
<event>
 6    1  0.9480355E-012  0.3000000E+03  0.7818608E-02  0.1093470E+00
          1   -1    0    0  502    0  0.00000000000E+00  0.00000000000E+00  0.22968668271E+03  0.22968668271E+03  0.00000000000E+00 0.  1.
         13   -1    0    0    0    0 -0.00000000000E+00 -0.00000000000E+00 -0.27500000000E+03  0.27500000000E+03  0.00000000000E+00 0.  1.
    9000005    2    1    2  501    0  0.11553431045E+02  0.28083884555E+02 -0.27926545338E+02  0.46969402377E+03  0.46787861427E+03 0.  0.
         13    1    3    3    0    0  0.11999298211E+03 -0.14366788877E+03 -0.14362066113E+03  0.23593573770E+03  0.00000000000E+00 0.  1.
          3    1    3    3  501    0 -0.10843955106E+03  0.17175177333E+03  0.11569411579E+03  0.23375828607E+03  0.00000000000E+00 0.  1.
         21    1    1    2  502  501 -0.11553431045E+02 -0.28083884555E+02 -0.17386771956E+02  0.34992658939E+02  0.00000000000E+00 0.  1.
<scales pt_clust_4="550.00000" pt_clust_5="550.00000" pt_clust_6="30.36754"></scales>
<mgrwt>
<rscale>  0 0.30000000E+03</rscale>
<asrwt>  1 0.30367536E+02</asrwt>
<pdfrwt beam="1">  1        1 0.83522430E+00 0.30000000E+03</pdfrwt>
<pdfrwt beam="2">0</pdfrwt>
<totfact> 0.55365758E-04</totfact>
</mgrwt>
<clustering>
<clus scale="   30.368">  1  6  2 -1</clus>
<clus scale="  467.879">  4  5 -1 -1</clus>
<clus scale="  300.000">  1  4  2 -1</clus>
</clustering>
</event>
<event>
 6    1  0.9480355E-012  0.3000000E+03  0.7818608E-02  0.1093470E+00
          1   -1    0    0  502    0  0.00000000000E+00  0.00000000000E+00  0.22476561180E+03  0.22476561180E+03  0.00000000000E+00 0.  1.
         13   -1    0    0    0    0 -0.00000000000E+00 -0.00000000000E+00 -0.27500000000E+03  0.27500000000E+03  0.00000000000E+00 0.  1.
    9000005    2    1    2  501    0  0.29350600447E+02  0.78066663694E+01 -0.56560362146E+02  0.46874272133E+03  0.46432559961E+03 0.  0.
         13    1    3    3    0    0  0.10161976943E+03  0.10983207674E+03 -0.21808532629E+03  0.26448227193E+03  0.00000000000E+00 0.  1.
          3    1    3    3  501    0 -0.72269168984E+02 -0.10202541037E+03  0.16152496415E+03  0.20426044940E+03  0.00000000000E+00 0.  1.
         21    1    1    2  502  501 -0.29350600447E+02 -0.78066663694E+01  0.63259739427E+01  0.31022890464E+02  0.00000000000E+00 0.  1.
<scales pt_clust_4="550.00000" pt_clust_5="550.00000" pt_clust_6="30.37107"></scales>
<mgrwt>
<rscale>  0 0.30000000E+03</rscale>
<asrwt>  1 0.30371068E+02</asrwt>
<pdfrwt beam="1">  1        1 0.81732950E+00 0.30000000E+03</pdfrwt>
<pdfrwt beam="2">0</pdfrwt>
<totfact> 0.78268410E-04</totfact>
</mgrwt>
<clustering>
<clus scale="   30.371">  1  6  2 -1</clus>
<clus scale="  464.326">  4  5 -1 -1</clus>
<clus scale="  300.000">  1  4  2 -1</clus>
</clustering>
</event>
<event>
 6    1  0.9480355E-012  0.3000000E+03  0.7818608E-02  0.1093470E+00
          1   -1    0    0  502    0  0.00000000000E+00  0.00000000000E+00  0.22582007362E+03  0.22582007362E+03  0.00000000000E+00 0.  1.
         13   -1    0    0    0    0 -0.00000000000E+00 -0.00000000000E+00 -0.27500000000E+03  0.27500000000E+03  0.00000000000E+00 0.  1.
    9000005    2    1    2  501    0 -0.67734730235E+01  0.31085175049E+02 -0.63639621034E+02  0.46587367446E+03  0.46040863496E+03 0.  0.
         13    1    3    3    0    0  0.19663699658E+03 -0.91698789618E+02  0.97955649772E+01  0.21718823526E+03  0.00000000000E+00 0.  1.
          1    1    3    3  501    0 -0.20341046961E+03  0.12278396467E+03 -0.73435186011E+02  0.24868543920E+03  0.00000000000E+00 0.  1.
         21    1    1    2  502  501  0.67734730235E+01 -0.31085175049E+02  0.14459694650E+02  0.34946399156E+02  0.00000000000E+00 0. -1.
<scales pt_clust_4="550.00000" pt_clust_5="550.00000" pt_clust_6="31.81459"></scales>
<mgrwt>
<rscale>  0 0.30000000E+03</rscale>
<asrwt>  1 0.31814589E+02</asrwt>
<pdfrwt beam="1">  1        1 0.82116390E+00 0.30000000E+03</pdfrwt>
<pdfrwt beam="2">0</pdfrwt>
<totfact> 0.71940912E-04</totfact>
</mgrwt>
<clustering>
<clus scale="   31.815">  1  6  2 -1</clus>
<clus scale="  460.409">  4  5 -1 -1</clus>
<clus scale="  300.000">  1  4  2 -1</clus>
</clustering>
</event>
<event>
 6    1  0.9480355E-012  0.3000000E+03  0.7818608E-02  0.1093470E+00
          1   -1    0    0  502    0  0.00000000000E+00  0.00000000000E+00  0.22433111304E+03  0.22433111304E+03  0.00000000000E+00 0.  1.
         13   -1    0    0    0    0 -0.00000000000E+00 -0.00000000000E+00 -0.27500000000E+03  0.27500000000E+03  0.00000000000E+00 0.  1.
    9000005    2    1    2  501    0 -0.30977372755E+02  0.36602519930E+01 -0.57206865980E+02  0.46746043314E+03  0.46289700363E+03 0.  0.
         13    1    3    3    0    0  0.19037905368E+03 -0.10318922525E+03 -0.46193316926E+02  0.22141820796E+03  0.00000000000E+00 0.  1.
          1    1    3    3  501    0 -0.22135642643E+03  0.10684947724E+03 -0.11013549055E+02  0.24604222518E+03  0.00000000000E+00 0.  1.
         21    1    1    2  502  501  0.30977372755E+02 -0.36602519930E+01  0.65379790196E+01  0.31870679897E+02  0.00000000000E+00 0.  1.
<scales pt_clust_4="550.00000" pt_clust_5="550.00000" pt_clust_6="31.19287"></scales>
<mgrwt>
<rscale>  0 0.30000000E+03</rscale>
<asrwt>  1 0.31192869E+02</asrwt>
<pdfrwt beam="1">  1        1 0.81574950E+00 0.30000000E+03</pdfrwt>
<pdfrwt beam="2">0</pdfrwt>
<totfact> 0.80225663E-04</totfact>
</mgrwt>
<clustering>
<clus scale="   31.193">  1  6  2 -1</clus>
<clus scale="  462.897">  4  5 -1 -1</clus>
<clus scale="  300.000">  1  4  2 -1</clus>
</clustering>
</event>
<event>
 6    1  0.9480355E-012  0.3000000E+03  0.7818608E-02  0.1093470E+00
          1   -1    0    0  502    0  0.00000000000E+00  0.00000000000E+00  0.24430390285E+03  0.24430390285E+03  0.00000000000E+00 0.  1.
         13   -1    0    0    0    0 -0.00000000000E+00 -0.00000000000E+00 -0.27500000000E+03  0.27500000000E+03  0.00000000000E+00 0.  1.
    9000005    2    1    2  501    0  0.18105949472E+02 -0.33421729146E+02 -0.45090931350E+02  0.47865850167E+03  0.47501150696E+03 0.  0.
         13    1    3    3    0    0  0.10256568363E+03  0.22679455222E+02 -0.23831973292E+03  0.26044264675E+03  0.00000000000E+00 0.  1.
          3    1    3    3  501    0 -0.84459734156E+02 -0.56101184367E+02  0.19322880157E+03  0.21821585492E+03  0.00000000000E+00 0.  1.
         21    1    1    2  502  501 -0.18105949472E+02  0.33421729146E+02  0.14394834201E+02  0.40645401180E+02  0.00000000000E+00 0. -1.
<scales pt_clust_4="550.00000" pt_clust_5="550.00000" pt_clust_6="38.01102"></scales>
<mgrwt>
<rscale>  0 0.30000000E+03</rscale>
<asrwt>  1 0.38011017E+02</asrwt>
<pdfrwt beam="1">  1        1 0.88837783E+00 0.30000000E+03</pdfrwt>
<pdfrwt beam="2">0</pdfrwt>
<totfact> 0.15014659E-04</totfact>
</mgrwt>
<clustering>
<clus scale="   38.011">  1  6  2 -1</clus>
<clus scale="  475.012">  4  5 -1 -1</clus>
<clus scale="  300.000">  1  4  2 -1</clus>
</clustering>
</event>
<event>
 6    1  0.9480355E-012  0.3000000E+03  0.7818608E-02  0.1093470E+00
          1   -1    0    0  502    0  0.00000000000E+00  0.00000000000E+00  0.23985503377E+03  0.23985503377E+03  0.00000000000E+00 0.  1.
         13   -1    0    0    0    0 -0.00000000000E+00 -0.00000000000E+00 -0.27500000000E+03  0.27500000000E+03  0.00000000000E+00 0.  1.
    9000005    2    1    2  501    0  0.24449105590E+02 -0.17522199940E+02 -0.61189304102E+02  0.47506692260E+03  0.47014855499E+03 0.  0.
         13    1    3    3    0    0  0.54898636644E+02  0.15354686916E+03  0.13593460912E+03  0.21229394548E+03  0.00000000000E+00 0.  1.
          3    1    3    3  501    0 -0.30449531054E+02 -0.17106906910E+03 -0.19712391322E+03  0.26277297712E+03  0.00000000000E+00 0.  1.
         21    1    1    2  502  501 -0.24449105590E+02  0.17522199940E+02  0.26044337871E+02  0.39788111164E+02  0.00000000000E+00 0. -1.
<scales pt_clust_4="550.00000" pt_clust_5="550.00000" pt_clust_6="30.07967"></scales>
<mgrwt>
<rscale>  0 0.30000000E+03</rscale>
<asrwt>  1 0.30079665E+02</asrwt>
<pdfrwt beam="1">  1        1 0.87220012E+00 0.30000000E+03</pdfrwt>
<pdfrwt beam="2">0</pdfrwt>
<totfact> 0.24749438E-04</totfact>
</mgrwt>
<clustering>
<clus scale="   30.080">  1  6  2 -1</clus>
<clus scale="  470.149">  4  5 -1 -1</clus>
<clus scale="  300.000">  1  4  2 -1</clus>
</clustering>
</event>
<event>
 6    1  0.9480355E-012  0.3000000E+03  0.7818608E-02  0.1093470E+00
          1   -1    0    0  502    0  0.00000000000E+00  0.00000000000E+00  0.23177946546E+03  0.23177946546E+03  0.00000000000E+00 0.  1.
         13   -1    0    0    0    0 -0.00000000000E+00 -0.00000000000E+00 -0.27500000000E+03  0.27500000000E+03  0.00000000000E+00 0.  1.
    9000005    2    1    2  501    0 -0.24342704798E+02  0.22352927048E+02 -0.52206330691E+02  0.47253088656E+03  0.46847381694E+03 0.  0.
         13    1    3    3    0    0  0.11545999490E+03  0.17546274464E+03 -0.13455060420E+03  0.24944348111E+03  0.00000000000E+00 0.  1.
          1    1    3    3  501    0 -0.13980269970E+03 -0.15310981760E+03  0.82344273507E+02  0.22308740544E+03  0.00000000000E+00 0.  1.
         21    1    1    2  502  501  0.24342704798E+02 -0.22352927048E+02  0.89857961498E+01  0.34248578904E+02  0.00000000000E+00 0. -1.
<scales pt_clust_4="550.00000" pt_clust_5="550.00000" pt_clust_6="33.04876"></scales>
<mgrwt>
<rscale>  0 0.30000000E+03</rscale>
<asrwt>  1 0.33048761E+02</asrwt>
<pdfrwt beam="1">  1        1 0.84283442E+00 0.30000000E+03</pdfrwt>
<pdfrwt beam="2">0</pdfrwt>
<totfact> 0.47666887E-04</totfact>
</mgrwt>
<clustering>
<clus scale="   33.049">  1  6  2 -1</clus>
<clus scale="  468.474">  4  5 -1 -1</clus>
<clus scale="  300.000">  1  4  2 -1</clus>
</clustering>
</event>
<event>
 6    1  0.9480355E-012  0.3000000E+03  0.7818608E-02  0.1093470E+00
          1   -1    0    0  502    0  0.00000000000E+00  0.00000000000E+00  0.23492642026E+03  0.23492642026E+03  0.00000000000E+00 0.  1.
         13   -1    0    0    0    0 -0.00000000000E+00 -0.00000000000E+00 -0.27500000000E+03  0.27500000000E+03  0.00000000000E+00 0.  1.
    9000005    2    1    2  501    0 -0.11074846548E+02  0.29103207920E+02 -0.36056110731E+02  0.47852914339E+03  0.47615170799E+03 0.  0.
         13    1    3    3    0    0 -0.10178866855E+03  0.17138247706E+03  0.13303495909E+03  0.23964804782E+03  0.00000000000E+00 0.  1.
          3    1    3    3  501    0  0.90713822000E+02 -0.14227926914E+03 -0.16909106982E+03  0.23888109557E+03  0.00000000000E+00 0.  1.
         21    1    1    2  502  501  0.11074846548E+02 -0.29103207920E+02 -0.40174690105E+01  0.31397276865E+02  0.00000000000E+00 0. -1.
<scales pt_clust_4="550.00000" pt_clust_5="550.00000" pt_clust_6="31.13920"></scales>
<mgrwt>
<rscale>  0 0.30000000E+03</rscale>
<asrwt>  1 0.31139202E+02</asrwt>
<pdfrwt beam="1">  1        1 0.85427789E+00 0.30000000E+03</pdfrwt>
<pdfrwt beam="2">0</pdfrwt>
<totfact> 0.37862380E-04</totfact>
</mgrwt>
<clustering>
<clus scale="   31.139">  1  6  2 -1</clus>
<clus scale="  476.152">  4  5 -1 -1</clus>
<clus scale="  300.000">  1  4  2 -1</clus>
</clustering>
</event>
<event>
 6    1  0.9480355E-012  0.3000000E+03  0.7818608E-02  0.1093470E+00
          1   -1    0    0  502    0  0.00000000000E+00  0.00000000000E+00  0.23164811354E+03  0.23164811354E+03  0.00000000000E+00 0.  1.
         13   -1    0    0    0    0 -0.00000000000E+00 -0.00000000000E+00 -0.27500000000E+03  0.27500000000E+03  0.00000000000E+00 0.  1.
    9000005    2    1    2  501    0  0.42907922521E+02 -0.37769326809E+01 -0.55558623509E+02  0.46187804022E+03  0.45649666850E+03 0.  0.
         13    1    3    3    0    0  0.33824242457E+02 -0.81886725360E+02 -0.24297983610E+03  0.25862852882E+03  0.00000000000E+00 0.  1.
          1    1    3    3  501    0  0.90836800632E+01  0.78109792679E+02  0.18742121259E+03  0.20324951140E+03  0.00000000000E+00 0.  1.
         21    1    1    2  502  501 -0.42907922521E+02  0.37769326809E+01  0.12206737044E+02  0.44770073317E+02  0.00000000000E+00 0.  1.
<scales pt_clust_4="550.00000" pt_clust_5="550.00000" pt_clust_6="43.07383"></scales>
<mgrwt>
<rscale>  0 0.30000000E+03</rscale>
<asrwt>  1 0.43073832E+02</asrwt>
<pdfrwt beam="1">  1        1 0.84235678E+00 0.30000000E+03</pdfrwt>
<pdfrwt beam="2">0</pdfrwt>
<totfact> 0.45812662E-04</totfact>
</mgrwt>
<clustering>
<clus scale="   43.074">  1  6  2 -1</clus>
<clus scale="  456.497">  4  5 -1 -1</clus>
<clus scale="  300.000">  1  4  2 -1</clus>
</clustering>
</event>
<event>
 6    1  0.9480355E-012  0.3000000E+03  0.7818608E-02  0.1093470E+00
          1   -1    0    0  502    0  0.00000000000E+00  0.00000000000E+00  0.22048925083E+03  0.22048925083E+03  0.00000000000E+00 0.  1.
         13   -1    0    0    0    0 -0.00000000000E+00 -0.00000000000E+00 -0.27500000000E+03  0.27500000000E+03  0.00000000000E+00 0.  1.
    9000005    2    1    2  501    0  0.30356560335E+02 -0.42979891834E+01 -0.53039510517E+02  0.46479465832E+03  0.46073950477E+03 0.  0.
         13    1    3    3    0    0  0.20308971530E+03  0.79511852575E+02  0.78795351011E+02  0.23189712051E+03  0.00000000000E+00 0.  1.
          3    1    3    3  501    0 -0.17273315497E+03 -0.83809841759E+02 -0.13183486153E+03  0.23289753780E+03  0.00000000000E+00 0.  1.
         21    1    1    2  502  501 -0.30356560335E+02  0.42979891834E+01 -0.14712386509E+01  0.30694592513E+02  0.00000000000E+00 0. -1.
<scales pt_clust_4="550.00000" pt_clust_5="550.00000" pt_clust_6="30.65931"></scales>
<mgrwt>
<rscale>  0 0.30000000E+03</rscale>
<asrwt>  1 0.30659313E+02</asrwt>
<pdfrwt beam="1">  1        1 0.80177909E+00 0.30000000E+03</pdfrwt>
<pdfrwt beam="2">0</pdfrwt>
<totfact> 0.10322516E-03</totfact>
</mgrwt>
<clustering>
<clus scale="   30.659">  1  6  2 -1</clus>
<clus scale="  460.740">  4  5 -1 -1</clus>
<clus scale="  300.000">  1  4  2 -1</clus>
</clustering>
</event>
<event>
 6    1  0.9480355E-012  0.3000000E+03  0.7818608E-02  0.1093470E+00
          1   -1    0    0  502    0  0.00000000000E+00  0.00000000000E+00  0.24756623748E+03  0.24756623748E+03  0.00000000000E+00 0.  1.
         13   -1    0    0    0    0 -0.00000000000E+00 -0.00000000000E+00 -0.27500000000E+03  0.27500000000E+03  0.00000000000E+00 0.  1.
    9000005    2    1    2  501    0 -0.30934808833E+02  0.42810642464E+02 -0.21050549041E+02  0.46936418001E+03  0.46590760281E+03 0.  0.
         13    1    3    3    0    0  0.39472072066E+02  0.11324576006E+03 -0.21791878117E+03  0.24873930496E+03  0.00000000000E+00 0.  1.
          3    1    3    3  501    0 -0.70406880900E+02 -0.70435117591E+02  0.19686823213E+03  0.22062487505E+03  0.00000000000E+00 0.  1.
         21    1    1    2  502  501  0.30934808833E+02 -0.42810642464E+02 -0.63832134742E+01  0.53202057479E+02  0.00000000000E+00 0.  1.
<scales pt_clust_4="550.00000" pt_clust_5="550.00000" pt_clust_6="52.81776"></scales>
<mgrwt>
<rscale>  0 0.30000000E+03</rscale>
<asrwt>  1 0.52817765E+02</asrwt>
<pdfrwt beam="1">  1        1 0.90024086E+00 0.30000000E+03</pdfrwt>
<pdfrwt beam="2">0</pdfrwt>
<totfact> 0.10183256E-04</totfact>
</mgrwt>
<clustering>
<clus scale="   52.818">  1  6  2 -1</clus>
<clus scale="  465.908">  4  5 -1 -1</clus>
<clus scale="  300.000">  1  4  2 -1</clus>
</clustering>
</event>
<event>
 6    1  0.9480355E-012  0.3000000E+03  0.7818608E-02  0.1093470E+00
          1   -1    0    0  502    0  0.00000000000E+00  0.00000000000E+00  0.23651047059E+03  0.23651047059E+03  0.00000000000E+00 0.  1.
         13   -1    0    0    0    0 -0.00000000000E+00 -0.00000000000E+00 -0.27500000000E+03  0.27500000000E+03  0.00000000000E+00 0.  1.
    9000005    2    1    2  501    0 -0.66335404685E+01  0.31479821210E+02 -0.26584592655E+02  0.47720725614E+03  0.47537884023E+03 0.  0.
         13    1    3    3    0    0  0.23054439783E+03  0.51716996947E+02  0.94113023411E+01  0.23646128596E+03  0.00000000000E+00 0.  1.
          1    1    3    3  501    0 -0.23717793830E+03 -0.20237175738E+02 -0.35995894996E+02  0.24074597018E+03  0.00000000000E+00 0.  1.
         21    1    1    2  502  501  0.66335404685E+01 -0.31479821210E+02 -0.11904936756E+02  0.34303214452E+02  0.00000000000E+00 0.  1.
<scales pt_clust_4="550.00000" pt_clust_5="550.00000" pt_clust_6="32.17117"></scales>
<mgrwt>
<rscale>  0 0.30000000E+03</rscale>
<asrwt>  1 0.32171168E+02</asrwt>
<pdfrwt beam="1">  1        1 0.86003807E+00 0.30000000E+03</pdfrwt>
<pdfrwt beam="2">0</pdfrwt>
<totfact> 0.32833574E-04</totfact>
</mgrwt>
<clustering>
<clus scale="   32.171">  1  6  2 -1</clus>
<clus scale="  475.379">  4  5 -1 -1</clus>
<clus scale="  300.000">  1  4  2 -1</clus>
</clustering>
</event>
<event>
 6    1  0.9480355E-012  0.3000000E+03  0.7818608E-02  0.1093470E+00
          1   -1    0    0  502    0  0.00000000000E+00  0.00000000000E+00  0.24492331601E+03  0.24492331601E+03  0.00000000000E+00 0.  1.
         13   -1    0    0    0    0 -0.00000000000E+00 -0.00000000000E+00 -0.27500000000E+03  0.27500000000E+03  0.00000000000E+00 0.  1.
    9000005    2    1    2  501    0 -0.12401913298E+02  0.28818414681E+02 -0.38350243852E+02  0.48747704857E+03  0.48495239271E+03 0.  0.
         13    1    3    3    0    0  0.17978169043E+03  0.16764537629E+03 -0.46854558458E+02  0.25024343758E+03  0.00000000000E+00 0.  1.
          1    1    3    3  501    0 -0.19218360373E+03 -0.13882696161E+03  0.85043146059E+01  0.23723361098E+03  0.00000000000E+00 0.  1.
         21    1    1    2  502  501  0.12401913298E+02 -0.28818414681E+02  0.82735598598E+01  0.32446267442E+02  0.00000000000E+00 0. -1.
<scales pt_clust_4="550.00000" pt_clust_5="550.00000" pt_clust_6="31.37369"></scales>
<mgrwt>
<rscale>  0 0.30000000E+03</rscale>
<asrwt>  1 0.31373691E+02</asrwt>
<pdfrwt beam="1">  1        1 0.89063024E+00 0.30000000E+03</pdfrwt>
<pdfrwt beam="2">0</pdfrwt>
<totfact> 0.14517791E-04</totfact>
</mgrwt>
<clustering>
<clus scale="   31.374">  1  6  2 -1</clus>
<clus scale="  484.952">  4  5 -1 -1</clus>
<clus scale="  300.000">  1  4  2 -1</clus>
</clustering>
</event>
<event>
 6    1  0.9480355E-012  0.3000000E+03  0.7818608E-02  0.1093470E+00
          1   -1    0    0  502    0  0.00000000000E+00  0.00000000000E+00  0.22707430743E+03  0.22707430743E+03  0.00000000000E+00 0.  1.
         13   -1    0    0    0    0 -0.00000000000E+00 -0.00000000000E+00 -0.27500000000E+03  0.27500000000E+03  0.00000000000E+00 0.  1.
    9000005    2    1    2  501    0  0.10546154042E+02  0.28533231192E+02 -0.66513745817E+02  0.46642487025E+03  0.46065465868E+03 0.  0.
         13    1    3    3    0    0 -0.32383050100E+02  0.13454817110E+03  0.16068216226E+03  0.21206279624E+03  0.00000000000E+00 0.  1.
          1    1    3    3  501    0  0.42929204142E+02 -0.10601493991E+03 -0.22719590807E+03  0.25436207402E+03  0.00000000000E+00 0.  1.
         21    1    1    2  502  501 -0.10546154042E+02 -0.28533231192E+02  0.18588053243E+02  0.35649437172E+02  0.00000000000E+00 0. -1.
<scales pt_clust_4="550.00000" pt_clust_5="550.00000" pt_clust_6="30.41984"></scales>
<mgrwt>
<rscale>  0 0.30000000E+03</rscale>
<asrwt>  1 0.30419840E+02</asrwt>
<pdfrwt beam="1">  1        1 0.82572475E+00 0.30000000E+03</pdfrwt>
<pdfrwt beam="2">0</pdfrwt>
<totfact> 0.66086435E-04</totfact>
</mgrwt>
<clustering>
<clus scale="   30.420">  1  6  2 -1</clus>
<clus scale="  460.655">  4  5 -1 -1</clus>
<clus scale="  300.000">  1  4  2 -1</clus>
</clustering>
</event>
<event>
 6    1  0.9480355E-012  0.3000000E+03  0.7818608E-02  0.1093470E+00
          1   -1    0    0  502    0  0.00000000000E+00  0.00000000000E+00  0.24886968934E+03  0.24886968934E+03  0.00000000000E+00 0.  1.
         13   -1    0    0    0    0 -0.00000000000E+00 -0.00000000000E+00 -0.27500000000E+03  0.27500000000E+03  0.00000000000E+00 0.  1.
    9000005    2    1    2  501    0  0.33766594927E+02 -0.20658334156E+02 -0.54171287108E+02  0.47535942173E+03  0.47060078812E+03 0.  0.
         13    1    3    3    0    0  0.16845916950E+03 -0.11465042292E+03  0.11957758396E+03  0.23626681919E+03  0.00000000000E+00 0.  1.
          1    1    3    3  501    0 -0.13469257457E+03  0.93992088765E+02 -0.17374887107E+03  0.23909260255E+03  0.00000000000E+00 0.  1.
         21    1    1    2  502  501 -0.33766594927E+02  0.20658334156E+02  0.28040976450E+02  0.48510267607E+02  0.00000000000E+00 0. -1.
<scales pt_clust_4="550.00000" pt_clust_5="550.00000" pt_clust_6="39.58472"></scales>
<mgrwt>
<rscale>  0 0.30000000E+03</rscale>
<asrwt>  1 0.39584716E+02</asrwt>
<pdfrwt beam="1">  1        1 0.90498069E+00 0.30000000E+03</pdfrwt>
<pdfrwt beam="2">0</pdfrwt>
<totfact> 0.90459642E-05</totfact>
</mgrwt>
<clustering>
<clus scale="   39.585">  1  6  2 -1</clus>
<clus scale="  470.601">  4  5 -1 -1</clus>
<clus scale="  300.000">  1  4  2 -1</clus>
</clustering>
</event>
<event>
 6    1  0.9480355E-012  0.3000000E+03  0.7818608E-02  0.1093470E+00
          1   -1    0    0  502    0  0.00000000000E+00  0.00000000000E+00  0.24356473436E+03  0.24356473436E+03  0.00000000000E+00 0.  1.
         13   -1    0    0    0    0 -0.00000000000E+00 -0.00000000000E+00 -0.27500000000E+03  0.27500000000E+03  0.00000000000E+00 0.  1.
    9000005    2    1    2  501    0 -0.31600277651E+02  0.46544305253E+01 -0.25553898389E+02  0.48608656089E+03  0.48436236609E+03 0.  0.
         13    1    3    3    0    0 -0.19261129429E+03 -0.82379814262E+02  0.12943607859E+03  0.24625036635E+03  0.00000000000E+00 0.  1.
          1    1    3    3  501    0  0.16101101664E+03  0.87034244787E+02 -0.15498997698E+03  0.23983619454E+03  0.00000000000E+00 0.  1.
         21    1    1    2  502  501  0.31600277651E+02 -0.46544305253E+01 -0.58813672524E+01  0.32478173469E+02  0.00000000000E+00 0.  1.
<scales pt_clust_4="550.00000" pt_clust_5="550.00000" pt_clust_6="31.94123"></scales>
<mgrwt>
<rscale>  0 0.30000000E+03</rscale>
<asrwt>  1 0.31941232E+02</asrwt>
<pdfrwt beam="1">  1        1 0.88568994E+00 0.30000000E+03</pdfrwt>
<pdfrwt beam="2">0</pdfrwt>
<totfact> 0.16893300E-04</totfact>
</mgrwt>
<clustering>
<clus scale="   31.941">  1  6  2 -1</clus>
<clus scale="  484.362">  4  5 -1 -1</clus>
<clus scale="  300.000">  1  4  2 -1</clus>
</clustering>
</event>
<event>
 6    1  0.9480355E-012  0.3000000E+03  0.7818608E-02  0.1093470E+00
          1   -1    0    0  502    0  0.00000000000E+00  0.00000000000E+00  0.25102007597E+03  0.25102007597E+03  0.00000000000E+00 0.  1.
         13   -1    0    0    0    0 -0.00000000000E+00 -0.00000000000E+00 -0.27500000000E+03  0.27500000000E+03  0.00000000000E+00 0.  1.
    9000005    2    1    2  501    0 -0.40399488929E+02 -0.18911927643E+01 -0.64878893071E+02  0.46850120094E+03  0.46222116914E+03 0.  0.
         13    1    3    3    0    0 -0.84148381338E+02  0.21212918134E+03 -0.96508018755E+02  0.24777719294E+03  0.00000000000E+00 0.  1.
          3    1    3    3  501    0  0.43748892409E+02 -0.21402037410E+03  0.31629125684E+02  0.22072400800E+03  0.00000000000E+00 0.  1.
         21    1    1    2  502  501  0.40399488929E+02  0.18911927643E+01  0.40898969041E+02  0.57518875027E+02  0.00000000000E+00 0.  1.
<scales pt_clust_4="550.00000" pt_clust_5="550.00000" pt_clust_6="40.44373"></scales>
<mgrwt>
<rscale>  0 0.30000000E+03</rscale>
<asrwt>  1 0.40443730E+02</asrwt>
<pdfrwt beam="1">  1        1 0.91280028E+00 0.30000000E+03</pdfrwt>
<pdfrwt beam="2">0</pdfrwt>
<totfact> 0.59607549E-05</totfact>
</mgrwt>
<clustering>
<clus scale="   40.444">  1  6  2 -1</clus>
<clus scale="  462.221">  4  5 -1 -1</clus>
<clus scale="  300.000">  1  4  2 -1</clus>
</clustering>
</event>
<event>
 6    1  0.9480355E-012  0.3000000E+03  0.7818608E-02  0.1093470E+00
          1   -1    0    0  502    0  0.00000000000E+00  0.00000000000E+00  0.24256725999E+03  0.24256725999E+03  0.00000000000E+00 0.  1.
         13   -1    0    0    0    0 -0.00000000000E+00 -0.00000000000E+00 -0.27500000000E+03  0.27500000000E+03  0.00000000000E+00 0.  1.
    9000005    2    1    2  501    0  0.18763159891E+02  0.25481875489E+02 -0.52761845068E+02  0.47995536480E+03  0.47599575393E+03 0.  0.
         13    1    3    3    0    0  0.16441749431E+03 -0.70864143422E+02 -0.18759901161E+03  0.25932263383E+03  0.00000000000E+00 0.  1.
          3    1    3    3  501    0 -0.14565433442E+03  0.96346018911E+02  0.13483716654E+03  0.22063273097E+03  0.00000000000E+00 0.  1.
         21    1    1    2  502  501 -0.18763159891E+02 -0.25481875489E+02  0.20329105060E+02  0.37611895194E+02  0.00000000000E+00 0. -1.
<scales pt_clust_4="550.00000" pt_clust_5="550.00000" pt_clust_6="31.64462"></scales>
<mgrwt>
<rscale>  0 0.30000000E+03</rscale>
<asrwt>  1 0.31644623E+02</asrwt>
<pdfrwt beam="1">  1        1 0.88206276E+00 0.30000000E+03</pdfrwt>
<pdfrwt beam="2">0</pdfrwt>
<totfact> 0.18939344E-04</totfact>
</mgrwt>
<clustering>
<clus scale="   31.645">  1  6  2 -1</clus>
<clus scale="  475.996">  4  5 -1 -1</clus>
<clus scale="  300.000">  1  4  2 -1</clus>
</clustering>
</event>
<event>
 6    1  0.9480355E-012  0.3000000E+03  0.7818608E-02  0.1093470E+00
          1   -1    0    0  502    0  0.00000000000E+00  0.00000000000E+00  0.23049364718E+03  0.23049364718E+03  0.00000000000E+00 0.  1.
         13   -1    0    0    0    0 -0.00000000000E+00 -0.00000000000E+00 -0.27500000000E+03  0.27500000000E+03  0.00000000000E+00 0.  1.
    9000005    2    1    2  501    0 -0.27859865609E+02  0.31638076813E+02 -0.53457402255E+02  0.46239769259E+03  0.45735849422E+03 0.  0.
         13    1    3    3    0    0  0.15098790505E+02 -0.17341256797E+03  0.10178737347E+03  0.20164464189E+03  0.00000000000E+00 0.  1.
          3    1    3    3  501    0 -0.42958656114E+02  0.20505064478E+03 -0.15524477572E+03  0.26075305070E+03  0.00000000000E+00 0.  1.
         21    1    1    2  502  501  0.27859865609E+02 -0.31638076813E+02  0.89510494352E+01  0.43095954592E+02  0.00000000000E+00 0.  1.
<scales pt_clust_4="550.00000" pt_clust_5="550.00000" pt_clust_6="42.15614"></scales>
<mgrwt>
<rscale>  0 0.30000000E+03</rscale>
<asrwt>  1 0.42156139E+02</asrwt>
<pdfrwt beam="1">  1        1 0.83815872E+00 0.30000000E+03</pdfrwt>
<pdfrwt beam="2">0</pdfrwt>
<totfact> 0.49583884E-04</totfact>
</mgrwt>
<clustering>
<clus scale="   42.156">  1  6  2 -1</clus>
<clus scale="  457.358">  4  5 -1 -1</clus>
<clus scale="  300.000">  1  4  2 -1</clus>
</clustering>
</event>
<event>
 6    1  0.9480355E-012  0.3000000E+03  0.7818608E-02  0.1093470E+00
          1   -1    0    0  502    0  0.00000000000E+00  0.00000000000E+00  0.22876183851E+03  0.22876183851E+03  0.00000000000E+00 0.  1.
         13   -1    0    0    0    0 -0.00000000000E+00 -0.00000000000E+00 -0.27500000000E+03  0.27500000000E+03  0.00000000000E+00 0.  1.
    9000005    2    1    2  501    0 -0.18429248189E+02  0.31644619251E+02 -0.61947810604E+02  0.46391447734E+03  0.45829912932E+03 0.  0.
         13    1    3    3    0    0 -0.23283084124E+03 -0.34086118616E+02 -0.38489326713E+02  0.23843970388E+03  0.00000000000E+00 0.  1.
          3    1    3    3  501    0  0.21440159305E+03  0.65730737867E+02 -0.23458483891E+02  0.22547477347E+03  0.00000000000E+00 0.  1.
         21    1    1    2  502  501  0.18429248189E+02 -0.31644619251E+02  0.15709649109E+02  0.39847361161E+02  0.00000000000E+00 0. -1.
<scales pt_clust_4="550.00000" pt_clust_5="550.00000" pt_clust_6="36.61993"></scales>
<mgrwt>
<rscale>  0 0.30000000E+03</rscale>
<asrwt>  1 0.36619928E+02</asrwt>
<pdfrwt beam="1">  1        1 0.83186123E+00 0.30000000E+03</pdfrwt>
<pdfrwt beam="2">0</pdfrwt>
<totfact> 0.56630483E-04</totfact>
</mgrwt>
<clustering>
<clus scale="   36.620">  1  6  2 -1</clus>
<clus scale="  458.299">  4  5 -1 -1</clus>
<clus scale="  300.000">  1  4  2 -1</clus>
</clustering>
</event>
<event>
 6    1  0.9480355E-012  0.3000000E+03  0.7818608E-02  0.1093470E+00
          1   -1    0    0  502    0  0.00000000000E+00  0.00000000000E+00  0.24746247663E+03  0.24746247663E+03  0.00000000000E+00 0.  1.
         13   -1    0    0    0    0 -0.00000000000E+00 -0.00000000000E+00 -0.27500000000E+03  0.27500000000E+03  0.00000000000E+00 0.  1.
    9000005    2    1    2  501    0  0.24107224019E+02 -0.18130934869E+02 -0.45813349297E+02  0.48719358293E+03  0.48409589466E+03 0.  0.
         13    1    3    3    0    0 -0.38936071567E+02  0.14788553588E+03 -0.20017093466E+03  0.25190187072E+03  0.00000000000E+00 0.  1.
          1    1    3    3  501    0  0.63043295587E+02 -0.16601647075E+03  0.15435758536E+03  0.23529171221E+03  0.00000000000E+00 0.  1.
         21    1    1    2  502  501 -0.24107224019E+02  0.18130934869E+02  0.18275825926E+02  0.35268893694E+02  0.00000000000E+00 0. -1.
<scales pt_clust_4="550.00000" pt_clust_5="550.00000" pt_clust_6="30.16437"></scales>
<mgrwt>
<rscale>  0 0.30000000E+03</rscale>
<asrwt>  1 0.30164367E+02</asrwt>
<pdfrwt beam="1">  1        1 0.89986355E+00 0.30000000E+03</pdfrwt>
<pdfrwt beam="2">0</pdfrwt>
<totfact> 0.11404861E-04</totfact>
</mgrwt>
<clustering>
<clus scale="   30.164">  1  6  2 -1</clus>
<clus scale="  484.096">  4  5 -1 -1</clus>
<clus scale="  300.000">  1  4  2 -1</clus>
</clustering>
</event>
<event>
 6    1  0.9480355E-012  0.3000000E+03  0.7818608E-02  0.1093470E+00
          1   -1    0    0  502    0  0.00000000000E+00  0.00000000000E+00  0.22936646914E+03  0.22936646914E+03  0.00000000000E+00 0.  1.
         13   -1    0    0    0    0 -0.00000000000E+00 -0.00000000000E+00 -0.27500000000E+03  0.27500000000E+03  0.00000000000E+00 0.  1.
    9000005    2    1    2  501    0 -0.34160692392E+02  0.25860702446E+01 -0.35747790513E+02  0.46871021406E+03  0.46608767370E+03 0.  0.
         13    1    3    3    0    0 -0.13444153293E+03  0.44562408418E+02  0.17885467565E+03  0.22814322042E+03  0.00000000000E+00 0.  1.
          1    1    3    3  501    0  0.10028084054E+03 -0.41976338174E+02 -0.21460246617E+03  0.24056699364E+03  0.00000000000E+00 0.  1.
         21    1    1    2  502  501  0.34160692392E+02 -0.25860702446E+01 -0.98857403464E+01  0.35656255079E+02  0.00000000000E+00 0. -1.
<scales pt_clust_4="550.00000" pt_clust_5="550.00000" pt_clust_6="34.25846"></scales>
<mgrwt>
<rscale>  0 0.30000000E+03</rscale>
<asrwt>  1 0.34258456E+02</asrwt>
<pdfrwt beam="1">  1        1 0.83405989E+00 0.30000000E+03</pdfrwt>
<pdfrwt beam="2">0</pdfrwt>
<totfact> 0.55186576E-04</totfact>
</mgrwt>
<clustering>
<clus scale="   34.258">  1  6  2 -1</clus>
<clus scale="  466.088">  4  5 -1 -1</clus>
<clus scale="  300.000">  1  4  2 -1</clus>
</clustering>
</event>
<event>
 6    1  0.9480355E-012  0.3000000E+03  0.7818608E-02  0.1093470E+00
          1   -1    0    0  502    0  0.00000000000E+00  0.00000000000E+00  0.25003407292E+03  0.25003407292E+03  0.00000000000E+00 0.  1.
         13   -1    0    0    0    0 -0.00000000000E+00 -0.00000000000E+00 -0.27500000000E+03  0.27500000000E+03  0.00000000000E+00 0.  1.
    9000005    2    1    2  501    0 -0.34097001859E+02  0.67330582083E+01 -0.26394740468E+02  0.49024929010E+03  0.48830292290E+03 0.  0.
         13    1    3    3    0    0  0.18943735774E+03  0.11597499088E+03  0.54356443559E+02  0.22867298479E+03  0.00000000000E+00 0.  1.
          3    1    3    3  501    0 -0.22353435960E+03 -0.10924193267E+03 -0.80751184027E+02  0.26157630531E+03  0.00000000000E+00 0.  1.
         21    1    1    2  502  501  0.34097001859E+02 -0.67330582083E+01  0.14288133926E+01  0.34784782827E+02  0.00000000000E+00 0. -1.
<scales pt_clust_4="550.00000" pt_clust_5="550.00000" pt_clust_6="34.75543"></scales>
<mgrwt>
<rscale>  0 0.30000000E+03</rscale>
<asrwt>  1 0.34755426E+02</asrwt>
<pdfrwt beam="1">  1        1 0.90921481E+00 0.30000000E+03</pdfrwt>
<pdfrwt beam="2">0</pdfrwt>
<totfact> 0.75147508E-05</totfact>
</mgrwt>
<clustering>
<clus scale="   34.755">  1  6  2 -1</clus>
<clus scale="  488.303">  4  5 -1 -1</clus>
<clus scale="  300.000">  1  4  2 -1</clus>
</clustering>
</event>
<event>
 6    1  0.9480355E-012  0.3000000E+03  0.7818608E-02  0.1093470E+00
          1   -1    0    0  502    0  0.00000000000E+00  0.00000000000E+00  0.23546772793E+03  0.23546772793E+03  0.00000000000E+00 0.  1.
         13   -1    0    0    0    0 -0.00000000000E+00 -0.00000000000E+00 -0.27500000000E+03  0.27500000000E+03  0.00000000000E+00 0.  1.
    9000005    2    1    2  501    0 -0.32268780447E+02  0.42900479895E+01 -0.24048066028E+02  0.47441999096E+03  0.47269053263E+03 0.  0.
         13    1    3    3    0    0  0.55774709334E+02 -0.17594749783E+03 -0.14976092228E+03  0.23769029016E+03  0.00000000000E+00 0.  1.
          3    1    3    3  501    0 -0.88043489780E+02  0.18023754582E+03  0.12571285626E+03  0.23672970080E+03  0.00000000000E+00 0.  1.
         21    1    1    2  502  501  0.32268780447E+02 -0.42900479895E+01 -0.15484206047E+02  0.36047736963E+02  0.00000000000E+00 0.  1.
<scales pt_clust_4="550.00000" pt_clust_5="550.00000" pt_clust_6="32.55272"></scales>
<mgrwt>
<rscale>  0 0.30000000E+03</rscale>
<asrwt>  1 0.32552723E+02</asrwt>
<pdfrwt beam="1">  1        1 0.85624628E+00 0.30000000E+03</pdfrwt>
<pdfrwt beam="2">0</pdfrwt>
<totfact> 0.35885892E-04</totfact>
</mgrwt>
<clustering>
<clus scale="   32.553">  1  6  2 -1</clus>
<clus scale="  472.691">  4  5 -1 -1</clus>
<clus scale="  300.000">  1  4  2 -1</clus>
</clustering>
</event>
<event>
 6    1  0.9480355E-012  0.3000000E+03  0.7818608E-02  0.1093470E+00
          1   -1    0    0  502    0  0.00000000000E+00  0.00000000000E+00  0.24533022788E+03  0.24533022788E+03  0.00000000000E+00 0.  1.
         13   -1    0    0    0    0 -0.00000000000E+00 -0.00000000000E+00 -0.27500000000E+03  0.27500000000E+03  0.00000000000E+00 0.  1.
    9000005    2    1    2  501    0 -0.53403517312E+01  0.47340228279E+02 -0.23296823749E+02  0.47226536503E+03  0.46927839971E+03 0.  0.
         13    1    3    3    0    0  0.18034453621E+03 -0.93340297921E+02  0.78924233696E+02  0.21786600841E+03  0.00000000000E+00 0.  1.
          1    1    3    3  501    0 -0.18568488794E+03  0.14068052620E+03 -0.10222105745E+03  0.25439935662E+03  0.00000000000E+00 0.  1.
         21    1    1    2  502  501  0.53403517312E+01 -0.47340228279E+02 -0.63729483688E+01  0.48064862853E+02  0.00000000000E+00 0. -1.
<scales pt_clust_4="550.00000" pt_clust_5="550.00000" pt_clust_6="47.64052"></scales>
<mgrwt>
<rscale>  0 0.30000000E+03</rscale>
<asrwt>  1 0.47640517E+02</asrwt>
<pdfrwt beam="1">  1        1 0.89210992E+00 0.30000000E+03</pdfrwt>
<pdfrwt beam="2">0</pdfrwt>
<totfact> 0.12880222E-04</totfact>
</mgrwt>
<clustering>
<clus scale="   47.641">  1  6  2 -1</clus>
<clus scale="  469.278">  4  5 -1 -1</clus>
<clus scale="  300.000">  1  4  2 -1</clus>
</clustering>
</event>
<event>
 6    1  0.9480355E-012  0.3000000E+03  0.7818608E-02  0.1093470E+00
          1   -1    0    0  502    0  0.00000000000E+00  0.00000000000E+00  0.25121709445E+03  0.25121709445E+03  0.00000000000E+00 0.  1.
         13   -1    0    0    0    0 -0.00000000000E+00 -0.00000000000E+00 -0.27500000000E+03  0.27500000000E+03  0.00000000000E+00 0.  1.
    9000005    2    1    2  501    0  0.16492334050E+02  0.43349740845E+02 -0.37987082515E+02  0.47770981915E+03  0.47393296547E+03 0.  0.
         13    1    3    3    0    0 -0.20293953346E+03  0.12300843929E+03  0.16868957350E+02  0.23790773863E+03  0.00000000000E+00 0.  1.
          1    1    3    3  501    0  0.21943186751E+03 -0.79658698448E+02 -0.54856039865E+02  0.23980208053E+03  0.00000000000E+00 0.  1.
         21    1    1    2  502  501 -0.16492334050E+02 -0.43349740845E+02  0.14204176969E+02  0.48507275301E+02  0.00000000000E+00 0.  1.
<scales pt_clust_4="550.00000" pt_clust_5="550.00000" pt_clust_6="46.38100"></scales>
<mgrwt>
<rscale>  0 0.30000000E+03</rscale>
<asrwt>  1 0.46380999E+02</asrwt>
<pdfrwt beam="1">  1        1 0.91351671E+00 0.30000000E+03</pdfrwt>
<pdfrwt beam="2">0</pdfrwt>
<totfact> 0.55824496E-05</totfact>
</mgrwt>
<clustering>
<clus scale="   46.381">  1  6  2 -1</clus>
<clus scale="  473.933">  4  5 -1 -1</clus>
<clus scale="  300.000">  1  4  2 -1</clus>
</clustering>
</event>
<event>
 6    1  0.9480355E-012  0.3000000E+03  0.7818608E-02  0.1093470E+00
          1   -1    0    0  502    0  0.00000000000E+00  0.00000000000E+00  0.24647668193E+03  0.24647668193E+03  0.00000000000E+00 0.  1.
         13   -1    0    0    0    0 -0.00000000000E+00 -0.00000000000E+00 -0.27500000000E+03  0.27500000000E+03  0.00000000000E+00 0.  1.
    9000005    2    1    2  501    0 -0.47433133824E+02 -0.20260617414E+01 -0.25063165046E+02  0.47387437348E+03  0.47082348337E+03 0.  0.
         13    1    3    3    0    0  0.91630331830E+02  0.18084614034E+03  0.84138187022E+02  0.21950097654E+03  0.00000000000E+00 0.  1.
          3    1    3    3  501    0 -0.13906346565E+03 -0.18287220209E+03 -0.10920135207E+03  0.25437339694E+03  0.00000000000E+00 0.  1.
         21    1    1    2  502  501  0.47433133824E+02  0.20260617414E+01 -0.34601530252E+01  0.47602308447E+02  0.00000000000E+00 0.  1.
<scales pt_clust_4="550.00000" pt_clust_5="550.00000" pt_clust_6="47.47641"></scales>
<mgrwt>
<rscale>  0 0.30000000E+03</rscale>
<asrwt>  1 0.47476409E+02</asrwt>
<pdfrwt beam="1">  1        1 0.89627884E+00 0.30000000E+03</pdfrwt>
<pdfrwt beam="2">0</pdfrwt>
<totfact> 0.11543236E-04</totfact>
</mgrwt>
<clustering>
<clus scale="   47.476">  1  6  2 -1</clus>
<clus scale="  470.823">  4  5 -1 -1</clus>
<clus scale="  300.000">  1  4  2 -1</clus>
</clustering>
</event>
<event>
 6    1  0.9480355E-012  0.3000000E+03  0.7818608E-02  0.1093470E+00
          1   -1    0    0  502    0  0.00000000000E+00  0.00000000000E+00  0.22688358603E+03  0.22688358603E+03  0.00000000000E+00 0.  1.
         13   -1    0    0    0    0 -0.00000000000E+00 -0.00000000000E+00 -0.27500000000E+03  0.27500000000E+03  0.00000000000E+00 0.  1.
    9000005    2    1    2  501    0 -0.19955875899E+02 -0.25273507575E+02 -0.41830999724E+02  0.46907362412E+03  0.46609360126E+03 0.  0.
         13    1    3    3    0    0 -0.23351778123E+02  0.21977423485E+03 -0.36174631539E+01  0.22104095975E+03  0.00000000000E+00 0.  1.
          1    1    3    3  501    0  0.33959022232E+01 -0.24504774243E+03 -0.38213536570E+02  0.24803266438E+03  0.00000000000E+00 0.  1.
         21    1    1    2  502  501  0.19955875899E+02  0.25273507575E+02 -0.62854142484E+01  0.32809961907E+02  0.00000000000E+00 0. -1.
<scales pt_clust_4="550.00000" pt_clust_5="550.00000" pt_clust_6="32.20230"></scales>
<mgrwt>
<rscale>  0 0.30000000E+03</rscale>
<asrwt>  1 0.32202301E+02</asrwt>
<pdfrwt beam="1">  1        1 0.82503122E+00 0.30000000E+03</pdfrwt>
<pdfrwt beam="2">0</pdfrwt>
<totfact> 0.66308343E-04</totfact>
</mgrwt>
<clustering>
<clus scale="   32.202">  1  6  2 -1</clus>
<clus scale="  466.094">  4  5 -1 -1</clus>
<clus scale="  300.000">  1  4  2 -1</clus>
</clustering>
</event>
<event>
 6    1  0.9480355E-012  0.3000000E+03  0.7818608E-02  0.1093470E+00
          1   -1    0    0  502    0  0.00000000000E+00  0.00000000000E+00  0.24448925877E+03  0.24448925877E+03  0.00000000000E+00 0.  1.
         13   -1    0    0    0    0 -0.00000000000E+00 -0.00000000000E+00 -0.27500000000E+03  0.27500000000E+03  0.00000000000E+00 0.  1.
    9000005    2    1    2  501    0  0.52303600873E+01 -0.52539309742E+02 -0.35300915722E+02  0.46647339788E+03  0.46212935477E+03 0.  0.
         13    1    3    3    0    0  0.22012007105E+03 -0.60845886909E+02 -0.88529304970E+02  0.24493367566E+03  0.00000000000E+00 0.  1.
          3    1    3    3  501    0 -0.21488971096E+03  0.83065771678E+01  0.53228389248E+02  0.22153972222E+03  0.00000000000E+00 0.  1.
         21    1    1    2  502  501 -0.52303600873E+01  0.52539309742E+02  0.47901744948E+01  0.53015860895E+02  0.00000000000E+00 0.  1.
<scales pt_clust_4="550.00000" pt_clust_5="550.00000" pt_clust_6="52.79901"></scales>
<mgrwt>
<rscale>  0 0.30000000E+03</rscale>
<asrwt>  1 0.52799013E+02</asrwt>
<pdfrwt beam="1">  1        1 0.88905185E+00 0.30000000E+03</pdfrwt>
<pdfrwt beam="2">0</pdfrwt>
<totfact> 0.13861368E-04</totfact>
</mgrwt>
<clustering>
<clus scale="   52.799">  1  6  2 -1</clus>
<clus scale="  462.129">  4  5 -1 -1</clus>
<clus scale="  300.000">  1  4  2 -1</clus>
</clustering>
</event>
<event>
 6    1  0.9480355E-012  0.3000000E+03  0.7818608E-02  0.1093470E+00
          1   -1    0    0  502    0  0.00000000000E+00  0.00000000000E+00  0.23917960832E+03  0.23917960832E+03  0.00000000000E+00 0.  1.
         13   -1    0    0    0    0 -0.00000000000E+00 -0.00000000000E+00 -0.27500000000E+03  0.27500000000E+03  0.00000000000E+00 0.  1.
    9000005    2    1    2  501    0 -0.28995723076E+02 -0.18129709221E+02 -0.40613300445E+02  0.47964831400E+03  0.47670077264E+03 0.  0.
         13    1    3    3    0    0 -0.22213538312E+03 -0.12670559741E+03 -0.34017772858E+02  0.25798380903E+03  0.00000000000E+00 0.  1.
          3    1    3    3  501    0  0.19313966005E+03  0.10857588819E+03 -0.65955275869E+01  0.22166450497E+03  0.00000000000E+00 0.  1.
         21    1    1    2  502  501  0.28995723076E+02  0.18129709221E+02  0.47929087649E+01  0.34531294322E+02  0.00000000000E+00 0.  1.
<scales pt_clust_4="550.00000" pt_clust_5="550.00000" pt_clust_6="34.19705"></scales>
<mgrwt>
<rscale>  0 0.30000000E+03</rscale>
<asrwt>  1 0.34197051E+02</asrwt>
<pdfrwt beam="1">  1        1 0.86974403E+00 0.30000000E+03</pdfrwt>
<pdfrwt beam="2">0</pdfrwt>
<totfact> 0.25589400E-04</totfact>
</mgrwt>
<clustering>
<clus scale="   34.197">  1  6  2 -1</clus>
<clus scale="  476.701">  4  5 -1 -1</clus>
<clus scale="  300.000">  1  4  2 -1</clus>
</clustering>
</event>
<event>
 6    1  0.9480355E-012  0.3000000E+03  0.7818608E-02  0.1093470E+00
          1   -1    0    0  502    0  0.00000000000E+00  0.00000000000E+00  0.22714730340E+03  0.22714730340E+03  0.00000000000E+00 0.  1.
         13   -1    0    0    0    0 -0.00000000000E+00 -0.00000000000E+00 -0.27500000000E+03  0.27500000000E+03  0.00000000000E+00 0.  1.
    9000005    2    1    2  501    0 -0.35949329653E+02 -0.84325548098E+01 -0.52942597609E+02  0.46487305793E+03  0.46037004580E+03 0.  0.
         13    1    3    3    0    0 -0.30052209126E+02 -0.13527251287E+03  0.16326089783E+03  0.21413992802E+03  0.00000000000E+00 0.  1.
          3    1    3    3  501    0 -0.58971205270E+01  0.12683995806E+03 -0.21620349544E+03  0.25073312991E+03  0.00000000000E+00 0.  1.
         21    1    1    2  502  501  0.35949329653E+02  0.84325548098E+01  0.50899010132E+01  0.37274245471E+02  0.00000000000E+00 0.  1.
<scales pt_clust_4="550.00000" pt_clust_5="550.00000" pt_clust_6="36.92509"></scales>
<mgrwt>
<rscale>  0 0.30000000E+03</rscale>
<asrwt>  1 0.36925090E+02</asrwt>
<pdfrwt beam="1">  1        1 0.82599019E+00 0.30000000E+03</pdfrwt>
<pdfrwt beam="2">0</pdfrwt>
<totfact> 0.63369572E-04</totfact>
</mgrwt>
<clustering>
<clus scale="   36.925">  1  6  2 -1</clus>
<clus scale="  460.370">  4  5 -1 -1</clus>
<clus scale="  300.000">  1  4  2 -1</clus>
</clustering>
</event>
<event>
 6    1  0.9480355E-012  0.3000000E+03  0.7818608E-02  0.1093470E+00
          1   -1    0    0  502    0  0.00000000000E+00  0.00000000000E+00  0.24284697315E+03  0.24284697315E+03  0.00000000000E+00 0.  1.
         13   -1    0    0    0    0 -0.00000000000E+00 -0.00000000000E+00 -0.27500000000E+03  0.27500000000E+03  0.00000000000E+00 0.  1.
    9000005    2    1    2  501    0  0.96693260635E+01  0.36424184698E+02 -0.29036872018E+02  0.48003259072E+03  0.47766926960E+03 0.  0.
         13    1    3    3    0    0  0.14162848938E+03 -0.74408975057E+02 -0.18711278478E+03  0.24618391255E+03  0.00000000000E+00 0.  1.
          3    1    3    3  501    0 -0.13195916332E+03  0.11083315975E+03  0.15807591276E+03  0.23384867816E+03  0.00000000000E+00 0.  1.
         21    1    1    2  502  501 -0.96693260635E+01 -0.36424184698E+02 -0.31161548349E+01  0.37814382427E+02  0.00000000000E+00 0.  1.
<scales pt_clust_4="550.00000" pt_clust_5="550.00000" pt_clust_6="37.68579"></scales>
<mgrwt>
<rscale>  0 0.30000000E+03</rscale>
<asrwt>  1 0.37685787E+02</asrwt>
<pdfrwt beam="1">  1        1 0.88307990E+00 0.30000000E+03</pdfrwt>
<pdfrwt beam="2">0</pdfrwt>
<totfact> 0.17771310E-04</totfact>
</mgrwt>
<clustering>
<clus scale="   37.686">  1  6  2 -1</clus>
<clus scale="  477.669">  4  5 -1 -1</clus>
<clus scale="  300.000">  1  4  2 -1</clus>
</clustering>
</event>
<event>
 6    1  0.9480355E-012  0.3000000E+03  0.7818608E-02  0.1093470E+00
          1   -1    0    0  502    0  0.00000000000E+00  0.00000000000E+00  0.24143128355E+03  0.24143128355E+03  0.00000000000E+00 0.  1.
         13   -1    0    0    0    0 -0.00000000000E+00 -0.00000000000E+00 -0.27500000000E+03  0.27500000000E+03  0.00000000000E+00 0.  1.
    9000005    2    1    2  501    0  0.25758347817E+02 -0.17608423070E+02 -0.21485199545E+02  0.48297145053E+03  0.48148339450E+03 0.  0.
         13    1    3    3    0    0  0.16748096690E+02  0.18827689036E+03 -0.14895014515E+03  0.24065500603E+03  0.00000000000E+00 0.  1.
          3    1    3    3  501    0  0.90102511264E+01 -0.20588531343E+03  0.12746494561E+03  0.24231644449E+03  0.00000000000E+00 0.  1.
         21    1    1    2  502  501 -0.25758347817E+02  0.17608423070E+02 -0.12083516904E+02  0.33459833025E+02  0.00000000000E+00 0.  1.
<scales pt_clust_4="550.00000" pt_clust_5="550.00000" pt_clust_6="31.20176"></scales>
<mgrwt>
<rscale>  0 0.30000000E+03</rscale>
<asrwt>  1 0.31201763E+02</asrwt>
<pdfrwt beam="1">  1        1 0.87793194E+00 0.30000000E+03</pdfrwt>
<pdfrwt beam="2">0</pdfrwt>
<totfact> 0.21346178E-04</totfact>
</mgrwt>
<clustering>
<clus scale="   31.202">  1  6  2 -1</clus>
<clus scale="  481.483">  4  5 -1 -1</clus>
<clus scale="  300.000">  1  4  2 -1</clus>
</clustering>
</event>
<event>
 6    1  0.9480355E-012  0.3000000E+03  0.7818608E-02  0.1093470E+00
          1   -1    0    0  502    0  0.00000000000E+00  0.00000000000E+00  0.23248832057E+03  0.23248832057E+03  0.00000000000E+00 0.  1.
         13   -1    0    0    0    0 -0.00000000000E+00 -0.00000000000E+00 -0.27500000000E+03  0.27500000000E+03  0.00000000000E+00 0.  1.
    9000005    2    1    2  501    0 -0.74459660918E+01  0.31438579433E+02 -0.47939193682E+02  0.47472729802E+03  0.47119424286E+03 0.  0.
         13    1    3    3    0    0  0.63933643775E+02 -0.17547769437E+03  0.98725952272E+02  0.21125043356E+03  0.00000000000E+00 0.  1.
          3    1    3    3  501    0 -0.71379609867E+02  0.20691627380E+03 -0.14666514595E+03  0.26347686446E+03  0.00000000000E+00 0.  1.
         21    1    1    2  502  501  0.74459660918E+01 -0.31438579433E+02  0.54275142508E+01  0.32761022553E+02  0.00000000000E+00 0.  1.
<scales pt_clust_4="550.00000" pt_clust_5="550.00000" pt_clust_6="32.30831"></scales>
<mgrwt>
<rscale>  0 0.30000000E+03</rscale>
<asrwt>  1 0.32308307E+02</asrwt>
<pdfrwt beam="1">  1        1 0.84541207E+00 0.30000000E+03</pdfrwt>
<pdfrwt beam="2">0</pdfrwt>
<totfact> 0.45488815E-04</totfact>
</mgrwt>
<clustering>
<clus scale="   32.308">  1  6  2 -1</clus>
<clus scale="  471.194">  4  5 -1 -1</clus>
<clus scale="  300.000">  1  4  2 -1</clus>
</clustering>
</event>
<event>
 6    1  0.9480355E-012  0.3000000E+03  0.7818608E-02  0.1093470E+00
          1   -1    0    0  502    0  0.00000000000E+00  0.00000000000E+00  0.24965088631E+03  0.24965088631E+03  0.00000000000E+00 0.  1.
         13   -1    0    0    0    0 -0.00000000000E+00 -0.00000000000E+00 -0.27500000000E+03  0.27500000000E+03  0.00000000000E+00 0.  1.
    9000005    2    1    2  501    0 -0.13740105928E+01  0.30323996517E+02 -0.61910334227E+02  0.47713083247E+03  0.47212234552E+03 0.  0.
         13    1    3    3    0    0 -0.22328805485E+03  0.65446073309E+02  0.29553326885E+02  0.23455093920E+03  0.00000000000E+00 0.  1.
          1    1    3    3  501    0  0.22191404425E+03 -0.35122076792E+02 -0.91463661112E+02  0.24257989327E+03  0.00000000000E+00 0.  1.
         21    1    1    2  502  501  0.13740105928E+01 -0.30323996517E+02  0.36561220534E+02  0.47520053839E+02  0.00000000000E+00 0.  1.
<scales pt_clust_4="550.00000" pt_clust_5="550.00000" pt_clust_6="30.35511"></scales>
<mgrwt>
<rscale>  0 0.30000000E+03</rscale>
<asrwt>  1 0.30355109E+02</asrwt>
<pdfrwt beam="1">  1        1 0.90782140E+00 0.30000000E+03</pdfrwt>
<pdfrwt beam="2">0</pdfrwt>
<totfact> 0.83030299E-05</totfact>
</mgrwt>
<clustering>
<clus scale="   30.355">  1  6  2 -1</clus>
<clus scale="  472.122">  4  5 -1 -1</clus>
<clus scale="  300.000">  1  4  2 -1</clus>
</clustering>
</event>
<event>
 6    1  0.9480355E-012  0.3000000E+03  0.7818608E-02  0.1093470E+00
          1   -1    0    0  502    0  0.00000000000E+00  0.00000000000E+00  0.23316387480E+03  0.23316387480E+03  0.00000000000E+00 0.  1.
         13   -1    0    0    0    0 -0.00000000000E+00 -0.00000000000E+00 -0.27500000000E+03  0.27500000000E+03  0.00000000000E+00 0.  1.
    9000005    2    1    2  501    0 -0.22542098874E+02  0.24247929323E+02 -0.31695297844E+02  0.47353809426E+03  0.47131478495E+03 0.  0.
         13    1    3    3    0    0 -0.18518443825E+03  0.13202029002E+03  0.88881983050E+02  0.24417747656E+03  0.00000000000E+00 0.  1.
          1    1    3    3  501    0  0.16264233937E+03 -0.10777236070E+03 -0.12057728089E+03  0.22936061771E+03  0.00000000000E+00 0.  1.
         21    1    1    2  502  501  0.22542098874E+02 -0.24247929323E+02 -0.10140827360E+02  0.34625780535E+02  0.00000000000E+00 0. -1.
<scales pt_clust_4="550.00000" pt_clust_5="550.00000" pt_clust_6="33.10754"></scales>
<mgrwt>
<rscale>  0 0.30000000E+03</rscale>
<asrwt>  1 0.33107543E+02</asrwt>
<pdfrwt beam="1">  1        1 0.84786864E+00 0.30000000E+03</pdfrwt>
<pdfrwt beam="2">0</pdfrwt>
<totfact> 0.43038690E-04</totfact>
</mgrwt>
<clustering>
<clus scale="   33.108">  1  6  2 -1</clus>
<clus scale="  471.315">  4  5 -1 -1</clus>
<clus scale="  300.000">  1  4  2 -1</clus>
</clustering>
</event>
<event>
 6    1  0.9480355E-012  0.3000000E+03  0.7818608E-02  0.1093470E+00
          1   -1    0    0  502    0  0.00000000000E+00  0.00000000000E+00  0.22662446434E+03  0.22662446434E+03  0.00000000000E+00 0.  1.
         13   -1    0    0    0    0 -0.00000000000E+00 -0.00000000000E+00 -0.27500000000E+03  0.27500000000E+03  0.00000000000E+00 0.  1.
    9000005    2    1    2  501    0 -0.23928927906E+01  0.31454144210E+02 -0.57319371801E+02  0.46883603149E+03  0.46424845171E+03 0.  0.
         13    1    3    3    0    0 -0.28828946389E+02 -0.21132244209E+03 -0.69507957077E+02  0.22432039314E+03  0.00000000000E+00 0.  1.
          3    1    3    3  501    0  0.26436053598E+02  0.24277658630E+03  0.12188585276E+02  0.24451563835E+03  0.00000000000E+00 0.  1.
         21    1    1    2  502  501  0.23928927906E+01 -0.31454144210E+02  0.89438361408E+01  0.32788432850E+02  0.00000000000E+00 0. -1.
<scales pt_clust_4="550.00000" pt_clust_5="550.00000" pt_clust_6="31.54503"></scales>
<mgrwt>
<rscale>  0 0.30000000E+03</rscale>
<asrwt>  1 0.31545033E+02</asrwt>
<pdfrwt beam="1">  1        1 0.82408896E+00 0.30000000E+03</pdfrwt>
<pdfrwt beam="2">0</pdfrwt>
<totfact> 0.67872051E-04</totfact>
</mgrwt>
<clustering>
<clus scale="   31.545">  1  6  2 -1</clus>
<clus scale="  464.248">  4  5 -1 -1</clus>
<clus scale="  300.000">  1  4  2 -1</clus>
</clustering>
</event>
<event>
 6    1  0.9480355E-012  0.3000000E+03  0.7818608E-02  0.1093470E+00
          1   -1    0    0  502    0  0.00000000000E+00  0.00000000000E+00  0.22694873003E+03  0.22694873003E+03  0.00000000000E+00 0.  1.
         13   -1    0    0    0    0 -0.00000000000E+00 -0.00000000000E+00 -0.27500000000E+03  0.27500000000E+03  0.00000000000E+00 0.  1.
    9000005    2    1    2  501    0  0.15912249500E+02  0.36047931227E+02 -0.51163714384E+02  0.46242227888E+03  0.45789080064E+03 0.  0.
         13    1    3    3    0    0 -0.43151341133E+02  0.23507356240E+03 -0.81708793836E+02  0.25258255080E+03  0.00000000000E+00 0.  1.
          3    1    3    3  501    0  0.59063590633E+02 -0.19902563117E+03  0.30545079452E+02  0.20983972808E+03  0.00000000000E+00 0.  1.
         21    1    1    2  502  501 -0.15912249500E+02 -0.36047931227E+02  0.31124444105E+01  0.39526451145E+02  0.00000000000E+00 0.  1.
<scales pt_clust_4="550.00000" pt_clust_5="550.00000" pt_clust_6="39.40372"></scales>
<mgrwt>
<rscale>  0 0.30000000E+03</rscale>
<asrwt>  1 0.39403718E+02</asrwt>
<pdfrwt beam="1">  1        1 0.82526811E+00 0.30000000E+03</pdfrwt>
<pdfrwt beam="2">0</pdfrwt>
<totfact> 0.63549600E-04</totfact>
</mgrwt>
<clustering>
<clus scale="   39.404">  1  6  2 -1</clus>
<clus scale="  457.891">  4  5 -1 -1</clus>
<clus scale="  300.000">  1  4  2 -1</clus>
</clustering>
</event>
<event>
 6    1  0.9480355E-012  0.3000000E+03  0.7818608E-02  0.1093470E+00
          1   -1    0    0  502    0  0.00000000000E+00  0.00000000000E+00  0.23742038337E+03  0.23742038337E+03  0.00000000000E+00 0.  1.
         13   -1    0    0    0    0 -0.00000000000E+00 -0.00000000000E+00 -0.27500000000E+03  0.27500000000E+03  0.00000000000E+00 0.  1.
    9000005    2    1    2  501    0  0.32459320738E+01  0.43036505123E+02 -0.62823889414E+02  0.46242088181E+03  0.45609599209E+03 0.  0.
         13    1    3    3    0    0  0.18322949577E+03  0.15753127768E+03 -0.61964583777E+01  0.24171790927E+03  0.00000000000E+00 0.  1.
          1    1    3    3  501    0 -0.17998356369E+03 -0.11449477255E+03 -0.56627431037E+02  0.22070297254E+03  0.00000000000E+00 0.  1.
         21    1    1    2  502  501 -0.32459320738E+01 -0.43036505123E+02  0.25244272785E+02  0.49999501565E+02  0.00000000000E+00 0. -1.
<scales pt_clust_4="550.00000" pt_clust_5="550.00000" pt_clust_6="43.15874"></scales>
<mgrwt>
<rscale>  0 0.30000000E+03</rscale>
<asrwt>  1 0.43158740E+02</asrwt>
<pdfrwt beam="1">  1        1 0.86334685E+00 0.30000000E+03</pdfrwt>
<pdfrwt beam="2">0</pdfrwt>
<totfact> 0.28646482E-04</totfact>
</mgrwt>
<clustering>
<clus scale="   43.159">  1  6  2 -1</clus>
<clus scale="  456.096">  4  5 -1 -1</clus>
<clus scale="  300.000">  1  4  2 -1</clus>
</clustering>
</event>
<event>
 6    1  0.9480355E-012  0.3000000E+03  0.7818608E-02  0.1093470E+00
          1   -1    0    0  502    0  0.00000000000E+00  0.00000000000E+00  0.23951634603E+03  0.23951634603E+03  0.00000000000E+00 0.  1.
         13   -1    0    0    0    0 -0.00000000000E+00 -0.00000000000E+00 -0.27500000000E+03  0.27500000000E+03  0.00000000000E+00 0.  1.
    9000005    2    1    2  501    0  0.16692912668E+01 -0.47204477517E+02 -0.36545446908E+02  0.46727042943E+03  0.46343827561E+03 0.  0.
         13    1    3    3    0    0 -0.17834612230E+03  0.81056980298E+02  0.86663440370E+02  0.21421513787E+03  0.00000000000E+00 0.  1.
          1    1    3    3  501    0  0.18001541357E+03 -0.12826145782E+03 -0.12320888728E+03  0.25305529156E+03  0.00000000000E+00 0.  1.
         21    1    1    2  502  501 -0.16692912668E+01  0.47204477517E+02  0.10617929381E+01  0.47245916599E+02  0.00000000000E+00 0.  1.
<scales pt_clust_4="550.00000" pt_clust_5="550.00000" pt_clust_6="47.23398"></scales>
<mgrwt>
<rscale>  0 0.30000000E+03</rscale>
<asrwt>  1 0.47233984E+02</asrwt>
<pdfrwt beam="1">  1        1 0.87096853E+00 0.30000000E+03</pdfrwt>
<pdfrwt beam="2">0</pdfrwt>
<totfact> 0.23440497E-04</totfact>
</mgrwt>
<clustering>
<clus scale="   47.234">  1  6  2 -1</clus>
<clus scale="  463.438">  4  5 -1 -1</clus>
<clus scale="  300.000">  1  4  2 -1</clus>
</clustering>
</event>
<event>
 6    1  0.9480355E-012  0.3000000E+03  0.7818608E-02  0.1093470E+00
          1   -1    0    0  502    0  0.00000000000E+00  0.00000000000E+00  0.26098981766E+03  0.26098981766E+03  0.00000000000E+00 0.  1.
         13   -1    0    0    0    0 -0.00000000000E+00 -0.00000000000E+00 -0.27500000000E+03  0.27500000000E+03  0.00000000000E+00 0.  1.
    9000005    2    1    2  501    0  0.37492407786E+02  0.18185334460E+02 -0.26119841982E+02  0.49259591385E+03  0.49013477857E+03 0.  0.
         13    1    3    3    0    0  0.75610519150E+02 -0.18656588366E+03 -0.14929848269E+03  0.25062684710E+03  0.00000000000E+00 0.  1.
          1    1    3    3  501    0 -0.38118111363E+02  0.20475121812E+03  0.12317864071E+03  0.24196906675E+03  0.00000000000E+00 0.  1.
         21    1    1    2  502  501 -0.37492407786E+02 -0.18185334460E+02  0.12109659642E+02  0.43393903808E+02  0.00000000000E+00 0. -1.
<scales pt_clust_4="550.00000" pt_clust_5="550.00000" pt_clust_6="41.66998"></scales>
<mgrwt>
<rscale>  0 0.30000000E+03</rscale>
<asrwt>  1 0.41669978E+02</asrwt>
<pdfrwt beam="1">  1        1 0.94905388E+00 0.30000000E+03</pdfrwt>
<pdfrwt beam="2">0</pdfrwt>
<totfact> 0.12493728E-05</totfact>
</mgrwt>
<clustering>
<clus scale="   41.670">  1  6  2 -1</clus>
<clus scale="  490.135">  4  5 -1 -1</clus>
<clus scale="  300.000">  1  4  2 -1</clus>
</clustering>
</event>
<event>
 6    1  0.9480355E-012  0.3000000E+03  0.7818608E-02  0.1093470E+00
          1   -1    0    0  502    0  0.00000000000E+00  0.00000000000E+00  0.22763838900E+03  0.22763838900E+03  0.00000000000E+00 0.  1.
         13   -1    0    0    0    0 -0.00000000000E+00 -0.00000000000E+00 -0.27500000000E+03  0.27500000000E+03  0.00000000000E+00 0.  1.
    9000005    2    1    2  501    0 -0.10330732526E+01 -0.32402037663E+02 -0.55896534354E+02  0.46911519998E+03  0.46464361506E+03 0.  0.
         13    1    3    3    0    0 -0.75959637591E+01 -0.31193329134E+02  0.20531927439E+03  0.20781416430E+03  0.00000000000E+00 0.  1.
          1    1    3    3  501    0  0.65628905064E+01 -0.12087085292E+01 -0.26121580875E+03  0.26130103568E+03  0.00000000000E+00 0.  1.
         21    1    1    2  502  501  0.10330732526E+01  0.32402037663E+02  0.85349233497E+01  0.33523189013E+02  0.00000000000E+00 0. -1.
<scales pt_clust_4="550.00000" pt_clust_5="550.00000" pt_clust_6="32.41850"></scales>
<mgrwt>
<rscale>  0 0.30000000E+03</rscale>
<asrwt>  1 0.32418502E+02</asrwt>
<pdfrwt beam="1">  1        1 0.82777596E+00 0.30000000E+03</pdfrwt>
<pdfrwt beam="2">0</pdfrwt>
<totfact> 0.62627618E-04</totfact>
</mgrwt>
<clustering>
<clus scale="   32.419">  1  6  2 -1</clus>
<clus scale="  464.644">  4  5 -1 -1</clus>
<clus scale="  300.000">  1  4  2 -1</clus>
</clustering>
</event>
<event>
 6    1  0.9480355E-012  0.3000000E+03  0.7818608E-02  0.1093470E+00
          1   -1    0    0  502    0  0.00000000000E+00  0.00000000000E+00  0.23766899564E+03  0.23766899564E+03  0.00000000000E+00 0.  1.
         13   -1    0    0    0    0 -0.00000000000E+00 -0.00000000000E+00 -0.27500000000E+03  0.27500000000E+03  0.00000000000E+00 0.  1.
    9000005    2    1    2  501    0  0.31428455009E+02  0.11655204977E+02 -0.47576730525E+02  0.47761808278E+03  0.47405895849E+03 0.  0.
         13    1    3    3    0    0  0.16428273175E+02 -0.77853685353E+02 -0.24647068624E+03  0.25899591437E+03  0.00000000000E+00 0.  1.
          1    1    3    3  501    0  0.15000181834E+02  0.89508890330E+02  0.19889395571E+03  0.21862216842E+03  0.00000000000E+00 0.  1.
         21    1    1    2  502  501 -0.31428455009E+02 -0.11655204977E+02  0.10245726161E+02  0.35050912854E+02  0.00000000000E+00 0.  1.
<scales pt_clust_4="550.00000" pt_clust_5="550.00000" pt_clust_6="33.52002"></scales>
<mgrwt>
<rscale>  0 0.30000000E+03</rscale>
<asrwt>  1 0.33520018E+02</asrwt>
<pdfrwt beam="1">  1        1 0.86425089E+00 0.30000000E+03</pdfrwt>
<pdfrwt beam="2">0</pdfrwt>
<totfact> 0.29343590E-04</totfact>
</mgrwt>
<clustering>
<clus scale="   33.520">  1  6  2 -1</clus>
<clus scale="  474.059">  4  5 -1 -1</clus>
<clus scale="  300.000">  1  4  2 -1</clus>
</clustering>
</event>
<event>
 6    1  0.9480355E-012  0.3000000E+03  0.7818608E-02  0.1093470E+00
          1   -1    0    0  502    0  0.00000000000E+00  0.00000000000E+00  0.22994258855E+03  0.22994258855E+03  0.00000000000E+00 0.  1.
         13   -1    0    0    0    0 -0.00000000000E+00 -0.00000000000E+00 -0.27500000000E+03  0.27500000000E+03  0.00000000000E+00 0.  1.
    9000005    2    1    2  501    0 -0.27188333834E+02 -0.16044828945E+02 -0.41663378109E+02  0.47319102961E+03  0.47029487707E+03 0.  0.
         13    1    3    3    0    0  0.12390418152E+03 -0.13919870273E+03  0.11855475619E+03  0.22087044903E+03  0.00000000000E+00 0.  1.
          3    1    3    3  501    0 -0.15109251536E+03  0.12315387379E+03 -0.16021813430E+03  0.25232058058E+03  0.00000000000E+00 0.  1.
         21    1    1    2  502  501  0.27188333834E+02  0.16044828945E+02 -0.33940333419E+01  0.31751558936E+02  0.00000000000E+00 0. -1.
<scales pt_clust_4="550.00000" pt_clust_5="550.00000" pt_clust_6="31.56965"></scales>
<mgrwt>
<rscale>  0 0.30000000E+03</rscale>
<asrwt>  1 0.31569654E+02</asrwt>
<pdfrwt beam="1">  1        1 0.83615487E+00 0.30000000E+03</pdfrwt>
<pdfrwt beam="2">0</pdfrwt>
<totfact> 0.54106820E-04</totfact>
</mgrwt>
<clustering>
<clus scale="   31.570">  1  6  2 -1</clus>
<clus scale="  470.295">  4  5 -1 -1</clus>
<clus scale="  300.000">  1  4  2 -1</clus>
</clustering>
</event>
<event>
 6    1  0.9480355E-012  0.3000000E+03  0.7818608E-02  0.1093470E+00
          1   -1    0    0  502    0  0.00000000000E+00  0.00000000000E+00  0.22088012560E+03  0.22088012560E+03  0.00000000000E+00 0.  1.
         13   -1    0    0    0    0 -0.00000000000E+00 -0.00000000000E+00 -0.27500000000E+03  0.27500000000E+03  0.00000000000E+00 0.  1.
    9000005    2    1    2  501    0 -0.87187493952E+00 -0.30133689086E+02 -0.50153999664E+02  0.46547408103E+03  0.46178122206E+03 0.  0.
         13    1    3    3    0    0 -0.22793653639E+03  0.15748516544E+02 -0.49684669388E+02  0.23381968858E+03  0.00000000000E+00 0.  1.
          1    1    3    3  501    0  0.22706466145E+03 -0.45882205630E+02 -0.46933027584E+00  0.23165439245E+03  0.00000000000E+00 0.  1.
         21    1    1    2  502  501  0.87187493952E+00  0.30133689086E+02 -0.39658747364E+01  0.30406044568E+02  0.00000000000E+00 0.  1.
<scales pt_clust_4="550.00000" pt_clust_5="550.00000" pt_clust_6="30.14631"></scales>
<mgrwt>
<rscale>  0 0.30000000E+03</rscale>
<asrwt>  1 0.30146315E+02</asrwt>
<pdfrwt beam="1">  1        1 0.80320046E+00 0.30000000E+03</pdfrwt>
<pdfrwt beam="2">0</pdfrwt>
<totfact> 0.10110955E-03</totfact>
</mgrwt>
<clustering>
<clus scale="   30.146">  1  6  2 -1</clus>
<clus scale="  461.781">  4  5 -1 -1</clus>
<clus scale="  300.000">  1  4  2 -1</clus>
</clustering>
</event>
<event>
 6    1  0.9480355E-012  0.3000000E+03  0.7818608E-02  0.1093470E+00
          1   -1    0    0  502    0  0.00000000000E+00  0.00000000000E+00  0.26964908463E+03  0.26964908463E+03  0.00000000000E+00 0.  1.
         13   -1    0    0    0    0 -0.00000000000E+00 -0.00000000000E+00 -0.27500000000E+03  0.27500000000E+03  0.00000000000E+00 0.  1.
    9000005    2    1    2  501    0 -0.27052390555E+02  0.13383248280E+02  0.28775787409E+02  0.49909060560E+03  0.49734539657E+03 0.  0.
         13    1    3    3    0    0 -0.12575530483E+03  0.15193542802E+03 -0.15338298644E+03  0.24985017812E+03  0.00000000000E+00 0.  1.
          1    1    3    3  501    0  0.98702914271E+02 -0.13855217974E+03  0.18215877385E+03  0.24924042747E+03  0.00000000000E+00 0.  1.
         21    1    1    2  502  501  0.27052390555E+02 -0.13383248280E+02 -0.34126702779E+02  0.45558479033E+02  0.00000000000E+00 0.  1.
<scales pt_clust_4="550.00000" pt_clust_5="550.00000" pt_clust_6="30.18185"></scales>
<mgrwt>
<rscale>  0 0.30000000E+03</rscale>
<asrwt>  1 0.30181850E+02</asrwt>
<pdfrwt beam="1">  1        1 0.98054213E+00 0.30000000E+03</pdfrwt>
<pdfrwt beam="2">0</pdfrwt>
<totfact> 0.27970452E-06</totfact>
</mgrwt>
<clustering>
<clus scale="   30.182">  1  6  2 -1</clus>
<clus scale="  497.345">  4  5 -1 -1</clus>
<clus scale="  300.000">  1  4  2 -1</clus>
</clustering>
</event>
<event>
 6    1  0.9480355E-012  0.3000000E+03  0.7818608E-02  0.1093470E+00
          1   -1    0    0  502    0  0.00000000000E+00  0.00000000000E+00  0.23415817557E+03  0.23415817557E+03  0.00000000000E+00 0.  1.
         13   -1    0    0    0    0 -0.00000000000E+00 -0.00000000000E+00 -0.27500000000E+03  0.27500000000E+03  0.00000000000E+00 0.  1.
    9000005    2    1    2  501    0 -0.29200481959E+02  0.22201016446E+02 -0.65930353025E+02  0.46471734362E+03  0.45855189971E+03 0.  0.
         13    1    3    3    0    0  0.13787648283E+03  0.18231769920E+03 -0.30506243219E+02  0.23060854025E+03  0.00000000000E+00 0.  1.
          3    1    3    3  501    0 -0.16707696479E+03 -0.16011668276E+03 -0.35424109806E+02  0.23410880337E+03  0.00000000000E+00 0.  1.
         21    1    1    2  502  501  0.29200481959E+02 -0.22201016446E+02  0.25088528596E+02  0.44440831956E+02  0.00000000000E+00 0. -1.
<scales pt_clust_4="550.00000" pt_clust_5="550.00000" pt_clust_6="36.68178"></scales>
<mgrwt>
<rscale>  0 0.30000000E+03</rscale>
<asrwt>  1 0.36681784E+02</asrwt>
<pdfrwt beam="1">  1        1 0.85148427E+00 0.30000000E+03</pdfrwt>
<pdfrwt beam="2">0</pdfrwt>
<totfact> 0.39061205E-04</totfact>
</mgrwt>
<clustering>
<clus scale="   36.682">  1  6  2 -1</clus>
<clus scale="  458.552">  4  5 -1 -1</clus>
<clus scale="  300.000">  1  4  2 -1</clus>
</clustering>
</event>
<event>
 6    1  0.9480355E-012  0.3000000E+03  0.7818608E-02  0.1093470E+00
          1   -1    0    0  502    0  0.00000000000E+00  0.00000000000E+00  0.25657753319E+03  0.25657753319E+03  0.00000000000E+00 0.  1.
         13   -1    0    0    0    0 -0.00000000000E+00 -0.00000000000E+00 -0.27500000000E+03  0.27500000000E+03  0.00000000000E+00 0.  1.
    9000005    2    1    2  501    0 -0.31810257697E+02  0.48389805478E+02 -0.15007363112E+02  0.47356780381E+03  0.46977417776E+03 0.  0.
         13    1    3    3    0    0  0.16500084241E+03 -0.84184580961E+02  0.99299831997E+02  0.21017321024E+03  0.00000000000E+00 0.  1.
          3    1    3    3  501    0 -0.19681110011E+03  0.13257438644E+03 -0.11430719511E+03  0.26339459357E+03  0.00000000000E+00 0.  1.
         21    1    1    2  502  501  0.31810257697E+02 -0.48389805478E+02 -0.34151037025E+01  0.58009729375E+02  0.00000000000E+00 0.  1.
<scales pt_clust_4="550.00000" pt_clust_5="550.00000" pt_clust_6="57.90915"></scales>
<mgrwt>
<rscale>  0 0.30000000E+03</rscale>
<asrwt>  1 0.57909145E+02</asrwt>
<pdfrwt beam="1">  1        1 0.93300921E+00 0.30000000E+03</pdfrwt>
<pdfrwt beam="2">0</pdfrwt>
<totfact> 0.21784502E-05</totfact>
</mgrwt>
<clustering>
<clus scale="   57.909">  1  6  2 -1</clus>
<clus scale="  469.774">  4  5 -1 -1</clus>
<clus scale="  300.000">  1  4  2 -1</clus>
</clustering>
</event>
<event>
 6    1  0.9480355E-012  0.3000000E+03  0.7818608E-02  0.1093470E+00
          1   -1    0    0  502    0  0.00000000000E+00  0.00000000000E+00  0.25069463583E+03  0.25069463583E+03  0.00000000000E+00 0.  1.
         13   -1    0    0    0    0 -0.00000000000E+00 -0.00000000000E+00 -0.27500000000E+03  0.27500000000E+03  0.00000000000E+00 0.  1.
    9000005    2    1    2  501    0 -0.35839943503E+02  0.77244123636E+01 -0.54056767657E+02  0.47847902288E+03  0.47399986615E+03 0.  0.
         13    1    3    3    0    0  0.10189213173E+02  0.16386878669E+03  0.14658890172E+03  0.22010248846E+03  0.00000000000E+00 0.  1.
          1    1    3    3  501    0 -0.46029156676E+02 -0.15614437433E+03 -0.20064566938E+03  0.25837653442E+03  0.00000000000E+00 0.  1.
         21    1    1    2  502  501  0.35839943503E+02 -0.77244123636E+01  0.29751403485E+02  0.47215612947E+02  0.00000000000E+00 0.  1.
<scales pt_clust_4="550.00000" pt_clust_5="550.00000" pt_clust_6="36.66290"></scales>
<mgrwt>
<rscale>  0 0.30000000E+03</rscale>
<asrwt>  1 0.36662898E+02</asrwt>
<pdfrwt beam="1">  1        1 0.91161686E+00 0.30000000E+03</pdfrwt>
<pdfrwt beam="2">0</pdfrwt>
<totfact> 0.64975678E-05</totfact>
</mgrwt>
<clustering>
<clus scale="   36.663">  1  6  2 -1</clus>
<clus scale="  474.000">  4  5 -1 -1</clus>
<clus scale="  300.000">  1  4  2 -1</clus>
</clustering>
</event>
<event>
 6    1  0.9480355E-012  0.3000000E+03  0.7818608E-02  0.1093470E+00
          1   -1    0    0  502    0  0.00000000000E+00  0.00000000000E+00  0.22013294087E+03  0.22013294087E+03  0.00000000000E+00 0.  1.
         13   -1    0    0    0    0 -0.00000000000E+00 -0.00000000000E+00 -0.27500000000E+03  0.27500000000E+03  0.00000000000E+00 0.  1.
    9000005    2    1    2  501    0 -0.28332011428E+02 -0.15535271635E+02 -0.57855042938E+02  0.46268335561E+03  0.45791334773E+03 0.  0.
         13    1    3    3    0    0 -0.36465347739E+02  0.72007830672E+02 -0.24390072580E+03  0.25690934843E+03  0.00000000000E+00 0.  1.
          1    1    3    3  501    0  0.81333363107E+01 -0.87543102307E+02  0.18604568286E+03  0.20577400718E+03  0.00000000000E+00 0.  1.
         21    1    1    2  502  501  0.28332011428E+02  0.15535271635E+02  0.29879838088E+01  0.32449585260E+02  0.00000000000E+00 0.  1.
<scales pt_clust_4="550.00000" pt_clust_5="550.00000" pt_clust_6="32.31172"></scales>
<mgrwt>
<rscale>  0 0.30000000E+03</rscale>
<asrwt>  1 0.32311724E+02</asrwt>
<pdfrwt beam="1">  1        1 0.80048342E+00 0.30000000E+03</pdfrwt>
<pdfrwt beam="2">0</pdfrwt>
<totfact> 0.10443164E-03</totfact>
</mgrwt>
<clustering>
<clus scale="   32.312">  1  6  2 -1</clus>
<clus scale="  457.913">  4  5 -1 -1</clus>
<clus scale="  300.000">  1  4  2 -1</clus>
</clustering>
</event>
<event>
 6    1  0.9480355E-012  0.3000000E+03  0.7818608E-02  0.1093470E+00
          1   -1    0    0  502    0  0.00000000000E+00  0.00000000000E+00  0.24439767937E+03  0.24439767937E+03  0.00000000000E+00 0.  1.
         13   -1    0    0    0    0 -0.00000000000E+00 -0.00000000000E+00 -0.27500000000E+03  0.27500000000E+03  0.00000000000E+00 0.  1.
    9000005    2    1    2  501    0 -0.37961183309E+02  0.10749544911E+02 -0.34125216872E+02  0.47978688599E+03  0.47694268145E+03 0.  0.
         13    1    3    3    0    0  0.21061865755E+03 -0.12937325660E+02 -0.80429626382E+02  0.22582408663E+03  0.00000000000E+00 0.  1.
          1    1    3    3  501    0 -0.24857984086E+03  0.23686870571E+02  0.46304409510E+02  0.25396279936E+03  0.00000000000E+00 0.  1.
         21    1    1    2  502  501  0.37961183309E+02 -0.10749544911E+02  0.35228962414E+01  0.39610793377E+02  0.00000000000E+00 0.  1.
<scales pt_clust_4="550.00000" pt_clust_5="550.00000" pt_clust_6="39.45382"></scales>
<mgrwt>
<rscale>  0 0.30000000E+03</rscale>
<asrwt>  1 0.39453823E+02</asrwt>
<pdfrwt beam="1">  1        1 0.88871883E+00 0.30000000E+03</pdfrwt>
<pdfrwt beam="2">0</pdfrwt>
<totfact> 0.14753203E-04</totfact>
</mgrwt>
<clustering>
<clus scale="   39.454">  1  6  2 -1</clus>
<clus scale="  476.943">  4  5 -1 -1</clus>
<clus scale="  300.000">  1  4  2 -1</clus>
</clustering>
</event>
<event>
 6    1  0.9480355E-012  0.3000000E+03  0.7818608E-02  0.1093470E+00
          1   -1    0    0  502    0  0.00000000000E+00  0.00000000000E+00  0.23609527399E+03  0.23609527399E+03  0.00000000000E+00 0.  1.
         13   -1    0    0    0    0 -0.00000000000E+00 -0.00000000000E+00 -0.27500000000E+03  0.27500000000E+03  0.00000000000E+00 0.  1.
    9000005    2    1    2  501    0  0.27919607479E+02 -0.14133080360E+02 -0.58645511961E+02  0.47409598924E+03  0.46941289127E+03 0.  0.
         13    1    3    3    0    0  0.32960150539E+01  0.20998237817E+03 -0.11808214796E+03  0.24092915250E+03  0.00000000000E+00 0.  1.
          3    1    3    3  501    0  0.24623592425E+02 -0.22411545853E+03  0.59436635997E+02  0.23316683674E+03  0.00000000000E+00 0.  1.
         21    1    1    2  502  501 -0.27919607479E+02  0.14133080360E+02  0.19740785949E+02  0.36999284752E+02  0.00000000000E+00 0.  1.
<scales pt_clust_4="550.00000" pt_clust_5="550.00000" pt_clust_6="31.29295"></scales>
<mgrwt>
<rscale>  0 0.30000000E+03</rscale>
<asrwt>  1 0.31292946E+02</asrwt>
<pdfrwt beam="1">  1        1 0.85852827E+00 0.30000000E+03</pdfrwt>
<pdfrwt beam="2">0</pdfrwt>
<totfact> 0.34245260E-04</totfact>
</mgrwt>
<clustering>
<clus scale="   31.293">  1  6  2 -1</clus>
<clus scale="  469.413">  4  5 -1 -1</clus>
<clus scale="  300.000">  1  4  2 -1</clus>
</clustering>
</event>
<event>
 6    1  0.9480355E-012  0.3000000E+03  0.7818608E-02  0.1093470E+00
          1   -1    0    0  502    0  0.00000000000E+00  0.00000000000E+00  0.23326050800E+03  0.23326050800E+03  0.00000000000E+00 0.  1.
         13   -1    0    0    0    0 -0.00000000000E+00 -0.00000000000E+00 -0.27500000000E+03  0.27500000000E+03  0.00000000000E+00 0.  1.
    9000005    2    1    2  501    0  0.22295882350E+02  0.23861990619E+02 -0.68335266007E+02  0.46614357362E+03  0.45994958603E+03 0.  0.
         13    1    3    3    0    0 -0.30300808466E+01  0.16362191181E+03  0.13907352773E+03  0.21476209519E+03  0.00000000000E+00 0.  1.
          3    1    3    3  501    0  0.25325963197E+02 -0.13975992119E+03 -0.20740879374E+03  0.25138147844E+03  0.00000000000E+00 0.  1.
         21    1    1    2  502  501 -0.22295882350E+02 -0.23861990619E+02  0.26595774004E+02  0.42116934373E+02  0.00000000000E+00 0.  1.
<scales pt_clust_4="550.00000" pt_clust_5="550.00000" pt_clust_6="32.65733"></scales>
<mgrwt>
<rscale>  0 0.30000000E+03</rscale>
<asrwt>  1 0.32657326E+02</asrwt>
<pdfrwt beam="1">  1        1 0.84822003E+00 0.30000000E+03</pdfrwt>
<pdfrwt beam="2">0</pdfrwt>
<totfact> 0.42831840E-04</totfact>
</mgrwt>
<clustering>
<clus scale="   32.657">  1  6  2 -1</clus>
<clus scale="  459.950">  4  5 -1 -1</clus>
<clus scale="  300.000">  1  4  2 -1</clus>
</clustering>
</event>
<event>
 6    1  0.9480355E-012  0.3000000E+03  0.7818608E-02  0.1093470E+00
          1   -1    0    0  502    0  0.00000000000E+00  0.00000000000E+00  0.25118011760E+03  0.25118011760E+03  0.00000000000E+00 0.  1.
         13   -1    0    0    0    0 -0.00000000000E+00 -0.00000000000E+00 -0.27500000000E+03  0.27500000000E+03  0.00000000000E+00 0.  1.
    9000005    2    1    2  501    0 -0.82992160138E+01 -0.43602589924E+02 -0.59583713399E+02  0.46917911373E+03  0.46325884668E+03 0.  0.
         13    1    3    3    0    0  0.65332002679E+02 -0.20902221753E+03  0.87572629932E+02  0.23585487807E+03  0.00000000000E+00 0.  1.
          1    1    3    3  501    0 -0.73631218693E+02  0.16541962761E+03 -0.14715634333E+03  0.23332423566E+03  0.00000000000E+00 0.  1.
         21    1    1    2  502  501  0.82992160138E+01  0.43602589924E+02  0.35763831002E+02  0.57001003873E+02  0.00000000000E+00 0. -1.
<scales pt_clust_4="550.00000" pt_clust_5="550.00000" pt_clust_6="44.38539"></scales>
<mgrwt>
<rscale>  0 0.30000000E+03</rscale>
<asrwt>  1 0.44385390E+02</asrwt>
<pdfrwt beam="1">  1        1 0.91338225E+00 0.30000000E+03</pdfrwt>
<pdfrwt beam="2">0</pdfrwt>
<totfact> 0.56695678E-05</totfact>
</mgrwt>
<clustering>
<clus scale="   44.385">  1  6  2 -1</clus>
<clus scale="  463.259">  4  5 -1 -1</clus>
<clus scale="  300.000">  1  4  2 -1</clus>
</clustering>
</event>
<event>
 6    1  0.9480355E-012  0.3000000E+03  0.7818608E-02  0.1093470E+00
          1   -1    0    0  502    0  0.00000000000E+00  0.00000000000E+00  0.23345158097E+03  0.23345158097E+03  0.00000000000E+00 0.  1.
         13   -1    0    0    0    0 -0.00000000000E+00 -0.00000000000E+00 -0.27500000000E+03  0.27500000000E+03  0.00000000000E+00 0.  1.
    9000005    2    1    2  501    0 -0.19269275756E+02  0.30107783543E+02 -0.65507166788E+02  0.46541897459E+03  0.45939726750E+03 0.  0.
         13    1    3    3    0    0  0.15188134642E+03 -0.95154421268E+02 -0.15332773561E+03  0.23586373563E+03  0.00000000000E+00 0.  1.
          3    1    3    3  501    0 -0.17115062217E+03  0.12526220481E+03  0.87820568824E+02  0.22955523896E+03  0.00000000000E+00 0.  1.
         21    1    1    2  502  501  0.19269275756E+02 -0.30107783543E+02  0.23958747758E+02  0.43032606384E+02  0.00000000000E+00 0.  1.
<scales pt_clust_4="550.00000" pt_clust_5="550.00000" pt_clust_6="35.74610"></scales>
<mgrwt>
<rscale>  0 0.30000000E+03</rscale>
<asrwt>  1 0.35746099E+02</asrwt>
<pdfrwt beam="1">  1        1 0.84891484E+00 0.30000000E+03</pdfrwt>
<pdfrwt beam="2">0</pdfrwt>
<totfact> 0.41494216E-04</totfact>
</mgrwt>
<clustering>
<clus scale="   35.746">  1  6  2 -1</clus>
<clus scale="  459.397">  4  5 -1 -1</clus>
<clus scale="  300.000">  1  4  2 -1</clus>
</clustering>
</event>
<event>
 6    1  0.9480355E-012  0.3000000E+03  0.7818608E-02  0.1093470E+00
          1   -1    0    0  502    0  0.00000000000E+00  0.00000000000E+00  0.23664128628E+03  0.23664128628E+03  0.00000000000E+00 0.  1.
         13   -1    0    0    0    0 -0.00000000000E+00 -0.00000000000E+00 -0.27500000000E+03  0.27500000000E+03  0.00000000000E+00 0.  1.
    9000005    2    1    2  501    0  0.20658239944E+02 -0.23207397722E+02 -0.70746492867E+02  0.46676017194E+03  0.46032015561E+03 0.  0.
         13    1    3    3    0    0  0.95784782363E+02 -0.22580518349E+03 -0.36216163661E+02  0.24794014587E+03  0.00000000000E+00 0.  1.
          1    1    3    3  501    0 -0.75126542419E+02  0.20259778577E+03 -0.34530329206E+02  0.21882002607E+03  0.00000000000E+00 0.  1.
         21    1    1    2  502  501 -0.20658239944E+02  0.23207397722E+02  0.32387779144E+02  0.44881114341E+02  0.00000000000E+00 0.  1.
<scales pt_clust_4="550.00000" pt_clust_5="550.00000" pt_clust_6="31.07002"></scales>
<mgrwt>
<rscale>  0 0.30000000E+03</rscale>
<asrwt>  1 0.31070021E+02</asrwt>
<pdfrwt beam="1">  1        1 0.86051377E+00 0.30000000E+03</pdfrwt>
<pdfrwt beam="2">0</pdfrwt>
<totfact> 0.32667441E-04</totfact>
</mgrwt>
<clustering>
<clus scale="   31.070">  1  6  2 -1</clus>
<clus scale="  460.320">  4  5 -1 -1</clus>
<clus scale="  300.000">  1  4  2 -1</clus>
</clustering>
</event>
<event>
 6    1  0.9480355E-012  0.3000000E+03  0.7818608E-02  0.1093470E+00
          1   -1    0    0  502    0  0.00000000000E+00  0.00000000000E+00  0.22798074647E+03  0.22798074647E+03  0.00000000000E+00 0.  1.
         13   -1    0    0    0    0 -0.00000000000E+00 -0.00000000000E+00 -0.27500000000E+03  0.27500000000E+03  0.00000000000E+00 0.  1.
    9000005    2    1    2  501    0 -0.21732096506E+02 -0.22444302758E+02 -0.63753398438E+02  0.46753977653E+03  0.46211785951E+03 0.  0.
         13    1    3    3    0    0  0.12189213086E+03 -0.16815795627E+03 -0.13859087177E+03  0.24968423971E+03  0.00000000000E+00 0.  1.
          1    1    3    3  501    0 -0.14362422736E+03  0.14571365352E+03  0.74837473333E+02  0.21785553681E+03  0.00000000000E+00 0.  1.
         21    1    1    2  502  501  0.21732096506E+02  0.22444302758E+02  0.16734144911E+02  0.35440969946E+02  0.00000000000E+00 0.  1.
<scales pt_clust_4="550.00000" pt_clust_5="550.00000" pt_clust_6="31.24149"></scales>
<mgrwt>
<rscale>  0 0.30000000E+03</rscale>
<asrwt>  1 0.31241491E+02</asrwt>
<pdfrwt beam="1">  1        1 0.82902090E+00 0.30000000E+03</pdfrwt>
<pdfrwt beam="2">0</pdfrwt>
<totfact> 0.61535159E-04</totfact>
</mgrwt>
<clustering>
<clus scale="   31.241">  1  6  2 -1</clus>
<clus scale="  462.118">  4  5 -1 -1</clus>
<clus scale="  300.000">  1  4  2 -1</clus>
</clustering>
</event>
<event>
 6    1  0.9480355E-012  0.3000000E+03  0.7818608E-02  0.1093470E+00
          1   -1    0    0  502    0  0.00000000000E+00  0.00000000000E+00  0.23572068777E+03  0.23572068777E+03  0.00000000000E+00 0.  1.
         13   -1    0    0    0    0 -0.00000000000E+00 -0.00000000000E+00 -0.27500000000E+03  0.27500000000E+03  0.00000000000E+00 0.  1.
    9000005    2    1    2  501    0 -0.16896836563E+02 -0.36938649655E+02 -0.57899994127E+02  0.46603627529E+03  0.46063807229E+03 0.  0.
         13    1    3    3    0    0  0.21642339338E+03  0.28941042351E+02 -0.79080771929E+01  0.21849303608E+03  0.00000000000E+00 0.  1.
          1    1    3    3  501    0 -0.23332022994E+03 -0.65879692006E+02 -0.49991916934E+02  0.24754323921E+03  0.00000000000E+00 0.  1.
         21    1    1    2  502  501  0.16896836563E+02  0.36938649655E+02  0.18620681893E+02  0.44684412476E+02  0.00000000000E+00 0. -1.
<scales pt_clust_4="550.00000" pt_clust_5="550.00000" pt_clust_6="40.61978"></scales>
<mgrwt>
<rscale>  0 0.30000000E+03</rscale>
<asrwt>  1 0.40619785E+02</asrwt>
<pdfrwt beam="1">  1        1 0.85716614E+00 0.30000000E+03</pdfrwt>
<pdfrwt beam="2">0</pdfrwt>
<totfact> 0.33702061E-04</totfact>
</mgrwt>
<clustering>
<clus scale="   40.620">  1  6  2 -1</clus>
<clus scale="  460.638">  4  5 -1 -1</clus>
<clus scale="  300.000">  1  4  2 -1</clus>
</clustering>
</event>
<event>
 6    1  0.9480355E-012  0.3000000E+03  0.7818608E-02  0.1093470E+00
          1   -1    0    0  502    0  0.00000000000E+00  0.00000000000E+00  0.24164877757E+03  0.24164877757E+03  0.00000000000E+00 0.  1.
         13   -1    0    0    0    0 -0.00000000000E+00 -0.00000000000E+00 -0.27500000000E+03  0.27500000000E+03  0.00000000000E+00 0.  1.
    9000005    2    1    2  501    0  0.37661636691E+02 -0.10342516495E+02 -0.52832329498E+02  0.47300384593E+03  0.46841863402E+03 0.  0.
         13    1    3    3    0    0  0.72824744033E+02  0.21183397122E+03  0.43697331258E+02  0.22822473894E+03  0.00000000000E+00 0.  1.
          3    1    3    3  501    0 -0.35163107341E+02 -0.22217648771E+03 -0.96529660756E+02  0.24477910698E+03  0.00000000000E+00 0.  1.
         21    1    1    2  502  501 -0.37661636691E+02  0.10342516495E+02  0.19481107070E+02  0.43644931647E+02  0.00000000000E+00 0.  1.
<scales pt_clust_4="550.00000" pt_clust_5="550.00000" pt_clust_6="39.05594"></scales>
<mgrwt>
<rscale>  0 0.30000000E+03</rscale>
<asrwt>  1 0.39055941E+02</asrwt>
<pdfrwt beam="1">  1        1 0.87872283E+00 0.30000000E+03</pdfrwt>
<pdfrwt beam="2">0</pdfrwt>
<totfact> 0.20039326E-04</totfact>
</mgrwt>
<clustering>
<clus scale="   39.056">  1  6  2 -1</clus>
<clus scale="  468.419">  4  5 -1 -1</clus>
<clus scale="  300.000">  1  4  2 -1</clus>
</clustering>
</event>
<event>
 6    1  0.9480355E-012  0.3000000E+03  0.7818608E-02  0.1093470E+00
          1   -1    0    0  502    0  0.00000000000E+00  0.00000000000E+00  0.25114699107E+03  0.25114699107E+03  0.00000000000E+00 0.  1.
         13   -1    0    0    0    0 -0.00000000000E+00 -0.00000000000E+00 -0.27500000000E+03  0.27500000000E+03  0.00000000000E+00 0.  1.
    9000005    2    1    2  501    0  0.69769823858E+01 -0.32630166087E+02 -0.45108614101E+02  0.48658429686E+03  0.48333847856E+03 0.  0.
         13    1    3    3    0    0 -0.15180639047E+03 -0.15135007906E+03  0.10424212710E+03  0.23836620499E+03  0.00000000000E+00 0.  1.
          3    1    3    3  501    0  0.15878337285E+03  0.11871991298E+03 -0.14935074120E+03  0.24821809187E+03  0.00000000000E+00 0.  1.
         21    1    1    2  502  501 -0.69769823858E+01  0.32630166087E+02  0.21255605168E+02  0.39562694209E+02  0.00000000000E+00 0.  1.
<scales pt_clust_4="550.00000" pt_clust_5="550.00000" pt_clust_6="33.36774"></scales>
<mgrwt>
<rscale>  0 0.30000000E+03</rscale>
<asrwt>  1 0.33367739E+02</asrwt>
<pdfrwt beam="1">  1        1 0.91326179E+00 0.30000000E+03</pdfrwt>
<pdfrwt beam="2">0</pdfrwt>
<totfact> 0.60159917E-05</totfact>
</mgrwt>
<clustering>
<clus scale="   33.368">  1  6  2 -1</clus>
<clus scale="  483.338">  4  5 -1 -1</clus>
<clus scale="  300.000">  1  4  2 -1</clus>
</clustering>
</event>
<event>
 6    1  0.9480355E-012  0.3000000E+03  0.7818608E-02  0.1093470E+00
          1   -1    0    0  502    0  0.00000000000E+00  0.00000000000E+00  0.22805739827E+03  0.22805739827E+03  0.00000000000E+00 0.  1.
         13   -1    0    0    0    0 -0.00000000000E+00 -0.00000000000E+00 -0.27500000000E+03  0.27500000000E+03  0.00000000000E+00 0.  1.
    9000005    2    1    2  501    0 -0.29750617609E+01  0.31104380132E+02 -0.48021262342E+02  0.47179245041E+03  0.46830090879E+03 0.  0.
         13    1    3    3    0    0 -0.83474986426E+02 -0.17574786388E+03 -0.13129605647E+03  0.23472119517E+03  0.00000000000E+00 0.  1.
          3    1    3    3  501    0  0.80499924666E+02  0.20685224401E+03  0.83274794130E+02  0.23707125524E+03  0.00000000000E+00 0.  1.
         21    1    1    2  502  501  0.29750617609E+01 -0.31104380132E+02  0.10786606082E+01  0.31264947859E+02  0.00000000000E+00 0.  1.
<scales pt_clust_4="550.00000" pt_clust_5="550.00000" pt_clust_6="31.24634"></scales>
<mgrwt>
<rscale>  0 0.30000000E+03</rscale>
<asrwt>  1 0.31246335E+02</asrwt>
<pdfrwt beam="1">  1        1 0.82929963E+00 0.30000000E+03</pdfrwt>
<pdfrwt beam="2">0</pdfrwt>
<totfact> 0.61200285E-04</totfact>
</mgrwt>
<clustering>
<clus scale="   31.246">  1  6  2 -1</clus>
<clus scale="  468.301">  4  5 -1 -1</clus>
<clus scale="  300.000">  1  4  2 -1</clus>
</clustering>
</event>
<event>
 6    1  0.9480355E-012  0.3000000E+03  0.7818608E-02  0.1093470E+00
          1   -1    0    0  502    0  0.00000000000E+00  0.00000000000E+00  0.23477024835E+03  0.23477024835E+03  0.00000000000E+00 0.  1.
         13   -1    0    0    0    0 -0.00000000000E+00 -0.00000000000E+00 -0.27500000000E+03  0.27500000000E+03  0.00000000000E+00 0.  1.
    9000005    2    1    2  501    0 -0.45966004248E+02 -0.15326957856E+02 -0.44185641386E+02  0.46115504243E+03  0.45646885224E+03 0.  0.
         13    1    3    3    0    0 -0.53388821698E+02 -0.48723835058E+02 -0.24603214778E+03  0.25642970992E+03  0.00000000000E+00 0.  1.
          3    1    3    3  501    0  0.74228174499E+01  0.33396877202E+02  0.20184650640E+03  0.20472533251E+03  0.00000000000E+00 0.  1.
         21    1    1    2  502  501  0.45966004248E+02  0.15326957856E+02  0.39558897401E+01  0.48615205926E+02  0.00000000000E+00 0.  1.
<scales pt_clust_4="550.00000" pt_clust_5="550.00000" pt_clust_6="48.45399"></scales>
<mgrwt>
<rscale>  0 0.30000000E+03</rscale>
<asrwt>  1 0.48453990E+02</asrwt>
<pdfrwt beam="1">  1        1 0.85370999E+00 0.30000000E+03</pdfrwt>
<pdfrwt beam="2">0</pdfrwt>
<totfact> 0.35357501E-04</totfact>
</mgrwt>
<clustering>
<clus scale="   48.454">  1  6  2 -1</clus>
<clus scale="  456.469">  4  5 -1 -1</clus>
<clus scale="  300.000">  1  4  2 -1</clus>
</clustering>
</event>
<event>
 6    1  0.9480355E-012  0.3000000E+03  0.7818608E-02  0.1093470E+00
          1   -1    0    0  502    0  0.00000000000E+00  0.00000000000E+00  0.23966914697E+03  0.23966914697E+03  0.00000000000E+00 0.  1.
         13   -1    0    0    0    0 -0.00000000000E+00 -0.00000000000E+00 -0.27500000000E+03  0.27500000000E+03  0.00000000000E+00 0.  1.
    9000005    2    1    2  501    0  0.25575960009E+02 -0.24074521642E+02 -0.66490008714E+02  0.46771592231E+03  0.46163140102E+03 0.  0.
         13    1    3    3    0    0  0.21048816967E+03 -0.13031002255E+03 -0.13253402722E+02  0.24791455027E+03  0.00000000000E+00 0.  1.
          3    1    3    3  501    0 -0.18491220966E+03  0.10623550091E+03 -0.53236605992E+02  0.21980137205E+03  0.00000000000E+00 0.  1.
         21    1    1    2  502  501 -0.25575960009E+02  0.24074521642E+02  0.31159155682E+02  0.46953224655E+02  0.00000000000E+00 0.  1.
<scales pt_clust_4="550.00000" pt_clust_5="550.00000" pt_clust_6="35.12424"></scales>
<mgrwt>
<rscale>  0 0.30000000E+03</rscale>
<asrwt>  1 0.35124241E+02</asrwt>
<pdfrwt beam="1">  1        1 0.87152417E+00 0.30000000E+03</pdfrwt>
<pdfrwt beam="2">0</pdfrwt>
<totfact> 0.24417556E-04</totfact>
</mgrwt>
<clustering>
<clus scale="   35.124">  1  6  2 -1</clus>
<clus scale="  461.631">  4  5 -1 -1</clus>
<clus scale="  300.000">  1  4  2 -1</clus>
</clustering>
</event>
<event>
 6    1  0.9480355E-012  0.3000000E+03  0.7818608E-02  0.1093470E+00
          1   -1    0    0  502    0  0.00000000000E+00  0.00000000000E+00  0.24476817465E+03  0.24476817465E+03  0.00000000000E+00 0.  1.
         13   -1    0    0    0    0 -0.00000000000E+00 -0.00000000000E+00 -0.27500000000E+03  0.27500000000E+03  0.00000000000E+00 0.  1.
    9000005    2    1    2  501    0  0.39388434995E+02 -0.21312050459E+01 -0.30967201802E+02  0.48031527077E+03  0.47769006782E+03 0.  0.
         13    1    3    3    0    0 -0.12571648048E+03 -0.16188446628E+03  0.86279904308E+02  0.22238578141E+03  0.00000000000E+00 0.  1.
          1    1    3    3  501    0  0.16510491547E+03  0.15975326123E+03 -0.11724710611E+03  0.25792948936E+03  0.00000000000E+00 0.  1.
         21    1    1    2  502  501 -0.39388434995E+02  0.21312050459E+01  0.73537645075E+00  0.39452903884E+02  0.00000000000E+00 0.  1.
<scales pt_clust_4="550.00000" pt_clust_5="550.00000" pt_clust_6="39.44605"></scales>
<mgrwt>
<rscale>  0 0.30000000E+03</rscale>
<asrwt>  1 0.39446050E+02</asrwt>
<pdfrwt beam="1">  1        1 0.89006609E+00 0.30000000E+03</pdfrwt>
<pdfrwt beam="2">0</pdfrwt>
<totfact> 0.14149786E-04</totfact>
</mgrwt>
<clustering>
<clus scale="   39.446">  1  6  2 -1</clus>
<clus scale="  477.690">  4  5 -1 -1</clus>
<clus scale="  300.000">  1  4  2 -1</clus>
</clustering>
</event>
<event>
 6    1  0.9480355E-012  0.3000000E+03  0.7818608E-02  0.1093470E+00
          1   -1    0    0  502    0  0.00000000000E+00  0.00000000000E+00  0.22315851010E+03  0.22315851010E+03  0.00000000000E+00 0.  1.
         13   -1    0    0    0    0 -0.00000000000E+00 -0.00000000000E+00 -0.27500000000E+03  0.27500000000E+03  0.00000000000E+00 0.  1.
    9000005    2    1    2  501    0 -0.21779739374E+02  0.24419962016E+02 -0.43965809495E+02  0.46450263492E+03  0.46125807728E+03 0.  0.
         13    1    3    3    0    0  0.13463219051E+03  0.18875487619E+03 -0.51522513410E+02  0.23750536709E+03  0.00000000000E+00 0.  1.
          3    1    3    3  501    0 -0.15641192989E+03 -0.16433491418E+03  0.75567039144E+01  0.22699726783E+03  0.00000000000E+00 0.  1.
         21    1    1    2  502  501  0.21779739374E+02 -0.24419962016E+02 -0.78756804054E+01  0.33655875177E+02  0.00000000000E+00 0.  1.
<scales pt_clust_4="550.00000" pt_clust_5="550.00000" pt_clust_6="32.72144"></scales>
<mgrwt>
<rscale>  0 0.30000000E+03</rscale>
<asrwt>  1 0.32721440E+02</asrwt>
<pdfrwt beam="1">  1        1 0.81148549E+00 0.30000000E+03</pdfrwt>
<pdfrwt beam="2">0</pdfrwt>
<totfact> 0.85991386E-04</totfact>
</mgrwt>
<clustering>
<clus scale="   32.721">  1  6  2 -1</clus>
<clus scale="  461.258">  4  5 -1 -1</clus>
<clus scale="  300.000">  1  4  2 -1</clus>
</clustering>
</event>
<event>
 6    1  0.9480355E-012  0.3000000E+03  0.7818608E-02  0.1093470E+00
          1   -1    0    0  502    0  0.00000000000E+00  0.00000000000E+00  0.22739838721E+03  0.22739838721E+03  0.00000000000E+00 0.  1.
         13   -1    0    0    0    0 -0.00000000000E+00 -0.00000000000E+00 -0.27500000000E+03  0.27500000000E+03  0.00000000000E+00 0.  1.
    9000005    2    1    2  501    0  0.31677836750E+02 -0.14838986984E+02 -0.55126820823E+02  0.46661697260E+03  0.46202678696E+03 0.  0.
         13    1    3    3    0    0 -0.80223718433E+02  0.21679394918E+02  0.18300060666E+03  0.20098523130E+03  0.00000000000E+00 0.  1.
          1    1    3    3  501    0  0.11190155518E+03 -0.36518381902E+02 -0.23812742748E+03  0.26563174130E+03  0.00000000000E+00 0.  1.
         21    1    1    2  502  501 -0.31677836750E+02  0.14838986984E+02  0.75252080377E+01  0.35781414616E+02  0.00000000000E+00 0.  1.
<scales pt_clust_4="550.00000" pt_clust_5="550.00000" pt_clust_6="34.98115"></scales>
<mgrwt>
<rscale>  0 0.30000000E+03</rscale>
<asrwt>  1 0.34981150E+02</asrwt>
<pdfrwt beam="1">  1        1 0.82690323E+00 0.30000000E+03</pdfrwt>
<pdfrwt beam="2">0</pdfrwt>
<totfact> 0.62831807E-04</totfact>
</mgrwt>
<clustering>
<clus scale="   34.981">  1  6  2 -1</clus>
<clus scale="  462.027">  4  5 -1 -1</clus>
<clus scale="  300.000">  1  4  2 -1</clus>
</clustering>
</event>
<event>
 6    1  0.9480355E-012  0.3000000E+03  0.7818608E-02  0.1093470E+00
          1   -1    0    0  502    0  0.00000000000E+00  0.00000000000E+00  0.24906059518E+03  0.24906059518E+03  0.00000000000E+00 0.  1.
         13   -1    0    0    0    0 -0.00000000000E+00 -0.00000000000E+00 -0.27500000000E+03  0.27500000000E+03  0.00000000000E+00 0.  1.
    9000005    2    1    2  501    0  0.33755531077E+02  0.90057791820E+01 -0.60370296419E+02  0.47500933390E+03  0.46986035656E+03 0.  0.
         13    1    3    3    0    0  0.47042089682E+02 -0.22665748312E+03 -0.46340268155E+00  0.23148820185E+03  0.00000000000E+00 0.  1.
          1    1    3    3  501    0 -0.13286558605E+02  0.23566326230E+03 -0.59906893738E+02  0.24352113205E+03  0.00000000000E+00 0.  1.
         21    1    1    2  502  501 -0.33755531077E+02 -0.90057791820E+01  0.34430891598E+02  0.49051261281E+02  0.00000000000E+00 0.  1.
<scales pt_clust_4="550.00000" pt_clust_5="550.00000" pt_clust_6="34.93623"></scales>
<mgrwt>
<rscale>  0 0.30000000E+03</rscale>
<asrwt>  1 0.34936227E+02</asrwt>
<pdfrwt beam="1">  1        1 0.90567489E+00 0.30000000E+03</pdfrwt>
<pdfrwt beam="2">0</pdfrwt>
<totfact> 0.89754981E-05</totfact>
</mgrwt>
<clustering>
<clus scale="   34.936">  1  6  2 -1</clus>
<clus scale="  469.860">  4  5 -1 -1</clus>
<clus scale="  300.000">  1  4  2 -1</clus>
</clustering>
</event>
<event>
 6    1  0.9480355E-012  0.3000000E+03  0.7818608E-02  0.1093470E+00
          1   -1    0    0  502    0  0.00000000000E+00  0.00000000000E+00  0.24998726112E+03  0.24998726112E+03  0.00000000000E+00 0.  1.
         13   -1    0    0    0    0 -0.00000000000E+00 -0.00000000000E+00 -0.27500000000E+03  0.27500000000E+03  0.00000000000E+00 0.  1.
    9000005    2    1    2  501    0  0.33502906874E+02  0.16483447214E+02 -0.48513164897E+02  0.48086902426E+03  0.47695633188E+03 0.  0.
         13    1    3    3    0    0  0.15795122183E+03 -0.10654940771E+03 -0.17989792256E+03  0.26203936212E+03  0.00000000000E+00 0.  1.
          3    1    3    3  501    0 -0.12444831495E+03  0.12303285492E+03  0.13138475766E+03  0.21882966214E+03  0.00000000000E+00 0.  1.
         21    1    1    2  502  501 -0.33502906874E+02 -0.16483447214E+02  0.23500426017E+02  0.44118236864E+02  0.00000000000E+00 0. -1.
<scales pt_clust_4="550.00000" pt_clust_5="550.00000" pt_clust_6="37.33830"></scales>
<mgrwt>
<rscale>  0 0.30000000E+03</rscale>
<asrwt>  1 0.37338302E+02</asrwt>
<pdfrwt beam="1">  1        1 0.90904459E+00 0.30000000E+03</pdfrwt>
<pdfrwt beam="2">0</pdfrwt>
<totfact> 0.74842407E-05</totfact>
</mgrwt>
<clustering>
<clus scale="   37.338">  1  6  2 -1</clus>
<clus scale="  476.956">  4  5 -1 -1</clus>
<clus scale="  300.000">  1  4  2 -1</clus>
</clustering>
</event>
<event>
 6    1  0.9480355E-012  0.3000000E+03  0.7818608E-02  0.1093470E+00
          1   -1    0    0  502    0  0.00000000000E+00  0.00000000000E+00  0.25413490384E+03  0.25413490384E+03  0.00000000000E+00 0.  1.
         13   -1    0    0    0    0 -0.00000000000E+00 -0.00000000000E+00 -0.27500000000E+03  0.27500000000E+03  0.00000000000E+00 0.  1.
    9000005    2    1    2  501    0  0.14853560852E+02 -0.34486098511E+02 -0.32854275626E+02  0.48971841383E+03  0.48717019834E+03 0.  0.
         13    1    3    3    0    0 -0.42681042566E+02  0.19196679115E+03 -0.13100253586E+03  0.23629342924E+03  0.00000000000E+00 0.  1.
          3    1    3    3  501    0  0.57534603418E+02 -0.22645288966E+03  0.98148260234E+02  0.25342498459E+03  0.00000000000E+00 0.  1.
         21    1    1    2  502  501 -0.14853560852E+02  0.34486098511E+02  0.11989179462E+02  0.39416490009E+02  0.00000000000E+00 0.  1.
<scales pt_clust_4="550.00000" pt_clust_5="550.00000" pt_clust_6="37.54889"></scales>
<mgrwt>
<rscale>  0 0.30000000E+03</rscale>
<asrwt>  1 0.37548892E+02</asrwt>
<pdfrwt beam="1">  1        1 0.92412692E+00 0.30000000E+03</pdfrwt>
<pdfrwt beam="2">0</pdfrwt>
<totfact> 0.33742209E-05</totfact>
</mgrwt>
<clustering>
<clus scale="   37.549">  1  6  2 -1</clus>
<clus scale="  487.170">  4  5 -1 -1</clus>
<clus scale="  300.000">  1  4  2 -1</clus>
</clustering>
</event>
<event>
 6    1  0.9480355E-012  0.3000000E+03  0.7818608E-02  0.1093470E+00
          1   -1    0    0  502    0  0.00000000000E+00  0.00000000000E+00  0.22667561727E+03  0.22667561727E+03  0.00000000000E+00 0.  1.
         13   -1    0    0    0    0 -0.00000000000E+00 -0.00000000000E+00 -0.27500000000E+03  0.27500000000E+03  0.00000000000E+00 0.  1.
    9000005    2    1    2  501    0 -0.14728967225E+02  0.30701404251E+02 -0.56028220409E+02  0.46676332984E+03  0.46213561419E+03 0.  0.
         13    1    3    3    0    0 -0.12989954295E+03  0.18142574176E+03  0.75918221946E+02  0.23569634587E+03  0.00000000000E+00 0.  1.
          3    1    3    3  501    0  0.11517057573E+03 -0.15072433751E+03 -0.13194644235E+03  0.23106698397E+03  0.00000000000E+00 0.  1.
         21    1    1    2  502  501  0.14728967225E+02 -0.30701404251E+02  0.77038376781E+01  0.34912287429E+02  0.00000000000E+00 0. -1.
<scales pt_clust_4="550.00000" pt_clust_5="550.00000" pt_clust_6="34.05171"></scales>
<mgrwt>
<rscale>  0 0.30000000E+03</rscale>
<asrwt>  1 0.34051706E+02</asrwt>
<pdfrwt beam="1">  1        1 0.82427497E+00 0.30000000E+03</pdfrwt>
<pdfrwt beam="2">0</pdfrwt>
<totfact> 0.66640989E-04</totfact>
</mgrwt>
<clustering>
<clus scale="   34.052">  1  6  2 -1</clus>
<clus scale="  462.136">  4  5 -1 -1</clus>
<clus scale="  300.000">  1  4  2 -1</clus>
</clustering>
</event>
<event>
 6    1  0.9480355E-012  0.3000000E+03  0.7818608E-02  0.1093470E+00
          1   -1    0    0  502    0  0.00000000000E+00  0.00000000000E+00  0.24454886134E+03  0.24454886134E+03  0.00000000000E+00 0.  1.
         13   -1    0    0    0    0 -0.00000000000E+00 -0.00000000000E+00 -0.27500000000E+03  0.27500000000E+03  0.00000000000E+00 0.  1.
    9000005    2    1    2  501    0  0.42241986384E+02 -0.26806968454E+01 -0.67616098078E+02  0.46322119711E+03  0.45630074423E+03 0.  0.
         13    1    3    3    0    0 -0.10288938718E+03  0.15586710206E+03 -0.14323350230E+03  0.23536485651E+03  0.00000000000E+00 0.  1.
          3    1    3    3  501    0  0.14513137356E+03 -0.15854779891E+03  0.75617404222E+02  0.22785634060E+03  0.00000000000E+00 0.  1.
         21    1    1    2  502  501 -0.42241986384E+02  0.26806968454E+01  0.37164959422E+02  0.56327664234E+02  0.00000000000E+00 0. -1.
<scales pt_clust_4="550.00000" pt_clust_5="550.00000" pt_clust_6="42.32696"></scales>
<mgrwt>
<rscale>  0 0.30000000E+03</rscale>
<asrwt>  1 0.42326960E+02</asrwt>
<pdfrwt beam="1">  1        1 0.88926859E+00 0.30000000E+03</pdfrwt>
<pdfrwt beam="2">0</pdfrwt>
<totfact> 0.14317759E-04</totfact>
</mgrwt>
<clustering>
<clus scale="   42.327">  1  6  2 -1</clus>
<clus scale="  456.301">  4  5 -1 -1</clus>
<clus scale="  300.000">  1  4  2 -1</clus>
</clustering>
</event>
<event>
 6    1  0.9480355E-012  0.3000000E+03  0.7818608E-02  0.1093470E+00
          1   -1    0    0  502    0  0.00000000000E+00  0.00000000000E+00  0.24220557996E+03  0.24220557996E+03  0.00000000000E+00 0.  1.
         13   -1    0    0    0    0 -0.00000000000E+00 -0.00000000000E+00 -0.27500000000E+03  0.27500000000E+03  0.00000000000E+00 0.  1.
    9000005    2    1    2  501    0  0.18938988512E+02 -0.44240378158E+02 -0.52873889924E+02  0.46506076760E+03  0.45953234160E+03 0.  0.
         13    1    3    3    0    0 -0.14018294277E+02  0.18695812189E+03  0.71278005144E+02  0.20057518773E+03  0.00000000000E+00 0.  1.
          3    1    3    3  501    0  0.32957282789E+02 -0.23119850004E+03 -0.12415189507E+03  0.26448557987E+03  0.00000000000E+00 0.  1.
         21    1    1    2  502  501 -0.18938988512E+02  0.44240378158E+02  0.20079469885E+02  0.52144812362E+02  0.00000000000E+00 0.  1.
<scales pt_clust_4="550.00000" pt_clust_5="550.00000" pt_clust_6="48.12376"></scales>
<mgrwt>
<rscale>  0 0.30000000E+03</rscale>
<asrwt>  1 0.48123761E+02</asrwt>
<pdfrwt beam="1">  1        1 0.88074756E+00 0.30000000E+03</pdfrwt>
<pdfrwt beam="2">0</pdfrwt>
<totfact> 0.18232733E-04</totfact>
</mgrwt>
<clustering>
<clus scale="   48.124">  1  6  2 -1</clus>
<clus scale="  459.532">  4  5 -1 -1</clus>
<clus scale="  300.000">  1  4  2 -1</clus>
</clustering>
</event>
<event>
 6    1  0.9480355E-012  0.3000000E+03  0.7818608E-02  0.1093470E+00
          1   -1    0    0  502    0  0.00000000000E+00  0.00000000000E+00  0.23805206515E+03  0.23805206515E+03  0.00000000000E+00 0.  1.
         13   -1    0    0    0    0 -0.00000000000E+00 -0.00000000000E+00 -0.27500000000E+03  0.27500000000E+03  0.00000000000E+00 0.  1.
    9000005    2    1    2  501    0 -0.42488635248E+01  0.32208163181E+02 -0.50759259532E+02  0.47775091352E+03  0.47393460976E+03 0.  0.
         13    1    3    3    0    0 -0.12414963396E+03 -0.55347949614E+02 -0.21625074385E+03  0.25542300475E+03  0.00000000000E+00 0.  1.
          3    1    3    3  501    0  0.11990077044E+03  0.87556112795E+02  0.16549148432E+03  0.22232790877E+03  0.00000000000E+00 0.  1.
         21    1    1    2  502  501  0.42488635248E+01 -0.32208163181E+02  0.13811324682E+02  0.35301151627E+02  0.00000000000E+00 0. -1.
<scales pt_clust_4="550.00000" pt_clust_5="550.00000" pt_clust_6="32.48721"></scales>
<mgrwt>
<rscale>  0 0.30000000E+03</rscale>
<asrwt>  1 0.32487207E+02</asrwt>
<pdfrwt beam="1">  1        1 0.86564387E+00 0.30000000E+03</pdfrwt>
<pdfrwt beam="2">0</pdfrwt>
<totfact> 0.28516342E-04</totfact>
</mgrwt>
<clustering>
<clus scale="   32.487">  1  6  2 -1</clus>
<clus scale="  473.935">  4  5 -1 -1</clus>
<clus scale="  300.000">  1  4  2 -1</clus>
</clustering>
</event>
<event>
 6    1  0.9480355E-012  0.3000000E+03  0.7818608E-02  0.1093470E+00
          1   -1    0    0  502    0  0.00000000000E+00  0.00000000000E+00  0.23589789050E+03  0.23589789050E+03  0.00000000000E+00 0.  1.
         13   -1    0    0    0    0 -0.00000000000E+00 -0.00000000000E+00 -0.27500000000E+03  0.27500000000E+03  0.00000000000E+00 0.  1.
    9000005    2    1    2  501    0 -0.33698238232E+02 -0.13285613076E+02 -0.60214760371E+02  0.46897149307E+03  0.46367700522E+03 0.  0.
         13    1    3    3    0    0  0.88690970694E+02 -0.20625148735E+03 -0.82930782443E+02  0.23933925502E+03  0.00000000000E+00 0.  1.
          1    1    3    3  501    0 -0.12238920893E+03  0.19296587427E+03  0.22716022072E+02  0.22963223805E+03  0.00000000000E+00 0.  1.
         21    1    1    2  502  501  0.33698238232E+02  0.13285613076E+02  0.21112650873E+02  0.41926397433E+02  0.00000000000E+00 0. -1.
<scales pt_clust_4="550.00000" pt_clust_5="550.00000" pt_clust_6="36.22263"></scales>
<mgrwt>
<rscale>  0 0.30000000E+03</rscale>
<asrwt>  1 0.36222628E+02</asrwt>
<pdfrwt beam="1">  1        1 0.85781051E+00 0.30000000E+03</pdfrwt>
<pdfrwt beam="2">0</pdfrwt>
<totfact> 0.33894915E-04</totfact>
</mgrwt>
<clustering>
<clus scale="   36.223">  1  6  2 -1</clus>
<clus scale="  463.677">  4  5 -1 -1</clus>
<clus scale="  300.000">  1  4  2 -1</clus>
</clustering>
</event>
<event>
 6    1  0.9480355E-012  0.3000000E+03  0.7818608E-02  0.1093470E+00
          1   -1    0    0  502    0  0.00000000000E+00  0.00000000000E+00  0.24081259010E+03  0.24081259010E+03  0.00000000000E+00 0.  1.
         13   -1    0    0    0    0 -0.00000000000E+00 -0.00000000000E+00 -0.27500000000E+03  0.27500000000E+03  0.00000000000E+00 0.  1.
    9000005    2    1    2  501    0  0.15568941315E+02  0.26456133177E+02 -0.69954005717E+02  0.46867907450E+03  0.46241128127E+03 0.  0.
         13    1    3    3    0    0 -0.95671457510E+02  0.16117849909E+03  0.11043782981E+03  0.21755011056E+03  0.00000000000E+00 0.  1.
          3    1    3    3  501    0  0.11124039883E+03 -0.13472236591E+03 -0.18039183553E+03  0.25112896394E+03  0.00000000000E+00 0.  1.
         21    1    1    2  502  501 -0.15568941315E+02 -0.26456133177E+02  0.35766595814E+02  0.47133515596E+02  0.00000000000E+00 0.  1.
<scales pt_clust_4="550.00000" pt_clust_5="550.00000" pt_clust_6="30.69721"></scales>
<mgrwt>
<rscale>  0 0.30000000E+03</rscale>
<asrwt>  1 0.30697213E+02</asrwt>
<pdfrwt beam="1">  1        1 0.87568215E+00 0.30000000E+03</pdfrwt>
<pdfrwt beam="2">0</pdfrwt>
<totfact> 0.22675766E-04</totfact>
</mgrwt>
<clustering>
<clus scale="   30.697">  1  6  2 -1</clus>
<clus scale="  462.411">  4  5 -1 -1</clus>
<clus scale="  300.000">  1  4  2 -1</clus>
</clustering>
</event>
<event>
 6    1  0.9480355E-012  0.3000000E+03  0.7818608E-02  0.1093470E+00
          1   -1    0    0  502    0  0.00000000000E+00  0.00000000000E+00  0.23105820979E+03  0.23105820979E+03  0.00000000000E+00 0.  1.
         13   -1    0    0    0    0 -0.00000000000E+00 -0.00000000000E+00 -0.27500000000E+03  0.27500000000E+03  0.00000000000E+00 0.  1.
    9000005    2    1    2  501    0  0.18706540800E+02  0.36021938581E+02 -0.53904880918E+02  0.46426373762E+03  0.45933382975E+03 0.  0.
         13    1    3    3    0    0  0.10883734935E+03  0.13231811032E+03 -0.20271238951E+03  0.26541658538E+03  0.00000000000E+00 0.  1.
          1    1    3    3  501    0 -0.90130808555E+02 -0.96296171740E+02  0.14880750859E+03  0.19884715224E+03  0.00000000000E+00 0.  1.
         21    1    1    2  502  501 -0.18706540800E+02 -0.36021938581E+02  0.99630907092E+01  0.41794472174E+02  0.00000000000E+00 0.  1.
<scales pt_clust_4="550.00000" pt_clust_5="550.00000" pt_clust_6="40.58959"></scales>
<mgrwt>
<rscale>  0 0.30000000E+03</rscale>
<asrwt>  1 0.40589589E+02</asrwt>
<pdfrwt beam="1">  1        1 0.84021167E+00 0.30000000E+03</pdfrwt>
<pdfrwt beam="2">0</pdfrwt>
<totfact> 0.48182804E-04</totfact>
</mgrwt>
<clustering>
<clus scale="   40.590">  1  6  2 -1</clus>
<clus scale="  459.334">  4  5 -1 -1</clus>
<clus scale="  300.000">  1  4  2 -1</clus>
</clustering>
</event>
<event>
 6    1  0.9480355E-012  0.3000000E+03  0.7818608E-02  0.1093470E+00
          1   -1    0    0  502    0  0.00000000000E+00  0.00000000000E+00  0.22491890914E+03  0.22491890914E+03  0.00000000000E+00 0.  1.
         13   -1    0    0    0    0 -0.00000000000E+00 -0.00000000000E+00 -0.27500000000E+03  0.27500000000E+03  0.00000000000E+00 0.  1.
    9000005    2    1    2  501    0 -0.10997715960E+02  0.32911174972E+02 -0.63013220220E+02  0.46288736631E+03  0.45726354849E+03 0.  0.
         13    1    3    3    0    0 -0.18042542054E+03  0.16416862019E+03 -0.24917086969E+02  0.24520507633E+03  0.00000000000E+00 0.  1.
          1    1    3    3  501    0  0.16942770458E+03 -0.13125744522E+03 -0.38096133251E+02  0.21768228999E+03  0.00000000000E+00 0.  1.
         21    1    1    2  502  501  0.10997715960E+02 -0.32911174972E+02  0.12932129358E+02  0.37031542827E+02  0.00000000000E+00 0. -1.
<scales pt_clust_4="550.00000" pt_clust_5="550.00000" pt_clust_6="34.70007"></scales>
<mgrwt>
<rscale>  0 0.30000000E+03</rscale>
<asrwt>  1 0.34700075E+02</asrwt>
<pdfrwt beam="1">  1        1 0.81788694E+00 0.30000000E+03</pdfrwt>
<pdfrwt beam="2">0</pdfrwt>
<totfact> 0.75506981E-04</totfact>
</mgrwt>
<clustering>
<clus scale="   34.700">  1  6  2 -1</clus>
<clus scale="  457.264">  4  5 -1 -1</clus>
<clus scale="  300.000">  1  4  2 -1</clus>
</clustering>
</event>
<event>
 6    1  0.9480355E-012  0.3000000E+03  0.7818608E-02  0.1093470E+00
          1   -1    0    0  502    0  0.00000000000E+00  0.00000000000E+00  0.24383296534E+03  0.24383296534E+03  0.00000000000E+00 0.  1.
         13   -1    0    0    0    0 -0.00000000000E+00 -0.00000000000E+00 -0.27500000000E+03  0.27500000000E+03  0.00000000000E+00 0.  1.
    9000005    2    1    2  501    0 -0.31374198443E+02 -0.12629880309E+02 -0.43015165176E+02  0.48299677691E+03  0.47988720327E+03 0.  0.
         13    1    3    3    0    0 -0.15918890542E+02 -0.17302600049E+03 -0.19521453744E+03  0.26134292328E+03  0.00000000000E+00 0.  1.
          1    1    3    3  501    0 -0.15455307901E+02  0.16039612018E+03  0.15219937226E+03  0.22165385363E+03  0.00000000000E+00 0.  1.
         21    1    1    2  502  501  0.31374198443E+02  0.12629880309E+02  0.11848130516E+02  0.35836188432E+02  0.00000000000E+00 0. -1.
<scales pt_clust_4="550.00000" pt_clust_5="550.00000" pt_clust_6="33.82091"></scales>
<mgrwt>
<rscale>  0 0.30000000E+03</rscale>
<asrwt>  1 0.33820914E+02</asrwt>
<pdfrwt beam="1">  1        1 0.88666533E+00 0.30000000E+03</pdfrwt>
<pdfrwt beam="2">0</pdfrwt>
<totfact> 0.16201469E-04</totfact>
</mgrwt>
<clustering>
<clus scale="   33.821">  1  6  2 -1</clus>
<clus scale="  479.887">  4  5 -1 -1</clus>
<clus scale="  300.000">  1  4  2 -1</clus>
</clustering>
</event>
<event>
 6    1  0.9480355E-012  0.3000000E+03  0.7818608E-02  0.1093470E+00
          1   -1    0    0  502    0  0.00000000000E+00  0.00000000000E+00  0.23815978046E+03  0.23815978046E+03  0.00000000000E+00 0.  1.
         13   -1    0    0    0    0 -0.00000000000E+00 -0.00000000000E+00 -0.27500000000E+03  0.27500000000E+03  0.00000000000E+00 0.  1.
    9000005    2    1    2  501    0  0.33587155233E+02  0.87471449903E+01 -0.36864767107E+02  0.47845228639E+03  0.47576566685E+03 0.  0.
         13    1    3    3    0    0  0.10630584266E+03  0.22380766222E+03 -0.42344849256E+02  0.25136405492E+03  0.00000000000E+00 0.  1.
          3    1    3    3  501    0 -0.72718687425E+02 -0.21506051723E+03  0.54800821491E+01  0.22708823147E+03  0.00000000000E+00 0.  1.
         21    1    1    2  502  501 -0.33587155233E+02 -0.87471449903E+01  0.24547569879E-01  0.34707494071E+02  0.00000000000E+00 0. -1.
<scales pt_clust_4="550.00000" pt_clust_5="550.00000" pt_clust_6="34.70749"></scales>
<mgrwt>
<rscale>  0 0.30000000E+03</rscale>
<asrwt>  1 0.34707485E+02</asrwt>
<pdfrwt beam="1">  1        1 0.86603557E+00 0.30000000E+03</pdfrwt>
<pdfrwt beam="2">0</pdfrwt>
<totfact> 0.27893126E-04</totfact>
</mgrwt>
<clustering>
<clus scale="   34.707">  1  6  2 -1</clus>
<clus scale="  475.766">  4  5 -1 -1</clus>
<clus scale="  300.000">  1  4  2 -1</clus>
</clustering>
</event>
<event>
 6    1  0.9480355E-012  0.3000000E+03  0.7818608E-02  0.1093470E+00
          1   -1    0    0  502    0  0.00000000000E+00  0.00000000000E+00  0.22905779443E+03  0.22905779443E+03  0.00000000000E+00 0.  1.
         13   -1    0    0    0    0 -0.00000000000E+00 -0.00000000000E+00 -0.27500000000E+03  0.27500000000E+03  0.00000000000E+00 0.  1.
    9000005    2    1    2  501    0 -0.19052250389E+02 -0.24083358639E+02 -0.53932051685E+02  0.47232714601E+03  0.46823206880E+03 0.  0.
         13    1    3    3    0    0  0.12058055818E+03 -0.18148727131E+03  0.69097355904E+02  0.22858640653E+03  0.00000000000E+00 0.  1.
          3    1    3    3  501    0 -0.13963280857E+03  0.15740391267E+03 -0.12302940759E+03  0.24374073948E+03  0.00000000000E+00 0.  1.
         21    1    1    2  502  501  0.19052250389E+02  0.24083358639E+02  0.79898461178E+01  0.31730648421E+02  0.00000000000E+00 0.  1.
<scales pt_clust_4="550.00000" pt_clust_5="550.00000" pt_clust_6="30.70825"></scales>
<mgrwt>
<rscale>  0 0.30000000E+03</rscale>
<asrwt>  1 0.30708247E+02</asrwt>
<pdfrwt beam="1">  1        1 0.83293743E+00 0.30000000E+03</pdfrwt>
<pdfrwt beam="2">0</pdfrwt>
<totfact> 0.57441836E-04</totfact>
</mgrwt>
<clustering>
<clus scale="   30.708">  1  6  2 -1</clus>
<clus scale="  468.232">  4  5 -1 -1</clus>
<clus scale="  300.000">  1  4  2 -1</clus>
</clustering>
</event>
<event>
 6    1  0.9480355E-012  0.3000000E+03  0.7818608E-02  0.1093470E+00
          1   -1    0    0  502    0  0.00000000000E+00  0.00000000000E+00  0.23320146480E+03  0.23320146480E+03  0.00000000000E+00 0.  1.
         13   -1    0    0    0    0 -0.00000000000E+00 -0.00000000000E+00 -0.27500000000E+03  0.27500000000E+03  0.00000000000E+00 0.  1.
    9000005    2    1    2  501    0  0.13170924980E+02 -0.28333717781E+02 -0.60085566633E+02  0.47199803476E+03  0.46711411526E+03 0.  0.
         13    1    3    3    0    0  0.18996303181E+03 -0.52601644810E+02  0.10978565941E+03  0.22562308726E+03  0.00000000000E+00 0.  1.
          1    1    3    3  501    0 -0.17679210683E+03  0.24267927028E+02 -0.16987122604E+03  0.24637494750E+03  0.00000000000E+00 0.  1.
         21    1    1    2  502  501 -0.13170924980E+02  0.28333717781E+02  0.18287031438E+02  0.36203430044E+02  0.00000000000E+00 0. -1.
<scales pt_clust_4="550.00000" pt_clust_5="550.00000" pt_clust_6="31.24536"></scales>
<mgrwt>
<rscale>  0 0.30000000E+03</rscale>
<asrwt>  1 0.31245365E+02</asrwt>
<pdfrwt beam="1">  1        1 0.84800533E+00 0.30000000E+03</pdfrwt>
<pdfrwt beam="2">0</pdfrwt>
<totfact> 0.43389693E-04</totfact>
</mgrwt>
<clustering>
<clus scale="   31.245">  1  6  2 -1</clus>
<clus scale="  467.114">  4  5 -1 -1</clus>
<clus scale="  300.000">  1  4  2 -1</clus>
</clustering>
</event>
<event>
 6    1  0.9480355E-012  0.3000000E+03  0.7818608E-02  0.1093470E+00
          1   -1    0    0  502    0  0.00000000000E+00  0.00000000000E+00  0.23816383049E+03  0.23816383049E+03  0.00000000000E+00 0.  1.
         13   -1    0    0    0    0 -0.00000000000E+00 -0.00000000000E+00 -0.27500000000E+03  0.27500000000E+03  0.00000000000E+00 0.  1.
    9000005    2    1    2  501    0  0.18512914132E+02  0.29301419014E+02 -0.36666648426E+02  0.47850362444E+03  0.47583607929E+03 0.  0.
         13    1    3    3    0    0 -0.10449352484E+03  0.21274756990E+03  0.48228539681E+02  0.24188099816E+03  0.00000000000E+00 0.  1.
          1    1    3    3  501    0  0.12300643898E+03 -0.18344615089E+03 -0.84895188108E+02  0.23662262628E+03  0.00000000000E+00 0.  1.
         21    1    1    2  502  501 -0.18512914132E+02 -0.29301419014E+02 -0.16952108098E+00  0.34660206048E+02  0.00000000000E+00 0. -1.
<scales pt_clust_4="550.00000" pt_clust_5="550.00000" pt_clust_6="34.65979"></scales>
<mgrwt>
<rscale>  0 0.30000000E+03</rscale>
<asrwt>  1 0.34659791E+02</asrwt>
<pdfrwt beam="1">  1        1 0.86605029E+00 0.30000000E+03</pdfrwt>
<pdfrwt beam="2">0</pdfrwt>
<totfact> 0.27890223E-04</totfact>
</mgrwt>
<clustering>
<clus scale="   34.660">  1  6  2 -1</clus>
<clus scale="  475.836">  4  5 -1 -1</clus>
<clus scale="  300.000">  1  4  2 -1</clus>
</clustering>
</event>
<event>
 6    1  0.9480355E-012  0.3000000E+03  0.7818608E-02  0.1093470E+00
          1   -1    0    0  502    0  0.00000000000E+00  0.00000000000E+00  0.22305116609E+03  0.22305116609E+03  0.00000000000E+00 0.  1.
         13   -1    0    0    0    0 -0.00000000000E+00 -0.00000000000E+00 -0.27500000000E+03  0.27500000000E+03  0.00000000000E+00 0.  1.
    9000005    2    1    2  501    0 -0.30925886198E+02 -0.10873570051E+02 -0.60018649993E+02  0.46429073223E+03  0.45922652442E+03 0.  0.
         13    1    3    3    0    0 -0.11327982755E+03  0.19253627819E+03  0.33239610491E+02  0.22584820002E+03  0.00000000000E+00 0.  1.
          3    1    3    3  501    0  0.82353941349E+02 -0.20340984824E+03 -0.93258260485E+02  0.23844253221E+03  0.00000000000E+00 0.  1.
         21    1    1    2  502  501  0.30925886198E+02  0.10873570051E+02  0.80698160855E+01  0.33760433860E+02  0.00000000000E+00 0.  1.
<scales pt_clust_4="550.00000" pt_clust_5="550.00000" pt_clust_6="32.78178"></scales>
<mgrwt>
<rscale>  0 0.30000000E+03</rscale>
<asrwt>  1 0.32781778E+02</asrwt>
<pdfrwt beam="1">  1        1 0.81109515E+00 0.30000000E+03</pdfrwt>
<pdfrwt beam="2">0</pdfrwt>
<totfact> 0.86570860E-04</totfact>
</mgrwt>
<clustering>
<clus scale="   32.782">  1  6  2 -1</clus>
<clus scale="  459.227">  4  5 -1 -1</clus>
<clus scale="  300.000">  1  4  2 -1</clus>
</clustering>
</event>
<event>
 6    1  0.9480355E-012  0.3000000E+03  0.7818608E-02  0.1093470E+00
          1   -1    0    0  502    0  0.00000000000E+00  0.00000000000E+00  0.26942025319E+03  0.26942025319E+03  0.00000000000E+00 0.  1.
         13   -1    0    0    0    0 -0.00000000000E+00 -0.00000000000E+00 -0.27500000000E+03  0.27500000000E+03  0.00000000000E+00 0.  1.
    9000005    2    1    2  501    0 -0.30460425515E+02  0.83083007457E+01 -0.29577589521E+02  0.50476219173E+03  0.50290473354E+03 0.  0.
         13    1    3    3    0    0  0.13233048893E+03 -0.19006684489E+03 -0.76468382546E+02  0.24389378294E+03  0.00000000000E+00 0.  1.
          1    1    3    3  501    0 -0.16279091445E+03  0.19837514564E+03  0.46890793025E+02  0.26086840879E+03  0.00000000000E+00 0.  1.
         21    1    1    2  502  501  0.30460425515E+02 -0.83083007457E+01  0.23997842709E+02  0.39658061457E+02  0.00000000000E+00 0.  1.
<scales pt_clust_4="550.00000" pt_clust_5="550.00000" pt_clust_6="31.57318"></scales>
<mgrwt>
<rscale>  0 0.30000000E+03</rscale>
<asrwt>  1 0.31573175E+02</asrwt>
<pdfrwt beam="1">  1        1 0.97971001E+00 0.30000000E+03</pdfrwt>
<pdfrwt beam="2">0</pdfrwt>
<totfact> 0.29977096E-06</totfact>
</mgrwt>
<clustering>
<clus scale="   31.573">  1  6  2 -1</clus>
<clus scale="  502.905">  4  5 -1 -1</clus>
<clus scale="  300.000">  1  4  2 -1</clus>
</clustering>
</event>
<event>
 6    1  0.9480355E-012  0.3000000E+03  0.7818608E-02  0.1093470E+00
          1   -1    0    0  502    0  0.00000000000E+00  0.00000000000E+00  0.23993533146E+03  0.23993533146E+03  0.00000000000E+00 0.  1.
         13   -1    0    0    0    0 -0.00000000000E+00 -0.00000000000E+00 -0.27500000000E+03  0.27500000000E+03  0.00000000000E+00 0.  1.
    9000005    2    1    2  501    0  0.28742448670E+02 -0.16810518589E+02 -0.39265074022E+02  0.48137396532E+03  0.47861302381E+03 0.  0.
         13    1    3    3    0    0 -0.19995950521E+03 -0.10650817814E+03 -0.61362334720E+02  0.23471926180E+03  0.00000000000E+00 0.  1.
          1    1    3    3  501    0  0.22870195388E+03  0.89697659554E+02  0.22097260697E+02  0.24665470352E+03  0.00000000000E+00 0.  1.
         21    1    1    2  502  501 -0.28742448670E+02  0.16810518589E+02  0.42004054808E+01  0.33561366137E+02  0.00000000000E+00 0.  1.
<scales pt_clust_4="550.00000" pt_clust_5="550.00000" pt_clust_6="33.29748"></scales>
<mgrwt>
<rscale>  0 0.30000000E+03</rscale>
<asrwt>  1 0.33297476E+02</asrwt>
<pdfrwt beam="1">  1        1 0.87249211E+00 0.30000000E+03</pdfrwt>
<pdfrwt beam="2">0</pdfrwt>
<totfact> 0.24107959E-04</totfact>
</mgrwt>
<clustering>
<clus scale="   33.297">  1  6  2 -1</clus>
<clus scale="  478.613">  4  5 -1 -1</clus>
<clus scale="  300.000">  1  4  2 -1</clus>
</clustering>
</event>
<event>
 6    1  0.9480355E-012  0.3000000E+03  0.7818608E-02  0.1093470E+00
          1   -1    0    0  502    0  0.00000000000E+00  0.00000000000E+00  0.24382213209E+03  0.24382213209E+03  0.00000000000E+00 0.  1.
         13   -1    0    0    0    0 -0.00000000000E+00 -0.00000000000E+00 -0.27500000000E+03  0.27500000000E+03  0.00000000000E+00 0.  1.
    9000005    2    1    2  501    0 -0.49037761234E+02 -0.10789434566E+02 -0.27645462926E+02  0.46848733488E+03  0.46496773802E+03 0.  0.
         13    1    3    3    0    0  0.56727199831E+02 -0.20559335661E+03  0.72485368519E+02  0.22525703570E+03  0.00000000000E+00 0.  1.
          3    1    3    3  501    0 -0.10576496106E+03  0.19480392205E+03 -0.10013083144E+03  0.24323029918E+03  0.00000000000E+00 0.  1.
         21    1    1    2  502  501  0.49037761234E+02  0.10789434566E+02 -0.35324049852E+01  0.50334797209E+02  0.00000000000E+00 0.  1.
<scales pt_clust_4="550.00000" pt_clust_5="550.00000" pt_clust_6="50.21072"></scales>
<mgrwt>
<rscale>  0 0.30000000E+03</rscale>
<asrwt>  1 0.50210720E+02</asrwt>
<pdfrwt beam="1">  1        1 0.88662593E+00 0.30000000E+03</pdfrwt>
<pdfrwt beam="2">0</pdfrwt>
<totfact> 0.15098666E-04</totfact>
</mgrwt>
<clustering>
<clus scale="   50.211">  1  6  2 -1</clus>
<clus scale="  464.968">  4  5 -1 -1</clus>
<clus scale="  300.000">  1  4  2 -1</clus>
</clustering>
</event>
<event>
 6    1  0.9480355E-012  0.3000000E+03  0.7818608E-02  0.1093470E+00
          1   -1    0    0  502    0  0.00000000000E+00  0.00000000000E+00  0.25493058109E+03  0.25493058109E+03  0.00000000000E+00 0.  1.
         13   -1    0    0    0    0 -0.00000000000E+00 -0.00000000000E+00 -0.27500000000E+03  0.27500000000E+03  0.00000000000E+00 0.  1.
    9000005    2    1    2  501    0 -0.32226517991E+02 -0.64375103092E+00 -0.58396188108E+02  0.47985160232E+03  0.47519310032E+03 0.  0.
         13    1    3    3    0    0  0.21994686208E+03  0.13263742135E+02 -0.55713520867E+02  0.22728076338E+03  0.00000000000E+00 0.  1.
          3    1    3    3  501    0 -0.25217338007E+03 -0.13907493166E+02 -0.26826672411E+01  0.25257083895E+03  0.00000000000E+00 0.  1.
         21    1    1    2  502  501  0.32226517991E+02  0.64375103092E+00  0.38326769201E+02  0.50078978770E+02  0.00000000000E+00 0. -1.
<scales pt_clust_4="550.00000" pt_clust_5="550.00000" pt_clust_6="32.23295"></scales>
<mgrwt>
<rscale>  0 0.30000000E+03</rscale>
<asrwt>  1 0.32232947E+02</asrwt>
<pdfrwt beam="1">  1        1 0.92702029E+00 0.30000000E+03</pdfrwt>
<pdfrwt beam="2">0</pdfrwt>
<totfact> 0.30260973E-05</totfact>
</mgrwt>
<clustering>
<clus scale="   32.233">  1  6  2 -1</clus>
<clus scale="  475.193">  4  5 -1 -1</clus>
<clus scale="  300.000">  1  4  2 -1</clus>
</clustering>
</event>
<event>
 6    1  0.9480355E-012  0.3000000E+03  0.7818608E-02  0.1093470E+00
          1   -1    0    0  502    0  0.00000000000E+00  0.00000000000E+00  0.22795109972E+03  0.22795109972E+03  0.00000000000E+00 0.  1.
         13   -1    0    0    0    0 -0.00000000000E+00 -0.00000000000E+00 -0.27500000000E+03  0.27500000000E+03  0.00000000000E+00 0.  1.
    9000005    2    1    2  501    0  0.18808729327E+02  0.33737632114E+02 -0.50791217016E+02  0.46414387032E+03  0.45973665126E+03 0.  0.
         13    1    3    3    0    0  0.61125420214E+02  0.17953184561E+03 -0.18247153875E+03  0.26318028619E+03  0.00000000000E+00 0.  1.
          1    1    3    3  501    0 -0.42316690888E+02 -0.14579421349E+03  0.13168032173E+03  0.20096358413E+03  0.00000000000E+00 0.  1.
         21    1    1    2  502  501 -0.18808729327E+02 -0.33737632114E+02  0.37423167403E+01  0.38807229406E+02  0.00000000000E+00 0. -1.
<scales pt_clust_4="550.00000" pt_clust_5="550.00000" pt_clust_6="38.62637"></scales>
<mgrwt>
<rscale>  0 0.30000000E+03</rscale>
<asrwt>  1 0.38626366E+02</asrwt>
<pdfrwt beam="1">  1        1 0.82891309E+00 0.30000000E+03</pdfrwt>
<pdfrwt beam="2">0</pdfrwt>
<totfact> 0.59262043E-04</totfact>
</mgrwt>
<clustering>
<clus scale="   38.626">  1  6  2 -1</clus>
<clus scale="  459.737">  4  5 -1 -1</clus>
<clus scale="  300.000">  1  4  2 -1</clus>
</clustering>
</event>
<event>
 6    1  0.9480355E-012  0.3000000E+03  0.7818608E-02  0.1093470E+00
          1   -1    0    0  502    0  0.00000000000E+00  0.00000000000E+00  0.22274613461E+03  0.22274613461E+03  0.00000000000E+00 0.  1.
         13   -1    0    0    0    0 -0.00000000000E+00 -0.00000000000E+00 -0.27500000000E+03  0.27500000000E+03  0.00000000000E+00 0.  1.
    9000005    2    1    2  501    0 -0.23701458600E+02 -0.19584601948E+02 -0.40986928093E+02  0.46500075861E+03  0.46216929957E+03 0.  0.
         13    1    3    3    0    0 -0.14749903200E+03 -0.14007010841E+03 -0.15696388189E+03  0.25693045737E+03  0.00000000000E+00 0.  1.
          3    1    3    3  501    0  0.12379757339E+03  0.12048550646E+03  0.11597695380E+03  0.20807030124E+03  0.00000000000E+00 0.  1.
         21    1    1    2  502  501  0.23701458600E+02  0.19584601948E+02 -0.11266937296E+02  0.32745375998E+02  0.00000000000E+00 0.  1.
<scales pt_clust_4="550.00000" pt_clust_5="550.00000" pt_clust_6="30.74600"></scales>
<mgrwt>
<rscale>  0 0.30000000E+03</rscale>
<asrwt>  1 0.30746003E+02</asrwt>
<pdfrwt beam="1">  1        1 0.80998594E+00 0.30000000E+03</pdfrwt>
<pdfrwt beam="2">0</pdfrwt>
<totfact> 0.89403339E-04</totfact>
</mgrwt>
<clustering>
<clus scale="   30.746">  1  6  2 -1</clus>
<clus scale="  462.169">  4  5 -1 -1</clus>
<clus scale="  300.000">  1  4  2 -1</clus>
</clustering>
</event>
<event>
 6    1  0.9480355E-012  0.3000000E+03  0.7818608E-02  0.1093470E+00
          1   -1    0    0  502    0  0.00000000000E+00  0.00000000000E+00  0.22393893008E+03  0.22393893008E+03  0.00000000000E+00 0.  1.
         13   -1    0    0    0    0 -0.00000000000E+00 -0.00000000000E+00 -0.27500000000E+03  0.27500000000E+03  0.00000000000E+00 0.  1.
    9000005    2    1    2  501    0  0.28905627362E+02 -0.14825730346E+02 -0.67369288532E+02  0.46258930054E+03  0.45650290509E+03 0.  0.
         13    1    3    3    0    0  0.12456597607E+03  0.80811616148E+02  0.14710949301E+03  0.20901770889E+03  0.00000000000E+00 0.  1.
          3    1    3    3  501    0 -0.95660348704E+02 -0.95637346494E+02 -0.21447878154E+03  0.25357159164E+03  0.00000000000E+00 0.  1.
         21    1    1    2  502  501 -0.28905627362E+02  0.14825730346E+02  0.16308218608E+02  0.36349629539E+02  0.00000000000E+00 0. -1.
<scales pt_clust_4="550.00000" pt_clust_5="550.00000" pt_clust_6="32.48596"></scales>
<mgrwt>
<rscale>  0 0.30000000E+03</rscale>
<asrwt>  1 0.32485960E+02</asrwt>
<pdfrwt beam="1">  1        1 0.81432338E+00 0.30000000E+03</pdfrwt>
<pdfrwt beam="2">0</pdfrwt>
<totfact> 0.81749644E-04</totfact>
</mgrwt>
<clustering>
<clus scale="   32.486">  1  6  2 -1</clus>
<clus scale="  456.503">  4  5 -1 -1</clus>
<clus scale="  300.000">  1  4  2 -1</clus>
</clustering>
</event>
<event>
 6    1  0.9480355E-012  0.3000000E+03  0.7818608E-02  0.1093470E+00
          1   -1    0    0  502    0  0.00000000000E+00  0.00000000000E+00  0.22030525059E+03  0.22030525059E+03  0.00000000000E+00 0.  1.
         13   -1    0    0    0    0 -0.00000000000E+00 -0.00000000000E+00 -0.27500000000E+03  0.27500000000E+03  0.00000000000E+00 0.  1.
    9000005    2    1    2  501    0  0.31433320190E+01  0.33568603339E+02 -0.55064192125E+02  0.46158777509E+03  0.45704975352E+03 0.  0.
         13    1    3    3    0    0  0.37681743639E+02  0.32868074678E+02 -0.25440675831E+03  0.25927403035E+03  0.00000000000E+00 0.  1.
          1    1    3    3  501    0 -0.34538411619E+02  0.70052866094E+00  0.19934256619E+03  0.20231374474E+03  0.00000000000E+00 0.  1.
         21    1    1    2  502  501 -0.31433320190E+01 -0.33568603339E+02  0.36944271707E+00  0.33717475502E+02  0.00000000000E+00 0. -1.
<scales pt_clust_4="550.00000" pt_clust_5="550.00000" pt_clust_6="33.71545"></scales>
<mgrwt>
<rscale>  0 0.30000000E+03</rscale>
<asrwt>  1 0.33715451E+02</asrwt>
<pdfrwt beam="1">  1        1 0.80111000E+00 0.30000000E+03</pdfrwt>
<pdfrwt beam="2">0</pdfrwt>
<totfact> 0.10251854E-03</totfact>
</mgrwt>
<clustering>
<clus scale="   33.715">  1  6  2 -1</clus>
<clus scale="  457.050">  4  5 -1 -1</clus>
<clus scale="  300.000">  1  4  2 -1</clus>
</clustering>
</event>
<event>
 6    1  0.9480355E-012  0.3000000E+03  0.7818608E-02  0.1093470E+00
          1   -1    0    0  502    0  0.00000000000E+00  0.00000000000E+00  0.22867993917E+03  0.22867993917E+03  0.00000000000E+00 0.  1.
         13   -1    0    0    0    0 -0.00000000000E+00 -0.00000000000E+00 -0.27500000000E+03  0.27500000000E+03  0.00000000000E+00 0.  1.
    9000005    2    1    2  501    0  0.40608190212E+02  0.67888248416E+01 -0.38387925639E+02  0.46175104670E+03  0.45830697468E+03 0.  0.
         13    1    3    3    0    0 -0.17076213629E+03  0.10837001844E+03  0.54581384251E+02  0.20948244699E+03  0.00000000000E+00 0.  1.
          1    1    3    3  501    0  0.21137032650E+03 -0.10158119360E+03 -0.92969309889E+02  0.25226859971E+03  0.00000000000E+00 0.  1.
         21    1    1    2  502  501 -0.40608190212E+02 -0.67888248416E+01 -0.79321351935E+01  0.41928892470E+02  0.00000000000E+00 0.  1.
<scales pt_clust_4="550.00000" pt_clust_5="550.00000" pt_clust_6="41.17177"></scales>
<mgrwt>
<rscale>  0 0.30000000E+03</rscale>
<asrwt>  1 0.41171774E+02</asrwt>
<pdfrwt beam="1">  1        1 0.83156342E+00 0.30000000E+03</pdfrwt>
<pdfrwt beam="2">0</pdfrwt>
<totfact> 0.55723415E-04</totfact>
</mgrwt>
<clustering>
<clus scale="   41.172">  1  6  2 -1</clus>
<clus scale="  458.307">  4  5 -1 -1</clus>
<clus scale="  300.000">  1  4  2 -1</clus>
</clustering>
</event>
<event>
 6    1  0.9480355E-012  0.3000000E+03  0.7818608E-02  0.1093470E+00
          1   -1    0    0  502    0  0.00000000000E+00  0.00000000000E+00  0.24520855780E+03  0.24520855780E+03  0.00000000000E+00 0.  1.
         13   -1    0    0    0    0 -0.00000000000E+00 -0.00000000000E+00 -0.27500000000E+03  0.27500000000E+03  0.00000000000E+00 0.  1.
    9000005    2    1    2  501    0 -0.36370116362E+02 -0.15820692496E+02 -0.52596382104E+02  0.47445765662E+03  0.46986232966E+03 0.  0.
         13    1    3    3    0    0 -0.23394446009E+03 -0.87826910635E+02 -0.80028260841E+02  0.26238921314E+03  0.00000000000E+00 0.  1.
          1    1    3    3  501    0  0.19757434372E+03  0.72006218139E+02  0.27431878737E+02  0.21206844348E+03  0.00000000000E+00 0.  1.
         21    1    1    2  502  501  0.36370116362E+02  0.15820692496E+02  0.22804939906E+02  0.45750901186E+02  0.00000000000E+00 0.  1.
<scales pt_clust_4="550.00000" pt_clust_5="550.00000" pt_clust_6="39.66207"></scales>
<mgrwt>
<rscale>  0 0.30000000E+03</rscale>
<asrwt>  1 0.39662068E+02</asrwt>
<pdfrwt beam="1">  1        1 0.89166748E+00 0.30000000E+03</pdfrwt>
<pdfrwt beam="2">0</pdfrwt>
<totfact> 0.13479689E-04</totfact>
</mgrwt>
<clustering>
<clus scale="   39.662">  1  6  2 -1</clus>
<clus scale="  469.862">  4  5 -1 -1</clus>
<clus scale="  300.000">  1  4  2 -1</clus>
</clustering>
</event>
<event>
 6    1  0.9480355E-012  0.3000000E+03  0.7818608E-02  0.1093470E+00
          1   -1    0    0  502    0  0.00000000000E+00  0.00000000000E+00  0.24552647861E+03  0.24552647861E+03  0.00000000000E+00 0.  1.
         13   -1    0    0    0    0 -0.00000000000E+00 -0.00000000000E+00 -0.27500000000E+03  0.27500000000E+03  0.00000000000E+00 0.  1.
    9000005    2    1    2  501    0  0.19241444525E+02  0.33895125075E+02 -0.67297797769E+02  0.46621452251E+03  0.45968236286E+03 0.  0.
         13    1    3    3    0    0 -0.23683932147E+02  0.20176569111E+03 -0.16990934332E+03  0.26483864465E+03  0.00000000000E+00 0.  1.
          3    1    3    3  501    0  0.42925376672E+02 -0.16787056604E+03  0.10261154555E+03  0.20137587786E+03  0.00000000000E+00 0.  1.
         21    1    1    2  502  501 -0.19241444525E+02 -0.33895125075E+02  0.37824276376E+02  0.54311956093E+02  0.00000000000E+00 0.  1.
<scales pt_clust_4="550.00000" pt_clust_5="550.00000" pt_clust_6="38.97580"></scales>
<mgrwt>
<rscale>  0 0.30000000E+03</rscale>
<asrwt>  1 0.38975796E+02</asrwt>
<pdfrwt beam="1">  1        1 0.89282356E+00 0.30000000E+03</pdfrwt>
<pdfrwt beam="2">0</pdfrwt>
<totfact> 0.13093040E-04</totfact>
</mgrwt>
<clustering>
<clus scale="   38.976">  1  6  2 -1</clus>
<clus scale="  459.682">  4  5 -1 -1</clus>
<clus scale="  300.000">  1  4  2 -1</clus>
</clustering>
</event>
<event>
 6    1  0.9480355E-012  0.3000000E+03  0.7818608E-02  0.1093470E+00
          1   -1    0    0  502    0  0.00000000000E+00  0.00000000000E+00  0.23006245915E+03  0.23006245915E+03  0.00000000000E+00 0.  1.
         13   -1    0    0    0    0 -0.00000000000E+00 -0.00000000000E+00 -0.27500000000E+03  0.27500000000E+03  0.00000000000E+00 0.  1.
    9000005    2    1    2  501    0  0.25844903869E+02 -0.25834046115E+02 -0.57778142033E+02  0.46632955281E+03  0.46129121077E+03 0.  0.
         13    1    3    3    0    0  0.20179166387E+03 -0.93036151685E+02 -0.13804505669E+03  0.26159518116E+03  0.00000000000E+00 0.  1.
          3    1    3    3  501    0 -0.17594676000E+03  0.67202105570E+02  0.80266914660E+02  0.20473437165E+03  0.00000000000E+00 0.  1.
         21    1    1    2  502  501 -0.25844903869E+02  0.25834046115E+02  0.12840601180E+02  0.38732906337E+02  0.00000000000E+00 0.  1.
<scales pt_clust_4="550.00000" pt_clust_5="550.00000" pt_clust_6="36.54254"></scales>
<mgrwt>
<rscale>  0 0.30000000E+03</rscale>
<asrwt>  1 0.36542537E+02</asrwt>
<pdfrwt beam="1">  1        1 0.83659076E+00 0.30000000E+03</pdfrwt>
<pdfrwt beam="2">0</pdfrwt>
<totfact> 0.52256574E-04</totfact>
</mgrwt>
<clustering>
<clus scale="   36.543">  1  6  2 -1</clus>
<clus scale="  461.291">  4  5 -1 -1</clus>
<clus scale="  300.000">  1  4  2 -1</clus>
</clustering>
</event>
<event>
 6    1  0.9480355E-012  0.3000000E+03  0.7818608E-02  0.1093470E+00
          1   -1    0    0  502    0  0.00000000000E+00  0.00000000000E+00  0.23849515420E+03  0.23849515420E+03  0.00000000000E+00 0.  1.
         13   -1    0    0    0    0 -0.00000000000E+00 -0.00000000000E+00 -0.27500000000E+03  0.27500000000E+03  0.00000000000E+00 0.  1.
    9000005    2    1    2  501    0  0.39822816334E+02  0.37975389881E+01 -0.24548370284E+02  0.47174308467E+03  0.46940242591E+03 0.  0.
         13    1    3    3    0    0  0.11073527838E+03 -0.76281146947E+02 -0.21483922163E+03  0.25345020499E+03  0.00000000000E+00 0.  1.
          1    1    3    3  501    0 -0.70912462050E+02  0.80078685935E+02  0.19029085135E+03  0.21829287968E+03  0.00000000000E+00 0.  1.
         21    1    1    2  502  501 -0.39822816334E+02 -0.37975389881E+01 -0.11956475515E+02  0.41752069528E+02  0.00000000000E+00 0. -1.
<scales pt_clust_4="550.00000" pt_clust_5="550.00000" pt_clust_6="40.00349"></scales>
<mgrwt>
<rscale>  0 0.30000000E+03</rscale>
<asrwt>  1 0.40003495E+02</asrwt>
<pdfrwt beam="1">  1        1 0.86725511E+00 0.30000000E+03</pdfrwt>
<pdfrwt beam="2">0</pdfrwt>
<totfact> 0.26375189E-04</totfact>
</mgrwt>
<clustering>
<clus scale="   40.003">  1  6  2 -1</clus>
<clus scale="  469.402">  4  5 -1 -1</clus>
<clus scale="  300.000">  1  4  2 -1</clus>
</clustering>
</event>
<event>
 6    1  0.9480355E-012  0.3000000E+03  0.7818608E-02  0.1093470E+00
          1   -1    0    0  502    0  0.00000000000E+00  0.00000000000E+00  0.22196854883E+03  0.22196854883E+03  0.00000000000E+00 0.  1.
         13   -1    0    0    0    0 -0.00000000000E+00 -0.00000000000E+00 -0.27500000000E+03  0.27500000000E+03  0.00000000000E+00 0.  1.
    9000005    2    1    2  501    0  0.24217864475E+02 -0.20252111712E+02 -0.55797640971E+02  0.46527778054E+03  0.46083986735E+03 0.  0.
         13    1    3    3    0    0  0.58435807352E+00  0.20799710366E+03 -0.10127792058E+03  0.23134466452E+03  0.00000000000E+00 0.  1.
          1    1    3    3  501    0  0.23633506401E+02 -0.22824921537E+03  0.45480279605E+02  0.23393311603E+03  0.00000000000E+00 0.  1.
         21    1    1    2  502  501 -0.24217864475E+02  0.20252111712E+02  0.27661897963E+01  0.31690768285E+02  0.00000000000E+00 0.  1.
<scales pt_clust_4="550.00000" pt_clust_5="550.00000" pt_clust_6="31.56981"></scales>
<mgrwt>
<rscale>  0 0.30000000E+03</rscale>
<asrwt>  1 0.31569811E+02</asrwt>
<pdfrwt beam="1">  1        1 0.80715836E+00 0.30000000E+03</pdfrwt>
<pdfrwt beam="2">0</pdfrwt>
<totfact> 0.93547993E-04</totfact>
</mgrwt>
<clustering>
<clus scale="   31.570">  1  6  2 -1</clus>
<clus scale="  460.840">  4  5 -1 -1</clus>
<clus scale="  300.000">  1  4  2 -1</clus>
</clustering>
</event>
<event>
 6    1  0.9480355E-012  0.3000000E+03  0.7818608E-02  0.1093470E+00
          1   -1    0    0  502    0  0.00000000000E+00  0.00000000000E+00  0.24766544624E+03  0.24766544624E+03  0.00000000000E+00 0.  1.
         13   -1    0    0    0    0 -0.00000000000E+00 -0.00000000000E+00 -0.27500000000E+03  0.27500000000E+03  0.00000000000E+00 0.  1.
    9000005    2    1    2  501    0  0.35134783748E+02 -0.66435881290E+01 -0.59409615996E+02  0.47463004357E+03  0.46953762948E+03 0.  0.
         13    1    3    3    0    0  0.23840915540E+03 -0.78993182743E+02 -0.12305735210E+01  0.25115804310E+03  0.00000000000E+00 0.  1.
          1    1    3    3  501    0 -0.20327437166E+03  0.72349594614E+02 -0.58179042475E+02  0.22347200048E+03  0.00000000000E+00 0.  1.
         21    1    1    2  502  501 -0.35134783748E+02  0.66435881290E+01  0.32075062239E+02  0.48035402672E+02  0.00000000000E+00 0.  1.
<scales pt_clust_4="550.00000" pt_clust_5="550.00000" pt_clust_6="35.75738"></scales>
<mgrwt>
<rscale>  0 0.30000000E+03</rscale>
<asrwt>  1 0.35757381E+02</asrwt>
<pdfrwt beam="1">  1        1 0.90060162E+00 0.30000000E+03</pdfrwt>
<pdfrwt beam="2">0</pdfrwt>
<totfact> 0.10806874E-04</totfact>
</mgrwt>
<clustering>
<clus scale="   35.757">  1  6  2 -1</clus>
<clus scale="  469.538">  4  5 -1 -1</clus>
<clus scale="  300.000">  1  4  2 -1</clus>
</clustering>
</event>
<event>
 6    1  0.9480355E-012  0.3000000E+03  0.7818608E-02  0.1093470E+00
          1   -1    0    0  502    0  0.00000000000E+00  0.00000000000E+00  0.23584235867E+03  0.23584235867E+03  0.00000000000E+00 0.  1.
         13   -1    0    0    0    0 -0.00000000000E+00 -0.00000000000E+00 -0.27500000000E+03  0.27500000000E+03  0.00000000000E+00 0.  1.
    9000005    2    1    2  501    0 -0.25158800734E+01  0.38672065509E+02 -0.58826084566E+02  0.46738311382E+03  0.46204394656E+03 0.  0.
         13    1    3    3    0    0 -0.17326776036E+03  0.42619209148E+02 -0.18347940964E+03  0.25593516274E+03  0.00000000000E+00 0.  1.
          1    1    3    3  501    0  0.17075188028E+03 -0.39471436383E+01  0.12465332507E+03  0.21144795108E+03  0.00000000000E+00 0.  1.
         21    1    1    2  502  501  0.25158800734E+01 -0.38672065509E+02  0.19668443232E+02  0.43459244845E+02  0.00000000000E+00 0.  1.
<scales pt_clust_4="550.00000" pt_clust_5="550.00000" pt_clust_6="38.75382"></scales>
<mgrwt>
<rscale>  0 0.30000000E+03</rscale>
<asrwt>  1 0.38753817E+02</asrwt>
<pdfrwt beam="1">  1        1 0.85760858E+00 0.30000000E+03</pdfrwt>
<pdfrwt beam="2">0</pdfrwt>
<totfact> 0.33636691E-04</totfact>
</mgrwt>
<clustering>
<clus scale="   38.754">  1  6  2 -1</clus>
<clus scale="  462.044">  4  5 -1 -1</clus>
<clus scale="  300.000">  1  4  2 -1</clus>
</clustering>
</event>
<event>
 6    1  0.9480355E-012  0.3000000E+03  0.7818608E-02  0.1093470E+00
          1   -1    0    0  502    0  0.00000000000E+00  0.00000000000E+00  0.23212049486E+03  0.23212049486E+03  0.00000000000E+00 0.  1.
         13   -1    0    0    0    0 -0.00000000000E+00 -0.00000000000E+00 -0.27500000000E+03  0.27500000000E+03  0.00000000000E+00 0.  1.
    9000005    2    1    2  501    0 -0.22992191215E+02  0.27807467387E+02 -0.66303805626E+02  0.46410196452E+03  0.45792198324E+03 0.  0.
         13    1    3    3    0    0  0.10455163494E+03 -0.17051476703E+03 -0.10379783778E+03  0.22534489405E+03  0.00000000000E+00 0.  1.
          3    1    3    3  501    0 -0.12754382615E+03  0.19832223442E+03  0.37494032157E+02  0.23875707048E+03  0.00000000000E+00 0.  1.
         21    1    1    2  502  501  0.22992191215E+02 -0.27807467387E+02  0.23424300489E+02  0.43018530342E+02  0.00000000000E+00 0. -1.
<scales pt_clust_4="550.00000" pt_clust_5="550.00000" pt_clust_6="36.08180"></scales>
<mgrwt>
<rscale>  0 0.30000000E+03</rscale>
<asrwt>  1 0.36081797E+02</asrwt>
<pdfrwt beam="1">  1        1 0.84407453E+00 0.30000000E+03</pdfrwt>
<pdfrwt beam="2">0</pdfrwt>
<totfact> 0.45764231E-04</totfact>
</mgrwt>
<clustering>
<clus scale="   36.082">  1  6  2 -1</clus>
<clus scale="  457.922">  4  5 -1 -1</clus>
<clus scale="  300.000">  1  4  2 -1</clus>
</clustering>
</event>
<event>
 6    1  0.9480355E-012  0.3000000E+03  0.7818608E-02  0.1093470E+00
          1   -1    0    0  502    0  0.00000000000E+00  0.00000000000E+00  0.22950503012E+03  0.22950503012E+03  0.00000000000E+00 0.  1.
         13   -1    0    0    0    0 -0.00000000000E+00 -0.00000000000E+00 -0.27500000000E+03  0.27500000000E+03  0.00000000000E+00 0.  1.
    9000005    2    1    2  501    0 -0.30388021901E+02 -0.26032440370E+01 -0.65084435783E+02  0.46825650010E+03  0.46270720477E+03 0.  0.
         13    1    3    3    0    0 -0.15904286719E+03 -0.25348157940E+02 -0.21549476574E+03  0.26902631242E+03  0.00000000000E+00 0.  1.
          3    1    3    3  501    0  0.12865484529E+03  0.22744913903E+02  0.15041032995E+03  0.19923018768E+03  0.00000000000E+00 0.  1.
         21    1    1    2  502  501  0.30388021901E+02  0.26032440370E+01  0.19589465906E+02  0.36248530026E+02  0.00000000000E+00 0.  1.
<scales pt_clust_4="550.00000" pt_clust_5="550.00000" pt_clust_6="30.49932"></scales>
<mgrwt>
<rscale>  0 0.30000000E+03</rscale>
<asrwt>  1 0.30499324E+02</asrwt>
<pdfrwt beam="1">  1        1 0.83456375E+00 0.30000000E+03</pdfrwt>
<pdfrwt beam="2">0</pdfrwt>
<totfact> 0.55938073E-04</totfact>
</mgrwt>
<clustering>
<clus scale="   30.499">  1  6  2 -1</clus>
<clus scale="  462.707">  4  5 -1 -1</clus>
<clus scale="  300.000">  1  4  2 -1</clus>
</clustering>
</event>
<event>
 6    1  0.9480355E-012  0.3000000E+03  0.7818608E-02  0.1093470E+00
          1   -1    0    0  502    0  0.00000000000E+00  0.00000000000E+00  0.24165405295E+03  0.24165405295E+03  0.00000000000E+00 0.  1.
         13   -1    0    0    0    0 -0.00000000000E+00 -0.00000000000E+00 -0.27500000000E+03  0.27500000000E+03  0.00000000000E+00 0.  1.
    9000005    2    1    2  501    0 -0.27682769802E+02  0.20535409881E+02 -0.38429281158E+02  0.48181328533E+03  0.47903986626E+03 0.  0.
         13    1    3    3    0    0 -0.15655519423E+03 -0.76295806976E+02  0.15281490291E+03  0.23169586435E+03  0.00000000000E+00 0.  1.
          1    1    3    3  501    0  0.12887242443E+03  0.96831216857E+02 -0.19124418407E+03  0.25011742098E+03  0.00000000000E+00 0.  1.
         21    1    1    2  502  501  0.27682769802E+02 -0.20535409881E+02  0.50833341062E+01  0.34840767622E+02  0.00000000000E+00 0. -1.
<scales pt_clust_4="550.00000" pt_clust_5="550.00000" pt_clust_6="34.46794"></scales>
<mgrwt>
<rscale>  0 0.30000000E+03</rscale>
<asrwt>  1 0.34467939E+02</asrwt>
<pdfrwt beam="1">  1        1 0.87874201E+00 0.30000000E+03</pdfrwt>
<pdfrwt beam="2">0</pdfrwt>
<totfact> 0.20498450E-04</totfact>
</mgrwt>
<clustering>
<clus scale="   34.468">  1  6  2 -1</clus>
<clus scale="  479.040">  4  5 -1 -1</clus>
<clus scale="  300.000">  1  4  2 -1</clus>
</clustering>
</event>
<event>
 6    1  0.9480355E-012  0.3000000E+03  0.7818608E-02  0.1093470E+00
          1   -1    0    0  502    0  0.00000000000E+00  0.00000000000E+00  0.23897047277E+03  0.23897047277E+03  0.00000000000E+00 0.  1.
         13   -1    0    0    0    0 -0.00000000000E+00 -0.00000000000E+00 -0.27500000000E+03  0.27500000000E+03  0.00000000000E+00 0.  1.
    9000005    2    1    2  501    0 -0.18239785017E+02  0.32632049967E+02 -0.69927621819E+02  0.46350641369E+03  0.45667360641E+03 0.  0.
         13    1    3    3    0    0  0.21563095470E+03 -0.21612902726E+02 -0.15039024472E+02  0.21723259066E+03  0.00000000000E+00 0.  1.
          3    1    3    3  501    0 -0.23387073972E+03  0.54244952693E+02 -0.54888597347E+02  0.24627382302E+03  0.00000000000E+00 0.  1.
         21    1    1    2  502  501  0.18239785017E+02 -0.32632049967E+02  0.33898094592E+02  0.50464059086E+02  0.00000000000E+00 0. -1.
<scales pt_clust_4="550.00000" pt_clust_5="550.00000" pt_clust_6="37.38369"></scales>
<mgrwt>
<rscale>  0 0.30000000E+03</rscale>
<asrwt>  1 0.37383692E+02</asrwt>
<pdfrwt beam="1">  1        1 0.86898354E+00 0.30000000E+03</pdfrwt>
<pdfrwt beam="2">0</pdfrwt>
<totfact> 0.25624526E-04</totfact>
</mgrwt>
<clustering>
<clus scale="   37.384">  1  6  2 -1</clus>
<clus scale="  456.674">  4  5 -1 -1</clus>
<clus scale="  300.000">  1  4  2 -1</clus>
</clustering>
</event>
<event>
 6    1  0.9480355E-012  0.3000000E+03  0.7818608E-02  0.1093470E+00
          1   -1    0    0  502    0  0.00000000000E+00  0.00000000000E+00  0.23863376408E+03  0.23863376408E+03  0.00000000000E+00 0.  1.
         13   -1    0    0    0    0 -0.00000000000E+00 -0.00000000000E+00 -0.27500000000E+03  0.27500000000E+03  0.00000000000E+00 0.  1.
    9000005    2    1    2  501    0  0.40998817282E+02  0.10623147023E+02 -0.25977325603E+02  0.47002546523E+03  0.46739208620E+03 0.  0.
         13    1    3    3    0    0 -0.17264183001E+03  0.13440111090E+02 -0.14464104360E+03  0.22562550731E+03  0.00000000000E+00 0.  1.
          3    1    3    3  501    0  0.21364064729E+03 -0.28169640677E+01  0.11866371800E+03  0.24439995792E+03  0.00000000000E+00 0.  1.
         21    1    1    2  502  501 -0.40998817282E+02 -0.10623147023E+02 -0.10388910319E+02  0.43608298852E+02  0.00000000000E+00 0.  1.
<scales pt_clust_4="550.00000" pt_clust_5="550.00000" pt_clust_6="42.35276"></scales>
<mgrwt>
<rscale>  0 0.30000000E+03</rscale>
<asrwt>  1 0.42352757E+02</asrwt>
<pdfrwt beam="1">  1        1 0.86775914E+00 0.30000000E+03</pdfrwt>
<pdfrwt beam="2">0</pdfrwt>
<totfact> 0.25788748E-04</totfact>
</mgrwt>
<clustering>
<clus scale="   42.353">  1  6  2 -1</clus>
<clus scale="  467.392">  4  5 -1 -1</clus>
<clus scale="  300.000">  1  4  2 -1</clus>
</clustering>
</event>
<event>
 6    1  0.9480355E-012  0.3000000E+03  0.7818608E-02  0.1093470E+00
          1   -1    0    0  502    0  0.00000000000E+00  0.00000000000E+00  0.23842555425E+03  0.23842555425E+03  0.00000000000E+00 0.  1.
         13   -1    0    0    0    0 -0.00000000000E+00 -0.00000000000E+00 -0.27500000000E+03  0.27500000000E+03  0.00000000000E+00 0.  1.
    9000005    2    1    2  501    0  0.32706741472E+02  0.37962192731E+01 -0.72277425795E+02  0.46485761212E+03  0.45802230409E+03 0.  0.
         13    1    3    3    0    0 -0.52511590327E+01  0.65804230295E+02 -0.25752640914E+03  0.26585263361E+03  0.00000000000E+00 0.  1.
          1    1    3    3  501    0  0.37957900505E+02 -0.62008011021E+02  0.18524898334E+03  0.19900497851E+03  0.00000000000E+00 0.  1.
         21    1    1    2  502  501 -0.32706741472E+02 -0.37962192731E+01  0.35702980041E+02  0.48567942125E+02  0.00000000000E+00 0. -1.
<scales pt_clust_4="550.00000" pt_clust_5="550.00000" pt_clust_6="32.92631"></scales>
<mgrwt>
<rscale>  0 0.30000000E+03</rscale>
<asrwt>  1 0.32926315E+02</asrwt>
<pdfrwt beam="1">  1        1 0.86700202E+00 0.30000000E+03</pdfrwt>
<pdfrwt beam="2">0</pdfrwt>
<totfact> 0.27514639E-04</totfact>
</mgrwt>
<clustering>
<clus scale="   32.926">  1  6  2 -1</clus>
<clus scale="  458.022">  4  5 -1 -1</clus>
<clus scale="  300.000">  1  4  2 -1</clus>
</clustering>
</event>
<event>
 6    1  0.9480355E-012  0.3000000E+03  0.7818608E-02  0.1093470E+00
          1   -1    0    0  502    0  0.00000000000E+00  0.00000000000E+00  0.22573797308E+03  0.22573797308E+03  0.00000000000E+00 0.  1.
         13   -1    0    0    0    0 -0.00000000000E+00 -0.00000000000E+00 -0.27500000000E+03  0.27500000000E+03  0.00000000000E+00 0.  1.
    9000005    2    1    2  501    0  0.10606368896E+02  0.28713318078E+02 -0.71667850754E+02  0.46280420662E+03  0.45619568514E+03 0.  0.
         13    1    3    3    0    0 -0.39418586786E+02 -0.20739697449E+03 -0.25741795428E+00  0.21110991515E+03  0.00000000000E+00 0.  1.
          1    1    3    3  501    0  0.50024955682E+02  0.23611029257E+03 -0.71410432800E+02  0.25169429147E+03  0.00000000000E+00 0.  1.
         21    1    1    2  502  501 -0.10606368896E+02 -0.28713318078E+02  0.22405823837E+02  0.37933766462E+02  0.00000000000E+00 0.  1.
<scales pt_clust_4="550.00000" pt_clust_5="550.00000" pt_clust_6="30.60963"></scales>
<mgrwt>
<rscale>  0 0.30000000E+03</rscale>
<asrwt>  1 0.30609634E+02</asrwt>
<pdfrwt beam="1">  1        1 0.82086536E+00 0.30000000E+03</pdfrwt>
<pdfrwt beam="2">0</pdfrwt>
<totfact> 0.72912279E-04</totfact>
</mgrwt>
<clustering>
<clus scale="   30.610">  1  6  2 -1</clus>
<clus scale="  456.196">  4  5 -1 -1</clus>
<clus scale="  300.000">  1  4  2 -1</clus>
</clustering>
</event>
<event>
 6    1  0.9480355E-012  0.3000000E+03  0.7818608E-02  0.1093470E+00
          1   -1    0    0  502    0  0.00000000000E+00  0.00000000000E+00  0.22098557985E+03  0.22098557985E+03  0.00000000000E+00 0.  1.
         13   -1    0    0    0    0 -0.00000000000E+00 -0.00000000000E+00 -0.27500000000E+03  0.27500000000E+03  0.00000000000E+00 0.  1.
    9000005    2    1    2  501    0 -0.11523048677E+02  0.31235045018E+02 -0.42200372123E+02  0.46065881353E+03  0.45751203524E+03 0.  0.
         13    1    3    3    0    0 -0.10911104054E+03 -0.35574497692E+02 -0.21940853166E+03  0.24761031445E+03  0.00000000000E+00 0.  1.
          1    1    3    3  501    0  0.97587991860E+02  0.66809542710E+02  0.17720815954E+03  0.21304849908E+03  0.00000000000E+00 0.  1.
         21    1    1    2  502  501  0.11523048677E+02 -0.31235045018E+02 -0.11814048026E+02  0.35326766323E+02  0.00000000000E+00 0. -1.
<scales pt_clust_4="550.00000" pt_clust_5="550.00000" pt_clust_6="33.29279"></scales>
<mgrwt>
<rscale>  0 0.30000000E+03</rscale>
<asrwt>  1 0.33292789E+02</asrwt>
<pdfrwt beam="1">  1        1 0.80358393E+00 0.30000000E+03</pdfrwt>
<pdfrwt beam="2">0</pdfrwt>
<totfact> 0.98569392E-04</totfact>
</mgrwt>
<clustering>
<clus scale="   33.293">  1  6  2 -1</clus>
<clus scale="  457.512">  4  5 -1 -1</clus>
<clus scale="  300.000">  1  4  2 -1</clus>
</clustering>
</event>
<event>
 6    1  0.9480355E-012  0.3000000E+03  0.7818608E-02  0.1093470E+00
          1   -1    0    0  502    0  0.00000000000E+00  0.00000000000E+00  0.23318660185E+03  0.23318660185E+03  0.00000000000E+00 0.  1.
         13   -1    0    0    0    0 -0.00000000000E+00 -0.00000000000E+00 -0.27500000000E+03  0.27500000000E+03  0.00000000000E+00 0.  1.
    9000005    2    1    2  501    0 -0.32053228956E+02 -0.18642880103E+02 -0.61937043656E+02  0.46599741398E+03  0.46037205171E+03 0.  0.
         13    1    3    3    0    0 -0.16754477651E+03 -0.18330201689E+03 -0.41529140988E+02  0.25178473163E+03  0.00000000000E+00 0.  1.
          3    1    3    3  501    0  0.13549154755E+03  0.16465913679E+03 -0.20407902668E+02  0.21421268235E+03  0.00000000000E+00 0.  1.
         21    1    1    2  502  501  0.32053228956E+02  0.18642880103E+02  0.20123645509E+02  0.42189187875E+02  0.00000000000E+00 0.  1.
<scales pt_clust_4="550.00000" pt_clust_5="550.00000" pt_clust_6="37.08054"></scales>
<mgrwt>
<rscale>  0 0.30000000E+03</rscale>
<asrwt>  1 0.37080540E+02</asrwt>
<pdfrwt beam="1">  1        1 0.84795128E+00 0.30000000E+03</pdfrwt>
<pdfrwt beam="2">0</pdfrwt>
<totfact> 0.42062886E-04</totfact>
</mgrwt>
<clustering>
<clus scale="   37.081">  1  6  2 -1</clus>
<clus scale="  460.372">  4  5 -1 -1</clus>
<clus scale="  300.000">  1  4  2 -1</clus>
</clustering>
</event>
<event>
 6    1  0.9480355E-012  0.3000000E+03  0.7818608E-02  0.1093470E+00
          1   -1    0    0  502    0  0.00000000000E+00  0.00000000000E+00  0.22995250651E+03  0.22995250651E+03  0.00000000000E+00 0.  1.
         13   -1    0    0    0    0 -0.00000000000E+00 -0.00000000000E+00 -0.27500000000E+03  0.27500000000E+03  0.00000000000E+00 0.  1.
    9000005    2    1    2  501    0  0.25731078648E+02 -0.17290339675E+02 -0.42306914245E+02  0.47383088976E+03  0.47091909374E+03 0.  0.
         13    1    3    3    0    0 -0.29801770143E+02 -0.23592140141E+03 -0.66616946470E+02  0.24695115044E+03  0.00000000000E+00 0.  1.
          1    1    3    3  501    0  0.55532848791E+02  0.21863106173E+03  0.24310032224E+02  0.22687973933E+03  0.00000000000E+00 0.  1.
         21    1    1    2  502  501 -0.25731078648E+02  0.17290339675E+02 -0.27405792417E+01  0.31121616748E+02  0.00000000000E+00 0.  1.
<scales pt_clust_4="550.00000" pt_clust_5="550.00000" pt_clust_6="31.00071"></scales>
<mgrwt>
<rscale>  0 0.30000000E+03</rscale>
<asrwt>  1 0.31000714E+02</asrwt>
<pdfrwt beam="1">  1        1 0.83619093E+00 0.30000000E+03</pdfrwt>
<pdfrwt beam="2">0</pdfrwt>
<totfact> 0.54262456E-04</totfact>
</mgrwt>
<clustering>
<clus scale="   31.001">  1  6  2 -1</clus>
<clus scale="  470.919">  4  5 -1 -1</clus>
<clus scale="  300.000">  1  4  2 -1</clus>
</clustering>
</event>
<event>
 6    1  0.9480355E-012  0.3000000E+03  0.7818608E-02  0.1093470E+00
          1   -1    0    0  502    0  0.00000000000E+00  0.00000000000E+00  0.24439323388E+03  0.24439323388E+03  0.00000000000E+00 0.  1.
         13   -1    0    0    0    0 -0.00000000000E+00 -0.00000000000E+00 -0.27500000000E+03  0.27500000000E+03  0.00000000000E+00 0.  1.
    9000005    2    1    2  501    0 -0.18804396601E+02 -0.29630479746E+02 -0.54162895087E+02  0.47712667649E+03  0.47274165837E+03 0.  0.
         13    1    3    3    0    0 -0.17354868667E+02  0.22111373083E+03 -0.65029204394E+01  0.22188907454E+03  0.00000000000E+00 0.  1.
          3    1    3    3  501    0 -0.14495279343E+01 -0.25074421057E+03 -0.47659974648E+02  0.25523760195E+03  0.00000000000E+00 0.  1.
         21    1    1    2  502  501  0.18804396601E+02  0.29630479746E+02  0.23556128971E+02  0.42266557390E+02  0.00000000000E+00 0.  1.
<scales pt_clust_4="550.00000" pt_clust_5="550.00000" pt_clust_6="35.09374"></scales>
<mgrwt>
<rscale>  0 0.30000000E+03</rscale>
<asrwt>  1 0.35093741E+02</asrwt>
<pdfrwt beam="1">  1        1 0.88870267E+00 0.30000000E+03</pdfrwt>
<pdfrwt beam="2">0</pdfrwt>
<totfact> 0.15083900E-04</totfact>
</mgrwt>
<clustering>
<clus scale="   35.094">  1  6  2 -1</clus>
<clus scale="  472.742">  4  5 -1 -1</clus>
<clus scale="  300.000">  1  4  2 -1</clus>
</clustering>
</event>
<event>
 6    1  0.9480355E-012  0.3000000E+03  0.7818608E-02  0.1093470E+00
          1   -1    0    0  502    0  0.00000000000E+00  0.00000000000E+00  0.22704991327E+03  0.22704991327E+03  0.00000000000E+00 0.  1.
         13   -1    0    0    0    0 -0.00000000000E+00 -0.00000000000E+00 -0.27500000000E+03  0.27500000000E+03  0.00000000000E+00 0.  1.
    9000005    2    1    2  501    0 -0.25052732395E+02 -0.28128705214E+02 -0.47664588265E+02  0.46438102735E+03  0.46039001089E+03 0.  0.
         13    1    3    3    0    0  0.87753282189E+02  0.39791746916E+01 -0.23077521191E+03  0.24692847304E+03  0.00000000000E+00 0.  1.
          1    1    3    3  501    0 -0.11280601458E+03 -0.32107879906E+02  0.18311062365E+03  0.21745255430E+03  0.00000000000E+00 0.  1.
         21    1    1    2  502  501  0.25052732395E+02  0.28128705214E+02 -0.28549846427E+00  0.37668885926E+02  0.00000000000E+00 0.  1.
<scales pt_clust_4="550.00000" pt_clust_5="550.00000" pt_clust_6="37.66780"></scales>
<mgrwt>
<rscale>  0 0.30000000E+03</rscale>
<asrwt>  1 0.37667804E+02</asrwt>
<pdfrwt beam="1">  1        1 0.82563605E+00 0.30000000E+03</pdfrwt>
<pdfrwt beam="2">0</pdfrwt>
<totfact> 0.63596019E-04</totfact>
</mgrwt>
<clustering>
<clus scale="   37.668">  1  6  2 -1</clus>
<clus scale="  460.390">  4  5 -1 -1</clus>
<clus scale="  300.000">  1  4  2 -1</clus>
</clustering>
</event>
<event>
 6    1  0.9480355E-012  0.3000000E+03  0.7818608E-02  0.1093470E+00
          1   -1    0    0  502    0  0.00000000000E+00  0.00000000000E+00  0.24647258940E+03  0.24647258940E+03  0.00000000000E+00 0.  1.
         13   -1    0    0    0    0 -0.00000000000E+00 -0.00000000000E+00 -0.27500000000E+03  0.27500000000E+03  0.00000000000E+00 0.  1.
    9000005    2    1    2  501    0 -0.35669685669E+02  0.84151579256E-01 -0.47128539990E+02  0.48124404764E+03  0.47760067060E+03 0.  0.
         13    1    3    3    0    0  0.19480354691E+03  0.10949142260E+03 -0.31082002348E+02  0.22561667576E+03  0.00000000000E+00 0.  1.
          3    1    3    3  501    0 -0.23047323258E+03 -0.10940727102E+03 -0.16046537642E+02  0.25562737188E+03  0.00000000000E+00 0.  1.
         21    1    1    2  502  501  0.35669685669E+02 -0.84151579256E-01  0.18601129390E+02  0.40228541756E+02  0.00000000000E+00 0. -1.
<scales pt_clust_4="550.00000" pt_clust_5="550.00000" pt_clust_6="35.66978"></scales>
<mgrwt>
<rscale>  0 0.30000000E+03</rscale>
<asrwt>  1 0.35669785E+02</asrwt>
<pdfrwt beam="1">  1        1 0.89626396E+00 0.30000000E+03</pdfrwt>
<pdfrwt beam="2">0</pdfrwt>
<totfact> 0.12163078E-04</totfact>
</mgrwt>
<clustering>
<clus scale="   35.670">  1  6  2 -1</clus>
<clus scale="  477.601">  4  5 -1 -1</clus>
<clus scale="  300.000">  1  4  2 -1</clus>
</clustering>
</event>
<event>
 6    1  0.9480355E-012  0.3000000E+03  0.7818608E-02  0.1093470E+00
          1   -1    0    0  502    0  0.00000000000E+00  0.00000000000E+00  0.22099656577E+03  0.22099656577E+03  0.00000000000E+00 0.  1.
         13   -1    0    0    0    0 -0.00000000000E+00 -0.00000000000E+00 -0.27500000000E+03  0.27500000000E+03  0.00000000000E+00 0.  1.
    9000005    2    1    2  501    0 -0.20202601382E+02 -0.23745886189E+02 -0.48909062018E+02  0.46440598424E+03  0.46076980113E+03 0.  0.
         13    1    3    3    0    0  0.12143101039E+03 -0.19086295855E+03  0.36767466782E+02  0.22918552713E+03  0.00000000000E+00 0.  1.
          1    1    3    3  501    0 -0.14163361177E+03  0.16711707236E+03 -0.85676528800E+02  0.23522045711E+03  0.00000000000E+00 0.  1.
         21    1    1    2  502  501  0.20202601382E+02  0.23745886189E+02 -0.50943722088E+01  0.31590581535E+02  0.00000000000E+00 0.  1.
<scales pt_clust_4="550.00000" pt_clust_5="550.00000" pt_clust_6="31.17713"></scales>
<mgrwt>
<rscale>  0 0.30000000E+03</rscale>
<asrwt>  1 0.31177126E+02</asrwt>
<pdfrwt beam="1">  1        1 0.80362388E+00 0.30000000E+03</pdfrwt>
<pdfrwt beam="2">0</pdfrwt>
<totfact> 0.99738443E-04</totfact>
</mgrwt>
<clustering>
<clus scale="   31.177">  1  6  2 -1</clus>
<clus scale="  460.770">  4  5 -1 -1</clus>
<clus scale="  300.000">  1  4  2 -1</clus>
</clustering>
</event>
<event>
 6    1  0.9480355E-012  0.3000000E+03  0.7818608E-02  0.1093470E+00
          1   -1    0    0  502    0  0.00000000000E+00  0.00000000000E+00  0.24228807259E+03  0.24228807259E+03  0.00000000000E+00 0.  1.
         13   -1    0    0    0    0 -0.00000000000E+00 -0.00000000000E+00 -0.27500000000E+03  0.27500000000E+03  0.00000000000E+00 0.  1.
    9000005    2    1    2  501    0  0.37421334306E+02  0.70934379653E+01 -0.57934447438E+02  0.47160603411E+03  0.46648170177E+03 0.  0.
         13    1    3    3    0    0  0.10446780470E+03 -0.17033641672E+03  0.10122882653E+03  0.22399842053E+03  0.00000000000E+00 0.  1.
          3    1    3    3  501    0 -0.67046470395E+02  0.17742985468E+03 -0.15916327396E+03  0.24760761358E+03  0.00000000000E+00 0.  1.
         21    1    1    2  502  501 -0.37421334306E+02 -0.70934379653E+01  0.25222520032E+02  0.45682038485E+02  0.00000000000E+00 0.  1.
<scales pt_clust_4="550.00000" pt_clust_5="550.00000" pt_clust_6="38.08770"></scales>
<mgrwt>
<rscale>  0 0.30000000E+03</rscale>
<asrwt>  1 0.38087703E+02</asrwt>
<pdfrwt beam="1">  1        1 0.88104754E+00 0.30000000E+03</pdfrwt>
<pdfrwt beam="2">0</pdfrwt>
<totfact> 0.18852343E-04</totfact>
</mgrwt>
<clustering>
<clus scale="   38.088">  1  6  2 -1</clus>
<clus scale="  466.482">  4  5 -1 -1</clus>
<clus scale="  300.000">  1  4  2 -1</clus>
</clustering>
</event>
<event>
 6    1  0.9480355E-012  0.3000000E+03  0.7818608E-02  0.1093470E+00
          1   -1    0    0  502    0  0.00000000000E+00  0.00000000000E+00  0.24152251885E+03  0.24152251885E+03  0.00000000000E+00 0.  1.
         13   -1    0    0    0    0 -0.00000000000E+00 -0.00000000000E+00 -0.27500000000E+03  0.27500000000E+03  0.00000000000E+00 0.  1.
    9000005    2    1    2  501    0  0.26116486929E+02  0.14836047889E+02 -0.61894770963E+02  0.47517373934E+03  0.47016692853E+03 0.  0.
         13    1    3    3    0    0 -0.80484710203E+02 -0.13548424231E+03 -0.19288853203E+03  0.24907780768E+03  0.00000000000E+00 0.  1.
          1    1    3    3  501    0  0.10660119713E+03  0.15032029019E+03  0.13099376107E+03  0.22609593166E+03  0.00000000000E+00 0.  1.
         21    1    1    2  502  501 -0.26116486929E+02 -0.14836047889E+02  0.28417289817E+02  0.41348779511E+02  0.00000000000E+00 0.  1.
<scales pt_clust_4="550.00000" pt_clust_5="550.00000" pt_clust_6="30.03630"></scales>
<mgrwt>
<rscale>  0 0.30000000E+03</rscale>
<asrwt>  1 0.30036298E+02</asrwt>
<pdfrwt beam="1">  1        1 0.87826370E+00 0.30000000E+03</pdfrwt>
<pdfrwt beam="2">0</pdfrwt>
<totfact> 0.21314329E-04</totfact>
</mgrwt>
<clustering>
<clus scale="   30.036">  1  6  2 -1</clus>
<clus scale="  470.167">  4  5 -1 -1</clus>
<clus scale="  300.000">  1  4  2 -1</clus>
</clustering>
</event>
<event>
 6    1  0.9480355E-012  0.3000000E+03  0.7818608E-02  0.1093470E+00
          1   -1    0    0  502    0  0.00000000000E+00  0.00000000000E+00  0.23552763198E+03  0.23552763198E+03  0.00000000000E+00 0.  1.
         13   -1    0    0    0    0 -0.00000000000E+00 -0.00000000000E+00 -0.27500000000E+03  0.27500000000E+03  0.00000000000E+00 0.  1.
    9000005    2    1    2  501    0  0.16499027996E+02  0.25244981098E+02 -0.27583321636E+02  0.47811040787E+03  0.47636036305E+03 0.  0.
         13    1    3    3    0    0  0.20085175762E+03  0.89267153423E+02 -0.13239724296E+03  0.25659127648E+03  0.00000000000E+00 0.  1.
          3    1    3    3  501    0 -0.18435272963E+03 -0.64022172325E+02  0.10481392132E+03  0.22151913139E+03  0.00000000000E+00 0.  1.
         21    1    1    2  502  501 -0.16499027996E+02 -0.25244981098E+02 -0.11889046379E+02  0.32417224114E+02  0.00000000000E+00 0.  1.
<scales pt_clust_4="550.00000" pt_clust_5="550.00000" pt_clust_6="30.15838"></scales>
<mgrwt>
<rscale>  0 0.30000000E+03</rscale>
<asrwt>  1 0.30158380E+02</asrwt>
<pdfrwt beam="1">  1        1 0.85646412E+00 0.30000000E+03</pdfrwt>
<pdfrwt beam="2">0</pdfrwt>
<totfact> 0.36228158E-04</totfact>
</mgrwt>
<clustering>
<clus scale="   30.158">  1  6  2 -1</clus>
<clus scale="  476.360">  4  5 -1 -1</clus>
<clus scale="  300.000">  1  4  2 -1</clus>
</clustering>
</event>
<event>
 6    1  0.9480355E-012  0.3000000E+03  0.7818608E-02  0.1093470E+00
          1   -1    0    0  502    0  0.00000000000E+00  0.00000000000E+00  0.24078396643E+03  0.24078396643E+03  0.00000000000E+00 0.  1.
         13   -1    0    0    0    0 -0.00000000000E+00 -0.00000000000E+00 -0.27500000000E+03  0.27500000000E+03  0.00000000000E+00 0.  1.
    9000005    2    1    2  501    0  0.23649398195E+02  0.29406563985E+02 -0.29502400943E+02  0.47775426261E+03  0.47534692987E+03 0.  0.
         13    1    3    3    0    0 -0.16621504551E+03  0.79368681429E+02  0.12946272527E+03  0.22513868210E+03  0.00000000000E+00 0.  1.
          3    1    3    3  501    0  0.18986444370E+03 -0.49962117444E+02 -0.15896512621E+03  0.25261558050E+03  0.00000000000E+00 0.  1.
         21    1    1    2  502  501 -0.23649398195E+02 -0.29406563985E+02 -0.47136326281E+01  0.38029703824E+02  0.00000000000E+00 0.  1.
<scales pt_clust_4="550.00000" pt_clust_5="550.00000" pt_clust_6="37.73647"></scales>
<mgrwt>
<rscale>  0 0.30000000E+03</rscale>
<asrwt>  1 0.37736474E+02</asrwt>
<pdfrwt beam="1">  1        1 0.87557806E+00 0.30000000E+03</pdfrwt>
<pdfrwt beam="2">0</pdfrwt>
<totfact> 0.21868393E-04</totfact>
</mgrwt>
<clustering>
<clus scale="   37.736">  1  6  2 -1</clus>
<clus scale="  475.347">  4  5 -1 -1</clus>
<clus scale="  300.000">  1  4  2 -1</clus>
</clustering>
</event>
<event>
 6    1  0.9480355E-012  0.3000000E+03  0.7818608E-02  0.1093470E+00
          1   -1    0    0  502    0  0.00000000000E+00  0.00000000000E+00  0.23861767761E+03  0.23861767761E+03  0.00000000000E+00 0.  1.
         13   -1    0    0    0    0 -0.00000000000E+00 -0.00000000000E+00 -0.27500000000E+03  0.27500000000E+03  0.00000000000E+00 0.  1.
    9000005    2    1    2  501    0 -0.41643641732E+02  0.31872179918E+01 -0.49732612454E+02  0.46977042570E+03  0.46525967896E+03 0.  0.
         13    1    3    3    0    0 -0.17031686768E+03  0.14468892371E+03 -0.13421535541E+03  0.26068464030E+03  0.00000000000E+00 0.  1.
          1    1    3    3  501    0  0.12867322595E+03 -0.14150170572E+03  0.84482742952E+02  0.20908578540E+03  0.00000000000E+00 0.  1.
         21    1    1    2  502  501  0.41643641732E+02 -0.31872179918E+01  0.13350290066E+02  0.43847251910E+02  0.00000000000E+00 0.  1.
<scales pt_clust_4="550.00000" pt_clust_5="550.00000" pt_clust_6="41.76543"></scales>
<mgrwt>
<rscale>  0 0.30000000E+03</rscale>
<asrwt>  1 0.41765431E+02</asrwt>
<pdfrwt beam="1">  1        1 0.86770065E+00 0.30000000E+03</pdfrwt>
<pdfrwt beam="2">0</pdfrwt>
<totfact> 0.25890255E-04</totfact>
</mgrwt>
<clustering>
<clus scale="   41.765">  1  6  2 -1</clus>
<clus scale="  465.260">  4  5 -1 -1</clus>
<clus scale="  300.000">  1  4  2 -1</clus>
</clustering>
</event>
<event>
 6    1  0.9480355E-012  0.3000000E+03  0.7818608E-02  0.1093470E+00
          1   -1    0    0  502    0  0.00000000000E+00  0.00000000000E+00  0.22567966156E+03  0.22567966156E+03  0.00000000000E+00 0.  1.
         13   -1    0    0    0    0 -0.00000000000E+00 -0.00000000000E+00 -0.27500000000E+03  0.27500000000E+03  0.00000000000E+00 0.  1.
    9000005    2    1    2  501    0 -0.25390625062E+02 -0.19915869289E+02 -0.57614561233E+02  0.46736120087E+03  0.46267237731E+03 0.  0.
         13    1    3    3    0    0  0.83268752565E+02  0.31602476476E+02 -0.23598930576E+03  0.25223670254E+03  0.00000000000E+00 0.  1.
          3    1    3    3  501    0 -0.10865937763E+03 -0.51518345765E+02  0.17837474453E+03  0.21512449833E+03  0.00000000000E+00 0.  1.
         21    1    1    2  502  501  0.25390625062E+02  0.19915869289E+02  0.82942227889E+01  0.33318460682E+02  0.00000000000E+00 0. -1.
<scales pt_clust_4="550.00000" pt_clust_5="550.00000" pt_clust_6="32.26958"></scales>
<mgrwt>
<rscale>  0 0.30000000E+03</rscale>
<asrwt>  1 0.32269578E+02</asrwt>
<pdfrwt beam="1">  1        1 0.82065331E+00 0.30000000E+03</pdfrwt>
<pdfrwt beam="2">0</pdfrwt>
<totfact> 0.72489878E-04</totfact>
</mgrwt>
<clustering>
<clus scale="   32.270">  1  6  2 -1</clus>
<clus scale="  462.672">  4  5 -1 -1</clus>
<clus scale="  300.000">  1  4  2 -1</clus>
</clustering>
</event>
<event>
 6    1  0.9480355E-012  0.3000000E+03  0.7818608E-02  0.1093470E+00
          1   -1    0    0  502    0  0.00000000000E+00  0.00000000000E+00  0.24920486855E+03  0.24920486855E+03  0.00000000000E+00 0.  1.
         13   -1    0    0    0    0 -0.00000000000E+00 -0.00000000000E+00 -0.27500000000E+03  0.27500000000E+03  0.00000000000E+00 0.  1.
    9000005    2    1    2  501    0 -0.59033436543E+01  0.41597661957E+02 -0.39317377172E+02  0.48006796703E+03  0.47660694694E+03 0.  0.
         13    1    3    3    0    0 -0.12748086126E+03 -0.12248618448E+03  0.12618917876E+03  0.21720484389E+03  0.00000000000E+00 0.  1.
          1    1    3    3  501    0  0.12157751760E+03  0.16408384644E+03 -0.16550655593E+03  0.26286312313E+03  0.00000000000E+00 0.  1.
         21    1    1    2  502  501  0.59033436543E+01 -0.41597661957E+02  0.13522245723E+02  0.44136901523E+02  0.00000000000E+00 0. -1.
<scales pt_clust_4="550.00000" pt_clust_5="550.00000" pt_clust_6="42.01446"></scales>
<mgrwt>
<rscale>  0 0.30000000E+03</rscale>
<asrwt>  1 0.42014461E+02</asrwt>
<pdfrwt beam="1">  1        1 0.90619952E+00 0.30000000E+03</pdfrwt>
<pdfrwt beam="2">0</pdfrwt>
<totfact> 0.84673310E-05</totfact>
</mgrwt>
<clustering>
<clus scale="   42.014">  1  6  2 -1</clus>
<clus scale="  476.607">  4  5 -1 -1</clus>
<clus scale="  300.000">  1  4  2 -1</clus>
</clustering>
</event>
<event>
 6    1  0.9480355E-012  0.3000000E+03  0.7818608E-02  0.1093470E+00
          1   -1    0    0  502    0  0.00000000000E+00  0.00000000000E+00  0.21912952183E+03  0.21912952183E+03  0.00000000000E+00 0.  1.
         13   -1    0    0    0    0 -0.00000000000E+00 -0.00000000000E+00 -0.27500000000E+03  0.27500000000E+03  0.00000000000E+00 0.  1.
    9000005    2    1    2  501    0 -0.34133708238E-01 -0.31221092800E+02 -0.55535574603E+02  0.46290661419E+03  0.45850144560E+03 0.  0.
         13    1    3    3    0    0  0.27669004224E+02 -0.11588997558E+03  0.17729731838E+03  0.21361273216E+03  0.00000000000E+00 0.  1.
          1    1    3    3  501    0 -0.27703137933E+02  0.84668882784E+02 -0.23283289298E+03  0.24929388203E+03  0.00000000000E+00 0.  1.
         21    1    1    2  502  501  0.34133708238E-01  0.31221092800E+02 -0.33490357000E+00  0.31222907634E+02  0.00000000000E+00 0. -1.
<scales pt_clust_4="550.00000" pt_clust_5="550.00000" pt_clust_6="31.22111"></scales>
<mgrwt>
<rscale>  0 0.30000000E+03</rscale>
<asrwt>  1 0.31221111E+02</asrwt>
<pdfrwt beam="1">  1        1 0.79683462E+00 0.30000000E+03</pdfrwt>
<pdfrwt beam="2">0</pdfrwt>
<totfact> 0.11172674E-03</totfact>
</mgrwt>
<clustering>
<clus scale="   31.221">  1  6  2 -1</clus>
<clus scale="  458.501">  4  5 -1 -1</clus>
<clus scale="  300.000">  1  4  2 -1</clus>
</clustering>
</event>
<event>
 6    1  0.9480355E-012  0.3000000E+03  0.7818608E-02  0.1093470E+00
          1   -1    0    0  502    0  0.00000000000E+00  0.00000000000E+00  0.22492620208E+03  0.22492620208E+03  0.00000000000E+00 0.  1.
         13   -1    0    0    0    0 -0.00000000000E+00 -0.00000000000E+00 -0.27500000000E+03  0.27500000000E+03  0.00000000000E+00 0.  1.
    9000005    2    1    2  501    0  0.29469766609E+02  0.20790068659E+02 -0.42254684628E+02  0.46302318551E+03  0.45967849401E+03 0.  0.
         13    1    3    3    0    0 -0.91752346226E+02  0.21392684921E+03 -0.13126709507E+02  0.23314266095E+03  0.00000000000E+00 0.  1.
          1    1    3    3  501    0  0.12122211284E+03 -0.19313678055E+03 -0.29127975121E+02  0.22988052457E+03  0.00000000000E+00 0.  1.
         21    1    1    2  502  501 -0.29469766609E+02 -0.20790068659E+02 -0.78191132930E+01  0.36903016564E+02  0.00000000000E+00 0. -1.
<scales pt_clust_4="550.00000" pt_clust_5="550.00000" pt_clust_6="36.06515"></scales>
<mgrwt>
<rscale>  0 0.30000000E+03</rscale>
<asrwt>  1 0.36065155E+02</asrwt>
<pdfrwt beam="1">  1        1 0.81791346E+00 0.30000000E+03</pdfrwt>
<pdfrwt beam="2">0</pdfrwt>
<totfact> 0.74926889E-04</totfact>
</mgrwt>
<clustering>
<clus scale="   36.065">  1  6  2 -1</clus>
<clus scale="  459.678">  4  5 -1 -1</clus>
<clus scale="  300.000">  1  4  2 -1</clus>
</clustering>
</event>
<event>
 6    1  0.9480355E-012  0.3000000E+03  0.7818608E-02  0.1093470E+00
          1   -1    0    0  502    0  0.00000000000E+00  0.00000000000E+00  0.25123791599E+03  0.25123791599E+03  0.00000000000E+00 0.  1.
         13   -1    0    0    0    0 -0.00000000000E+00 -0.00000000000E+00 -0.27500000000E+03  0.27500000000E+03  0.00000000000E+00 0.  1.
    9000005    2    1    2  501    0  0.29400924427E+02 -0.76379004506E+01 -0.32312914979E+02  0.49468053031E+03  0.49268849257E+03 0.  0.
         13    1    3    3    0    0 -0.93986213227E+02  0.16736764800E+03  0.12492295690E+03  0.22902201430E+03  0.00000000000E+00 0.  1.
          3    1    3    3  501    0  0.12338713765E+03 -0.17500554845E+03 -0.15723587188E+03  0.26565851601E+03  0.00000000000E+00 0.  1.
         21    1    1    2  502  501 -0.29400924427E+02  0.76379004506E+01  0.85508309661E+01  0.31557385675E+02  0.00000000000E+00 0. -1.
<scales pt_clust_4="550.00000" pt_clust_5="550.00000" pt_clust_6="30.37683"></scales>
<mgrwt>
<rscale>  0 0.30000000E+03</rscale>
<asrwt>  1 0.30376831E+02</asrwt>
<pdfrwt beam="1">  1        1 0.91359242E+00 0.30000000E+03</pdfrwt>
<pdfrwt beam="2">0</pdfrwt>
<totfact> 0.60105387E-05</totfact>
</mgrwt>
<clustering>
<clus scale="   30.377">  1  6  2 -1</clus>
<clus scale="  492.688">  4  5 -1 -1</clus>
<clus scale="  300.000">  1  4  2 -1</clus>
</clustering>
</event>
<event>
 6    1  0.9480355E-012  0.3000000E+03  0.7818608E-02  0.1093470E+00
          1   -1    0    0  502    0  0.00000000000E+00  0.00000000000E+00  0.22662609214E+03  0.22662609214E+03  0.00000000000E+00 0.  1.
         13   -1    0    0    0    0 -0.00000000000E+00 -0.00000000000E+00 -0.27500000000E+03  0.27500000000E+03  0.00000000000E+00 0.  1.
    9000005    2    1    2  501    0 -0.34650836719E+02 -0.67197953659E+01 -0.55482143249E+02  0.46562104881E+03  0.46095428920E+03 0.  0.
         13    1    3    3    0    0 -0.10270056827E+03 -0.20372240899E+03 -0.10537982612E+03  0.25130685307E+03  0.00000000000E+00 0.  1.
          3    1    3    3  501    0  0.68049731550E+02  0.19700261362E+03  0.49897682867E+02  0.21431419574E+03  0.00000000000E+00 0.  1.
         21    1    1    2  502  501  0.34650836719E+02  0.67197953659E+01  0.71082353876E+01  0.36005043333E+02  0.00000000000E+00 0.  1.
<scales pt_clust_4="550.00000" pt_clust_5="550.00000" pt_clust_6="35.29640"></scales>
<mgrwt>
<rscale>  0 0.30000000E+03</rscale>
<asrwt>  1 0.35296404E+02</asrwt>
<pdfrwt beam="1">  1        1 0.82409488E+00 0.30000000E+03</pdfrwt>
<pdfrwt beam="2">0</pdfrwt>
<totfact> 0.66440052E-04</totfact>
</mgrwt>
<clustering>
<clus scale="   35.296">  1  6  2 -1</clus>
<clus scale="  460.954">  4  5 -1 -1</clus>
<clus scale="  300.000">  1  4  2 -1</clus>
</clustering>
</event>
<event>
 6    1  0.9480355E-012  0.3000000E+03  0.7818608E-02  0.1093470E+00
          1   -1    0    0  502    0  0.00000000000E+00  0.00000000000E+00  0.23410338012E+03  0.23410338012E+03  0.00000000000E+00 0.  1.
         13   -1    0    0    0    0 -0.00000000000E+00 -0.00000000000E+00 -0.27500000000E+03  0.27500000000E+03  0.00000000000E+00 0.  1.
    9000005    2    1    2  501    0  0.10051308272E+02  0.42923608553E+02 -0.42813061783E+02  0.46497699665E+03  0.46089823625E+03 0.  0.
         13    1    3    3    0    0 -0.22511547945E+03  0.19983713986E+02 -0.79920589370E+01  0.22614199283E+03  0.00000000000E+00 0.  1.
          3    1    3    3  501    0  0.23516678772E+03  0.22939894567E+02 -0.34821002846E+02  0.23883500382E+03  0.00000000000E+00 0.  1.
         21    1    1    2  502  501 -0.10051308272E+02 -0.42923608553E+02  0.19164419069E+01  0.44126383477E+02  0.00000000000E+00 0. -1.
<scales pt_clust_4="550.00000" pt_clust_5="550.00000" pt_clust_6="44.08475"></scales>
<mgrwt>
<rscale>  0 0.30000000E+03</rscale>
<asrwt>  1 0.44084748E+02</asrwt>
<pdfrwt beam="1">  1        1 0.85128502E+00 0.30000000E+03</pdfrwt>
<pdfrwt beam="2">0</pdfrwt>
<totfact> 0.37939109E-04</totfact>
</mgrwt>
<clustering>
<clus scale="   44.085">  1  6  2 -1</clus>
<clus scale="  460.898">  4  5 -1 -1</clus>
<clus scale="  300.000">  1  4  2 -1</clus>
</clustering>
</event>
<event>
 6    1  0.9480355E-012  0.3000000E+03  0.7818608E-02  0.1093470E+00
          1   -1    0    0  502    0  0.00000000000E+00  0.00000000000E+00  0.21974828858E+03  0.21974828858E+03  0.00000000000E+00 0.  1.
         13   -1    0    0    0    0 -0.00000000000E+00 -0.00000000000E+00 -0.27500000000E+03  0.27500000000E+03  0.00000000000E+00 0.  1.
    9000005    2    1    2  501    0 -0.28880459508E+02  0.11146110005E+02 -0.62127157033E+02  0.46303727374E+03  0.45780499836E+03 0.  0.
         13    1    3    3    0    0 -0.14706233658E+03  0.34941791174E+02  0.15385770338E+03  0.21568600441E+03  0.00000000000E+00 0.  1.
          3    1    3    3  501    0  0.11818187707E+03 -0.23795681170E+02 -0.21598486041E+03  0.24735126933E+03  0.00000000000E+00 0.  1.
         21    1    1    2  502  501  0.28880459508E+02 -0.11146110005E+02  0.68754456125E+01  0.31711014837E+02  0.00000000000E+00 0.  1.
<scales pt_clust_4="550.00000" pt_clust_5="550.00000" pt_clust_6="30.95669"></scales>
<mgrwt>
<rscale>  0 0.30000000E+03</rscale>
<asrwt>  1 0.30956691E+02</asrwt>
<pdfrwt beam="1">  1        1 0.79908469E+00 0.30000000E+03</pdfrwt>
<pdfrwt beam="2">0</pdfrwt>
<totfact> 0.10776963E-03</totfact>
</mgrwt>
<clustering>
<clus scale="   30.957">  1  6  2 -1</clus>
<clus scale="  457.805">  4  5 -1 -1</clus>
<clus scale="  300.000">  1  4  2 -1</clus>
</clustering>
</event>
<event>
 6    1  0.9480355E-012  0.3000000E+03  0.7818608E-02  0.1093470E+00
          1   -1    0    0  502    0  0.00000000000E+00  0.00000000000E+00  0.23828767083E+03  0.23828767083E+03  0.00000000000E+00 0.  1.
         13   -1    0    0    0    0 -0.00000000000E+00 -0.00000000000E+00 -0.27500000000E+03  0.27500000000E+03  0.00000000000E+00 0.  1.
    9000005    2    1    2  501    0  0.35111858050E+02 -0.13663796151E+02 -0.51745712699E+02  0.47272235903E+03  0.46836873086E+03 0.  0.
         13    1    3    3    0    0  0.18253928780E+03  0.15951594578E+03 -0.29419666144E+02  0.24419550631E+03  0.00000000000E+00 0.  1.
          1    1    3    3  501    0 -0.14742742975E+03 -0.17317974193E+03 -0.22326046554E+02  0.22852685272E+03  0.00000000000E+00 0.  1.
         21    1    1    2  502  501 -0.35111858050E+02  0.13663796151E+02  0.15033383528E+02  0.40565311798E+02  0.00000000000E+00 0.  1.
<scales pt_clust_4="550.00000" pt_clust_5="550.00000" pt_clust_6="37.67681"></scales>
<mgrwt>
<rscale>  0 0.30000000E+03</rscale>
<asrwt>  1 0.37676809E+02</asrwt>
<pdfrwt beam="1">  1        1 0.86650062E+00 0.30000000E+03</pdfrwt>
<pdfrwt beam="2">0</pdfrwt>
<totfact> 0.27159518E-04</totfact>
</mgrwt>
<clustering>
<clus scale="   37.677">  1  6  2 -1</clus>
<clus scale="  468.369">  4  5 -1 -1</clus>
<clus scale="  300.000">  1  4  2 -1</clus>
</clustering>
</event>
<event>
 6    1  0.9480355E-012  0.3000000E+03  0.7818608E-02  0.1093470E+00
          1   -1    0    0  502    0  0.00000000000E+00  0.00000000000E+00  0.24024083092E+03  0.24024083092E+03  0.00000000000E+00 0.  1.
         13   -1    0    0    0    0 -0.00000000000E+00 -0.00000000000E+00 -0.27500000000E+03  0.27500000000E+03  0.00000000000E+00 0.  1.
    9000005    2    1    2  501    0  0.78968673804E+01 -0.33336623073E+02 -0.59334857928E+02  0.47307857962E+03  0.46809083112E+03 0.  0.
         13    1    3    3    0    0  0.46977860399E+01  0.12473310296E+03  0.15985706579E+03  0.20281690672E+03  0.00000000000E+00 0.  1.
          1    1    3    3  501    0  0.31990813405E+01 -0.15806972604E+03 -0.21919192372E+03  0.27026167289E+03  0.00000000000E+00 0.  1.
         21    1    1    2  502  501 -0.78968673804E+01  0.33336623073E+02  0.24575688844E+02  0.42162251297E+02  0.00000000000E+00 0. -1.
<scales pt_clust_4="550.00000" pt_clust_5="550.00000" pt_clust_6="34.25917"></scales>
<mgrwt>
<rscale>  0 0.30000000E+03</rscale>
<asrwt>  1 0.34259173E+02</asrwt>
<pdfrwt beam="1">  1        1 0.87360302E+00 0.30000000E+03</pdfrwt>
<pdfrwt beam="2">0</pdfrwt>
<totfact> 0.23355723E-04</totfact>
</mgrwt>
<clustering>
<clus scale="   34.259">  1  6  2 -1</clus>
<clus scale="  468.091">  4  5 -1 -1</clus>
<clus scale="  300.000">  1  4  2 -1</clus>
</clustering>
</event>
<event>
 6    1  0.9480355E-012  0.3000000E+03  0.7818608E-02  0.1093470E+00
          1   -1    0    0  502    0  0.00000000000E+00  0.00000000000E+00  0.22994871513E+03  0.22994871513E+03  0.00000000000E+00 0.  1.
         13   -1    0    0    0    0 -0.00000000000E+00 -0.00000000000E+00 -0.27500000000E+03  0.27500000000E+03  0.00000000000E+00 0.  1.
    9000005    2    1    2  501    0  0.29012831419E+02 -0.82180386107E+01 -0.64253263358E+02  0.46919963789E+03  0.46380010543E+03 0.  0.
         13    1    3    3    0    0 -0.17445473978E+03 -0.91768386963E+02 -0.13411548073E+03  0.23841739712E+03  0.00000000000E+00 0.  1.
          1    1    3    3  501    0  0.20346757120E+03  0.83550348352E+02  0.69862217368E+02  0.23078224077E+03  0.00000000000E+00 0.  1.
         21    1    1    2  502  501 -0.29012831419E+02  0.82180386107E+01  0.19201978487E+02  0.35749077238E+02  0.00000000000E+00 0.  1.
<scales pt_clust_4="550.00000" pt_clust_5="550.00000" pt_clust_6="30.15428"></scales>
<mgrwt>
<rscale>  0 0.30000000E+03</rscale>
<asrwt>  1 0.30154279E+02</asrwt>
<pdfrwt beam="1">  1        1 0.83617715E+00 0.30000000E+03</pdfrwt>
<pdfrwt beam="2">0</pdfrwt>
<totfact> 0.54564149E-04</totfact>
</mgrwt>
<clustering>
<clus scale="   30.154">  1  6  2 -1</clus>
<clus scale="  463.800">  4  5 -1 -1</clus>
<clus scale="  300.000">  1  4  2 -1</clus>
</clustering>
</event>
<event>
 6    1  0.9480355E-012  0.3000000E+03  0.7818608E-02  0.1093470E+00
          1   -1    0    0  502    0  0.00000000000E+00  0.00000000000E+00  0.24927351492E+03  0.24927351492E+03  0.00000000000E+00 0.  1.
         13   -1    0    0    0    0 -0.00000000000E+00 -0.00000000000E+00 -0.27500000000E+03  0.27500000000E+03  0.00000000000E+00 0.  1.
    9000005    2    1    2  501    0  0.83083273822E+01  0.39900825751E+02 -0.37958710637E+02  0.48172082356E+03  0.47849031750E+03 0.  0.
         13    1    3    3    0    0 -0.17775872931E+03  0.36288597618E+01 -0.17370129731E+03  0.24856281933E+03  0.00000000000E+00 0.  1.
          1    1    3    3  501    0  0.18606705669E+03  0.36271965990E+02  0.13574258667E+03  0.23315800423E+03  0.00000000000E+00 0.  1.
         21    1    1    2  502  501 -0.83083273822E+01 -0.39900825751E+02  0.12232225554E+02  0.42552691355E+02  0.00000000000E+00 0. -1.
<scales pt_clust_4="550.00000" pt_clust_5="550.00000" pt_clust_6="40.75665"></scales>
<mgrwt>
<rscale>  0 0.30000000E+03</rscale>
<asrwt>  1 0.40756646E+02</asrwt>
<pdfrwt beam="1">  1        1 0.90644915E+00 0.30000000E+03</pdfrwt>
<pdfrwt beam="2">0</pdfrwt>
<totfact> 0.84136715E-05</totfact>
</mgrwt>
<clustering>
<clus scale="   40.757">  1  6  2 -1</clus>
<clus scale="  478.490">  4  5 -1 -1</clus>
<clus scale="  300.000">  1  4  2 -1</clus>
</clustering>
</event>
<event>
 6    1  0.9480355E-012  0.3000000E+03  0.7818608E-02  0.1093470E+00
          1   -1    0    0  502    0  0.00000000000E+00  0.00000000000E+00  0.25206205427E+03  0.25206205427E+03  0.00000000000E+00 0.  1.
         13   -1    0    0    0    0 -0.00000000000E+00 -0.00000000000E+00 -0.27500000000E+03  0.27500000000E+03  0.00000000000E+00 0.  1.
    9000005    2    1    2  501    0 -0.38004213609E+02 -0.10970435239E+02 -0.50813065235E+02  0.47867101183E+03  0.47431982803E+03 0.  0.
         13    1    3    3    0    0  0.28571650200E+02  0.10384991275E+02  0.20818951512E+03  0.21039738935E+03  0.00000000000E+00 0.  1.
          3    1    3    3  501    0 -0.66575863809E+02 -0.21355426514E+02 -0.25900258036E+03  0.26827362247E+03  0.00000000000E+00 0.  1.
         21    1    1    2  502  501  0.38004213609E+02  0.10970435239E+02  0.27875119503E+02  0.48391042443E+02  0.00000000000E+00 0. -1.
<scales pt_clust_4="550.00000" pt_clust_5="550.00000" pt_clust_6="39.55592"></scales>
<mgrwt>
<rscale>  0 0.30000000E+03</rscale>
<asrwt>  1 0.39555919E+02</asrwt>
<pdfrwt beam="1">  1        1 0.91658929E+00 0.30000000E+03</pdfrwt>
<pdfrwt beam="2">0</pdfrwt>
<totfact> 0.48661407E-05</totfact>
</mgrwt>
<clustering>
<clus scale="   39.556">  1  6  2 -1</clus>
<clus scale="  474.320">  4  5 -1 -1</clus>
<clus scale="  300.000">  1  4  2 -1</clus>
</clustering>
</event>
<event>
 6    1  0.9480355E-012  0.3000000E+03  0.7818608E-02  0.1093470E+00
          1   -1    0    0  502    0  0.00000000000E+00  0.00000000000E+00  0.23284796558E+03  0.23284796558E+03  0.00000000000E+00 0.  1.
         13   -1    0    0    0    0 -0.00000000000E+00 -0.00000000000E+00 -0.27500000000E+03  0.27500000000E+03  0.00000000000E+00 0.  1.
    9000005    2    1    2  501    0  0.28034370017E+02  0.22054699923E+02 -0.55543727163E+02  0.46974713717E+03  0.46508593998E+03 0.  0.
         13    1    3    3    0    0 -0.14784290107E+03  0.17347649974E+03 -0.66427528436E+02  0.23741153277E+03  0.00000000000E+00 0.  1.
          1    1    3    3  501    0  0.17587727109E+03 -0.15142179981E+03  0.10883801273E+02  0.23233560440E+03  0.00000000000E+00 0.  1.
         21    1    1    2  502  501 -0.28034370017E+02 -0.22054699923E+02  0.13391692747E+02  0.38100828411E+02  0.00000000000E+00 0. -1.
<scales pt_clust_4="550.00000" pt_clust_5="550.00000" pt_clust_6="35.66981"></scales>
<mgrwt>
<rscale>  0 0.30000000E+03</rscale>
<asrwt>  1 0.35669815E+02</asrwt>
<pdfrwt beam="1">  1        1 0.84671987E+00 0.30000000E+03</pdfrwt>
<pdfrwt beam="2">0</pdfrwt>
<totfact> 0.43470127E-04</totfact>
</mgrwt>
<clustering>
<clus scale="   35.670">  1  6  2 -1</clus>
<clus scale="  465.086">  4  5 -1 -1</clus>
<clus scale="  300.000">  1  4  2 -1</clus>
</clustering>
</event>
<event>
 6    1  0.9480355E-012  0.3000000E+03  0.7818608E-02  0.1093470E+00
          1   -1    0    0  502    0  0.00000000000E+00  0.00000000000E+00  0.24474406517E+03  0.24474406517E+03  0.00000000000E+00 0.  1.
         13   -1    0    0    0    0 -0.00000000000E+00 -0.00000000000E+00 -0.27500000000E+03  0.27500000000E+03  0.00000000000E+00 0.  1.
    9000005    2    1    2  501    0  0.47167990759E+02 -0.79950325868E+01 -0.30950241822E+02  0.47189825072E+03  0.46844562295E+03 0.  0.
         13    1    3    3    0    0  0.47626081564E+02 -0.14797587037E+03  0.16783908314E+03  0.22876857233E+03  0.00000000000E+00 0.  1.
          3    1    3    3  501    0 -0.45809080436E+00  0.13998083778E+03 -0.19878932496E+03  0.24312967839E+03  0.00000000000E+00 0.  1.
         21    1    1    2  502  501 -0.47167990759E+02  0.79950325868E+01  0.69430698893E+00  0.47845814451E+02  0.00000000000E+00 0.  1.
<scales pt_clust_4="550.00000" pt_clust_5="550.00000" pt_clust_6="47.84078"></scales>
<mgrwt>
<rscale>  0 0.30000000E+03</rscale>
<asrwt>  1 0.47840777E+02</asrwt>
<pdfrwt beam="1">  1        1 0.88997842E+00 0.30000000E+03</pdfrwt>
<pdfrwt beam="2">0</pdfrwt>
<totfact> 0.13704071E-04</totfact>
</mgrwt>
<clustering>
<clus scale="   47.841">  1  6  2 -1</clus>
<clus scale="  468.446">  4  5 -1 -1</clus>
<clus scale="  300.000">  1  4  2 -1</clus>
</clustering>
</event>
<event>
 6    1  0.9480355E-012  0.3000000E+03  0.7818608E-02  0.1093470E+00
          1   -1    0    0  502    0  0.00000000000E+00  0.00000000000E+00  0.22362132285E+03  0.22362132285E+03  0.00000000000E+00 0.  1.
         13   -1    0    0    0    0 -0.00000000000E+00 -0.00000000000E+00 -0.27500000000E+03  0.27500000000E+03  0.00000000000E+00 0.  1.
    9000005    2    1    2  501    0  0.24847742346E+02  0.17972055165E+02 -0.59116093920E+02  0.46699423502E+03  0.46222126510E+03 0.  0.
         13    1    3    3    0    0 -0.47280469170E+02 -0.13771266209E+02  0.19490515219E+03  0.20103011935E+03  0.00000000000E+00 0.  1.
          1    1    3    3  501    0  0.72128211516E+02  0.31743321374E+02 -0.25402124611E+03  0.26596411567E+03  0.00000000000E+00 0.  1.
         21    1    1    2  502  501 -0.24847742346E+02 -0.17972055165E+02  0.77374167722E+01  0.31627087834E+02  0.00000000000E+00 0.  1.
<scales pt_clust_4="550.00000" pt_clust_5="550.00000" pt_clust_6="30.66602"></scales>
<mgrwt>
<rscale>  0 0.30000000E+03</rscale>
<asrwt>  1 0.30666025E+02</asrwt>
<pdfrwt beam="1">  1        1 0.81316845E+00 0.30000000E+03</pdfrwt>
<pdfrwt beam="2">0</pdfrwt>
<totfact> 0.84430907E-04</totfact>
</mgrwt>
<clustering>
<clus scale="   30.666">  1  6  2 -1</clus>
<clus scale="  462.221">  4  5 -1 -1</clus>
<clus scale="  300.000">  1  4  2 -1</clus>
</clustering>
</event>
<event>
 6    1  0.9480355E-012  0.3000000E+03  0.7818608E-02  0.1093470E+00
          1   -1    0    0  502    0  0.00000000000E+00  0.00000000000E+00  0.23751870251E+03  0.23751870251E+03  0.00000000000E+00 0.  1.
         13   -1    0    0    0    0 -0.00000000000E+00 -0.00000000000E+00 -0.27500000000E+03  0.27500000000E+03  0.00000000000E+00 0.  1.
    9000005    2    1    2  501    0 -0.70808760229E+01  0.34104603355E+02 -0.51916208706E+02  0.47481420096E+03  0.47068032669E+03 0.  0.
         13    1    3    3    0    0  0.14466239730E+03  0.60148067598E+01 -0.20923199607E+03  0.25444334394E+03  0.00000000000E+00 0.  1.
          1    1    3    3  501    0 -0.15174327332E+03  0.28089796595E+02  0.15731578737E+03  0.22037085703E+03  0.00000000000E+00 0.  1.
         21    1    1    2  502  501  0.70808760229E+01 -0.34104603355E+02  0.14434911221E+02  0.37704501551E+02  0.00000000000E+00 0. -1.
<scales pt_clust_4="550.00000" pt_clust_5="550.00000" pt_clust_6="34.83192"></scales>
<mgrwt>
<rscale>  0 0.30000000E+03</rscale>
<asrwt>  1 0.34831922E+02</asrwt>
<pdfrwt beam="1">  1        1 0.86370437E+00 0.30000000E+03</pdfrwt>
<pdfrwt beam="2">0</pdfrwt>
<totfact> 0.29531766E-04</totfact>
</mgrwt>
<clustering>
<clus scale="   34.832">  1  6  2 -1</clus>
<clus scale="  470.680">  4  5 -1 -1</clus>
<clus scale="  300.000">  1  4  2 -1</clus>
</clustering>
</event>
<event>
 6    1  0.9480355E-012  0.3000000E+03  0.7818608E-02  0.1093470E+00
          1   -1    0    0  502    0  0.00000000000E+00  0.00000000000E+00  0.22274024239E+03  0.22274024239E+03  0.00000000000E+00 0.  1.
         13   -1    0    0    0    0 -0.00000000000E+00 -0.00000000000E+00 -0.27500000000E+03  0.27500000000E+03  0.00000000000E+00 0.  1.
    9000005    2    1    2  501    0  0.14492776835E+02 -0.27655015879E+02 -0.44904066347E+02  0.46566304367E+03  0.46244010918E+03 0.  0.
         13    1    3    3    0    0 -0.14524532981E+03 -0.11366051963E+03 -0.16551395570E+03  0.24780998585E+03  0.00000000000E+00 0.  1.
          3    1    3    3  501    0  0.15973810665E+03  0.86005503751E+02  0.12060988935E+03  0.21785305782E+03  0.00000000000E+00 0.  1.
         21    1    1    2  502  501 -0.14492776835E+02  0.27655015879E+02 -0.73556912673E+01  0.32077198720E+02  0.00000000000E+00 0.  1.
<scales pt_clust_4="550.00000" pt_clust_5="550.00000" pt_clust_6="31.22245"></scales>
<mgrwt>
<rscale>  0 0.30000000E+03</rscale>
<asrwt>  1 0.31222451E+02</asrwt>
<pdfrwt beam="1">  1        1 0.80996452E+00 0.30000000E+03</pdfrwt>
<pdfrwt beam="2">0</pdfrwt>
<totfact> 0.89174831E-04</totfact>
</mgrwt>
<clustering>
<clus scale="   31.222">  1  6  2 -1</clus>
<clus scale="  462.440">  4  5 -1 -1</clus>
<clus scale="  300.000">  1  4  2 -1</clus>
</clustering>
</event>
<event>
 6    1  0.9480355E-012  0.3000000E+03  0.7818608E-02  0.1093470E+00
          1   -1    0    0  502    0  0.00000000000E+00  0.00000000000E+00  0.22737091021E+03  0.22737091021E+03  0.00000000000E+00 0.  1.
         13   -1    0    0    0    0 -0.00000000000E+00 -0.00000000000E+00 -0.27500000000E+03  0.27500000000E+03  0.00000000000E+00 0.  1.
    9000005    2    1    2  501    0 -0.15589844363E+01 -0.33975380537E+02 -0.67326576848E+02  0.46306762903E+03  0.45688292175E+03 0.  0.
         13    1    3    3    0    0 -0.14582815740E+03 -0.12240918972E+03 -0.17818814710E+03  0.26076977775E+03  0.00000000000E+00 0.  1.
          3    1    3    3  501    0  0.14426917297E+03  0.88433809183E+02  0.11086157025E+03  0.20229785128E+03  0.00000000000E+00 0.  1.
         21    1    1    2  502  501  0.15589844363E+01  0.33975380537E+02  0.19697487058E+02  0.39303281180E+02  0.00000000000E+00 0.  1.
<scales pt_clust_4="550.00000" pt_clust_5="550.00000" pt_clust_6="34.01113"></scales>
<mgrwt>
<rscale>  0 0.30000000E+03</rscale>
<asrwt>  1 0.34011129E+02</asrwt>
<pdfrwt beam="1">  1        1 0.82680331E+00 0.30000000E+03</pdfrwt>
<pdfrwt beam="2">0</pdfrwt>
<totfact> 0.63292117E-04</totfact>
</mgrwt>
<clustering>
<clus scale="   34.011">  1  6  2 -1</clus>
<clus scale="  456.883">  4  5 -1 -1</clus>
<clus scale="  300.000">  1  4  2 -1</clus>
</clustering>
</event>
<event>
 6    1  0.9480355E-012  0.3000000E+03  0.7818608E-02  0.1093470E+00
          1   -1    0    0  502    0  0.00000000000E+00  0.00000000000E+00  0.23536739693E+03  0.23536739693E+03  0.00000000000E+00 0.  1.
         13   -1    0    0    0    0 -0.00000000000E+00 -0.00000000000E+00 -0.27500000000E+03  0.27500000000E+03  0.00000000000E+00 0.  1.
    9000005    2    1    2  501    0 -0.20966826461E+02 -0.35332472885E+02 -0.58693466220E+02  0.46507602959E+03  0.45952453565E+03 0.  0.
         13    1    3    3    0    0 -0.12128638413E+03 -0.38479836302E+02  0.17173446134E+03  0.21373771307E+03  0.00000000000E+00 0.  1.
          1    1    3    3  501    0  0.10031955767E+03  0.31473634169E+01 -0.23042792756E+03  0.25133831651E+03  0.00000000000E+00 0.  1.
         21    1    1    2  502  501  0.20966826461E+02  0.35332472885E+02  0.19060863154E+02  0.45291367348E+02  0.00000000000E+00 0.  1.
<scales pt_clust_4="550.00000" pt_clust_5="550.00000" pt_clust_6="41.08517"></scales>
<mgrwt>
<rscale>  0 0.30000000E+03</rscale>
<asrwt>  1 0.41085173E+02</asrwt>
<pdfrwt beam="1">  1        1 0.85588144E+00 0.30000000E+03</pdfrwt>
<pdfrwt beam="2">0</pdfrwt>
<totfact> 0.34662327E-04</totfact>
</mgrwt>
<clustering>
<clus scale="   41.085">  1  6  2 -1</clus>
<clus scale="  459.525">  4  5 -1 -1</clus>
<clus scale="  300.000">  1  4  2 -1</clus>
</clustering>
</event>
<event>
 6    1  0.9480355E-012  0.3000000E+03  0.7818608E-02  0.1093470E+00
          1   -1    0    0  502    0  0.00000000000E+00  0.00000000000E+00  0.25522372191E+03  0.25522372191E+03  0.00000000000E+00 0.  1.
         13   -1    0    0    0    0 -0.00000000000E+00 -0.00000000000E+00 -0.27500000000E+03  0.27500000000E+03  0.00000000000E+00 0.  1.
    9000005    2    1    2  501    0 -0.13874014383E+02 -0.47973913617E+02 -0.26866405582E+02  0.47978311753E+03  0.47642003679E+03 0.  0.
         13    1    3    3    0    0  0.17084909177E+03  0.87882844370E+02 -0.12622277200E+03  0.22988039208E+03  0.00000000000E+00 0.  1.
          3    1    3    3  501    0 -0.18472310616E+03 -0.13585675799E+03  0.99356366413E+02  0.24990272545E+03  0.00000000000E+00 0.  1.
         21    1    1    2  502  501  0.13874014383E+02  0.47973913617E+02  0.70901274973E+01  0.50440604385E+02  0.00000000000E+00 0.  1.
<scales pt_clust_4="550.00000" pt_clust_5="550.00000" pt_clust_6="49.93981"></scales>
<mgrwt>
<rscale>  0 0.30000000E+03</rscale>
<asrwt>  1 0.49939810E+02</asrwt>
<pdfrwt beam="1">  1        1 0.92808626E+00 0.30000000E+03</pdfrwt>
<pdfrwt beam="2">0</pdfrwt>
<totfact> 0.26613605E-05</totfact>
</mgrwt>
<clustering>
<clus scale="   49.940">  1  6  2 -1</clus>
<clus scale="  476.420">  4  5 -1 -1</clus>
<clus scale="  300.000">  1  4  2 -1</clus>
</clustering>
</event>
<event>
 6    1  0.9480355E-012  0.3000000E+03  0.7818608E-02  0.1093470E+00
          1   -1    0    0  502    0  0.00000000000E+00  0.00000000000E+00  0.25549751352E+03  0.25549751352E+03  0.00000000000E+00 0.  1.
         13   -1    0    0    0    0 -0.00000000000E+00 -0.00000000000E+00 -0.27500000000E+03  0.27500000000E+03  0.00000000000E+00 0.  1.
    9000005    2    1    2  501    0 -0.46434887139E+01 -0.30831043942E+02 -0.31572918270E+02  0.49706383916E+03  0.49507928231E+03 0.  0.
         13    1    3    3    0    0 -0.12329074508E+03  0.18840893457E+01 -0.23150017288E+03  0.26229084555E+03  0.00000000000E+00 0.  1.
          1    1    3    3  501    0  0.11864725637E+03 -0.32715133287E+02  0.19992725461E+03  0.23477299361E+03  0.00000000000E+00 0.  1.
         21    1    1    2  502  501  0.46434887139E+01  0.30831043942E+02  0.12070431792E+02  0.33433674366E+02  0.00000000000E+00 0.  1.
<scales pt_clust_4="550.00000" pt_clust_5="550.00000" pt_clust_6="31.17876"></scales>
<mgrwt>
<rscale>  0 0.30000000E+03</rscale>
<asrwt>  1 0.31178763E+02</asrwt>
<pdfrwt beam="1">  1        1 0.92908187E+00 0.30000000E+03</pdfrwt>
<pdfrwt beam="2">0</pdfrwt>
<totfact> 0.27832922E-05</totfact>
</mgrwt>
<clustering>
<clus scale="   31.179">  1  6  2 -1</clus>
<clus scale="  495.079">  4  5 -1 -1</clus>
<clus scale="  300.000">  1  4  2 -1</clus>
</clustering>
</event>
<event>
 6    1  0.9480355E-012  0.3000000E+03  0.7818608E-02  0.1093470E+00
          1   -1    0    0  502    0  0.00000000000E+00  0.00000000000E+00  0.24127113518E+03  0.24127113518E+03  0.00000000000E+00 0.  1.
         13   -1    0    0    0    0 -0.00000000000E+00 -0.00000000000E+00 -0.27500000000E+03  0.27500000000E+03  0.00000000000E+00 0.  1.
    9000005    2    1    2  501    0  0.40186778442E+02  0.12508026067E+02 -0.58478473828E+02  0.46744520945E+03  0.46185913876E+03 0.  0.
         13    1    3    3    0    0  0.82484750220E+02  0.56060435269E+02 -0.24860334711E+03  0.26786214853E+03  0.00000000000E+00 0.  1.
          1    1    3    3  501    0 -0.42297971779E+02 -0.43552409202E+02  0.19012487328E+03  0.19958306092E+03  0.00000000000E+00 0.  1.
         21    1    1    2  502  501 -0.40186778442E+02 -0.12508026067E+02  0.24749609010E+02  0.48825925734E+02  0.00000000000E+00 0.  1.
<scales pt_clust_4="550.00000" pt_clust_5="550.00000" pt_clust_6="42.08833"></scales>
<mgrwt>
<rscale>  0 0.30000000E+03</rscale>
<asrwt>  1 0.42088334E+02</asrwt>
<pdfrwt beam="1">  1        1 0.87734958E+00 0.30000000E+03</pdfrwt>
<pdfrwt beam="2">0</pdfrwt>
<totfact> 0.20500462E-04</totfact>
</mgrwt>
<clustering>
<clus scale="   42.088">  1  6  2 -1</clus>
<clus scale="  461.859">  4  5 -1 -1</clus>
<clus scale="  300.000">  1  4  2 -1</clus>
</clustering>
</event>
<event>
 6    1  0.9480355E-012  0.3000000E+03  0.7818608E-02  0.1093470E+00
          1   -1    0    0  502    0  0.00000000000E+00  0.00000000000E+00  0.26612045522E+03  0.26612045522E+03  0.00000000000E+00 0.  1.
         13   -1    0    0    0    0 -0.00000000000E+00 -0.00000000000E+00 -0.27500000000E+03  0.27500000000E+03  0.00000000000E+00 0.  1.
    9000005    2    1    2  501    0 -0.29585705417E+02  0.50051844715E+01 -0.12529742734E+02  0.51089315329E+03  0.50985728767E+03 0.  0.
         13    1    3    3    0    0 -0.10961711549E+03  0.36620012295E+02 -0.24071521775E+03  0.26702200915E+03  0.00000000000E+00 0.  1.
          1    1    3    3  501    0  0.80031410076E+02 -0.31614827824E+02  0.22818547502E+03  0.24387114415E+03  0.00000000000E+00 0.  1.
         21    1    1    2  502  501  0.29585705417E+02 -0.50051844715E+01  0.36501979535E+01  0.30227301926E+02  0.00000000000E+00 0.  1.
<scales pt_clust_4="550.00000" pt_clust_5="550.00000" pt_clust_6="30.00610"></scales>
<mgrwt>
<rscale>  0 0.30000000E+03</rscale>
<asrwt>  1 0.30006097E+02</asrwt>
<pdfrwt beam="1">  1        1 0.96771075E+00 0.30000000E+03</pdfrwt>
<pdfrwt beam="2">0</pdfrwt>
<totfact> 0.55141664E-06</totfact>
</mgrwt>
<clustering>
<clus scale="   30.006">  1  6  2 -1</clus>
<clus scale="  509.857">  4  5 -1 -1</clus>
<clus scale="  300.000">  1  4  2 -1</clus>
</clustering>
</event>
<event>
 6    1  0.9480355E-012  0.3000000E+03  0.7818608E-02  0.1093470E+00
          1   -1    0    0  502    0  0.00000000000E+00  0.00000000000E+00  0.23341178782E+03  0.23341178782E+03  0.00000000000E+00 0.  1.
         13   -1    0    0    0    0 -0.00000000000E+00 -0.00000000000E+00 -0.27500000000E+03  0.27500000000E+03  0.00000000000E+00 0.  1.
    9000005    2    1    2  501    0 -0.27907500706E+02 -0.34494925992E+02 -0.35626584615E+02  0.46364271906E+03  0.46013757605E+03 0.  0.
         13    1    3    3    0    0 -0.21688899957E+03 -0.12728120023E+03 -0.27172347048E+02  0.25294204575E+03  0.00000000000E+00 0.  1.
          3    1    3    3  501    0  0.18898149886E+03  0.92786274237E+02 -0.84542375672E+01  0.21070067331E+03  0.00000000000E+00 0.  1.
         21    1    1    2  502  501  0.27907500706E+02  0.34494925992E+02 -0.59616275608E+01  0.44769068764E+02  0.00000000000E+00 0.  1.
<scales pt_clust_4="550.00000" pt_clust_5="550.00000" pt_clust_6="44.37038"></scales>
<mgrwt>
<rscale>  0 0.30000000E+03</rscale>
<asrwt>  1 0.44370378E+02</asrwt>
<pdfrwt beam="1">  1        1 0.84877014E+00 0.30000000E+03</pdfrwt>
<pdfrwt beam="2">0</pdfrwt>
<totfact> 0.40011213E-04</totfact>
</mgrwt>
<clustering>
<clus scale="   44.370">  1  6  2 -1</clus>
<clus scale="  460.138">  4  5 -1 -1</clus>
<clus scale="  300.000">  1  4  2 -1</clus>
</clustering>
</event>
<event>
 6    1  0.9480355E-012  0.3000000E+03  0.7818608E-02  0.1093470E+00
          1   -1    0    0  502    0  0.00000000000E+00  0.00000000000E+00  0.21904005536E+03  0.21904005536E+03  0.00000000000E+00 0.  1.
         13   -1    0    0    0    0 -0.00000000000E+00 -0.00000000000E+00 -0.27500000000E+03  0.27500000000E+03  0.00000000000E+00 0.  1.
    9000005    2    1    2  501    0  0.14308755964E+02  0.27301827818E+02 -0.61599303395E+02  0.46270425050E+03  0.45754848808E+03 0.  0.
         13    1    3    3    0    0 -0.18626469394E+03 -0.39533495999E+02  0.81803353895E+02  0.20724194127E+03  0.00000000000E+00 0.  1.
          3    1    3    3  501    0  0.20057344990E+03  0.66835323817E+02 -0.14340265729E+03  0.25546230922E+03  0.00000000000E+00 0.  1.
         21    1    1    2  502  501 -0.14308755964E+02 -0.27301827818E+02  0.56393587575E+01  0.31335804867E+02  0.00000000000E+00 0.  1.
<scales pt_clust_4="550.00000" pt_clust_5="550.00000" pt_clust_6="30.82418"></scales>
<mgrwt>
<rscale>  0 0.30000000E+03</rscale>
<asrwt>  1 0.30824184E+02</asrwt>
<pdfrwt beam="1">  1        1 0.79650929E+00 0.30000000E+03</pdfrwt>
<pdfrwt beam="2">0</pdfrwt>
<totfact> 0.11261810E-03</totfact>
</mgrwt>
<clustering>
<clus scale="   30.824">  1  6  2 -1</clus>
<clus scale="  457.548">  4  5 -1 -1</clus>
<clus scale="  300.000">  1  4  2 -1</clus>
</clustering>
</event>
<event>
 6    1  0.9480355E-012  0.3000000E+03  0.7818608E-02  0.1093470E+00
          1   -1    0    0  502    0  0.00000000000E+00  0.00000000000E+00  0.22524560746E+03  0.22524560746E+03  0.00000000000E+00 0.  1.
         13   -1    0    0    0    0 -0.00000000000E+00 -0.00000000000E+00 -0.27500000000E+03  0.27500000000E+03  0.00000000000E+00 0.  1.
    9000005    2    1    2  501    0  0.35501951574E+02  0.11429105188E+02 -0.55169649939E+02  0.46255823525E+03  0.45773946489E+03 0.  0.
         13    1    3    3    0    0 -0.21995531678E+02 -0.19262597809E+03  0.81511756079E+02  0.21031580357E+03  0.00000000000E+00 0.  1.
          1    1    3    3  501    0  0.57497483252E+02  0.20405508328E+03 -0.13668140602E+03  0.25224243169E+03  0.00000000000E+00 0.  1.
         21    1    1    2  502  501 -0.35501951574E+02 -0.11429105188E+02  0.54152573970E+01  0.37687372204E+02  0.00000000000E+00 0.  1.
<scales pt_clust_4="550.00000" pt_clust_5="550.00000" pt_clust_6="37.29629"></scales>
<mgrwt>
<rscale>  0 0.30000000E+03</rscale>
<asrwt>  1 0.37296287E+02</asrwt>
<pdfrwt beam="1">  1        1 0.81907494E+00 0.30000000E+03</pdfrwt>
<pdfrwt beam="2">0</pdfrwt>
<totfact> 0.72800214E-04</totfact>
</mgrwt>
<clustering>
<clus scale="   37.296">  1  6  2 -1</clus>
<clus scale="  457.739">  4  5 -1 -1</clus>
<clus scale="  300.000">  1  4  2 -1</clus>
</clustering>
</event>
<event>
 6    1  0.9480355E-012  0.3000000E+03  0.7818608E-02  0.1093470E+00
          1   -1    0    0  502    0  0.00000000000E+00  0.00000000000E+00  0.23820151838E+03  0.23820151838E+03  0.00000000000E+00 0.  1.
         13   -1    0    0    0    0 -0.00000000000E+00 -0.00000000000E+00 -0.27500000000E+03  0.27500000000E+03  0.00000000000E+00 0.  1.
    9000005    2    1    2  501    0  0.35630020960E+02  0.30342849647E+02 -0.42847892974E+02  0.46601272420E+03  0.46167275235E+03 0.  0.
         13    1    3    3    0    0 -0.56576059675E+02  0.97980729179E+02 -0.22447968446E+03  0.25138059303E+03  0.00000000000E+00 0.  1.
          1    1    3    3  501    0  0.92206080634E+02 -0.67637879531E+02  0.18163179148E+03  0.21463213117E+03  0.00000000000E+00 0.  1.
         21    1    1    2  502  501 -0.35630020960E+02 -0.30342849647E+02  0.60494113540E+01  0.47188794179E+02  0.00000000000E+00 0.  1.
<scales pt_clust_4="550.00000" pt_clust_5="550.00000" pt_clust_6="46.79943"></scales>
<mgrwt>
<rscale>  0 0.30000000E+03</rscale>
<asrwt>  1 0.46799433E+02</asrwt>
<pdfrwt beam="1">  1        1 0.86618734E+00 0.30000000E+03</pdfrwt>
<pdfrwt beam="2">0</pdfrwt>
<totfact> 0.26315724E-04</totfact>
</mgrwt>
<clustering>
<clus scale="   46.799">  1  6  2 -1</clus>
<clus scale="  461.673">  4  5 -1 -1</clus>
<clus scale="  300.000">  1  4  2 -1</clus>
</clustering>
</event>
<event>
 6    1  0.9480355E-012  0.3000000E+03  0.7818608E-02  0.1093470E+00
          1   -1    0    0  502    0  0.00000000000E+00  0.00000000000E+00  0.25057038935E+03  0.25057038935E+03  0.00000000000E+00 0.  1.
         13   -1    0    0    0    0 -0.00000000000E+00 -0.00000000000E+00 -0.27500000000E+03  0.27500000000E+03  0.00000000000E+00 0.  1.
    9000005    2    1    2  501    0  0.27950086766E+02  0.12503980588E+02 -0.29052333589E+02  0.49460385179E+03  0.49279952845E+03 0.  0.
         13    1    3    3    0    0 -0.13160153004E+03 -0.49534720009E+02 -0.20534182979E+03  0.24887329759E+03  0.00000000000E+00 0.  1.
          1    1    3    3  501    0  0.15955161680E+03  0.62038700597E+02  0.17628949620E+03  0.24573055420E+03  0.00000000000E+00 0.  1.
         21    1    1    2  502  501 -0.27950086766E+02 -0.12503980588E+02  0.46227229386E+01  0.30966537555E+02  0.00000000000E+00 0. -1.
<scales pt_clust_4="550.00000" pt_clust_5="550.00000" pt_clust_6="30.61955"></scales>
<mgrwt>
<rscale>  0 0.30000000E+03</rscale>
<asrwt>  1 0.30619551E+02</asrwt>
<pdfrwt beam="1">  1        1 0.91116505E+00 0.30000000E+03</pdfrwt>
<pdfrwt beam="2">0</pdfrwt>
<totfact> 0.68988777E-05</totfact>
</mgrwt>
<clustering>
<clus scale="   30.620">  1  6  2 -1</clus>
<clus scale="  492.800">  4  5 -1 -1</clus>
<clus scale="  300.000">  1  4  2 -1</clus>
</clustering>
</event>
<event>
 6    1  0.9480355E-012  0.3000000E+03  0.7818608E-02  0.1093470E+00
          1   -1    0    0  502    0  0.00000000000E+00  0.00000000000E+00  0.22866084690E+03  0.22866084690E+03  0.00000000000E+00 0.  1.
         13   -1    0    0    0    0 -0.00000000000E+00 -0.00000000000E+00 -0.27500000000E+03  0.27500000000E+03  0.00000000000E+00 0.  1.
    9000005    2    1    2  501    0 -0.72732117418E+01  0.40150990167E+02 -0.56138195282E+02  0.46169630415E+03  0.45645041207E+03 0.  0.
         13    1    3    3    0    0  0.99668491761E+02 -0.18416062357E+03 -0.34908143163E+02  0.21229112554E+03  0.00000000000E+00 0.  1.
          3    1    3    3  501    0 -0.10694170350E+03  0.22431161374E+03 -0.21230052119E+02  0.24940517861E+03  0.00000000000E+00 0.  1.
         21    1    1    2  502  501  0.72732117418E+01 -0.40150990167E+02  0.97990421800E+01  0.41964542748E+02  0.00000000000E+00 0.  1.
<scales pt_clust_4="550.00000" pt_clust_5="550.00000" pt_clust_6="40.80443"></scales>
<mgrwt>
<rscale>  0 0.30000000E+03</rscale>
<asrwt>  1 0.40804431E+02</asrwt>
<pdfrwt beam="1">  1        1 0.83149399E+00 0.30000000E+03</pdfrwt>
<pdfrwt beam="2">0</pdfrwt>
<totfact> 0.55884212E-04</totfact>
</mgrwt>
<clustering>
<clus scale="   40.804">  1  6  2 -1</clus>
<clus scale="  456.450">  4  5 -1 -1</clus>
<clus scale="  300.000">  1  4  2 -1</clus>
</clustering>
</event>
<event>
 6    1  0.9480355E-012  0.3000000E+03  0.7818608E-02  0.1093470E+00
          1   -1    0    0  502    0  0.00000000000E+00  0.00000000000E+00  0.26709250284E+03  0.26709250284E+03  0.00000000000E+00 0.  1.
         13   -1    0    0    0    0 -0.00000000000E+00 -0.00000000000E+00 -0.27500000000E+03  0.27500000000E+03  0.00000000000E+00 0.  1.
    9000005    2    1    2  501    0  0.26260043048E+02  0.32676095997E+02 -0.27157236915E+02  0.49596366597E+03  0.49344211953E+03 0.  0.
         13    1    3    3    0    0  0.18438447471E+02  0.15568427975E+03  0.18996145969E+03  0.24629845204E+03  0.00000000000E+00 0.  1.
          1    1    3    3  501    0  0.78215955773E+01 -0.12300818376E+03 -0.21711869661E+03  0.24966521393E+03  0.00000000000E+00 0.  1.
         21    1    1    2  502  501 -0.26260043048E+02 -0.32676095997E+02  0.19249739751E+02  0.46128836870E+02  0.00000000000E+00 0. -1.
<scales pt_clust_4="550.00000" pt_clust_5="550.00000" pt_clust_6="41.92037"></scales>
<mgrwt>
<rscale>  0 0.30000000E+03</rscale>
<asrwt>  1 0.41920366E+02</asrwt>
<pdfrwt beam="1">  1        1 0.97124546E+00 0.30000000E+03</pdfrwt>
<pdfrwt beam="2">0</pdfrwt>
<totfact> 0.45937784E-06</totfact>
</mgrwt>
<clustering>
<clus scale="   41.920">  1  6  2 -1</clus>
<clus scale="  493.442">  4  5 -1 -1</clus>
<clus scale="  300.000">  1  4  2 -1</clus>
</clustering>
</event>
<event>
 6    1  0.9480355E-012  0.3000000E+03  0.7818608E-02  0.1093470E+00
          1   -1    0    0  502    0  0.00000000000E+00  0.00000000000E+00  0.23808341579E+03  0.23808341579E+03  0.00000000000E+00 0.  1.
         13   -1    0    0    0    0 -0.00000000000E+00 -0.00000000000E+00 -0.27500000000E+03  0.27500000000E+03  0.00000000000E+00 0.  1.
    9000005    2    1    2  501    0  0.45845050032E+01  0.35136498536E+02 -0.23065293750E+02  0.47503805520E+03  0.47315278177E+03 0.  0.
         13    1    3    3    0    0  0.13755032109E+02  0.21507212454E+03  0.11846693428E+03  0.24592607462E+03  0.00000000000E+00 0.  1.
          1    1    3    3  501    0 -0.91705271055E+01 -0.17993562600E+03 -0.14153222803E+03  0.22911198058E+03  0.00000000000E+00 0.  1.
         21    1    1    2  502  501 -0.45845050032E+01 -0.35136498536E+02 -0.13851290457E+02  0.38045360595E+02  0.00000000000E+00 0.  1.
<scales pt_clust_4="550.00000" pt_clust_5="550.00000" pt_clust_6="35.43434"></scales>
<mgrwt>
<rscale>  0 0.30000000E+03</rscale>
<asrwt>  1 0.35434340E+02</asrwt>
<pdfrwt beam="1">  1        1 0.86575788E+00 0.30000000E+03</pdfrwt>
<pdfrwt beam="2">0</pdfrwt>
<totfact> 0.27975660E-04</totfact>
</mgrwt>
<clustering>
<clus scale="   35.434">  1  6  2 -1</clus>
<clus scale="  473.153">  4  5 -1 -1</clus>
<clus scale="  300.000">  1  4  2 -1</clus>
</clustering>
</event>
<event>
 6    1  0.9480355E-012  0.3000000E+03  0.7818608E-02  0.1093470E+00
          1   -1    0    0  502    0  0.00000000000E+00  0.00000000000E+00  0.24282998245E+03  0.24282998245E+03  0.00000000000E+00 0.  1.
         13   -1    0    0    0    0 -0.00000000000E+00 -0.00000000000E+00 -0.27500000000E+03  0.27500000000E+03  0.00000000000E+00 0.  1.
    9000005    2    1    2  501    0  0.15318035439E+02 -0.49105055624E+02 -0.22173497191E+02  0.46542884585E+03  0.46204588287E+03 0.  0.
         13    1    3    3    0    0 -0.62641686264E+02 -0.21645340131E+03  0.97386339642E+02  0.24547943895E+03  0.00000000000E+00 0.  1.
          1    1    3    3  501    0  0.77959721704E+02  0.16734834569E+03 -0.11955983683E+03  0.21994940690E+03  0.00000000000E+00 0.  1.
         21    1    1    2  502  501 -0.15318035439E+02  0.49105055624E+02 -0.99965203568E+01  0.52401136598E+02  0.00000000000E+00 0. -1.
<scales pt_clust_4="550.00000" pt_clust_5="550.00000" pt_clust_6="51.43881"></scales>
<mgrwt>
<rscale>  0 0.30000000E+03</rscale>
<asrwt>  1 0.51438812E+02</asrwt>
<pdfrwt beam="1">  1        1 0.88301812E+00 0.30000000E+03</pdfrwt>
<pdfrwt beam="2">0</pdfrwt>
<totfact> 0.16838614E-04</totfact>
</mgrwt>
<clustering>
<clus scale="   51.439">  1  6  2 -1</clus>
<clus scale="  462.046">  4  5 -1 -1</clus>
<clus scale="  300.000">  1  4  2 -1</clus>
</clustering>
</event>
<event>
 6    1  0.9480355E-012  0.3000000E+03  0.7818608E-02  0.1093470E+00
          1   -1    0    0  502    0  0.00000000000E+00  0.00000000000E+00  0.23296700876E+03  0.23296700876E+03  0.00000000000E+00 0.  1.
         13   -1    0    0    0    0 -0.00000000000E+00 -0.00000000000E+00 -0.27500000000E+03  0.27500000000E+03  0.00000000000E+00 0.  1.
    9000005    2    1    2  501    0  0.21076387567E+02  0.26541269112E+02 -0.70293338179E+02  0.46383878323E+03  0.45722708839E+03 0.  0.
         13    1    3    3    0    0 -0.14704727561E+03 -0.11341136303E+03 -0.14185068028E+03  0.23368066678E+03  0.00000000000E+00 0.  1.
          3    1    3    3  501    0  0.16812366318E+03  0.13995263214E+03  0.71557342103E+02  0.23015811646E+03  0.00000000000E+00 0.  1.
         21    1    1    2  502  501 -0.21076387567E+02 -0.26541269112E+02  0.28260346939E+02  0.44128225526E+02  0.00000000000E+00 0. -1.
<scales pt_clust_4="550.00000" pt_clust_5="550.00000" pt_clust_6="33.89178"></scales>
<mgrwt>
<rscale>  0 0.30000000E+03</rscale>
<asrwt>  1 0.33891785E+02</asrwt>
<pdfrwt beam="1">  1        1 0.84715276E+00 0.30000000E+03</pdfrwt>
<pdfrwt beam="2">0</pdfrwt>
<totfact> 0.43495859E-04</totfact>
</mgrwt>
<clustering>
<clus scale="   33.892">  1  6  2 -1</clus>
<clus scale="  457.227">  4  5 -1 -1</clus>
<clus scale="  300.000">  1  4  2 -1</clus>
</clustering>
</event>
<event>
 6    1  0.9480355E-012  0.3000000E+03  0.7818608E-02  0.1093470E+00
          1   -1    0    0  502    0  0.00000000000E+00  0.00000000000E+00  0.23402515379E+03  0.23402515379E+03  0.00000000000E+00 0.  1.
         13   -1    0    0    0    0 -0.00000000000E+00 -0.00000000000E+00 -0.27500000000E+03  0.27500000000E+03  0.00000000000E+00 0.  1.
    9000005    2    1    2  501    0  0.26801826594E+02  0.19508205717E+02 -0.38484613722E+02  0.47578197018E+03  0.47306290243E+03 0.  0.
         13    1    3    3    0    0 -0.42442678721E+02  0.20074746572E+03 -0.14799854714E+03  0.25299109851E+03  0.00000000000E+00 0.  1.
          1    1    3    3  501    0  0.69244505315E+02 -0.18123926000E+03  0.10951393342E+03  0.22279087166E+03  0.00000000000E+00 0.  1.
         21    1    1    2  502  501 -0.26801826594E+02 -0.19508205717E+02 -0.24902324839E+01  0.33243183615E+02  0.00000000000E+00 0. -1.
<scales pt_clust_4="550.00000" pt_clust_5="550.00000" pt_clust_6="33.14978"></scales>
<mgrwt>
<rscale>  0 0.30000000E+03</rscale>
<asrwt>  1 0.33149781E+02</asrwt>
<pdfrwt beam="1">  1        1 0.85100056E+00 0.30000000E+03</pdfrwt>
<pdfrwt beam="2">0</pdfrwt>
<totfact> 0.40232237E-04</totfact>
</mgrwt>
<clustering>
<clus scale="   33.150">  1  6  2 -1</clus>
<clus scale="  473.063">  4  5 -1 -1</clus>
<clus scale="  300.000">  1  4  2 -1</clus>
</clustering>
</event>
<event>
 6    1  0.9480355E-012  0.3000000E+03  0.7818608E-02  0.1093470E+00
          1   -1    0    0  502    0  0.00000000000E+00  0.00000000000E+00  0.22489823473E+03  0.22489823473E+03  0.00000000000E+00 0.  1.
         13   -1    0    0    0    0 -0.00000000000E+00 -0.00000000000E+00 -0.27500000000E+03  0.27500000000E+03  0.00000000000E+00 0.  1.
    9000005    2    1    2  501    0 -0.10017449226E+02 -0.32593955216E+02 -0.45967792614E+02  0.46554994605E+03  0.46201839693E+03 0.  0.
         13    1    3    3    0    0  0.14085230857E+03  0.64323522497E+02  0.13889109098E+03  0.20800871023E+03  0.00000000000E+00 0.  1.
          3    1    3    3  501    0 -0.15086975780E+03 -0.96917477713E+02 -0.18485888360E+03  0.25754123582E+03  0.00000000000E+00 0.  1.
         21    1    1    2  502  501  0.10017449226E+02  0.32593955216E+02 -0.41339726522E+01  0.34348288684E+02  0.00000000000E+00 0.  1.
<scales pt_clust_4="550.00000" pt_clust_5="550.00000" pt_clust_6="34.09863"></scales>
<mgrwt>
<rscale>  0 0.30000000E+03</rscale>
<asrwt>  1 0.34098627E+02</asrwt>
<pdfrwt beam="1">  1        1 0.81781176E+00 0.30000000E+03</pdfrwt>
<pdfrwt beam="2">0</pdfrwt>
<totfact> 0.75864379E-04</totfact>
</mgrwt>
<clustering>
<clus scale="   34.099">  1  6  2 -1</clus>
<clus scale="  462.018">  4  5 -1 -1</clus>
<clus scale="  300.000">  1  4  2 -1</clus>
</clustering>
</event>
<event>
 6    1  0.9480355E-012  0.3000000E+03  0.7818608E-02  0.1093470E+00
          1   -1    0    0  502    0  0.00000000000E+00  0.00000000000E+00  0.24910799383E+03  0.24910799383E+03  0.00000000000E+00 0.  1.
         13   -1    0    0    0    0 -0.00000000000E+00 -0.00000000000E+00 -0.27500000000E+03  0.27500000000E+03  0.00000000000E+00 0.  1.
    9000005    2    1    2  501    0  0.15484182338E+02  0.28573226162E+02 -0.48441471473E+02  0.48455211511E+03  0.48102805214E+03 0.  0.
         13    1    3    3    0    0  0.12296710241E+03  0.94199441258E+02 -0.22164284246E+03  0.27040708686E+03  0.00000000000E+00 0.  1.
          3    1    3    3  501    0 -0.10748292007E+03 -0.65626215097E+02  0.17320137098E+03  0.21414502825E+03  0.00000000000E+00 0.  1.
         21    1    1    2  502  501 -0.15484182338E+02 -0.28573226162E+02  0.22549465306E+02  0.39555878723E+02  0.00000000000E+00 0.  1.
<scales pt_clust_4="550.00000" pt_clust_5="550.00000" pt_clust_6="32.49906"></scales>
<mgrwt>
<rscale>  0 0.30000000E+03</rscale>
<asrwt>  1 0.32499064E+02</asrwt>
<pdfrwt beam="1">  1        1 0.90584725E+00 0.30000000E+03</pdfrwt>
<pdfrwt beam="2">0</pdfrwt>
<totfact> 0.90269018E-05</totfact>
</mgrwt>
<clustering>
<clus scale="   32.499">  1  6  2 -1</clus>
<clus scale="  481.028">  4  5 -1 -1</clus>
<clus scale="  300.000">  1  4  2 -1</clus>
</clustering>
</event>
<event>
 6    1  0.9480355E-012  0.3000000E+03  0.7818608E-02  0.1093470E+00
          1   -1    0    0  502    0  0.00000000000E+00  0.00000000000E+00  0.23438720081E+03  0.23438720081E+03  0.00000000000E+00 0.  1.
         13   -1    0    0    0    0 -0.00000000000E+00 -0.00000000000E+00 -0.27500000000E+03  0.27500000000E+03  0.00000000000E+00 0.  1.
    9000005    2    1    2  501    0 -0.37112479355E+02 -0.22719818927E+01 -0.37079779304E+02  0.47203776634E+03  0.46910792446E+03 0.  0.
         13    1    3    3    0    0  0.31476415318E+02  0.75127586830E+02  0.19860598173E+03  0.21466079056E+03  0.00000000000E+00 0.  1.
          1    1    3    3  501    0 -0.68588894673E+02 -0.77399568723E+02 -0.23568576103E+03  0.25737697578E+03  0.00000000000E+00 0.  1.
         21    1    1    2  502  501  0.37112479355E+02  0.22719818927E+01 -0.35330198869E+01  0.37349434468E+02  0.00000000000E+00 0. -1.
<scales pt_clust_4="550.00000" pt_clust_5="550.00000" pt_clust_6="37.18198"></scales>
<mgrwt>
<rscale>  0 0.30000000E+03</rscale>
<asrwt>  1 0.37181977E+02</asrwt>
<pdfrwt beam="1">  1        1 0.85231709E+00 0.30000000E+03</pdfrwt>
<pdfrwt beam="2">0</pdfrwt>
<totfact> 0.38255129E-04</totfact>
</mgrwt>
<clustering>
<clus scale="   37.182">  1  6  2 -1</clus>
<clus scale="  469.108">  4  5 -1 -1</clus>
<clus scale="  300.000">  1  4  2 -1</clus>
</clustering>
</event>
<event>
 6    1  0.9480355E-012  0.3000000E+03  0.7818608E-02  0.1093470E+00
          1   -1    0    0  502    0  0.00000000000E+00  0.00000000000E+00  0.23650427602E+03  0.23650427602E+03  0.00000000000E+00 0.  1.
         13   -1    0    0    0    0 -0.00000000000E+00 -0.00000000000E+00 -0.27500000000E+03  0.27500000000E+03  0.00000000000E+00 0.  1.
    9000005    2    1    2  501    0 -0.19982851698E+02 -0.23535669074E+02 -0.39337954460E+02  0.48061817182E+03  0.47800952955E+03 0.  0.
         13    1    3    3    0    0 -0.11197847081E+03  0.89524883855E+02 -0.21120334773E+03  0.25526601193E+03  0.00000000000E+00 0.  1.
          3    1    3    3  501    0  0.91995619113E+02 -0.11306055293E+03  0.17186539327E+03  0.22535215989E+03  0.00000000000E+00 0.  1.
         21    1    1    2  502  501  0.19982851698E+02  0.23535669074E+02  0.84223048443E+00  0.30886104204E+02  0.00000000000E+00 0. -1.
<scales pt_clust_4="550.00000" pt_clust_5="550.00000" pt_clust_6="30.87462"></scales>
<mgrwt>
<rscale>  0 0.30000000E+03</rscale>
<asrwt>  1 0.30874619E+02</asrwt>
<pdfrwt beam="1">  1        1 0.86001555E+00 0.30000000E+03</pdfrwt>
<pdfrwt beam="2">0</pdfrwt>
<totfact> 0.33110587E-04</totfact>
</mgrwt>
<clustering>
<clus scale="   30.875">  1  6  2 -1</clus>
<clus scale="  478.010">  4  5 -1 -1</clus>
<clus scale="  300.000">  1  4  2 -1</clus>
</clustering>
</event>
<event>
 6    1  0.9480355E-012  0.3000000E+03  0.7818608E-02  0.1093470E+00
          1   -1    0    0  502    0  0.00000000000E+00  0.00000000000E+00  0.23217036654E+03  0.23217036654E+03  0.00000000000E+00 0.  1.
         13   -1    0    0    0    0 -0.00000000000E+00 -0.00000000000E+00 -0.27500000000E+03  0.27500000000E+03  0.00000000000E+00 0.  1.
    9000005    2    1    2  501    0  0.81884535156E+01  0.31117367752E+02 -0.61039117729E+02  0.47019839521E+03  0.46510796125E+03 0.  0.
         13    1    3    3    0    0  0.18438082727E+03  0.15817487782E+03  0.55505764627E+01  0.24299463026E+03  0.00000000000E+00 0.  1.
          1    1    3    3  501    0 -0.17619237375E+03 -0.12705751007E+03 -0.66589694192E+02  0.22720376495E+03  0.00000000000E+00 0.  1.
         21    1    1    2  502  501 -0.81884535156E+01 -0.31117367752E+02  0.18209484274E+02  0.36971971334E+02  0.00000000000E+00 0.  1.
<scales pt_clust_4="550.00000" pt_clust_5="550.00000" pt_clust_6="32.17672"></scales>
<mgrwt>
<rscale>  0 0.30000000E+03</rscale>
<asrwt>  1 0.32176721E+02</asrwt>
<pdfrwt beam="1">  1        1 0.84425588E+00 0.30000000E+03</pdfrwt>
<pdfrwt beam="2">0</pdfrwt>
<totfact> 0.46592379E-04</totfact>
</mgrwt>
<clustering>
<clus scale="   32.177">  1  6  2 -1</clus>
<clus scale="  465.108">  4  5 -1 -1</clus>
<clus scale="  300.000">  1  4  2 -1</clus>
</clustering>
</event>
<event>
 6    1  0.9480355E-012  0.3000000E+03  0.7818608E-02  0.1093470E+00
          1   -1    0    0  502    0  0.00000000000E+00  0.00000000000E+00  0.22605194720E+03  0.22605194720E+03  0.00000000000E+00 0.  1.
         13   -1    0    0    0    0 -0.00000000000E+00 -0.00000000000E+00 -0.27500000000E+03  0.27500000000E+03  0.00000000000E+00 0.  1.
    9000005    2    1    2  501    0 -0.21104599860E+02  0.25080710417E+02 -0.59313886008E+02  0.46667322313E+03  0.46172644926E+03 0.  0.
         13    1    3    3    0    0  0.18470701223E+03  0.59412878230E+02 -0.14385806600E+03  0.24154029398E+03  0.00000000000E+00 0.  1.
          1    1    3    3  501    0 -0.20581161209E+03 -0.34332167814E+02  0.84544179988E+02  0.22513292915E+03  0.00000000000E+00 0.  1.
         21    1    1    2  502  501  0.21104599860E+02 -0.25080710417E+02  0.10365833205E+02  0.34378724064E+02  0.00000000000E+00 0. -1.
<scales pt_clust_4="550.00000" pt_clust_5="550.00000" pt_clust_6="32.77875"></scales>
<mgrwt>
<rscale>  0 0.30000000E+03</rscale>
<asrwt>  1 0.32778746E+02</asrwt>
<pdfrwt beam="1">  1        1 0.82200708E+00 0.30000000E+03</pdfrwt>
<pdfrwt beam="2">0</pdfrwt>
<totfact> 0.70319101E-04</totfact>
</mgrwt>
<clustering>
<clus scale="   32.779">  1  6  2 -1</clus>
<clus scale="  461.726">  4  5 -1 -1</clus>
<clus scale="  300.000">  1  4  2 -1</clus>
</clustering>
</event>
<event>
 6    1  0.9480355E-012  0.3000000E+03  0.7818608E-02  0.1093470E+00
          1   -1    0    0  502    0  0.00000000000E+00  0.00000000000E+00  0.24286505104E+03  0.24286505104E+03  0.00000000000E+00 0.  1.
         13   -1    0    0    0    0 -0.00000000000E+00 -0.00000000000E+00 -0.27500000000E+03  0.27500000000E+03  0.00000000000E+00 0.  1.
    9000005    2    1    2  501    0  0.33969945742E+02  0.71634986093E+01 -0.72326945333E+02  0.46475507553E+03  0.45777813435E+03 0.  0.
         13    1    3    3    0    0  0.88914587906E+02 -0.16658928398E+03 -0.17339961938E+03  0.25636930682E+03  0.00000000000E+00 0.  1.
          3    1    3    3  501    0 -0.54944642164E+02  0.17375278259E+03  0.10107267405E+03  0.20838576871E+03  0.00000000000E+00 0.  1.
         21    1    1    2  502  501 -0.33969945742E+02 -0.71634986093E+01  0.40191996378E+02  0.53109975512E+02  0.00000000000E+00 0.  1.
<scales pt_clust_4="550.00000" pt_clust_5="550.00000" pt_clust_6="34.71704"></scales>
<mgrwt>
<rscale>  0 0.30000000E+03</rscale>
<asrwt>  1 0.34717041E+02</asrwt>
<pdfrwt beam="1">  1        1 0.88314564E+00 0.30000000E+03</pdfrwt>
<pdfrwt beam="2">0</pdfrwt>
<totfact> 0.18008144E-04</totfact>
</mgrwt>
<clustering>
<clus scale="   34.717">  1  6  2 -1</clus>
<clus scale="  457.778">  4  5 -1 -1</clus>
<clus scale="  300.000">  1  4  2 -1</clus>
</clustering>
</event>
<event>
 6    1  0.9480355E-012  0.3000000E+03  0.7818608E-02  0.1093470E+00
          1   -1    0    0  502    0  0.00000000000E+00  0.00000000000E+00  0.23225156871E+03  0.23225156871E+03  0.00000000000E+00 0.  1.
         13   -1    0    0    0    0 -0.00000000000E+00 -0.00000000000E+00 -0.27500000000E+03  0.27500000000E+03  0.00000000000E+00 0.  1.
    9000005    2    1    2  501    0  0.16867479578E+02  0.30120924650E+02 -0.68267662298E+02  0.46432124003E+03  0.45797593634E+03 0.  0.
         13    1    3    3    0    0  0.27065674884E+02 -0.19494880538E+03  0.59113231339E+02  0.20550416442E+03  0.00000000000E+00 0.  1.
          3    1    3    3  501    0 -0.10198195306E+02  0.22506973003E+03 -0.12738089364E+03  0.25881707561E+03  0.00000000000E+00 0.  1.
         21    1    1    2  502  501 -0.16867479578E+02 -0.30120924650E+02  0.25519231011E+02  0.42930328679E+02  0.00000000000E+00 0.  1.
<scales pt_clust_4="550.00000" pt_clust_5="550.00000" pt_clust_6="34.52220"></scales>
<mgrwt>
<rscale>  0 0.30000000E+03</rscale>
<asrwt>  1 0.34522195E+02</asrwt>
<pdfrwt beam="1">  1        1 0.84455116E+00 0.30000000E+03</pdfrwt>
<pdfrwt beam="2">0</pdfrwt>
<totfact> 0.45708261E-04</totfact>
</mgrwt>
<clustering>
<clus scale="   34.522">  1  6  2 -1</clus>
<clus scale="  457.976">  4  5 -1 -1</clus>
<clus scale="  300.000">  1  4  2 -1</clus>
</clustering>
</event>
<event>
 6    1  0.9480355E-012  0.3000000E+03  0.7818608E-02  0.1093470E+00
          1   -1    0    0  502    0  0.00000000000E+00  0.00000000000E+00  0.25690019180E+03  0.25690019180E+03  0.00000000000E+00 0.  1.
         13   -1    0    0    0    0 -0.00000000000E+00 -0.00000000000E+00 -0.27500000000E+03  0.27500000000E+03  0.00000000000E+00 0.  1.
    9000005    2    1    2  501    0 -0.30887084214E+02 -0.62136263213E+01 -0.32645076601E+00  0.49572681267E+03  0.49472451436E+03 0.  0.
         13    1    3    3    0    0  0.19417379190E+03 -0.12443672155E+03  0.51428094358E+02  0.23628966972E+03  0.00000000000E+00 0.  1.
          3    1    3    3  501    0 -0.22506087611E+03  0.11822309522E+03 -0.51754545124E+02  0.25943714295E+03  0.00000000000E+00 0.  1.
         21    1    1    2  502  501  0.30887084214E+02  0.62136263213E+01 -0.17773357431E+02  0.36173379130E+02  0.00000000000E+00 0. -1.
<scales pt_clust_4="550.00000" pt_clust_5="550.00000" pt_clust_6="31.50591"></scales>
<mgrwt>
<rscale>  0 0.30000000E+03</rscale>
<asrwt>  1 0.31505906E+02</asrwt>
<pdfrwt beam="1">  1        1 0.93418252E+00 0.30000000E+03</pdfrwt>
<pdfrwt beam="2">0</pdfrwt>
<totfact> 0.23509769E-05</totfact>
</mgrwt>
<clustering>
<clus scale="   31.506">  1  6  2 -1</clus>
<clus scale="  494.725">  4  5 -1 -1</clus>
<clus scale="  300.000">  1  4  2 -1</clus>
</clustering>
</event>
<event>
 6    1  0.9480355E-012  0.3000000E+03  0.7818608E-02  0.1093470E+00
          1   -1    0    0  502    0  0.00000000000E+00  0.00000000000E+00  0.24971430480E+03  0.24971430480E+03  0.00000000000E+00 0.  1.
         13   -1    0    0    0    0 -0.00000000000E+00 -0.00000000000E+00 -0.27500000000E+03  0.27500000000E+03  0.00000000000E+00 0.  1.
    9000005    2    1    2  501    0  0.19440429391E+02 -0.26455683554E+02 -0.37650590861E+02  0.48963262679E+03  0.48707772351E+03 0.  0.
         13    1    3    3    0    0 -0.68573760063E+02 -0.13813132596E+02  0.21272807391E+03  0.22393391130E+03  0.00000000000E+00 0.  1.
          1    1    3    3  501    0  0.88014189455E+02 -0.12642550959E+02 -0.25037866477E+03  0.26569871549E+03  0.00000000000E+00 0.  1.
         21    1    1    2  502  501 -0.19440429391E+02  0.26455683554E+02  0.12364895665E+02  0.35081678011E+02  0.00000000000E+00 0. -1.
<scales pt_clust_4="550.00000" pt_clust_5="550.00000" pt_clust_6="32.83037"></scales>
<mgrwt>
<rscale>  0 0.30000000E+03</rscale>
<asrwt>  1 0.32830374E+02</asrwt>
<pdfrwt beam="1">  1        1 0.90805202E+00 0.30000000E+03</pdfrwt>
<pdfrwt beam="2">0</pdfrwt>
<totfact> 0.80825968E-05</totfact>
</mgrwt>
<clustering>
<clus scale="   32.830">  1  6  2 -1</clus>
<clus scale="  487.078">  4  5 -1 -1</clus>
<clus scale="  300.000">  1  4  2 -1</clus>
</clustering>
</event>
<event>
 6    1  0.9480355E-012  0.3000000E+03  0.7818608E-02  0.1093470E+00
          1   -1    0    0  502    0  0.00000000000E+00  0.00000000000E+00  0.22559444746E+03  0.22559444746E+03  0.00000000000E+00 0.  1.
         13   -1    0    0    0    0 -0.00000000000E+00 -0.00000000000E+00 -0.27500000000E+03  0.27500000000E+03  0.00000000000E+00 0.  1.
    9000005    2    1    2  501    0  0.22838083414E+02  0.24522893620E+02 -0.67685021279E+02  0.46242260780E+03  0.45621316918E+03 0.  0.
         13    1    3    3    0    0  0.13718730946E+03 -0.15264218813E+03  0.62588359069E+02  0.21456304007E+03  0.00000000000E+00 0.  1.
          3    1    3    3  501    0 -0.11434922604E+03  0.17716508175E+03 -0.13027338035E+03  0.24785956773E+03  0.00000000000E+00 0.  1.
         21    1    1    2  502  501 -0.22838083414E+02 -0.24522893620E+02  0.18279468739E+02  0.38171839659E+02  0.00000000000E+00 0. -1.
<scales pt_clust_4="550.00000" pt_clust_5="550.00000" pt_clust_6="33.51045"></scales>
<mgrwt>
<rscale>  0 0.30000000E+03</rscale>
<asrwt>  1 0.33510452E+02</asrwt>
<pdfrwt beam="1">  1        1 0.82034345E+00 0.30000000E+03</pdfrwt>
<pdfrwt beam="2">0</pdfrwt>
<totfact> 0.72423355E-04</totfact>
</mgrwt>
<clustering>
<clus scale="   33.510">  1  6  2 -1</clus>
<clus scale="  456.213">  4  5 -1 -1</clus>
<clus scale="  300.000">  1  4  2 -1</clus>
</clustering>
</event>
<event>
 6    1  0.9480355E-012  0.3000000E+03  0.7818608E-02  0.1093470E+00
          1   -1    0    0  502    0  0.00000000000E+00  0.00000000000E+00  0.25939371933E+03  0.25939371933E+03  0.00000000000E+00 0.  1.
         13   -1    0    0    0    0 -0.00000000000E+00 -0.00000000000E+00 -0.27500000000E+03  0.27500000000E+03  0.00000000000E+00 0.  1.
    9000005    2    1    2  501    0  0.80080731869E+01  0.30804595477E+02 -0.50718954648E+02  0.48700224106E+03  0.48330706399E+03 0.  0.
         13    1    3    3    0    0  0.61103678958E+02  0.21995319412E+03 -0.14360075087E+03  0.26969286761E+03  0.00000000000E+00 0.  1.
          1    1    3    3  501    0 -0.53095605771E+02 -0.18914859865E+03  0.92881796218E+02  0.21730937345E+03  0.00000000000E+00 0.  1.
         21    1    1    2  502  501 -0.80080731869E+01 -0.30804595477E+02  0.35112673978E+02  0.47391478269E+02  0.00000000000E+00 0. -1.
<scales pt_clust_4="550.00000" pt_clust_5="550.00000" pt_clust_6="31.82848"></scales>
<mgrwt>
<rscale>  0 0.30000000E+03</rscale>
<asrwt>  1 0.31828483E+02</asrwt>
<pdfrwt beam="1">  1        1 0.94324989E+00 0.30000000E+03</pdfrwt>
<pdfrwt beam="2">0</pdfrwt>
<totfact> 0.17083003E-05</totfact>
</mgrwt>
<clustering>
<clus scale="   31.828">  1  6  2 -1</clus>
<clus scale="  483.307">  4  5 -1 -1</clus>
<clus scale="  300.000">  1  4  2 -1</clus>
</clustering>
</event>
<event>
 6    1  0.9480355E-012  0.3000000E+03  0.7818608E-02  0.1093470E+00
          1   -1    0    0  502    0  0.00000000000E+00  0.00000000000E+00  0.23034330971E+03  0.23034330971E+03  0.00000000000E+00 0.  1.
         13   -1    0    0    0    0 -0.00000000000E+00 -0.00000000000E+00 -0.27500000000E+03  0.27500000000E+03  0.00000000000E+00 0.  1.
    9000005    2    1    2  501    0  0.27802998005E+02 -0.21713470993E+02 -0.45979077933E+02  0.47004132351E+03  0.46645502321E+03 0.  0.
         13    1    3    3    0    0 -0.77849725755E+02 -0.19202371825E+02 -0.23784378178E+03  0.25099596693E+03  0.00000000000E+00 0.  1.
          3    1    3    3  501    0  0.10565272376E+03 -0.25110991682E+01  0.19186470385E+03  0.21904535658E+03  0.00000000000E+00 0.  1.
         21    1    1    2  502  501 -0.27802998005E+02  0.21713470993E+02  0.13223876456E+01  0.35301986201E+02  0.00000000000E+00 0. -1.
<scales pt_clust_4="550.00000" pt_clust_5="550.00000" pt_clust_6="35.27721"></scales>
<mgrwt>
<rscale>  0 0.30000000E+03</rscale>
<asrwt>  1 0.35277210E+02</asrwt>
<pdfrwt beam="1">  1        1 0.83761204E+00 0.30000000E+03</pdfrwt>
<pdfrwt beam="2">0</pdfrwt>
<totfact> 0.51708396E-04</totfact>
</mgrwt>
<clustering>
<clus scale="   35.277">  1  6  2 -1</clus>
<clus scale="  466.455">  4  5 -1 -1</clus>
<clus scale="  300.000">  1  4  2 -1</clus>
</clustering>
</event>
<event>
 6    1  0.9480355E-012  0.3000000E+03  0.7818608E-02  0.1093470E+00
          1   -1    0    0  502    0  0.00000000000E+00  0.00000000000E+00  0.23597983263E+03  0.23597983263E+03  0.00000000000E+00 0.  1.
         13   -1    0    0    0    0 -0.00000000000E+00 -0.00000000000E+00 -0.27500000000E+03  0.27500000000E+03  0.00000000000E+00 0.  1.
    9000005    2    1    2  501    0 -0.30117292855E+02 -0.50894828948E+01 -0.42747180405E+02  0.48020898943E+03  0.47732630132E+03 0.  0.
         13    1    3    3    0    0  0.91799855788E+02  0.51976826010E+02  0.18655387040E+03  0.21431553963E+03  0.00000000000E+00 0.  1.
          1    1    3    3  501    0 -0.12191714864E+03 -0.57066308904E+02 -0.22930105081E+03  0.26589344980E+03  0.00000000000E+00 0.  1.
         21    1    1    2  502  501  0.30117292855E+02  0.50894828948E+01  0.37270130359E+01  0.30770843200E+02  0.00000000000E+00 0. -1.
<scales pt_clust_4="550.00000" pt_clust_5="550.00000" pt_clust_6="30.54430"></scales>
<mgrwt>
<rscale>  0 0.30000000E+03</rscale>
<asrwt>  1 0.30544298E+02</asrwt>
<pdfrwt beam="1">  1        1 0.85810848E+00 0.30000000E+03</pdfrwt>
<pdfrwt beam="2">0</pdfrwt>
<totfact> 0.34754559E-04</totfact>
</mgrwt>
<clustering>
<clus scale="   30.544">  1  6  2 -1</clus>
<clus scale="  477.326">  4  5 -1 -1</clus>
<clus scale="  300.000">  1  4  2 -1</clus>
</clustering>
</event>
<event>
 6    1  0.9480355E-012  0.3000000E+03  0.7818608E-02  0.1093470E+00
          1   -1    0    0  502    0  0.00000000000E+00  0.00000000000E+00  0.26114837140E+03  0.26114837140E+03  0.00000000000E+00 0.  1.
         13   -1    0    0    0    0 -0.00000000000E+00 -0.00000000000E+00 -0.27500000000E+03  0.27500000000E+03  0.00000000000E+00 0.  1.
    9000005    2    1    2  501    0  0.30601866479E+02  0.26505360247E+02 -0.31273604063E+02  0.49207418867E+03  0.48940776505E+03 0.  0.
         13    1    3    3    0    0  0.24048649602E+03  0.14959138514E+02  0.80448428859E+02  0.25402653463E+03  0.00000000000E+00 0.  1.
          3    1    3    3  501    0 -0.20988462954E+03  0.11546221733E+02 -0.11172203292E+03  0.23804765404E+03  0.00000000000E+00 0.  1.
         21    1    1    2  502  501 -0.30601866479E+02 -0.26505360247E+02  0.17421975462E+02  0.44074182725E+02  0.00000000000E+00 0. -1.
<scales pt_clust_4="550.00000" pt_clust_5="550.00000" pt_clust_6="40.48467"></scales>
<mgrwt>
<rscale>  0 0.30000000E+03</rscale>
<asrwt>  1 0.40484668E+02</asrwt>
<pdfrwt beam="1">  1        1 0.94963044E+00 0.30000000E+03</pdfrwt>
<pdfrwt beam="2">0</pdfrwt>
<totfact> 0.12221470E-05</totfact>
</mgrwt>
<clustering>
<clus scale="   40.485">  1  6  2 -1</clus>
<clus scale="  489.408">  4  5 -1 -1</clus>
<clus scale="  300.000">  1  4  2 -1</clus>
</clustering>
</event>
<event>
 6    1  0.9480355E-012  0.3000000E+03  0.7818608E-02  0.1093470E+00
          1   -1    0    0  502    0  0.00000000000E+00  0.00000000000E+00  0.23803012922E+03  0.23803012922E+03  0.00000000000E+00 0.  1.
         13   -1    0    0    0    0 -0.00000000000E+00 -0.00000000000E+00 -0.27500000000E+03  0.27500000000E+03  0.00000000000E+00 0.  1.
    9000005    2    1    2  501    0 -0.31005683212E+02 -0.35949960966E+02 -0.24130857604E+02  0.46385094314E+03  0.46078373135E+03 0.  0.
         13    1    3    3    0    0 -0.82189578143E+02  0.10352927984E+03  0.17254795280E+03  0.21736198967E+03  0.00000000000E+00 0.  1.
          3    1    3    3  501    0  0.51183894931E+02 -0.13947924081E+03 -0.19667881040E+03  0.24648895346E+03  0.00000000000E+00 0.  1.
         21    1    1    2  502  501  0.31005683212E+02  0.35949960966E+02 -0.12839013174E+02  0.49179186087E+02  0.00000000000E+00 0.  1.
<scales pt_clust_4="550.00000" pt_clust_5="550.00000" pt_clust_6="47.47372"></scales>
<mgrwt>
<rscale>  0 0.30000000E+03</rscale>
<asrwt>  1 0.47473723E+02</asrwt>
<pdfrwt beam="1">  1        1 0.86556411E+00 0.30000000E+03</pdfrwt>
<pdfrwt beam="2">0</pdfrwt>
<totfact> 0.26654623E-04</totfact>
</mgrwt>
<clustering>
<clus scale="   47.474">  1  6  2 -1</clus>
<clus scale="  460.784">  4  5 -1 -1</clus>
<clus scale="  300.000">  1  4  2 -1</clus>
</clustering>
</event>
<event>
 6    1  0.9480355E-012  0.3000000E+03  0.7818608E-02  0.1093470E+00
          1   -1    0    0  502    0  0.00000000000E+00  0.00000000000E+00  0.23239125536E+03  0.23239125536E+03  0.00000000000E+00 0.  1.
         13   -1    0    0    0    0 -0.00000000000E+00 -0.00000000000E+00 -0.27500000000E+03  0.27500000000E+03  0.00000000000E+00 0.  1.
    9000005    2    1    2  501    0 -0.64702909826E+01 -0.32244257458E+02 -0.58480760964E+02  0.47087444134E+03  0.46606993391E+03 0.  0.
         13    1    3    3    0    0 -0.19949059655E+03 -0.13973992734E+03 -0.56029585334E+02  0.24992610876E+03  0.00000000000E+00 0.  1.
          1    1    3    3  501    0  0.19302030557E+03  0.10749566989E+03 -0.24511756300E+01  0.22094833258E+03  0.00000000000E+00 0.  1.
         21    1    1    2  502  501  0.64702909826E+01  0.32244257458E+02  0.15872016328E+02  0.36516814027E+02  0.00000000000E+00 0.  1.
<scales pt_clust_4="550.00000" pt_clust_5="550.00000" pt_clust_6="32.88703"></scales>
<mgrwt>
<rscale>  0 0.30000000E+03</rscale>
<asrwt>  1 0.32887031E+02</asrwt>
<pdfrwt beam="1">  1        1 0.84505911E+00 0.30000000E+03</pdfrwt>
<pdfrwt beam="2">0</pdfrwt>
<totfact> 0.45660414E-04</totfact>
</mgrwt>
<clustering>
<clus scale="   32.887">  1  6  2 -1</clus>
<clus scale="  466.070">  4  5 -1 -1</clus>
<clus scale="  300.000">  1  4  2 -1</clus>
</clustering>
</event>
<event>
 6    1  0.9480355E-012  0.3000000E+03  0.7818608E-02  0.1093470E+00
          1   -1    0    0  502    0  0.00000000000E+00  0.00000000000E+00  0.24130674582E+03  0.24130674582E+03  0.00000000000E+00 0.  1.
         13   -1    0    0    0    0 -0.00000000000E+00 -0.00000000000E+00 -0.27500000000E+03  0.27500000000E+03  0.00000000000E+00 0.  1.
    9000005    2    1    2  501    0 -0.35329670832E+02  0.58341067150E+01 -0.67268116020E+02  0.46722015101E+03  0.46096360771E+03 0.  0.
         13    1    3    3    0    0  0.56134126277E+02 -0.11735485205E+03 -0.21689020237E+03  0.25291216127E+03  0.00000000000E+00 0.  1.
          1    1    3    3  501    0 -0.91463797109E+02  0.12318895876E+03  0.14962208635E+03  0.21430798974E+03  0.00000000000E+00 0.  1.
         21    1    1    2  502  501  0.35329670832E+02 -0.58341067150E+01  0.33574861841E+02  0.49086594808E+02  0.00000000000E+00 0. -1.
<scales pt_clust_4="550.00000" pt_clust_5="550.00000" pt_clust_6="35.80813"></scales>
<mgrwt>
<rscale>  0 0.30000000E+03</rscale>
<asrwt>  1 0.35808134E+02</asrwt>
<pdfrwt beam="1">  1        1 0.87747908E+00 0.30000000E+03</pdfrwt>
<pdfrwt beam="2">0</pdfrwt>
<totfact> 0.21046709E-04</totfact>
</mgrwt>
<clustering>
<clus scale="   35.808">  1  6  2 -1</clus>
<clus scale="  460.964">  4  5 -1 -1</clus>
<clus scale="  300.000">  1  4  2 -1</clus>
</clustering>
</event>
<event>
 6    1  0.9480355E-012  0.3000000E+03  0.7818608E-02  0.1093470E+00
          1   -1    0    0  502    0  0.00000000000E+00  0.00000000000E+00  0.22078452106E+03  0.22078452106E+03  0.00000000000E+00 0.  1.
         13   -1    0    0    0    0 -0.00000000000E+00 -0.00000000000E+00 -0.27500000000E+03  0.27500000000E+03  0.00000000000E+00 0.  1.
    9000005    2    1    2  501    0  0.65406474844E+01  0.29359781480E+02 -0.67074107351E+02  0.46307181462E+03  0.45719994836E+03 0.  0.
         13    1    3    3    0    0  0.36043891256E+02 -0.16823992492E+03 -0.16692065245E+03  0.23972137712E+03  0.00000000000E+00 0.  1.
          3    1    3    3  501    0 -0.29503243772E+02  0.19759970640E+03  0.99846545101E+02  0.22335043750E+03  0.00000000000E+00 0.  1.
         21    1    1    2  502  501 -0.65406474844E+01 -0.29359781480E+02  0.12858628406E+02  0.32712706439E+02  0.00000000000E+00 0. -1.
<scales pt_clust_4="550.00000" pt_clust_5="550.00000" pt_clust_6="30.07951"></scales>
<mgrwt>
<rscale>  0 0.30000000E+03</rscale>
<asrwt>  1 0.30079509E+02</asrwt>
<pdfrwt beam="1">  1        1 0.80285280E+00 0.30000000E+03</pdfrwt>
<pdfrwt beam="2">0</pdfrwt>
<totfact> 0.10175007E-03</totfact>
</mgrwt>
<clustering>
<clus scale="   30.080">  1  6  2 -1</clus>
<clus scale="  457.200">  4  5 -1 -1</clus>
<clus scale="  300.000">  1  4  2 -1</clus>
</clustering>
</event>
<event>
 6    1  0.9480355E-012  0.3000000E+03  0.7818608E-02  0.1093470E+00
          1   -1    0    0  502    0  0.00000000000E+00  0.00000000000E+00  0.24156223264E+03  0.24156223264E+03  0.00000000000E+00 0.  1.
         13   -1    0    0    0    0 -0.00000000000E+00 -0.00000000000E+00 -0.27500000000E+03  0.27500000000E+03  0.00000000000E+00 0.  1.
    9000005    2    1    2  501    0  0.14068615443E+02 -0.31079288848E+02 -0.25064708421E+02  0.48143451920E+03  0.47956971186E+03 0.  0.
         13    1    3    3    0    0 -0.55624042767E+02  0.11758884062E+03  0.17789137288E+03  0.22037810716E+03  0.00000000000E+00 0.  1.
          3    1    3    3  501    0  0.69692658209E+02 -0.14866812946E+03 -0.20295608130E+03  0.26105641204E+03  0.00000000000E+00 0.  1.
         21    1    1    2  502  501 -0.14068615443E+02  0.31079288848E+02 -0.83730589364E+01  0.35127713443E+02  0.00000000000E+00 0.  1.
<scales pt_clust_4="550.00000" pt_clust_5="550.00000" pt_clust_6="34.11524"></scales>
<mgrwt>
<rscale>  0 0.30000000E+03</rscale>
<asrwt>  1 0.34115236E+02</asrwt>
<pdfrwt beam="1">  1        1 0.87840812E+00 0.30000000E+03</pdfrwt>
<pdfrwt beam="2">0</pdfrwt>
<totfact> 0.20724036E-04</totfact>
</mgrwt>
<clustering>
<clus scale="   34.115">  1  6  2 -1</clus>
<clus scale="  479.570">  4  5 -1 -1</clus>
<clus scale="  300.000">  1  4  2 -1</clus>
</clustering>
</event>
<event>
 6    1  0.9480355E-012  0.3000000E+03  0.7818608E-02  0.1093470E+00
          1   -1    0    0  502    0  0.00000000000E+00  0.00000000000E+00  0.22818139208E+03  0.22818139208E+03  0.00000000000E+00 0.  1.
         13   -1    0    0    0    0 -0.00000000000E+00 -0.00000000000E+00 -0.27500000000E+03  0.27500000000E+03  0.00000000000E+00 0.  1.
    9000005    2    1    2  501    0 -0.20403549596E+02  0.28699766978E+02 -0.64526779528E+02  0.46376615642E+03  0.45790322242E+03 0.  0.
         13    1    3    3    0    0 -0.11624657133E+03  0.21800269079E+03 -0.32976621418E+02  0.24925066920E+03  0.00000000000E+00 0.  1.
          1    1    3    3  501    0  0.95843021733E+02 -0.18930292381E+03 -0.31550158110E+02  0.21451548722E+03  0.00000000000E+00 0.  1.
         21    1    1    2  502  501  0.20403549596E+02 -0.28699766978E+02  0.17708171607E+02  0.39415235663E+02  0.00000000000E+00 0. -1.
<scales pt_clust_4="550.00000" pt_clust_5="550.00000" pt_clust_6="35.21337"></scales>
<mgrwt>
<rscale>  0 0.30000000E+03</rscale>
<asrwt>  1 0.35213370E+02</asrwt>
<pdfrwt beam="1">  1        1 0.82975052E+00 0.30000000E+03</pdfrwt>
<pdfrwt beam="2">0</pdfrwt>
<totfact> 0.59315734E-04</totfact>
</mgrwt>
<clustering>
<clus scale="   35.213">  1  6  2 -1</clus>
<clus scale="  457.903">  4  5 -1 -1</clus>
<clus scale="  300.000">  1  4  2 -1</clus>
</clustering>
</event>
<event>
 6    1  0.9480355E-012  0.3000000E+03  0.7818608E-02  0.1093470E+00
          1   -1    0    0  502    0  0.00000000000E+00  0.00000000000E+00  0.22954586827E+03  0.22954586827E+03  0.00000000000E+00 0.  1.
         13   -1    0    0    0    0 -0.00000000000E+00 -0.00000000000E+00 -0.27500000000E+03  0.27500000000E+03  0.00000000000E+00 0.  1.
    9000005    2    1    2  501    0 -0.26485934661E+02  0.15365411952E+02 -0.32431731109E+02  0.47127150069E+03  0.46915606099E+03 0.  0.
         13    1    3    3    0    0  0.86418091089E+02  0.20347112033E+03 -0.98696992357E+02  0.24209436090E+03  0.00000000000E+00 0.  1.
          3    1    3    3  501    0 -0.11290402575E+03 -0.18810570838E+03  0.66265261248E+02  0.22917713980E+03  0.00000000000E+00 0.  1.
         21    1    1    2  502  501  0.26485934661E+02 -0.15365411952E+02 -0.13022400626E+02  0.33274367573E+02  0.00000000000E+00 0. -1.
<scales pt_clust_4="550.00000" pt_clust_5="550.00000" pt_clust_6="30.62028"></scales>
<mgrwt>
<rscale>  0 0.30000000E+03</rscale>
<asrwt>  1 0.30620280E+02</asrwt>
<pdfrwt beam="1">  1        1 0.83471225E+00 0.30000000E+03</pdfrwt>
<pdfrwt beam="2">0</pdfrwt>
<totfact> 0.55755684E-04</totfact>
</mgrwt>
<clustering>
<clus scale="   30.620">  1  6  2 -1</clus>
<clus scale="  469.156">  4  5 -1 -1</clus>
<clus scale="  300.000">  1  4  2 -1</clus>
</clustering>
</event>
<event>
 6    1  0.9480355E-012  0.3000000E+03  0.7818608E-02  0.1093470E+00
          1   -1    0    0  502    0  0.00000000000E+00  0.00000000000E+00  0.24695727195E+03  0.24695727195E+03  0.00000000000E+00 0.  1.
         13   -1    0    0    0    0 -0.00000000000E+00 -0.00000000000E+00 -0.27500000000E+03  0.27500000000E+03  0.00000000000E+00 0.  1.
    9000005    2    1    2  501    0  0.50681560020E+01 -0.30496569870E+02 -0.30801133086E+02  0.49091962099E+03  0.48897611137E+03 0.  0.
         13    1    3    3    0    0  0.37691812241E+02 -0.25765390485E+03 -0.20456968233E+02  0.26119857378E+03  0.00000000000E+00 0.  1.
          3    1    3    3  501    0 -0.32623656239E+02  0.22715733498E+03 -0.10344164852E+02  0.22972104721E+03  0.00000000000E+00 0.  1.
         21    1    1    2  502  501 -0.50681560020E+01  0.30496569870E+02  0.27584050394E+01  0.31037650966E+02  0.00000000000E+00 0.  1.
<scales pt_clust_4="550.00000" pt_clust_5="550.00000" pt_clust_6="30.91483"></scales>
<mgrwt>
<rscale>  0 0.30000000E+03</rscale>
<asrwt>  1 0.30914834E+02</asrwt>
<pdfrwt beam="1">  1        1 0.89802644E+00 0.30000000E+03</pdfrwt>
<pdfrwt beam="2">0</pdfrwt>
<totfact> 0.11937679E-04</totfact>
</mgrwt>
<clustering>
<clus scale="   30.915">  1  6  2 -1</clus>
<clus scale="  488.976">  4  5 -1 -1</clus>
<clus scale="  300.000">  1  4  2 -1</clus>
</clustering>
</event>
<event>
 6    1  0.9480355E-012  0.3000000E+03  0.7818608E-02  0.1093470E+00
          1   -1    0    0  502    0  0.00000000000E+00  0.00000000000E+00  0.23192463781E+03  0.23192463781E+03  0.00000000000E+00 0.  1.
         13   -1    0    0    0    0 -0.00000000000E+00 -0.00000000000E+00 -0.27500000000E+03  0.27500000000E+03  0.00000000000E+00 0.  1.
    9000005    2    1    2  501    0  0.11418693378E+02 -0.38297940811E+02 -0.57193943208E+02  0.46454005148E+03  0.45927028367E+03 0.  0.
         13    1    3    3    0    0  0.79694114053E+02 -0.22561457031E+03 -0.10214035044E+03  0.26016482725E+03  0.00000000000E+00 0.  1.
          3    1    3    3  501    0 -0.68275420675E+02  0.18731662950E+03  0.44946407235E+02  0.20437522423E+03  0.00000000000E+00 0.  1.
         21    1    1    2  502  501 -0.11418693378E+02  0.38297940811E+02  0.14118581021E+02  0.42384586336E+02  0.00000000000E+00 0.  1.
<scales pt_clust_4="550.00000" pt_clust_5="550.00000" pt_clust_6="39.96397"></scales>
<mgrwt>
<rscale>  0 0.30000000E+03</rscale>
<asrwt>  1 0.39963969E+02</asrwt>
<pdfrwt beam="1">  1        1 0.84336232E+00 0.30000000E+03</pdfrwt>
<pdfrwt beam="2">0</pdfrwt>
<totfact> 0.45544128E-04</totfact>
</mgrwt>
<clustering>
<clus scale="   39.964">  1  6  2 -1</clus>
<clus scale="  459.270">  4  5 -1 -1</clus>
<clus scale="  300.000">  1  4  2 -1</clus>
</clustering>
</event>
<event>
 6    1  0.9480355E-012  0.3000000E+03  0.7818608E-02  0.1093470E+00
          1   -1    0    0  502    0  0.00000000000E+00  0.00000000000E+00  0.23927712108E+03  0.23927712108E+03  0.00000000000E+00 0.  1.
         13   -1    0    0    0    0 -0.00000000000E+00 -0.00000000000E+00 -0.27500000000E+03  0.27500000000E+03  0.00000000000E+00 0.  1.
    9000005    2    1    2  501    0  0.16257262358E+02  0.30738451734E+02 -0.57889332980E+02  0.47303996938E+03  0.46819492390E+03 0.  0.
         13    1    3    3    0    0  0.19980830939E+03 -0.10566518759E+03 -0.87648003018E+02  0.24242661736E+03  0.00000000000E+00 0.  1.
          1    1    3    3  501    0 -0.18355104703E+03  0.13640363933E+03  0.29758670038E+02  0.23061335202E+03  0.00000000000E+00 0.  1.
         21    1    1    2  502  501 -0.16257262358E+02 -0.30738451734E+02  0.22166454059E+02  0.41237151696E+02  0.00000000000E+00 0.  1.
<scales pt_clust_4="550.00000" pt_clust_5="550.00000" pt_clust_6="34.77285"></scales>
<mgrwt>
<rscale>  0 0.30000000E+03</rscale>
<asrwt>  1 0.34772849E+02</asrwt>
<pdfrwt beam="1">  1        1 0.87009862E+00 0.30000000E+03</pdfrwt>
<pdfrwt beam="2">0</pdfrwt>
<totfact> 0.25297195E-04</totfact>
</mgrwt>
<clustering>
<clus scale="   34.773">  1  6  2 -1</clus>
<clus scale="  468.195">  4  5 -1 -1</clus>
<clus scale="  300.000">  1  4  2 -1</clus>
</clustering>
</event>
<event>
 6    1  0.9480355E-012  0.3000000E+03  0.7818608E-02  0.1093470E+00
          1   -1    0    0  502    0  0.00000000000E+00  0.00000000000E+00  0.23181843395E+03  0.23181843395E+03  0.00000000000E+00 0.  1.
         13   -1    0    0    0    0 -0.00000000000E+00 -0.00000000000E+00 -0.27500000000E+03  0.27500000000E+03  0.00000000000E+00 0.  1.
    9000005    2    1    2  501    0  0.74584511753E+01  0.29789279057E+02 -0.59629107373E+02  0.47198237137E+03  0.46719235738E+03 0.  0.
         13    1    3    3    0    0 -0.20546469306E+02  0.11724224916E+03  0.17975406234E+03  0.21559087484E+03  0.00000000000E+00 0.  1.
          3    1    3    3  501    0  0.28004920481E+02 -0.87452970098E+02 -0.23938316971E+03  0.25639149653E+03  0.00000000000E+00 0.  1.
         21    1    1    2  502  501 -0.74584511753E+01 -0.29789279057E+02  0.16447541325E+02  0.34836062584E+02  0.00000000000E+00 0. -1.
<scales pt_clust_4="550.00000" pt_clust_5="550.00000" pt_clust_6="30.70879"></scales>
<mgrwt>
<rscale>  0 0.30000000E+03</rscale>
<asrwt>  1 0.30708788E+02</asrwt>
<pdfrwt beam="1">  1        1 0.84297612E+00 0.30000000E+03</pdfrwt>
<pdfrwt beam="2">0</pdfrwt>
<totfact> 0.48205473E-04</totfact>
</mgrwt>
<clustering>
<clus scale="   30.709">  1  6  2 -1</clus>
<clus scale="  467.192">  4  5 -1 -1</clus>
<clus scale="  300.000">  1  4  2 -1</clus>
</clustering>
</event>
<event>
 6    1  0.9480355E-012  0.3000000E+03  0.7818608E-02  0.1093470E+00
          1   -1    0    0  502    0  0.00000000000E+00  0.00000000000E+00  0.24843760638E+03  0.24843760638E+03  0.00000000000E+00 0.  1.
         13   -1    0    0    0    0 -0.00000000000E+00 -0.00000000000E+00 -0.27500000000E+03  0.27500000000E+03  0.00000000000E+00 0.  1.
    9000005    2    1    2  501    0 -0.31762386922E+01 -0.55346668028E+02 -0.44320535103E+02  0.46522511852E+03  0.45977903271E+03 0.  0.
         13    1    3    3    0    0  0.15243174426E+03  0.53818876878E+02 -0.17215574978E+03  0.23615569091E+03  0.00000000000E+00 0.  1.
          1    1    3    3  501    0 -0.15560798295E+03 -0.10916554491E+03  0.12783521468E+03  0.22906942761E+03  0.00000000000E+00 0.  1.
         21    1    1    2  502  501  0.31762386922E+01  0.55346668028E+02  0.17758141485E+02  0.58212487861E+02  0.00000000000E+00 0.  1.
<scales pt_clust_4="550.00000" pt_clust_5="550.00000" pt_clust_6="55.43773"></scales>
<mgrwt>
<rscale>  0 0.30000000E+03</rscale>
<asrwt>  1 0.55437732E+02</asrwt>
<pdfrwt beam="1">  1        1 0.90340948E+00 0.30000000E+03</pdfrwt>
<pdfrwt beam="2">0</pdfrwt>
<totfact> 0.90867506E-05</totfact>
</mgrwt>
<clustering>
<clus scale="   55.438">  1  6  2 -1</clus>
<clus scale="  459.779">  4  5 -1 -1</clus>
<clus scale="  300.000">  1  4  2 -1</clus>
</clustering>
</event>
<event>
 6    1  0.9480355E-012  0.3000000E+03  0.7818608E-02  0.1093470E+00
          1   -1    0    0  502    0  0.00000000000E+00  0.00000000000E+00  0.23243684715E+03  0.23243684715E+03  0.00000000000E+00 0.  1.
         13   -1    0    0    0    0 -0.00000000000E+00 -0.00000000000E+00 -0.27500000000E+03  0.27500000000E+03  0.00000000000E+00 0.  1.
    9000005    2    1    2  501    0 -0.32902937489E+02  0.17078913693E+02 -0.59683122419E+02  0.46660320971E+03  0.46128319677E+03 0.  0.
         13    1    3    3    0    0 -0.21719553739E+03  0.29273028662E+02 -0.14538013886E+03  0.26299466999E+03  0.00000000000E+00 0.  1.
          1    1    3    3  501    0  0.18429259990E+03 -0.12194114969E+02  0.85697016439E+02  0.20360853972E+03  0.00000000000E+00 0.  1.
         21    1    1    2  502  501  0.32902937489E+02 -0.17078913693E+02  0.17119969565E+02  0.40833637436E+02  0.00000000000E+00 0. -1.
<scales pt_clust_4="550.00000" pt_clust_5="550.00000" pt_clust_6="37.07145"></scales>
<mgrwt>
<rscale>  0 0.30000000E+03</rscale>
<asrwt>  1 0.37071452E+02</asrwt>
<pdfrwt beam="1">  1        1 0.84522490E+00 0.30000000E+03</pdfrwt>
<pdfrwt beam="2">0</pdfrwt>
<totfact> 0.44499384E-04</totfact>
</mgrwt>
<clustering>
<clus scale="   37.071">  1  6  2 -1</clus>
<clus scale="  461.283">  4  5 -1 -1</clus>
<clus scale="  300.000">  1  4  2 -1</clus>
</clustering>
</event>
<event>
 6    1  0.9480355E-012  0.3000000E+03  0.7818608E-02  0.1093470E+00
          1   -1    0    0  502    0  0.00000000000E+00  0.00000000000E+00  0.23189626752E+03  0.23189626752E+03  0.00000000000E+00 0.  1.
         13   -1    0    0    0    0 -0.00000000000E+00 -0.00000000000E+00 -0.27500000000E+03  0.27500000000E+03  0.00000000000E+00 0.  1.
    9000005    2    1    2  501    0 -0.15738155145E+02 -0.28903477748E+02 -0.31674616261E+02  0.47205770769E+03  0.46984263059E+03 0.  0.
         13    1    3    3    0    0  0.10833104109E+03 -0.41488359041E+02  0.18715396437E+03  0.22018970180E+03  0.00000000000E+00 0.  1.
          1    1    3    3  501    0 -0.12406919624E+03  0.12584881293E+02 -0.21882858063E+03  0.25186800589E+03  0.00000000000E+00 0.  1.
         21    1    1    2  502  501  0.15738155145E+02  0.28903477748E+02 -0.11429116222E+02  0.34838559829E+02  0.00000000000E+00 0.  1.
<scales pt_clust_4="550.00000" pt_clust_5="550.00000" pt_clust_6="32.91051"></scales>
<mgrwt>
<rscale>  0 0.30000000E+03</rscale>
<asrwt>  1 0.32910510E+02</asrwt>
<pdfrwt beam="1">  1        1 0.84325915E+00 0.30000000E+03</pdfrwt>
<pdfrwt beam="2">0</pdfrwt>
<totfact> 0.47312763E-04</totfact>
</mgrwt>
<clustering>
<clus scale="   32.911">  1  6  2 -1</clus>
<clus scale="  469.843">  4  5 -1 -1</clus>
<clus scale="  300.000">  1  4  2 -1</clus>
</clustering>
</event>
<event>
 6    1  0.9480355E-012  0.3000000E+03  0.7818608E-02  0.1093470E+00
          1   -1    0    0  502    0  0.00000000000E+00  0.00000000000E+00  0.24403763853E+03  0.24403763853E+03  0.00000000000E+00 0.  1.
         13   -1    0    0    0    0 -0.00000000000E+00 -0.00000000000E+00 -0.27500000000E+03  0.27500000000E+03  0.00000000000E+00 0.  1.
    9000005    2    1    2  501    0  0.38801656836E+02 -0.20886994453E+02 -0.12565449575E+02  0.47128534562E+03  0.46905239725E+03 0.  0.
         13    1    3    3    0    0  0.48858124952E+02 -0.23738732161E+02  0.22602773713E+03  0.23246329115E+03  0.00000000000E+00 0.  1.
          3    1    3    3  501    0 -0.10056468116E+02  0.28517377080E+01 -0.23859318671E+03  0.23882205447E+03  0.00000000000E+00 0.  1.
         21    1    1    2  502  501 -0.38801656836E+02  0.20886994453E+02 -0.18396911895E+02  0.47752292906E+02  0.00000000000E+00 0.  1.
<scales pt_clust_4="550.00000" pt_clust_5="550.00000" pt_clust_6="44.06628"></scales>
<mgrwt>
<rscale>  0 0.30000000E+03</rscale>
<asrwt>  1 0.44066280E+02</asrwt>
<pdfrwt beam="1">  1        1 0.88740959E+00 0.30000000E+03</pdfrwt>
<pdfrwt beam="2">0</pdfrwt>
<totfact> 0.15071788E-04</totfact>
</mgrwt>
<clustering>
<clus scale="   44.066">  1  6  2 -1</clus>
<clus scale="  469.052">  4  5 -1 -1</clus>
<clus scale="  300.000">  1  4  2 -1</clus>
</clustering>
</event>
<event>
 6    1  0.9480355E-012  0.3000000E+03  0.7818608E-02  0.1093470E+00
          1   -1    0    0  502    0  0.00000000000E+00  0.00000000000E+00  0.23522177753E+03  0.23522177753E+03  0.00000000000E+00 0.  1.
         13   -1    0    0    0    0 -0.00000000000E+00 -0.00000000000E+00 -0.27500000000E+03  0.27500000000E+03  0.00000000000E+00 0.  1.
    9000005    2    1    2  501    0 -0.31326981204E+02 -0.30686349311E+02 -0.54915981126E+02  0.46383014550E+03  0.45847530698E+03 0.  0.
         13    1    3    3    0    0 -0.88518913722E+02 -0.87802455554E+02  0.17798070996E+03  0.21730624107E+03  0.00000000000E+00 0.  1.
          1    1    3    3  501    0  0.57191932518E+02  0.57116106243E+02 -0.23289669109E+03  0.24652390443E+03  0.00000000000E+00 0.  1.
         21    1    1    2  502  501  0.31326981204E+02  0.30686349311E+02  0.15137758657E+02  0.46391632031E+02  0.00000000000E+00 0.  1.
<scales pt_clust_4="550.00000" pt_clust_5="550.00000" pt_clust_6="43.85239"></scales>
<mgrwt>
<rscale>  0 0.30000000E+03</rscale>
<asrwt>  1 0.43852386E+02</asrwt>
<pdfrwt beam="1">  1        1 0.85535192E+00 0.30000000E+03</pdfrwt>
<pdfrwt beam="2">0</pdfrwt>
<totfact> 0.34678586E-04</totfact>
</mgrwt>
<clustering>
<clus scale="   43.852">  1  6  2 -1</clus>
<clus scale="  458.475">  4  5 -1 -1</clus>
<clus scale="  300.000">  1  4  2 -1</clus>
</clustering>
</event>
<event>
 6    1  0.9480355E-012  0.3000000E+03  0.7818608E-02  0.1093470E+00
          1   -1    0    0  502    0  0.00000000000E+00  0.00000000000E+00  0.24673173982E+03  0.24673173982E+03  0.00000000000E+00 0.  1.
         13   -1    0    0    0    0 -0.00000000000E+00 -0.00000000000E+00 -0.27500000000E+03  0.27500000000E+03  0.00000000000E+00 0.  1.
    9000005    2    1    2  501    0  0.24826920300E+02 -0.17902946339E+02 -0.54885253571E+02  0.48116875428E+03  0.47704725926E+03 0.  0.
         13    1    3    3    0    0 -0.14754754952E+03 -0.13024343378E+03 -0.15673070963E+03  0.25159122949E+03  0.00000000000E+00 0.  1.
          1    1    3    3  501    0  0.17237446983E+03  0.11234048744E+03  0.10184545606E+03  0.22957752479E+03  0.00000000000E+00 0.  1.
         21    1    1    2  502  501 -0.24826920300E+02  0.17902946339E+02  0.26616993396E+02  0.40562985549E+02  0.00000000000E+00 0. -1.
<scales pt_clust_4="550.00000" pt_clust_5="550.00000" pt_clust_6="30.60868"></scales>
<mgrwt>
<rscale>  0 0.30000000E+03</rscale>
<asrwt>  1 0.30608683E+02</asrwt>
<pdfrwt beam="1">  1        1 0.89720633E+00 0.30000000E+03</pdfrwt>
<pdfrwt beam="2">0</pdfrwt>
<totfact> 0.12219791E-04</totfact>
</mgrwt>
<clustering>
<clus scale="   30.609">  1  6  2 -1</clus>
<clus scale="  477.047">  4  5 -1 -1</clus>
<clus scale="  300.000">  1  4  2 -1</clus>
</clustering>
</event>
<event>
 6    1  0.9480355E-012  0.3000000E+03  0.7818608E-02  0.1093470E+00
          1   -1    0    0  502    0  0.00000000000E+00  0.00000000000E+00  0.26198725120E+03  0.26198725120E+03  0.00000000000E+00 0.  1.
         13   -1    0    0    0    0 -0.00000000000E+00 -0.00000000000E+00 -0.27500000000E+03  0.27500000000E+03  0.00000000000E+00 0.  1.
    9000005    2    1    2  501    0 -0.33338284160E+02  0.82482306628E+00 -0.50260621256E+02  0.48699199616E+03  0.48324212643E+03 0.  0.
         13    1    3    3    0    0 -0.17248569792E+03  0.66556323591E+02 -0.19993739405E+03  0.27231603283E+03  0.00000000000E+00 0.  1.
          3    1    3    3  501    0  0.13914741376E+03 -0.65731500525E+02  0.14967677280E+03  0.21467596333E+03  0.00000000000E+00 0.  1.
         21    1    1    2  502  501  0.33338284160E+02 -0.82482306628E+00  0.37247872455E+02  0.49995255037E+02  0.00000000000E+00 0.  1.
<scales pt_clust_4="550.00000" pt_clust_5="550.00000" pt_clust_6="33.34849"></scales>
<mgrwt>
<rscale>  0 0.30000000E+03</rscale>
<asrwt>  1 0.33348486E+02</asrwt>
<pdfrwt beam="1">  1        1 0.95268091E+00 0.30000000E+03</pdfrwt>
<pdfrwt beam="2">0</pdfrwt>
<totfact> 0.10958942E-05</totfact>
</mgrwt>
<clustering>
<clus scale="   33.348">  1  6  2 -1</clus>
<clus scale="  483.242">  4  5 -1 -1</clus>
<clus scale="  300.000">  1  4  2 -1</clus>
</clustering>
</event>
<event>
 6    1  0.9480355E-012  0.3000000E+03  0.7818608E-02  0.1093470E+00
          1   -1    0    0  502    0  0.00000000000E+00  0.00000000000E+00  0.22074043402E+03  0.22074043402E+03  0.00000000000E+00 0.  1.
         13   -1    0    0    0    0 -0.00000000000E+00 -0.00000000000E+00 -0.27500000000E+03  0.27500000000E+03  0.00000000000E+00 0.  1.
    9000005    2    1    2  501    0  0.25198055559E+02  0.20149385560E+02 -0.61193660953E+02  0.46274010955E+03  0.45753994919E+03 0.  0.
         13    1    3    3    0    0 -0.15940018172E+03  0.16049387263E+03 -0.41901230506E+02  0.23004872137E+03  0.00000000000E+00 0.  1.
          1    1    3    3  501    0  0.18459823728E+03 -0.14034448707E+03 -0.19292430447E+02  0.23269138818E+03  0.00000000000E+00 0.  1.
         21    1    1    2  502  501 -0.25198055559E+02 -0.20149385560E+02  0.69340949771E+01  0.33000324476E+02  0.00000000000E+00 0. -1.
<scales pt_clust_4="550.00000" pt_clust_5="550.00000" pt_clust_6="32.26360"></scales>
<mgrwt>
<rscale>  0 0.30000000E+03</rscale>
<asrwt>  1 0.32263598E+02</asrwt>
<pdfrwt beam="1">  1        1 0.80269249E+00 0.30000000E+03</pdfrwt>
<pdfrwt beam="2">0</pdfrwt>
<totfact> 0.10066746E-03</totfact>
</mgrwt>
<clustering>
<clus scale="   32.264">  1  6  2 -1</clus>
<clus scale="  457.540">  4  5 -1 -1</clus>
<clus scale="  300.000">  1  4  2 -1</clus>
</clustering>
</event>
<event>
 6    1  0.9480355E-012  0.3000000E+03  0.7818608E-02  0.1093470E+00
          1   -1    0    0  502    0  0.00000000000E+00  0.00000000000E+00  0.23806769485E+03  0.23806769485E+03  0.00000000000E+00 0.  1.
         13   -1    0    0    0    0 -0.00000000000E+00 -0.00000000000E+00 -0.27500000000E+03  0.27500000000E+03  0.00000000000E+00 0.  1.
    9000005    2    1    2  501    0  0.34009359154E+02 -0.81691997479E+01 -0.55877534135E+02  0.47328963512E+03  0.46867622892E+03 0.  0.
         13    1    3    3    0    0  0.17623576833E+03 -0.74916061547E+02 -0.18774155204E+03  0.26817597335E+03  0.00000000000E+00 0.  1.
          3    1    3    3  501    0 -0.14222640917E+03  0.66746861800E+02  0.13186401791E+03  0.20511366177E+03  0.00000000000E+00 0.  1.
         21    1    1    2  502  501 -0.34009359154E+02  0.81691997479E+01  0.18945228985E+02  0.39778059731E+02  0.00000000000E+00 0.  1.
<scales pt_clust_4="550.00000" pt_clust_5="550.00000" pt_clust_6="34.97674"></scales>
<mgrwt>
<rscale>  0 0.30000000E+03</rscale>
<asrwt>  1 0.34976740E+02</asrwt>
<pdfrwt beam="1">  1        1 0.86570071E+00 0.30000000E+03</pdfrwt>
<pdfrwt beam="2">0</pdfrwt>
<totfact> 0.28083202E-04</totfact>
</mgrwt>
<clustering>
<clus scale="   34.977">  1  6  2 -1</clus>
<clus scale="  468.676">  4  5 -1 -1</clus>
<clus scale="  300.000">  1  4  2 -1</clus>
</clustering>
</event>
<event>
 6    1  0.9480355E-012  0.3000000E+03  0.7818608E-02  0.1093470E+00
          1   -1    0    0  502    0  0.00000000000E+00  0.00000000000E+00  0.22952848409E+03  0.22952848409E+03  0.00000000000E+00 0.  1.
         13   -1    0    0    0    0 -0.00000000000E+00 -0.00000000000E+00 -0.27500000000E+03  0.27500000000E+03  0.00000000000E+00 0.  1.
    9000005    2    1    2  501    0  0.19128077218E+01 -0.40052813897E+02 -0.42183090502E+02  0.46429540720E+03  0.46063317867E+03 0.  0.
         13    1    3    3    0    0 -0.58546537881E+02  0.18823765543E+03 -0.10016622719E+03  0.22112074776E+03  0.00000000000E+00 0.  1.
          3    1    3    3  501    0  0.60459345603E+02 -0.22829046932E+03  0.57983136690E+02  0.24317465944E+03  0.00000000000E+00 0.  1.
         21    1    1    2  502  501 -0.19128077218E+01  0.40052813897E+02 -0.32884254082E+01  0.40233076891E+02  0.00000000000E+00 0. -1.
<scales pt_clust_4="550.00000" pt_clust_5="550.00000" pt_clust_6="40.09846"></scales>
<mgrwt>
<rscale>  0 0.30000000E+03</rscale>
<asrwt>  1 0.40098463E+02</asrwt>
<pdfrwt beam="1">  1        1 0.83464903E+00 0.30000000E+03</pdfrwt>
<pdfrwt beam="2">0</pdfrwt>
<totfact> 0.53069728E-04</totfact>
</mgrwt>
<clustering>
<clus scale="   40.098">  1  6  2 -1</clus>
<clus scale="  460.633">  4  5 -1 -1</clus>
<clus scale="  300.000">  1  4  2 -1</clus>
</clustering>
</event>
<event>
 6    1  0.9480355E-012  0.3000000E+03  0.7818608E-02  0.1093470E+00
          1   -1    0    0  502    0  0.00000000000E+00  0.00000000000E+00  0.24008153520E+03  0.24008153520E+03  0.00000000000E+00 0.  1.
         13   -1    0    0    0    0 -0.00000000000E+00 -0.00000000000E+00 -0.27500000000E+03  0.27500000000E+03  0.00000000000E+00 0.  1.
    9000005    2    1    2  501    0  0.34330517621E+02  0.21365897400E+02 -0.67142337825E+02  0.46337598420E+03  0.45669916049E+03 0.  0.
         13    1    3    3    0    0 -0.19950721466E+02  0.15346510102E+03 -0.21033742146E+03  0.26113482990E+03  0.00000000000E+00 0.  1.
          3    1    3    3  501    0  0.54281239087E+02 -0.13209920362E+03  0.14319508364E+03  0.20224115430E+03  0.00000000000E+00 0.  1.
         21    1    1    2  502  501 -0.34330517621E+02 -0.21365897400E+02  0.32223873023E+02  0.51705551002E+02  0.00000000000E+00 0.  1.
<scales pt_clust_4="550.00000" pt_clust_5="550.00000" pt_clust_6="40.43620"></scales>
<mgrwt>
<rscale>  0 0.30000000E+03</rscale>
<asrwt>  1 0.40436197E+02</asrwt>
<pdfrwt beam="1">  1        1 0.87302376E+00 0.30000000E+03</pdfrwt>
<pdfrwt beam="2">0</pdfrwt>
<totfact> 0.22964569E-04</totfact>
</mgrwt>
<clustering>
<clus scale="   40.436">  1  6  2 -1</clus>
<clus scale="  456.699">  4  5 -1 -1</clus>
<clus scale="  300.000">  1  4  2 -1</clus>
</clustering>
</event>
<event>
 6    1  0.9480355E-012  0.3000000E+03  0.7818608E-02  0.1093470E+00
          1   -1    0    0  502    0  0.00000000000E+00  0.00000000000E+00  0.22498803423E+03  0.22498803423E+03  0.00000000000E+00 0.  1.
         13   -1    0    0    0    0 -0.00000000000E+00 -0.00000000000E+00 -0.27500000000E+03  0.27500000000E+03  0.00000000000E+00 0.  1.
    9000005    2    1    2  501    0 -0.19937807588E+02 -0.23923839767E+02 -0.49098844647E+02  0.46883197429E+03  0.46521270113E+03 0.  0.
         13    1    3    3    0    0 -0.18550066098E+03  0.14031584323E+03 -0.34864422829E+02  0.23519047400E+03  0.00000000000E+00 0.  1.
          1    1    3    3  501    0  0.16556285339E+03 -0.16423968299E+03 -0.14234421819E+02  0.23364150029E+03  0.00000000000E+00 0.  1.
         21    1    1    2  502  501  0.19937807588E+02  0.23923839767E+02 -0.91312112382E+00  0.31156059937E+02  0.00000000000E+00 0. -1.
<scales pt_clust_4="550.00000" pt_clust_5="550.00000" pt_clust_6="31.14268"></scales>
<mgrwt>
<rscale>  0 0.30000000E+03</rscale>
<asrwt>  1 0.31142676E+02</asrwt>
<pdfrwt beam="1">  1        1 0.81813831E+00 0.30000000E+03</pdfrwt>
<pdfrwt beam="2">0</pdfrwt>
<totfact> 0.76696415E-04</totfact>
</mgrwt>
<clustering>
<clus scale="   31.143">  1  6  2 -1</clus>
<clus scale="  465.213">  4  5 -1 -1</clus>
<clus scale="  300.000">  1  4  2 -1</clus>
</clustering>
</event>
<event>
 6    1  0.9480355E-012  0.3000000E+03  0.7818608E-02  0.1093470E+00
          1   -1    0    0  502    0  0.00000000000E+00  0.00000000000E+00  0.22265993703E+03  0.22265993703E+03  0.00000000000E+00 0.  1.
         13   -1    0    0    0    0 -0.00000000000E+00 -0.00000000000E+00 -0.27500000000E+03  0.27500000000E+03  0.00000000000E+00 0.  1.
    9000005    2    1    2  501    0 -0.19989562359E+02 -0.26159178923E+02 -0.61429525697E+02  0.46350582193E+03  0.45823593824E+03 0.  0.
         13    1    3    3    0    0 -0.63934370757E+02  0.16256036986E+03 -0.16800540308E+03  0.24236190517E+03  0.00000000000E+00 0.  1.
          1    1    3    3  501    0  0.43944808398E+02 -0.18871954879E+03  0.10657587739E+03  0.22114391676E+03  0.00000000000E+00 0.  1.
         21    1    1    2  502  501  0.19989562359E+02  0.26159178923E+02  0.90894627244E+01  0.34154115094E+02  0.00000000000E+00 0.  1.
<scales pt_clust_4="550.00000" pt_clust_5="550.00000" pt_clust_6="32.92241"></scales>
<mgrwt>
<rscale>  0 0.30000000E+03</rscale>
<asrwt>  1 0.32922413E+02</asrwt>
<pdfrwt beam="1">  1        1 0.80967250E+00 0.30000000E+03</pdfrwt>
<pdfrwt beam="2">0</pdfrwt>
<totfact> 0.88744035E-04</totfact>
</mgrwt>
<clustering>
<clus scale="   32.922">  1  6  2 -1</clus>
<clus scale="  458.236">  4  5 -1 -1</clus>
<clus scale="  300.000">  1  4  2 -1</clus>
</clustering>
</event>
<event>
 6    1  0.9480355E-012  0.3000000E+03  0.7818608E-02  0.1093470E+00
          1   -1    0    0  502    0  0.00000000000E+00  0.00000000000E+00  0.23102660014E+03  0.23102660014E+03  0.00000000000E+00 0.  1.
         13   -1    0    0    0    0 -0.00000000000E+00 -0.00000000000E+00 -0.27500000000E+03  0.27500000000E+03  0.00000000000E+00 0.  1.
    9000005    2    1    2  501    0  0.32972340794E+02  0.99789298212E+01 -0.50829760590E+02  0.47090162355E+03  0.46688105573E+03 0.  0.
         13    1    3    3    0    0  0.22648770625E+03  0.48915393292E+02 -0.12100739705E+03  0.26140425957E+03  0.00000000000E+00 0.  1.
          1    1    3    3  501    0 -0.19351536545E+03 -0.38936463471E+02  0.70177636460E+02  0.20949736398E+03  0.00000000000E+00 0.  1.
         21    1    1    2  502  501 -0.32972340794E+02 -0.99789298212E+01  0.68563607283E+01  0.35124976588E+02  0.00000000000E+00 0.  1.
<scales pt_clust_4="550.00000" pt_clust_5="550.00000" pt_clust_6="34.44930"></scales>
<mgrwt>
<rscale>  0 0.30000000E+03</rscale>
<asrwt>  1 0.34449300E+02</asrwt>
<pdfrwt beam="1">  1        1 0.84009673E+00 0.30000000E+03</pdfrwt>
<pdfrwt beam="2">0</pdfrwt>
<totfact> 0.49766910E-04</totfact>
</mgrwt>
<clustering>
<clus scale="   34.449">  1  6  2 -1</clus>
<clus scale="  466.881">  4  5 -1 -1</clus>
<clus scale="  300.000">  1  4  2 -1</clus>
</clustering>
</event>
<event>
 6    1  0.9480355E-012  0.3000000E+03  0.7818608E-02  0.1093470E+00
          1   -1    0    0  502    0  0.00000000000E+00  0.00000000000E+00  0.23247422256E+03  0.23247422256E+03  0.00000000000E+00 0.  1.
         13   -1    0    0    0    0 -0.00000000000E+00 -0.00000000000E+00 -0.27500000000E+03  0.27500000000E+03  0.00000000000E+00 0.  1.
    9000005    2    1    2  501    0 -0.15444910851E+02  0.38956110542E+02 -0.54332583645E+02  0.46393660098E+03  0.45883441050E+03 0.  0.
         13    1    3    3    0    0  0.29598557492E+01  0.10009970390E+03  0.18817511337E+03  0.21316328192E+03  0.00000000000E+00 0.  1.
          3    1    3    3  501    0 -0.18404766600E+02 -0.61143593354E+02 -0.24250769702E+03  0.25077331906E+03  0.00000000000E+00 0.  1.
         21    1    1    2  502  501  0.15444910851E+02 -0.38956110542E+02  0.11806806201E+02  0.43537621576E+02  0.00000000000E+00 0. -1.
<scales pt_clust_4="550.00000" pt_clust_5="550.00000" pt_clust_6="41.90613"></scales>
<mgrwt>
<rscale>  0 0.30000000E+03</rscale>
<asrwt>  1 0.41906131E+02</asrwt>
<pdfrwt beam="1">  1        1 0.84536081E+00 0.30000000E+03</pdfrwt>
<pdfrwt beam="2">0</pdfrwt>
<totfact> 0.43393054E-04</totfact>
</mgrwt>
<clustering>
<clus scale="   41.906">  1  6  2 -1</clus>
<clus scale="  458.834">  4  5 -1 -1</clus>
<clus scale="  300.000">  1  4  2 -1</clus>
</clustering>
</event>
<event>
 6    1  0.9480355E-012  0.3000000E+03  0.7818608E-02  0.1093470E+00
          1   -1    0    0  502    0  0.00000000000E+00  0.00000000000E+00  0.24745245055E+03  0.24745245055E+03  0.00000000000E+00 0.  1.
         13   -1    0    0    0    0 -0.00000000000E+00 -0.00000000000E+00 -0.27500000000E+03  0.27500000000E+03  0.00000000000E+00 0.  1.
    9000005    2    1    2  501    0  0.35996561061E+02 -0.35095035984E+02 -0.16030937741E+02  0.47087681382E+03  0.46791085569E+03 0.  0.
         13    1    3    3    0    0  0.53349060035E+02  0.21416514845E+03 -0.48414588848E+01  0.22076293335E+03  0.00000000000E+00 0.  1.
          3    1    3    3  501    0 -0.17352498974E+02 -0.24926018444E+03 -0.11189478856E+02  0.25011388047E+03  0.00000000000E+00 0.  1.
         21    1    1    2  502  501 -0.35996561061E+02  0.35095035984E+02 -0.11516611709E+02  0.51575636731E+02  0.00000000000E+00 0.  1.
<scales pt_clust_4="550.00000" pt_clust_5="550.00000" pt_clust_6="50.27342"></scales>
<mgrwt>
<rscale>  0 0.30000000E+03</rscale>
<asrwt>  1 0.50273417E+02</asrwt>
<pdfrwt beam="1">  1        1 0.89982709E+00 0.30000000E+03</pdfrwt>
<pdfrwt beam="2">0</pdfrwt>
<totfact> 0.10395195E-04</totfact>
</mgrwt>
<clustering>
<clus scale="   50.273">  1  6  2 -1</clus>
<clus scale="  467.911">  4  5 -1 -1</clus>
<clus scale="  300.000">  1  4  2 -1</clus>
</clustering>
</event>
<event>
 6    1  0.9480355E-012  0.3000000E+03  0.7818608E-02  0.1093470E+00
          1   -1    0    0  502    0  0.00000000000E+00  0.00000000000E+00  0.24149286927E+03  0.24149286927E+03  0.00000000000E+00 0.  1.
         13   -1    0    0    0    0 -0.00000000000E+00 -0.00000000000E+00 -0.27500000000E+03  0.27500000000E+03  0.00000000000E+00 0.  1.
    9000005    2    1    2  501    0  0.40932851223E+02 -0.32398832226E+02 -0.38552597068E+02  0.46404633107E+03  0.45948613907E+03 0.  0.
         13    1    3    3    0    0  0.22646580456E+02  0.17299398280E+02  0.20897921184E+03  0.21091336555E+03  0.00000000000E+00 0.  1.
          1    1    3    3  501    0  0.18286270767E+02 -0.49698230506E+02 -0.24753180891E+03  0.25313296552E+03  0.00000000000E+00 0.  1.
         21    1    1    2  502  501 -0.40932851223E+02  0.32398832226E+02  0.50454663424E+01  0.52446538203E+02  0.00000000000E+00 0.  1.
<scales pt_clust_4="550.00000" pt_clust_5="550.00000" pt_clust_6="52.20328"></scales>
<mgrwt>
<rscale>  0 0.30000000E+03</rscale>
<asrwt>  1 0.52203282E+02</asrwt>
<pdfrwt beam="1">  1        1 0.87815589E+00 0.30000000E+03</pdfrwt>
<pdfrwt beam="2">0</pdfrwt>
<totfact> 0.19319508E-04</totfact>
</mgrwt>
<clustering>
<clus scale="   52.203">  1  6  2 -1</clus>
<clus scale="  459.486">  4  5 -1 -1</clus>
<clus scale="  300.000">  1  4  2 -1</clus>
</clustering>
</event>
<event>
 6    1  0.9480355E-012  0.3000000E+03  0.7818608E-02  0.1093470E+00
          1   -1    0    0  502    0  0.00000000000E+00  0.00000000000E+00  0.23402418465E+03  0.23402418465E+03  0.00000000000E+00 0.  1.
         13   -1    0    0    0    0 -0.00000000000E+00 -0.00000000000E+00 -0.27500000000E+03  0.27500000000E+03  0.00000000000E+00 0.  1.
    9000005    2    1    2  501    0 -0.38781703476E+02 -0.13262428735E+02 -0.28960359977E+02  0.46631255031E+03  0.46360411947E+03 0.  0.
         13    1    3    3    0    0 -0.18731275890E+03  0.10503117994E+03 -0.13019134260E+03  0.25113224424E+03  0.00000000000E+00 0.  1.
          3    1    3    3  501    0  0.14853105543E+03 -0.11829360867E+03  0.10123098262E+03  0.21518030607E+03  0.00000000000E+00 0.  1.
         21    1    1    2  502  501  0.38781703476E+02  0.13262428735E+02 -0.12015455369E+02  0.42711634342E+02  0.00000000000E+00 0. -1.
<scales pt_clust_4="550.00000" pt_clust_5="550.00000" pt_clust_6="40.98676"></scales>
<mgrwt>
<rscale>  0 0.30000000E+03</rscale>
<asrwt>  1 0.40986757E+02</asrwt>
<pdfrwt beam="1">  1        1 0.85099704E+00 0.30000000E+03</pdfrwt>
<pdfrwt beam="2">0</pdfrwt>
<totfact> 0.38684157E-04</totfact>
</mgrwt>
<clustering>
<clus scale="   40.987">  1  6  2 -1</clus>
<clus scale="  463.604">  4  5 -1 -1</clus>
<clus scale="  300.000">  1  4  2 -1</clus>
</clustering>
</event>
<event>
 6    1  0.9480355E-012  0.3000000E+03  0.7818608E-02  0.1093470E+00
          1   -1    0    0  502    0  0.00000000000E+00  0.00000000000E+00  0.23370154915E+03  0.23370154915E+03  0.00000000000E+00 0.  1.
         13   -1    0    0    0    0 -0.00000000000E+00 -0.00000000000E+00 -0.27500000000E+03  0.27500000000E+03  0.00000000000E+00 0.  1.
    9000005    2    1    2  501    0 -0.19755359834E+02 -0.26368430060E+02 -0.67988091763E+02  0.46629983600E+03  0.46013866180E+03 0.  0.
         13    1    3    3    0    0 -0.15693623845E+03 -0.10047223597E+03  0.12032686376E+03  0.22181570567E+03  0.00000000000E+00 0.  1.
          3    1    3    3  501    0  0.13718087862E+03  0.74103805907E+02 -0.18831495553E+03  0.24448413033E+03  0.00000000000E+00 0.  1.
         21    1    1    2  502  501  0.19755359834E+02  0.26368430060E+02  0.26689640916E+02  0.42401713152E+02  0.00000000000E+00 0. -1.
<scales pt_clust_4="550.00000" pt_clust_5="550.00000" pt_clust_6="32.94796"></scales>
<mgrwt>
<rscale>  0 0.30000000E+03</rscale>
<asrwt>  1 0.32947964E+02</asrwt>
<pdfrwt beam="1">  1        1 0.84982382E+00 0.30000000E+03</pdfrwt>
<pdfrwt beam="2">0</pdfrwt>
<totfact> 0.41320599E-04</totfact>
</mgrwt>
<clustering>
<clus scale="   32.948">  1  6  2 -1</clus>
<clus scale="  460.139">  4  5 -1 -1</clus>
<clus scale="  300.000">  1  4  2 -1</clus>
</clustering>
</event>
<event>
 6    1  0.9480355E-012  0.3000000E+03  0.7818608E-02  0.1093470E+00
          1   -1    0    0  502    0  0.00000000000E+00  0.00000000000E+00  0.23939855789E+03  0.23939855789E+03  0.00000000000E+00 0.  1.
         13   -1    0    0    0    0 -0.00000000000E+00 -0.00000000000E+00 -0.27500000000E+03  0.27500000000E+03  0.00000000000E+00 0.  1.
    9000005    2    1    2  501    0  0.11056822749E+02 -0.29403207696E+02 -0.28795069548E+02  0.48225623906E+03  0.48036977646E+03 0.  0.
         13    1    3    3    0    0  0.22756859412E+03  0.76453352825E+02 -0.55259514294E+01  0.24013145635E+03  0.00000000000E+00 0.  1.
          1    1    3    3  501    0 -0.21651177137E+03 -0.10585656052E+03 -0.23269118119E+02  0.24212478272E+03  0.00000000000E+00 0.  1.
         21    1    1    2  502  501 -0.11056822749E+02  0.29403207696E+02 -0.68063725621E+01  0.32142318827E+02  0.00000000000E+00 0. -1.
<scales pt_clust_4="550.00000" pt_clust_5="550.00000" pt_clust_6="31.41342"></scales>
<mgrwt>
<rscale>  0 0.30000000E+03</rscale>
<asrwt>  1 0.31413420E+02</asrwt>
<pdfrwt beam="1">  1        1 0.87054021E+00 0.30000000E+03</pdfrwt>
<pdfrwt beam="2">0</pdfrwt>
<totfact> 0.25521261E-04</totfact>
</mgrwt>
<clustering>
<clus scale="   31.413">  1  6  2 -1</clus>
<clus scale="  480.370">  4  5 -1 -1</clus>
<clus scale="  300.000">  1  4  2 -1</clus>
</clustering>
</event>
<event>
 6    1  0.9480355E-012  0.3000000E+03  0.7818608E-02  0.1093470E+00
          1   -1    0    0  502    0  0.00000000000E+00  0.00000000000E+00  0.24052217320E+03  0.24052217320E+03  0.00000000000E+00 0.  1.
         13   -1    0    0    0    0 -0.00000000000E+00 -0.00000000000E+00 -0.27500000000E+03  0.27500000000E+03  0.00000000000E+00 0.  1.
    9000005    2    1    2  501    0  0.85318399372E+01 -0.50322046495E+02 -0.38486255162E+02  0.46432482802E+03  0.45990352621E+03 0.  0.
         13    1    3    3    0    0  0.12911921336E+02 -0.25438599577E+03 -0.51238256943E+02  0.25981591854E+03  0.00000000000E+00 0.  1.
          1    1    3    3  501    0 -0.43800813985E+01  0.20406394927E+03  0.12752001781E+02  0.20450890947E+03  0.00000000000E+00 0.  1.
         21    1    1    2  502  501 -0.85318399372E+01  0.50322046495E+02  0.40084283663E+01  0.51197345186E+02  0.00000000000E+00 0.  1.
<scales pt_clust_4="550.00000" pt_clust_5="550.00000" pt_clust_6="51.04019"></scales>
<mgrwt>
<rscale>  0 0.30000000E+03</rscale>
<asrwt>  1 0.51040187E+02</asrwt>
<pdfrwt beam="1">  1        1 0.87462608E+00 0.30000000E+03</pdfrwt>
<pdfrwt beam="2">0</pdfrwt>
<totfact> 0.21201776E-04</totfact>
</mgrwt>
<clustering>
<clus scale="   51.040">  1  6  2 -1</clus>
<clus scale="  459.904">  4  5 -1 -1</clus>
<clus scale="  300.000">  1  4  2 -1</clus>
</clustering>
</event>
<event>
 6    1  0.9480355E-012  0.3000000E+03  0.7818608E-02  0.1093470E+00
          1   -1    0    0  502    0  0.00000000000E+00  0.00000000000E+00  0.23366166463E+03  0.23366166463E+03  0.00000000000E+00 0.  1.
         13   -1    0    0    0    0 -0.00000000000E+00 -0.00000000000E+00 -0.27500000000E+03  0.27500000000E+03  0.00000000000E+00 0.  1.
    9000005    2    1    2  501    0  0.20130572769E+02  0.28365474529E+02 -0.22370906681E+02  0.46904344337E+03  0.46721671010E+03 0.  0.
         13    1    3    3    0    0  0.11339577237E+03 -0.70087496701E+02 -0.20319167044E+03  0.24301792798E+03  0.00000000000E+00 0.  1.
          1    1    3    3  501    0 -0.93265199601E+02  0.98452971230E+02  0.18082076376E+03  0.22602551539E+03  0.00000000000E+00 0.  1.
         21    1    1    2  502  501 -0.20130572769E+02 -0.28365474529E+02 -0.18967428687E+02  0.39618221266E+02  0.00000000000E+00 0.  1.
<scales pt_clust_4="550.00000" pt_clust_5="550.00000" pt_clust_6="34.78277"></scales>
<mgrwt>
<rscale>  0 0.30000000E+03</rscale>
<asrwt>  1 0.34782773E+02</asrwt>
<pdfrwt beam="1">  1        1 0.84967878E+00 0.30000000E+03</pdfrwt>
<pdfrwt beam="2">0</pdfrwt>
<totfact> 0.41029384E-04</totfact>
</mgrwt>
<clustering>
<clus scale="   34.783">  1  6  2 -1</clus>
<clus scale="  467.217">  4  5 -1 -1</clus>
<clus scale="  300.000">  1  4  2 -1</clus>
</clustering>
</event>
<event>
 6    1  0.9480355E-012  0.3000000E+03  0.7818608E-02  0.1093470E+00
          1   -1    0    0  502    0  0.00000000000E+00  0.00000000000E+00  0.23981378973E+03  0.23981378973E+03  0.00000000000E+00 0.  1.
         13   -1    0    0    0    0 -0.00000000000E+00 -0.00000000000E+00 -0.27500000000E+03  0.27500000000E+03  0.00000000000E+00 0.  1.
    9000005    2    1    2  501    0  0.27663534905E+02  0.19681708922E+02 -0.38364375202E+02  0.48071479324E+03  0.47797724457E+03 0.  0.
         13    1    3    3    0    0  0.11126544344E+03  0.18779650983E+03  0.10715831166E+03  0.24316749735E+03  0.00000000000E+00 0.  1.
          3    1    3    3  501    0 -0.83601908536E+02 -0.16811480091E+03 -0.14552268686E+03  0.23754729589E+03  0.00000000000E+00 0.  1.
         21    1    1    2  502  501 -0.27663534905E+02 -0.19681708922E+02  0.31781649334E+01  0.34098996494E+02  0.00000000000E+00 0. -1.
<scales pt_clust_4="550.00000" pt_clust_5="550.00000" pt_clust_6="33.95056"></scales>
<mgrwt>
<rscale>  0 0.30000000E+03</rscale>
<asrwt>  1 0.33950564E+02</asrwt>
<pdfrwt beam="1">  1        1 0.87205014E+00 0.30000000E+03</pdfrwt>
<pdfrwt beam="2">0</pdfrwt>
<totfact> 0.24271456E-04</totfact>
</mgrwt>
<clustering>
<clus scale="   33.951">  1  6  2 -1</clus>
<clus scale="  477.977">  4  5 -1 -1</clus>
<clus scale="  300.000">  1  4  2 -1</clus>
</clustering>
</event>
<event>
 6    1  0.9480355E-012  0.3000000E+03  0.7818608E-02  0.1093470E+00
          1   -1    0    0  502    0  0.00000000000E+00  0.00000000000E+00  0.23013614170E+03  0.23013614170E+03  0.00000000000E+00 0.  1.
         13   -1    0    0    0    0 -0.00000000000E+00 -0.00000000000E+00 -0.27500000000E+03  0.27500000000E+03  0.00000000000E+00 0.  1.
    9000005    2    1    2  501    0  0.29868198689E+02  0.13767251255E+02 -0.62133075883E+02  0.46798950826E+03  0.46267916986E+03 0.  0.
         13    1    3    3    0    0 -0.11681166510E+03 -0.17351711672E+02 -0.22035472458E+03  0.25000450325E+03  0.00000000000E+00 0.  1.
          3    1    3    3  501    0  0.14667986379E+03  0.31118962927E+02  0.15822164869E+03  0.21798500501E+03  0.00000000000E+00 0.  1.
         21    1    1    2  502  501 -0.29868198689E+02 -0.13767251255E+02  0.17269217580E+02  0.37146633439E+02  0.00000000000E+00 0.  1.
<scales pt_clust_4="550.00000" pt_clust_5="550.00000" pt_clust_6="32.88839"></scales>
<mgrwt>
<rscale>  0 0.30000000E+03</rscale>
<asrwt>  1 0.32888395E+02</asrwt>
<pdfrwt beam="1">  1        1 0.83685870E+00 0.30000000E+03</pdfrwt>
<pdfrwt beam="2">0</pdfrwt>
<totfact> 0.53060252E-04</totfact>
</mgrwt>
<clustering>
<clus scale="   32.888">  1  6  2 -1</clus>
<clus scale="  462.679">  4  5 -1 -1</clus>
<clus scale="  300.000">  1  4  2 -1</clus>
</clustering>
</event>
<event>
 6    1  0.9480355E-012  0.3000000E+03  0.7818608E-02  0.1093470E+00
          1   -1    0    0  502    0  0.00000000000E+00  0.00000000000E+00  0.25223101518E+03  0.25223101518E+03  0.00000000000E+00 0.  1.
         13   -1    0    0    0    0 -0.00000000000E+00 -0.00000000000E+00 -0.27500000000E+03  0.27500000000E+03  0.00000000000E+00 0.  1.
    9000005    2    1    2  501    0 -0.11639912842E+02  0.48690464288E+02  0.11754005245E+02  0.46641912715E+03  0.46357566443E+03 0.  0.
         13    1    3    3    0    0 -0.17079160630E+03  0.69312173642E+02  0.16288320000E+03  0.24597741165E+03  0.00000000000E+00 0.  1.
          3    1    3    3  501    0  0.15915169346E+03 -0.20621709354E+02 -0.15112919475E+03  0.22044171551E+03  0.00000000000E+00 0.  1.
         21    1    1    2  502  501  0.11639912842E+02 -0.48690464288E+02 -0.34522990060E+02  0.60811888034E+02  0.00000000000E+00 0.  1.
<scales pt_clust_4="550.00000" pt_clust_5="550.00000" pt_clust_6="50.06247"></scales>
<mgrwt>
<rscale>  0 0.30000000E+03</rscale>
<asrwt>  1 0.50062475E+02</asrwt>
<pdfrwt beam="1">  1        1 0.91720369E+00 0.30000000E+03</pdfrwt>
<pdfrwt beam="2">0</pdfrwt>
<totfact> 0.45179595E-05</totfact>
</mgrwt>
<clustering>
<clus scale="   50.062">  1  6  2 -1</clus>
<clus scale="  463.576">  4  5 -1 -1</clus>
<clus scale="  300.000">  1  4  2 -1</clus>
</clustering>
</event>
<event>
 6    1  0.9480355E-012  0.3000000E+03  0.7818608E-02  0.1093470E+00
          1   -1    0    0  502    0  0.00000000000E+00  0.00000000000E+00  0.22916309356E+03  0.22916309356E+03  0.00000000000E+00 0.  1.
         13   -1    0    0    0    0 -0.00000000000E+00 -0.00000000000E+00 -0.27500000000E+03  0.27500000000E+03  0.00000000000E+00 0.  1.
    9000005    2    1    2  501    0  0.30325985218E+02 -0.16347338053E+02 -0.68670455569E+02  0.46283184864E+03  0.45641076653E+03 0.  0.
         13    1    3    3    0    0  0.12536216714E+03 -0.71759529849E+02  0.15604166078E+03  0.21263608107E+03  0.00000000000E+00 0.  1.
          3    1    3    3  501    0 -0.95036181923E+02  0.55412191796E+02 -0.22471211635E+03  0.25019576757E+03  0.00000000000E+00 0.  1.
         21    1    1    2  502  501 -0.30325985218E+02  0.16347338053E+02  0.22833549132E+02  0.41331244922E+02  0.00000000000E+00 0. -1.
<scales pt_clust_4="550.00000" pt_clust_5="550.00000" pt_clust_6="34.45143"></scales>
<mgrwt>
<rscale>  0 0.30000000E+03</rscale>
<asrwt>  1 0.34451427E+02</asrwt>
<pdfrwt beam="1">  1        1 0.83332034E+00 0.30000000E+03</pdfrwt>
<pdfrwt beam="2">0</pdfrwt>
<totfact> 0.55831116E-04</totfact>
</mgrwt>
<clustering>
<clus scale="   34.451">  1  6  2 -1</clus>
<clus scale="  456.411">  4  5 -1 -1</clus>
<clus scale="  300.000">  1  4  2 -1</clus>
</clustering>
</event>
<event>
 6    1  0.9480355E-012  0.3000000E+03  0.7818608E-02  0.1093470E+00
          1   -1    0    0  502    0  0.00000000000E+00  0.00000000000E+00  0.24979251413E+03  0.24979251413E+03  0.00000000000E+00 0.  1.
         13   -1    0    0    0    0 -0.00000000000E+00 -0.00000000000E+00 -0.27500000000E+03  0.27500000000E+03  0.00000000000E+00 0.  1.
    9000005    2    1    2  501    0  0.62981175571E+00  0.30077440961E+02 -0.68052747614E+02  0.47244019258E+03  0.46654422083E+03 0.  0.
         13    1    3    3    0    0  0.45093502539E+02 -0.97725591271E+02 -0.23444601865E+03  0.25797025182E+03  0.00000000000E+00 0.  1.
          1    1    3    3  501    0 -0.44463690783E+02  0.12780303223E+03  0.16639327104E+03  0.21446994077E+03  0.00000000000E+00 0.  1.
         21    1    1    2  502  501 -0.62981175571E+00 -0.30077440961E+02  0.42845261749E+02  0.52352321553E+02  0.00000000000E+00 0.  1.
<scales pt_clust_4="550.00000" pt_clust_5="550.00000" pt_clust_6="30.08403"></scales>
<mgrwt>
<rscale>  0 0.30000000E+03</rscale>
<asrwt>  1 0.30084034E+02</asrwt>
<pdfrwt beam="1">  1        1 0.90833642E+00 0.30000000E+03</pdfrwt>
<pdfrwt beam="2">0</pdfrwt>
<totfact> 0.80968203E-05</totfact>
</mgrwt>
<clustering>
<clus scale="   30.084">  1  6  2 -1</clus>
<clus scale="  466.544">  4  5 -1 -1</clus>
<clus scale="  300.000">  1  4  2 -1</clus>
</clustering>
</event>
<event>
 6    1  0.9480355E-012  0.3000000E+03  0.7818608E-02  0.1093470E+00
          1   -1    0    0  502    0  0.00000000000E+00  0.00000000000E+00  0.22703942577E+03  0.22703942577E+03  0.00000000000E+00 0.  1.
         13   -1    0    0    0    0 -0.00000000000E+00 -0.00000000000E+00 -0.27500000000E+03  0.27500000000E+03  0.00000000000E+00 0.  1.
    9000005    2    1    2  501    0 -0.61177356119E+01  0.36419640210E+02 -0.50020109568E+02  0.46505215001E+03  0.46087707036E+03 0.  0.
         13    1    3    3    0    0 -0.14415492180E+03  0.19029027646E+03  0.35488065703E+02  0.24135126600E+03  0.00000000000E+00 0.  1.
          3    1    3    3  501    0  0.13803718619E+03 -0.15387063625E+03 -0.85508175272E+02  0.22370088401E+03  0.00000000000E+00 0.  1.
         21    1    1    2  502  501  0.61177356119E+01 -0.36419640210E+02  0.20595353364E+01  0.36987275756E+02  0.00000000000E+00 0.  1.
<scales pt_clust_4="550.00000" pt_clust_5="550.00000" pt_clust_6="36.92989"></scales>
<mgrwt>
<rscale>  0 0.30000000E+03</rscale>
<asrwt>  1 0.36929891E+02</asrwt>
<pdfrwt beam="1">  1        1 0.82559791E+00 0.30000000E+03</pdfrwt>
<pdfrwt beam="2">0</pdfrwt>
<totfact> 0.63878998E-04</totfact>
</mgrwt>
<clustering>
<clus scale="   36.930">  1  6  2 -1</clus>
<clus scale="  460.877">  4  5 -1 -1</clus>
<clus scale="  300.000">  1  4  2 -1</clus>
</clustering>
</event>
<event>
 6    1  0.9480355E-012  0.3000000E+03  0.7818608E-02  0.1093470E+00
          1   -1    0    0  502    0  0.00000000000E+00  0.00000000000E+00  0.23194812955E+03  0.23194812955E+03  0.00000000000E+00 0.  1.
         13   -1    0    0    0    0 -0.00000000000E+00 -0.00000000000E+00 -0.27500000000E+03  0.27500000000E+03  0.00000000000E+00 0.  1.
    9000005    2    1    2  501    0  0.18489568303E+02  0.27011348132E+02 -0.49234674780E+02  0.47363590757E+03  0.46993131698E+03 0.  0.
         13    1    3    3    0    0 -0.72523949390E+02 -0.69404107073E+02  0.18156291453E+03  0.20746504584E+03  0.00000000000E+00 0.  1.
          1    1    3    3  501    0  0.91013517693E+02  0.96415455205E+02 -0.23079758931E+03  0.26617086173E+03  0.00000000000E+00 0.  1.
         21    1    1    2  502  501 -0.18489568303E+02 -0.27011348132E+02  0.61828043349E+01  0.33312221982E+02  0.00000000000E+00 0.  1.
<scales pt_clust_4="550.00000" pt_clust_5="550.00000" pt_clust_6="32.73342"></scales>
<mgrwt>
<rscale>  0 0.30000000E+03</rscale>
<asrwt>  1 0.32733424E+02</asrwt>
<pdfrwt beam="1">  1        1 0.84344774E+00 0.30000000E+03</pdfrwt>
<pdfrwt beam="2">0</pdfrwt>
<totfact> 0.47186930E-04</totfact>
</mgrwt>
<clustering>
<clus scale="   32.733">  1  6  2 -1</clus>
<clus scale="  469.931">  4  5 -1 -1</clus>
<clus scale="  300.000">  1  4  2 -1</clus>
</clustering>
</event>
<event>
 6    1  0.9480355E-012  0.3000000E+03  0.7818608E-02  0.1093470E+00
          1   -1    0    0  502    0  0.00000000000E+00  0.00000000000E+00  0.24331476303E+03  0.24331476303E+03  0.00000000000E+00 0.  1.
         13   -1    0    0    0    0 -0.00000000000E+00 -0.00000000000E+00 -0.27500000000E+03  0.27500000000E+03  0.00000000000E+00 0.  1.
    9000005    2    1    2  501    0  0.16876919638E+02 -0.26800933065E+02 -0.71424732730E+02  0.46749795525E+03  0.46092268906E+03 0.  0.
         13    1    3    3    0    0 -0.18097796623E+03 -0.14455005031E+03 -0.29909091310E+02  0.23354291907E+03  0.00000000000E+00 0.  1.
          1    1    3    3  501    0  0.19785488586E+03  0.11774911725E+03 -0.41515641420E+02  0.23395503618E+03  0.00000000000E+00 0.  1.
         21    1    1    2  502  501 -0.16876919638E+02  0.26800933065E+02  0.39739495756E+02  0.50816807776E+02  0.00000000000E+00 0.  1.
<scales pt_clust_4="550.00000" pt_clust_5="550.00000" pt_clust_6="31.67208"></scales>
<mgrwt>
<rscale>  0 0.30000000E+03</rscale>
<asrwt>  1 0.31672076E+02</asrwt>
<pdfrwt beam="1">  1        1 0.88478096E+00 0.30000000E+03</pdfrwt>
<pdfrwt beam="2">0</pdfrwt>
<totfact> 0.17413692E-04</totfact>
</mgrwt>
<clustering>
<clus scale="   31.672">  1  6  2 -1</clus>
<clus scale="  460.923">  4  5 -1 -1</clus>
<clus scale="  300.000">  1  4  2 -1</clus>
</clustering>
</event>
<event>
 6    1  0.9480355E-012  0.3000000E+03  0.7818608E-02  0.1093470E+00
          1   -1    0    0  502    0  0.00000000000E+00  0.00000000000E+00  0.24476173721E+03  0.24476173721E+03  0.00000000000E+00 0.  1.
         13   -1    0    0    0    0 -0.00000000000E+00 -0.00000000000E+00 -0.27500000000E+03  0.27500000000E+03  0.00000000000E+00 0.  1.
    9000005    2    1    2  501    0 -0.75221501837E+01 -0.30684274700E+02 -0.59284350838E+02  0.47684574150E+03  0.47209016032E+03 0.  0.
         13    1    3    3    0    0  0.78047953065E+02 -0.23708073692E+03 -0.36578463253E+02  0.25226324102E+03  0.00000000000E+00 0.  1.
          3    1    3    3  501    0 -0.85570103249E+02  0.20639646222E+03 -0.22705887585E+02  0.22458250047E+03  0.00000000000E+00 0.  1.
         21    1    1    2  502  501  0.75221501837E+01  0.30684274700E+02  0.29046088045E+02  0.42915995713E+02  0.00000000000E+00 0. -1.
<scales pt_clust_4="550.00000" pt_clust_5="550.00000" pt_clust_6="31.59284"></scales>
<mgrwt>
<rscale>  0 0.30000000E+03</rscale>
<asrwt>  1 0.31592839E+02</asrwt>
<pdfrwt beam="1">  1        1 0.89004268E+00 0.30000000E+03</pdfrwt>
<pdfrwt beam="2">0</pdfrwt>
<totfact> 0.14759359E-04</totfact>
</mgrwt>
<clustering>
<clus scale="   31.593">  1  6  2 -1</clus>
<clus scale="  472.090">  4  5 -1 -1</clus>
<clus scale="  300.000">  1  4  2 -1</clus>
</clustering>
</event>
<event>
 6    1  0.9480355E-012  0.3000000E+03  0.7818608E-02  0.1093470E+00
          1   -1    0    0  502    0  0.00000000000E+00  0.00000000000E+00  0.22034742035E+03  0.22034742035E+03  0.00000000000E+00 0.  1.
         13   -1    0    0    0    0 -0.00000000000E+00 -0.00000000000E+00 -0.27500000000E+03  0.27500000000E+03  0.00000000000E+00 0.  1.
    9000005    2    1    2  501    0  0.26138468607E+02  0.18758059960E+02 -0.62758875196E+02  0.46216916871E+03  0.45675658696E+03 0.  0.
         13    1    3    3    0    0  0.56503755244E+02 -0.21461298554E+03 -0.42510948845E+02  0.22596147613E+03  0.00000000000E+00 0.  1.
          1    1    3    3  501    0 -0.30365286637E+02  0.23337104550E+03 -0.20247926352E+02  0.23620769258E+03  0.00000000000E+00 0.  1.
         21    1    1    2  502  501 -0.26138468607E+02 -0.18758059960E+02  0.81062955441E+01  0.33178251642E+02  0.00000000000E+00 0. -1.
<scales pt_clust_4="550.00000" pt_clust_5="550.00000" pt_clust_6="32.17273"></scales>
<mgrwt>
<rscale>  0 0.30000000E+03</rscale>
<asrwt>  1 0.32172727E+02</asrwt>
<pdfrwt beam="1">  1        1 0.80126335E+00 0.30000000E+03</pdfrwt>
<pdfrwt beam="2">0</pdfrwt>
<totfact> 0.10316623E-03</totfact>
</mgrwt>
<clustering>
<clus scale="   32.173">  1  6  2 -1</clus>
<clus scale="  456.757">  4  5 -1 -1</clus>
<clus scale="  300.000">  1  4  2 -1</clus>
</clustering>
</event>
<event>
 6    1  0.9480355E-012  0.3000000E+03  0.7818608E-02  0.1093470E+00
          1   -1    0    0  502    0  0.00000000000E+00  0.00000000000E+00  0.22631509749E+03  0.22631509749E+03  0.00000000000E+00 0.  1.
         13   -1    0    0    0    0 -0.00000000000E+00 -0.00000000000E+00 -0.27500000000E+03  0.27500000000E+03  0.00000000000E+00 0.  1.
    9000005    2    1    2  501    0 -0.27422668093E+01 -0.35466340548E+02 -0.52969452446E+02  0.46548579793E+03  0.46109205571E+03 0.  0.
         13    1    3    3    0    0  0.28931760208E+01  0.19023664170E+03  0.76686056916E+02  0.20513191277E+03  0.00000000000E+00 0.  1.
          3    1    3    3  501    0 -0.56354428302E+01 -0.22570298224E+03 -0.12965550936E+03  0.26035388516E+03  0.00000000000E+00 0.  1.
         21    1    1    2  502  501  0.27422668093E+01  0.35466340548E+02  0.42845499389E+01  0.35829299564E+02  0.00000000000E+00 0.  1.
<scales pt_clust_4="550.00000" pt_clust_5="550.00000" pt_clust_6="35.57220"></scales>
<mgrwt>
<rscale>  0 0.30000000E+03</rscale>
<asrwt>  1 0.35572199E+02</asrwt>
<pdfrwt beam="1">  1        1 0.82296399E+00 0.30000000E+03</pdfrwt>
<pdfrwt beam="2">0</pdfrwt>
<totfact> 0.67904085E-04</totfact>
</mgrwt>
<clustering>
<clus scale="   35.572">  1  6  2 -1</clus>
<clus scale="  461.092">  4  5 -1 -1</clus>
<clus scale="  300.000">  1  4  2 -1</clus>
</clustering>
</event>
<event>
 6    1  0.9480355E-012  0.3000000E+03  0.7818608E-02  0.1093470E+00
          1   -1    0    0  502    0  0.00000000000E+00  0.00000000000E+00  0.23854301638E+03  0.23854301638E+03  0.00000000000E+00 0.  1.
         13   -1    0    0    0    0 -0.00000000000E+00 -0.00000000000E+00 -0.27500000000E+03  0.27500000000E+03  0.00000000000E+00 0.  1.
    9000005    2    1    2  501    0  0.36204493940E+02 -0.50111450469E+01 -0.40603638902E+02  0.47675889337E+03  0.47361852789E+03 0.  0.
         13    1    3    3    0    0  0.11556262134E+03  0.20760256935E+03 -0.70545060208E+02  0.24785106772E+03  0.00000000000E+00 0.  1.
          3    1    3    3  501    0 -0.79358127401E+02 -0.21261371439E+03  0.29941421307E+02  0.22890782565E+03  0.00000000000E+00 0.  1.
         21    1    1    2  502  501 -0.36204493940E+02  0.50111450469E+01  0.41466552860E+01  0.36784123018E+02  0.00000000000E+00 0. -1.
<scales pt_clust_4="550.00000" pt_clust_5="550.00000" pt_clust_6="36.54965"></scales>
<mgrwt>
<rscale>  0 0.30000000E+03</rscale>
<asrwt>  1 0.36549651E+02</asrwt>
<pdfrwt beam="1">  1        1 0.86742915E+00 0.30000000E+03</pdfrwt>
<pdfrwt beam="2">0</pdfrwt>
<totfact> 0.26704768E-04</totfact>
</mgrwt>
<clustering>
<clus scale="   36.550">  1  6  2 -1</clus>
<clus scale="  473.619">  4  5 -1 -1</clus>
<clus scale="  300.000">  1  4  2 -1</clus>
</clustering>
</event>
<event>
 6    1  0.9480355E-012  0.3000000E+03  0.7818608E-02  0.1093470E+00
          1   -1    0    0  502    0  0.00000000000E+00  0.00000000000E+00  0.23071232695E+03  0.23071232695E+03  0.00000000000E+00 0.  1.
         13   -1    0    0    0    0 -0.00000000000E+00 -0.00000000000E+00 -0.27500000000E+03  0.27500000000E+03  0.00000000000E+00 0.  1.
    9000005    2    1    2  501    0 -0.33116752491E+02 -0.21080650928E+02 -0.37809752768E+02  0.46592443193E+03  0.46272549716E+03 0.  0.
         13    1    3    3    0    0  0.21712540877E+02  0.14390067475E+03 -0.18691514586E+03  0.23688839223E+03  0.00000000000E+00 0.  1.
          1    1    3    3  501    0 -0.54829293368E+02 -0.16498132567E+03  0.14910539309E+03  0.22903603970E+03  0.00000000000E+00 0.  1.
         21    1    1    2  502  501  0.33116752491E+02  0.21080650928E+02 -0.64779202805E+01  0.39787895022E+02  0.00000000000E+00 0. -1.
<scales pt_clust_4="550.00000" pt_clust_5="550.00000" pt_clust_6="39.25703"></scales>
<mgrwt>
<rscale>  0 0.30000000E+03</rscale>
<asrwt>  1 0.39257034E+02</asrwt>
<pdfrwt beam="1">  1        1 0.83895392E+00 0.30000000E+03</pdfrwt>
<pdfrwt beam="2">0</pdfrwt>
<totfact> 0.49553942E-04</totfact>
</mgrwt>
<clustering>
<clus scale="   39.257">  1  6  2 -1</clus>
<clus scale="  462.725">  4  5 -1 -1</clus>
<clus scale="  300.000">  1  4  2 -1</clus>
</clustering>
</event>
<event>
 6    1  0.9480355E-012  0.3000000E+03  0.7818608E-02  0.1093470E+00
          1   -1    0    0  502    0  0.00000000000E+00  0.00000000000E+00  0.24045647093E+03  0.24045647093E+03  0.00000000000E+00 0.  1.
         13   -1    0    0    0    0 -0.00000000000E+00 -0.00000000000E+00 -0.27500000000E+03  0.27500000000E+03  0.00000000000E+00 0.  1.
    9000005    2    1    2  501    0  0.38671808601E+02  0.81781733800E+01 -0.35672485798E+02  0.47591325604E+03  0.47292548010E+03 0.  0.
         13    1    3    3    0    0 -0.16795458468E+03 -0.13251070345E+03 -0.66529799752E+02  0.22404027160E+03  0.00000000000E+00 0.  1.
          3    1    3    3  501    0  0.20662639328E+03  0.14068887683E+03  0.30857313955E+02  0.25187298444E+03  0.00000000000E+00 0.  1.
         21    1    1    2  502  501 -0.38671808601E+02 -0.81781733800E+01  0.11289567236E+01  0.39543214887E+02  0.00000000000E+00 0.  1.
<scales pt_clust_4="550.00000" pt_clust_5="550.00000" pt_clust_6="39.52710"></scales>
<mgrwt>
<rscale>  0 0.30000000E+03</rscale>
<asrwt>  1 0.39527096E+02</asrwt>
<pdfrwt beam="1">  1        1 0.87438717E+00 0.30000000E+03</pdfrwt>
<pdfrwt beam="2">0</pdfrwt>
<totfact> 0.22321284E-04</totfact>
</mgrwt>
<clustering>
<clus scale="   39.527">  1  6  2 -1</clus>
<clus scale="  472.925">  4  5 -1 -1</clus>
<clus scale="  300.000">  1  4  2 -1</clus>
</clustering>
</event>
<event>
 6    1  0.9480355E-012  0.3000000E+03  0.7818608E-02  0.1093470E+00
          1   -1    0    0  502    0  0.00000000000E+00  0.00000000000E+00  0.23217598827E+03  0.23217598827E+03  0.00000000000E+00 0.  1.
         13   -1    0    0    0    0 -0.00000000000E+00 -0.00000000000E+00 -0.27500000000E+03  0.27500000000E+03  0.00000000000E+00 0.  1.
    9000005    2    1    2  501    0  0.10481071839E+02  0.36932313830E+02 -0.54043654266E+02  0.46717937529E+03  0.46245216342E+03 0.  0.
         13    1    3    3    0    0  0.27748975016E+02  0.24166188223E+03  0.30209752780E+02  0.24511854295E+03  0.00000000000E+00 0.  1.
          3    1    3    3  501    0 -0.17267903178E+02 -0.20472956840E+03 -0.84253407047E+02  0.22206083233E+03  0.00000000000E+00 0.  1.
         21    1    1    2  502  501 -0.10481071839E+02 -0.36932313830E+02  0.11219642538E+02  0.39996612986E+02  0.00000000000E+00 0.  1.
<scales pt_clust_4="550.00000" pt_clust_5="550.00000" pt_clust_6="38.39074"></scales>
<mgrwt>
<rscale>  0 0.30000000E+03</rscale>
<asrwt>  1 0.38390737E+02</asrwt>
<pdfrwt beam="1">  1        1 0.84427632E+00 0.30000000E+03</pdfrwt>
<pdfrwt beam="2">0</pdfrwt>
<totfact> 0.45061459E-04</totfact>
</mgrwt>
<clustering>
<clus scale="   38.391">  1  6  2 -1</clus>
<clus scale="  462.452">  4  5 -1 -1</clus>
<clus scale="  300.000">  1  4  2 -1</clus>
</clustering>
</event>
<event>
 6    1  0.9480355E-012  0.3000000E+03  0.7818608E-02  0.1093470E+00
          1   -1    0    0  502    0  0.00000000000E+00  0.00000000000E+00  0.26949484171E+03  0.26949484171E+03  0.00000000000E+00 0.  1.
         13   -1    0    0    0    0 -0.00000000000E+00 -0.00000000000E+00 -0.27500000000E+03  0.27500000000E+03  0.00000000000E+00 0.  1.
    9000005    2    1    2  501    0 -0.30410644221E+02 -0.35200680013E+02 -0.50851235624E+02  0.47953206864E+03  0.47455374989E+03 0.  0.
         13    1    3    3    0    0 -0.22014163031E+03  0.92256153624E+02 -0.73738041291E+02  0.24982160437E+03  0.00000000000E+00 0.  1.
          3    1    3    3  501    0  0.18973098609E+03 -0.12745683364E+03  0.22886805667E+02  0.22971046427E+03  0.00000000000E+00 0.  1.
         21    1    1    2  502  501  0.30410644221E+02  0.35200680013E+02  0.45346077334E+02  0.64962773069E+02  0.00000000000E+00 0. -1.
<scales pt_clust_4="550.00000" pt_clust_5="550.00000" pt_clust_6="46.51769"></scales>
<mgrwt>
<rscale>  0 0.30000000E+03</rscale>
<asrwt>  1 0.46517686E+02</asrwt>
<pdfrwt beam="1">  1        1 0.97998124E+00 0.30000000E+03</pdfrwt>
<pdfrwt beam="2">0</pdfrwt>
<totfact> 0.27233084E-06</totfact>
</mgrwt>
<clustering>
<clus scale="   46.518">  1  6  2 -1</clus>
<clus scale="  474.554">  4  5 -1 -1</clus>
<clus scale="  300.000">  1  4  2 -1</clus>
</clustering>
</event>
<event>
 6    1  0.9480355E-012  0.3000000E+03  0.7818608E-02  0.1093470E+00
          1   -1    0    0  502    0  0.00000000000E+00  0.00000000000E+00  0.23497340075E+03  0.23497340075E+03  0.00000000000E+00 0.  1.
         13   -1    0    0    0    0 -0.00000000000E+00 -0.00000000000E+00 -0.27500000000E+03  0.27500000000E+03  0.00000000000E+00 0.  1.
    9000005    2    1    2  501    0  0.17775820489E+02  0.28628653127E+02 -0.63065516686E+02  0.46915218947E+03  0.46367115277E+03 0.  0.
         13    1    3    3    0    0 -0.18362577192E+03 -0.10455514923E+03 -0.82671280576E+02  0.22690249883E+03  0.00000000000E+00 0.  1.
          3    1    3    3  501    0  0.20140159241E+03  0.13318380236E+03  0.19605763890E+02  0.24224969064E+03  0.00000000000E+00 0.  1.
         21    1    1    2  502  501 -0.17775820489E+02 -0.28628653127E+02  0.23038917431E+02  0.40821211279E+02  0.00000000000E+00 0.  1.
<scales pt_clust_4="550.00000" pt_clust_5="550.00000" pt_clust_6="33.69836"></scales>
<mgrwt>
<rscale>  0 0.30000000E+03</rscale>
<asrwt>  1 0.33698362E+02</asrwt>
<pdfrwt beam="1">  1        1 0.85444873E+00 0.30000000E+03</pdfrwt>
<pdfrwt beam="2">0</pdfrwt>
<totfact> 0.37155865E-04</totfact>
</mgrwt>
<clustering>
<clus scale="   33.698">  1  6  2 -1</clus>
<clus scale="  463.671">  4  5 -1 -1</clus>
<clus scale="  300.000">  1  4  2 -1</clus>
</clustering>
</event>
<event>
 6    1  0.9480355E-012  0.3000000E+03  0.7818608E-02  0.1093470E+00
          1   -1    0    0  502    0  0.00000000000E+00  0.00000000000E+00  0.23261019750E+03  0.23261019750E+03  0.00000000000E+00 0.  1.
         13   -1    0    0    0    0 -0.00000000000E+00 -0.00000000000E+00 -0.27500000000E+03  0.27500000000E+03  0.00000000000E+00 0.  1.
    9000005    2    1    2  501    0 -0.36054952811E+01  0.30639051968E+02 -0.31142471194E+02  0.47477342598E+03  0.47274538751E+03 0.  0.
         13    1    3    3    0    0 -0.86066758836E+02  0.14374147723E+03  0.16411627937E+03  0.23452772205E+03  0.00000000000E+00 0.  1.
          1    1    3    3  501    0  0.82461263554E+02 -0.11310242526E+03 -0.19525875057E+03  0.24024570394E+03  0.00000000000E+00 0.  1.
         21    1    1    2  502  501  0.36054952811E+01 -0.30639051968E+02 -0.11247331309E+02  0.32836771512E+02  0.00000000000E+00 0.  1.
<scales pt_clust_4="550.00000" pt_clust_5="550.00000" pt_clust_6="30.85048"></scales>
<mgrwt>
<rscale>  0 0.30000000E+03</rscale>
<asrwt>  1 0.30850479E+02</asrwt>
<pdfrwt beam="1">  1        1 0.84585526E+00 0.30000000E+03</pdfrwt>
<pdfrwt beam="2">0</pdfrwt>
<totfact> 0.45479457E-04</totfact>
</mgrwt>
<clustering>
<clus scale="   30.850">  1  6  2 -1</clus>
<clus scale="  472.745">  4  5 -1 -1</clus>
<clus scale="  300.000">  1  4  2 -1</clus>
</clustering>
</event>
<event>
 6    1  0.9480355E-012  0.3000000E+03  0.7818608E-02  0.1093470E+00
          1   -1    0    0  502    0  0.00000000000E+00  0.00000000000E+00  0.25772304739E+03  0.25772304739E+03  0.00000000000E+00 0.  1.
         13   -1    0    0    0    0 -0.00000000000E+00 -0.00000000000E+00 -0.27500000000E+03  0.27500000000E+03  0.00000000000E+00 0.  1.
    9000005    2    1    2  501    0  0.15989668847E+02  0.34210027880E+02  0.60275642682E+00  0.49094171767E+03  0.48948688574E+03 0.  0.
         13    1    3    3    0    0  0.13994955836E+02  0.18756299825E+03 -0.17561912673E+03  0.25732822382E+03  0.00000000000E+00 0.  1.
          1    1    3    3  501    0  0.19947130104E+01 -0.15335297037E+03  0.17622188316E+03  0.23361349385E+03  0.00000000000E+00 0.  1.
         21    1    1    2  502  501 -0.15989668847E+02 -0.34210027880E+02 -0.17879709042E+02  0.41781329715E+02  0.00000000000E+00 0. -1.
<scales pt_clust_4="550.00000" pt_clust_5="550.00000" pt_clust_6="37.76237"></scales>
<mgrwt>
<rscale>  0 0.30000000E+03</rscale>
<asrwt>  1 0.37762375E+02</asrwt>
<pdfrwt beam="1">  1        1 0.93717472E+00 0.30000000E+03</pdfrwt>
<pdfrwt beam="2">0</pdfrwt>
<totfact> 0.20857050E-05</totfact>
</mgrwt>
<clustering>
<clus scale="   37.762">  1  6  2 -1</clus>
<clus scale="  489.487">  4  5 -1 -1</clus>
<clus scale="  300.000">  1  4  2 -1</clus>
</clustering>
</event>
<event>
 6    1  0.9480355E-012  0.3000000E+03  0.7818608E-02  0.1093470E+00
          1   -1    0    0  502    0  0.00000000000E+00  0.00000000000E+00  0.21862919604E+03  0.21862919604E+03  0.00000000000E+00 0.  1.
         13   -1    0    0    0    0 -0.00000000000E+00 -0.00000000000E+00 -0.27500000000E+03  0.27500000000E+03  0.00000000000E+00 0.  1.
    9000005    2    1    2  501    0  0.10645624111E+01  0.31829256677E+02 -0.54274197686E+02  0.46171320269E+03  0.45740480772E+03 0.  0.
         13    1    3    3    0    0 -0.11146522680E+02  0.15250378787E+03 -0.21284225573E+03  0.26207532525E+03  0.00000000000E+00 0.  1.
          3    1    3    3  501    0  0.12211085091E+02 -0.12067453119E+03  0.15856805804E+03  0.19963787744E+03  0.00000000000E+00 0.  1.
         21    1    1    2  502  501 -0.10645624111E+01 -0.31829256677E+02 -0.20966062727E+01  0.31915993352E+02  0.00000000000E+00 0. -1.
<scales pt_clust_4="550.00000" pt_clust_5="550.00000" pt_clust_6="31.84705"></scales>
<mgrwt>
<rscale>  0 0.30000000E+03</rscale>
<asrwt>  1 0.31847054E+02</asrwt>
<pdfrwt beam="1">  1        1 0.79501526E+00 0.30000000E+03</pdfrwt>
<pdfrwt beam="2">0</pdfrwt>
<totfact> 0.11480702E-03</totfact>
</mgrwt>
<clustering>
<clus scale="   31.847">  1  6  2 -1</clus>
<clus scale="  457.405">  4  5 -1 -1</clus>
<clus scale="  300.000">  1  4  2 -1</clus>
</clustering>
</event>
<event>
 6    1  0.9480355E-012  0.3000000E+03  0.7818608E-02  0.1093470E+00
          1   -1    0    0  502    0  0.00000000000E+00  0.00000000000E+00  0.25056883181E+03  0.25056883181E+03  0.00000000000E+00 0.  1.
         13   -1    0    0    0    0 -0.00000000000E+00 -0.00000000000E+00 -0.27500000000E+03  0.27500000000E+03  0.00000000000E+00 0.  1.
    9000005    2    1    2  501    0  0.24934705290E+02 -0.50809697653E+02 -0.35519090176E+02  0.46789468754E+03  0.46309876696E+03 0.  0.
         13    1    3    3    0    0  0.22350239053E+03  0.27184577741E+02 -0.98065080735E+02  0.24557907056E+03  0.00000000000E+00 0.  1.
          1    1    3    3  501    0 -0.19856768524E+03 -0.77994275394E+02  0.62545990559E+02  0.22231561698E+03  0.00000000000E+00 0.  1.
         21    1    1    2  502  501 -0.24934705290E+02  0.50809697653E+02  0.11087921989E+02  0.57674144272E+02  0.00000000000E+00 0.  1.
<scales pt_clust_4="550.00000" pt_clust_5="550.00000" pt_clust_6="56.59828"></scales>
<mgrwt>
<rscale>  0 0.30000000E+03</rscale>
<asrwt>  1 0.56598277E+02</asrwt>
<pdfrwt beam="1">  1        1 0.91115939E+00 0.30000000E+03</pdfrwt>
<pdfrwt beam="2">0</pdfrwt>
<totfact> 0.61735462E-05</totfact>
</mgrwt>
<clustering>
<clus scale="   56.598">  1  6  2 -1</clus>
<clus scale="  463.099">  4  5 -1 -1</clus>
<clus scale="  300.000">  1  4  2 -1</clus>
</clustering>
</event>
<event>
 6    1  0.9480355E-012  0.3000000E+03  0.7818608E-02  0.1093470E+00
          1   -1    0    0  502    0  0.00000000000E+00  0.00000000000E+00  0.23364704164E+03  0.23364704164E+03  0.00000000000E+00 0.  1.
         13   -1    0    0    0    0 -0.00000000000E+00 -0.00000000000E+00 -0.27500000000E+03  0.27500000000E+03  0.00000000000E+00 0.  1.
    9000005    2    1    2  501    0 -0.38514416554E+02 -0.52381800436E+01 -0.29393004024E+02  0.46797961831E+03  0.46543546884E+03 0.  0.
         13    1    3    3    0    0 -0.14793313879E+03 -0.17054596687E+03 -0.11343466560E+03  0.25266096598E+03  0.00000000000E+00 0.  1.
          1    1    3    3  501    0  0.10941872224E+03  0.16530778683E+03  0.84041661578E+02  0.21531865233E+03  0.00000000000E+00 0.  1.
         21    1    1    2  502  501  0.38514416554E+02  0.52381800436E+01 -0.11959954334E+02  0.40667423330E+02  0.00000000000E+00 0. -1.
<scales pt_clust_4="550.00000" pt_clust_5="550.00000" pt_clust_6="38.86901"></scales>
<mgrwt>
<rscale>  0 0.30000000E+03</rscale>
<asrwt>  1 0.38869015E+02</asrwt>
<pdfrwt beam="1">  1        1 0.84962561E+00 0.30000000E+03</pdfrwt>
<pdfrwt beam="2">0</pdfrwt>
<totfact> 0.40239234E-04</totfact>
</mgrwt>
<clustering>
<clus scale="   38.869">  1  6  2 -1</clus>
<clus scale="  465.435">  4  5 -1 -1</clus>
<clus scale="  300.000">  1  4  2 -1</clus>
</clustering>
</event>
<event>
 6    1  0.9480355E-012  0.3000000E+03  0.7818608E-02  0.1093470E+00
          1   -1    0    0  502    0  0.00000000000E+00  0.00000000000E+00  0.26438831234E+03  0.26438831234E+03  0.00000000000E+00 0.  1.
         13   -1    0    0    0    0 -0.00000000000E+00 -0.00000000000E+00 -0.27500000000E+03  0.27500000000E+03  0.00000000000E+00 0.  1.
    9000005    2    1    2  501    0  0.28703935578E+02  0.21933855775E+02 -0.41884706301E+02  0.49160744125E+03  0.48848596472E+03 0.  0.
         13    1    3    3    0    0  0.25174993105E+03  0.28883597615E+02  0.34506410732E+02  0.25574006799E+03  0.00000000000E+00 0.  1.
          3    1    3    3  501    0 -0.22304599547E+03 -0.69497418402E+01 -0.76391117033E+02  0.23586737326E+03  0.00000000000E+00 0.  1.
         21    1    1    2  502  501 -0.28703935578E+02 -0.21933855775E+02  0.31273018642E+02  0.47780871087E+02  0.00000000000E+00 0.  1.
<scales pt_clust_4="550.00000" pt_clust_5="550.00000" pt_clust_6="36.12492"></scales>
<mgrwt>
<rscale>  0 0.30000000E+03</rscale>
<asrwt>  1 0.36124921E+02</asrwt>
<pdfrwt beam="1">  1        1 0.96141204E+00 0.30000000E+03</pdfrwt>
<pdfrwt beam="2">0</pdfrwt>
<totfact> 0.70300674E-06</totfact>
</mgrwt>
<clustering>
<clus scale="   36.125">  1  6  2 -1</clus>
<clus scale="  488.486">  4  5 -1 -1</clus>
<clus scale="  300.000">  1  4  2 -1</clus>
</clustering>
</event>
<event>
 6    1  0.9480355E-012  0.3000000E+03  0.7818608E-02  0.1093470E+00
          1   -1    0    0  502    0  0.00000000000E+00  0.00000000000E+00  0.23187568664E+03  0.23187568664E+03  0.00000000000E+00 0.  1.
         13   -1    0    0    0    0 -0.00000000000E+00 -0.00000000000E+00 -0.27500000000E+03  0.27500000000E+03  0.00000000000E+00 0.  1.
    9000005    2    1    2  501    0  0.31294617419E+02 -0.11555889418E+02 -0.64676120505E+02  0.46715954319E+03  0.46145654895E+03 0.  0.
         13    1    3    3    0    0  0.23257070838E+02  0.20510962043E+02  0.19900885545E+03  0.20141031616E+03  0.00000000000E+00 0.  1.
          1    1    3    3  501    0  0.80375465807E+01 -0.32066851461E+02 -0.26368497596E+03  0.26574922702E+03  0.00000000000E+00 0.  1.
         21    1    1    2  502  501 -0.31294617419E+02  0.11555889418E+02  0.21551807150E+02  0.39716143457E+02  0.00000000000E+00 0. -1.
<scales pt_clust_4="550.00000" pt_clust_5="550.00000" pt_clust_6="33.36003"></scales>
<mgrwt>
<rscale>  0 0.30000000E+03</rscale>
<asrwt>  1 0.33360031E+02</asrwt>
<pdfrwt beam="1">  1        1 0.84318432E+00 0.30000000E+03</pdfrwt>
<pdfrwt beam="2">0</pdfrwt>
<totfact> 0.47260535E-04</totfact>
</mgrwt>
<clustering>
<clus scale="   33.360">  1  6  2 -1</clus>
<clus scale="  461.457">  4  5 -1 -1</clus>
<clus scale="  300.000">  1  4  2 -1</clus>
</clustering>
</event>
<event>
 6    1  0.9480355E-012  0.3000000E+03  0.7818608E-02  0.1093470E+00
          1   -1    0    0  502    0  0.00000000000E+00  0.00000000000E+00  0.22898080264E+03  0.22898080264E+03  0.00000000000E+00 0.  1.
         13   -1    0    0    0    0 -0.00000000000E+00 -0.00000000000E+00 -0.27500000000E+03  0.27500000000E+03  0.00000000000E+00 0.  1.
    9000005    2    1    2  501    0 -0.37788567299E+01  0.42630508140E+02 -0.50588376079E+02  0.46093992234E+03  0.45615215469E+03 0.  0.
         13    1    3    3    0    0 -0.12324335995E+03 -0.47467661051E+02  0.15692609517E+03  0.20510461712E+03  0.00000000000E+00 0.  1.
          1    1    3    3  501    0  0.11946450322E+03  0.90098169192E+02 -0.20751447125E+03  0.25583530523E+03  0.00000000000E+00 0.  1.
         21    1    1    2  502  501  0.37788567299E+01 -0.42630508140E+02  0.45691787181E+01  0.43040880296E+02  0.00000000000E+00 0.  1.
<scales pt_clust_4="550.00000" pt_clust_5="550.00000" pt_clust_6="42.79766"></scales>
<mgrwt>
<rscale>  0 0.30000000E+03</rscale>
<asrwt>  1 0.42797663E+02</asrwt>
<pdfrwt beam="1">  1        1 0.83265746E+00 0.30000000E+03</pdfrwt>
<pdfrwt beam="2">0</pdfrwt>
<totfact> 0.54269392E-04</totfact>
</mgrwt>
<clustering>
<clus scale="   42.798">  1  6  2 -1</clus>
<clus scale="  456.152">  4  5 -1 -1</clus>
<clus scale="  300.000">  1  4  2 -1</clus>
</clustering>
</event>
<event>
 6    1  0.9480355E-012  0.3000000E+03  0.7818608E-02  0.1093470E+00
          1   -1    0    0  502    0  0.00000000000E+00  0.00000000000E+00  0.23062322100E+03  0.23062322100E+03  0.00000000000E+00 0.  1.
         13   -1    0    0    0    0 -0.00000000000E+00 -0.00000000000E+00 -0.27500000000E+03  0.27500000000E+03  0.00000000000E+00 0.  1.
    9000005    2    1    2  501    0 -0.22338616601E+02  0.21522934478E+02 -0.41600731775E+02  0.47447908931E+03  0.47163283899E+03 0.  0.
         13    1    3    3    0    0  0.49045715764E+02 -0.59844790342E+02  0.19744712537E+03  0.21206661332E+03  0.00000000000E+00 0.  1.
          3    1    3    3  501    0 -0.71384332366E+02  0.81367724820E+02 -0.23904785715E+03  0.26241247599E+03  0.00000000000E+00 0.  1.
         21    1    1    2  502  501  0.22338616601E+02 -0.21522934478E+02 -0.27760472276E+01  0.31144131685E+02  0.00000000000E+00 0.  1.
<scales pt_clust_4="550.00000" pt_clust_5="550.00000" pt_clust_6="31.02018"></scales>
<mgrwt>
<rscale>  0 0.30000000E+03</rscale>
<asrwt>  1 0.31020178E+02</asrwt>
<pdfrwt beam="1">  1        1 0.83862989E+00 0.30000000E+03</pdfrwt>
<pdfrwt beam="2">0</pdfrwt>
<totfact> 0.52075264E-04</totfact>
</mgrwt>
<clustering>
<clus scale="   31.020">  1  6  2 -1</clus>
<clus scale="  471.633">  4  5 -1 -1</clus>
<clus scale="  300.000">  1  4  2 -1</clus>
</clustering>
</event>
<event>
 6    1  0.9480355E-012  0.3000000E+03  0.7818608E-02  0.1093470E+00
          1   -1    0    0  502    0  0.00000000000E+00  0.00000000000E+00  0.25355225065E+03  0.25355225065E+03  0.00000000000E+00 0.  1.
         13   -1    0    0    0    0 -0.00000000000E+00 -0.00000000000E+00 -0.27500000000E+03  0.27500000000E+03  0.00000000000E+00 0.  1.
    9000005    2    1    2  501    0  0.39648207377E+01  0.35335649627E+02 -0.59265729140E+02  0.47664341197E+03  0.47160596644E+03 0.  0.
         13    1    3    3    0    0  0.30722700734E+02  0.18825919581E+03  0.13075863186E+03  0.23126441350E+03  0.00000000000E+00 0.  1.
          3    1    3    3  501    0 -0.26757879997E+02 -0.15292354618E+03 -0.19002436100E+03  0.24537899847E+03  0.00000000000E+00 0.  1.
         21    1    1    2  502  501 -0.39648207377E+01 -0.35335649627E+02  0.37817979787E+02  0.51908838681E+02  0.00000000000E+00 0.  1.
<scales pt_clust_4="550.00000" pt_clust_5="550.00000" pt_clust_6="35.55739"></scales>
<mgrwt>
<rscale>  0 0.30000000E+03</rscale>
<asrwt>  1 0.35557389E+02</asrwt>
<pdfrwt beam="1">  1        1 0.92200818E+00 0.30000000E+03</pdfrwt>
<pdfrwt beam="2">0</pdfrwt>
<totfact> 0.37747215E-05</totfact>
</mgrwt>
<clustering>
<clus scale="   35.557">  1  6  2 -1</clus>
<clus scale="  471.606">  4  5 -1 -1</clus>
<clus scale="  300.000">  1  4  2 -1</clus>
</clustering>
</event>
<event>
 6    1  0.9480355E-012  0.3000000E+03  0.7818608E-02  0.1093470E+00
          1   -1    0    0  502    0  0.00000000000E+00  0.00000000000E+00  0.23602203983E+03  0.23602203983E+03  0.00000000000E+00 0.  1.
         13   -1    0    0    0    0 -0.00000000000E+00 -0.00000000000E+00 -0.27500000000E+03  0.27500000000E+03  0.00000000000E+00 0.  1.
    9000005    2    1    2  501    0  0.34615265841E+02 -0.13000647353E+02 -0.50819234045E+02  0.47219615636E+03  0.46799506628E+03 0.  0.
         13    1    3    3    0    0 -0.43543941236E+02  0.82702805514E+02  0.18426624688E+03  0.20661529130E+03  0.00000000000E+00 0.  1.
          3    1    3    3  501    0  0.78159207077E+02 -0.95703452867E+02 -0.23508548093E+03  0.26558086506E+03  0.00000000000E+00 0.  1.
         21    1    1    2  502  501 -0.34615265841E+02  0.13000647353E+02  0.11841273880E+02  0.38825883479E+02  0.00000000000E+00 0. -1.
<scales pt_clust_4="550.00000" pt_clust_5="550.00000" pt_clust_6="36.97612"></scales>
<mgrwt>
<rscale>  0 0.30000000E+03</rscale>
<asrwt>  1 0.36976120E+02</asrwt>
<pdfrwt beam="1">  1        1 0.85826196E+00 0.30000000E+03</pdfrwt>
<pdfrwt beam="2">0</pdfrwt>
<totfact> 0.33401339E-04</totfact>
</mgrwt>
<clustering>
<clus scale="   36.976">  1  6  2 -1</clus>
<clus scale="  467.995">  4  5 -1 -1</clus>
<clus scale="  300.000">  1  4  2 -1</clus>
</clustering>
</event>
<event>
 6    1  0.9480355E-012  0.3000000E+03  0.7818608E-02  0.1093470E+00
          1   -1    0    0  502    0  0.00000000000E+00  0.00000000000E+00  0.24868993858E+03  0.24868993858E+03  0.00000000000E+00 0.  1.
         13   -1    0    0    0    0 -0.00000000000E+00 -0.00000000000E+00 -0.27500000000E+03  0.27500000000E+03  0.00000000000E+00 0.  1.
    9000005    2    1    2  501    0 -0.32217052831E+02  0.42167985951E+02 -0.50006446947E+02  0.46557284798E+03  0.45982752692E+03 0.  0.
         13    1    3    3    0    0 -0.14455372493E+03  0.20212320995E+03 -0.93196923146E+02  0.26539637879E+03  0.00000000000E+00 0.  1.
          1    1    3    3  501    0  0.11233667210E+03 -0.15995522400E+03  0.43190476199E+02  0.20017646919E+03  0.00000000000E+00 0.  1.
         21    1    1    2  502  501  0.32217052831E+02 -0.42167985951E+02  0.23696385522E+02  0.58117090594E+02  0.00000000000E+00 0. -1.
<scales pt_clust_4="550.00000" pt_clust_5="550.00000" pt_clust_6="53.06673"></scales>
<mgrwt>
<rscale>  0 0.30000000E+03</rscale>
<asrwt>  1 0.53066727E+02</asrwt>
<pdfrwt beam="1">  1        1 0.90432705E+00 0.30000000E+03</pdfrwt>
<pdfrwt beam="2">0</pdfrwt>
<totfact> 0.88272491E-05</totfact>
</mgrwt>
<clustering>
<clus scale="   53.067">  1  6  2 -1</clus>
<clus scale="  459.828">  4  5 -1 -1</clus>
<clus scale="  300.000">  1  4  2 -1</clus>
</clustering>
</event>
<event>
 6    1  0.9480355E-012  0.3000000E+03  0.7818608E-02  0.1093470E+00
          1   -1    0    0  502    0  0.00000000000E+00  0.00000000000E+00  0.25339262673E+03  0.25339262673E+03  0.00000000000E+00 0.  1.
         13   -1    0    0    0    0 -0.00000000000E+00 -0.00000000000E+00 -0.27500000000E+03  0.27500000000E+03  0.00000000000E+00 0.  1.
    9000005    2    1    2  501    0  0.97932896084E+00 -0.37177115549E+02 -0.37291016078E+02  0.48803084211E+03  0.48518077659E+03 0.  0.
         13    1    3    3    0    0  0.18496689787E+03 -0.78098148495E+01  0.13901955693E+03  0.23151713484E+03  0.00000000000E+00 0.  1.
          3    1    3    3  501    0 -0.18398756891E+03 -0.29367300699E+02 -0.17631057301E+03  0.25651370727E+03  0.00000000000E+00 0.  1.
         21    1    1    2  502  501 -0.97932896084E+00  0.37177115549E+02  0.15683642811E+02  0.40361784618E+02  0.00000000000E+00 0.  1.
<scales pt_clust_4="550.00000" pt_clust_5="550.00000" pt_clust_6="37.19001"></scales>
<mgrwt>
<rscale>  0 0.30000000E+03</rscale>
<asrwt>  1 0.37190012E+02</asrwt>
<pdfrwt beam="1">  1        1 0.92142773E+00 0.30000000E+03</pdfrwt>
<pdfrwt beam="2">0</pdfrwt>
<totfact> 0.38510650E-05</totfact>
</mgrwt>
<clustering>
<clus scale="   37.190">  1  6  2 -1</clus>
<clus scale="  485.181">  4  5 -1 -1</clus>
<clus scale="  300.000">  1  4  2 -1</clus>
</clustering>
</event>
<event>
 6    1  0.9480355E-012  0.3000000E+03  0.7818608E-02  0.1093470E+00
          1   -1    0    0  502    0  0.00000000000E+00  0.00000000000E+00  0.21968896961E+03  0.21968896961E+03  0.00000000000E+00 0.  1.
         13   -1    0    0    0    0 -0.00000000000E+00 -0.00000000000E+00 -0.27500000000E+03  0.27500000000E+03  0.00000000000E+00 0.  1.
    9000005    2    1    2  501    0  0.31784326121E+02 -0.29382875009E+01 -0.47525227625E+02  0.46183329057E+03  0.45827116874E+03 0.  0.
         13    1    3    3    0    0 -0.17310611722E+03 -0.12135357689E+03 -0.73375666250E+02  0.22377758342E+03  0.00000000000E+00 0.  1.
          3    1    3    3  501    0  0.20489044334E+03  0.11841528939E+03  0.25850438625E+02  0.23805570716E+03  0.00000000000E+00 0.  1.
         21    1    1    2  502  501 -0.31784326121E+02  0.29382875009E+01 -0.77858027641E+01  0.32855679039E+02  0.00000000000E+00 0.  1.
<scales pt_clust_4="550.00000" pt_clust_5="550.00000" pt_clust_6="31.91987"></scales>
<mgrwt>
<rscale>  0 0.30000000E+03</rscale>
<asrwt>  1 0.31919867E+02</asrwt>
<pdfrwt beam="1">  1        1 0.79886898E+00 0.30000000E+03</pdfrwt>
<pdfrwt beam="2">0</pdfrwt>
<totfact> 0.10752713E-03</totfact>
</mgrwt>
<clustering>
<clus scale="   31.920">  1  6  2 -1</clus>
<clus scale="  458.271">  4  5 -1 -1</clus>
<clus scale="  300.000">  1  4  2 -1</clus>
</clustering>
</event>
<event>
 6    1  0.9480355E-012  0.3000000E+03  0.7818608E-02  0.1093470E+00
          1   -1    0    0  502    0  0.00000000000E+00  0.00000000000E+00  0.25842151058E+03  0.25842151058E+03  0.00000000000E+00 0.  1.
         13   -1    0    0    0    0 -0.00000000000E+00 -0.00000000000E+00 -0.27500000000E+03  0.27500000000E+03  0.00000000000E+00 0.  1.
    9000005    2    1    2  501    0 -0.44046080951E+02  0.22515203850E+02 -0.65994752777E+02  0.46350042123E+03  0.45610343283E+03 0.  0.
         13    1    3    3    0    0 -0.11838113431E+03  0.34896558331E+02 -0.24221361675E+03  0.27184425483E+03  0.00000000000E+00 0.  1.
          3    1    3    3  501    0  0.74335053362E+02 -0.12381354481E+02  0.17621886398E+03  0.19165616640E+03  0.00000000000E+00 0.  1.
         21    1    1    2  502  501  0.44046080951E+02 -0.22515203850E+02  0.49416263357E+02  0.69921089349E+02  0.00000000000E+00 0.  1.
<scales pt_clust_4="550.00000" pt_clust_5="550.00000" pt_clust_6="49.46708"></scales>
<mgrwt>
<rscale>  0 0.30000000E+03</rscale>
<asrwt>  1 0.49467076E+02</asrwt>
<pdfrwt beam="1">  1        1 0.93971458E+00 0.30000000E+03</pdfrwt>
<pdfrwt beam="2">0</pdfrwt>
<totfact> 0.18192859E-05</totfact>
</mgrwt>
<clustering>
<clus scale="   49.467">  1  6  2 -1</clus>
<clus scale="  456.103">  4  5 -1 -1</clus>
<clus scale="  300.000">  1  4  2 -1</clus>
</clustering>
</event>
<event>
 6    1  0.9480355E-012  0.3000000E+03  0.7818608E-02  0.1093470E+00
          1   -1    0    0  502    0  0.00000000000E+00  0.00000000000E+00  0.26521701171E+03  0.26521701171E+03  0.00000000000E+00 0.  1.
         13   -1    0    0    0    0 -0.00000000000E+00 -0.00000000000E+00 -0.27500000000E+03  0.27500000000E+03  0.00000000000E+00 0.  1.
    9000005    2    1    2  501    0 -0.24181496261E+02 -0.18248275337E+02 -0.25489744790E+02  0.50609302434E+03  0.50454204769E+03 0.  0.
         13    1    3    3    0    0  0.16738123057E+03 -0.15164062512E+03 -0.11821072417E+03  0.25492181319E+03  0.00000000000E+00 0.  1.
          3    1    3    3  501    0 -0.19156272683E+03  0.13339234978E+03  0.92720979377E+02  0.25117121115E+03  0.00000000000E+00 0.  1.
         21    1    1    2  502  501  0.24181496261E+02  0.18248275337E+02  0.15706756498E+02  0.34123987368E+02  0.00000000000E+00 0.  1.
<scales pt_clust_4="550.00000" pt_clust_5="550.00000" pt_clust_6="30.29430"></scales>
<mgrwt>
<rscale>  0 0.30000000E+03</rscale>
<asrwt>  1 0.30294295E+02</asrwt>
<pdfrwt beam="1">  1        1 0.96442550E+00 0.30000000E+03</pdfrwt>
<pdfrwt beam="2">0</pdfrwt>
<totfact> 0.62778572E-06</totfact>
</mgrwt>
<clustering>
<clus scale="   30.294">  1  6  2 -1</clus>
<clus scale="  504.542">  4  5 -1 -1</clus>
<clus scale="  300.000">  1  4  2 -1</clus>
</clustering>
</event>
<event>
 6    1  0.9480355E-012  0.3000000E+03  0.7818608E-02  0.1093470E+00
          1   -1    0    0  502    0  0.00000000000E+00  0.00000000000E+00  0.22405327176E+03  0.22405327176E+03  0.00000000000E+00 0.  1.
         13   -1    0    0    0    0 -0.00000000000E+00 -0.00000000000E+00 -0.27500000000E+03  0.27500000000E+03  0.00000000000E+00 0.  1.
    9000005    2    1    2  501    0 -0.21563826244E+02  0.30353790237E+02 -0.48146858891E+02  0.46171441195E+03  0.45768518328E+03 0.  0.
         13    1    3    3    0    0  0.29550123850E+02  0.17083501010E+02  0.20260604749E+03  0.20546110655E+03  0.00000000000E+00 0.  1.
          3    1    3    3  501    0 -0.51113950093E+02  0.13270289227E+02 -0.25075290638E+03  0.25625330540E+03  0.00000000000E+00 0.  1.
         21    1    1    2  502  501  0.21563826244E+02 -0.30353790237E+02 -0.27998693460E+01  0.37338859816E+02  0.00000000000E+00 0. -1.
<scales pt_clust_4="550.00000" pt_clust_5="550.00000" pt_clust_6="37.23374"></scales>
<mgrwt>
<rscale>  0 0.30000000E+03</rscale>
<asrwt>  1 0.37233737E+02</asrwt>
<pdfrwt beam="1">  1        1 0.81473917E+00 0.30000000E+03</pdfrwt>
<pdfrwt beam="2">0</pdfrwt>
<totfact> 0.79075914E-04</totfact>
</mgrwt>
<clustering>
<clus scale="   37.234">  1  6  2 -1</clus>
<clus scale="  457.685">  4  5 -1 -1</clus>
<clus scale="  300.000">  1  4  2 -1</clus>
</clustering>
</event>
<event>
 6    1  0.9480355E-012  0.3000000E+03  0.7818608E-02  0.1093470E+00
          1   -1    0    0  502    0  0.00000000000E+00  0.00000000000E+00  0.23272294448E+03  0.23272294448E+03  0.00000000000E+00 0.  1.
         13   -1    0    0    0    0 -0.00000000000E+00 -0.00000000000E+00 -0.27500000000E+03  0.27500000000E+03  0.00000000000E+00 0.  1.
    9000005    2    1    2  501    0 -0.25558479539E+02  0.28033165012E+02 -0.16116040193E+02  0.46164157146E+03  0.45979791162E+03 0.  0.
         13    1    3    3    0    0  0.84444909616E+02 -0.16243991953E+03 -0.11947232105E+03  0.21861222682E+03  0.00000000000E+00 0.  1.
          1    1    3    3  501    0 -0.11000338915E+03  0.19047308454E+03  0.10335628086E+03  0.24302934464E+03  0.00000000000E+00 0.  1.
         21    1    1    2  502  501  0.25558479539E+02 -0.28033165012E+02 -0.26161015325E+02  0.46081373024E+02  0.00000000000E+00 0.  1.
<scales pt_clust_4="550.00000" pt_clust_5="550.00000" pt_clust_6="37.93541"></scales>
<mgrwt>
<rscale>  0 0.30000000E+03</rscale>
<asrwt>  1 0.37935414E+02</asrwt>
<pdfrwt beam="1">  1        1 0.84626525E+00 0.30000000E+03</pdfrwt>
<pdfrwt beam="2">0</pdfrwt>
<totfact> 0.43381313E-04</totfact>
</mgrwt>
<clustering>
<clus scale="   37.935">  1  6  2 -1</clus>
<clus scale="  459.798">  4  5 -1 -1</clus>
<clus scale="  300.000">  1  4  2 -1</clus>
</clustering>
</event>
<event>
 6    1  0.9480355E-012  0.3000000E+03  0.7818608E-02  0.1093470E+00
          1   -1    0    0  502    0  0.00000000000E+00  0.00000000000E+00  0.23957613488E+03  0.23957613488E+03  0.00000000000E+00 0.  1.
         13   -1    0    0    0    0 -0.00000000000E+00 -0.00000000000E+00 -0.27500000000E+03  0.27500000000E+03  0.00000000000E+00 0.  1.
    9000005    2    1    2  501    0 -0.70144758057E+01 -0.38963470336E+02 -0.67888660301E+02  0.46337732808E+03  0.45666434401E+03 0.  0.
         13    1    3    3    0    0 -0.22219413906E+03 -0.54057117193E+02 -0.91663396895E+02  0.24636271163E+03  0.00000000000E+00 0.  1.
          3    1    3    3  501    0  0.21517966325E+03  0.15093646857E+02  0.23774736594E+02  0.21701461645E+03  0.00000000000E+00 0.  1.
         21    1    1    2  502  501  0.70144758057E+01  0.38963470336E+02  0.32464795186E+02  0.51198806801E+02  0.00000000000E+00 0. -1.
<scales pt_clust_4="550.00000" pt_clust_5="550.00000" pt_clust_6="39.58983"></scales>
<mgrwt>
<rscale>  0 0.30000000E+03</rscale>
<asrwt>  1 0.39589833E+02</asrwt>
<pdfrwt beam="1">  1        1 0.87118595E+00 0.30000000E+03</pdfrwt>
<pdfrwt beam="2">0</pdfrwt>
<totfact> 0.24073794E-04</totfact>
</mgrwt>
<clustering>
<clus scale="   39.590">  1  6  2 -1</clus>
<clus scale="  456.664">  4  5 -1 -1</clus>
<clus scale="  300.000">  1  4  2 -1</clus>
</clustering>
</event>
<event>
 6    1  0.9480355E-012  0.3000000E+03  0.7818608E-02  0.1093470E+00
          1   -1    0    0  502    0  0.00000000000E+00  0.00000000000E+00  0.22813876080E+03  0.22813876080E+03  0.00000000000E+00 0.  1.
         13   -1    0    0    0    0 -0.00000000000E+00 -0.00000000000E+00 -0.27500000000E+03  0.27500000000E+03  0.00000000000E+00 0.  1.
    9000005    2    1    2  501    0  0.64870800413E+01  0.29788554269E+02 -0.47655278887E+02  0.47264170074E+03  0.46924376555E+03 0.  0.
         13    1    3    3    0    0  0.21677585374E+03  0.11183773629E+03 -0.36466660633E+02  0.24663590039E+03  0.00000000000E+00 0.  1.
          3    1    3    3  501    0 -0.21028877370E+03 -0.82049182025E+02 -0.11188618253E+02  0.22600580035E+03  0.00000000000E+00 0.  1.
         21    1    1    2  502  501 -0.64870800413E+01 -0.29788554269E+02  0.79403968427E+00  0.30497060054E+02  0.00000000000E+00 0. -1.
<scales pt_clust_4="550.00000" pt_clust_5="550.00000" pt_clust_6="30.48672"></scales>
<mgrwt>
<rscale>  0 0.30000000E+03</rscale>
<asrwt>  1 0.30486721E+02</asrwt>
<pdfrwt beam="1">  1        1 0.82959549E+00 0.30000000E+03</pdfrwt>
<pdfrwt beam="2">0</pdfrwt>
<totfact> 0.61138858E-04</totfact>
</mgrwt>
<clustering>
<clus scale="   30.487">  1  6  2 -1</clus>
<clus scale="  469.244">  4  5 -1 -1</clus>
<clus scale="  300.000">  1  4  2 -1</clus>
</clustering>
</event>
<event>
 6    1  0.9480355E-012  0.3000000E+03  0.7818608E-02  0.1093470E+00
          1   -1    0    0  502    0  0.00000000000E+00  0.00000000000E+00  0.24700534402E+03  0.24700534402E+03  0.00000000000E+00 0.  1.
         13   -1    0    0    0    0 -0.00000000000E+00 -0.00000000000E+00 -0.27500000000E+03  0.27500000000E+03  0.00000000000E+00 0.  1.
    9000005    2    1    2  501    0 -0.38274122946E+02 -0.52457492777E+01 -0.27741389374E+02  0.48337257921E+03  0.48102706709E+03 0.  0.
         13    1    3    3    0    0  0.10401739333E+03 -0.37989683963E+00 -0.22045974993E+03  0.24376682255E+03  0.00000000000E+00 0.  1.
          1    1    3    3  501    0 -0.14229151628E+03 -0.48658524381E+01  0.19271836056E+03  0.23960575665E+03  0.00000000000E+00 0.  1.
         21    1    1    2  502  501  0.38274122946E+02  0.52457492777E+01 -0.25326660876E+00  0.38632764808E+02  0.00000000000E+00 0.  1.
<scales pt_clust_4="550.00000" pt_clust_5="550.00000" pt_clust_6="38.63193"></scales>
<mgrwt>
<rscale>  0 0.30000000E+03</rscale>
<asrwt>  1 0.38631935E+02</asrwt>
<pdfrwt beam="1">  1        1 0.89820125E+00 0.30000000E+03</pdfrwt>
<pdfrwt beam="2">0</pdfrwt>
<totfact> 0.11396206E-04</totfact>
</mgrwt>
<clustering>
<clus scale="   38.632">  1  6  2 -1</clus>
<clus scale="  481.027">  4  5 -1 -1</clus>
<clus scale="  300.000">  1  4  2 -1</clus>
</clustering>
</event>
<event>
 6    1  0.9480355E-012  0.3000000E+03  0.7818608E-02  0.1093470E+00
          1   -1    0    0  502    0  0.00000000000E+00  0.00000000000E+00  0.22613920120E+03  0.22613920120E+03  0.00000000000E+00 0.  1.
         13   -1    0    0    0    0 -0.00000000000E+00 -0.00000000000E+00 -0.27500000000E+03  0.27500000000E+03  0.00000000000E+00 0.  1.
    9000005    2    1    2  501    0 -0.54819427239E+01 -0.37533428546E+02 -0.59713048738E+02  0.46168566799E+03  0.45623370971E+03 0.  0.
         13    1    3    3    0    0  0.11659107679E+03 -0.10482752862E+03  0.14530704048E+03  0.21376722377E+03  0.00000000000E+00 0.  1.
          1    1    3    3  501    0 -0.12207301951E+03  0.67294100078E+02 -0.20502008922E+03  0.24791844422E+03  0.00000000000E+00 0.  1.
         21    1    1    2  502  501  0.54819427239E+01  0.37533428546E+02  0.10852249940E+02  0.39453533215E+02  0.00000000000E+00 0. -1.
<scales pt_clust_4="550.00000" pt_clust_5="550.00000" pt_clust_6="37.93165"></scales>
<mgrwt>
<rscale>  0 0.30000000E+03</rscale>
<asrwt>  1 0.37931648E+02</asrwt>
<pdfrwt beam="1">  1        1 0.82232437E+00 0.30000000E+03</pdfrwt>
<pdfrwt beam="2">0</pdfrwt>
<totfact> 0.67985222E-04</totfact>
</mgrwt>
<clustering>
<clus scale="   37.932">  1  6  2 -1</clus>
<clus scale="  456.234">  4  5 -1 -1</clus>
<clus scale="  300.000">  1  4  2 -1</clus>
</clustering>
</event>
<event>
 6    1  0.9480355E-012  0.3000000E+03  0.7818608E-02  0.1093470E+00
          1   -1    0    0  502    0  0.00000000000E+00  0.00000000000E+00  0.22132085602E+03  0.22132085602E+03  0.00000000000E+00 0.  1.
         13   -1    0    0    0    0 -0.00000000000E+00 -0.00000000000E+00 -0.27500000000E+03  0.27500000000E+03  0.00000000000E+00 0.  1.
    9000005    2    1    2  501    0 -0.30320031316E+02 -0.13474469417E+02 -0.63154215339E+02  0.46181516660E+03  0.45627176941E+03 0.  0.
         13    1    3    3    0    0 -0.91291604317E+02  0.20491057081E+03  0.71140419587E+01  0.22443954340E+03  0.00000000000E+00 0.  1.
          1    1    3    3  501    0  0.60971573001E+02 -0.21838504022E+03 -0.70268257298E+02  0.23737562320E+03  0.00000000000E+00 0.  1.
         21    1    1    2  502  501  0.30320031316E+02  0.13474469417E+02  0.94750713598E+01  0.34505689420E+02  0.00000000000E+00 0. -1.
<scales pt_clust_4="550.00000" pt_clust_5="550.00000" pt_clust_6="33.17930"></scales>
<mgrwt>
<rscale>  0 0.30000000E+03</rscale>
<asrwt>  1 0.33179295E+02</asrwt>
<pdfrwt beam="1">  1        1 0.80480311E+00 0.30000000E+03</pdfrwt>
<pdfrwt beam="2">0</pdfrwt>
<totfact> 0.96586550E-04</totfact>
</mgrwt>
<clustering>
<clus scale="   33.179">  1  6  2 -1</clus>
<clus scale="  456.272">  4  5 -1 -1</clus>
<clus scale="  300.000">  1  4  2 -1</clus>
</clustering>
</event>
<event>
 6    1  0.9480355E-012  0.3000000E+03  0.7818608E-02  0.1093470E+00
          1   -1    0    0  502    0  0.00000000000E+00  0.00000000000E+00  0.22057757961E+03  0.22057757961E+03  0.00000000000E+00 0.  1.
         13   -1    0    0    0    0 -0.00000000000E+00 -0.00000000000E+00 -0.27500000000E+03  0.27500000000E+03  0.00000000000E+00 0.  1.
    9000005    2    1    2  501    0  0.12350760538E+02  0.28730193424E+02 -0.65495850664E+02  0.46240249621E+03  0.45667099399E+03 0.  0.
         13    1    3    3    0    0  0.16390506528E+02  0.17534082947E+03 -0.19783089292E+03  0.26485867435E+03  0.00000000000E+00 0.  1.
          3    1    3    3  501    0 -0.40397459908E+01 -0.14661063604E+03  0.13233504226E+03  0.19754382187E+03  0.00000000000E+00 0.  1.
         21    1    1    2  502  501 -0.12350760538E+02 -0.28730193424E+02  0.11073430270E+02  0.33175083391E+02  0.00000000000E+00 0.  1.
<scales pt_clust_4="550.00000" pt_clust_5="550.00000" pt_clust_6="31.27244"></scales>
<mgrwt>
<rscale>  0 0.30000000E+03</rscale>
<asrwt>  1 0.31272437E+02</asrwt>
<pdfrwt beam="1">  1        1 0.80210029E+00 0.30000000E+03</pdfrwt>
<pdfrwt beam="2">0</pdfrwt>
<totfact> 0.10228207E-03</totfact>
</mgrwt>
<clustering>
<clus scale="   31.272">  1  6  2 -1</clus>
<clus scale="  456.671">  4  5 -1 -1</clus>
<clus scale="  300.000">  1  4  2 -1</clus>
</clustering>
</event>
<event>
 6    1  0.9480355E-012  0.3000000E+03  0.7818608E-02  0.1093470E+00
          1   -1    0    0  502    0  0.00000000000E+00  0.00000000000E+00  0.22068778267E+03  0.22068778267E+03  0.00000000000E+00 0.  1.
         13   -1    0    0    0    0 -0.00000000000E+00 -0.00000000000E+00 -0.27500000000E+03  0.27500000000E+03  0.00000000000E+00 0.  1.
    9000005    2    1    2  501    0  0.62595245135E+01  0.30916416612E+02 -0.64570328558E+02  0.46251798753E+03  0.45690103414E+03 0.  0.
         13    1    3    3    0    0 -0.17108185114E+03  0.12545494362E+03 -0.13279733889E+03  0.25028598819E+03  0.00000000000E+00 0.  1.
          3    1    3    3  501    0  0.17734137565E+03 -0.94538527008E+02  0.68227010330E+02  0.21223199934E+03  0.00000000000E+00 0.  1.
         21    1    1    2  502  501 -0.62595245135E+01 -0.30916416612E+02  0.10258111223E+02  0.33169795132E+02  0.00000000000E+00 0.  1.
<scales pt_clust_4="550.00000" pt_clust_5="550.00000" pt_clust_6="31.54372"></scales>
<mgrwt>
<rscale>  0 0.30000000E+03</rscale>
<asrwt>  1 0.31543723E+02</asrwt>
<pdfrwt beam="1">  1        1 0.80250103E+00 0.30000000E+03</pdfrwt>
<pdfrwt beam="2">0</pdfrwt>
<totfact> 0.10142762E-03</totfact>
</mgrwt>
<clustering>
<clus scale="   31.544">  1  6  2 -1</clus>
<clus scale="  456.901">  4  5 -1 -1</clus>
<clus scale="  300.000">  1  4  2 -1</clus>
</clustering>
</event>
<event>
 6    1  0.9480355E-012  0.3000000E+03  0.7818608E-02  0.1093470E+00
          1   -1    0    0  502    0  0.00000000000E+00  0.00000000000E+00  0.22603801115E+03  0.22603801115E+03  0.00000000000E+00 0.  1.
         13   -1    0    0    0    0 -0.00000000000E+00 -0.00000000000E+00 -0.27500000000E+03  0.27500000000E+03  0.00000000000E+00 0.  1.
    9000005    2    1    2  501    0 -0.31883404483E+02 -0.10445120294E+02 -0.31127705802E+02  0.46304177883E+03  0.46077445985E+03 0.  0.
         13    1    3    3    0    0 -0.59913359878E+02  0.19057363808E+03  0.97970284562E+02  0.22249966041E+03  0.00000000000E+00 0.  1.
          1    1    3    3  501    0  0.28029955395E+02 -0.20101875838E+03 -0.12909799036E+03  0.24054211842E+03  0.00000000000E+00 0.  1.
         21    1    1    2  502  501  0.31883404483E+02  0.10445120294E+02 -0.17834283044E+02  0.37996232327E+02  0.00000000000E+00 0.  1.
<scales pt_clust_4="550.00000" pt_clust_5="550.00000" pt_clust_6="33.55075"></scales>
<mgrwt>
<rscale>  0 0.30000000E+03</rscale>
<asrwt>  1 0.33550755E+02</asrwt>
<pdfrwt beam="1">  1        1 0.82195640E+00 0.30000000E+03</pdfrwt>
<pdfrwt beam="2">0</pdfrwt>
<totfact> 0.70082965E-04</totfact>
</mgrwt>
<clustering>
<clus scale="   33.551">  1  6  2 -1</clus>
<clus scale="  460.774">  4  5 -1 -1</clus>
<clus scale="  300.000">  1  4  2 -1</clus>
</clustering>
</event>
<event>
 6    1  0.9480355E-012  0.3000000E+03  0.7818608E-02  0.1093470E+00
          1   -1    0    0  502    0  0.00000000000E+00  0.00000000000E+00  0.23839181812E+03  0.23839181812E+03  0.00000000000E+00 0.  1.
         13   -1    0    0    0    0 -0.00000000000E+00 -0.00000000000E+00 -0.27500000000E+03  0.27500000000E+03  0.00000000000E+00 0.  1.
    9000005    2    1    2  501    0  0.28860142646E+01  0.35160632990E+02 -0.50446349553E+02  0.47549598622E+03  0.47149443214E+03 0.  0.
         13    1    3    3    0    0  0.18174343444E+03  0.11318434119E+03  0.92876083424E+02  0.23338238564E+03  0.00000000000E+00 0.  1.
          1    1    3    3  501    0 -0.17885742018E+03 -0.78023708202E+02 -0.14332243298E+03  0.24211360059E+03  0.00000000000E+00 0.  1.
         21    1    1    2  502  501 -0.28860142646E+01 -0.35160632990E+02  0.13838167675E+02  0.37895831897E+02  0.00000000000E+00 0.  1.
<scales pt_clust_4="550.00000" pt_clust_5="550.00000" pt_clust_6="35.27888"></scales>
<mgrwt>
<rscale>  0 0.30000000E+03</rscale>
<asrwt>  1 0.35278877E+02</asrwt>
<pdfrwt beam="1">  1        1 0.86687934E+00 0.30000000E+03</pdfrwt>
<pdfrwt beam="2">0</pdfrwt>
<totfact> 0.27240987E-04</totfact>
</mgrwt>
<clustering>
<clus scale="   35.279">  1  6  2 -1</clus>
<clus scale="  471.494">  4  5 -1 -1</clus>
<clus scale="  300.000">  1  4  2 -1</clus>
</clustering>
</event>
<event>
 6    1  0.9480355E-012  0.3000000E+03  0.7818608E-02  0.1093470E+00
          1   -1    0    0  502    0  0.00000000000E+00  0.00000000000E+00  0.22680717250E+03  0.22680717250E+03  0.00000000000E+00 0.  1.
         13   -1    0    0    0    0 -0.00000000000E+00 -0.00000000000E+00 -0.27500000000E+03  0.27500000000E+03  0.00000000000E+00 0.  1.
    9000005    2    1    2  501    0 -0.26022650820E+02 -0.19249294996E+02 -0.66281769977E+02  0.46472721088E+03  0.45883591162E+03 0.  0.
         13    1    3    3    0    0  0.17821619282E+03  0.47810999527E+02  0.83696144482E+02  0.20261280231E+03  0.00000000000E+00 0.  1.
          1    1    3    3  501    0 -0.20423884364E+03 -0.67060294523E+02 -0.14997791446E+03  0.26211440857E+03  0.00000000000E+00 0.  1.
         21    1    1    2  502  501  0.26022650820E+02  0.19249294996E+02  0.18088942477E+02  0.37079961616E+02  0.00000000000E+00 0.  1.
<scales pt_clust_4="550.00000" pt_clust_5="550.00000" pt_clust_6="32.36841"></scales>
<mgrwt>
<rscale>  0 0.30000000E+03</rscale>
<asrwt>  1 0.32368406E+02</asrwt>
<pdfrwt beam="1">  1        1 0.82475335E+00 0.30000000E+03</pdfrwt>
<pdfrwt beam="2">0</pdfrwt>
<totfact> 0.66623119E-04</totfact>
</mgrwt>
<clustering>
<clus scale="   32.368">  1  6  2 -1</clus>
<clus scale="  458.836">  4  5 -1 -1</clus>
<clus scale="  300.000">  1  4  2 -1</clus>
</clustering>
</event>
<event>
 6    1  0.9480355E-012  0.3000000E+03  0.7818608E-02  0.1093470E+00
          1   -1    0    0  502    0  0.00000000000E+00  0.00000000000E+00  0.24685751762E+03  0.24685751762E+03  0.00000000000E+00 0.  1.
         13   -1    0    0    0    0 -0.00000000000E+00 -0.00000000000E+00 -0.27500000000E+03  0.27500000000E+03  0.00000000000E+00 0.  1.
    9000005    2    1    2  501    0 -0.16285335036E+02 -0.27739364334E+02 -0.59464018094E+02  0.47696071294E+03  0.47214496478E+03 0.  0.
         13    1    3    3    0    0 -0.39764668646E+02  0.19721541402E+02 -0.26296440560E+03  0.26668417028E+03  0.00000000000E+00 0.  1.
          3    1    3    3  501    0  0.23479333610E+02 -0.47460905736E+02  0.20350038750E+03  0.21027654266E+03  0.00000000000E+00 0.  1.
         21    1    1    2  502  501  0.16285335036E+02  0.27739364334E+02  0.31321535710E+02  0.44896804676E+02  0.00000000000E+00 0. -1.
<scales pt_clust_4="550.00000" pt_clust_5="550.00000" pt_clust_6="32.16651"></scales>
<mgrwt>
<rscale>  0 0.30000000E+03</rscale>
<asrwt>  1 0.32166512E+02</asrwt>
<pdfrwt beam="1">  1        1 0.89766370E+00 0.30000000E+03</pdfrwt>
<pdfrwt beam="2">0</pdfrwt>
<totfact> 0.11961199E-04</totfact>
</mgrwt>
<clustering>
<clus scale="   32.167">  1  6  2 -1</clus>
<clus scale="  472.145">  4  5 -1 -1</clus>
<clus scale="  300.000">  1  4  2 -1</clus>
</clustering>
</event>
<event>
 6    1  0.9480355E-012  0.3000000E+03  0.7818608E-02  0.1093470E+00
          1   -1    0    0  502    0  0.00000000000E+00  0.00000000000E+00  0.22862850790E+03  0.22862850790E+03  0.00000000000E+00 0.  1.
         13   -1    0    0    0    0 -0.00000000000E+00 -0.00000000000E+00 -0.27500000000E+03  0.27500000000E+03  0.00000000000E+00 0.  1.
    9000005    2    1    2  501    0  0.28753664735E+01 -0.29938635092E+02 -0.51644184621E+02  0.47309343151E+03  0.46930340243E+03 0.  0.
         13    1    3    3    0    0 -0.14919267899E+03  0.12456015465E+03  0.89955630606E+02  0.21416279571E+03  0.00000000000E+00 0.  1.
          3    1    3    3  501    0  0.15206804547E+03 -0.15449878974E+03 -0.14159981523E+03  0.25893063580E+03  0.00000000000E+00 0.  1.
         21    1    1    2  502  501 -0.28753664735E+01  0.29938635092E+02  0.52726925196E+01  0.30535076386E+02  0.00000000000E+00 0. -1.
<scales pt_clust_4="550.00000" pt_clust_5="550.00000" pt_clust_6="30.07640"></scales>
<mgrwt>
<rscale>  0 0.30000000E+03</rscale>
<asrwt>  1 0.30076396E+02</asrwt>
<pdfrwt beam="1">  1        1 0.83137639E+00 0.30000000E+03</pdfrwt>
<pdfrwt beam="2">0</pdfrwt>
<totfact> 0.59291948E-04</totfact>
</mgrwt>
<clustering>
<clus scale="   30.076">  1  6  2 -1</clus>
<clus scale="  469.303">  4  5 -1 -1</clus>
<clus scale="  300.000">  1  4  2 -1</clus>
</clustering>
</event>
<event>
 6    1  0.9480355E-012  0.3000000E+03  0.7818608E-02  0.1093470E+00
          1   -1    0    0  502    0  0.00000000000E+00  0.00000000000E+00  0.23661666628E+03  0.23661666628E+03  0.00000000000E+00 0.  1.
         13   -1    0    0    0    0 -0.00000000000E+00 -0.00000000000E+00 -0.27500000000E+03  0.27500000000E+03  0.00000000000E+00 0.  1.
    9000005    2    1    2  501    0 -0.23907276136E+02  0.24230085441E+02 -0.57934588128E+02  0.47236228510E+03  0.46755861343E+03 0.  0.
         13    1    3    3    0    0 -0.22971772408E+03  0.12017570163E+02  0.56073293030E+02  0.23676754200E+03  0.00000000000E+00 0.  1.
          3    1    3    3  501    0  0.20581044795E+03  0.12212515278E+02 -0.11400788116E+03  0.23559474311E+03  0.00000000000E+00 0.  1.
         21    1    1    2  502  501  0.23907276136E+02 -0.24230085441E+02  0.19551254411E+02  0.39254381180E+02  0.00000000000E+00 0. -1.
<scales pt_clust_4="550.00000" pt_clust_5="550.00000" pt_clust_6="34.03902"></scales>
<mgrwt>
<rscale>  0 0.30000000E+03</rscale>
<asrwt>  1 0.34039020E+02</asrwt>
<pdfrwt beam="1">  1        1 0.86042424E+00 0.30000000E+03</pdfrwt>
<pdfrwt beam="2">0</pdfrwt>
<totfact> 0.32177958E-04</totfact>
</mgrwt>
<clustering>
<clus scale="   34.039">  1  6  2 -1</clus>
<clus scale="  467.559">  4  5 -1 -1</clus>
<clus scale="  300.000">  1  4  2 -1</clus>
</clustering>
</event>
<event>
 6    1  0.9480355E-012  0.3000000E+03  0.7818608E-02  0.1093470E+00
          1   -1    0    0  502    0  0.00000000000E+00  0.00000000000E+00  0.22854441757E+03  0.22854441757E+03  0.00000000000E+00 0.  1.
         13   -1    0    0    0    0 -0.00000000000E+00 -0.00000000000E+00 -0.27500000000E+03  0.27500000000E+03  0.00000000000E+00 0.  1.
    9000005    2    1    2  501    0 -0.37441526293E+02 -0.78823383894E+01 -0.52954370339E+02  0.46473419477E+03  0.46011923161E+03 0.  0.
         13    1    3    3    0    0  0.92894750815E+01 -0.14223333995E+03  0.15641271361E+03  0.21161652658E+03  0.00000000000E+00 0.  1.
          3    1    3    3  501    0 -0.46731001375E+02  0.13435100156E+03 -0.20936708395E+03  0.25311766819E+03  0.00000000000E+00 0.  1.
         21    1    1    2  502  501  0.37441526293E+02  0.78823383894E+01  0.64987879107E+01  0.38810222802E+02  0.00000000000E+00 0.  1.
<scales pt_clust_4="550.00000" pt_clust_5="550.00000" pt_clust_6="38.26224"></scales>
<mgrwt>
<rscale>  0 0.30000000E+03</rscale>
<asrwt>  1 0.38262242E+02</asrwt>
<pdfrwt beam="1">  1        1 0.83107061E+00 0.30000000E+03</pdfrwt>
<pdfrwt beam="2">0</pdfrwt>
<totfact> 0.56982735E-04</totfact>
</mgrwt>
<clustering>
<clus scale="   38.262">  1  6  2 -1</clus>
<clus scale="  460.119">  4  5 -1 -1</clus>
<clus scale="  300.000">  1  4  2 -1</clus>
</clustering>
</event>
<event>
 6    1  0.9480355E-012  0.3000000E+03  0.7818608E-02  0.1093470E+00
          1   -1    0    0  502    0  0.00000000000E+00  0.00000000000E+00  0.22770187587E+03  0.22770187587E+03  0.00000000000E+00 0.  1.
         13   -1    0    0    0    0 -0.00000000000E+00 -0.00000000000E+00 -0.27500000000E+03  0.27500000000E+03  0.00000000000E+00 0.  1.
    9000005    2    1    2  501    0  0.22383046245E+02  0.30596765227E+02 -0.42724648758E+02  0.46451706897E+03  0.46099191853E+03 0.  0.
         13    1    3    3    0    0  0.35992645014E+02  0.68229676274E+02  0.20216321500E+03  0.21638097125E+03  0.00000000000E+00 0.  1.
          1    1    3    3  501    0 -0.13609598770E+02 -0.37632911047E+02 -0.24488786376E+03  0.24813609772E+03  0.00000000000E+00 0.  1.
         21    1    1    2  502  501 -0.22383046245E+02 -0.30596765227E+02 -0.45734753693E+01  0.38184806907E+02  0.00000000000E+00 0.  1.
<scales pt_clust_4="550.00000" pt_clust_5="550.00000" pt_clust_6="37.90995"></scales>
<mgrwt>
<rscale>  0 0.30000000E+03</rscale>
<asrwt>  1 0.37909949E+02</asrwt>
<pdfrwt beam="1">  1        1 0.82800682E+00 0.30000000E+03</pdfrwt>
<pdfrwt beam="2">0</pdfrwt>
<totfact> 0.60541604E-04</totfact>
</mgrwt>
<clustering>
<clus scale="   37.910">  1  6  2 -1</clus>
<clus scale="  460.992">  4  5 -1 -1</clus>
<clus scale="  300.000">  1  4  2 -1</clus>
</clustering>
</event>
<event>
 6    1  0.9480355E-012  0.3000000E+03  0.7818608E-02  0.1093470E+00
          1   -1    0    0  502    0  0.00000000000E+00  0.00000000000E+00  0.23707456252E+03  0.23707456252E+03  0.00000000000E+00 0.  1.
         13   -1    0    0    0    0 -0.00000000000E+00 -0.00000000000E+00 -0.27500000000E+03  0.27500000000E+03  0.00000000000E+00 0.  1.
    9000005    2    1    2  501    0 -0.27017208061E+02  0.18264173087E+02 -0.49362356657E+02  0.47751573340E+03  0.47383660035E+03 0.  0.
         13    1    3    3    0    0  0.66950451067E+02  0.12391937220E+03  0.16736325628E+03  0.21874376164E+03  0.00000000000E+00 0.  1.
          3    1    3    3  501    0 -0.93967659128E+02 -0.10565519912E+03 -0.21672561294E+03  0.25877197175E+03  0.00000000000E+00 0.  1.
         21    1    1    2  502  501  0.27017208061E+02 -0.18264173087E+02  0.11436919172E+02  0.34558829120E+02  0.00000000000E+00 0.  1.
<scales pt_clust_4="550.00000" pt_clust_5="550.00000" pt_clust_6="32.61149"></scales>
<mgrwt>
<rscale>  0 0.30000000E+03</rscale>
<asrwt>  1 0.32611494E+02</asrwt>
<pdfrwt beam="1">  1        1 0.86208932E+00 0.30000000E+03</pdfrwt>
<pdfrwt beam="2">0</pdfrwt>
<totfact> 0.31127881E-04</totfact>
</mgrwt>
<clustering>
<clus scale="   32.611">  1  6  2 -1</clus>
<clus scale="  473.837">  4  5 -1 -1</clus>
<clus scale="  300.000">  1  4  2 -1</clus>
</clustering>
</event>
<event>
 6    1  0.9480355E-012  0.3000000E+03  0.7818608E-02  0.1093470E+00
          1   -1    0    0  502    0  0.00000000000E+00  0.00000000000E+00  0.24503916528E+03  0.24503916528E+03  0.00000000000E+00 0.  1.
         13   -1    0    0    0    0 -0.00000000000E+00 -0.00000000000E+00 -0.27500000000E+03  0.27500000000E+03  0.00000000000E+00 0.  1.
    9000005    2    1    2  501    0 -0.33851728477E+02  0.46359612360E+02 -0.28481491056E+02  0.46261668156E+03  0.45815700970E+03 0.  0.
         13    1    3    3    0    0 -0.18656832414E+03  0.13339789022E+03 -0.12591218893E+03  0.26164215259E+03  0.00000000000E+00 0.  1.
          3    1    3    3  501    0  0.15271659567E+03 -0.87038277862E+02  0.97430697876E+02  0.20097452897E+03  0.00000000000E+00 0.  1.
         21    1    1    2  502  501  0.33851728477E+02 -0.46359612360E+02 -0.14793436665E+01  0.57422483722E+02  0.00000000000E+00 0.  1.
<scales pt_clust_4="550.00000" pt_clust_5="550.00000" pt_clust_6="57.40342"></scales>
<mgrwt>
<rscale>  0 0.30000000E+03</rscale>
<asrwt>  1 0.57403425E+02</asrwt>
<pdfrwt beam="1">  1        1 0.89105151E+00 0.30000000E+03</pdfrwt>
<pdfrwt beam="2">0</pdfrwt>
<totfact> 0.12854245E-04</totfact>
</mgrwt>
<clustering>
<clus scale="   57.403">  1  6  2 -1</clus>
<clus scale="  458.157">  4  5 -1 -1</clus>
<clus scale="  300.000">  1  4  2 -1</clus>
</clustering>
</event>
<event>
 6    1  0.9480355E-012  0.3000000E+03  0.7818608E-02  0.1093470E+00
          1   -1    0    0  502    0  0.00000000000E+00  0.00000000000E+00  0.22039428466E+03  0.22039428466E+03  0.00000000000E+00 0.  1.
         13   -1    0    0    0    0 -0.00000000000E+00 -0.00000000000E+00 -0.27500000000E+03  0.27500000000E+03  0.00000000000E+00 0.  1.
    9000005    2    1    2  501    0 -0.23879999074E+02  0.21451441997E+02 -0.51280354855E+02  0.46312236587E+03  0.45915382200E+03 0.  0.
         13    1    3    3    0    0  0.59391876558E+02  0.52813137420E+02  0.19000222716E+03  0.20595501648E+03  0.00000000000E+00 0.  1.
          1    1    3    3  501    0 -0.83271875631E+02 -0.31361695423E+02 -0.24128258202E+03  0.25716734940E+03  0.00000000000E+00 0.  1.
         21    1    1    2  502  501  0.23879999074E+02 -0.21451441997E+02 -0.33253604894E+01  0.32271918782E+02  0.00000000000E+00 0. -1.
<scales pt_clust_4="550.00000" pt_clust_5="550.00000" pt_clust_6="32.10014"></scales>
<mgrwt>
<rscale>  0 0.30000000E+03</rscale>
<asrwt>  1 0.32100136E+02</asrwt>
<pdfrwt beam="1">  1        1 0.80143376E+00 0.30000000E+03</pdfrwt>
<pdfrwt beam="2">0</pdfrwt>
<totfact> 0.10291698E-03</totfact>
</mgrwt>
<clustering>
<clus scale="   32.100">  1  6  2 -1</clus>
<clus scale="  459.154">  4  5 -1 -1</clus>
<clus scale="  300.000">  1  4  2 -1</clus>
</clustering>
</event>
<event>
 6    1  0.9480355E-012  0.3000000E+03  0.7818608E-02  0.1093470E+00
          1   -1    0    0  502    0  0.00000000000E+00  0.00000000000E+00  0.23139417464E+03  0.23139417464E+03  0.00000000000E+00 0.  1.
         13   -1    0    0    0    0 -0.00000000000E+00 -0.00000000000E+00 -0.27500000000E+03  0.27500000000E+03  0.00000000000E+00 0.  1.
    9000005    2    1    2  501    0 -0.11873036847E+02  0.29078738526E+02 -0.58157587842E+02  0.47177776481E+03  0.46712462182E+03 0.  0.
         13    1    3    3    0    0  0.47590129927E+02 -0.87484918147E+02  0.17675341296E+03  0.20287976824E+03  0.00000000000E+00 0.  1.
          1    1    3    3  501    0 -0.59463166774E+02  0.11656365667E+03 -0.23491100080E+03  0.26889799657E+03  0.00000000000E+00 0.  1.
         21    1    1    2  502  501  0.11873036847E+02 -0.29078738526E+02  0.14551762481E+02  0.34616409830E+02  0.00000000000E+00 0.  1.
<scales pt_clust_4="550.00000" pt_clust_5="550.00000" pt_clust_6="31.40927"></scales>
<mgrwt>
<rscale>  0 0.30000000E+03</rscale>
<asrwt>  1 0.31409267E+02</asrwt>
<pdfrwt beam="1">  1        1 0.84143336E+00 0.30000000E+03</pdfrwt>
<pdfrwt beam="2">0</pdfrwt>
<totfact> 0.49431313E-04</totfact>
</mgrwt>
<clustering>
<clus scale="   31.409">  1  6  2 -1</clus>
<clus scale="  467.125">  4  5 -1 -1</clus>
<clus scale="  300.000">  1  4  2 -1</clus>
</clustering>
</event>
<event>
 6    1  0.9480355E-012  0.3000000E+03  0.7818608E-02  0.1093470E+00
          1   -1    0    0  502    0  0.00000000000E+00  0.00000000000E+00  0.23342934309E+03  0.23342934309E+03  0.00000000000E+00 0.  1.
         13   -1    0    0    0    0 -0.00000000000E+00 -0.00000000000E+00 -0.27500000000E+03  0.27500000000E+03  0.00000000000E+00 0.  1.
    9000005    2    1    2  501    0  0.30835965556E+02  0.19223197172E+02 -0.67314914587E+02  0.46389671590E+03  0.45754614763E+03 0.  0.
         13    1    3    3    0    0  0.21711422478E+03 -0.23865376686E+02  0.69023267628E+02  0.22906844889E+03  0.00000000000E+00 0.  1.
          3    1    3    3  501    0 -0.18627825922E+03  0.43088573858E+02 -0.13633818222E+03  0.23482826701E+03  0.00000000000E+00 0.  1.
         21    1    1    2  502  501 -0.30835965556E+02 -0.19223197172E+02  0.25744257681E+02  0.44532627194E+02  0.00000000000E+00 0. -1.
<scales pt_clust_4="550.00000" pt_clust_5="550.00000" pt_clust_6="36.33714"></scales>
<mgrwt>
<rscale>  0 0.30000000E+03</rscale>
<asrwt>  1 0.36337145E+02</asrwt>
<pdfrwt beam="1">  1        1 0.84883397E+00 0.30000000E+03</pdfrwt>
<pdfrwt beam="2">0</pdfrwt>
<totfact> 0.41439147E-04</totfact>
</mgrwt>
<clustering>
<clus scale="   36.337">  1  6  2 -1</clus>
<clus scale="  457.546">  4  5 -1 -1</clus>
<clus scale="  300.000">  1  4  2 -1</clus>
</clustering>
</event>
<event>
 6    1  0.9480355E-012  0.3000000E+03  0.7818608E-02  0.1093470E+00
          1   -1    0    0  502    0  0.00000000000E+00  0.00000000000E+00  0.23840080222E+03  0.23840080222E+03  0.00000000000E+00 0.  1.
         13   -1    0    0    0    0 -0.00000000000E+00 -0.00000000000E+00 -0.27500000000E+03  0.27500000000E+03  0.00000000000E+00 0.  1.
    9000005    2    1    2  501    0  0.23128033894E+02  0.21318835172E+02 -0.54593672049E+02  0.47716270363E+03  0.47298454312E+03 0.  0.
         13    1    3    3    0    0 -0.51105475482E+02 -0.51612707293E+02 -0.24752119973E+03  0.25795810802E+03  0.00000000000E+00 0.  1.
          1    1    3    3  501    0  0.74233509376E+02  0.72931542466E+02  0.19292752768E+03  0.21920459561E+03  0.00000000000E+00 0.  1.
         21    1    1    2  502  501 -0.23128033894E+02 -0.21318835172E+02  0.17994474267E+02  0.36238098585E+02  0.00000000000E+00 0. -1.
<scales pt_clust_4="550.00000" pt_clust_5="550.00000" pt_clust_6="31.45471"></scales>
<mgrwt>
<rscale>  0 0.30000000E+03</rscale>
<asrwt>  1 0.31454708E+02</asrwt>
<pdfrwt beam="1">  1        1 0.86691201E+00 0.30000000E+03</pdfrwt>
<pdfrwt beam="2">0</pdfrwt>
<totfact> 0.27815320E-04</totfact>
</mgrwt>
<clustering>
<clus scale="   31.455">  1  6  2 -1</clus>
<clus scale="  472.985">  4  5 -1 -1</clus>
<clus scale="  300.000">  1  4  2 -1</clus>
</clustering>
</event>
<event>
 6    1  0.9480355E-012  0.3000000E+03  0.7818608E-02  0.1093470E+00
          1   -1    0    0  502    0  0.00000000000E+00  0.00000000000E+00  0.25318667967E+03  0.25318667967E+03  0.00000000000E+00 0.  1.
         13   -1    0    0    0    0 -0.00000000000E+00 -0.00000000000E+00 -0.27500000000E+03  0.27500000000E+03  0.00000000000E+00 0.  1.
    9000005    2    1    2  501    0  0.23859919207E+02 -0.24069647214E+02 -0.35980511528E+02  0.49145313957E+03  0.48896108999E+03 0.  0.
         13    1    3    3    0    0  0.21386220750E+03  0.29074929710E+02 -0.15069501110E+03  0.26323256201E+03  0.00000000000E+00 0.  1.
          1    1    3    3  501    0 -0.19000228829E+03 -0.53144576924E+02  0.11471449957E+03  0.22822057756E+03  0.00000000000E+00 0.  1.
         21    1    1    2  502  501 -0.23859919207E+02  0.24069647214E+02  0.14167191194E+02  0.36733540095E+02  0.00000000000E+00 0.  1.
<scales pt_clust_4="550.00000" pt_clust_5="550.00000" pt_clust_6="33.89165"></scales>
<mgrwt>
<rscale>  0 0.30000000E+03</rscale>
<asrwt>  1 0.33891646E+02</asrwt>
<pdfrwt beam="1">  1        1 0.92067884E+00 0.30000000E+03</pdfrwt>
<pdfrwt beam="2">0</pdfrwt>
<totfact> 0.40656780E-05</totfact>
</mgrwt>
<clustering>
<clus scale="   33.892">  1  6  2 -1</clus>
<clus scale="  488.961">  4  5 -1 -1</clus>
<clus scale="  300.000">  1  4  2 -1</clus>
</clustering>
</event>
<event>
 6    1  0.9480355E-012  0.3000000E+03  0.7818608E-02  0.1093470E+00
          1   -1    0    0  502    0  0.00000000000E+00  0.00000000000E+00  0.22533553524E+03  0.22533553524E+03  0.00000000000E+00 0.  1.
         13   -1    0    0    0    0 -0.00000000000E+00 -0.00000000000E+00 -0.27500000000E+03  0.27500000000E+03  0.00000000000E+00 0.  1.
    9000005    2    1    2  501    0  0.12425909180E+02 -0.28170808520E+02 -0.68889355852E+02  0.46403685607E+03  0.45786074605E+03 0.  0.
         13    1    3    3    0    0  0.13667125785E+03 -0.11748203101E+02 -0.22519920913E+03  0.26368871192E+03  0.00000000000E+00 0.  1.
          1    1    3    3  501    0 -0.12424534867E+03 -0.16422605419E+02  0.15630985328E+03  0.20034814416E+03  0.00000000000E+00 0.  1.
         21    1    1    2  502  501 -0.12425909180E+02  0.28170808520E+02  0.19224891090E+02  0.36298679164E+02  0.00000000000E+00 0. -1.
<scales pt_clust_4="550.00000" pt_clust_5="550.00000" pt_clust_6="30.78957"></scales>
<mgrwt>
<rscale>  0 0.30000000E+03</rscale>
<asrwt>  1 0.30789571E+02</asrwt>
<pdfrwt beam="1">  1        1 0.81940195E+00 0.30000000E+03</pdfrwt>
<pdfrwt beam="2">0</pdfrwt>
<totfact> 0.74990234E-04</totfact>
</mgrwt>
<clustering>
<clus scale="   30.790">  1  6  2 -1</clus>
<clus scale="  457.861">  4  5 -1 -1</clus>
<clus scale="  300.000">  1  4  2 -1</clus>
</clustering>
</event>
<event>
 6    1  0.9480355E-012  0.3000000E+03  0.7818608E-02  0.1093470E+00
          1   -1    0    0  502    0  0.00000000000E+00  0.00000000000E+00  0.25089807884E+03  0.25089807884E+03  0.00000000000E+00 0.  1.
         13   -1    0    0    0    0 -0.00000000000E+00 -0.00000000000E+00 -0.27500000000E+03  0.27500000000E+03  0.00000000000E+00 0.  1.
    9000005    2    1    2  501    0 -0.14065062138E+02 -0.28821743020E+02 -0.59036997510E+02  0.47847468374E+03  0.47373424729E+03 0.  0.
         13    1    3    3    0    0 -0.16982871974E+03 -0.18337133830E+03  0.47036599084E+01  0.24997793138E+03  0.00000000000E+00 0.  1.
          1    1    3    3  501    0  0.15576365761E+03  0.15454959528E+03 -0.63740657419E+02  0.22849675236E+03  0.00000000000E+00 0.  1.
         21    1    1    2  502  501  0.14065062138E+02  0.28821743020E+02  0.34935076349E+02  0.47423395103E+02  0.00000000000E+00 0.  1.
<scales pt_clust_4="550.00000" pt_clust_5="550.00000" pt_clust_6="32.07053"></scales>
<mgrwt>
<rscale>  0 0.30000000E+03</rscale>
<asrwt>  1 0.32070529E+02</asrwt>
<pdfrwt beam="1">  1        1 0.91235665E+00 0.30000000E+03</pdfrwt>
<pdfrwt beam="2">0</pdfrwt>
<totfact> 0.63846724E-05</totfact>
</mgrwt>
<clustering>
<clus scale="   32.071">  1  6  2 -1</clus>
<clus scale="  473.734">  4  5 -1 -1</clus>
<clus scale="  300.000">  1  4  2 -1</clus>
</clustering>
</event>
<event>
 6    1  0.9480355E-012  0.3000000E+03  0.7818608E-02  0.1093470E+00
          1   -1    0    0  502    0  0.00000000000E+00  0.00000000000E+00  0.24940534071E+03  0.24940534071E+03  0.00000000000E+00 0.  1.
         13   -1    0    0    0    0 -0.00000000000E+00 -0.00000000000E+00 -0.27500000000E+03  0.27500000000E+03  0.00000000000E+00 0.  1.
    9000005    2    1    2  501    0 -0.10318768941E+02  0.38776025772E+02 -0.66246411958E+02  0.46728597305E+03  0.46082267343E+03 0.  0.
         13    1    3    3    0    0  0.61845905584E+02  0.92054332841E+01  0.18969073849E+03  0.19973039906E+03  0.00000000000E+00 0.  1.
          3    1    3    3  501    0 -0.72164674525E+02  0.29570592488E+02 -0.25593715045E+03  0.26755557399E+03  0.00000000000E+00 0.  1.
         21    1    1    2  502  501  0.10318768941E+02 -0.38776025772E+02  0.40651752671E+02  0.57119367664E+02  0.00000000000E+00 0.  1.
<scales pt_clust_4="550.00000" pt_clust_5="550.00000" pt_clust_6="40.12552"></scales>
<mgrwt>
<rscale>  0 0.30000000E+03</rscale>
<asrwt>  1 0.40125518E+02</asrwt>
<pdfrwt beam="1">  1        1 0.90692851E+00 0.30000000E+03</pdfrwt>
<pdfrwt beam="2">0</pdfrwt>
<totfact> 0.82433939E-05</totfact>
</mgrwt>
<clustering>
<clus scale="   40.126">  1  6  2 -1</clus>
<clus scale="  460.823">  4  5 -1 -1</clus>
<clus scale="  300.000">  1  4  2 -1</clus>
</clustering>
</event>
<event>
 6    1  0.9480355E-012  0.3000000E+03  0.7818608E-02  0.1093470E+00
          1   -1    0    0  502    0  0.00000000000E+00  0.00000000000E+00  0.23008782165E+03  0.23008782165E+03  0.00000000000E+00 0.  1.
         13   -1    0    0    0    0 -0.00000000000E+00 -0.00000000000E+00 -0.27500000000E+03  0.27500000000E+03  0.00000000000E+00 0.  1.
    9000005    2    1    2  501    0 -0.23645900116E+02  0.18503449792E+02 -0.66814508285E+02  0.46792307622E+03  0.46215400084E+03 0.  0.
         13    1    3    3    0    0  0.85865736418E+02  0.21146497433E+03 -0.88941658508E+02  0.24495097199E+03  0.00000000000E+00 0.  1.
          1    1    3    3  501    0 -0.10951163653E+03 -0.19296152454E+03  0.22127150222E+02  0.22297210423E+03  0.00000000000E+00 0.  1.
         21    1    1    2  502  501  0.23645900116E+02 -0.18503449792E+02  0.21902329939E+02  0.37164745435E+02  0.00000000000E+00 0. -1.
<scales pt_clust_4="550.00000" pt_clust_5="550.00000" pt_clust_6="30.02509"></scales>
<mgrwt>
<rscale>  0 0.30000000E+03</rscale>
<asrwt>  1 0.30025094E+02</asrwt>
<pdfrwt beam="1">  1        1 0.83668299E+00 0.30000000E+03</pdfrwt>
<pdfrwt beam="2">0</pdfrwt>
<totfact> 0.54149800E-04</totfact>
</mgrwt>
<clustering>
<clus scale="   30.025">  1  6  2 -1</clus>
<clus scale="  462.154">  4  5 -1 -1</clus>
<clus scale="  300.000">  1  4  2 -1</clus>
</clustering>
</event>
<event>
 6    1  0.9480355E-012  0.3000000E+03  0.7818608E-02  0.1093470E+00
          1   -1    0    0  502    0  0.00000000000E+00  0.00000000000E+00  0.22828238884E+03  0.22828238884E+03  0.00000000000E+00 0.  1.
         13   -1    0    0    0    0 -0.00000000000E+00 -0.00000000000E+00 -0.27500000000E+03  0.27500000000E+03  0.00000000000E+00 0.  1.
    9000005    2    1    2  501    0  0.11790809790E+02  0.33751108942E+02 -0.54368881377E+02  0.46672144675E+03  0.46216314549E+03 0.  0.
         13    1    3    3    0    0 -0.15963294198E+03 -0.12871117927E+03 -0.96805687207E+02  0.22676107450E+03  0.00000000000E+00 0.  1.
          3    1    3    3  501    0  0.17142375177E+03  0.16246228821E+03  0.42436805830E+02  0.23996037225E+03  0.00000000000E+00 0.  1.
         21    1    1    2  502  501 -0.11790809790E+02 -0.33751108942E+02  0.76512702156E+01  0.36560942086E+02  0.00000000000E+00 0.  1.
<scales pt_clust_4="550.00000" pt_clust_5="550.00000" pt_clust_6="35.75137"></scales>
<mgrwt>
<rscale>  0 0.30000000E+03</rscale>
<asrwt>  1 0.35751371E+02</asrwt>
<pdfrwt beam="1">  1        1 0.83011778E+00 0.30000000E+03</pdfrwt>
<pdfrwt beam="2">0</pdfrwt>
<totfact> 0.58735924E-04</totfact>
</mgrwt>
<clustering>
<clus scale="   35.751">  1  6  2 -1</clus>
<clus scale="  462.163">  4  5 -1 -1</clus>
<clus scale="  300.000">  1  4  2 -1</clus>
</clustering>
</event>
<event>
 6    1  0.9480355E-012  0.3000000E+03  0.7818608E-02  0.1093470E+00
          1   -1    0    0  502    0  0.00000000000E+00  0.00000000000E+00  0.23374564322E+03  0.23374564322E+03  0.00000000000E+00 0.  1.
         13   -1    0    0    0    0 -0.00000000000E+00 -0.00000000000E+00 -0.27500000000E+03  0.27500000000E+03  0.00000000000E+00 0.  1.
    9000005    2    1    2  501    0  0.17183865366E+02  0.38039079610E+02 -0.37726714770E+02  0.46685649110E+03  0.46345379648E+03 0.  0.
         13    1    3    3    0    0  0.17471035762E+03 -0.16455477364E+02 -0.17729443045E+03  0.24945501972E+03  0.00000000000E+00 0.  1.
          3    1    3    3  501    0 -0.15752649225E+03  0.54494556974E+02  0.13956771568E+03  0.21740147139E+03  0.00000000000E+00 0.  1.
         21    1    1    2  502  501 -0.17183865366E+02 -0.38039079610E+02 -0.35276420143E+01  0.41889152112E+02  0.00000000000E+00 0. -1.
<scales pt_clust_4="550.00000" pt_clust_5="550.00000" pt_clust_6="41.74037"></scales>
<mgrwt>
<rscale>  0 0.30000000E+03</rscale>
<asrwt>  1 0.41740371E+02</asrwt>
<pdfrwt beam="1">  1        1 0.84998416E+00 0.30000000E+03</pdfrwt>
<pdfrwt beam="2">0</pdfrwt>
<totfact> 0.39414253E-04</totfact>
</mgrwt>
<clustering>
<clus scale="   41.740">  1  6  2 -1</clus>
<clus scale="  463.454">  4  5 -1 -1</clus>
<clus scale="  300.000">  1  4  2 -1</clus>
</clustering>
</event>
<event>
 6    1  0.9480355E-012  0.3000000E+03  0.7818608E-02  0.1093470E+00
          1   -1    0    0  502    0  0.00000000000E+00  0.00000000000E+00  0.25864537324E+03  0.25864537324E+03  0.00000000000E+00 0.  1.
         13   -1    0    0    0    0 -0.00000000000E+00 -0.00000000000E+00 -0.27500000000E+03  0.27500000000E+03  0.00000000000E+00 0.  1.
    9000005    2    1    2  501    0 -0.32761245487E+02  0.26115193332E+02 -0.44467270048E+02  0.48319120353E+03  0.47931315289E+03 0.  0.
         13    1    3    3    0    0  0.97124714194E+02  0.20814524574E+03  0.58473189432E+02  0.23701638617E+03  0.00000000000E+00 0.  1.
          3    1    3    3  501    0 -0.12988595968E+03 -0.18203005241E+03 -0.10294045948E+03  0.24617481736E+03  0.00000000000E+00 0.  1.
         21    1    1    2  502  501  0.32761245487E+02 -0.26115193332E+02  0.28112643288E+02  0.50454169712E+02  0.00000000000E+00 0.  1.
<scales pt_clust_4="550.00000" pt_clust_5="550.00000" pt_clust_6="41.89633"></scales>
<mgrwt>
<rscale>  0 0.30000000E+03</rscale>
<asrwt>  1 0.41896331E+02</asrwt>
<pdfrwt beam="1">  1        1 0.94052863E+00 0.30000000E+03</pdfrwt>
<pdfrwt beam="2">0</pdfrwt>
<totfact> 0.18154360E-05</totfact>
</mgrwt>
<clustering>
<clus scale="   41.896">  1  6  2 -1</clus>
<clus scale="  479.313">  4  5 -1 -1</clus>
<clus scale="  300.000">  1  4  2 -1</clus>
</clustering>
</event>
<event>
 6    1  0.9480355E-012  0.3000000E+03  0.7818608E-02  0.1093470E+00
          1   -1    0    0  502    0  0.00000000000E+00  0.00000000000E+00  0.24310661733E+03  0.24310661733E+03  0.00000000000E+00 0.  1.
         13   -1    0    0    0    0 -0.00000000000E+00 -0.00000000000E+00 -0.27500000000E+03  0.27500000000E+03  0.00000000000E+00 0.  1.
    9000005    2    1    2  501    0  0.29677286227E+02 -0.40680988579E+02 -0.47054266624E+02  0.46551824835E+03  0.46038837017E+03 0.  0.
         13    1    3    3    0    0  0.11158137447E+03 -0.15581604715E+03 -0.18620275267E+03  0.26720873635E+03  0.00000000000E+00 0.  1.
          3    1    3    3  501    0 -0.81904088248E+02  0.11513505857E+03  0.13914848604E+03  0.19830951201E+03  0.00000000000E+00 0.  1.
         21    1    1    2  502  501 -0.29677286227E+02  0.40680988579E+02  0.15160883953E+02  0.52588368978E+02  0.00000000000E+00 0. -1.
<scales pt_clust_4="550.00000" pt_clust_5="550.00000" pt_clust_6="50.35558"></scales>
<mgrwt>
<rscale>  0 0.30000000E+03</rscale>
<asrwt>  1 0.50355577E+02</asrwt>
<pdfrwt beam="1">  1        1 0.88402406E+00 0.30000000E+03</pdfrwt>
<pdfrwt beam="2">0</pdfrwt>
<totfact> 0.16383690E-04</totfact>
</mgrwt>
<clustering>
<clus scale="   50.356">  1  6  2 -1</clus>
<clus scale="  460.388">  4  5 -1 -1</clus>
<clus scale="  300.000">  1  4  2 -1</clus>
</clustering>
</event>
<event>
 6    1  0.9480355E-012  0.3000000E+03  0.7818608E-02  0.1093470E+00
          1   -1    0    0  502    0  0.00000000000E+00  0.00000000000E+00  0.23296614753E+03  0.23296614753E+03  0.00000000000E+00 0.  1.
         13   -1    0    0    0    0 -0.00000000000E+00 -0.00000000000E+00 -0.27500000000E+03  0.27500000000E+03  0.00000000000E+00 0.  1.
    9000005    2    1    2  501    0  0.87100237026E+01  0.28920191294E+02 -0.26585585306E+02  0.47404136402E+03  0.47233058283E+03 0.  0.
         13    1    3    3    0    0  0.17643988383E+03  0.16720196613E+03  0.40744789247E+02  0.24647041999E+03  0.00000000000E+00 0.  1.
          3    1    3    3  501    0 -0.16772986012E+03 -0.13828177483E+03 -0.67330374554E+02  0.22757094403E+03  0.00000000000E+00 0.  1.
         21    1    1    2  502  501 -0.87100237026E+01 -0.28920191294E+02 -0.15448267168E+02  0.33924783505E+02  0.00000000000E+00 0.  1.
<scales pt_clust_4="550.00000" pt_clust_5="550.00000" pt_clust_6="30.20336"></scales>
<mgrwt>
<rscale>  0 0.30000000E+03</rscale>
<asrwt>  1 0.30203359E+02</asrwt>
<pdfrwt beam="1">  1        1 0.84714963E+00 0.30000000E+03</pdfrwt>
<pdfrwt beam="2">0</pdfrwt>
<totfact> 0.44462643E-04</totfact>
</mgrwt>
<clustering>
<clus scale="   30.203">  1  6  2 -1</clus>
<clus scale="  472.331">  4  5 -1 -1</clus>
<clus scale="  300.000">  1  4  2 -1</clus>
</clustering>
</event>
<event>
 6    1  0.9480355E-012  0.3000000E+03  0.7818608E-02  0.1093470E+00
          1   -1    0    0  502    0  0.00000000000E+00  0.00000000000E+00  0.23573196870E+03  0.23573196870E+03  0.00000000000E+00 0.  1.
         13   -1    0    0    0    0 -0.00000000000E+00 -0.00000000000E+00 -0.27500000000E+03  0.27500000000E+03  0.00000000000E+00 0.  1.
    9000005    2    1    2  501    0 -0.67133567755E+01 -0.31617396697E+02 -0.72753929740E+02  0.46419129480E+03  0.45731356304E+03 0.  0.
         13    1    3    3    0    0  0.15139780930E+03  0.10100066002E+03  0.88426537476E+02  0.20234051130E+03  0.00000000000E+00 0.  1.
          3    1    3    3  501    0 -0.15811116607E+03 -0.13261805672E+03 -0.16118046722E+03  0.26185078349E+03  0.00000000000E+00 0.  1.
         21    1    1    2  502  501  0.67133567755E+01  0.31617396697E+02  0.33485898444E+02  0.46540673906E+02  0.00000000000E+00 0. -1.
<scales pt_clust_4="550.00000" pt_clust_5="550.00000" pt_clust_6="32.32227"></scales>
<mgrwt>
<rscale>  0 0.30000000E+03</rscale>
<asrwt>  1 0.32322267E+02</asrwt>
<pdfrwt beam="1">  1        1 0.85720716E+00 0.30000000E+03</pdfrwt>
<pdfrwt beam="2">0</pdfrwt>
<totfact> 0.35129911E-04</totfact>
</mgrwt>
<clustering>
<clus scale="   32.322">  1  6  2 -1</clus>
<clus scale="  457.314">  4  5 -1 -1</clus>
<clus scale="  300.000">  1  4  2 -1</clus>
</clustering>
</event>
<event>
 6    1  0.9480355E-012  0.3000000E+03  0.7818608E-02  0.1093470E+00
          1   -1    0    0  502    0  0.00000000000E+00  0.00000000000E+00  0.22707817707E+03  0.22707817707E+03  0.00000000000E+00 0.  1.
         13   -1    0    0    0    0 -0.00000000000E+00 -0.00000000000E+00 -0.27500000000E+03  0.27500000000E+03  0.00000000000E+00 0.  1.
    9000005    2    1    2  501    0  0.30811559778E+01  0.36384614987E+02 -0.52270725480E+02  0.46530527015E+03  0.46091586212E+03 0.  0.
         13    1    3    3    0    0  0.19945984657E+03 -0.99844303549E+02 -0.33635994136E+02  0.22557591947E+03  0.00000000000E+00 0.  1.
          3    1    3    3  501    0 -0.19637869059E+03  0.13622891854E+03 -0.18634731344E+02  0.23972935068E+03  0.00000000000E+00 0.  1.
         21    1    1    2  502  501 -0.30811559778E+01 -0.36384614987E+02  0.43489025494E+01  0.36772906919E+02  0.00000000000E+00 0.  1.
<scales pt_clust_4="550.00000" pt_clust_5="550.00000" pt_clust_6="36.51484"></scales>
<mgrwt>
<rscale>  0 0.30000000E+03</rscale>
<asrwt>  1 0.36514843E+02</asrwt>
<pdfrwt beam="1">  1        1 0.82573883E+00 0.30000000E+03</pdfrwt>
<pdfrwt beam="2">0</pdfrwt>
<totfact> 0.63828498E-04</totfact>
</mgrwt>
<clustering>
<clus scale="   36.515">  1  6  2 -1</clus>
<clus scale="  460.916">  4  5 -1 -1</clus>
<clus scale="  300.000">  1  4  2 -1</clus>
</clustering>
</event>
<event>
 6    1  0.9480355E-012  0.3000000E+03  0.7818608E-02  0.1093470E+00
          1   -1    0    0  502    0  0.00000000000E+00  0.00000000000E+00  0.23068640349E+03  0.23068640349E+03  0.00000000000E+00 0.  1.
         13   -1    0    0    0    0 -0.00000000000E+00 -0.00000000000E+00 -0.27500000000E+03  0.27500000000E+03  0.00000000000E+00 0.  1.
    9000005    2    1    2  501    0  0.50081707255E+01 -0.34352562776E+02 -0.67542040806E+02  0.46391630692E+03  0.45765842307E+03 0.  0.
         13    1    3    3    0    0 -0.71300627545E+02  0.20009300467E+03 -0.30239234043E+02  0.21455861969E+03  0.00000000000E+00 0.  1.
          1    1    3    3  501    0  0.76308798270E+02 -0.23444556745E+03 -0.37302806763E+02  0.24935768723E+03  0.00000000000E+00 0.  1.
         21    1    1    2  502  501 -0.50081707255E+01  0.34352562776E+02  0.23228444300E+02  0.41770096575E+02  0.00000000000E+00 0.  1.
<scales pt_clust_4="550.00000" pt_clust_5="550.00000" pt_clust_6="34.71571"></scales>
<mgrwt>
<rscale>  0 0.30000000E+03</rscale>
<asrwt>  1 0.34715707E+02</asrwt>
<pdfrwt beam="1">  1        1 0.83885965E+00 0.30000000E+03</pdfrwt>
<pdfrwt beam="2">0</pdfrwt>
<totfact> 0.50777448E-04</totfact>
</mgrwt>
<clustering>
<clus scale="   34.716">  1  6  2 -1</clus>
<clus scale="  457.658">  4  5 -1 -1</clus>
<clus scale="  300.000">  1  4  2 -1</clus>
</clustering>
</event>
<event>
 6    1  0.9480355E-012  0.3000000E+03  0.7818608E-02  0.1093470E+00
          1   -1    0    0  502    0  0.00000000000E+00  0.00000000000E+00  0.23611741511E+03  0.23611741511E+03  0.00000000000E+00 0.  1.
         13   -1    0    0    0    0 -0.00000000000E+00 -0.00000000000E+00 -0.27500000000E+03  0.27500000000E+03  0.00000000000E+00 0.  1.
    9000005    2    1    2  501    0  0.87930670283E+01  0.30150684674E+02 -0.64209048709E+02  0.47077126804E+03  0.46531323113E+03 0.  0.
         13    1    3    3    0    0  0.22860719862E+03 -0.88044240218E+01  0.25475182256E+02  0.23019069063E+03  0.00000000000E+00 0.  1.
          3    1    3    3  501    0 -0.21981413159E+03  0.38955108696E+02 -0.89684230965E+02  0.24058057741E+03  0.00000000000E+00 0.  1.
         21    1    1    2  502  501 -0.87930670283E+01 -0.30150684674E+02  0.25326463823E+02  0.40346147075E+02  0.00000000000E+00 0.  1.
<scales pt_clust_4="550.00000" pt_clust_5="550.00000" pt_clust_6="31.40672"></scales>
<mgrwt>
<rscale>  0 0.30000000E+03</rscale>
<asrwt>  1 0.31406716E+02</asrwt>
<pdfrwt beam="1">  1        1 0.85860878E+00 0.30000000E+03</pdfrwt>
<pdfrwt beam="2">0</pdfrwt>
<totfact> 0.34154932E-04</totfact>
</mgrwt>
<clustering>
<clus scale="   31.407">  1  6  2 -1</clus>
<clus scale="  465.313">  4  5 -1 -1</clus>
<clus scale="  300.000">  1  4  2 -1</clus>
</clustering>
</event>
<event>
 6    1  0.9480355E-012  0.3000000E+03  0.7818608E-02  0.1093470E+00
          1   -1    0    0  502    0  0.00000000000E+00  0.00000000000E+00  0.22822720438E+03  0.22822720438E+03  0.00000000000E+00 0.  1.
         13   -1    0    0    0    0 -0.00000000000E+00 -0.00000000000E+00 -0.27500000000E+03  0.27500000000E+03  0.00000000000E+00 0.  1.
    9000005    2    1    2  501    0  0.30349539459E+02 -0.13616244875E+02 -0.66792169272E+02  0.46440360342E+03  0.45836995574E+03 0.  0.
         13    1    3    3    0    0 -0.12398301439E+03  0.67151459749E+02 -0.20028875587E+03  0.24494222203E+03  0.00000000000E+00 0.  1.
          3    1    3    3  501    0  0.15433255385E+03 -0.80767704623E+02  0.13349658660E+03  0.21946138139E+03  0.00000000000E+00 0.  1.
         21    1    1    2  502  501 -0.30349539459E+02  0.13616244875E+02  0.20019373655E+02  0.38823600958E+02  0.00000000000E+00 0. -1.
<scales pt_clust_4="550.00000" pt_clust_5="550.00000" pt_clust_6="33.26404"></scales>
<mgrwt>
<rscale>  0 0.30000000E+03</rscale>
<asrwt>  1 0.33264045E+02</asrwt>
<pdfrwt beam="1">  1        1 0.82991711E+00 0.30000000E+03</pdfrwt>
<pdfrwt beam="2">0</pdfrwt>
<totfact> 0.59762891E-04</totfact>
</mgrwt>
<clustering>
<clus scale="   33.264">  1  6  2 -1</clus>
<clus scale="  458.370">  4  5 -1 -1</clus>
<clus scale="  300.000">  1  4  2 -1</clus>
</clustering>
</event>
<event>
 6    1  0.9480355E-012  0.3000000E+03  0.7818608E-02  0.1093470E+00
          1   -1    0    0  502    0  0.00000000000E+00  0.00000000000E+00  0.23014613634E+03  0.23014613634E+03  0.00000000000E+00 0.  1.
         13   -1    0    0    0    0 -0.00000000000E+00 -0.00000000000E+00 -0.27500000000E+03  0.27500000000E+03  0.00000000000E+00 0.  1.
    9000005    2    1    2  501    0  0.27169287608E+02 -0.14235119075E+02 -0.50533987431E+02  0.47395202455E+03  0.47025102752E+03 0.  0.
         13    1    3    3    0    0  0.34750768442E+02  0.13435976282E+03  0.16275698988E+03  0.21389249525E+03  0.00000000000E+00 0.  1.
          1    1    3    3  501    0 -0.75814808343E+01 -0.14859488189E+03 -0.21329097731E+03  0.26005952930E+03  0.00000000000E+00 0.  1.
         21    1    1    2  502  501 -0.27169287608E+02  0.14235119075E+02  0.56801237699E+01  0.31194111788E+02  0.00000000000E+00 0.  1.
<scales pt_clust_4="550.00000" pt_clust_5="550.00000" pt_clust_6="30.67261"></scales>
<mgrwt>
<rscale>  0 0.30000000E+03</rscale>
<asrwt>  1 0.30672607E+02</asrwt>
<pdfrwt beam="1">  1        1 0.83689504E+00 0.30000000E+03</pdfrwt>
<pdfrwt beam="2">0</pdfrwt>
<totfact> 0.53737283E-04</totfact>
</mgrwt>
<clustering>
<clus scale="   30.673">  1  6  2 -1</clus>
<clus scale="  470.251">  4  5 -1 -1</clus>
<clus scale="  300.000">  1  4  2 -1</clus>
</clustering>
</event>
<event>
 6    1  0.9480355E-012  0.3000000E+03  0.7818608E-02  0.1093470E+00
          1   -1    0    0  502    0  0.00000000000E+00  0.00000000000E+00  0.23220039272E+03  0.23220039272E+03  0.00000000000E+00 0.  1.
         13   -1    0    0    0    0 -0.00000000000E+00 -0.00000000000E+00 -0.27500000000E+03  0.27500000000E+03  0.00000000000E+00 0.  1.
    9000005    2    1    2  501    0  0.76482589642E+01 -0.40554750000E+02 -0.34013782767E+02  0.46500591056E+03  0.46192031329E+03 0.  0.
         13    1    3    3    0    0 -0.74318334568E+02 -0.59218297634E+02  0.19724495496E+03  0.21894198748E+03  0.00000000000E+00 0.  1.
          3    1    3    3  501    0  0.81966593533E+02  0.18663547634E+02 -0.23125873772E+03  0.24606392308E+03  0.00000000000E+00 0.  1.
         21    1    1    2  502  501 -0.76482589642E+01  0.40554750000E+02 -0.87858245082E+01  0.42194482164E+02  0.00000000000E+00 0. -1.
<scales pt_clust_4="550.00000" pt_clust_5="550.00000" pt_clust_6="41.26967"></scales>
<mgrwt>
<rscale>  0 0.30000000E+03</rscale>
<asrwt>  1 0.41269666E+02</asrwt>
<pdfrwt beam="1">  1        1 0.84436506E+00 0.30000000E+03</pdfrwt>
<pdfrwt beam="2">0</pdfrwt>
<totfact> 0.44391961E-04</totfact>
</mgrwt>
<clustering>
<clus scale="   41.270">  1  6  2 -1</clus>
<clus scale="  461.920">  4  5 -1 -1</clus>
<clus scale="  300.000">  1  4  2 -1</clus>
</clustering>
</event>
<event>
 6    1  0.9480355E-012  0.3000000E+03  0.7818608E-02  0.1093470E+00
          1   -1    0    0  502    0  0.00000000000E+00  0.00000000000E+00  0.24605612647E+03  0.24605612647E+03  0.00000000000E+00 0.  1.
         13   -1    0    0    0    0 -0.00000000000E+00 -0.00000000000E+00 -0.27500000000E+03  0.27500000000E+03  0.00000000000E+00 0.  1.
    9000005    2    1    2  501    0 -0.26761476419E+02 -0.19445128454E+02 -0.50116333503E+02  0.48178065445E+03  0.47802370494E+03 0.  0.
         13    1    3    3    0    0  0.56981911664E+01 -0.24804077204E+03 -0.19508475591E+02  0.24887200444E+03  0.00000000000E+00 0.  1.
          1    1    3    3  501    0 -0.32459667585E+02  0.22859564358E+03 -0.30607857911E+02  0.23290865001E+03  0.00000000000E+00 0.  1.
         21    1    1    2  502  501  0.26761476419E+02  0.19445128454E+02  0.21172459971E+02  0.39275472014E+02  0.00000000000E+00 0. -1.
<scales pt_clust_4="550.00000" pt_clust_5="550.00000" pt_clust_6="33.08005"></scales>
<mgrwt>
<rscale>  0 0.30000000E+03</rscale>
<asrwt>  1 0.33080049E+02</asrwt>
<pdfrwt beam="1">  1        1 0.89474955E+00 0.30000000E+03</pdfrwt>
<pdfrwt beam="2">0</pdfrwt>
<totfact> 0.12826549E-04</totfact>
</mgrwt>
<clustering>
<clus scale="   33.080">  1  6  2 -1</clus>
<clus scale="  478.024">  4  5 -1 -1</clus>
<clus scale="  300.000">  1  4  2 -1</clus>
</clustering>
</event>
<event>
 6    1  0.9480355E-012  0.3000000E+03  0.7818608E-02  0.1093470E+00
          1   -1    0    0  502    0  0.00000000000E+00  0.00000000000E+00  0.24617396637E+03  0.24617396637E+03  0.00000000000E+00 0.  1.
         13   -1    0    0    0    0 -0.00000000000E+00 -0.00000000000E+00 -0.27500000000E+03  0.27500000000E+03  0.00000000000E+00 0.  1.
    9000005    2    1    2  501    0 -0.11183914889E+02 -0.52976198344E+02 -0.43598775492E+02  0.46505096355E+03  0.45982604094E+03 0.  0.
         13    1    3    3    0    0 -0.30579745145E+01  0.14808541495E+03  0.13168238896E+03  0.19818903322E+03  0.00000000000E+00 0.  1.
          3    1    3    3  501    0 -0.81259403748E+01 -0.20106161329E+03 -0.17528116445E+03  0.26686193033E+03  0.00000000000E+00 0.  1.
         21    1    1    2  502  501  0.11183914889E+02  0.52976198344E+02  0.14772741858E+02  0.56123002817E+02  0.00000000000E+00 0.  1.
<scales pt_clust_4="550.00000" pt_clust_5="550.00000" pt_clust_6="54.14386"></scales>
<mgrwt>
<rscale>  0 0.30000000E+03</rscale>
<asrwt>  1 0.54143860E+02</asrwt>
<pdfrwt beam="1">  1        1 0.89517806E+00 0.30000000E+03</pdfrwt>
<pdfrwt beam="2">0</pdfrwt>
<totfact> 0.11604466E-04</totfact>
</mgrwt>
<clustering>
<clus scale="   54.144">  1  6  2 -1</clus>
<clus scale="  459.826">  4  5 -1 -1</clus>
<clus scale="  300.000">  1  4  2 -1</clus>
</clustering>
</event>
<event>
 6    1  0.9480355E-012  0.3000000E+03  0.7818608E-02  0.1093470E+00
          1   -1    0    0  502    0  0.00000000000E+00  0.00000000000E+00  0.23583838627E+03  0.23583838627E+03  0.00000000000E+00 0.  1.
         13   -1    0    0    0    0 -0.00000000000E+00 -0.00000000000E+00 -0.27500000000E+03  0.27500000000E+03  0.00000000000E+00 0.  1.
    9000005    2    1    2  501    0  0.26010930658E+02  0.30381883067E+02 -0.55116440032E+02  0.46777815154E+03  0.46279471666E+03 0.  0.
         13    1    3    3    0    0  0.67712916978E+02 -0.14123491046E+03 -0.18950237831E+03  0.24585257868E+03  0.00000000000E+00 0.  1.
          3    1    3    3  501    0 -0.41701986320E+02  0.17161679353E+03  0.13438593828E+03  0.22192557286E+03  0.00000000000E+00 0.  1.
         21    1    1    2  502  501 -0.26010930658E+02 -0.30381883067E+02  0.15954826303E+02  0.43060234727E+02  0.00000000000E+00 0.  1.
<scales pt_clust_4="550.00000" pt_clust_5="550.00000" pt_clust_6="39.99534"></scales>
<mgrwt>
<rscale>  0 0.30000000E+03</rscale>
<asrwt>  1 0.39995341E+02</asrwt>
<pdfrwt beam="1">  1        1 0.85759413E+00 0.30000000E+03</pdfrwt>
<pdfrwt beam="2">0</pdfrwt>
<totfact> 0.33454713E-04</totfact>
</mgrwt>
<clustering>
<clus scale="   39.995">  1  6  2 -1</clus>
<clus scale="  462.795">  4  5 -1 -1</clus>
<clus scale="  300.000">  1  4  2 -1</clus>
</clustering>
</event>
<event>
 6    1  0.9480355E-012  0.3000000E+03  0.7818608E-02  0.1093470E+00
          1   -1    0    0  502    0  0.00000000000E+00  0.00000000000E+00  0.22495886565E+03  0.22495886565E+03  0.00000000000E+00 0.  1.
         13   -1    0    0    0    0 -0.00000000000E+00 -0.00000000000E+00 -0.27500000000E+03  0.27500000000E+03  0.00000000000E+00 0.  1.
    9000005    2    1    2  501    0  0.30429172613E+02 -0.18781708930E+02 -0.56356374812E+02  0.46364675474E+03  0.45881759455E+03 0.  0.
         13    1    3    3    0    0  0.73469561275E+02  0.20568321271E+03  0.27626278434E+02  0.22015124729E+03  0.00000000000E+00 0.  1.
          3    1    3    3  501    0 -0.43040388662E+02 -0.22446492164E+03 -0.83982653246E+02  0.24349550745E+03  0.00000000000E+00 0.  1.
         21    1    1    2  502  501 -0.30429172613E+02  0.18781708930E+02  0.63152404590E+01  0.36312110904E+02  0.00000000000E+00 0. -1.
<scales pt_clust_4="550.00000" pt_clust_5="550.00000" pt_clust_6="35.75874"></scales>
<mgrwt>
<rscale>  0 0.30000000E+03</rscale>
<asrwt>  1 0.35758735E+02</asrwt>
<pdfrwt beam="1">  1        1 0.81803224E+00 0.30000000E+03</pdfrwt>
<pdfrwt beam="2">0</pdfrwt>
<totfact> 0.74874816E-04</totfact>
</mgrwt>
<clustering>
<clus scale="   35.759">  1  6  2 -1</clus>
<clus scale="  458.818">  4  5 -1 -1</clus>
<clus scale="  300.000">  1  4  2 -1</clus>
</clustering>
</event>
<event>
 6    1  0.9480355E-012  0.3000000E+03  0.7818608E-02  0.1093470E+00
          1   -1    0    0  502    0  0.00000000000E+00  0.00000000000E+00  0.22518315175E+03  0.22518315175E+03  0.00000000000E+00 0.  1.
         13   -1    0    0    0    0 -0.00000000000E+00 -0.00000000000E+00 -0.27500000000E+03  0.27500000000E+03  0.00000000000E+00 0.  1.
    9000005    2    1    2  501    0 -0.26882144832E+02  0.21109168725E+02 -0.64963319038E+02  0.46279782986E+03  0.45693911169E+03 0.  0.
         13    1    3    3    0    0 -0.18311486190E+03  0.14113710156E+03 -0.11687555559E+03  0.25905719365E+03  0.00000000000E+00 0.  1.
          3    1    3    3  501    0  0.15623271707E+03 -0.12002793284E+03  0.51912236548E+02  0.20374063622E+03  0.00000000000E+00 0.  1.
         21    1    1    2  502  501  0.26882144832E+02 -0.21109168725E+02  0.15146470785E+02  0.37385321883E+02  0.00000000000E+00 0.  1.
<scales pt_clust_4="550.00000" pt_clust_5="550.00000" pt_clust_6="34.17962"></scales>
<mgrwt>
<rscale>  0 0.30000000E+03</rscale>
<asrwt>  1 0.34179624E+02</asrwt>
<pdfrwt beam="1">  1        1 0.81884782E+00 0.30000000E+03</pdfrwt>
<pdfrwt beam="2">0</pdfrwt>
<totfact> 0.74324109E-04</totfact>
</mgrwt>
<clustering>
<clus scale="   34.180">  1  6  2 -1</clus>
<clus scale="  456.939">  4  5 -1 -1</clus>
<clus scale="  300.000">  1  4  2 -1</clus>
</clustering>
</event>
<event>
 6    1  0.9480355E-012  0.3000000E+03  0.7818608E-02  0.1093470E+00
          1   -1    0    0  502    0  0.00000000000E+00  0.00000000000E+00  0.25617327780E+03  0.25617327780E+03  0.00000000000E+00 0.  1.
         13   -1    0    0    0    0 -0.00000000000E+00 -0.00000000000E+00 -0.27500000000E+03  0.27500000000E+03  0.00000000000E+00 0.  1.
    9000005    2    1    2  501    0 -0.13807462483E+02  0.45716025118E+02 -0.45911215084E+02  0.47627181400E+03  0.47164223747E+03 0.  0.
         13    1    3    3    0    0  0.87786380815E+02  0.67709514417E+02 -0.23536867806E+03  0.26017194624E+03  0.00000000000E+00 0.  1.
          1    1    3    3  501    0 -0.10159384330E+03 -0.21993489299E+02  0.18945746297E+03  0.21609986776E+03  0.00000000000E+00 0.  1.
         21    1    1    2  502  501  0.13807462483E+02 -0.45716025118E+02  0.27084492882E+02  0.54901463801E+02  0.00000000000E+00 0.  1.
<scales pt_clust_4="550.00000" pt_clust_5="550.00000" pt_clust_6="47.75564"></scales>
<mgrwt>
<rscale>  0 0.30000000E+03</rscale>
<asrwt>  1 0.47755638E+02</asrwt>
<pdfrwt beam="1">  1        1 0.93153919E+00 0.30000000E+03</pdfrwt>
<pdfrwt beam="2">0</pdfrwt>
<totfact> 0.23567275E-05</totfact>
</mgrwt>
<clustering>
<clus scale="   47.756">  1  6  2 -1</clus>
<clus scale="  471.642">  4  5 -1 -1</clus>
<clus scale="  300.000">  1  4  2 -1</clus>
</clustering>
</event>
<event>
 6    1  0.9480355E-012  0.3000000E+03  0.7818608E-02  0.1093470E+00
          1   -1    0    0  502    0  0.00000000000E+00  0.00000000000E+00  0.22564499851E+03  0.22564499851E+03  0.00000000000E+00 0.  1.
         13   -1    0    0    0    0 -0.00000000000E+00 -0.00000000000E+00 -0.27500000000E+03  0.27500000000E+03  0.00000000000E+00 0.  1.
    9000005    2    1    2  501    0 -0.22322701259E+02 -0.29023571257E+02 -0.46599250193E+02  0.46392627242E+03  0.46012544534E+03 0.  0.
         13    1    3    3    0    0 -0.15940989171E+03  0.31934717992E+02 -0.19433239325E+03  0.25337012226E+03  0.00000000000E+00 0.  1.
          1    1    3    3  501    0  0.13708719045E+03 -0.60958289248E+02  0.14773314306E+03  0.21055615016E+03  0.00000000000E+00 0.  1.
         21    1    1    2  502  501  0.22322701259E+02  0.29023571257E+02 -0.27557512991E+01  0.36718726084E+02  0.00000000000E+00 0. -1.
<scales pt_clust_4="550.00000" pt_clust_5="550.00000" pt_clust_6="36.61517"></scales>
<mgrwt>
<rscale>  0 0.30000000E+03</rscale>
<asrwt>  1 0.36615170E+02</asrwt>
<pdfrwt beam="1">  1        1 0.82052727E+00 0.30000000E+03</pdfrwt>
<pdfrwt beam="2">0</pdfrwt>
<totfact> 0.70970965E-04</totfact>
</mgrwt>
<clustering>
<clus scale="   36.615">  1  6  2 -1</clus>
<clus scale="  460.125">  4  5 -1 -1</clus>
<clus scale="  300.000">  1  4  2 -1</clus>
</clustering>
</event>
<event>
 6    1  0.9480355E-012  0.3000000E+03  0.7818608E-02  0.1093470E+00
          1   -1    0    0  502    0  0.00000000000E+00  0.00000000000E+00  0.22973934744E+03  0.22973934744E+03  0.00000000000E+00 0.  1.
         13   -1    0    0    0    0 -0.00000000000E+00 -0.00000000000E+00 -0.27500000000E+03  0.27500000000E+03  0.00000000000E+00 0.  1.
    9000005    2    1    2  501    0 -0.12557426119E+02 -0.27716639215E+02 -0.65087706510E+02  0.46842112738E+03  0.46287799904E+03 0.  0.
         13    1    3    3    0    0  0.20342497933E+03  0.10290339267E+02  0.64549834266E+02  0.21366865564E+03  0.00000000000E+00 0.  1.
          1    1    3    3  501    0 -0.21598240545E+03 -0.38006978483E+02 -0.12963754078E+03  0.25475247174E+03  0.00000000000E+00 0.  1.
         21    1    1    2  502  501  0.12557426119E+02  0.27716639215E+02  0.19827053951E+02  0.36318220062E+02  0.00000000000E+00 0. -1.
<scales pt_clust_4="550.00000" pt_clust_5="550.00000" pt_clust_6="30.42862"></scales>
<mgrwt>
<rscale>  0 0.30000000E+03</rscale>
<asrwt>  1 0.30428622E+02</asrwt>
<pdfrwt beam="1">  1        1 0.83541581E+00 0.30000000E+03</pdfrwt>
<pdfrwt beam="2">0</pdfrwt>
<totfact> 0.55167002E-04</totfact>
</mgrwt>
<clustering>
<clus scale="   30.429">  1  6  2 -1</clus>
<clus scale="  462.878">  4  5 -1 -1</clus>
<clus scale="  300.000">  1  4  2 -1</clus>
</clustering>
</event>
<event>
 6    1  0.9480355E-012  0.3000000E+03  0.7818608E-02  0.1093470E+00
          1   -1    0    0  502    0  0.00000000000E+00  0.00000000000E+00  0.24058243741E+03  0.24058243741E+03  0.00000000000E+00 0.  1.
         13   -1    0    0    0    0 -0.00000000000E+00 -0.00000000000E+00 -0.27500000000E+03  0.27500000000E+03  0.00000000000E+00 0.  1.
    9000005    2    1    2  501    0  0.22897211899E+02 -0.19676486717E+02 -0.48402799337E+02  0.48231032763E+03  0.47892481113E+03 0.  0.
         13    1    3    3    0    0 -0.15018704070E+03 -0.91169148183E+02 -0.18146557262E+03  0.25258209521E+03  0.00000000000E+00 0.  1.
          3    1    3    3  501    0  0.17308425260E+03  0.71492661466E+02  0.13306277328E+03  0.22972823242E+03  0.00000000000E+00 0.  1.
         21    1    1    2  502  501 -0.22897211899E+02  0.19676486717E+02  0.13985236746E+02  0.33272109779E+02  0.00000000000E+00 0. -1.
<scales pt_clust_4="550.00000" pt_clust_5="550.00000" pt_clust_6="30.19017"></scales>
<mgrwt>
<rscale>  0 0.30000000E+03</rscale>
<asrwt>  1 0.30190171E+02</asrwt>
<pdfrwt beam="1">  1        1 0.87484523E+00 0.30000000E+03</pdfrwt>
<pdfrwt beam="2">0</pdfrwt>
<totfact> 0.23219566E-04</totfact>
</mgrwt>
<clustering>
<clus scale="   30.190">  1  6  2 -1</clus>
<clus scale="  478.925">  4  5 -1 -1</clus>
<clus scale="  300.000">  1  4  2 -1</clus>
</clustering>
</event>
<event>
 6    1  0.9480355E-012  0.3000000E+03  0.7818608E-02  0.1093470E+00
          1   -1    0    0  502    0  0.00000000000E+00  0.00000000000E+00  0.22086936237E+03  0.22086936237E+03  0.00000000000E+00 0.  1.
         13   -1    0    0    0    0 -0.00000000000E+00 -0.00000000000E+00 -0.27500000000E+03  0.27500000000E+03  0.00000000000E+00 0.  1.
    9000005    2    1    2  501    0  0.28466830810E+02 -0.99441244182E+01 -0.56116032293E+02  0.46565036406E+03  0.46127216088E+03 0.  0.
         13    1    3    3    0    0  0.51432787280E+02 -0.13335766414E+03  0.16072991412E+03  0.21508998927E+03  0.00000000000E+00 0.  1.
          3    1    3    3  501    0 -0.22965956470E+02  0.12341353972E+03 -0.21684594641E+03  0.25056037479E+03  0.00000000000E+00 0.  1.
         21    1    1    2  502  501 -0.28466830810E+02  0.99441244182E+01  0.19853946648E+01  0.30218998309E+02  0.00000000000E+00 0. -1.
<scales pt_clust_4="550.00000" pt_clust_5="550.00000" pt_clust_6="30.15371"></scales>
<mgrwt>
<rscale>  0 0.30000000E+03</rscale>
<asrwt>  1 0.30153707E+02</asrwt>
<pdfrwt beam="1">  1        1 0.80316132E+00 0.30000000E+03</pdfrwt>
<pdfrwt beam="2">0</pdfrwt>
<totfact> 0.10117193E-03</totfact>
</mgrwt>
<clustering>
<clus scale="   30.154">  1  6  2 -1</clus>
<clus scale="  461.272">  4  5 -1 -1</clus>
<clus scale="  300.000">  1  4  2 -1</clus>
</clustering>
</event>
<event>
 6    1  0.9480355E-012  0.3000000E+03  0.7818608E-02  0.1093470E+00
          1   -1    0    0  502    0  0.00000000000E+00  0.00000000000E+00  0.24991258320E+03  0.24991258320E+03  0.00000000000E+00 0.  1.
         13   -1    0    0    0    0 -0.00000000000E+00 -0.00000000000E+00 -0.27500000000E+03  0.27500000000E+03  0.00000000000E+00 0.  1.
    9000005    2    1    2  501    0 -0.42019745565E+02  0.47830593290E+01 -0.57839340413E+02  0.47142216187E+03  0.46594519927E+03 0.  0.
         13    1    3    3    0    0 -0.22690465358E+03 -0.65945149118E+02 -0.11855711062E+03  0.26436768522E+03  0.00000000000E+00 0.  1.
          1    1    3    3  501    0  0.18488490801E+03  0.70728208447E+02  0.60717770210E+02  0.20705447665E+03  0.00000000000E+00 0.  1.
         21    1    1    2  502  501  0.42019745565E+02 -0.47830593290E+01  0.32751923610E+02  0.53490421330E+02  0.00000000000E+00 0. -1.
<scales pt_clust_4="550.00000" pt_clust_5="550.00000" pt_clust_6="42.29109"></scales>
<mgrwt>
<rscale>  0 0.30000000E+03</rscale>
<asrwt>  1 0.42291094E+02</asrwt>
<pdfrwt beam="1">  1        1 0.90877303E+00 0.30000000E+03</pdfrwt>
<pdfrwt beam="2">0</pdfrwt>
<totfact> 0.74239833E-05</totfact>
</mgrwt>
<clustering>
<clus scale="   42.291">  1  6  2 -1</clus>
<clus scale="  465.945">  4  5 -1 -1</clus>
<clus scale="  300.000">  1  4  2 -1</clus>
</clustering>
</event>
<event>
 6    1  0.9480355E-012  0.3000000E+03  0.7818608E-02  0.1093470E+00
          1   -1    0    0  502    0  0.00000000000E+00  0.00000000000E+00  0.24645067404E+03  0.24645067404E+03  0.00000000000E+00 0.  1.
         13   -1    0    0    0    0 -0.00000000000E+00 -0.00000000000E+00 -0.27500000000E+03  0.27500000000E+03  0.00000000000E+00 0.  1.
    9000005    2    1    2  501    0  0.31067387325E+02  0.10265453561E+02 -0.40697125294E+02  0.48654893883E+03  0.48373861928E+03 0.  0.
         13    1    3    3    0    0  0.18226472918E+03 -0.15450958257E+03 -0.93806143169E+02  0.25669677658E+03  0.00000000000E+00 0.  1.
          3    1    3    3  501    0 -0.15119734186E+03  0.16477503613E+03  0.53109017875E+02  0.22985216226E+03  0.00000000000E+00 0.  1.
         21    1    1    2  502  501 -0.31067387325E+02 -0.10265453561E+02  0.12147799339E+02  0.34901735212E+02  0.00000000000E+00 0.  1.
<scales pt_clust_4="550.00000" pt_clust_5="550.00000" pt_clust_6="32.71945"></scales>
<mgrwt>
<rscale>  0 0.30000000E+03</rscale>
<asrwt>  1 0.32719445E+02</asrwt>
<pdfrwt beam="1">  1        1 0.89618427E+00 0.30000000E+03</pdfrwt>
<pdfrwt beam="2">0</pdfrwt>
<totfact> 0.12387262E-04</totfact>
</mgrwt>
<clustering>
<clus scale="   32.719">  1  6  2 -1</clus>
<clus scale="  483.739">  4  5 -1 -1</clus>
<clus scale="  300.000">  1  4  2 -1</clus>
</clustering>
</event>
<event>
 6    1  0.9480355E-012  0.3000000E+03  0.7818608E-02  0.1093470E+00
          1   -1    0    0  502    0  0.00000000000E+00  0.00000000000E+00  0.24105416406E+03  0.24105416406E+03  0.00000000000E+00 0.  1.
         13   -1    0    0    0    0 -0.00000000000E+00 -0.00000000000E+00 -0.27500000000E+03  0.27500000000E+03  0.00000000000E+00 0.  1.
    9000005    2    1    2  501    0 -0.34612758708E+02  0.13921913702E+02 -0.79075873200E+01  0.47055852540E+03  0.46901058958E+03 0.  0.
         13    1    3    3    0    0 -0.15877575744E+03 -0.17113793654E+03 -0.61374729205E+02  0.24138100973E+03  0.00000000000E+00 0.  1.
          1    1    3    3  501    0  0.12416299873E+03  0.18505985024E+03  0.53467141885E+02  0.22917751567E+03  0.00000000000E+00 0.  1.
         21    1    1    2  502  501  0.34612758708E+02 -0.13921913702E+02 -0.26038248618E+02  0.45495638666E+02  0.00000000000E+00 0.  1.
<scales pt_clust_4="550.00000" pt_clust_5="550.00000" pt_clust_6="37.30770"></scales>
<mgrwt>
<rscale>  0 0.30000000E+03</rscale>
<asrwt>  1 0.37307695E+02</asrwt>
<pdfrwt beam="1">  1        1 0.87656060E+00 0.30000000E+03</pdfrwt>
<pdfrwt beam="2">0</pdfrwt>
<totfact> 0.21384017E-04</totfact>
</mgrwt>
<clustering>
<clus scale="   37.308">  1  6  2 -1</clus>
<clus scale="  469.011">  4  5 -1 -1</clus>
<clus scale="  300.000">  1  4  2 -1</clus>
</clustering>
</event>
<event>
 6    1  0.9480355E-012  0.3000000E+03  0.7818608E-02  0.1093470E+00
          1   -1    0    0  502    0  0.00000000000E+00  0.00000000000E+00  0.22293181824E+03  0.22293181824E+03  0.00000000000E+00 0.  1.
         13   -1    0    0    0    0 -0.00000000000E+00 -0.00000000000E+00 -0.27500000000E+03  0.27500000000E+03  0.00000000000E+00 0.  1.
    9000005    2    1    2  501    0 -0.34560012905E+02  0.11381595184E+02 -0.52428819978E+02  0.46154411068E+03  0.45711076310E+03 0.  0.
         13    1    3    3    0    0 -0.33265054029E+02  0.15708673307E+03 -0.19843888912E+03  0.25526613218E+03  0.00000000000E+00 0.  1.
          3    1    3    3  501    0 -0.12949588763E+01 -0.14570513788E+03  0.14601006914E+03  0.20627797850E+03  0.00000000000E+00 0.  1.
         21    1    1    2  502  501  0.34560012905E+02 -0.11381595184E+02  0.36063821361E+00  0.36387707552E+02  0.00000000000E+00 0. -1.
<scales pt_clust_4="550.00000" pt_clust_5="550.00000" pt_clust_6="36.38592"></scales>
<mgrwt>
<rscale>  0 0.30000000E+03</rscale>
<asrwt>  1 0.36385920E+02</asrwt>
<pdfrwt beam="1">  1        1 0.81066116E+00 0.30000000E+03</pdfrwt>
<pdfrwt beam="2">0</pdfrwt>
<totfact> 0.85561880E-04</totfact>
</mgrwt>
<clustering>
<clus scale="   36.386">  1  6  2 -1</clus>
<clus scale="  457.111">  4  5 -1 -1</clus>
<clus scale="  300.000">  1  4  2 -1</clus>
</clustering>
</event>
<event>
 6    1  0.9480355E-012  0.3000000E+03  0.7818608E-02  0.1093470E+00
          1   -1    0    0  502    0  0.00000000000E+00  0.00000000000E+00  0.23443753657E+03  0.23443753657E+03  0.00000000000E+00 0.  1.
         13   -1    0    0    0    0 -0.00000000000E+00 -0.00000000000E+00 -0.27500000000E+03  0.27500000000E+03  0.00000000000E+00 0.  1.
    9000005    2    1    2  501    0  0.40120671800E+02  0.61840438664E+01 -0.35325927273E+02  0.46850671670E+03  0.46540596445E+03 0.  0.
         13    1    3    3    0    0 -0.97519109307E+02 -0.12144553594E+02  0.18418679787E+03  0.20876360644E+03  0.00000000000E+00 0.  1.
          3    1    3    3  501    0  0.13763978111E+03  0.18328597460E+02 -0.21951272514E+03  0.25974311026E+03  0.00000000000E+00 0.  1.
         21    1    1    2  502  501 -0.40120671800E+02 -0.61840438664E+01 -0.52365361609E+01  0.40930819870E+02  0.00000000000E+00 0. -1.
<scales pt_clust_4="550.00000" pt_clust_5="550.00000" pt_clust_6="40.59449"></scales>
<mgrwt>
<rscale>  0 0.30000000E+03</rscale>
<asrwt>  1 0.40594487E+02</asrwt>
<pdfrwt beam="1">  1        1 0.85250013E+00 0.30000000E+03</pdfrwt>
<pdfrwt beam="2">0</pdfrwt>
<totfact> 0.37491732E-04</totfact>
</mgrwt>
<clustering>
<clus scale="   40.594">  1  6  2 -1</clus>
<clus scale="  465.406">  4  5 -1 -1</clus>
<clus scale="  300.000">  1  4  2 -1</clus>
</clustering>
</event>
<event>
 6    1  0.9480355E-012  0.3000000E+03  0.7818608E-02  0.1093470E+00
          1   -1    0    0  502    0  0.00000000000E+00  0.00000000000E+00  0.22075793101E+03  0.22075793101E+03  0.00000000000E+00 0.  1.
         13   -1    0    0    0    0 -0.00000000000E+00 -0.00000000000E+00 -0.27500000000E+03  0.27500000000E+03  0.00000000000E+00 0.  1.
    9000005    2    1    2  501    0  0.28736015906E+02  0.95652883362E+01 -0.40504610595E+02  0.46250178700E+03  0.45972820900E+03 0.  0.
         13    1    3    3    0    0  0.24105993394E+03  0.27469351754E+02 -0.55535437381E+02  0.24889484093E+03  0.00000000000E+00 0.  1.
          3    1    3    3  501    0 -0.21232391803E+03 -0.17904063418E+02  0.15030826786E+02  0.21360694607E+03  0.00000000000E+00 0.  1.
         21    1    1    2  502  501 -0.28736015906E+02 -0.95652883362E+01 -0.13737458393E+02  0.33256144007E+02  0.00000000000E+00 0.  1.
<scales pt_clust_4="550.00000" pt_clust_5="550.00000" pt_clust_6="30.28621"></scales>
<mgrwt>
<rscale>  0 0.30000000E+03</rscale>
<asrwt>  1 0.30286206E+02</asrwt>
<pdfrwt beam="1">  1        1 0.80275611E+00 0.30000000E+03</pdfrwt>
<pdfrwt beam="2">0</pdfrwt>
<totfact> 0.10178218E-03</totfact>
</mgrwt>
<clustering>
<clus scale="   30.286">  1  6  2 -1</clus>
<clus scale="  459.728">  4  5 -1 -1</clus>
<clus scale="  300.000">  1  4  2 -1</clus>
</clustering>
</event>
<event>
 6    1  0.9480355E-012  0.3000000E+03  0.7818608E-02  0.1093470E+00
          1   -1    0    0  502    0  0.00000000000E+00  0.00000000000E+00  0.23206864628E+03  0.23206864628E+03  0.00000000000E+00 0.  1.
         13   -1    0    0    0    0 -0.00000000000E+00 -0.00000000000E+00 -0.27500000000E+03  0.27500000000E+03  0.00000000000E+00 0.  1.
    9000005    2    1    2  501    0  0.13931075309E+02  0.26837355838E+02 -0.40749273593E+02  0.47675231403E+03  0.47404424593E+03 0.  0.
         13    1    3    3    0    0  0.16536577280E+03 -0.16287115183E+03 -0.13651344365E+02  0.23250636575E+03  0.00000000000E+00 0.  1.
          3    1    3    3  501    0 -0.15143469749E+03  0.18970850766E+03 -0.27097929228E+02  0.24424594828E+03  0.00000000000E+00 0.  1.
         21    1    1    2  502  501 -0.13931075309E+02 -0.26837355838E+02 -0.21820801266E+01  0.30316332254E+02  0.00000000000E+00 0.  1.
<scales pt_clust_4="550.00000" pt_clust_5="550.00000" pt_clust_6="30.23770"></scales>
<mgrwt>
<rscale>  0 0.30000000E+03</rscale>
<asrwt>  1 0.30237700E+02</asrwt>
<pdfrwt beam="1">  1        1 0.84388599E+00 0.30000000E+03</pdfrwt>
<pdfrwt beam="2">0</pdfrwt>
<totfact> 0.47495827E-04</totfact>
</mgrwt>
<clustering>
<clus scale="   30.238">  1  6  2 -1</clus>
<clus scale="  474.044">  4  5 -1 -1</clus>
<clus scale="  300.000">  1  4  2 -1</clus>
</clustering>
</event>
<event>
 6    1  0.9480355E-012  0.3000000E+03  0.7818608E-02  0.1093470E+00
          1   -1    0    0  502    0  0.00000000000E+00  0.00000000000E+00  0.23711348585E+03  0.23711348585E+03  0.00000000000E+00 0.  1.
         13   -1    0    0    0    0 -0.00000000000E+00 -0.00000000000E+00 -0.27500000000E+03  0.27500000000E+03  0.00000000000E+00 0.  1.
    9000005    2    1    2  501    0 -0.33122592198E+02 -0.30436710171E+01 -0.43910919617E+02  0.47831017967E+03  0.47512744508E+03 0.  0.
         13    1    3    3    0    0  0.17386152294E+03  0.14069316936E+03 -0.32983980429E+02  0.22607596074E+03  0.00000000000E+00 0.  1.
          3    1    3    3  501    0 -0.20698411513E+03 -0.14373684037E+03 -0.10926939188E+02  0.25223421893E+03  0.00000000000E+00 0.  1.
         21    1    1    2  502  501  0.33122592198E+02  0.30436710171E+01  0.60244054626E+01  0.33803306175E+02  0.00000000000E+00 0. -1.
<scales pt_clust_4="550.00000" pt_clust_5="550.00000" pt_clust_6="33.26214"></scales>
<mgrwt>
<rscale>  0 0.30000000E+03</rscale>
<asrwt>  1 0.33262141E+02</asrwt>
<pdfrwt beam="1">  1        1 0.86223086E+00 0.30000000E+03</pdfrwt>
<pdfrwt beam="2">0</pdfrwt>
<totfact> 0.30902754E-04</totfact>
</mgrwt>
<clustering>
<clus scale="   33.262">  1  6  2 -1</clus>
<clus scale="  475.127">  4  5 -1 -1</clus>
<clus scale="  300.000">  1  4  2 -1</clus>
</clustering>
</event>
<event>
 6    1  0.9480355E-012  0.3000000E+03  0.7818608E-02  0.1093470E+00
          1   -1    0    0  502    0  0.00000000000E+00  0.00000000000E+00  0.22268619006E+03  0.22268619006E+03  0.00000000000E+00 0.  1.
         13   -1    0    0    0    0 -0.00000000000E+00 -0.00000000000E+00 -0.27500000000E+03  0.27500000000E+03  0.00000000000E+00 0.  1.
    9000005    2    1    2  501    0  0.29786354399E+02  0.86042672441E+01 -0.46046780351E+02  0.46605493996E+03  0.46273711841E+03 0.  0.
         13    1    3    3    0    0  0.16053119613E+03  0.18448916370E+03 -0.28152319979E+02  0.24616878270E+03  0.00000000000E+00 0.  1.
          3    1    3    3  501    0 -0.13074484173E+03 -0.17588489646E+03 -0.17894460372E+02  0.21988615726E+03  0.00000000000E+00 0.  1.
         21    1    1    2  502  501 -0.29786354399E+02 -0.86042672441E+01 -0.62670295884E+01  0.31631250103E+02  0.00000000000E+00 0. -1.
<scales pt_clust_4="550.00000" pt_clust_5="550.00000" pt_clust_6="31.00421"></scales>
<mgrwt>
<rscale>  0 0.30000000E+03</rscale>
<asrwt>  1 0.31004214E+02</asrwt>
<pdfrwt beam="1">  1        1 0.80976796E+00 0.30000000E+03</pdfrwt>
<pdfrwt beam="2">0</pdfrwt>
<totfact> 0.89609984E-04</totfact>
</mgrwt>
<clustering>
<clus scale="   31.004">  1  6  2 -1</clus>
<clus scale="  462.737">  4  5 -1 -1</clus>
<clus scale="  300.000">  1  4  2 -1</clus>
</clustering>
</event>
<event>
 6    1  0.9480355E-012  0.3000000E+03  0.7818608E-02  0.1093470E+00
          1   -1    0    0  502    0  0.00000000000E+00  0.00000000000E+00  0.22641469901E+03  0.22641469901E+03  0.00000000000E+00 0.  1.
         13   -1    0    0    0    0 -0.00000000000E+00 -0.00000000000E+00 -0.27500000000E+03  0.27500000000E+03  0.00000000000E+00 0.  1.
    9000005    2    1    2  501    0 -0.13578839103E+02 -0.30138208757E+02 -0.31021594436E+02  0.46398235623E+03  0.46176248340E+03 0.  0.
         13    1    3    3    0    0  0.11705499105E+03 -0.13402871177E+02  0.18006133405E+03  0.21518269425E+03  0.00000000000E+00 0.  1.
          1    1    3    3  501    0 -0.13063383015E+03 -0.16735337580E+02 -0.21108292848E+03  0.24879966198E+03  0.00000000000E+00 0.  1.
         21    1    1    2  502  501  0.13578839103E+02  0.30138208757E+02 -0.17563706551E+02  0.37432342784E+02  0.00000000000E+00 0.  1.
<scales pt_clust_4="550.00000" pt_clust_5="550.00000" pt_clust_6="33.05598"></scales>
<mgrwt>
<rscale>  0 0.30000000E+03</rscale>
<asrwt>  1 0.33055977E+02</asrwt>
<pdfrwt beam="1">  1        1 0.82332618E+00 0.30000000E+03</pdfrwt>
<pdfrwt beam="2">0</pdfrwt>
<totfact> 0.68335567E-04</totfact>
</mgrwt>
<clustering>
<clus scale="   33.056">  1  6  2 -1</clus>
<clus scale="  461.762">  4  5 -1 -1</clus>
<clus scale="  300.000">  1  4  2 -1</clus>
</clustering>
</event>
<event>
 6    1  0.9480355E-012  0.3000000E+03  0.7818608E-02  0.1093470E+00
          1   -1    0    0  502    0  0.00000000000E+00  0.00000000000E+00  0.23771527310E+03  0.23771527310E+03  0.00000000000E+00 0.  1.
         13   -1    0    0    0    0 -0.00000000000E+00 -0.00000000000E+00 -0.27500000000E+03  0.27500000000E+03  0.00000000000E+00 0.  1.
    9000005    2    1    2  501    0  0.17792745341E+02  0.30486415913E+02 -0.26240239555E+00  0.46156201461E+03  0.46021019234E+03 0.  0.
         13    1    3    3    0    0 -0.14953785195E+03 -0.29930097253E+02 -0.16102656892E+03  0.22178127916E+03  0.00000000000E+00 0.  1.
          3    1    3    3  501    0  0.16733059729E+03  0.60416513166E+02  0.16076416653E+03  0.23978073545E+03  0.00000000000E+00 0.  1.
         21    1    1    2  502  501 -0.17792745341E+02 -0.30486415913E+02 -0.37022324508E+02  0.51153258489E+02  0.00000000000E+00 0.  1.
<scales pt_clust_4="550.00000" pt_clust_5="550.00000" pt_clust_6="35.29879"></scales>
<mgrwt>
<rscale>  0 0.30000000E+03</rscale>
<asrwt>  1 0.35298790E+02</asrwt>
<pdfrwt beam="1">  1        1 0.86441917E+00 0.30000000E+03</pdfrwt>
<pdfrwt beam="2">0</pdfrwt>
<totfact> 0.28938979E-04</totfact>
</mgrwt>
<clustering>
<clus scale="   35.299">  1  6  2 -1</clus>
<clus scale="  460.210">  4  5 -1 -1</clus>
<clus scale="  300.000">  1  4  2 -1</clus>
</clustering>
</event>
<event>
 6    1  0.9480355E-012  0.3000000E+03  0.7818608E-02  0.1093470E+00
          1   -1    0    0  502    0  0.00000000000E+00  0.00000000000E+00  0.23644976699E+03  0.23644976699E+03  0.00000000000E+00 0.  1.
         13   -1    0    0    0    0 -0.00000000000E+00 -0.00000000000E+00 -0.27500000000E+03  0.27500000000E+03  0.00000000000E+00 0.  1.
    9000005    2    1    2  501    0 -0.51919189370E+00  0.39432427965E+02 -0.45558100250E+02  0.47139610126E+03  0.46752920534E+03 0.  0.
         13    1    3    3    0    0  0.49267247647E+02  0.50617712159E+02  0.20441132324E+03  0.21627159671E+03  0.00000000000E+00 0.  1.
          1    1    3    3  501    0 -0.49786439540E+02 -0.11185284194E+02 -0.24996942349E+03  0.25512450455E+03  0.00000000000E+00 0.  1.
         21    1    1    2  502  501  0.51919189370E+00 -0.39432427965E+02  0.70078672449E+01  0.40053665734E+02  0.00000000000E+00 0.  1.
<scales pt_clust_4="550.00000" pt_clust_5="550.00000" pt_clust_6="39.43585"></scales>
<mgrwt>
<rscale>  0 0.30000000E+03</rscale>
<asrwt>  1 0.39435846E+02</asrwt>
<pdfrwt beam="1">  1        1 0.85981733E+00 0.30000000E+03</pdfrwt>
<pdfrwt beam="2">0</pdfrwt>
<totfact> 0.31782280E-04</totfact>
</mgrwt>
<clustering>
<clus scale="   39.436">  1  6  2 -1</clus>
<clus scale="  467.529">  4  5 -1 -1</clus>
<clus scale="  300.000">  1  4  2 -1</clus>
</clustering>
</event>
<event>
 6    1  0.9480355E-012  0.3000000E+03  0.7818608E-02  0.1093470E+00
          1   -1    0    0  502    0  0.00000000000E+00  0.00000000000E+00  0.25241607419E+03  0.25241607419E+03  0.00000000000E+00 0.  1.
         13   -1    0    0    0    0 -0.00000000000E+00 -0.00000000000E+00 -0.27500000000E+03  0.27500000000E+03  0.00000000000E+00 0.  1.
    9000005    2    1    2  501    0 -0.47820364083E+02  0.20616388135E+02 -0.34368452426E+02  0.47402414832E+03  0.46989986166E+03 0.  0.
         13    1    3    3    0    0 -0.20524762492E+03 -0.10986347813E+02  0.13083191439E+03  0.24364785490E+03  0.00000000000E+00 0.  1.
          3    1    3    3  501    0  0.15742726084E+03  0.31602735949E+02 -0.16520036681E+03  0.23037629342E+03  0.00000000000E+00 0.  1.
         21    1    1    2  502  501  0.47820364083E+02 -0.20616388135E+02  0.11784526618E+02  0.53391925873E+02  0.00000000000E+00 0. -1.
<scales pt_clust_4="550.00000" pt_clust_5="550.00000" pt_clust_6="52.07516"></scales>
<mgrwt>
<rscale>  0 0.30000000E+03</rscale>
<asrwt>  1 0.52075164E+02</asrwt>
<pdfrwt beam="1">  1        1 0.91787663E+00 0.30000000E+03</pdfrwt>
<pdfrwt beam="2">0</pdfrwt>
<totfact> 0.43334239E-05</totfact>
</mgrwt>
<clustering>
<clus scale="   52.075">  1  6  2 -1</clus>
<clus scale="  469.900">  4  5 -1 -1</clus>
<clus scale="  300.000">  1  4  2 -1</clus>
</clustering>
</event>
<event>
 6    1  0.9480355E-012  0.3000000E+03  0.7818608E-02  0.1093470E+00
          1   -1    0    0  502    0  0.00000000000E+00  0.00000000000E+00  0.24377828760E+03  0.24377828760E+03  0.00000000000E+00 0.  1.
         13   -1    0    0    0    0 -0.00000000000E+00 -0.00000000000E+00 -0.27500000000E+03  0.27500000000E+03  0.00000000000E+00 0.  1.
    9000005    2    1    2  501    0 -0.90727525910E+01  0.31141823358E+02 -0.65475010715E+02  0.47160396782E+03  0.46590900123E+03 0.  0.
         13    1    3    3    0    0 -0.74763004041E+02  0.23791697689E+03 -0.22219700384E+02  0.25037513804E+03  0.00000000000E+00 0.  1.
          1    1    3    3  501    0  0.65690251450E+02 -0.20677515353E+03 -0.43255310331E+02  0.22122882978E+03  0.00000000000E+00 0.  1.
         21    1    1    2  502  501  0.90727525910E+01 -0.31141823358E+02  0.34253298316E+02  0.47174319785E+02  0.00000000000E+00 0. -1.
<scales pt_clust_4="550.00000" pt_clust_5="550.00000" pt_clust_6="32.43652"></scales>
<mgrwt>
<rscale>  0 0.30000000E+03</rscale>
<asrwt>  1 0.32436523E+02</asrwt>
<pdfrwt beam="1">  1        1 0.88646650E+00 0.30000000E+03</pdfrwt>
<pdfrwt beam="2">0</pdfrwt>
<totfact> 0.16433519E-04</totfact>
</mgrwt>
<clustering>
<clus scale="   32.437">  1  6  2 -1</clus>
<clus scale="  465.909">  4  5 -1 -1</clus>
<clus scale="  300.000">  1  4  2 -1</clus>
</clustering>
</event>
<event>
 6    1  0.9480355E-012  0.3000000E+03  0.7818608E-02  0.1093470E+00
          1   -1    0    0  502    0  0.00000000000E+00  0.00000000000E+00  0.23483671647E+03  0.23483671647E+03  0.00000000000E+00 0.  1.
         13   -1    0    0    0    0 -0.00000000000E+00 -0.00000000000E+00 -0.27500000000E+03  0.27500000000E+03  0.00000000000E+00 0.  1.
    9000005    2    1    2  501    0 -0.20734071288E+02 -0.24517917422E+02 -0.63674788763E+02  0.47003946951E+03  0.46459831488E+03 0.  0.
         13    1    3    3    0    0  0.21788545516E+03 -0.55909570621E+02 -0.26229517707E+02  0.22646840675E+03  0.00000000000E+00 0.  1.
          3    1    3    3  501    0 -0.23861952645E+03  0.31391653198E+02 -0.37445271056E+02  0.24357106276E+03  0.00000000000E+00 0.  1.
         21    1    1    2  502  501  0.20734071288E+02  0.24517917422E+02  0.23511505232E+02  0.39797246955E+02  0.00000000000E+00 0.  1.
<scales pt_clust_4="550.00000" pt_clust_5="550.00000" pt_clust_6="32.10966"></scales>
<mgrwt>
<rscale>  0 0.30000000E+03</rscale>
<asrwt>  1 0.32109656E+02</asrwt>
<pdfrwt beam="1">  1        1 0.85395170E+00 0.30000000E+03</pdfrwt>
<pdfrwt beam="2">0</pdfrwt>
<totfact> 0.37917739E-04</totfact>
</mgrwt>
<clustering>
<clus scale="   32.110">  1  6  2 -1</clus>
<clus scale="  464.598">  4  5 -1 -1</clus>
<clus scale="  300.000">  1  4  2 -1</clus>
</clustering>
</event>
<event>
 6    1  0.9480355E-012  0.3000000E+03  0.7818608E-02  0.1093470E+00
          1   -1    0    0  502    0  0.00000000000E+00  0.00000000000E+00  0.24851738750E+03  0.24851738750E+03  0.00000000000E+00 0.  1.
         13   -1    0    0    0    0 -0.00000000000E+00 -0.00000000000E+00 -0.27500000000E+03  0.27500000000E+03  0.00000000000E+00 0.  1.
    9000005    2    1    2  501    0 -0.31948084678E+02  0.92331079815E+01 -0.13486719422E+02  0.48781271505E+03  0.48649092794E+03 0.  0.
         13    1    3    3    0    0 -0.19098976900E+03 -0.56167027736E+02 -0.16504356161E+03  0.25859467144E+03  0.00000000000E+00 0.  1.
          1    1    3    3  501    0  0.15904168432E+03  0.65400135717E+02  0.15155684219E+03  0.22921804361E+03  0.00000000000E+00 0.  1.
         21    1    1    2  502  501  0.31948084678E+02 -0.92331079815E+01 -0.12995893080E+02  0.35704672447E+02  0.00000000000E+00 0.  1.
<scales pt_clust_4="550.00000" pt_clust_5="550.00000" pt_clust_6="33.25555"></scales>
<mgrwt>
<rscale>  0 0.30000000E+03</rscale>
<asrwt>  1 0.33255548E+02</asrwt>
<pdfrwt beam="1">  1        1 0.90369959E+00 0.30000000E+03</pdfrwt>
<pdfrwt beam="2">0</pdfrwt>
<totfact> 0.98522902E-05</totfact>
</mgrwt>
<clustering>
<clus scale="   33.256">  1  6  2 -1</clus>
<clus scale="  486.491">  4  5 -1 -1</clus>
<clus scale="  300.000">  1  4  2 -1</clus>
</clustering>
</event>
<event>
 6    1  0.9480355E-012  0.3000000E+03  0.7818608E-02  0.1093470E+00
          1   -1    0    0  502    0  0.00000000000E+00  0.00000000000E+00  0.23185583210E+03  0.23185583210E+03  0.00000000000E+00 0.  1.
         13   -1    0    0    0    0 -0.00000000000E+00 -0.00000000000E+00 -0.27500000000E+03  0.27500000000E+03  0.00000000000E+00 0.  1.
    9000005    2    1    2  501    0 -0.37987769658E+02 -0.74307411048E+01 -0.62857525262E+02  0.46341733517E+03  0.45750002349E+03 0.  0.
         13    1    3    3    0    0 -0.95868325877E+02 -0.21850308463E+03 -0.13102998802E+02  0.23896866422E+03  0.00000000000E+00 0.  1.
          1    1    3    3  501    0  0.57880556218E+02  0.21107234353E+03 -0.49754526461E+02  0.22444867095E+03  0.00000000000E+00 0.  1.
         21    1    1    2  502  501  0.37987769658E+02  0.74307411048E+01  0.19713357361E+02  0.43438496929E+02  0.00000000000E+00 0.  1.
<scales pt_clust_4="550.00000" pt_clust_5="550.00000" pt_clust_6="38.70771"></scales>
<mgrwt>
<rscale>  0 0.30000000E+03</rscale>
<asrwt>  1 0.38707707E+02</asrwt>
<pdfrwt beam="1">  1        1 0.84311212E+00 0.30000000E+03</pdfrwt>
<pdfrwt beam="2">0</pdfrwt>
<totfact> 0.46035097E-04</totfact>
</mgrwt>
<clustering>
<clus scale="   38.708">  1  6  2 -1</clus>
<clus scale="  457.500">  4  5 -1 -1</clus>
<clus scale="  300.000">  1  4  2 -1</clus>
</clustering>
</event>
<event>
 6    1  0.9480355E-012  0.3000000E+03  0.7818608E-02  0.1093470E+00
          1   -1    0    0  502    0  0.00000000000E+00  0.00000000000E+00  0.23382396839E+03  0.23382396839E+03  0.00000000000E+00 0.  1.
         13   -1    0    0    0    0 -0.00000000000E+00 -0.00000000000E+00 -0.27500000000E+03  0.27500000000E+03  0.00000000000E+00 0.  1.
    9000005    2    1    2  501    0  0.21452205185E+02  0.28834354689E+02 -0.45905478031E+02  0.47257504040E+03  0.46896507202E+03 0.  0.
         13    1    3    3    0    0  0.24236703734E+03  0.53068622943E+00 -0.59082344022E+02  0.24946499913E+03  0.00000000000E+00 0.  1.
          1    1    3    3  501    0 -0.22091483216E+03  0.28303668460E+02  0.13176865991E+02  0.22311004126E+03  0.00000000000E+00 0.  1.
         21    1    1    2  502  501 -0.21452205185E+02 -0.28834354689E+02  0.47294464254E+01  0.36248928000E+02  0.00000000000E+00 0.  1.
<scales pt_clust_4="550.00000" pt_clust_5="550.00000" pt_clust_6="35.93908"></scales>
<mgrwt>
<rscale>  0 0.30000000E+03</rscale>
<asrwt>  1 0.35939075E+02</asrwt>
<pdfrwt beam="1">  1        1 0.85026898E+00 0.30000000E+03</pdfrwt>
<pdfrwt beam="2">0</pdfrwt>
<totfact> 0.40263115E-04</totfact>
</mgrwt>
<clustering>
<clus scale="   35.939">  1  6  2 -1</clus>
<clus scale="  468.965">  4  5 -1 -1</clus>
<clus scale="  300.000">  1  4  2 -1</clus>
</clustering>
</event>
<event>
 6    1  0.9480355E-012  0.3000000E+03  0.7818608E-02  0.1093470E+00
          1   -1    0    0  502    0  0.00000000000E+00  0.00000000000E+00  0.25156092348E+03  0.25156092348E+03  0.00000000000E+00 0.  1.
         13   -1    0    0    0    0 -0.00000000000E+00 -0.00000000000E+00 -0.27500000000E+03  0.27500000000E+03  0.00000000000E+00 0.  1.
    9000005    2    1    2  501    0 -0.53411598742E+02 -0.94341782131E+00 -0.42115265000E+02  0.46997038599E+03  0.46502126752E+03 0.  0.
         13    1    3    3    0    0 -0.61411430121E+01 -0.35580334948E+02 -0.25071182618E+03  0.25329842807E+03  0.00000000000E+00 0.  1.
          1    1    3    3  501    0 -0.47270455730E+02  0.34636917126E+02  0.20859656118E+03  0.21667195792E+03  0.00000000000E+00 0.  1.
         21    1    1    2  502  501  0.53411598742E+02  0.94341782131E+00  0.18676188481E+02  0.56590537491E+02  0.00000000000E+00 0. -1.
<scales pt_clust_4="550.00000" pt_clust_5="550.00000" pt_clust_6="53.41993"></scales>
<mgrwt>
<rscale>  0 0.30000000E+03</rscale>
<asrwt>  1 0.53419930E+02</asrwt>
<pdfrwt beam="1">  1        1 0.91476699E+00 0.30000000E+03</pdfrwt>
<pdfrwt beam="2">0</pdfrwt>
<totfact> 0.50808852E-05</totfact>
</mgrwt>
<clustering>
<clus scale="   53.420">  1  6  2 -1</clus>
<clus scale="  465.021">  4  5 -1 -1</clus>
<clus scale="  300.000">  1  4  2 -1</clus>
</clustering>
</event>
<event>
 6    1  0.9480355E-012  0.3000000E+03  0.7818608E-02  0.1093470E+00
          1   -1    0    0  502    0  0.00000000000E+00  0.00000000000E+00  0.23800288019E+03  0.23800288019E+03  0.00000000000E+00 0.  1.
         13   -1    0    0    0    0 -0.00000000000E+00 -0.00000000000E+00 -0.27500000000E+03  0.27500000000E+03  0.00000000000E+00 0.  1.
    9000005    2    1    2  501    0 -0.22043173098E+02  0.24366311121E+02 -0.58582302047E+02  0.47368954034E+03  0.46890326926E+03 0.  0.
         13    1    3    3    0    0  0.18837378291E+03  0.63542896518E+02  0.84732170175E+02  0.21610627581E+03  0.00000000000E+00 0.  1.
          1    1    3    3  501    0 -0.21041695600E+03 -0.39176585397E+02 -0.14331447222E+03  0.25758326453E+03  0.00000000000E+00 0.  1.
         21    1    1    2  502  501  0.22043173098E+02 -0.24366311121E+02  0.21585182241E+02  0.39313339851E+02  0.00000000000E+00 0. -1.
<scales pt_clust_4="550.00000" pt_clust_5="550.00000" pt_clust_6="32.85755"></scales>
<mgrwt>
<rscale>  0 0.30000000E+03</rscale>
<asrwt>  1 0.32857550E+02</asrwt>
<pdfrwt beam="1">  1        1 0.86546502E+00 0.30000000E+03</pdfrwt>
<pdfrwt beam="2">0</pdfrwt>
<totfact> 0.28581024E-04</totfact>
</mgrwt>
<clustering>
<clus scale="   32.858">  1  6  2 -1</clus>
<clus scale="  468.903">  4  5 -1 -1</clus>
<clus scale="  300.000">  1  4  2 -1</clus>
</clustering>
</event>
<event>
 6    1  0.9480355E-012  0.3000000E+03  0.7818608E-02  0.1093470E+00
          1   -1    0    0  502    0  0.00000000000E+00  0.00000000000E+00  0.25203470075E+03  0.25203470075E+03  0.00000000000E+00 0.  1.
         13   -1    0    0    0    0 -0.00000000000E+00 -0.00000000000E+00 -0.27500000000E+03  0.27500000000E+03  0.00000000000E+00 0.  1.
    9000005    2    1    2  501    0  0.27710596194E+02 -0.13875532684E+02 -0.74193221453E+02  0.46716227336E+03  0.46019077347E+03 0.  0.
         13    1    3    3    0    0 -0.18581601209E+03 -0.69338430969E+02  0.62122216742E+02  0.20783305360E+03  0.00000000000E+00 0.  1.
          3    1    3    3  501    0  0.21352660828E+03  0.55462898285E+02 -0.13631543819E+03  0.25932921976E+03  0.00000000000E+00 0.  1.
         21    1    1    2  502  501 -0.27710596194E+02  0.13875532684E+02  0.51227922207E+02  0.59872427396E+02  0.00000000000E+00 0.  1.
<scales pt_clust_4="550.00000" pt_clust_5="550.00000" pt_clust_6="30.99044"></scales>
<mgrwt>
<rscale>  0 0.30000000E+03</rscale>
<asrwt>  1 0.30990443E+02</asrwt>
<pdfrwt beam="1">  1        1 0.91648982E+00 0.30000000E+03</pdfrwt>
<pdfrwt beam="2">0</pdfrwt>
<totfact> 0.51200644E-05</totfact>
</mgrwt>
<clustering>
<clus scale="   30.990">  1  6  2 -1</clus>
<clus scale="  460.191">  4  5 -1 -1</clus>
<clus scale="  300.000">  1  4  2 -1</clus>
</clustering>
</event>
<event>
 6    1  0.9480355E-012  0.3000000E+03  0.7818608E-02  0.1093470E+00
          1   -1    0    0  502    0  0.00000000000E+00  0.00000000000E+00  0.24399813898E+03  0.24399813898E+03  0.00000000000E+00 0.  1.
         13   -1    0    0    0    0 -0.00000000000E+00 -0.00000000000E+00 -0.27500000000E+03  0.27500000000E+03  0.00000000000E+00 0.  1.
    9000005    2    1    2  501    0 -0.36760104846E+02 -0.24944572251E+02 -0.47069575992E+02  0.47175717733E+03  0.46729621482E+03 0.  0.
         13    1    3    3    0    0 -0.24211723009E+03 -0.67325255553E+02  0.18704048503E+02  0.25199858050E+03  0.00000000000E+00 0.  1.
          1    1    3    3  501    0  0.20535712524E+03  0.42380683302E+02 -0.65773624495E+02  0.21975859684E+03  0.00000000000E+00 0.  1.
         21    1    1    2  502  501  0.36760104846E+02  0.24944572251E+02  0.16067714975E+02  0.47240961650E+02  0.00000000000E+00 0.  1.
<scales pt_clust_4="550.00000" pt_clust_5="550.00000" pt_clust_6="44.42451"></scales>
<mgrwt>
<rscale>  0 0.30000000E+03</rscale>
<asrwt>  1 0.44424509E+02</asrwt>
<pdfrwt beam="1">  1        1 0.88726596E+00 0.30000000E+03</pdfrwt>
<pdfrwt beam="2">0</pdfrwt>
<totfact> 0.15118773E-04</totfact>
</mgrwt>
<clustering>
<clus scale="   44.425">  1  6  2 -1</clus>
<clus scale="  467.296">  4  5 -1 -1</clus>
<clus scale="  300.000">  1  4  2 -1</clus>
</clustering>
</event>
<event>
 6    1  0.9480355E-012  0.3000000E+03  0.7818608E-02  0.1093470E+00
          1   -1    0    0  502    0  0.00000000000E+00  0.00000000000E+00  0.24484008603E+03  0.24484008603E+03  0.00000000000E+00 0.  1.
         13   -1    0    0    0    0 -0.00000000000E+00 -0.00000000000E+00 -0.27500000000E+03  0.27500000000E+03  0.00000000000E+00 0.  1.
    9000005    2    1    2  501    0 -0.13768198617E+02  0.36319656179E+02 -0.57641930370E+02  0.47225918709E+03  0.46711611719E+03 0.  0.
         13    1    3    3    0    0  0.43190687857E+01 -0.66131756007E+02 -0.24725374398E+03  0.25598140053E+03  0.00000000000E+00 0.  1.
          3    1    3    3  501    0 -0.18087267403E+02  0.10245141219E+03  0.18961181361E+03  0.21627778656E+03  0.00000000000E+00 0.  1.
         21    1    1    2  502  501  0.13768198617E+02 -0.36319656179E+02  0.27482016395E+02  0.47580898933E+02  0.00000000000E+00 0.  1.
<scales pt_clust_4="550.00000" pt_clust_5="550.00000" pt_clust_6="38.84174"></scales>
<mgrwt>
<rscale>  0 0.30000000E+03</rscale>
<asrwt>  1 0.38841739E+02</asrwt>
<pdfrwt beam="1">  1        1 0.89032759E+00 0.30000000E+03</pdfrwt>
<pdfrwt beam="2">0</pdfrwt>
<totfact> 0.14077239E-04</totfact>
</mgrwt>
<clustering>
<clus scale="   38.842">  1  6  2 -1</clus>
<clus scale="  467.116">  4  5 -1 -1</clus>
<clus scale="  300.000">  1  4  2 -1</clus>
</clustering>
</event>
<event>
 6    1  0.9480355E-012  0.3000000E+03  0.7818608E-02  0.1093470E+00
          1   -1    0    0  502    0  0.00000000000E+00  0.00000000000E+00  0.23328886333E+03  0.23328886333E+03  0.00000000000E+00 0.  1.
         13   -1    0    0    0    0 -0.00000000000E+00 -0.00000000000E+00 -0.27500000000E+03  0.27500000000E+03  0.00000000000E+00 0.  1.
    9000005    2    1    2  501    0  0.39071052089E+02 -0.63799047828E+01 -0.28550889582E+02  0.46657025357E+03  0.46401012697E+03 0.  0.
         13    1    3    3    0    0  0.17020505152E+03 -0.92162997492E+02  0.13813569909E+03  0.23779244948E+03  0.00000000000E+00 0.  1.
          1    1    3    3  501    0 -0.13113399943E+03  0.85783092709E+02 -0.16668658867E+03  0.22877780409E+03  0.00000000000E+00 0.  1.
         21    1    1    2  502  501 -0.39071052089E+02  0.63799047828E+01 -0.13160247090E+02  0.41718609754E+02  0.00000000000E+00 0.  1.
<scales pt_clust_4="550.00000" pt_clust_5="550.00000" pt_clust_6="39.58853"></scales>
<mgrwt>
<rscale>  0 0.30000000E+03</rscale>
<asrwt>  1 0.39588532E+02</asrwt>
<pdfrwt beam="1">  1        1 0.84832314E+00 0.30000000E+03</pdfrwt>
<pdfrwt beam="2">0</pdfrwt>
<totfact> 0.41234629E-04</totfact>
</mgrwt>
<clustering>
<clus scale="   39.589">  1  6  2 -1</clus>
<clus scale="  464.010">  4  5 -1 -1</clus>
<clus scale="  300.000">  1  4  2 -1</clus>
</clustering>
</event>
<event>
 6    1  0.9480355E-012  0.3000000E+03  0.7818608E-02  0.1093470E+00
          1   -1    0    0  502    0  0.00000000000E+00  0.00000000000E+00  0.23230995446E+03  0.23230995446E+03  0.00000000000E+00 0.  1.
         13   -1    0    0    0    0 -0.00000000000E+00 -0.00000000000E+00 -0.27500000000E+03  0.27500000000E+03  0.00000000000E+00 0.  1.
    9000005    2    1    2  501    0  0.26648039140E+02 -0.23483813009E+02 -0.38236747450E+02  0.47151275726E+03  0.46861564628E+03 0.  0.
         13    1    3    3    0    0 -0.19480620023E+02  0.12262052999E+03 -0.20837218685E+03  0.24255773989E+03  0.00000000000E+00 0.  1.
          3    1    3    3  501    0  0.46128659163E+02 -0.14610434300E+03  0.17013543940E+03  0.22895501736E+03  0.00000000000E+00 0.  1.
         21    1    1    2  502  501 -0.26648039140E+02  0.23483813009E+02 -0.44532980941E+01  0.35797197200E+02  0.00000000000E+00 0. -1.
<scales pt_clust_4="550.00000" pt_clust_5="550.00000" pt_clust_6="35.51913"></scales>
<mgrwt>
<rscale>  0 0.30000000E+03</rscale>
<asrwt>  1 0.35519132E+02</asrwt>
<pdfrwt beam="1">  1        1 0.84476347E+00 0.30000000E+03</pdfrwt>
<pdfrwt beam="2">0</pdfrwt>
<totfact> 0.45272890E-04</totfact>
</mgrwt>
<clustering>
<clus scale="   35.519">  1  6  2 -1</clus>
<clus scale="  468.616">  4  5 -1 -1</clus>
<clus scale="  300.000">  1  4  2 -1</clus>
</clustering>
</event>
<event>
 6    1  0.9480355E-012  0.3000000E+03  0.7818608E-02  0.1093470E+00
          1   -1    0    0  502    0  0.00000000000E+00  0.00000000000E+00  0.22742310899E+03  0.22742310899E+03  0.00000000000E+00 0.  1.
         13   -1    0    0    0    0 -0.00000000000E+00 -0.00000000000E+00 -0.27500000000E+03  0.27500000000E+03  0.00000000000E+00 0.  1.
    9000005    2    1    2  501    0 -0.28782058078E+02  0.10619665219E+02 -0.40350099040E+02  0.47090469090E+03  0.46816868035E+03 0.  0.
         13    1    3    3    0    0 -0.40297414247E+02  0.23117806298E+03 -0.77108433655E+02  0.24700787222E+03  0.00000000000E+00 0.  1.
          1    1    3    3  501    0  0.11515356169E+02 -0.22055839776E+03  0.36758334615E+02  0.22389681868E+03  0.00000000000E+00 0.  1.
         21    1    1    2  502  501  0.28782058078E+02 -0.10619665219E+02 -0.72267919697E+01  0.31518418088E+02  0.00000000000E+00 0.  1.
<scales pt_clust_4="550.00000" pt_clust_5="550.00000" pt_clust_6="30.67874"></scales>
<mgrwt>
<rscale>  0 0.30000000E+03</rscale>
<asrwt>  1 0.30678740E+02</asrwt>
<pdfrwt beam="1">  1        1 0.82699312E+00 0.30000000E+03</pdfrwt>
<pdfrwt beam="2">0</pdfrwt>
<totfact> 0.64295696E-04</totfact>
</mgrwt>
<clustering>
<clus scale="   30.679">  1  6  2 -1</clus>
<clus scale="  468.169">  4  5 -1 -1</clus>
<clus scale="  300.000">  1  4  2 -1</clus>
</clustering>
</event>
<event>
 6    1  0.9480355E-012  0.3000000E+03  0.7818608E-02  0.1093470E+00
          1   -1    0    0  502    0  0.00000000000E+00  0.00000000000E+00  0.23964242696E+03  0.23964242696E+03  0.00000000000E+00 0.  1.
         13   -1    0    0    0    0 -0.00000000000E+00 -0.00000000000E+00 -0.27500000000E+03  0.27500000000E+03  0.00000000000E+00 0.  1.
    9000005    2    1    2  501    0  0.17720974473E+02 -0.30592919731E+02 -0.24211671440E+02  0.47757234743E+03  0.47564606834E+03 0.  0.
         13    1    3    3    0    0 -0.22903134905E+03 -0.12589216568E+02 -0.52242876636E+01  0.22943657163E+03  0.00000000000E+00 0.  1.
          1    1    3    3  501    0  0.24675232352E+03 -0.18003703163E+02 -0.18987383776E+02  0.24813577580E+03  0.00000000000E+00 0.  1.
         21    1    1    2  502  501 -0.17720974473E+02  0.30592919731E+02 -0.11145901596E+02  0.37070079529E+02  0.00000000000E+00 0. -1.
<scales pt_clust_4="550.00000" pt_clust_5="550.00000" pt_clust_6="35.35479"></scales>
<mgrwt>
<rscale>  0 0.30000000E+03</rscale>
<asrwt>  1 0.35354786E+02</asrwt>
<pdfrwt beam="1">  1        1 0.87142701E+00 0.30000000E+03</pdfrwt>
<pdfrwt beam="2">0</pdfrwt>
<totfact> 0.24443493E-04</totfact>
</mgrwt>
<clustering>
<clus scale="   35.355">  1  6  2 -1</clus>
<clus scale="  475.646">  4  5 -1 -1</clus>
<clus scale="  300.000">  1  4  2 -1</clus>
</clustering>
</event>
<event>
 6    1  0.9480355E-012  0.3000000E+03  0.7818608E-02  0.1093470E+00
          1   -1    0    0  502    0  0.00000000000E+00  0.00000000000E+00  0.22282172257E+03  0.22282172257E+03  0.00000000000E+00 0.  1.
         13   -1    0    0    0    0 -0.00000000000E+00 -0.00000000000E+00 -0.27500000000E+03  0.27500000000E+03  0.00000000000E+00 0.  1.
    9000005    2    1    2  501    0  0.24573813118E+02  0.22644665917E+02 -0.58391316015E+02  0.46383267971E+03  0.45892761499E+03 0.  0.
         13    1    3    3    0    0  0.21951263033E+03  0.11111885806E+03 -0.28539135396E+02  0.24768463364E+03  0.00000000000E+00 0.  1.
          1    1    3    3  501    0 -0.19493881722E+03 -0.88474192146E+02 -0.29852180619E+02  0.21614804607E+03  0.00000000000E+00 0.  1.
         21    1    1    2  502  501 -0.24573813118E+02 -0.22644665917E+02  0.62130385828E+01  0.33989042853E+02  0.00000000000E+00 0. -1.
<scales pt_clust_4="550.00000" pt_clust_5="550.00000" pt_clust_6="33.41636"></scales>
<mgrwt>
<rscale>  0 0.30000000E+03</rscale>
<asrwt>  1 0.33416361E+02</asrwt>
<pdfrwt beam="1">  1        1 0.81026081E+00 0.30000000E+03</pdfrwt>
<pdfrwt beam="2">0</pdfrwt>
<totfact> 0.87565109E-04</totfact>
</mgrwt>
<clustering>
<clus scale="   33.416">  1  6  2 -1</clus>
<clus scale="  458.928">  4  5 -1 -1</clus>
<clus scale="  300.000">  1  4  2 -1</clus>
</clustering>
</event>
<event>
 6    1  0.9480355E-012  0.3000000E+03  0.7818608E-02  0.1093470E+00
          1   -1    0    0  502    0  0.00000000000E+00  0.00000000000E+00  0.23748263072E+03  0.23748263072E+03  0.00000000000E+00 0.  1.
         13   -1    0    0    0    0 -0.00000000000E+00 -0.00000000000E+00 -0.27500000000E+03  0.27500000000E+03  0.00000000000E+00 0.  1.
    9000005    2    1    2  501    0 -0.14550900328E+02 -0.45105769950E+02 -0.52586431251E+02  0.46274998740E+03  0.45730291810E+03 0.  0.
         13    1    3    3    0    0  0.19635882843E+03  0.77622445064E+02  0.80941704374E+01  0.21129966653E+03  0.00000000000E+00 0.  1.
          3    1    3    3  501    0 -0.21090972876E+03 -0.12272821501E+03 -0.60680601689E+02  0.25145032087E+03  0.00000000000E+00 0.  1.
         21    1    1    2  502  501  0.14550900328E+02  0.45105769950E+02  0.15069061975E+02  0.49732643323E+02  0.00000000000E+00 0. -1.
<scales pt_clust_4="550.00000" pt_clust_5="550.00000" pt_clust_6="47.39472"></scales>
<mgrwt>
<rscale>  0 0.30000000E+03</rscale>
<asrwt>  1 0.47394717E+02</asrwt>
<pdfrwt beam="1">  1        1 0.86357320E+00 0.30000000E+03</pdfrwt>
<pdfrwt beam="2">0</pdfrwt>
<totfact> 0.28013189E-04</totfact>
</mgrwt>
<clustering>
<clus scale="   47.395">  1  6  2 -1</clus>
<clus scale="  457.303">  4  5 -1 -1</clus>
<clus scale="  300.000">  1  4  2 -1</clus>
</clustering>
</event>
<event>
 6    1  0.9480355E-012  0.3000000E+03  0.7818608E-02  0.1093470E+00
          1   -1    0    0  502    0  0.00000000000E+00  0.00000000000E+00  0.22520478986E+03  0.22520478986E+03  0.00000000000E+00 0.  1.
         13   -1    0    0    0    0 -0.00000000000E+00 -0.00000000000E+00 -0.27500000000E+03  0.27500000000E+03  0.00000000000E+00 0.  1.
    9000005    2    1    2  501    0  0.29931522627E+02  0.20363402245E+02 -0.61869255095E+02  0.46204267829E+03  0.45644831869E+03 0.  0.
         13    1    3    3    0    0  0.12717291475E+03  0.26121592172E+02  0.16803868960E+03  0.21234945026E+03  0.00000000000E+00 0.  1.
          1    1    3    3  501    0 -0.97241392120E+02 -0.57581899268E+01 -0.22990794469E+03  0.24969322803E+03  0.00000000000E+00 0.  1.
         21    1    1    2  502  501 -0.29931522627E+02 -0.20363402245E+02  0.12074044955E+02  0.38162111568E+02  0.00000000000E+00 0. -1.
<scales pt_clust_4="550.00000" pt_clust_5="550.00000" pt_clust_6="36.20172"></scales>
<mgrwt>
<rscale>  0 0.30000000E+03</rscale>
<asrwt>  1 0.36201715E+02</asrwt>
<pdfrwt beam="1">  1        1 0.81892651E+00 0.30000000E+03</pdfrwt>
<pdfrwt beam="2">0</pdfrwt>
<totfact> 0.73416915E-04</totfact>
</mgrwt>
<clustering>
<clus scale="   36.202">  1  6  2 -1</clus>
<clus scale="  456.448">  4  5 -1 -1</clus>
<clus scale="  300.000">  1  4  2 -1</clus>
</clustering>
</event>
<event>
 6    1  0.9480355E-012  0.3000000E+03  0.7818608E-02  0.1093470E+00
          1   -1    0    0  502    0  0.00000000000E+00  0.00000000000E+00  0.24845012420E+03  0.24845012420E+03  0.00000000000E+00 0.  1.
         13   -1    0    0    0    0 -0.00000000000E+00 -0.00000000000E+00 -0.27500000000E+03  0.27500000000E+03  0.00000000000E+00 0.  1.
    9000005    2    1    2  501    0 -0.24622674323E+02  0.33741262325E+02 -0.39785356260E+02  0.47963315469E+03  0.47615159312E+03 0.  0.
         13    1    3    3    0    0 -0.13033427983E+03 -0.33480680743E+02  0.18114437663E+03  0.22565740773E+03  0.00000000000E+00 0.  1.
          3    1    3    3  501    0  0.10571160550E+03  0.67221943068E+02 -0.22092973289E+03  0.25397574696E+03  0.00000000000E+00 0.  1.
         21    1    1    2  502  501  0.24622674323E+02 -0.33741262325E+02  0.13235480461E+02  0.43816969511E+02  0.00000000000E+00 0.  1.
<scales pt_clust_4="550.00000" pt_clust_5="550.00000" pt_clust_6="41.77019"></scales>
<mgrwt>
<rscale>  0 0.30000000E+03</rscale>
<asrwt>  1 0.41770191E+02</asrwt>
<pdfrwt beam="1">  1        1 0.90345500E+00 0.30000000E+03</pdfrwt>
<pdfrwt beam="2">0</pdfrwt>
<totfact> 0.95358206E-05</totfact>
</mgrwt>
<clustering>
<clus scale="   41.770">  1  6  2 -1</clus>
<clus scale="  476.152">  4  5 -1 -1</clus>
<clus scale="  300.000">  1  4  2 -1</clus>
</clustering>
</event>
<event>
 6    1  0.9480355E-012  0.3000000E+03  0.7818608E-02  0.1093470E+00
          1   -1    0    0  502    0  0.00000000000E+00  0.00000000000E+00  0.23757125065E+03  0.23757125065E+03  0.00000000000E+00 0.  1.
         13   -1    0    0    0    0 -0.00000000000E+00 -0.00000000000E+00 -0.27500000000E+03  0.27500000000E+03  0.00000000000E+00 0.  1.
    9000005    2    1    2  501    0 -0.10689586377E+02 -0.31451535258E+02 -0.73969586298E+02  0.46318806432E+03  0.45603532419E+03 0.  0.
         13    1    3    3    0    0  0.32229226259E+02  0.19502630800E+03  0.46543796494E+02  0.20307710070E+03  0.00000000000E+00 0.  1.
          3    1    3    3  501    0 -0.42918812636E+02 -0.22647784326E+03 -0.12051338279E+03  0.26011096362E+03  0.00000000000E+00 0.  1.
         21    1    1    2  502  501  0.10689586377E+02  0.31451535258E+02  0.36540836948E+02  0.49383186327E+02  0.00000000000E+00 0. -1.
<scales pt_clust_4="550.00000" pt_clust_5="550.00000" pt_clust_6="33.21846"></scales>
<mgrwt>
<rscale>  0 0.30000000E+03</rscale>
<asrwt>  1 0.33218464E+02</asrwt>
<pdfrwt beam="1">  1        1 0.86389546E+00 0.30000000E+03</pdfrwt>
<pdfrwt beam="2">0</pdfrwt>
<totfact> 0.29654806E-04</totfact>
</mgrwt>
<clustering>
<clus scale="   33.218">  1  6  2 -1</clus>
<clus scale="  456.035">  4  5 -1 -1</clus>
<clus scale="  300.000">  1  4  2 -1</clus>
</clustering>
</event>
<event>
 6    1  0.9480355E-012  0.3000000E+03  0.7818608E-02  0.1093470E+00
          1   -1    0    0  502    0  0.00000000000E+00  0.00000000000E+00  0.24181742571E+03  0.24181742571E+03  0.00000000000E+00 0.  1.
         13   -1    0    0    0    0 -0.00000000000E+00 -0.00000000000E+00 -0.27500000000E+03  0.27500000000E+03  0.00000000000E+00 0.  1.
    9000005    2    1    2  501    0  0.37450559709E+02  0.10577500158E+02 -0.43333049942E+02  0.47659976681E+03  0.47302764884E+03 0.  0.
         13    1    3    3    0    0 -0.62757772742E+02 -0.20399908283E+03 -0.95938655646E+02  0.23400510567E+03  0.00000000000E+00 0.  1.
          1    1    3    3  501    0  0.10020833245E+03  0.21457658299E+03  0.52605605704E+02  0.24259466113E+03  0.00000000000E+00 0.  1.
         21    1    1    2  502  501 -0.37450559709E+02 -0.10577500158E+02  0.10150475656E+02  0.40217658909E+02  0.00000000000E+00 0.  1.
<scales pt_clust_4="550.00000" pt_clust_5="550.00000" pt_clust_6="38.91565"></scales>
<mgrwt>
<rscale>  0 0.30000000E+03</rscale>
<asrwt>  1 0.38915652E+02</asrwt>
<pdfrwt beam="1">  1        1 0.87933609E+00 0.30000000E+03</pdfrwt>
<pdfrwt beam="2">0</pdfrwt>
<totfact> 0.19717771E-04</totfact>
</mgrwt>
<clustering>
<clus scale="   38.916">  1  6  2 -1</clus>
<clus scale="  473.028">  4  5 -1 -1</clus>
<clus scale="  300.000">  1  4  2 -1</clus>
</clustering>
</event>
<event>
 6    1  0.9480355E-012  0.3000000E+03  0.7818608E-02  0.1093470E+00
          1   -1    0    0  502    0  0.00000000000E+00  0.00000000000E+00  0.24843072453E+03  0.24843072453E+03  0.00000000000E+00 0.  1.
         13   -1    0    0    0    0 -0.00000000000E+00 -0.00000000000E+00 -0.27500000000E+03  0.27500000000E+03  0.00000000000E+00 0.  1.
    9000005    2    1    2  501    0  0.29640547935E+02  0.85283660372E+01 -0.65064125039E+02  0.47410376889E+03  0.46860404203E+03 0.  0.
         13    1    3    3    0    0  0.47266670775E+02  0.22627082325E+03  0.35057182958E+02  0.23379826710E+03  0.00000000000E+00 0.  1.
          3    1    3    3  501    0 -0.17626122841E+02 -0.21774245721E+03 -0.10012130800E+03  0.24030550180E+03  0.00000000000E+00 0.  1.
         21    1    1    2  502  501 -0.29640547935E+02 -0.85283660372E+01  0.38494849574E+02  0.49326955641E+02  0.00000000000E+00 0.  1.
<scales pt_clust_4="550.00000" pt_clust_5="550.00000" pt_clust_6="30.84307"></scales>
<mgrwt>
<rscale>  0 0.30000000E+03</rscale>
<asrwt>  1 0.30843072E+02</asrwt>
<pdfrwt beam="1">  1        1 0.90338445E+00 0.30000000E+03</pdfrwt>
<pdfrwt beam="2">0</pdfrwt>
<totfact> 0.10117085E-04</totfact>
</mgrwt>
<clustering>
<clus scale="   30.843">  1  6  2 -1</clus>
<clus scale="  468.604">  4  5 -1 -1</clus>
<clus scale="  300.000">  1  4  2 -1</clus>
</clustering>
</event>
<event>
 6    1  0.9480355E-012  0.3000000E+03  0.7818608E-02  0.1093470E+00
          1   -1    0    0  502    0  0.00000000000E+00  0.00000000000E+00  0.24822937228E+03  0.24822937228E+03  0.00000000000E+00 0.  1.
         13   -1    0    0    0    0 -0.00000000000E+00 -0.00000000000E+00 -0.27500000000E+03  0.27500000000E+03  0.00000000000E+00 0.  1.
    9000005    2    1    2  501    0 -0.31194311667E+02  0.15137128999E+01 -0.38314037308E+02  0.48993332579E+03  0.48743340248E+03 0.  0.
         13    1    3    3    0    0 -0.19178992099E+03  0.33036504301E+02  0.14611410855E+03  0.24336005656E+03  0.00000000000E+00 0.  1.
          1    1    3    3  501    0  0.16059560933E+03 -0.31522791401E+02 -0.18442814586E+03  0.24657326923E+03  0.00000000000E+00 0.  1.
         21    1    1    2  502  501  0.31194311667E+02 -0.15137128999E+01  0.11543409586E+02  0.33296046492E+02  0.00000000000E+00 0.  1.
<scales pt_clust_4="550.00000" pt_clust_5="550.00000" pt_clust_6="31.23102"></scales>
<mgrwt>
<rscale>  0 0.30000000E+03</rscale>
<asrwt>  1 0.31231017E+02</asrwt>
<pdfrwt beam="1">  1        1 0.90265226E+00 0.30000000E+03</pdfrwt>
<pdfrwt beam="2">0</pdfrwt>
<totfact> 0.10369272E-04</totfact>
</mgrwt>
<clustering>
<clus scale="   31.231">  1  6  2 -1</clus>
<clus scale="  487.433">  4  5 -1 -1</clus>
<clus scale="  300.000">  1  4  2 -1</clus>
</clustering>
</event>
<event>
 6    1  0.9480355E-012  0.3000000E+03  0.7818608E-02  0.1093470E+00
          1   -1    0    0  502    0  0.00000000000E+00  0.00000000000E+00  0.23209058690E+03  0.23209058690E+03  0.00000000000E+00 0.  1.
         13   -1    0    0    0    0 -0.00000000000E+00 -0.00000000000E+00 -0.27500000000E+03  0.27500000000E+03  0.00000000000E+00 0.  1.
    9000005    2    1    2  501    0 -0.30020479365E+02  0.61767095202E+01 -0.72623650775E+02  0.46440198371E+03  0.45766322432E+03 0.  0.
         13    1    3    3    0    0  0.19343501957E+03  0.83946445886E+02 -0.85290550292E+02  0.22746118469E+03  0.00000000000E+00 0.  1.
          1    1    3    3  501    0 -0.22345549893E+03 -0.77769736366E+02  0.12666899517E+02  0.23694079902E+03  0.00000000000E+00 0.  1.
         21    1    1    2  502  501  0.30020479365E+02 -0.61767095202E+01  0.29714237672E+02  0.42688603188E+02  0.00000000000E+00 0. -1.
<scales pt_clust_4="550.00000" pt_clust_5="550.00000" pt_clust_6="30.64932"></scales>
<mgrwt>
<rscale>  0 0.30000000E+03</rscale>
<asrwt>  1 0.30649322E+02</asrwt>
<pdfrwt beam="1">  1        1 0.84396577E+00 0.30000000E+03</pdfrwt>
<pdfrwt beam="2">0</pdfrwt>
<totfact> 0.47298036E-04</totfact>
</mgrwt>
<clustering>
<clus scale="   30.649">  1  6  2 -1</clus>
<clus scale="  457.663">  4  5 -1 -1</clus>
<clus scale="  300.000">  1  4  2 -1</clus>
</clustering>
</event>
<event>
 6    1  0.9480355E-012  0.3000000E+03  0.7818608E-02  0.1093470E+00
          1   -1    0    0  502    0  0.00000000000E+00  0.00000000000E+00  0.26823401166E+03  0.26823401166E+03  0.00000000000E+00 0.  1.
         13   -1    0    0    0    0 -0.00000000000E+00 -0.00000000000E+00 -0.27500000000E+03  0.27500000000E+03  0.00000000000E+00 0.  1.
    9000005    2    1    2  501    0 -0.31194496809E+02 -0.15693990312E+02 -0.18416930822E+02  0.50642175251E+03  0.50488058995E+03 0.  0.
         13    1    3    3    0    0  0.21066466471E+03  0.40456931080E+02  0.93582386717E+02  0.23403851677E+03  0.00000000000E+00 0.  1.
          3    1    3    3  501    0 -0.24185916151E+03 -0.56150921392E+02 -0.11199931754E+03  0.27238323574E+03  0.00000000000E+00 0.  1.
         21    1    1    2  502  501  0.31194496809E+02  0.15693990312E+02  0.11650942479E+02  0.36812259150E+02  0.00000000000E+00 0.  1.
<scales pt_clust_4="550.00000" pt_clust_5="550.00000" pt_clust_6="34.91988"></scales>
<mgrwt>
<rscale>  0 0.30000000E+03</rscale>
<asrwt>  1 0.34919879E+02</asrwt>
<pdfrwt beam="1">  1        1 0.97539641E+00 0.30000000E+03</pdfrwt>
<pdfrwt beam="2">0</pdfrwt>
<totfact> 0.39998285E-06</totfact>
</mgrwt>
<clustering>
<clus scale="   34.920">  1  6  2 -1</clus>
<clus scale="  504.881">  4  5 -1 -1</clus>
<clus scale="  300.000">  1  4  2 -1</clus>
</clustering>
</event>
<event>
 6    1  0.9480355E-012  0.3000000E+03  0.7818608E-02  0.1093470E+00
          1   -1    0    0  502    0  0.00000000000E+00  0.00000000000E+00  0.26688681359E+03  0.26688681359E+03  0.00000000000E+00 0.  1.
         13   -1    0    0    0    0 -0.00000000000E+00 -0.00000000000E+00 -0.27500000000E+03  0.27500000000E+03  0.00000000000E+00 0.  1.
    9000005    2    1    2  501    0  0.17177933092E+02 -0.33954924069E+02 -0.26015962184E+02  0.49983294772E+03  0.49770285019E+03 0.  0.
         13    1    3    3    0    0 -0.15061345309E+03  0.17060634409E+02  0.17602532118E+03  0.23229376056E+03  0.00000000000E+00 0.  1.
          3    1    3    3  501    0  0.16779138618E+03 -0.51015558478E+02 -0.20204128337E+03  0.26753918716E+03  0.00000000000E+00 0.  1.
         21    1    1    2  502  501 -0.17177933092E+02  0.33954924069E+02  0.17902775772E+02  0.42053865865E+02  0.00000000000E+00 0.  1.
<scales pt_clust_4="550.00000" pt_clust_5="550.00000" pt_clust_6="38.05284"></scales>
<mgrwt>
<rscale>  0 0.30000000E+03</rscale>
<asrwt>  1 0.38052835E+02</asrwt>
<pdfrwt beam="1">  1        1 0.97049750E+00 0.30000000E+03</pdfrwt>
<pdfrwt beam="2">0</pdfrwt>
<totfact> 0.47957954E-06</totfact>
</mgrwt>
<clustering>
<clus scale="   38.053">  1  6  2 -1</clus>
<clus scale="  497.703">  4  5 -1 -1</clus>
<clus scale="  300.000">  1  4  2 -1</clus>
</clustering>
</event>
<event>
 6    1  0.9480355E-012  0.3000000E+03  0.7818608E-02  0.1093470E+00
          1   -1    0    0  502    0  0.00000000000E+00  0.00000000000E+00  0.23161569730E+03  0.23161569730E+03  0.00000000000E+00 0.  1.
         13   -1    0    0    0    0 -0.00000000000E+00 -0.00000000000E+00 -0.27500000000E+03  0.27500000000E+03  0.00000000000E+00 0.  1.
    9000005    2    1    2  501    0  0.41855993051E+02 -0.10743895949E+02 -0.51904443178E+02  0.46257085369E+03  0.45761377603E+03 0.  0.
         13    1    3    3    0    0 -0.42020617706E+02  0.40337380787E+02 -0.24183597917E+03  0.24875183903E+03  0.00000000000E+00 0.  1.
          1    1    3    3  501    0  0.83876610756E+02 -0.51081276735E+02  0.18993153599E+03  0.21381901466E+03  0.00000000000E+00 0.  1.
         21    1    1    2  502  501 -0.41855993051E+02  0.10743895949E+02  0.85201404761E+01  0.44044843604E+02  0.00000000000E+00 0.  1.
<scales pt_clust_4="550.00000" pt_clust_5="550.00000" pt_clust_6="43.21291"></scales>
<mgrwt>
<rscale>  0 0.30000000E+03</rscale>
<asrwt>  1 0.43212908E+02</asrwt>
<pdfrwt beam="1">  1        1 0.84223890E+00 0.30000000E+03</pdfrwt>
<pdfrwt beam="2">0</pdfrwt>
<totfact> 0.45889513E-04</totfact>
</mgrwt>
<clustering>
<clus scale="   43.213">  1  6  2 -1</clus>
<clus scale="  457.614">  4  5 -1 -1</clus>
<clus scale="  300.000">  1  4  2 -1</clus>
</clustering>
</event>
<event>
 6    1  0.9480355E-012  0.3000000E+03  0.7818608E-02  0.1093470E+00
          1   -1    0    0  502    0  0.00000000000E+00  0.00000000000E+00  0.22601661415E+03  0.22601661415E+03  0.00000000000E+00 0.  1.
         13   -1    0    0    0    0 -0.00000000000E+00 -0.00000000000E+00 -0.27500000000E+03  0.27500000000E+03  0.00000000000E+00 0.  1.
    9000005    2    1    2  501    0 -0.32911060054E+02 -0.71953286825E+01 -0.49964293198E+02  0.46731390198E+03  0.46341228054E+03 0.  0.
         13    1    3    3    0    0 -0.20348013739E+02  0.13955861981E+03 -0.20798459895E+03  0.25129314242E+03  0.00000000000E+00 0.  1.
          1    1    3    3  501    0 -0.12563046315E+02 -0.14675394849E+03  0.15802030575E+03  0.21602075956E+03  0.00000000000E+00 0.  1.
         21    1    1    2  502  501  0.32911060054E+02  0.71953286825E+01  0.98090735021E+00  0.33702712175E+02  0.00000000000E+00 0.  1.
<scales pt_clust_4="550.00000" pt_clust_5="550.00000" pt_clust_6="33.68843"></scales>
<mgrwt>
<rscale>  0 0.30000000E+03</rscale>
<asrwt>  1 0.33688435E+02</asrwt>
<pdfrwt beam="1">  1        1 0.82187860E+00 0.30000000E+03</pdfrwt>
<pdfrwt beam="2">0</pdfrwt>
<totfact> 0.70140058E-04</totfact>
</mgrwt>
<clustering>
<clus scale="   33.688">  1  6  2 -1</clus>
<clus scale="  463.412">  4  5 -1 -1</clus>
<clus scale="  300.000">  1  4  2 -1</clus>
</clustering>
</event>
<event>
 6    1  0.9480355E-012  0.3000000E+03  0.7818608E-02  0.1093470E+00
          1   -1    0    0  502    0  0.00000000000E+00  0.00000000000E+00  0.21920258958E+03  0.21920258958E+03  0.00000000000E+00 0.  1.
         13   -1    0    0    0    0 -0.00000000000E+00 -0.00000000000E+00 -0.27500000000E+03  0.27500000000E+03  0.00000000000E+00 0.  1.
    9000005    2    1    2  501    0  0.15761691691E+02  0.27330395422E+02 -0.52699711106E+02  0.46250121453E+03  0.45840455109E+03 0.  0.
         13    1    3    3    0    0  0.83347404738E+02  0.19431457450E+03 -0.14859059290E+03  0.25842621391E+03  0.00000000000E+00 0.  1.
          3    1    3    3  501    0 -0.67585713047E+02 -0.16698417907E+03  0.95890881790E+02  0.20407500062E+03  0.00000000000E+00 0.  1.
         21    1    1    2  502  501 -0.15761691691E+02 -0.27330395422E+02 -0.30976993131E+01  0.31701375048E+02  0.00000000000E+00 0.  1.
<scales pt_clust_4="550.00000" pt_clust_5="550.00000" pt_clust_6="31.54967"></scales>
<mgrwt>
<rscale>  0 0.30000000E+03</rscale>
<asrwt>  1 0.31549666E+02</asrwt>
<pdfrwt beam="1">  1        1 0.79710033E+00 0.30000000E+03</pdfrwt>
<pdfrwt beam="2">0</pdfrwt>
<totfact> 0.11100540E-03</totfact>
</mgrwt>
<clustering>
<clus scale="   31.550">  1  6  2 -1</clus>
<clus scale="  458.405">  4  5 -1 -1</clus>
<clus scale="  300.000">  1  4  2 -1</clus>
</clustering>
</event>
<event>
 6    1  0.9480355E-012  0.3000000E+03  0.7818608E-02  0.1093470E+00
          1   -1    0    0  502    0  0.00000000000E+00  0.00000000000E+00  0.22548872510E+03  0.22548872510E+03  0.00000000000E+00 0.  1.
         13   -1    0    0    0    0 -0.00000000000E+00 -0.00000000000E+00 -0.27500000000E+03  0.27500000000E+03  0.00000000000E+00 0.  1.
    9000005    2    1    2  501    0 -0.70404834843E+01  0.39303478442E+02 -0.42694836821E+02  0.45998198920E+03  0.45625239667E+03 0.  0.
         13    1    3    3    0    0  0.11229849863E+03  0.18531140574E+03 -0.12945363187E+03  0.25240743391E+03  0.00000000000E+00 0.  1.
          1    1    3    3  501    0 -0.11933898211E+03 -0.14600792730E+03  0.86758795049E+02  0.20757455529E+03  0.00000000000E+00 0.  1.
         21    1    1    2  502  501  0.70404834843E+01 -0.39303478442E+02 -0.68164380786E+01  0.40506735901E+02  0.00000000000E+00 0.  1.
<scales pt_clust_4="550.00000" pt_clust_5="550.00000" pt_clust_6="39.92910"></scales>
<mgrwt>
<rscale>  0 0.30000000E+03</rscale>
<asrwt>  1 0.39929105E+02</asrwt>
<pdfrwt beam="1">  1        1 0.81995900E+00 0.30000000E+03</pdfrwt>
<pdfrwt beam="2">0</pdfrwt>
<totfact> 0.70647047E-04</totfact>
</mgrwt>
<clustering>
<clus scale="   39.929">  1  6  2 -1</clus>
<clus scale="  456.252">  4  5 -1 -1</clus>
<clus scale="  300.000">  1  4  2 -1</clus>
</clustering>
</event>
<event>
 6    1  0.9480355E-012  0.3000000E+03  0.7818608E-02  0.1093470E+00
          1   -1    0    0  502    0  0.00000000000E+00  0.00000000000E+00  0.23078438837E+03  0.23078438837E+03  0.00000000000E+00 0.  1.
         13   -1    0    0    0    0 -0.00000000000E+00 -0.00000000000E+00 -0.27500000000E+03  0.27500000000E+03  0.00000000000E+00 0.  1.
    9000005    2    1    2  501    0  0.25663354227E+02  0.20827261424E+02 -0.51910367643E+02  0.47184927619E+03  0.46781905755E+03 0.  0.
         13    1    3    3    0    0  0.11644720246E+03  0.21434721981E+03  0.23770140051E+02  0.24509120988E+03  0.00000000000E+00 0.  1.
          3    1    3    3  501    0 -0.90783848230E+02 -0.19351995839E+03 -0.75680507694E+02  0.22675806631E+03  0.00000000000E+00 0.  1.
         21    1    1    2  502  501 -0.25663354227E+02 -0.20827261424E+02  0.76947560130E+01  0.33935112181E+02  0.00000000000E+00 0. -1.
<scales pt_clust_4="550.00000" pt_clust_5="550.00000" pt_clust_6="33.05121"></scales>
<mgrwt>
<rscale>  0 0.30000000E+03</rscale>
<asrwt>  1 0.33051211E+02</asrwt>
<pdfrwt beam="1">  1        1 0.83921596E+00 0.30000000E+03</pdfrwt>
<pdfrwt beam="2">0</pdfrwt>
<totfact> 0.50935508E-04</totfact>
</mgrwt>
<clustering>
<clus scale="   33.051">  1  6  2 -1</clus>
<clus scale="  467.819">  4  5 -1 -1</clus>
<clus scale="  300.000">  1  4  2 -1</clus>
</clustering>
</event>
<event>
 6    1  0.9480355E-012  0.3000000E+03  0.7818608E-02  0.1093470E+00
          1   -1    0    0  502    0  0.00000000000E+00  0.00000000000E+00  0.22355314105E+03  0.22355314105E+03  0.00000000000E+00 0.  1.
         13   -1    0    0    0    0 -0.00000000000E+00 -0.00000000000E+00 -0.27500000000E+03  0.27500000000E+03  0.00000000000E+00 0.  1.
    9000005    2    1    2  501    0  0.26841511497E+02 -0.15114592853E+02 -0.45970169097E+02  0.46726557501E+03  0.46397730924E+03 0.  0.
         13    1    3    3    0    0  0.11374831814E+03 -0.68708980060E+02  0.17740691528E+03  0.22165923714E+03  0.00000000000E+00 0.  1.
          1    1    3    3  501    0 -0.86906806645E+02  0.53594387207E+02 -0.22337708437E+03  0.24560633788E+03  0.00000000000E+00 0.  1.
         21    1    1    2  502  501 -0.26841511497E+02  0.15114592853E+02 -0.54766898547E+01  0.31287566034E+02  0.00000000000E+00 0. -1.
<scales pt_clust_4="550.00000" pt_clust_5="550.00000" pt_clust_6="30.80452"></scales>
<mgrwt>
<rscale>  0 0.30000000E+03</rscale>
<asrwt>  1 0.30804522E+02</asrwt>
<pdfrwt beam="1">  1        1 0.81292051E+00 0.30000000E+03</pdfrwt>
<pdfrwt beam="2">0</pdfrwt>
<totfact> 0.84742081E-04</totfact>
</mgrwt>
<clustering>
<clus scale="   30.805">  1  6  2 -1</clus>
<clus scale="  463.977">  4  5 -1 -1</clus>
<clus scale="  300.000">  1  4  2 -1</clus>
</clustering>
</event>
<event>
 6    1  0.9480355E-012  0.3000000E+03  0.7818608E-02  0.1093470E+00
          1   -1    0    0  502    0  0.00000000000E+00  0.00000000000E+00  0.24215095118E+03  0.24215095118E+03  0.00000000000E+00 0.  1.
         13   -1    0    0    0    0 -0.00000000000E+00 -0.00000000000E+00 -0.27500000000E+03  0.27500000000E+03  0.00000000000E+00 0.  1.
    9000005    2    1    2  501    0  0.80501565197E+01 -0.31138458129E+02 -0.48153627158E+02  0.48153299626E+03  0.47803854037E+03 0.  0.
         13    1    3    3    0    0 -0.12841307722E+03 -0.19584687729E+03 -0.11019485415E+03  0.25882199215E+03  0.00000000000E+00 0.  1.
          3    1    3    3  501    0  0.13646323374E+03  0.16470841916E+03  0.62041226989E+02  0.22271100410E+03  0.00000000000E+00 0.  1.
         21    1    1    2  502  501 -0.80501565197E+01  0.31138458129E+02  0.15304578337E+02  0.35617954921E+02  0.00000000000E+00 0. -1.
<scales pt_clust_4="550.00000" pt_clust_5="550.00000" pt_clust_6="32.16222"></scales>
<mgrwt>
<rscale>  0 0.30000000E+03</rscale>
<asrwt>  1 0.32162223E+02</asrwt>
<pdfrwt beam="1">  1        1 0.88054891E+00 0.30000000E+03</pdfrwt>
<pdfrwt beam="2">0</pdfrwt>
<totfact> 0.19742254E-04</totfact>
</mgrwt>
<clustering>
<clus scale="   32.162">  1  6  2 -1</clus>
<clus scale="  478.039">  4  5 -1 -1</clus>
<clus scale="  300.000">  1  4  2 -1</clus>
</clustering>
</event>
<event>
 6    1  0.9480355E-012  0.3000000E+03  0.7818608E-02  0.1093470E+00
          1   -1    0    0  502    0  0.00000000000E+00  0.00000000000E+00  0.23603623747E+03  0.23603623747E+03  0.00000000000E+00 0.  1.
         13   -1    0    0    0    0 -0.00000000000E+00 -0.00000000000E+00 -0.27500000000E+03  0.27500000000E+03  0.00000000000E+00 0.  1.
    9000005    2    1    2  501    0 -0.31406614960E+01  0.36576377836E+02 -0.57641755285E+02  0.46984688710E+03  0.46485033096E+03 0.  0.
         13    1    3    3    0    0 -0.71151418378E+02  0.12014257371E+03 -0.22854011051E+03  0.26781961181E+03  0.00000000000E+00 0.  1.
          1    1    3    3  501    0  0.68010756882E+02 -0.83566195874E+02  0.17089835523E+03  0.20202727530E+03  0.00000000000E+00 0.  1.
         21    1    1    2  502  501  0.31406614960E+01 -0.36576377836E+02  0.18677992750E+02  0.41189350363E+02  0.00000000000E+00 0.  1.
<scales pt_clust_4="550.00000" pt_clust_5="550.00000" pt_clust_6="36.71097"></scales>
<mgrwt>
<rscale>  0 0.30000000E+03</rscale>
<asrwt>  1 0.36710968E+02</asrwt>
<pdfrwt beam="1">  1        1 0.85831359E+00 0.30000000E+03</pdfrwt>
<pdfrwt beam="2">0</pdfrwt>
<totfact> 0.33404318E-04</totfact>
</mgrwt>
<clustering>
<clus scale="   36.711">  1  6  2 -1</clus>
<clus scale="  464.850">  4  5 -1 -1</clus>
<clus scale="  300.000">  1  4  2 -1</clus>
</clustering>
</event>
<event>
 6    1  0.9480355E-012  0.3000000E+03  0.7818608E-02  0.1093470E+00
          1   -1    0    0  502    0  0.00000000000E+00  0.00000000000E+00  0.22801450435E+03  0.22801450435E+03  0.00000000000E+00 0.  1.
         13   -1    0    0    0    0 -0.00000000000E+00 -0.00000000000E+00 -0.27500000000E+03  0.27500000000E+03  0.00000000000E+00 0.  1.
    9000005    2    1    2  501    0 -0.31201909334E+02 -0.13774279714E+02 -0.53582101541E+02  0.46827540337E+03  0.46394775769E+03 0.  0.
         13    1    3    3    0    0 -0.11531037664E+03  0.14537894227E+03  0.11774808144E+03  0.21976380617E+03  0.00000000000E+00 0.  1.
          1    1    3    3  501    0  0.84108467309E+02 -0.15915322199E+03 -0.17133018298E+03  0.24851159720E+03  0.00000000000E+00 0.  1.
         21    1    1    2  502  501  0.31201909334E+02  0.13774279714E+02  0.65966058931E+01  0.34739100982E+02  0.00000000000E+00 0.  1.
<scales pt_clust_4="550.00000" pt_clust_5="550.00000" pt_clust_6="34.10704"></scales>
<mgrwt>
<rscale>  0 0.30000000E+03</rscale>
<asrwt>  1 0.34107036E+02</asrwt>
<pdfrwt beam="1">  1        1 0.82914365E+00 0.30000000E+03</pdfrwt>
<pdfrwt beam="2">0</pdfrwt>
<totfact> 0.60375675E-04</totfact>
</mgrwt>
<clustering>
<clus scale="   34.107">  1  6  2 -1</clus>
<clus scale="  463.948">  4  5 -1 -1</clus>
<clus scale="  300.000">  1  4  2 -1</clus>
</clustering>
</event>
<event>
 6    1  0.9480355E-012  0.3000000E+03  0.7818608E-02  0.1093470E+00
          1   -1    0    0  502    0  0.00000000000E+00  0.00000000000E+00  0.23929947350E+03  0.23929947350E+03  0.00000000000E+00 0.  1.
         13   -1    0    0    0    0 -0.00000000000E+00 -0.00000000000E+00 -0.27500000000E+03  0.27500000000E+03  0.00000000000E+00 0.  1.
    9000005    2    1    2  501    0 -0.35139731309E+02 -0.59120302105E+00 -0.34172697934E+02  0.47912157564E+03  0.47660734439E+03 0.  0.
         13    1    3    3    0    0 -0.11699608797E+03  0.48642106023E+01  0.19957733231E+03  0.23139329445E+03  0.00000000000E+00 0.  1.
          1    1    3    3  501    0  0.81856356663E+02 -0.54554136233E+01 -0.23375003024E+03  0.24772828119E+03  0.00000000000E+00 0.  1.
         21    1    1    2  502  501  0.35139731309E+02  0.59120302105E+00 -0.15278285676E+01  0.35177897857E+02  0.00000000000E+00 0.  1.
<scales pt_clust_4="550.00000" pt_clust_5="550.00000" pt_clust_6="35.14470"></scales>
<mgrwt>
<rscale>  0 0.30000000E+03</rscale>
<asrwt>  1 0.35144704E+02</asrwt>
<pdfrwt beam="1">  1        1 0.87017990E+00 0.30000000E+03</pdfrwt>
<pdfrwt beam="2">0</pdfrwt>
<totfact> 0.25198654E-04</totfact>
</mgrwt>
<clustering>
<clus scale="   35.145">  1  6  2 -1</clus>
<clus scale="  476.607">  4  5 -1 -1</clus>
<clus scale="  300.000">  1  4  2 -1</clus>
</clustering>
</event>
<event>
 6    1  0.9480355E-012  0.3000000E+03  0.7818608E-02  0.1093470E+00
          1   -1    0    0  502    0  0.00000000000E+00  0.00000000000E+00  0.23537181277E+03  0.23537181277E+03  0.00000000000E+00 0.  1.
         13   -1    0    0    0    0 -0.00000000000E+00 -0.00000000000E+00 -0.27500000000E+03  0.27500000000E+03  0.00000000000E+00 0.  1.
    9000005    2    1    2  501    0  0.26960380031E+02 -0.26656933779E+02 -0.43897064141E+02  0.47221847058E+03  0.46864259037E+03 0.  0.
         13    1    3    3    0    0  0.14560340464E+03  0.17121035650E+03  0.36915745980E+02  0.22776327605E+03  0.00000000000E+00 0.  1.
          1    1    3    3  501    0 -0.11864302461E+03 -0.19786729028E+03 -0.80812810121E+02  0.24445519453E+03  0.00000000000E+00 0.  1.
         21    1    1    2  502  501 -0.26960380031E+02  0.26656933779E+02  0.42688769098E+01  0.38153342187E+02  0.00000000000E+00 0.  1.
<scales pt_clust_4="550.00000" pt_clust_5="550.00000" pt_clust_6="37.91377"></scales>
<mgrwt>
<rscale>  0 0.30000000E+03</rscale>
<asrwt>  1 0.37913773E+02</asrwt>
<pdfrwt beam="1">  1        1 0.85589750E+00 0.30000000E+03</pdfrwt>
<pdfrwt beam="2">0</pdfrwt>
<totfact> 0.35162251E-04</totfact>
</mgrwt>
<clustering>
<clus scale="   37.914">  1  6  2 -1</clus>
<clus scale="  468.643">  4  5 -1 -1</clus>
<clus scale="  300.000">  1  4  2 -1</clus>
</clustering>
</event>
<event>
 6    1  0.9480355E-012  0.3000000E+03  0.7818608E-02  0.1093470E+00
          1   -1    0    0  502    0  0.00000000000E+00  0.00000000000E+00  0.24747418263E+03  0.24747418263E+03  0.00000000000E+00 0.  1.
         13   -1    0    0    0    0 -0.00000000000E+00 -0.00000000000E+00 -0.27500000000E+03  0.27500000000E+03  0.00000000000E+00 0.  1.
    9000005    2    1    2  501    0 -0.20983534625E+02  0.27490763537E+02 -0.24057472774E+02  0.48771673423E+03  0.48589381561E+03 0.  0.
         13    1    3    3    0    0  0.10734431860E+03  0.12952290468E+03  0.16626111920E+03  0.23652007384E+03  0.00000000000E+00 0.  1.
          1    1    3    3  501    0 -0.12832785323E+03 -0.10203214114E+03 -0.19031859197E+03  0.25119666039E+03  0.00000000000E+00 0.  1.
         21    1    1    2  502  501  0.20983534625E+02 -0.27490763537E+02 -0.34683445948E+01  0.34757448402E+02  0.00000000000E+00 0. -1.
<scales pt_clust_4="550.00000" pt_clust_5="550.00000" pt_clust_6="34.58398"></scales>
<mgrwt>
<rscale>  0 0.30000000E+03</rscale>
<asrwt>  1 0.34583985E+02</asrwt>
<pdfrwt beam="1">  1        1 0.89990612E+00 0.30000000E+03</pdfrwt>
<pdfrwt beam="2">0</pdfrwt>
<totfact> 0.11098988E-04</totfact>
</mgrwt>
<clustering>
<clus scale="   34.584">  1  6  2 -1</clus>
<clus scale="  485.894">  4  5 -1 -1</clus>
<clus scale="  300.000">  1  4  2 -1</clus>
</clustering>
</event>
<event>
 6    1  0.9480355E-012  0.3000000E+03  0.7818608E-02  0.1093470E+00
          1   -1    0    0  502    0  0.00000000000E+00  0.00000000000E+00  0.23591438669E+03  0.23591438669E+03  0.00000000000E+00 0.  1.
         13   -1    0    0    0    0 -0.00000000000E+00 -0.00000000000E+00 -0.27500000000E+03  0.27500000000E+03  0.00000000000E+00 0.  1.
    9000005    2    1    2  501    0 -0.28593580627E+02  0.11772505419E+02 -0.58817917701E+02  0.47423266681E+03  0.46955392671E+03 0.  0.
         13    1    3    3    0    0  0.20408647969E+03 -0.29638603604E+02  0.52777765541E+02  0.21287374322E+03  0.00000000000E+00 0.  1.
          3    1    3    3  501    0 -0.23268006032E+03  0.41411109023E+02 -0.11159568324E+03  0.26135892359E+03  0.00000000000E+00 0.  1.
         21    1    1    2  502  501  0.28593580627E+02 -0.11772505419E+02  0.19732304387E+02  0.36681719880E+02  0.00000000000E+00 0.  1.
<scales pt_clust_4="550.00000" pt_clust_5="550.00000" pt_clust_6="30.92224"></scales>
<mgrwt>
<rscale>  0 0.30000000E+03</rscale>
<asrwt>  1 0.30922237E+02</asrwt>
<pdfrwt beam="1">  1        1 0.85787050E+00 0.30000000E+03</pdfrwt>
<pdfrwt beam="2">0</pdfrwt>
<totfact> 0.34871423E-04</totfact>
</mgrwt>
<clustering>
<clus scale="   30.922">  1  6  2 -1</clus>
<clus scale="  469.554">  4  5 -1 -1</clus>
<clus scale="  300.000">  1  4  2 -1</clus>
</clustering>
</event>
<event>
 6    1  0.9480355E-012  0.3000000E+03  0.7818608E-02  0.1093470E+00
          1   -1    0    0  502    0  0.00000000000E+00  0.00000000000E+00  0.25140468506E+03  0.25140468506E+03  0.00000000000E+00 0.  1.
         13   -1    0    0    0    0 -0.00000000000E+00 -0.00000000000E+00 -0.27500000000E+03  0.27500000000E+03  0.00000000000E+00 0.  1.
    9000005    2    1    2  501    0  0.11026301802E+02 -0.50710085843E+02 -0.32561264938E+02  0.47374084170E+03  0.46976276671E+03 0.  0.
         13    1    3    3    0    0 -0.12049172710E+03 -0.11886415210E+03 -0.19210796136E+03  0.25603205223E+03  0.00000000000E+00 0.  1.
          1    1    3    3  501    0  0.13151802890E+03  0.68154066258E+02  0.15954669642E+03  0.21770878947E+03  0.00000000000E+00 0.  1.
         21    1    1    2  502  501 -0.11026301802E+02  0.50710085843E+02  0.89659499961E+01  0.52663843356E+02  0.00000000000E+00 0. -1.
<scales pt_clust_4="550.00000" pt_clust_5="550.00000" pt_clust_6="51.89501"></scales>
<mgrwt>
<rscale>  0 0.30000000E+03</rscale>
<asrwt>  1 0.51895011E+02</asrwt>
<pdfrwt beam="1">  1        1 0.91419885E+00 0.30000000E+03</pdfrwt>
<pdfrwt beam="2">0</pdfrwt>
<totfact> 0.52676903E-05</totfact>
</mgrwt>
<clustering>
<clus scale="   51.895">  1  6  2 -1</clus>
<clus scale="  469.763">  4  5 -1 -1</clus>
<clus scale="  300.000">  1  4  2 -1</clus>
</clustering>
</event>
<event>
 6    1  0.9480355E-012  0.3000000E+03  0.7818608E-02  0.1093470E+00
          1   -1    0    0  502    0  0.00000000000E+00  0.00000000000E+00  0.26160507769E+03  0.26160507769E+03  0.00000000000E+00 0.  1.
         13   -1    0    0    0    0 -0.00000000000E+00 -0.00000000000E+00 -0.27500000000E+03  0.27500000000E+03  0.00000000000E+00 0.  1.
    9000005    2    1    2  501    0  0.31333266308E+02  0.10559079147E+02 -0.66817340247E+02  0.47377815298E+03  0.46787595958E+03 0.  0.
         13    1    3    3    0    0  0.52528887730E+02  0.42934865603E+02 -0.26413150198E+03  0.27270522010E+03  0.00000000000E+00 0.  1.
          1    1    3    3  501    0 -0.21195621422E+02 -0.32375786457E+02  0.19731416174E+03  0.20107293288E+03  0.00000000000E+00 0.  1.
         21    1    1    2  502  501 -0.31333266308E+02 -0.10559079147E+02  0.53422417936E+02  0.62826924706E+02  0.00000000000E+00 0.  1.
<scales pt_clust_4="550.00000" pt_clust_5="550.00000" pt_clust_6="33.06460"></scales>
<mgrwt>
<rscale>  0 0.30000000E+03</rscale>
<asrwt>  1 0.33064599E+02</asrwt>
<pdfrwt beam="1">  1        1 0.95129119E+00 0.30000000E+03</pdfrwt>
<pdfrwt beam="2">0</pdfrwt>
<totfact> 0.11727916E-05</totfact>
</mgrwt>
<clustering>
<clus scale="   33.065">  1  6  2 -1</clus>
<clus scale="  467.876">  4  5 -1 -1</clus>
<clus scale="  300.000">  1  4  2 -1</clus>
</clustering>
</event>
<event>
 6    1  0.9480355E-012  0.3000000E+03  0.7818608E-02  0.1093470E+00
          1   -1    0    0  502    0  0.00000000000E+00  0.00000000000E+00  0.24817087580E+03  0.24817087580E+03  0.00000000000E+00 0.  1.
         13   -1    0    0    0    0 -0.00000000000E+00 -0.00000000000E+00 -0.27500000000E+03  0.27500000000E+03  0.00000000000E+00 0.  1.
    9000005    2    1    2  501    0 -0.40228980071E+01 -0.52199442698E+02 -0.34205159230E+02  0.47029960364E+03  0.46612311544E+03 0.  0.
         13    1    3    3    0    0  0.71831898496E+02  0.12276468644E+03  0.14890503055E+03  0.20592158217E+03  0.00000000000E+00 0.  1.
          3    1    3    3  501    0 -0.75854796503E+02 -0.17496412914E+03 -0.18311018978E+03  0.26437802148E+03  0.00000000000E+00 0.  1.
         21    1    1    2  502  501  0.40228980071E+01  0.52199442698E+02  0.73760350267E+01  0.52871272153E+02  0.00000000000E+00 0. -1.
<scales pt_clust_4="550.00000" pt_clust_5="550.00000" pt_clust_6="52.35423"></scales>
<mgrwt>
<rscale>  0 0.30000000E+03</rscale>
<asrwt>  1 0.52354231E+02</asrwt>
<pdfrwt beam="1">  1        1 0.90243955E+00 0.30000000E+03</pdfrwt>
<pdfrwt beam="2">0</pdfrwt>
<totfact> 0.95085680E-05</totfact>
</mgrwt>
<clustering>
<clus scale="   52.354">  1  6  2 -1</clus>
<clus scale="  466.123">  4  5 -1 -1</clus>
<clus scale="  300.000">  1  4  2 -1</clus>
</clustering>
</event>
<event>
 6    1  0.9480355E-012  0.3000000E+03  0.7818608E-02  0.1093470E+00
          1   -1    0    0  502    0  0.00000000000E+00  0.00000000000E+00  0.24195631236E+03  0.24195631236E+03  0.00000000000E+00 0.  1.
         13   -1    0    0    0    0 -0.00000000000E+00 -0.00000000000E+00 -0.27500000000E+03  0.27500000000E+03  0.00000000000E+00 0.  1.
    9000005    2    1    2  501    0  0.28516061594E+02  0.10151751981E+02 -0.28924917829E+02  0.48640818473E+03  0.48460297921E+03 0.  0.
         13    1    3    3    0    0  0.12679460787E+03 -0.20429796013E+03 -0.61722484869E+02  0.24824220881E+03  0.00000000000E+00 0.  1.
          3    1    3    3  501    0 -0.98278546275E+02  0.21444971211E+03  0.32797567040E+02  0.23816597592E+03  0.00000000000E+00 0.  1.
         21    1    1    2  502  501 -0.28516061594E+02 -0.10151751981E+02 -0.41187698084E+01  0.30548127633E+02  0.00000000000E+00 0.  1.
<scales pt_clust_4="550.00000" pt_clust_5="550.00000" pt_clust_6="30.26920"></scales>
<mgrwt>
<rscale>  0 0.30000000E+03</rscale>
<asrwt>  1 0.30269205E+02</asrwt>
<pdfrwt beam="1">  1        1 0.87984114E+00 0.30000000E+03</pdfrwt>
<pdfrwt beam="2">0</pdfrwt>
<totfact> 0.20380171E-04</totfact>
</mgrwt>
<clustering>
<clus scale="   30.269">  1  6  2 -1</clus>
<clus scale="  484.603">  4  5 -1 -1</clus>
<clus scale="  300.000">  1  4  2 -1</clus>
</clustering>
</event>
<event>
 6    1  0.9480355E-012  0.3000000E+03  0.7818608E-02  0.1093470E+00
          1   -1    0    0  502    0  0.00000000000E+00  0.00000000000E+00  0.24361203541E+03  0.24361203541E+03  0.00000000000E+00 0.  1.
         13   -1    0    0    0    0 -0.00000000000E+00 -0.00000000000E+00 -0.27500000000E+03  0.27500000000E+03  0.00000000000E+00 0.  1.
    9000005    2    1    2  501    0 -0.21936599841E+02  0.32543709661E+02 -0.69608783676E+02  0.46382938795E+03  0.45689387270E+03 0.  0.
         13    1    3    3    0    0  0.21105436706E+03 -0.21981148717E+02  0.77851048982E+01  0.21233870258E+03  0.00000000000E+00 0.  1.
          3    1    3    3  501    0 -0.23299096690E+03  0.54524858378E+02 -0.77393888575E+02  0.25149068537E+03  0.00000000000E+00 0.  1.
         21    1    1    2  502  501  0.21936599841E+02 -0.32543709661E+02  0.38220819082E+02  0.54782647456E+02  0.00000000000E+00 0.  1.
<scales pt_clust_4="550.00000" pt_clust_5="550.00000" pt_clust_6="39.24675"></scales>
<mgrwt>
<rscale>  0 0.30000000E+03</rscale>
<asrwt>  1 0.39246751E+02</asrwt>
<pdfrwt beam="1">  1        1 0.88586195E+00 0.30000000E+03</pdfrwt>
<pdfrwt beam="2">0</pdfrwt>
<totfact> 0.16167669E-04</totfact>
</mgrwt>
<clustering>
<clus scale="   39.247">  1  6  2 -1</clus>
<clus scale="  456.894">  4  5 -1 -1</clus>
<clus scale="  300.000">  1  4  2 -1</clus>
</clustering>
</event>
<event>
 6    1  0.9480355E-012  0.3000000E+03  0.7818608E-02  0.1093470E+00
          1   -1    0    0  502    0  0.00000000000E+00  0.00000000000E+00  0.22396078165E+03  0.22396078165E+03  0.00000000000E+00 0.  1.
         13   -1    0    0    0    0 -0.00000000000E+00 -0.00000000000E+00 -0.27500000000E+03  0.27500000000E+03  0.00000000000E+00 0.  1.
    9000005    2    1    2  501    0  0.32933488166E+02  0.98528922783E+01 -0.56520629857E+02  0.46415072562E+03  0.45941225535E+03 0.  0.
         13    1    3    3    0    0 -0.17432473407E+03  0.11415531431E+03 -0.94910131433E+02  0.22897266593E+03  0.00000000000E+00 0.  1.
          3    1    3    3  501    0  0.20725822224E+03 -0.10430242203E+03  0.38389501575E+02  0.23517805969E+03  0.00000000000E+00 0.  1.
         21    1    1    2  502  501 -0.32933488166E+02 -0.98528922783E+01  0.54814115094E+01  0.34810056035E+02  0.00000000000E+00 0. -1.
<scales pt_clust_4="550.00000" pt_clust_5="550.00000" pt_clust_6="34.37578"></scales>
<mgrwt>
<rscale>  0 0.30000000E+03</rscale>
<asrwt>  1 0.34375778E+02</asrwt>
<pdfrwt beam="1">  1        1 0.81440284E+00 0.30000000E+03</pdfrwt>
<pdfrwt beam="2">0</pdfrwt>
<totfact> 0.80763494E-04</totfact>
</mgrwt>
<clustering>
<clus scale="   34.376">  1  6  2 -1</clus>
<clus scale="  459.412">  4  5 -1 -1</clus>
<clus scale="  300.000">  1  4  2 -1</clus>
</clustering>
</event>
<event>
 6    1  0.9480355E-012  0.3000000E+03  0.7818608E-02  0.1093470E+00
          1   -1    0    0  502    0  0.00000000000E+00  0.00000000000E+00  0.24096638758E+03  0.24096638758E+03  0.00000000000E+00 0.  1.
         13   -1    0    0    0    0 -0.00000000000E+00 -0.00000000000E+00 -0.27500000000E+03  0.27500000000E+03  0.00000000000E+00 0.  1.
    9000005    2    1    2  501    0  0.51254702792E+02 -0.16657471656E+02 -0.21261275302E+02  0.46058003082E+03  0.45692166401E+03 0.  0.
         13    1    3    3    0    0  0.11322523974E+03 -0.16081091302E+03  0.13546084285E+03  0.23880901282E+03  0.00000000000E+00 0.  1.
          3    1    3    3  501    0 -0.61970536944E+02  0.14415344136E+03 -0.15672211815E+03  0.22177101800E+03  0.00000000000E+00 0.  1.
         21    1    1    2  502  501 -0.51254702792E+02  0.16657471656E+02 -0.12772337116E+02  0.55386356764E+02  0.00000000000E+00 0.  1.
<scales pt_clust_4="550.00000" pt_clust_5="550.00000" pt_clust_6="53.89359"></scales>
<mgrwt>
<rscale>  0 0.30000000E+03</rscale>
<asrwt>  1 0.53893588E+02</asrwt>
<pdfrwt beam="1">  1        1 0.87624141E+00 0.30000000E+03</pdfrwt>
<pdfrwt beam="2">0</pdfrwt>
<totfact> 0.20184271E-04</totfact>
</mgrwt>
<clustering>
<clus scale="   53.894">  1  6  2 -1</clus>
<clus scale="  456.922">  4  5 -1 -1</clus>
<clus scale="  300.000">  1  4  2 -1</clus>
</clustering>
</event>
<event>
 6    1  0.9480355E-012  0.3000000E+03  0.7818608E-02  0.1093470E+00
          1   -1    0    0  502    0  0.00000000000E+00  0.00000000000E+00  0.22407986524E+03  0.22407986524E+03  0.00000000000E+00 0.  1.
         13   -1    0    0    0    0 -0.00000000000E+00 -0.00000000000E+00 -0.27500000000E+03  0.27500000000E+03  0.00000000000E+00 0.  1.
    9000005    2    1    2  501    0  0.27318623647E+02 -0.18003538935E+02 -0.63410668653E+02  0.46405918493E+03  0.45854070660E+03 0.  0.
         13    1    3    3    0    0 -0.12543923632E+03 -0.13069395350E+03 -0.16822697100E+03  0.24721695990E+03  0.00000000000E+00 0.  1.
          1    1    3    3  501    0  0.15275785997E+03  0.11269041456E+03  0.10481630235E+03  0.21684222503E+03  0.00000000000E+00 0.  1.
         21    1    1    2  502  501 -0.27318623647E+02  0.18003538935E+02  0.12490533890E+02  0.35020680305E+02  0.00000000000E+00 0. -1.
<scales pt_clust_4="550.00000" pt_clust_5="550.00000" pt_clust_6="32.71750"></scales>
<mgrwt>
<rscale>  0 0.30000000E+03</rscale>
<asrwt>  1 0.32717497E+02</asrwt>
<pdfrwt beam="1">  1        1 0.81483587E+00 0.30000000E+03</pdfrwt>
<pdfrwt beam="2">0</pdfrwt>
<totfact> 0.80867421E-04</totfact>
</mgrwt>
<clustering>
<clus scale="   32.717">  1  6  2 -1</clus>
<clus scale="  458.541">  4  5 -1 -1</clus>
<clus scale="  300.000">  1  4  2 -1</clus>
</clustering>
</event>
<event>
 6    1  0.9480355E-012  0.3000000E+03  0.7818608E-02  0.1093470E+00
          1   -1    0    0  502    0  0.00000000000E+00  0.00000000000E+00  0.22761855315E+03  0.22761855315E+03  0.00000000000E+00 0.  1.
         13   -1    0    0    0    0 -0.00000000000E+00 -0.00000000000E+00 -0.27500000000E+03  0.27500000000E+03  0.00000000000E+00 0.  1.
    9000005    2    1    2  501    0 -0.22731904900E+02 -0.27303501311E+02 -0.65866914405E+02  0.46256941839E+03  0.45647540540E+03 0.  0.
         13    1    3    3    0    0  0.81370017544E+02  0.35848269342E+02 -0.23666320337E+03  0.25281544652E+03  0.00000000000E+00 0.  1.
          3    1    3    3  501    0 -0.10410192244E+03 -0.63151770653E+02  0.17079628896E+03  0.20975397187E+03  0.00000000000E+00 0.  1.
         21    1    1    2  502  501  0.22731904900E+02  0.27303501311E+02  0.18485467553E+02  0.40049134758E+02  0.00000000000E+00 0.  1.
<scales pt_clust_4="550.00000" pt_clust_5="550.00000" pt_clust_6="35.52775"></scales>
<mgrwt>
<rscale>  0 0.30000000E+03</rscale>
<asrwt>  1 0.35527745E+02</asrwt>
<pdfrwt beam="1">  1        1 0.82770383E+00 0.30000000E+03</pdfrwt>
<pdfrwt beam="2">0</pdfrwt>
<totfact> 0.61647036E-04</totfact>
</mgrwt>
<clustering>
<clus scale="   35.528">  1  6  2 -1</clus>
<clus scale="  456.475">  4  5 -1 -1</clus>
<clus scale="  300.000">  1  4  2 -1</clus>
</clustering>
</event>
<event>
 6    1  0.9480355E-012  0.3000000E+03  0.7818608E-02  0.1093470E+00
          1   -1    0    0  502    0  0.00000000000E+00  0.00000000000E+00  0.22638761397E+03  0.22638761397E+03  0.00000000000E+00 0.  1.
         13   -1    0    0    0    0 -0.00000000000E+00 -0.00000000000E+00 -0.27500000000E+03  0.27500000000E+03  0.00000000000E+00 0.  1.
    9000005    2    1    2  501    0 -0.20789648021E+02  0.27375807269E+02 -0.58243675964E+02  0.46568878998E+03  0.46075164572E+03 0.  0.
         13    1    3    3    0    0  0.87490699937E+02 -0.17171666199E+03 -0.12466038225E+03  0.22952438973E+03  0.00000000000E+00 0.  1.
          3    1    3    3  501    0 -0.10828034796E+03  0.19909246926E+03  0.66416706286E+02  0.23616440024E+03  0.00000000000E+00 0.  1.
         21    1    1    2  502  501  0.20789648021E+02 -0.27375807269E+02  0.96312899315E+01  0.35698823989E+02  0.00000000000E+00 0.  1.
<scales pt_clust_4="550.00000" pt_clust_5="550.00000" pt_clust_6="34.37505"></scales>
<mgrwt>
<rscale>  0 0.30000000E+03</rscale>
<asrwt>  1 0.34375053E+02</asrwt>
<pdfrwt beam="1">  1        1 0.82322769E+00 0.30000000E+03</pdfrwt>
<pdfrwt beam="2">0</pdfrwt>
<totfact> 0.67971307E-04</totfact>
</mgrwt>
<clustering>
<clus scale="   34.375">  1  6  2 -1</clus>
<clus scale="  460.752">  4  5 -1 -1</clus>
<clus scale="  300.000">  1  4  2 -1</clus>
</clustering>
</event>
<event>
 6    1  0.9480355E-012  0.3000000E+03  0.7818608E-02  0.1093470E+00
          1   -1    0    0  502    0  0.00000000000E+00  0.00000000000E+00  0.22834826837E+03  0.22834826837E+03  0.00000000000E+00 0.  1.
         13   -1    0    0    0    0 -0.00000000000E+00 -0.00000000000E+00 -0.27500000000E+03  0.27500000000E+03  0.00000000000E+00 0.  1.
    9000005    2    1    2  501    0 -0.12285743346E+02  0.37545102190E+02 -0.46404959971E+02  0.46384339419E+03  0.45982246556E+03 0.  0.
         13    1    3    3    0    0 -0.84825491798E+02  0.15464144063E+03  0.14479079676E+03  0.22819665652E+03  0.00000000000E+00 0.  1.
          3    1    3    3  501    0  0.72539748452E+02 -0.11709633844E+03 -0.19119575673E+03  0.23564673767E+03  0.00000000000E+00 0.  1.
         21    1    1    2  502  501  0.12285743346E+02 -0.37545102190E+02 -0.24677165555E+00  0.39504874183E+02  0.00000000000E+00 0.  1.
<scales pt_clust_4="550.00000" pt_clust_5="550.00000" pt_clust_6="39.50410"></scales>
<mgrwt>
<rscale>  0 0.30000000E+03</rscale>
<asrwt>  1 0.39504103E+02</asrwt>
<pdfrwt beam="1">  1        1 0.83035734E+00 0.30000000E+03</pdfrwt>
<pdfrwt beam="2">0</pdfrwt>
<totfact> 0.57403799E-04</totfact>
</mgrwt>
<clustering>
<clus scale="   39.504">  1  6  2 -1</clus>
<clus scale="  459.822">  4  5 -1 -1</clus>
<clus scale="  300.000">  1  4  2 -1</clus>
</clustering>
</event>
<event>
 6    1  0.9480355E-012  0.3000000E+03  0.7818608E-02  0.1093470E+00
          1   -1    0    0  502    0  0.00000000000E+00  0.00000000000E+00  0.23310028241E+03  0.23310028241E+03  0.00000000000E+00 0.  1.
         13   -1    0    0    0    0 -0.00000000000E+00 -0.00000000000E+00 -0.27500000000E+03  0.27500000000E+03  0.00000000000E+00 0.  1.
    9000005    2    1    2  501    0 -0.21102015385E+02  0.23784786327E+02 -0.67237993250E+02  0.46744269606E+03  0.46148750281E+03 0.  0.
         13    1    3    3    0    0  0.19702758187E+03 -0.65557591646E+01 -0.13276074350E+03  0.23767259205E+03  0.00000000000E+00 0.  1.
          3    1    3    3  501    0 -0.21812959726E+03  0.30340545491E+02  0.65522750250E+02  0.22977010402E+03  0.00000000000E+00 0.  1.
         21    1    1    2  502  501  0.21102015385E+02 -0.23784786327E+02  0.25338275656E+02  0.40657586342E+02  0.00000000000E+00 0.  1.
<scales pt_clust_4="550.00000" pt_clust_5="550.00000" pt_clust_6="31.79640"></scales>
<mgrwt>
<rscale>  0 0.30000000E+03</rscale>
<asrwt>  1 0.31796401E+02</asrwt>
<pdfrwt beam="1">  1        1 0.84763739E+00 0.30000000E+03</pdfrwt>
<pdfrwt beam="2">0</pdfrwt>
<totfact> 0.43580941E-04</totfact>
</mgrwt>
<clustering>
<clus scale="   31.796">  1  6  2 -1</clus>
<clus scale="  461.488">  4  5 -1 -1</clus>
<clus scale="  300.000">  1  4  2 -1</clus>
</clustering>
</event>
<event>
 6    1  0.9480355E-012  0.3000000E+03  0.7818608E-02  0.1093470E+00
          1   -1    0    0  502    0  0.00000000000E+00  0.00000000000E+00  0.24156749084E+03  0.24156749084E+03  0.00000000000E+00 0.  1.
         13   -1    0    0    0    0 -0.00000000000E+00 -0.00000000000E+00 -0.27500000000E+03  0.27500000000E+03  0.00000000000E+00 0.  1.
    9000005    2    1    2  501    0  0.45703970432E+01  0.32004313187E+02 -0.59825511318E+02  0.47483315061E+03  0.46993857526E+03 0.  0.
         13    1    3    3    0    0 -0.19735125706E+03 -0.87046935766E+02 -0.98736985747E+02  0.23722074118E+03  0.00000000000E+00 0.  1.
          3    1    3    3  501    0  0.20192165411E+03  0.11905124895E+03  0.38911474429E+02  0.23761240943E+03  0.00000000000E+00 0.  1.
         21    1    1    2  502  501 -0.45703970432E+01 -0.32004313187E+02  0.26393002161E+02  0.41734340234E+02  0.00000000000E+00 0. -1.
<scales pt_clust_4="550.00000" pt_clust_5="550.00000" pt_clust_6="32.32901"></scales>
<mgrwt>
<rscale>  0 0.30000000E+03</rscale>
<asrwt>  1 0.32329005E+02</asrwt>
<pdfrwt beam="1">  1        1 0.87842724E+00 0.30000000E+03</pdfrwt>
<pdfrwt beam="2">0</pdfrwt>
<totfact> 0.20924837E-04</totfact>
</mgrwt>
<clustering>
<clus scale="   32.329">  1  6  2 -1</clus>
<clus scale="  469.939">  4  5 -1 -1</clus>
<clus scale="  300.000">  1  4  2 -1</clus>
</clustering>
</event>
<event>
 6    1  0.9480355E-012  0.3000000E+03  0.7818608E-02  0.1093470E+00
          1   -1    0    0  502    0  0.00000000000E+00  0.00000000000E+00  0.22878389672E+03  0.22878389672E+03  0.00000000000E+00 0.  1.
         13   -1    0    0    0    0 -0.00000000000E+00 -0.00000000000E+00 -0.27500000000E+03  0.27500000000E+03  0.00000000000E+00 0.  1.
    9000005    2    1    2  501    0 -0.31279302546E+02  0.73474490449E+01 -0.58698285620E+02  0.46931384231E+03  0.46451869077E+03 0.  0.
         13    1    3    3    0    0  0.14154351153E+03  0.14360264373E+03 -0.12770504949E+03  0.23867313340E+03  0.00000000000E+00 0.  1.
          1    1    3    3  501    0 -0.17282281408E+03 -0.13625519469E+03  0.69006763872E+02  0.23064070891E+03  0.00000000000E+00 0.  1.
         21    1    1    2  502  501  0.31279302546E+02 -0.73474490449E+01  0.12482182344E+02  0.34470054414E+02  0.00000000000E+00 0. -1.
<scales pt_clust_4="550.00000" pt_clust_5="550.00000" pt_clust_6="32.13067"></scales>
<mgrwt>
<rscale>  0 0.30000000E+03</rscale>
<asrwt>  1 0.32130667E+02</asrwt>
<pdfrwt beam="1">  1        1 0.83194144E+00 0.30000000E+03</pdfrwt>
<pdfrwt beam="2">0</pdfrwt>
<totfact> 0.57955049E-04</totfact>
</mgrwt>
<clustering>
<clus scale="   32.131">  1  6  2 -1</clus>
<clus scale="  464.519">  4  5 -1 -1</clus>
<clus scale="  300.000">  1  4  2 -1</clus>
</clustering>
</event>
<event>
 6    1  0.9480355E-012  0.3000000E+03  0.7818608E-02  0.1093470E+00
          1   -1    0    0  502    0  0.00000000000E+00  0.00000000000E+00  0.23499719713E+03  0.23499719713E+03  0.00000000000E+00 0.  1.
         13   -1    0    0    0    0 -0.00000000000E+00 -0.00000000000E+00 -0.27500000000E+03  0.27500000000E+03  0.00000000000E+00 0.  1.
    9000005    2    1    2  501    0 -0.25488863879E+02 -0.19387747994E+02 -0.28112318239E+02  0.47583653879E+03  0.47392461664E+03 0.  0.
         13    1    3    3    0    0  0.17907770843E+03 -0.11203284615E+03  0.80914408731E+02  0.22620195802E+03  0.00000000000E+00 0.  1.
          1    1    3    3  501    0 -0.20456657231E+03  0.92645098153E+02 -0.10902672697E+03  0.24963458076E+03  0.00000000000E+00 0.  1.
         21    1    1    2  502  501  0.25488863879E+02  0.19387747994E+02 -0.11890484627E+02  0.34160658348E+02  0.00000000000E+00 0.  1.
<scales pt_clust_4="550.00000" pt_clust_5="550.00000" pt_clust_6="32.02449"></scales>
<mgrwt>
<rscale>  0 0.30000000E+03</rscale>
<asrwt>  1 0.32024490E+02</asrwt>
<pdfrwt beam="1">  1        1 0.85453526E+00 0.30000000E+03</pdfrwt>
<pdfrwt beam="2">0</pdfrwt>
<totfact> 0.37442548E-04</totfact>
</mgrwt>
<clustering>
<clus scale="   32.024">  1  6  2 -1</clus>
<clus scale="  473.925">  4  5 -1 -1</clus>
<clus scale="  300.000">  1  4  2 -1</clus>
</clustering>
</event>
<event>
 6    1  0.9480355E-012  0.3000000E+03  0.7818608E-02  0.1093470E+00
          1   -1    0    0  502    0  0.00000000000E+00  0.00000000000E+00  0.24781236750E+03  0.24781236750E+03  0.00000000000E+00 0.  1.
         13   -1    0    0    0    0 -0.00000000000E+00 -0.00000000000E+00 -0.27500000000E+03  0.27500000000E+03  0.00000000000E+00 0.  1.
    9000005    2    1    2  501    0 -0.29057019069E+02  0.17745548379E+02 -0.69022365302E+02  0.46887388668E+03  0.46251423746E+03 0.  0.
         13    1    3    3    0    0 -0.22472899856E+03  0.76956222153E+02 -0.10769577399E+03  0.26081365505E+03  0.00000000000E+00 0.  1.
          3    1    3    3  501    0  0.19567197949E+03 -0.59210673774E+02  0.38673408688E+02  0.20806023163E+03  0.00000000000E+00 0.  1.
         21    1    1    2  502  501  0.29057019069E+02 -0.17745548379E+02  0.41834732801E+02  0.53938480819E+02  0.00000000000E+00 0.  1.
<scales pt_clust_4="550.00000" pt_clust_5="550.00000" pt_clust_6="34.04724"></scales>
<mgrwt>
<rscale>  0 0.30000000E+03</rscale>
<asrwt>  1 0.34047244E+02</asrwt>
<pdfrwt beam="1">  1        1 0.90113588E+00 0.30000000E+03</pdfrwt>
<pdfrwt beam="2">0</pdfrwt>
<totfact> 0.10729354E-04</totfact>
</mgrwt>
<clustering>
<clus scale="   34.047">  1  6  2 -1</clus>
<clus scale="  462.514">  4  5 -1 -1</clus>
<clus scale="  300.000">  1  4  2 -1</clus>
</clustering>
</event>
<event>
 6    1  0.9480355E-012  0.3000000E+03  0.7818608E-02  0.1093470E+00
          1   -1    0    0  502    0  0.00000000000E+00  0.00000000000E+00  0.25043225917E+03  0.25043225917E+03  0.00000000000E+00 0.  1.
         13   -1    0    0    0    0 -0.00000000000E+00 -0.00000000000E+00 -0.27500000000E+03  0.27500000000E+03  0.00000000000E+00 0.  1.
    9000005    2    1    2  501    0  0.19101212772E+02  0.41049811065E+02 -0.44528396850E+02  0.47595124153E+03  0.47169573124E+03 0.  0.
         13    1    3    3    0    0 -0.13652474368E+03 -0.14975262311E+03 -0.96273627837E+02  0.22435120945E+03  0.00000000000E+00 0.  1.
          1    1    3    3  501    0  0.15562595645E+03  0.19080243418E+03  0.51745230987E+02  0.25160003208E+03  0.00000000000E+00 0.  1.
         21    1    1    2  502  501 -0.19101212772E+02 -0.41049811065E+02  0.19960656018E+02  0.49481017639E+02  0.00000000000E+00 0.  1.
<scales pt_clust_4="550.00000" pt_clust_5="550.00000" pt_clust_6="45.27630"></scales>
<mgrwt>
<rscale>  0 0.30000000E+03</rscale>
<asrwt>  1 0.45276300E+02</asrwt>
<pdfrwt beam="1">  1        1 0.91066276E+00 0.30000000E+03</pdfrwt>
<pdfrwt beam="2">0</pdfrwt>
<totfact> 0.66040463E-05</totfact>
</mgrwt>
<clustering>
<clus scale="   45.276">  1  6  2 -1</clus>
<clus scale="  471.696">  4  5 -1 -1</clus>
<clus scale="  300.000">  1  4  2 -1</clus>
</clustering>
</event>
<event>
 6    1  0.9480355E-012  0.3000000E+03  0.7818608E-02  0.1093470E+00
          1   -1    0    0  502    0  0.00000000000E+00  0.00000000000E+00  0.26333030436E+03  0.26333030436E+03  0.00000000000E+00 0.  1.
         13   -1    0    0    0    0 -0.00000000000E+00 -0.00000000000E+00 -0.27500000000E+03  0.27500000000E+03  0.00000000000E+00 0.  1.
    9000005    2    1    2  501    0 -0.59336189699E+01  0.29798148584E+02 -0.26650783468E+02  0.50445449462E+03  0.50283291001E+03 0.  0.
         13    1    3    3    0    0 -0.10598043170E+03  0.18619476120E+03 -0.16706087913E+03  0.27167936679E+03  0.00000000000E+00 0.  1.
          3    1    3    3  501    0  0.10004681273E+03 -0.15639661261E+03  0.14041009567E+03  0.23277512783E+03  0.00000000000E+00 0.  1.
         21    1    1    2  502  501  0.59336189699E+01 -0.29798148584E+02  0.14981087831E+02  0.33875809742E+02  0.00000000000E+00 0.  1.
<scales pt_clust_4="550.00000" pt_clust_5="550.00000" pt_clust_6="30.38318"></scales>
<mgrwt>
<rscale>  0 0.30000000E+03</rscale>
<asrwt>  1 0.30383178E+02</asrwt>
<pdfrwt beam="1">  1        1 0.95756474E+00 0.30000000E+03</pdfrwt>
<pdfrwt beam="2">0</pdfrwt>
<totfact> 0.87905505E-06</totfact>
</mgrwt>
<clustering>
<clus scale="   30.383">  1  6  2 -1</clus>
<clus scale="  502.833">  4  5 -1 -1</clus>
<clus scale="  300.000">  1  4  2 -1</clus>
</clustering>
</event>
<event>
 6    1  0.9480355E-012  0.3000000E+03  0.7818608E-02  0.1093470E+00
          1   -1    0    0  502    0  0.00000000000E+00  0.00000000000E+00  0.23094961107E+03  0.23094961107E+03  0.00000000000E+00 0.  1.
         13   -1    0    0    0    0 -0.00000000000E+00 -0.00000000000E+00 -0.27500000000E+03  0.27500000000E+03  0.00000000000E+00 0.  1.
    9000005    2    1    2  501    0 -0.88651039170E+01  0.35084129414E+02 -0.67765565028E+02  0.46268420016E+03  0.45626199827E+03 0.  0.
         13    1    3    3    0    0 -0.84854099322E+02  0.10059763436E+03 -0.23402823898E+03  0.26849454157E+03  0.00000000000E+00 0.  1.
          3    1    3    3  501    0  0.75988995405E+02 -0.65513504946E+02  0.16626267395E+03  0.19418965859E+03  0.00000000000E+00 0.  1.
         21    1    1    2  502  501  0.88651039170E+01 -0.35084129414E+02  0.23715176102E+02  0.43265410916E+02  0.00000000000E+00 0.  1.
<scales pt_clust_4="550.00000" pt_clust_5="550.00000" pt_clust_6="36.18682"></scales>
<mgrwt>
<rscale>  0 0.30000000E+03</rscale>
<asrwt>  1 0.36186824E+02</asrwt>
<pdfrwt beam="1">  1        1 0.83981677E+00 0.30000000E+03</pdfrwt>
<pdfrwt beam="2">0</pdfrwt>
<totfact> 0.49555871E-04</totfact>
</mgrwt>
<clustering>
<clus scale="   36.187">  1  6  2 -1</clus>
<clus scale="  456.262">  4  5 -1 -1</clus>
<clus scale="  300.000">  1  4  2 -1</clus>
</clustering>
</event>
<event>
 6    1  0.9480355E-012  0.3000000E+03  0.7818608E-02  0.1093470E+00
          1   -1    0    0  502    0  0.00000000000E+00  0.00000000000E+00  0.24315183323E+03  0.24315183323E+03  0.00000000000E+00 0.  1.
         13   -1    0    0    0    0 -0.00000000000E+00 -0.00000000000E+00 -0.27500000000E+03  0.27500000000E+03  0.00000000000E+00 0.  1.
    9000005    2    1    2  501    0  0.48643988200E+02 -0.14990450451E+02 -0.55144807712E+02  0.46217250962E+03  0.45603895408E+03 0.  0.
         13    1    3    3    0    0  0.96850311047E+02  0.49814921603E+02  0.18175211125E+03  0.21188520266E+03  0.00000000000E+00 0.  1.
          1    1    3    3  501    0 -0.48206322847E+02 -0.64805372054E+02 -0.23689691896E+03  0.25028730696E+03  0.00000000000E+00 0.  1.
         21    1    1    2  502  501 -0.48643988200E+02  0.14990450451E+02  0.23296640941E+02  0.55979323610E+02  0.00000000000E+00 0.  1.
<scales pt_clust_4="550.00000" pt_clust_5="550.00000" pt_clust_6="50.90139"></scales>
<mgrwt>
<rscale>  0 0.30000000E+03</rscale>
<asrwt>  1 0.50901387E+02</asrwt>
<pdfrwt beam="1">  1        1 0.88418848E+00 0.30000000E+03</pdfrwt>
<pdfrwt beam="2">0</pdfrwt>
<totfact> 0.16269124E-04</totfact>
</mgrwt>
<clustering>
<clus scale="   50.901">  1  6  2 -1</clus>
<clus scale="  456.039">  4  5 -1 -1</clus>
<clus scale="  300.000">  1  4  2 -1</clus>
</clustering>
</event>
<event>
 6    1  0.9480355E-012  0.3000000E+03  0.7818608E-02  0.1093470E+00
          1   -1    0    0  502    0  0.00000000000E+00  0.00000000000E+00  0.23419395387E+03  0.23419395387E+03  0.00000000000E+00 0.  1.
         13   -1    0    0    0    0 -0.00000000000E+00 -0.00000000000E+00 -0.27500000000E+03  0.27500000000E+03  0.00000000000E+00 0.  1.
    9000005    2    1    2  501    0  0.14622882921E+02 -0.30157346564E+02 -0.66965134023E+02  0.46667816697E+03  0.46063096736E+03 0.  0.
         13    1    3    3    0    0 -0.10629339781E+03 -0.72443075460E+02 -0.22747110561E+03  0.26132238612E+03  0.00000000000E+00 0.  1.
          1    1    3    3  501    0  0.12091628073E+03  0.42285728896E+02  0.16050597158E+03  0.20535578085E+03  0.00000000000E+00 0.  1.
         21    1    1    2  502  501 -0.14622882921E+02  0.30157346564E+02  0.26159087894E+02  0.42515786905E+02  0.00000000000E+00 0. -1.
<scales pt_clust_4="550.00000" pt_clust_5="550.00000" pt_clust_6="33.51558"></scales>
<mgrwt>
<rscale>  0 0.30000000E+03</rscale>
<asrwt>  1 0.33515582E+02</asrwt>
<pdfrwt beam="1">  1        1 0.85161438E+00 0.30000000E+03</pdfrwt>
<pdfrwt beam="2">0</pdfrwt>
<totfact> 0.39612808E-04</totfact>
</mgrwt>
<clustering>
<clus scale="   33.516">  1  6  2 -1</clus>
<clus scale="  460.631">  4  5 -1 -1</clus>
<clus scale="  300.000">  1  4  2 -1</clus>
</clustering>
</event>
<event>
 6    1  0.9480355E-012  0.3000000E+03  0.7818608E-02  0.1093470E+00
          1   -1    0    0  502    0  0.00000000000E+00  0.00000000000E+00  0.24291592270E+03  0.24291592270E+03  0.00000000000E+00 0.  1.
         13   -1    0    0    0    0 -0.00000000000E+00 -0.00000000000E+00 -0.27500000000E+03  0.27500000000E+03  0.00000000000E+00 0.  1.
    9000005    2    1    2  501    0 -0.53642714275E+01 -0.34792301657E+02 -0.65965022816E+02  0.46905696107E+03  0.46305914183E+03 0.  0.
         13    1    3    3    0    0  0.70633076066E+02 -0.22707574822E+03 -0.10274486196E+03  0.25905392011E+03  0.00000000000E+00 0.  1.
          3    1    3    3  501    0 -0.75997347493E+02  0.19228344656E+03  0.36779839148E+02  0.21000304096E+03  0.00000000000E+00 0.  1.
         21    1    1    2  502  501  0.53642714275E+01  0.34792301657E+02  0.33880945518E+02  0.48858961632E+02  0.00000000000E+00 0. -1.
<scales pt_clust_4="550.00000" pt_clust_5="550.00000" pt_clust_6="35.20340"></scales>
<mgrwt>
<rscale>  0 0.30000000E+03</rscale>
<asrwt>  1 0.35203404E+02</asrwt>
<pdfrwt beam="1">  1        1 0.88333063E+00 0.30000000E+03</pdfrwt>
<pdfrwt beam="2">0</pdfrwt>
<totfact> 0.17859370E-04</totfact>
</mgrwt>
<clustering>
<clus scale="   35.203">  1  6  2 -1</clus>
<clus scale="  463.059">  4  5 -1 -1</clus>
<clus scale="  300.000">  1  4  2 -1</clus>
</clustering>
</event>
<event>
 6    1  0.9480355E-012  0.3000000E+03  0.7818608E-02  0.1093470E+00
          1   -1    0    0  502    0  0.00000000000E+00  0.00000000000E+00  0.23092003731E+03  0.23092003731E+03  0.00000000000E+00 0.  1.
         13   -1    0    0    0    0 -0.00000000000E+00 -0.00000000000E+00 -0.27500000000E+03  0.27500000000E+03  0.00000000000E+00 0.  1.
    9000005    2    1    2  501    0  0.22596036458E+02 -0.30700427230E+02 -0.32626869067E+02  0.46611714233E+03  0.46340865409E+03 0.  0.
         13    1    3    3    0    0  0.15834926606E+03  0.21966278281E+02 -0.19226473385E+03  0.25004546651E+03  0.00000000000E+00 0.  1.
          3    1    3    3  501    0 -0.13575322960E+03 -0.52666705511E+02  0.15963786478E+03  0.21607167581E+03  0.00000000000E+00 0.  1.
         21    1    1    2  502  501 -0.22596036458E+02  0.30700427230E+02 -0.11453093622E+02  0.39802894986E+02  0.00000000000E+00 0. -1.
<scales pt_clust_4="550.00000" pt_clust_5="550.00000" pt_clust_6="38.11953"></scales>
<mgrwt>
<rscale>  0 0.30000000E+03</rscale>
<asrwt>  1 0.38119530E+02</asrwt>
<pdfrwt beam="1">  1        1 0.83970923E+00 0.30000000E+03</pdfrwt>
<pdfrwt beam="2">0</pdfrwt>
<totfact> 0.49173696E-04</totfact>
</mgrwt>
<clustering>
<clus scale="   38.120">  1  6  2 -1</clus>
<clus scale="  463.409">  4  5 -1 -1</clus>
<clus scale="  300.000">  1  4  2 -1</clus>
</clustering>
</event>
<event>
 6    1  0.9480355E-012  0.3000000E+03  0.7818608E-02  0.1093470E+00
          1   -1    0    0  502    0  0.00000000000E+00  0.00000000000E+00  0.23377653792E+03  0.23377653792E+03  0.00000000000E+00 0.  1.
         13   -1    0    0    0    0 -0.00000000000E+00 -0.00000000000E+00 -0.27500000000E+03  0.27500000000E+03  0.00000000000E+00 0.  1.
    9000005    2    1    2  501    0  0.53616340588E+01 -0.31151415523E+02 -0.60118729380E+02  0.47195006734E+03  0.46703687931E+03 0.  0.
         13    1    3    3    0    0 -0.22213334987E+02 -0.24417979157E+03 -0.75623708121E+02  0.25658555707E+03  0.00000000000E+00 0.  1.
          3    1    3    3  501    0  0.27574969046E+02  0.21302837605E+03  0.15504978742E+02  0.21536451028E+03  0.00000000000E+00 0.  1.
         21    1    1    2  502  501 -0.53616340588E+01  0.31151415523E+02  0.18895267298E+02  0.36826470577E+02  0.00000000000E+00 0.  1.
<scales pt_clust_4="550.00000" pt_clust_5="550.00000" pt_clust_6="31.60946"></scales>
<mgrwt>
<rscale>  0 0.30000000E+03</rscale>
<asrwt>  1 0.31609458E+02</asrwt>
<pdfrwt beam="1">  1        1 0.85009650E+00 0.30000000E+03</pdfrwt>
<pdfrwt beam="2">0</pdfrwt>
<totfact> 0.41402762E-04</totfact>
</mgrwt>
<clustering>
<clus scale="   31.609">  1  6  2 -1</clus>
<clus scale="  467.037">  4  5 -1 -1</clus>
<clus scale="  300.000">  1  4  2 -1</clus>
</clustering>
</event>
<event>
 6    1  0.9480355E-012  0.3000000E+03  0.7818608E-02  0.1093470E+00
          1   -1    0    0  502    0  0.00000000000E+00  0.00000000000E+00  0.23526201982E+03  0.23526201982E+03  0.00000000000E+00 0.  1.
         13   -1    0    0    0    0 -0.00000000000E+00 -0.00000000000E+00 -0.27500000000E+03  0.27500000000E+03  0.00000000000E+00 0.  1.
    9000005    2    1    2  501    0  0.17173213784E+02 -0.32036997451E+02 -0.69830842634E+02  0.46307230857E+03  0.45633137948E+03 0.  0.
         13    1    3    3    0    0 -0.13608327045E+02 -0.22055532332E+03  0.63745910894E+02  0.22998560469E+03  0.00000000000E+00 0.  1.
          3    1    3    3  501    0  0.30781540829E+02  0.18851832586E+03 -0.13357675353E+03  0.23308670388E+03  0.00000000000E+00 0.  1.
         21    1    1    2  502  501 -0.17173213784E+02  0.32036997451E+02  0.30092862454E+02  0.47189711252E+02  0.00000000000E+00 0.  1.
<scales pt_clust_4="550.00000" pt_clust_5="550.00000" pt_clust_6="36.34953"></scales>
<mgrwt>
<rscale>  0 0.30000000E+03</rscale>
<asrwt>  1 0.36349532E+02</asrwt>
<pdfrwt beam="1">  1        1 0.85549825E+00 0.30000000E+03</pdfrwt>
<pdfrwt beam="2">0</pdfrwt>
<totfact> 0.35766429E-04</totfact>
</mgrwt>
<clustering>
<clus scale="   36.350">  1  6  2 -1</clus>
<clus scale="  456.331">  4  5 -1 -1</clus>
<clus scale="  300.000">  1  4  2 -1</clus>
</clustering>
</event>
<event>
 6    1  0.9480355E-012  0.3000000E+03  0.7818608E-02  0.1093470E+00
          1   -1    0    0  502    0  0.00000000000E+00  0.00000000000E+00  0.23303575191E+03  0.23303575191E+03  0.00000000000E+00 0.  1.
         13   -1    0    0    0    0 -0.00000000000E+00 -0.00000000000E+00 -0.27500000000E+03  0.27500000000E+03  0.00000000000E+00 0.  1.
    9000005    2    1    2  501    0 -0.18598831512E+02 -0.24014956479E+02 -0.62916591379E+02  0.47113540831E+03  0.46592643285E+03 0.  0.
         13    1    3    3    0    0 -0.40440136496E+01  0.56962824418E+02 -0.25545212454E+03  0.26175734057E+03  0.00000000000E+00 0.  1.
          3    1    3    3  501    0 -0.14554817862E+02 -0.80977780898E+02  0.19253553316E+03  0.20937806774E+03  0.00000000000E+00 0.  1.
         21    1    1    2  502  501  0.18598831512E+02  0.24014956479E+02  0.20952343285E+02  0.36900343595E+02  0.00000000000E+00 0. -1.
<scales pt_clust_4="550.00000" pt_clust_5="550.00000" pt_clust_6="30.37490"></scales>
<mgrwt>
<rscale>  0 0.30000000E+03</rscale>
<asrwt>  1 0.30374902E+02</asrwt>
<pdfrwt beam="1">  1        1 0.84740273E+00 0.30000000E+03</pdfrwt>
<pdfrwt beam="2">0</pdfrwt>
<totfact> 0.44180408E-04</totfact>
</mgrwt>
<clustering>
<clus scale="   30.375">  1  6  2 -1</clus>
<clus scale="  465.926">  4  5 -1 -1</clus>
<clus scale="  300.000">  1  4  2 -1</clus>
</clustering>
</event>
<event>
 6    1  0.9480355E-012  0.3000000E+03  0.7818608E-02  0.1093470E+00
          1   -1    0    0  502    0  0.00000000000E+00  0.00000000000E+00  0.22389152616E+03  0.22389152616E+03  0.00000000000E+00 0.  1.
         13   -1    0    0    0    0 -0.00000000000E+00 -0.00000000000E+00 -0.27500000000E+03  0.27500000000E+03  0.00000000000E+00 0.  1.
    9000005    2    1    2  501    0 -0.29007495318E+02 -0.18064682806E+02 -0.58690019600E+02  0.46388799226E+03  0.45888972903E+03 0.  0.
         13    1    3    3    0    0  0.96503752506E+02  0.69454627461E+02 -0.21466346595E+03  0.24539218231E+03  0.00000000000E+00 0.  1.
          1    1    3    3  501    0 -0.12551124782E+03 -0.87519310267E+02  0.15597344635E+03  0.21849580995E+03  0.00000000000E+00 0.  1.
         21    1    1    2  502  501  0.29007495318E+02  0.18064682806E+02  0.75815457628E+01  0.35003533903E+02  0.00000000000E+00 0. -1.
<scales pt_clust_4="550.00000" pt_clust_5="550.00000" pt_clust_6="34.17261"></scales>
<mgrwt>
<rscale>  0 0.30000000E+03</rscale>
<asrwt>  1 0.34172614E+02</asrwt>
<pdfrwt beam="1">  1        1 0.81415100E+00 0.30000000E+03</pdfrwt>
<pdfrwt beam="2">0</pdfrwt>
<totfact> 0.81230985E-04</totfact>
</mgrwt>
<clustering>
<clus scale="   34.173">  1  6  2 -1</clus>
<clus scale="  458.890">  4  5 -1 -1</clus>
<clus scale="  300.000">  1  4  2 -1</clus>
</clustering>
</event>
<event>
 6    1  0.9480355E-012  0.3000000E+03  0.7818608E-02  0.1093470E+00
          1   -1    0    0  502    0  0.00000000000E+00  0.00000000000E+00  0.24225086219E+03  0.24225086219E+03  0.00000000000E+00 0.  1.
         13   -1    0    0    0    0 -0.00000000000E+00 -0.00000000000E+00 -0.27500000000E+03  0.27500000000E+03  0.00000000000E+00 0.  1.
    9000005    2    1    2  501    0  0.35463633314E+02 -0.14636133594E+02 -0.44789075823E+02  0.47704084103E+03  0.47338147091E+03 0.  0.
         13    1    3    3    0    0  0.12279318923E+03 -0.14844321179E+03  0.13595868983E+03  0.23579295958E+03  0.00000000000E+00 0.  1.
          1    1    3    3  501    0 -0.87329555920E+02  0.13380707820E+03 -0.18074776565E+03  0.24124788144E+03  0.00000000000E+00 0.  1.
         21    1    1    2  502  501 -0.35463633314E+02  0.14636133594E+02  0.12039938013E+02  0.40210021161E+02  0.00000000000E+00 0.  1.
<scales pt_clust_4="550.00000" pt_clust_5="550.00000" pt_clust_6="38.36516"></scales>
<mgrwt>
<rscale>  0 0.30000000E+03</rscale>
<asrwt>  1 0.38365163E+02</asrwt>
<pdfrwt beam="1">  1        1 0.88091223E+00 0.30000000E+03</pdfrwt>
<pdfrwt beam="2">0</pdfrwt>
<totfact> 0.18901757E-04</totfact>
</mgrwt>
<clustering>
<clus scale="   38.365">  1  6  2 -1</clus>
<clus scale="  473.381">  4  5 -1 -1</clus>
<clus scale="  300.000">  1  4  2 -1</clus>
</clustering>
</event>
<event>
 6    1  0.9480355E-012  0.3000000E+03  0.7818608E-02  0.1093470E+00
          1   -1    0    0  502    0  0.00000000000E+00  0.00000000000E+00  0.22580415239E+03  0.22580415239E+03  0.00000000000E+00 0.  1.
         13   -1    0    0    0    0 -0.00000000000E+00 -0.00000000000E+00 -0.27500000000E+03  0.27500000000E+03  0.00000000000E+00 0.  1.
    9000005    2    1    2  501    0 -0.35943493697E+02  0.68299423125E+01 -0.56745054083E+02  0.46344677869E+03  0.45850227117E+03 0.  0.
         13    1    3    3    0    0 -0.58316150959E+01 -0.95064126677E+02  0.18017123027E+03  0.20379614357E+03  0.00000000000E+00 0.  1.
          3    1    3    3  501    0 -0.30111878601E+02  0.10189406899E+03 -0.23691628435E+03  0.25965063512E+03  0.00000000000E+00 0.  1.
         21    1    1    2  502  501  0.35943493697E+02 -0.68299423125E+01  0.75492064699E+01  0.37357373696E+02  0.00000000000E+00 0. -1.
<scales pt_clust_4="550.00000" pt_clust_5="550.00000" pt_clust_6="36.58665"></scales>
<mgrwt>
<rscale>  0 0.30000000E+03</rscale>
<asrwt>  1 0.36586649E+02</asrwt>
<pdfrwt beam="1">  1        1 0.82110601E+00 0.30000000E+03</pdfrwt>
<pdfrwt beam="2">0</pdfrwt>
<totfact> 0.70158100E-04</totfact>
</mgrwt>
<clustering>
<clus scale="   36.587">  1  6  2 -1</clus>
<clus scale="  458.502">  4  5 -1 -1</clus>
<clus scale="  300.000">  1  4  2 -1</clus>
</clustering>
</event>
<event>
 6    1  0.9480355E-012  0.3000000E+03  0.7818608E-02  0.1093470E+00
          1   -1    0    0  502    0  0.00000000000E+00  0.00000000000E+00  0.22853951605E+03  0.22853951605E+03  0.00000000000E+00 0.  1.
         13   -1    0    0    0    0 -0.00000000000E+00 -0.00000000000E+00 -0.27500000000E+03  0.27500000000E+03  0.00000000000E+00 0.  1.
    9000005    2    1    2  501    0  0.83561649839E+01 -0.32244405727E+02 -0.59606872082E+02  0.46772953539E+03  0.46271850177E+03 0.  0.
         13    1    3    3    0    0  0.20369933351E+02 -0.15969840337E+03  0.15135170945E+03  0.22096573078E+03  0.00000000000E+00 0.  1.
          1    1    3    3  501    0 -0.12013768367E+02  0.12745399764E+03 -0.21095858153E+03  0.24676380461E+03  0.00000000000E+00 0.  1.
         21    1    1    2  502  501 -0.83561649839E+01  0.32244405727E+02  0.13146388132E+02  0.35809980660E+02  0.00000000000E+00 0. -1.
<scales pt_clust_4="550.00000" pt_clust_5="550.00000" pt_clust_6="33.30957"></scales>
<mgrwt>
<rscale>  0 0.30000000E+03</rscale>
<asrwt>  1 0.33309566E+02</asrwt>
<pdfrwt beam="1">  1        1 0.83105279E+00 0.30000000E+03</pdfrwt>
<pdfrwt beam="2">0</pdfrwt>
<totfact> 0.58493167E-04</totfact>
</mgrwt>
<clustering>
<clus scale="   33.310">  1  6  2 -1</clus>
<clus scale="  462.719">  4  5 -1 -1</clus>
<clus scale="  300.000">  1  4  2 -1</clus>
</clustering>
</event>
<event>
 6    1  0.9480355E-012  0.3000000E+03  0.7818608E-02  0.1093470E+00
          1   -1    0    0  502    0  0.00000000000E+00  0.00000000000E+00  0.24237835477E+03  0.24237835477E+03  0.00000000000E+00 0.  1.
         13   -1    0    0    0    0 -0.00000000000E+00 -0.00000000000E+00 -0.27500000000E+03  0.27500000000E+03  0.00000000000E+00 0.  1.
    9000005    2    1    2  501    0 -0.28569463508E+02 -0.26676277730E+02 -0.58961352191E+02  0.47024430973E+03  0.46489292503E+03 0.  0.
         13    1    3    3    0    0  0.59995263560E+02  0.52389150830E+02 -0.24049154687E+03  0.25333819075E+03  0.00000000000E+00 0.  1.
          3    1    3    3  501    0 -0.88564727068E+02 -0.79065428559E+02  0.18153019468E+03  0.21690611899E+03  0.00000000000E+00 0.  1.
         21    1    1    2  502  501  0.28569463508E+02  0.26676277730E+02  0.26339706957E+02  0.47134045034E+02  0.00000000000E+00 0.  1.
<scales pt_clust_4="550.00000" pt_clust_5="550.00000" pt_clust_6="39.08757"></scales>
<mgrwt>
<rscale>  0 0.30000000E+03</rscale>
<asrwt>  1 0.39087569E+02</asrwt>
<pdfrwt beam="1">  1        1 0.88137584E+00 0.30000000E+03</pdfrwt>
<pdfrwt beam="2">0</pdfrwt>
<totfact> 0.18582589E-04</totfact>
</mgrwt>
<clustering>
<clus scale="   39.088">  1  6  2 -1</clus>
<clus scale="  464.893">  4  5 -1 -1</clus>
<clus scale="  300.000">  1  4  2 -1</clus>
</clustering>
</event>
<event>
 6    1  0.9480355E-012  0.3000000E+03  0.7818608E-02  0.1093470E+00
          1   -1    0    0  502    0  0.00000000000E+00  0.00000000000E+00  0.24452524379E+03  0.24452524379E+03  0.00000000000E+00 0.  1.
         13   -1    0    0    0    0 -0.00000000000E+00 -0.00000000000E+00 -0.27500000000E+03  0.27500000000E+03  0.00000000000E+00 0.  1.
    9000005    2    1    2  501    0  0.18637682422E+02  0.28954671936E+02 -0.48505792179E+02  0.48065553205E+03  0.47696036772E+03 0.  0.
         13    1    3    3    0    0  0.69564174162E+02  0.20330456176E+03  0.10836567017E+03  0.24065543341E+03  0.00000000000E+00 0.  1.
          3    1    3    3  501    0 -0.50926491741E+02 -0.17434988983E+03 -0.15687146235E+03  0.24000009863E+03  0.00000000000E+00 0.  1.
         21    1    1    2  502  501 -0.18637682422E+02 -0.28954671936E+02  0.18031035969E+02  0.38869711744E+02  0.00000000000E+00 0.  1.
<scales pt_clust_4="550.00000" pt_clust_5="550.00000" pt_clust_6="34.43452"></scales>
<mgrwt>
<rscale>  0 0.30000000E+03</rscale>
<asrwt>  1 0.34434521E+02</asrwt>
<pdfrwt beam="1">  1        1 0.88918270E+00 0.30000000E+03</pdfrwt>
<pdfrwt beam="2">0</pdfrwt>
<totfact> 0.14911910E-04</totfact>
</mgrwt>
<clustering>
<clus scale="   34.435">  1  6  2 -1</clus>
<clus scale="  476.960">  4  5 -1 -1</clus>
<clus scale="  300.000">  1  4  2 -1</clus>
</clustering>
</event>
<event>
 6    1  0.9480355E-012  0.3000000E+03  0.7818608E-02  0.1093470E+00
          1   -1    0    0  502    0  0.00000000000E+00  0.00000000000E+00  0.22764813988E+03  0.22764813988E+03  0.00000000000E+00 0.  1.
         13   -1    0    0    0    0 -0.00000000000E+00 -0.00000000000E+00 -0.27500000000E+03  0.27500000000E+03  0.00000000000E+00 0.  1.
    9000005    2    1    2  501    0  0.31876025820E+02 -0.14706487478E+02 -0.56253174802E+02  0.46643218761E+03  0.46169492543E+03 0.  0.
         13    1    3    3    0    0 -0.95780478528E+01  0.22202358205E+03 -0.37473049873E+02  0.22536734336E+03  0.00000000000E+00 0.  1.
          1    1    3    3  501    0  0.41454073673E+02 -0.23673006952E+03 -0.18780124929E+02  0.24106484425E+03  0.00000000000E+00 0.  1.
         21    1    1    2  502  501 -0.31876025820E+02  0.14706487478E+02  0.89013146837E+01  0.36215952274E+02  0.00000000000E+00 0.  1.
<scales pt_clust_4="550.00000" pt_clust_5="550.00000" pt_clust_6="35.10501"></scales>
<mgrwt>
<rscale>  0 0.30000000E+03</rscale>
<asrwt>  1 0.35105011E+02</asrwt>
<pdfrwt beam="1">  1        1 0.82781142E+00 0.30000000E+03</pdfrwt>
<pdfrwt beam="2">0</pdfrwt>
<totfact> 0.61652005E-04</totfact>
</mgrwt>
<clustering>
<clus scale="   35.105">  1  6  2 -1</clus>
<clus scale="  461.695">  4  5 -1 -1</clus>
<clus scale="  300.000">  1  4  2 -1</clus>
</clustering>
</event>
<event>
 6    1  0.9480355E-012  0.3000000E+03  0.7818608E-02  0.1093470E+00
          1   -1    0    0  502    0  0.00000000000E+00  0.00000000000E+00  0.23347716389E+03  0.23347716389E+03  0.00000000000E+00 0.  1.
         13   -1    0    0    0    0 -0.00000000000E+00 -0.00000000000E+00 -0.27500000000E+03  0.27500000000E+03  0.00000000000E+00 0.  1.
    9000005    2    1    2  501    0 -0.43363140300E+02 -0.60073072017E+01 -0.42136242861E+02  0.46469559306E+03  0.46070606852E+03 0.  0.
         13    1    3    3    0    0  0.10191171560E+03  0.15417679647E+03  0.95831275220E+02  0.20818288992E+03  0.00000000000E+00 0.  1.
          3    1    3    3  501    0 -0.14527485590E+03 -0.16018410367E+03 -0.13796751808E+03  0.25651270314E+03  0.00000000000E+00 0.  1.
         21    1    1    2  502  501  0.43363140300E+02  0.60073072017E+01  0.61340675541E+00  0.43781570830E+02  0.00000000000E+00 0.  1.
<scales pt_clust_4="550.00000" pt_clust_5="550.00000" pt_clust_6="43.77727"></scales>
<mgrwt>
<rscale>  0 0.30000000E+03</rscale>
<asrwt>  1 0.43777274E+02</asrwt>
<pdfrwt beam="1">  1        1 0.84900787E+00 0.30000000E+03</pdfrwt>
<pdfrwt beam="2">0</pdfrwt>
<totfact> 0.39905157E-04</totfact>
</mgrwt>
<clustering>
<clus scale="   43.777">  1  6  2 -1</clus>
<clus scale="  460.706">  4  5 -1 -1</clus>
<clus scale="  300.000">  1  4  2 -1</clus>
</clustering>
</event>
<event>
 6    1  0.9480355E-012  0.3000000E+03  0.7818608E-02  0.1093470E+00
          1   -1    0    0  502    0  0.00000000000E+00  0.00000000000E+00  0.22573528921E+03  0.22573528921E+03  0.00000000000E+00 0.  1.
         13   -1    0    0    0    0 -0.00000000000E+00 -0.00000000000E+00 -0.27500000000E+03  0.27500000000E+03  0.00000000000E+00 0.  1.
    9000005    2    1    2  501    0 -0.35043557407E+02  0.56414391162E+01 -0.61377766885E+02  0.46323058445E+03  0.45777228766E+03 0.  0.
         13    1    3    3    0    0  0.19989789468E+03 -0.20523616255E+02 -0.98748454516E+02  0.22390097005E+03  0.00000000000E+00 0.  1.
          1    1    3    3  501    0 -0.23494145209E+03  0.26165055371E+02  0.37370687632E+02  0.23932961439E+03  0.00000000000E+00 0.  1.
         21    1    1    2  502  501  0.35043557407E+02 -0.56414391162E+01  0.12113056090E+02  0.37504704757E+02  0.00000000000E+00 0.  1.
<scales pt_clust_4="550.00000" pt_clust_5="550.00000" pt_clust_6="35.49474"></scales>
<mgrwt>
<rscale>  0 0.30000000E+03</rscale>
<asrwt>  1 0.35494743E+02</asrwt>
<pdfrwt beam="1">  1        1 0.82085560E+00 0.30000000E+03</pdfrwt>
<pdfrwt beam="2">0</pdfrwt>
<totfact> 0.70912469E-04</totfact>
</mgrwt>
<clustering>
<clus scale="   35.495">  1  6  2 -1</clus>
<clus scale="  457.772">  4  5 -1 -1</clus>
<clus scale="  300.000">  1  4  2 -1</clus>
</clustering>
</event>
<event>
 6    1  0.9480355E-012  0.3000000E+03  0.7818608E-02  0.1093470E+00
          1   -1    0    0  502    0  0.00000000000E+00  0.00000000000E+00  0.24324629801E+03  0.24324629801E+03  0.00000000000E+00 0.  1.
         13   -1    0    0    0    0 -0.00000000000E+00 -0.00000000000E+00 -0.27500000000E+03  0.27500000000E+03  0.00000000000E+00 0.  1.
    9000005    2    1    2  501    0  0.41046837348E+02  0.14999684829E+02 -0.63111168963E+02  0.46445852862E+03  0.45807081522E+03 0.  0.
         13    1    3    3    0    0 -0.20897911294E+03 -0.76175728841E+00 -0.40980545530E+02  0.21296068893E+03  0.00000000000E+00 0.  1.
          3    1    3    3  501    0  0.25002595028E+03  0.15761442117E+02 -0.22130623433E+02  0.25149783969E+03  0.00000000000E+00 0.  1.
         21    1    1    2  502  501 -0.41046837348E+02 -0.14999684829E+02  0.31357466971E+02  0.53787769391E+02  0.00000000000E+00 0.  1.
<scales pt_clust_4="550.00000" pt_clust_5="550.00000" pt_clust_6="43.70164"></scales>
<mgrwt>
<rscale>  0 0.30000000E+03</rscale>
<asrwt>  1 0.43701641E+02</asrwt>
<pdfrwt beam="1">  1        1 0.88453199E+00 0.30000000E+03</pdfrwt>
<pdfrwt beam="2">0</pdfrwt>
<totfact> 0.16535852E-04</totfact>
</mgrwt>
<clustering>
<clus scale="   43.702">  1  6  2 -1</clus>
<clus scale="  458.071">  4  5 -1 -1</clus>
<clus scale="  300.000">  1  4  2 -1</clus>
</clustering>
</event>
<event>
 6    1  0.9480355E-012  0.3000000E+03  0.7818608E-02  0.1093470E+00
          1   -1    0    0  502    0  0.00000000000E+00  0.00000000000E+00  0.25919946584E+03  0.25919946584E+03  0.00000000000E+00 0.  1.
         13   -1    0    0    0    0 -0.00000000000E+00 -0.00000000000E+00 -0.27500000000E+03  0.27500000000E+03  0.00000000000E+00 0.  1.
    9000005    2    1    2  501    0 -0.24204956207E+02 -0.23877815753E+02 -0.70244102825E+02  0.47001121022E+03  0.46348708047E+03 0.  0.
         13    1    3    3    0    0  0.20230323834E+03  0.67668303558E+02  0.80250785632E+01  0.21347131291E+03  0.00000000000E+00 0.  1.
          1    1    3    3  501    0 -0.22650819455E+03 -0.91546119312E+02 -0.78269181388E+02  0.25653989731E+03  0.00000000000E+00 0.  1.
         21    1    1    2  502  501  0.24204956207E+02  0.23877815753E+02  0.54443568661E+02  0.64188255614E+02  0.00000000000E+00 0. -1.
<scales pt_clust_4="550.00000" pt_clust_5="550.00000" pt_clust_6="34.00044"></scales>
<mgrwt>
<rscale>  0 0.30000000E+03</rscale>
<asrwt>  1 0.34000441E+02</asrwt>
<pdfrwt beam="1">  1        1 0.94254351E+00 0.30000000E+03</pdfrwt>
<pdfrwt beam="2">0</pdfrwt>
<totfact> 0.17382181E-05</totfact>
</mgrwt>
<clustering>
<clus scale="   34.000">  1  6  2 -1</clus>
<clus scale="  463.487">  4  5 -1 -1</clus>
<clus scale="  300.000">  1  4  2 -1</clus>
</clustering>
</event>
<event>
 6    1  0.9480355E-012  0.3000000E+03  0.7818608E-02  0.1093470E+00
          1   -1    0    0  502    0  0.00000000000E+00  0.00000000000E+00  0.22582701885E+03  0.22582701885E+03  0.00000000000E+00 0.  1.
         13   -1    0    0    0    0 -0.00000000000E+00 -0.00000000000E+00 -0.27500000000E+03  0.27500000000E+03  0.00000000000E+00 0.  1.
    9000005    2    1    2  501    0  0.18164965879E+02 -0.31588928039E+02 -0.53240782497E+02  0.46416132142E+03  0.45965565919E+03 0.  0.
         13    1    3    3    0    0  0.17427877663E+03  0.12812241664E+03  0.43727852586E+02  0.22068205800E+03  0.00000000000E+00 0.  1.
          3    1    3    3  501    0 -0.15611381075E+03 -0.15971134468E+03 -0.96968635083E+02  0.24347926342E+03  0.00000000000E+00 0.  1.
         21    1    1    2  502  501 -0.18164965879E+02  0.31588928039E+02  0.40678013460E+01  0.36665697428E+02  0.00000000000E+00 0. -1.
<scales pt_clust_4="550.00000" pt_clust_5="550.00000" pt_clust_6="36.43935"></scales>
<mgrwt>
<rscale>  0 0.30000000E+03</rscale>
<asrwt>  1 0.36439352E+02</asrwt>
<pdfrwt beam="1">  1        1 0.82118916E+00 0.30000000E+03</pdfrwt>
<pdfrwt beam="2">0</pdfrwt>
<totfact> 0.70092656E-04</totfact>
</mgrwt>
<clustering>
<clus scale="   36.439">  1  6  2 -1</clus>
<clus scale="  459.656">  4  5 -1 -1</clus>
<clus scale="  300.000">  1  4  2 -1</clus>
</clustering>
</event>
<event>
 6    1  0.9480355E-012  0.3000000E+03  0.7818608E-02  0.1093470E+00
          1   -1    0    0  502    0  0.00000000000E+00  0.00000000000E+00  0.23255954685E+03  0.23255954685E+03  0.00000000000E+00 0.  1.
         13   -1    0    0    0    0 -0.00000000000E+00 -0.00000000000E+00 -0.27500000000E+03  0.27500000000E+03  0.00000000000E+00 0.  1.
    9000005    2    1    2  501    0 -0.14557420693E+02  0.31195648311E+02 -0.65698601630E+02  0.46601404840E+03  0.46007358116E+03 0.  0.
         13    1    3    3    0    0  0.19508987735E+03  0.12043462714E+03 -0.64467110821E+02  0.23816080289E+03  0.00000000000E+00 0.  1.
          3    1    3    3  501    0 -0.20964729804E+03 -0.89238978830E+02 -0.12314908087E+01  0.22785324550E+03  0.00000000000E+00 0.  1.
         21    1    1    2  502  501  0.14557420693E+02 -0.31195648311E+02  0.23258148475E+02  0.41545498447E+02  0.00000000000E+00 0. -1.
<scales pt_clust_4="550.00000" pt_clust_5="550.00000" pt_clust_6="34.42509"></scales>
<mgrwt>
<rscale>  0 0.30000000E+03</rscale>
<asrwt>  1 0.34425092E+02</asrwt>
<pdfrwt beam="1">  1        1 0.84567108E+00 0.30000000E+03</pdfrwt>
<pdfrwt beam="2">0</pdfrwt>
<totfact> 0.44711611E-04</totfact>
</mgrwt>
<clustering>
<clus scale="   34.425">  1  6  2 -1</clus>
<clus scale="  460.074">  4  5 -1 -1</clus>
<clus scale="  300.000">  1  4  2 -1</clus>
</clustering>
</event>
<event>
 6    1  0.9480355E-012  0.3000000E+03  0.7818608E-02  0.1093470E+00
          1   -1    0    0  502    0  0.00000000000E+00  0.00000000000E+00  0.23803075020E+03  0.23803075020E+03  0.00000000000E+00 0.  1.
         13   -1    0    0    0    0 -0.00000000000E+00 -0.00000000000E+00 -0.27500000000E+03  0.27500000000E+03  0.00000000000E+00 0.  1.
    9000005    2    1    2  501    0 -0.23368531116E+02 -0.19677749152E+02 -0.59209976894E+02  0.47524249806E+03  0.47054894383E+03 0.  0.
         13    1    3    3    0    0 -0.22657246247E+03 -0.34638294169E+02  0.62926805834E+02  0.23768608513E+03  0.00000000000E+00 0.  1.
          3    1    3    3  501    0  0.20320393136E+03  0.14960545016E+02 -0.12213678273E+03  0.23755641292E+03  0.00000000000E+00 0.  1.
         21    1    1    2  502  501  0.23368531116E+02  0.19677749152E+02  0.22240727092E+02  0.37788252140E+02  0.00000000000E+00 0. -1.
<scales pt_clust_4="550.00000" pt_clust_5="550.00000" pt_clust_6="30.54999"></scales>
<mgrwt>
<rscale>  0 0.30000000E+03</rscale>
<asrwt>  1 0.30549993E+02</asrwt>
<pdfrwt beam="1">  1        1 0.86556636E+00 0.30000000E+03</pdfrwt>
<pdfrwt beam="2">0</pdfrwt>
<totfact> 0.28908036E-04</totfact>
</mgrwt>
<clustering>
<clus scale="   30.550">  1  6  2 -1</clus>
<clus scale="  470.549">  4  5 -1 -1</clus>
<clus scale="  300.000">  1  4  2 -1</clus>
</clustering>
</event>
<event>
 6    1  0.9480355E-012  0.3000000E+03  0.7818608E-02  0.1093470E+00
          1   -1    0    0  502    0  0.00000000000E+00  0.00000000000E+00  0.22037046375E+03  0.22037046375E+03  0.00000000000E+00 0.  1.
         13   -1    0    0    0    0 -0.00000000000E+00 -0.00000000000E+00 -0.27500000000E+03  0.27500000000E+03  0.00000000000E+00 0.  1.
    9000005    2    1    2  501    0  0.27747230795E+02  0.13660435230E+02 -0.43404194009E+02  0.46246872191E+03  0.45938750351E+03 0.  0.
         13    1    3    3    0    0  0.17902794930E+02 -0.22249799458E+03 -0.70716513128E+01  0.22332907538E+03  0.00000000000E+00 0.  1.
          3    1    3    3  501    0  0.98444358650E+01  0.23615842981E+03 -0.36332542696E+02  0.23913964654E+03  0.00000000000E+00 0.  1.
         21    1    1    2  502  501 -0.27747230795E+02 -0.13660435230E+02 -0.11225342241E+02  0.32901741837E+02  0.00000000000E+00 0.  1.
<scales pt_clust_4="550.00000" pt_clust_5="550.00000" pt_clust_6="30.92761"></scales>
<mgrwt>
<rscale>  0 0.30000000E+03</rscale>
<asrwt>  1 0.30927613E+02</asrwt>
<pdfrwt beam="1">  1        1 0.80134714E+00 0.30000000E+03</pdfrwt>
<pdfrwt beam="2">0</pdfrwt>
<totfact> 0.10380043E-03</totfact>
</mgrwt>
<clustering>
<clus scale="   30.928">  1  6  2 -1</clus>
<clus scale="  459.388">  4  5 -1 -1</clus>
<clus scale="  300.000">  1  4  2 -1</clus>
</clustering>
</event>
<event>
 6    1  0.9480355E-012  0.3000000E+03  0.7818608E-02  0.1093470E+00
          1   -1    0    0  502    0  0.00000000000E+00  0.00000000000E+00  0.22983183395E+03  0.22983183395E+03  0.00000000000E+00 0.  1.
         13   -1    0    0    0    0 -0.00000000000E+00 -0.00000000000E+00 -0.27500000000E+03  0.27500000000E+03  0.00000000000E+00 0.  1.
    9000005    2    1    2  501    0  0.31615146134E+02 -0.27659780363E+02 -0.45353430002E+02  0.46282451033E+03  0.45867746057E+03 0.  0.
         13    1    3    3    0    0  0.23021508073E+03 -0.73342147950E+02 -0.83228545781E+02  0.25554851769E+03  0.00000000000E+00 0.  1.
          3    1    3    3  501    0 -0.19859993460E+03  0.45682367587E+02  0.37875115779E+02  0.20727599264E+03  0.00000000000E+00 0.  1.
         21    1    1    2  502  501 -0.31615146134E+02  0.27659780363E+02  0.18526395152E+00  0.42007323617E+02  0.00000000000E+00 0.  1.
<scales pt_clust_4="550.00000" pt_clust_5="550.00000" pt_clust_6="42.00692"></scales>
<mgrwt>
<rscale>  0 0.30000000E+03</rscale>
<asrwt>  1 0.42006915E+02</asrwt>
<pdfrwt beam="1">  1        1 0.83575212E+00 0.30000000E+03</pdfrwt>
<pdfrwt beam="2">0</pdfrwt>
<totfact> 0.51658234E-04</totfact>
</mgrwt>
<clustering>
<clus scale="   42.007">  1  6  2 -1</clus>
<clus scale="  458.677">  4  5 -1 -1</clus>
<clus scale="  300.000">  1  4  2 -1</clus>
</clustering>
</event>
<event>
 6    1  0.9480355E-012  0.3000000E+03  0.7818608E-02  0.1093470E+00
          1   -1    0    0  502    0  0.00000000000E+00  0.00000000000E+00  0.23196112780E+03  0.23196112780E+03  0.00000000000E+00 0.  1.
         13   -1    0    0    0    0 -0.00000000000E+00 -0.00000000000E+00 -0.27500000000E+03  0.27500000000E+03  0.00000000000E+00 0.  1.
    9000005    2    1    2  501    0 -0.44952500122E+02  0.39352435759E+01 -0.43378016376E+02  0.46183543192E+03  0.45757414751E+03 0.  0.
         13    1    3    3    0    0 -0.21358169056E+03  0.51743300754E+02 -0.14110064237E+03  0.26115876205E+03  0.00000000000E+00 0.  1.
          1    1    3    3  501    0  0.16862919044E+03 -0.47808057178E+02  0.97722625995E+02  0.20067666987E+03  0.00000000000E+00 0.  1.
         21    1    1    2  502  501  0.44952500122E+02 -0.39352435759E+01  0.33914417205E+00  0.45125695873E+02  0.00000000000E+00 0. -1.
<scales pt_clust_4="550.00000" pt_clust_5="550.00000" pt_clust_6="45.12442"></scales>
<mgrwt>
<rscale>  0 0.30000000E+03</rscale>
<asrwt>  1 0.45124421E+02</asrwt>
<pdfrwt beam="1">  1        1 0.84349501E+00 0.30000000E+03</pdfrwt>
<pdfrwt beam="2">0</pdfrwt>
<totfact> 0.44441023E-04</totfact>
</mgrwt>
<clustering>
<clus scale="   45.124">  1  6  2 -1</clus>
<clus scale="  457.574">  4  5 -1 -1</clus>
<clus scale="  300.000">  1  4  2 -1</clus>
</clustering>
</event>
<event>
 6    1  0.9480355E-012  0.3000000E+03  0.7818608E-02  0.1093470E+00
          1   -1    0    0  502    0  0.00000000000E+00  0.00000000000E+00  0.23266647777E+03  0.23266647777E+03  0.00000000000E+00 0.  1.
         13   -1    0    0    0    0 -0.00000000000E+00 -0.00000000000E+00 -0.27500000000E+03  0.27500000000E+03  0.00000000000E+00 0.  1.
    9000005    2    1    2  501    0 -0.21868598536E+02 -0.21898959968E+02 -0.46725799339E+02  0.47640800455E+03  0.47309986940E+03 0.  0.
         13    1    3    3    0    0  0.33340879896E+02 -0.11252068192E+03 -0.23364831154E+03  0.26146520154E+03  0.00000000000E+00 0.  1.
          1    1    3    3  501    0 -0.55209478432E+02  0.90621721952E+02  0.18692251220E+03  0.21494280301E+03  0.00000000000E+00 0.  1.
         21    1    1    2  502  501  0.21868598536E+02  0.21898959968E+02  0.43922771101E+01  0.31258473217E+02  0.00000000000E+00 0.  1.
<scales pt_clust_4="550.00000" pt_clust_5="550.00000" pt_clust_6="30.94834"></scales>
<mgrwt>
<rscale>  0 0.30000000E+03</rscale>
<asrwt>  1 0.30948345E+02</asrwt>
<pdfrwt beam="1">  1        1 0.84605992E+00 0.30000000E+03</pdfrwt>
<pdfrwt beam="2">0</pdfrwt>
<totfact> 0.45262139E-04</totfact>
</mgrwt>
<clustering>
<clus scale="   30.948">  1  6  2 -1</clus>
<clus scale="  473.100">  4  5 -1 -1</clus>
<clus scale="  300.000">  1  4  2 -1</clus>
</clustering>
</event>
<event>
 6    1  0.9480355E-012  0.3000000E+03  0.7818608E-02  0.1093470E+00
          1   -1    0    0  502    0  0.00000000000E+00  0.00000000000E+00  0.26037806746E+03  0.26037806746E+03  0.00000000000E+00 0.  1.
         13   -1    0    0    0    0 -0.00000000000E+00 -0.00000000000E+00 -0.27500000000E+03  0.27500000000E+03  0.00000000000E+00 0.  1.
    9000005    2    1    2  501    0 -0.31323431903E+02  0.14934293233E+02  0.13073219281E+02  0.49097973488E+03  0.48957736927E+03 0.  0.
         13    1    3    3    0    0  0.11573123079E+03  0.14697080688E+02 -0.20032569016E+03  0.23181911936E+03  0.00000000000E+00 0.  1.
          1    1    3    3  501    0 -0.14705466270E+03  0.23721254450E+00  0.21339890944E+03  0.25916061553E+03  0.00000000000E+00 0.  1.
         21    1    1    2  502  501  0.31323431903E+02 -0.14934293233E+02 -0.27695151825E+02  0.44398332571E+02  0.00000000000E+00 0.  1.
<scales pt_clust_4="550.00000" pt_clust_5="550.00000" pt_clust_6="34.70147"></scales>
<mgrwt>
<rscale>  0 0.30000000E+03</rscale>
<asrwt>  1 0.34701465E+02</asrwt>
<pdfrwt beam="1">  1        1 0.94682934E+00 0.30000000E+03</pdfrwt>
<pdfrwt beam="2">0</pdfrwt>
<totfact> 0.14335779E-05</totfact>
</mgrwt>
<clustering>
<clus scale="   34.701">  1  6  2 -1</clus>
<clus scale="  489.577">  4  5 -1 -1</clus>
<clus scale="  300.000">  1  4  2 -1</clus>
</clustering>
</event>
<event>
 6    1  0.9480355E-012  0.3000000E+03  0.7818608E-02  0.1093470E+00
          1   -1    0    0  502    0  0.00000000000E+00  0.00000000000E+00  0.26398297241E+03  0.26398297241E+03  0.00000000000E+00 0.  1.
         13   -1    0    0    0    0 -0.00000000000E+00 -0.00000000000E+00 -0.27500000000E+03  0.27500000000E+03  0.00000000000E+00 0.  1.
    9000005    2    1    2  501    0  0.47745610977E+02  0.22958108878E+01 -0.24565545310E+02  0.48929920798E+03  0.48633870379E+03 0.  0.
         13    1    3    3    0    0  0.26010396112E+03 -0.18898605026E+02  0.45395441769E+02  0.26471111423E+03  0.00000000000E+00 0.  1.
          1    1    3    3  501    0 -0.21235835015E+03  0.21194415914E+02 -0.69960987079E+02  0.22458809375E+03  0.00000000000E+00 0.  1.
         21    1    1    2  502  501 -0.47745610977E+02 -0.22958108878E+01  0.13548517721E+02  0.49683764426E+02  0.00000000000E+00 0. -1.
<scales pt_clust_4="550.00000" pt_clust_5="550.00000" pt_clust_6="47.80078"></scales>
<mgrwt>
<rscale>  0 0.30000000E+03</rscale>
<asrwt>  1 0.47800775E+02</asrwt>
<pdfrwt beam="1">  1        1 0.95993808E+00 0.30000000E+03</pdfrwt>
<pdfrwt beam="2">0</pdfrwt>
<totfact> 0.71888655E-06</totfact>
</mgrwt>
<clustering>
<clus scale="   47.801">  1  6  2 -1</clus>
<clus scale="  486.339">  4  5 -1 -1</clus>
<clus scale="  300.000">  1  4  2 -1</clus>
</clustering>
</event>
<event>
 6    1  0.9480355E-012  0.3000000E+03  0.7818608E-02  0.1093470E+00
          1   -1    0    0  502    0  0.00000000000E+00  0.00000000000E+00  0.23889732242E+03  0.23889732242E+03  0.00000000000E+00 0.  1.
         13   -1    0    0    0    0 -0.00000000000E+00 -0.00000000000E+00 -0.27500000000E+03  0.27500000000E+03  0.00000000000E+00 0.  1.
    9000005    2    1    2  501    0 -0.15261150701E+02 -0.31403243133E+02 -0.30374284402E+02  0.47851539358E+03  0.47627231532E+03 0.  0.
         13    1    3    3    0    0  0.17164283493E+02  0.47379560986E+02  0.21392864357E+03  0.21978375728E+03  0.00000000000E+00 0.  1.
          3    1    3    3  501    0 -0.32425434194E+02 -0.78782804119E+02 -0.24430292797E+03  0.25873163630E+03  0.00000000000E+00 0.  1.
         21    1    1    2  502  501  0.15261150701E+02  0.31403243133E+02 -0.57283931796E+01  0.35381928840E+02  0.00000000000E+00 0. -1.
<scales pt_clust_4="550.00000" pt_clust_5="550.00000" pt_clust_6="34.91515"></scales>
<mgrwt>
<rscale>  0 0.30000000E+03</rscale>
<asrwt>  1 0.34915149E+02</asrwt>
<pdfrwt beam="1">  1        1 0.86871754E+00 0.30000000E+03</pdfrwt>
<pdfrwt beam="2">0</pdfrwt>
<totfact> 0.26116471E-04</totfact>
</mgrwt>
<clustering>
<clus scale="   34.915">  1  6  2 -1</clus>
<clus scale="  476.272">  4  5 -1 -1</clus>
<clus scale="  300.000">  1  4  2 -1</clus>
</clustering>
</event>
<event>
 6    1  0.9480355E-012  0.3000000E+03  0.7818608E-02  0.1093470E+00
          1   -1    0    0  502    0  0.00000000000E+00  0.00000000000E+00  0.23157153467E+03  0.23157153467E+03  0.00000000000E+00 0.  1.
         13   -1    0    0    0    0 -0.00000000000E+00 -0.00000000000E+00 -0.27500000000E+03  0.27500000000E+03  0.00000000000E+00 0.  1.
    9000005    2    1    2  501    0 -0.27849403153E+02 -0.30398225081E+02 -0.45754463526E+02  0.46527926407E+03  0.46118508356E+03 0.  0.
         13    1    3    3    0    0 -0.22365861711E+02 -0.21047749987E+03 -0.14786134700E+03  0.25819370182E+03  0.00000000000E+00 0.  1.
          1    1    3    3  501    0 -0.54835414411E+01  0.18007927479E+03  0.10210688348E+03  0.20708556225E+03  0.00000000000E+00 0.  1.
         21    1    1    2  502  501  0.27849403153E+02  0.30398225081E+02  0.23259981980E+01  0.41292270604E+02  0.00000000000E+00 0.  1.
<scales pt_clust_4="550.00000" pt_clust_5="550.00000" pt_clust_6="41.22671"></scales>
<mgrwt>
<rscale>  0 0.30000000E+03</rscale>
<asrwt>  1 0.41226707E+02</asrwt>
<pdfrwt beam="1">  1        1 0.84207831E+00 0.30000000E+03</pdfrwt>
<pdfrwt beam="2">0</pdfrwt>
<totfact> 0.46423404E-04</totfact>
</mgrwt>
<clustering>
<clus scale="   41.227">  1  6  2 -1</clus>
<clus scale="  461.185">  4  5 -1 -1</clus>
<clus scale="  300.000">  1  4  2 -1</clus>
</clustering>
</event>
<event>
 6    1  0.9480355E-012  0.3000000E+03  0.7818608E-02  0.1093470E+00
          1   -1    0    0  502    0  0.00000000000E+00  0.00000000000E+00  0.22860634521E+03  0.22860634521E+03  0.00000000000E+00 0.  1.
         13   -1    0    0    0    0 -0.00000000000E+00 -0.00000000000E+00 -0.27500000000E+03  0.27500000000E+03  0.00000000000E+00 0.  1.
    9000005    2    1    2  501    0  0.32802948725E+02 -0.55480670167E+01 -0.62233921570E+02  0.46675897699E+03  0.46139361408E+03 0.  0.
         13    1    3    3    0    0  0.18563800815E+03  0.14931317855E+03  0.72778245693E+01  0.23834609728E+03  0.00000000000E+00 0.  1.
          1    1    3    3  501    0 -0.15283505943E+03 -0.15486124556E+03 -0.69511746139E+02  0.22841287971E+03  0.00000000000E+00 0.  1.
         21    1    1    2  502  501 -0.32802948725E+02  0.55480670167E+01  0.15840266777E+02  0.36847368213E+02  0.00000000000E+00 0.  1.
<scales pt_clust_4="550.00000" pt_clust_5="550.00000" pt_clust_6="33.26882"></scales>
<mgrwt>
<rscale>  0 0.30000000E+03</rscale>
<asrwt>  1 0.33268822E+02</asrwt>
<pdfrwt beam="1">  1        1 0.83129580E+00 0.30000000E+03</pdfrwt>
<pdfrwt beam="2">0</pdfrwt>
<totfact> 0.58247668E-04</totfact>
</mgrwt>
<clustering>
<clus scale="   33.269">  1  6  2 -1</clus>
<clus scale="  461.394">  4  5 -1 -1</clus>
<clus scale="  300.000">  1  4  2 -1</clus>
</clustering>
</event>
<event>
 6    1  0.9480355E-012  0.3000000E+03  0.7818608E-02  0.1093470E+00
          1   -1    0    0  502    0  0.00000000000E+00  0.00000000000E+00  0.22846466617E+03  0.22846466617E+03  0.00000000000E+00 0.  1.
         13   -1    0    0    0    0 -0.00000000000E+00 -0.00000000000E+00 -0.27500000000E+03  0.27500000000E+03  0.00000000000E+00 0.  1.
    9000005    2    1    2  501    0 -0.41238094161E+02  0.49407788675E+01 -0.35354157102E+02  0.46045291871E+03  0.45721109153E+03 0.  0.
         13    1    3    3    0    0  0.19626894619E+03 -0.67545589832E+02 -0.43167702297E+02  0.21200791604E+03  0.00000000000E+00 0.  1.
          3    1    3    3  501    0 -0.23750704035E+03  0.72486368699E+02  0.78135451946E+01  0.24844500267E+03  0.00000000000E+00 0.  1.
         21    1    1    2  502  501  0.41238094161E+02 -0.49407788675E+01 -0.11181176733E+02  0.43011747453E+02  0.00000000000E+00 0. -1.
<scales pt_clust_4="550.00000" pt_clust_5="550.00000" pt_clust_6="41.53304"></scales>
<mgrwt>
<rscale>  0 0.30000000E+03</rscale>
<asrwt>  1 0.41533040E+02</asrwt>
<pdfrwt beam="1">  1        1 0.83078060E+00 0.30000000E+03</pdfrwt>
<pdfrwt beam="2">0</pdfrwt>
<totfact> 0.56436234E-04</totfact>
</mgrwt>
<clustering>
<clus scale="   41.533">  1  6  2 -1</clus>
<clus scale="  457.211">  4  5 -1 -1</clus>
<clus scale="  300.000">  1  4  2 -1</clus>
</clustering>
</event>
<event>
 6    1  0.9480355E-012  0.3000000E+03  0.7818608E-02  0.1093470E+00
          1   -1    0    0  502    0  0.00000000000E+00  0.00000000000E+00  0.23357028130E+03  0.23357028130E+03  0.00000000000E+00 0.  1.
         13   -1    0    0    0    0 -0.00000000000E+00 -0.00000000000E+00 -0.27500000000E+03  0.27500000000E+03  0.00000000000E+00 0.  1.
    9000005    2    1    2  501    0  0.40552112839E+02  0.15983017528E+02 -0.44766625966E+02  0.46485454438E+03  0.46063626206E+03 0.  0.
         13    1    3    3    0    0  0.15099661315E+03  0.19394921096E+03 -0.65512736366E+02  0.25437804984E+03  0.00000000000E+00 0.  1.
          3    1    3    3  501    0 -0.11044450031E+03 -0.17796619343E+03  0.20746110400E+02  0.21047649453E+03  0.00000000000E+00 0.  1.
         21    1    1    2  502  501 -0.40552112839E+02 -0.15983017528E+02  0.33369072689E+01  0.43715736927E+02  0.00000000000E+00 0.  1.
<scales pt_clust_4="550.00000" pt_clust_5="550.00000" pt_clust_6="43.58819"></scales>
<mgrwt>
<rscale>  0 0.30000000E+03</rscale>
<asrwt>  1 0.43588195E+02</asrwt>
<pdfrwt beam="1">  1        1 0.84934648E+00 0.30000000E+03</pdfrwt>
<pdfrwt beam="2">0</pdfrwt>
<totfact> 0.39647921E-04</totfact>
</mgrwt>
<clustering>
<clus scale="   43.588">  1  6  2 -1</clus>
<clus scale="  460.636">  4  5 -1 -1</clus>
<clus scale="  300.000">  1  4  2 -1</clus>
</clustering>
</event>
<event>
 6    1  0.9480355E-012  0.3000000E+03  0.7818608E-02  0.1093470E+00
          1   -1    0    0  502    0  0.00000000000E+00  0.00000000000E+00  0.25352099628E+03  0.25352099628E+03  0.00000000000E+00 0.  1.
         13   -1    0    0    0    0 -0.00000000000E+00 -0.00000000000E+00 -0.27500000000E+03  0.27500000000E+03  0.00000000000E+00 0.  1.
    9000005    2    1    2  501    0  0.22154988215E+02 -0.34432137653E+02 -0.23658382486E+02  0.48751898050E+03  0.48522017855E+03 0.  0.
         13    1    3    3    0    0  0.99946269256E+02 -0.23516381242E+03 -0.74809226755E+02  0.26624743345E+03  0.00000000000E+00 0.  1.
          3    1    3    3  501    0 -0.77791281040E+02  0.20073167477E+03  0.51150844269E+02  0.22127154705E+03  0.00000000000E+00 0.  1.
         21    1    1    2  502  501 -0.22154988215E+02  0.34432137653E+02  0.21793787610E+01  0.41002015779E+02  0.00000000000E+00 0. -1.
<scales pt_clust_4="550.00000" pt_clust_5="550.00000" pt_clust_6="40.94405"></scales>
<mgrwt>
<rscale>  0 0.30000000E+03</rscale>
<asrwt>  1 0.40944055E+02</asrwt>
<pdfrwt beam="1">  1        1 0.92189453E+00 0.30000000E+03</pdfrwt>
<pdfrwt beam="2">0</pdfrwt>
<totfact> 0.36983891E-05</totfact>
</mgrwt>
<clustering>
<clus scale="   40.944">  1  6  2 -1</clus>
<clus scale="  485.220">  4  5 -1 -1</clus>
<clus scale="  300.000">  1  4  2 -1</clus>
</clustering>
</event>
<event>
 6    1  0.9480355E-012  0.3000000E+03  0.7818608E-02  0.1093470E+00
          1   -1    0    0  502    0  0.00000000000E+00  0.00000000000E+00  0.26559295780E+03  0.26559295780E+03  0.00000000000E+00 0.  1.
         13   -1    0    0    0    0 -0.00000000000E+00 -0.00000000000E+00 -0.27500000000E+03  0.27500000000E+03  0.00000000000E+00 0.  1.
    9000005    2    1    2  501    0  0.10573967080E+02 -0.44382338414E+02 -0.25175029632E+02  0.49232050012E+03  0.48955499383E+03 0.  0.
         13    1    3    3    0    0 -0.10473304612E+03  0.15388872019E+03 -0.14274741938E+03  0.23457957049E+03  0.00000000000E+00 0.  1.
          1    1    3    3  501    0  0.11530701320E+03 -0.19827105861E+03  0.11757238975E+03  0.25774092963E+03  0.00000000000E+00 0.  1.
         21    1    1    2  502  501 -0.10573967080E+02  0.44382338414E+02  0.15767987435E+02  0.48272457682E+02  0.00000000000E+00 0.  1.
<scales pt_clust_4="550.00000" pt_clust_5="550.00000" pt_clust_6="45.62456"></scales>
<mgrwt>
<rscale>  0 0.30000000E+03</rscale>
<asrwt>  1 0.45624563E+02</asrwt>
<pdfrwt beam="1">  1        1 0.96579257E+00 0.30000000E+03</pdfrwt>
<pdfrwt beam="2">0</pdfrwt>
<totfact> 0.54878681E-06</totfact>
</mgrwt>
<clustering>
<clus scale="   45.625">  1  6  2 -1</clus>
<clus scale="  489.555">  4  5 -1 -1</clus>
<clus scale="  300.000">  1  4  2 -1</clus>
</clustering>
</event>
<event>
 6    1  0.9480355E-012  0.3000000E+03  0.7818608E-02  0.1093470E+00
          1   -1    0    0  502    0  0.00000000000E+00  0.00000000000E+00  0.24192797324E+03  0.24192797324E+03  0.00000000000E+00 0.  1.
         13   -1    0    0    0    0 -0.00000000000E+00 -0.00000000000E+00 -0.27500000000E+03  0.27500000000E+03  0.00000000000E+00 0.  1.
    9000005    2    1    2  501    0 -0.18491469937E+02  0.51912836224E+02 -0.33194250569E+02  0.46181997052E+03  0.45731712178E+03 0.  0.
         13    1    3    3    0    0  0.69590989065E+02  0.23105247447E+03 -0.84562728776E+02  0.25569318883E+03  0.00000000000E+00 0.  1.
          1    1    3    3  501    0 -0.88082459002E+02 -0.17913963825E+03  0.51368478207E+02  0.20612678168E+03  0.00000000000E+00 0.  1.
         21    1    1    2  502  501  0.18491469937E+02 -0.51912836224E+02  0.12222380690E+00  0.55108002721E+02  0.00000000000E+00 0. -1.
<scales pt_clust_4="550.00000" pt_clust_5="550.00000" pt_clust_6="55.10787"></scales>
<mgrwt>
<rscale>  0 0.30000000E+03</rscale>
<asrwt>  1 0.55107867E+02</asrwt>
<pdfrwt beam="1">  1        1 0.87973808E+00 0.30000000E+03</pdfrwt>
<pdfrwt beam="2">0</pdfrwt>
<totfact> 0.18328143E-04</totfact>
</mgrwt>
<clustering>
<clus scale="   55.108">  1  6  2 -1</clus>
<clus scale="  457.317">  4  5 -1 -1</clus>
<clus scale="  300.000">  1  4  2 -1</clus>
</clustering>
</event>
<event>
 6    1  0.9480355E-012  0.3000000E+03  0.7818608E-02  0.1093470E+00
          1   -1    0    0  502    0  0.00000000000E+00  0.00000000000E+00  0.21736970721E+03  0.21736970721E+03  0.00000000000E+00 0.  1.
         13   -1    0    0    0    0 -0.00000000000E+00 -0.00000000000E+00 -0.27500000000E+03  0.27500000000E+03  0.00000000000E+00 0.  1.
    9000005    2    1    2  501    0  0.29601460636E+02  0.84776301098E+01 -0.49555094401E+02  0.46053693301E+03  0.45682649070E+03 0.  0.
         13    1    3    3    0    0 -0.21110657257E+03  0.27928075937E+02  0.48114856128E+01  0.21300026479E+03  0.00000000000E+00 0.  1.
          1    1    3    3  501    0  0.24070803320E+03 -0.19450445827E+02 -0.54366580014E+02  0.24753666822E+03  0.00000000000E+00 0.  1.
         21    1    1    2  502  501 -0.29601460636E+02 -0.84776301098E+01 -0.80751983884E+01  0.31832774197E+02  0.00000000000E+00 0. -1.
<scales pt_clust_4="550.00000" pt_clust_5="550.00000" pt_clust_6="30.79152"></scales>
<mgrwt>
<rscale>  0 0.30000000E+03</rscale>
<asrwt>  1 0.30791519E+02</asrwt>
<pdfrwt beam="1">  1        1 0.79043530E+00 0.30000000E+03</pdfrwt>
<pdfrwt beam="2">0</pdfrwt>
<totfact> 0.12534533E-03</totfact>
</mgrwt>
<clustering>
<clus scale="   30.792">  1  6  2 -1</clus>
<clus scale="  456.826">  4  5 -1 -1</clus>
<clus scale="  300.000">  1  4  2 -1</clus>
</clustering>
</event>
<event>
 6    1  0.9480355E-012  0.3000000E+03  0.7818608E-02  0.1093470E+00
          1   -1    0    0  502    0  0.00000000000E+00  0.00000000000E+00  0.23126521841E+03  0.23126521841E+03  0.00000000000E+00 0.  1.
         13   -1    0    0    0    0 -0.00000000000E+00 -0.00000000000E+00 -0.27500000000E+03  0.27500000000E+03  0.00000000000E+00 0.  1.
    9000005    2    1    2  501    0 -0.12248105406E+02  0.31811544154E+02 -0.44494553365E+02  0.47216877167E+03  0.46883002595E+03 0.  0.
         13    1    3    3    0    0 -0.13616556710E+03  0.11529995697E+03  0.14566191357E+03  0.23033135871E+03  0.00000000000E+00 0.  1.
          3    1    3    3  501    0  0.12391746169E+03 -0.83488412816E+02 -0.19015646694E+03  0.24183741296E+03  0.00000000000E+00 0.  1.
         21    1    1    2  502  501  0.12248105406E+02 -0.31811544154E+02  0.75977177828E+00  0.34096446745E+02  0.00000000000E+00 0. -1.
<scales pt_clust_4="550.00000" pt_clust_5="550.00000" pt_clust_6="34.08798"></scales>
<mgrwt>
<rscale>  0 0.30000000E+03</rscale>
<asrwt>  1 0.34087981E+02</asrwt>
<pdfrwt beam="1">  1        1 0.84096443E+00 0.30000000E+03</pdfrwt>
<pdfrwt beam="2">0</pdfrwt>
<totfact> 0.49093574E-04</totfact>
</mgrwt>
<clustering>
<clus scale="   34.088">  1  6  2 -1</clus>
<clus scale="  468.830">  4  5 -1 -1</clus>
<clus scale="  300.000">  1  4  2 -1</clus>
</clustering>
</event>
<event>
 6    1  0.9480355E-012  0.3000000E+03  0.7818608E-02  0.1093470E+00
          1   -1    0    0  502    0  0.00000000000E+00  0.00000000000E+00  0.22929919517E+03  0.22929919517E+03  0.00000000000E+00 0.  1.
         13   -1    0    0    0    0 -0.00000000000E+00 -0.00000000000E+00 -0.27500000000E+03  0.27500000000E+03  0.00000000000E+00 0.  1.
    9000005    2    1    2  501    0  0.30117077166E+02 -0.28021375164E+02 -0.53475292512E+02  0.46243419234E+03  0.45748610857E+03 0.  0.
         13    1    3    3    0    0 -0.77857465845E+02 -0.18701147911E+03 -0.14544086234E+03  0.24937546540E+03  0.00000000000E+00 0.  1.
          1    1    3    3  501    0  0.10797454301E+03  0.15899010394E+03  0.91965569827E+02  0.21305872694E+03  0.00000000000E+00 0.  1.
         21    1    1    2  502  501 -0.30117077166E+02  0.28021375164E+02  0.77744876777E+01  0.41865002828E+02  0.00000000000E+00 0.  1.
<scales pt_clust_4="550.00000" pt_clust_5="550.00000" pt_clust_6="41.13679"></scales>
<mgrwt>
<rscale>  0 0.30000000E+03</rscale>
<asrwt>  1 0.41136794E+02</asrwt>
<pdfrwt beam="1">  1        1 0.83381526E+00 0.30000000E+03</pdfrwt>
<pdfrwt beam="2">0</pdfrwt>
<totfact> 0.53576304E-04</totfact>
</mgrwt>
<clustering>
<clus scale="   41.137">  1  6  2 -1</clus>
<clus scale="  457.486">  4  5 -1 -1</clus>
<clus scale="  300.000">  1  4  2 -1</clus>
</clustering>
</event>
<event>
 6    1  0.9480355E-012  0.3000000E+03  0.7818608E-02  0.1093470E+00
          1   -1    0    0  502    0  0.00000000000E+00  0.00000000000E+00  0.22309577409E+03  0.22309577409E+03  0.00000000000E+00 0.  1.
         13   -1    0    0    0    0 -0.00000000000E+00 -0.00000000000E+00 -0.27500000000E+03  0.27500000000E+03  0.00000000000E+00 0.  1.
    9000005    2    1    2  501    0  0.16282815833E+02  0.33463090242E+02 -0.48376410146E+02  0.46071457582E+03  0.45665384572E+03 0.  0.
         13    1    3    3    0    0  0.13473371373E+03  0.10012491368E+03  0.14671553469E+03  0.22294308708E+03  0.00000000000E+00 0.  1.
          1    1    3    3  501    0 -0.11845089790E+03 -0.66661823443E+02 -0.19509194484E+03  0.23777148874E+03  0.00000000000E+00 0.  1.
         21    1    1    2  502  501 -0.16282815833E+02 -0.33463090242E+02 -0.35278157642E+01  0.37381198269E+02  0.00000000000E+00 0. -1.
<scales pt_clust_4="550.00000" pt_clust_5="550.00000" pt_clust_6="37.21436"></scales>
<mgrwt>
<rscale>  0 0.30000000E+03</rscale>
<asrwt>  1 0.37214359E+02</asrwt>
<pdfrwt beam="1">  1        1 0.81125736E+00 0.30000000E+03</pdfrwt>
<pdfrwt beam="2">0</pdfrwt>
<totfact> 0.84292948E-04</totfact>
</mgrwt>
<clustering>
<clus scale="   37.214">  1  6  2 -1</clus>
<clus scale="  456.654">  4  5 -1 -1</clus>
<clus scale="  300.000">  1  4  2 -1</clus>
</clustering>
</event>
<event>
 6    1  0.9480355E-012  0.3000000E+03  0.7818608E-02  0.1093470E+00
          1   -1    0    0  502    0  0.00000000000E+00  0.00000000000E+00  0.25134280635E+03  0.25134280635E+03  0.00000000000E+00 0.  1.
         13   -1    0    0    0    0 -0.00000000000E+00 -0.00000000000E+00 -0.27500000000E+03  0.27500000000E+03  0.00000000000E+00 0.  1.
    9000005    2    1    2  501    0  0.31370101357E+02 -0.23466336367E+01 -0.52044157185E+02  0.48397053184E+03  0.48013465970E+03 0.  0.
         13    1    3    3    0    0 -0.47520033401E+02 -0.15688751053E+01  0.20740832058E+03  0.21278821957E+03  0.00000000000E+00 0.  1.
          3    1    3    3  501    0  0.78890134758E+02 -0.77775853134E+00 -0.25945247776E+03  0.27118231227E+03  0.00000000000E+00 0.  1.
         21    1    1    2  502  501 -0.31370101357E+02  0.23466336367E+01  0.28386963535E+02  0.42372274512E+02  0.00000000000E+00 0.  1.
<scales pt_clust_4="550.00000" pt_clust_5="550.00000" pt_clust_6="31.45775"></scales>
<mgrwt>
<rscale>  0 0.30000000E+03</rscale>
<asrwt>  1 0.31457749E+02</asrwt>
<pdfrwt beam="1">  1        1 0.91397384E+00 0.30000000E+03</pdfrwt>
<pdfrwt beam="2">0</pdfrwt>
<totfact> 0.58436573E-05</totfact>
</mgrwt>
<clustering>
<clus scale="   31.458">  1  6  2 -1</clus>
<clus scale="  480.135">  4  5 -1 -1</clus>
<clus scale="  300.000">  1  4  2 -1</clus>
</clustering>
</event>
<event>
 6    1  0.9480355E-012  0.3000000E+03  0.7818608E-02  0.1093470E+00
          1   -1    0    0  502    0  0.00000000000E+00  0.00000000000E+00  0.24933959239E+03  0.24933959239E+03  0.00000000000E+00 0.  1.
         13   -1    0    0    0    0 -0.00000000000E+00 -0.00000000000E+00 -0.27500000000E+03  0.27500000000E+03  0.00000000000E+00 0.  1.
    9000005    2    1    2  501    0 -0.24862818325E+01  0.41258865583E+02 -0.56324918226E+02  0.47287321698E+03  0.46768376852E+03 0.  0.
         13    1    3    3    0    0 -0.13006053302E+03 -0.16311064495E+03  0.41755674129E+02  0.21275422691E+03  0.00000000000E+00 0.  1.
          1    1    3    3  501    0  0.12757425119E+03  0.20436951053E+03 -0.98080592355E+02  0.26011899007E+03  0.00000000000E+00 0.  1.
         21    1    1    2  502  501  0.24862818325E+01 -0.41258865583E+02  0.30664510615E+02  0.51466375410E+02  0.00000000000E+00 0.  1.
<scales pt_clust_4="550.00000" pt_clust_5="550.00000" pt_clust_6="41.33371"></scales>
<mgrwt>
<rscale>  0 0.30000000E+03</rscale>
<asrwt>  1 0.41333710E+02</asrwt>
<pdfrwt beam="1">  1        1 0.90668943E+00 0.30000000E+03</pdfrwt>
<pdfrwt beam="2">0</pdfrwt>
<totfact> 0.82954966E-05</totfact>
</mgrwt>
<clustering>
<clus scale="   41.334">  1  6  2 -1</clus>
<clus scale="  467.684">  4  5 -1 -1</clus>
<clus scale="  300.000">  1  4  2 -1</clus>
</clustering>
</event>
<event>
 6    1  0.9480355E-012  0.3000000E+03  0.7818608E-02  0.1093470E+00
          1   -1    0    0  502    0  0.00000000000E+00  0.00000000000E+00  0.22175436399E+03  0.22175436399E+03  0.00000000000E+00 0.  1.
         13   -1    0    0    0    0 -0.00000000000E+00 -0.00000000000E+00 -0.27500000000E+03  0.27500000000E+03  0.00000000000E+00 0.  1.
    9000005    2    1    2  501    0 -0.30671335015E+02 -0.16695844465E+01 -0.41067115958E+02  0.46371144259E+03  0.46086687413E+03 0.  0.
         13    1    3    3    0    0 -0.15145920445E+03 -0.15470049419E+02  0.16496605103E+03  0.22448387700E+03  0.00000000000E+00 0.  1.
          3    1    3    3  501    0  0.12078786944E+03  0.13800464972E+02 -0.20603316699E+03  0.23922756558E+03  0.00000000000E+00 0.  1.
         21    1    1    2  502  501  0.30671335015E+02  0.16695844465E+01 -0.12178520056E+02  0.33042921399E+02  0.00000000000E+00 0.  1.
<scales pt_clust_4="550.00000" pt_clust_5="550.00000" pt_clust_6="30.71676"></scales>
<mgrwt>
<rscale>  0 0.30000000E+03</rscale>
<asrwt>  1 0.30716758E+02</asrwt>
<pdfrwt beam="1">  1        1 0.80637951E+00 0.30000000E+03</pdfrwt>
<pdfrwt beam="2">0</pdfrwt>
<totfact> 0.95341521E-04</totfact>
</mgrwt>
<clustering>
<clus scale="   30.717">  1  6  2 -1</clus>
<clus scale="  460.867">  4  5 -1 -1</clus>
<clus scale="  300.000">  1  4  2 -1</clus>
</clustering>
</event>
<event>
 6    1  0.9480355E-012  0.3000000E+03  0.7818608E-02  0.1093470E+00
          1   -1    0    0  502    0  0.00000000000E+00  0.00000000000E+00  0.22532169297E+03  0.22532169297E+03  0.00000000000E+00 0.  1.
         13   -1    0    0    0    0 -0.00000000000E+00 -0.00000000000E+00 -0.27500000000E+03  0.27500000000E+03  0.00000000000E+00 0.  1.
    9000005    2    1    2  501    0  0.22884174433E+02  0.23864893901E+02 -0.60218475285E+02  0.46561846910E+03  0.46052261117E+03 0.  0.
         13    1    3    3    0    0  0.17042324679E+03 -0.13835893940E+03 -0.10254966303E+03  0.24228849033E+03  0.00000000000E+00 0.  1.
          1    1    3    3  501    0 -0.14753907235E+03  0.16222383330E+03  0.42331187746E+02  0.22332997877E+03  0.00000000000E+00 0.  1.
         21    1    1    2  502  501 -0.22884174433E+02 -0.23864893901E+02  0.10540168254E+02  0.34703223874E+02  0.00000000000E+00 0. -1.
<scales pt_clust_4="550.00000" pt_clust_5="550.00000" pt_clust_6="33.06386"></scales>
<mgrwt>
<rscale>  0 0.30000000E+03</rscale>
<asrwt>  1 0.33063856E+02</asrwt>
<pdfrwt beam="1">  1        1 0.81935161E+00 0.30000000E+03</pdfrwt>
<pdfrwt beam="2">0</pdfrwt>
<totfact> 0.74053566E-04</totfact>
</mgrwt>
<clustering>
<clus scale="   33.064">  1  6  2 -1</clus>
<clus scale="  460.523">  4  5 -1 -1</clus>
<clus scale="  300.000">  1  4  2 -1</clus>
</clustering>
</event>
<event>
 6    1  0.9480355E-012  0.3000000E+03  0.7818608E-02  0.1093470E+00
          1   -1    0    0  502    0  0.00000000000E+00  0.00000000000E+00  0.23980646059E+03  0.23980646059E+03  0.00000000000E+00 0.  1.
         13   -1    0    0    0    0 -0.00000000000E+00 -0.00000000000E+00 -0.27500000000E+03  0.27500000000E+03  0.00000000000E+00 0.  1.
    9000005    2    1    2  501    0  0.24489824394E+02  0.24183345134E+02 -0.18375591073E+02  0.47649942381E+03  0.47489941341E+03 0.  0.
         13    1    3    3    0    0 -0.41337669651E+02 -0.20019583155E+03 -0.10162453905E+03  0.22828648852E+03  0.00000000000E+00 0.  1.
          3    1    3    3  501    0  0.65827494044E+02  0.22437917669E+03  0.83248947978E+02  0.24821293529E+03  0.00000000000E+00 0.  1.
         21    1    1    2  502  501 -0.24489824394E+02 -0.24183345134E+02 -0.16817948339E+02  0.38307036782E+02  0.00000000000E+00 0.  1.
<scales pt_clust_4="550.00000" pt_clust_5="550.00000" pt_clust_6="34.41783"></scales>
<mgrwt>
<rscale>  0 0.30000000E+03</rscale>
<asrwt>  1 0.34417828E+02</asrwt>
<pdfrwt beam="1">  1        1 0.87202349E+00 0.30000000E+03</pdfrwt>
<pdfrwt beam="2">0</pdfrwt>
<totfact> 0.24224418E-04</totfact>
</mgrwt>
<clustering>
<clus scale="   34.418">  1  6  2 -1</clus>
<clus scale="  474.899">  4  5 -1 -1</clus>
<clus scale="  300.000">  1  4  2 -1</clus>
</clustering>
</event>
<event>
 6    1  0.9480355E-012  0.3000000E+03  0.7818608E-02  0.1093470E+00
          1   -1    0    0  502    0  0.00000000000E+00  0.00000000000E+00  0.22461472713E+03  0.22461472713E+03  0.00000000000E+00 0.  1.
         13   -1    0    0    0    0 -0.00000000000E+00 -0.00000000000E+00 -0.27500000000E+03  0.27500000000E+03  0.00000000000E+00 0.  1.
    9000005    2    1    2  501    0 -0.15806474739E+02 -0.27470793428E+02 -0.69568166630E+02  0.46256783052E+03  0.45620694744E+03 0.  0.
         13    1    3    3    0    0 -0.18729700479E+03  0.10587422544E+03 -0.10994614000E+03  0.24161472082E+03  0.00000000000E+00 0.  1.
          3    1    3    3  501    0  0.17149053005E+03 -0.13334501886E+03  0.40377973371E+02  0.22095310970E+03  0.00000000000E+00 0.  1.
         21    1    1    2  502  501  0.15806474739E+02  0.27470793428E+02  0.19182893763E+02  0.37046896609E+02  0.00000000000E+00 0.  1.
<scales pt_clust_4="550.00000" pt_clust_5="550.00000" pt_clust_6="31.69368"></scales>
<mgrwt>
<rscale>  0 0.30000000E+03</rscale>
<asrwt>  1 0.31693677E+02</asrwt>
<pdfrwt beam="1">  1        1 0.81678083E+00 0.30000000E+03</pdfrwt>
<pdfrwt beam="2">0</pdfrwt>
<totfact> 0.78444471E-04</totfact>
</mgrwt>
<clustering>
<clus scale="   31.694">  1  6  2 -1</clus>
<clus scale="  456.207">  4  5 -1 -1</clus>
<clus scale="  300.000">  1  4  2 -1</clus>
</clustering>
</event>
<event>
 6    1  0.9480355E-012  0.3000000E+03  0.7818608E-02  0.1093470E+00
          1   -1    0    0  502    0  0.00000000000E+00  0.00000000000E+00  0.23233540999E+03  0.23233540999E+03  0.00000000000E+00 0.  1.
         13   -1    0    0    0    0 -0.00000000000E+00 -0.00000000000E+00 -0.27500000000E+03  0.27500000000E+03  0.00000000000E+00 0.  1.
    9000005    2    1    2  501    0  0.27264213111E+02 -0.26451848345E+02 -0.51272265412E+02  0.46838506117E+03  0.46401797673E+03 0.  0.
         13    1    3    3    0    0 -0.11611944752E+03  0.82181428885E+01  0.16783057628E+03  0.20425074370E+03  0.00000000000E+00 0.  1.
          1    1    3    3  501    0  0.14338366064E+03 -0.34669991234E+02 -0.21910284169E+03  0.26413431747E+03  0.00000000000E+00 0.  1.
         21    1    1    2  502  501 -0.27264213111E+02  0.26451848345E+02  0.86076753999E+01  0.38950348820E+02  0.00000000000E+00 0.  1.
<scales pt_clust_4="550.00000" pt_clust_5="550.00000" pt_clust_6="37.98733"></scales>
<mgrwt>
<rscale>  0 0.30000000E+03</rscale>
<asrwt>  1 0.37987335E+02</asrwt>
<pdfrwt beam="1">  1        1 0.84485604E+00 0.30000000E+03</pdfrwt>
<pdfrwt beam="2">0</pdfrwt>
<totfact> 0.44629484E-04</totfact>
</mgrwt>
<clustering>
<clus scale="   37.987">  1  6  2 -1</clus>
<clus scale="  464.018">  4  5 -1 -1</clus>
<clus scale="  300.000">  1  4  2 -1</clus>
</clustering>
</event>
<event>
 6    1  0.9480355E-012  0.3000000E+03  0.7818608E-02  0.1093470E+00
          1   -1    0    0  502    0  0.00000000000E+00  0.00000000000E+00  0.23073839798E+03  0.23073839798E+03  0.00000000000E+00 0.  1.
         13   -1    0    0    0    0 -0.00000000000E+00 -0.00000000000E+00 -0.27500000000E+03  0.27500000000E+03  0.00000000000E+00 0.  1.
    9000005    2    1    2  501    0 -0.25191464979E+02  0.29306506604E+02 -0.54304810862E+02  0.46580911948E+03  0.46101588050E+03 0.  0.
         13    1    3    3    0    0  0.18947656782E+03 -0.62049697838E+02  0.56933941602E+02  0.20734755475E+03  0.00000000000E+00 0.  1.
          3    1    3    3  501    0 -0.21466803280E+03  0.91356204442E+02 -0.11123875246E+03  0.25846156473E+03  0.00000000000E+00 0.  1.
         21    1    1    2  502  501  0.25191464979E+02 -0.29306506604E+02  0.10043208838E+02  0.39929278492E+02  0.00000000000E+00 0.  1.
<scales pt_clust_4="550.00000" pt_clust_5="550.00000" pt_clust_6="38.64558"></scales>
<mgrwt>
<rscale>  0 0.30000000E+03</rscale>
<asrwt>  1 0.38645585E+02</asrwt>
<pdfrwt beam="1">  1        1 0.83904872E+00 0.30000000E+03</pdfrwt>
<pdfrwt beam="2">0</pdfrwt>
<totfact> 0.49615766E-04</totfact>
</mgrwt>
<clustering>
<clus scale="   38.646">  1  6  2 -1</clus>
<clus scale="  461.016">  4  5 -1 -1</clus>
<clus scale="  300.000">  1  4  2 -1</clus>
</clustering>
</event>
<event>
 6    1  0.9480355E-012  0.3000000E+03  0.7818608E-02  0.1093470E+00
          1   -1    0    0  502    0  0.00000000000E+00  0.00000000000E+00  0.24508739700E+03  0.24508739700E+03  0.00000000000E+00 0.  1.
         13   -1    0    0    0    0 -0.00000000000E+00 -0.00000000000E+00 -0.27500000000E+03  0.27500000000E+03  0.00000000000E+00 0.  1.
    9000005    2    1    2  501    0  0.31383378541E+02  0.17760157019E+02 -0.50642255657E+02  0.47849342958E+03  0.47443754538E+03 0.  0.
         13    1    3    3    0    0 -0.20624671992E+03  0.44940357768E+02  0.53289478643E+02  0.21770878202E+03  0.00000000000E+00 0.  1.
          1    1    3    3  501    0  0.23763009846E+03 -0.27180200749E+02 -0.10393173430E+03  0.26078464756E+03  0.00000000000E+00 0.  1.
         21    1    1    2  502  501 -0.31383378541E+02 -0.17760157019E+02  0.20729652653E+02  0.41593967412E+02  0.00000000000E+00 0.  1.
<scales pt_clust_4="550.00000" pt_clust_5="550.00000" pt_clust_6="36.06022"></scales>
<mgrwt>
<rscale>  0 0.30000000E+03</rscale>
<asrwt>  1 0.36060222E+02</asrwt>
<pdfrwt beam="1">  1        1 0.89122690E+00 0.30000000E+03</pdfrwt>
<pdfrwt beam="2">0</pdfrwt>
<totfact> 0.13894232E-04</totfact>
</mgrwt>
<clustering>
<clus scale="   36.060">  1  6  2 -1</clus>
<clus scale="  474.438">  4  5 -1 -1</clus>
<clus scale="  300.000">  1  4  2 -1</clus>
</clustering>
</event>
<event>
 6    1  0.9480355E-012  0.3000000E+03  0.7818608E-02  0.1093470E+00
          1   -1    0    0  502    0  0.00000000000E+00  0.00000000000E+00  0.24651835402E+03  0.24651835402E+03  0.00000000000E+00 0.  1.
         13   -1    0    0    0    0 -0.00000000000E+00 -0.00000000000E+00 -0.27500000000E+03  0.27500000000E+03  0.00000000000E+00 0.  1.
    9000005    2    1    2  501    0 -0.23440052455E+01  0.30128873765E+02 -0.60012284554E+02  0.47784428203E+03  0.47309664994E+03 0.  0.
         13    1    3    3    0    0  0.26609848595E+02 -0.19692762011E+03  0.74648875181E+02  0.21227582569E+03  0.00000000000E+00 0.  1.
          1    1    3    3  501    0 -0.28953853841E+02  0.22705649388E+03 -0.13466115973E+03  0.26556845635E+03  0.00000000000E+00 0.  1.
         21    1    1    2  502  501  0.23440052455E+01 -0.30128873765E+02  0.31530638574E+02  0.43674071985E+02  0.00000000000E+00 0.  1.
<scales pt_clust_4="550.00000" pt_clust_5="550.00000" pt_clust_6="30.21992"></scales>
<mgrwt>
<rscale>  0 0.30000000E+03</rscale>
<asrwt>  1 0.30219917E+02</asrwt>
<pdfrwt beam="1">  1        1 0.89643038E+00 0.30000000E+03</pdfrwt>
<pdfrwt beam="2">0</pdfrwt>
<totfact> 0.12497390E-04</totfact>
</mgrwt>
<clustering>
<clus scale="   30.220">  1  6  2 -1</clus>
<clus scale="  473.097">  4  5 -1 -1</clus>
<clus scale="  300.000">  1  4  2 -1</clus>
</clustering>
</event>
<event>
 6    1  0.9480355E-012  0.3000000E+03  0.7818608E-02  0.1093470E+00
          1   -1    0    0  502    0  0.00000000000E+00  0.00000000000E+00  0.22712838645E+03  0.22712838645E+03  0.00000000000E+00 0.  1.
         13   -1    0    0    0    0 -0.00000000000E+00 -0.00000000000E+00 -0.27500000000E+03  0.27500000000E+03  0.00000000000E+00 0.  1.
    9000005    2    1    2  501    0 -0.37568846046E+02 -0.14026935809E+02 -0.52460418365E+02  0.46176466200E+03  0.45701896510E+03 0.  0.
         13    1    3    3    0    0 -0.22569219432E+03 -0.85053558054E+02 -0.89574600795E+02  0.25728327466E+03  0.00000000000E+00 0.  1.
          1    1    3    3  501    0  0.18812334827E+03  0.71026622245E+02  0.37114182431E+02  0.20448138734E+03  0.00000000000E+00 0.  1.
         21    1    1    2  502  501  0.37568846046E+02  0.14026935809E+02  0.45888048133E+01  0.40363724444E+02  0.00000000000E+00 0. -1.
<scales pt_clust_4="550.00000" pt_clust_5="550.00000" pt_clust_6="40.10203"></scales>
<mgrwt>
<rscale>  0 0.30000000E+03</rscale>
<asrwt>  1 0.40102034E+02</asrwt>
<pdfrwt beam="1">  1        1 0.82592141E+00 0.30000000E+03</pdfrwt>
<pdfrwt beam="2">0</pdfrwt>
<totfact> 0.62503463E-04</totfact>
</mgrwt>
<clustering>
<clus scale="   40.102">  1  6  2 -1</clus>
<clus scale="  457.019">  4  5 -1 -1</clus>
<clus scale="  300.000">  1  4  2 -1</clus>
</clustering>
</event>
<event>
 6    1  0.9480355E-012  0.3000000E+03  0.7818608E-02  0.1093470E+00
          1   -1    0    0  502    0  0.00000000000E+00  0.00000000000E+00  0.23552259548E+03  0.23552259548E+03  0.00000000000E+00 0.  1.
         13   -1    0    0    0    0 -0.00000000000E+00 -0.00000000000E+00 -0.27500000000E+03  0.27500000000E+03  0.00000000000E+00 0.  1.
    9000005    2    1    2  501    0  0.31981665800E+02 -0.14043949858E+02 -0.52423320680E+02  0.47327133751E+03  0.46906022522E+03 0.  0.
         13    1    3    3    0    0  0.11517120940E+03  0.17282782595E+03  0.87577570337E+02  0.22539675180E+03  0.00000000000E+00 0.  1.
          3    1    3    3  501    0 -0.83189543600E+02 -0.18687177580E+03 -0.14000089102E+03  0.24787458571E+03  0.00000000000E+00 0.  1.
         21    1    1    2  502  501 -0.31981665800E+02  0.14043949858E+02  0.12945916159E+02  0.37251257967E+02  0.00000000000E+00 0. -1.
<scales pt_clust_4="550.00000" pt_clust_5="550.00000" pt_clust_6="34.92935"></scales>
<mgrwt>
<rscale>  0 0.30000000E+03</rscale>
<asrwt>  1 0.34929350E+02</asrwt>
<pdfrwt beam="1">  1        1 0.85644580E+00 0.30000000E+03</pdfrwt>
<pdfrwt beam="2">0</pdfrwt>
<totfact> 0.35247826E-04</totfact>
</mgrwt>
<clustering>
<clus scale="   34.929">  1  6  2 -1</clus>
<clus scale="  469.060">  4  5 -1 -1</clus>
<clus scale="  300.000">  1  4  2 -1</clus>
</clustering>
</event>
<event>
 6    1  0.9480355E-012  0.3000000E+03  0.7818608E-02  0.1093470E+00
          1   -1    0    0  502    0  0.00000000000E+00  0.00000000000E+00  0.24487041927E+03  0.24487041927E+03  0.00000000000E+00 0.  1.
         13   -1    0    0    0    0 -0.00000000000E+00 -0.00000000000E+00 -0.27500000000E+03  0.27500000000E+03  0.00000000000E+00 0.  1.
    9000005    2    1    2  501    0  0.24230235699E+02  0.21832863087E+02 -0.53804933157E+02  0.47956780713E+03  0.47542247799E+03 0.  0.
         13    1    3    3    0    0 -0.12986283934E+03 -0.99006181331E+02  0.13173059345E+03  0.20980831784E+03  0.00000000000E+00 0.  1.
          3    1    3    3  501    0  0.15409307504E+03  0.12083904442E+03 -0.18553552661E+03  0.26975948929E+03  0.00000000000E+00 0.  1.
         21    1    1    2  502  501 -0.24230235699E+02 -0.21832863087E+02  0.23675352432E+02  0.40302612141E+02  0.00000000000E+00 0. -1.
<scales pt_clust_4="550.00000" pt_clust_5="550.00000" pt_clust_6="32.61561"></scales>
<mgrwt>
<rscale>  0 0.30000000E+03</rscale>
<asrwt>  1 0.32615613E+02</asrwt>
<pdfrwt beam="1">  1        1 0.89043789E+00 0.30000000E+03</pdfrwt>
<pdfrwt beam="2">0</pdfrwt>
<totfact> 0.14494848E-04</totfact>
</mgrwt>
<clustering>
<clus scale="   32.616">  1  6  2 -1</clus>
<clus scale="  475.422">  4  5 -1 -1</clus>
<clus scale="  300.000">  1  4  2 -1</clus>
</clustering>
</event>
<event>
 6    1  0.9480355E-012  0.3000000E+03  0.7818608E-02  0.1093470E+00
          1   -1    0    0  502    0  0.00000000000E+00  0.00000000000E+00  0.23438378691E+03  0.23438378691E+03  0.00000000000E+00 0.  1.
         13   -1    0    0    0    0 -0.00000000000E+00 -0.00000000000E+00 -0.27500000000E+03  0.27500000000E+03  0.00000000000E+00 0.  1.
    9000005    2    1    2  501    0 -0.21098253894E+01 -0.33809988621E+02 -0.26088666646E+02  0.47252437428E+03  0.47058591040E+03 0.  0.
         13    1    3    3    0    0 -0.14027771741E+03  0.17169657068E+03  0.11693976497E+02  0.22202319579E+03  0.00000000000E+00 0.  1.
          1    1    3    3  501    0  0.13816789202E+03 -0.20550655930E+03 -0.37782643143E+02  0.25050117849E+03  0.00000000000E+00 0.  1.
         21    1    1    2  502  501  0.21098253894E+01  0.33809988621E+02 -0.14527546444E+02  0.36859412630E+02  0.00000000000E+00 0.  1.
<scales pt_clust_4="550.00000" pt_clust_5="550.00000" pt_clust_6="33.87577"></scales>
<mgrwt>
<rscale>  0 0.30000000E+03</rscale>
<asrwt>  1 0.33875771E+02</asrwt>
<pdfrwt beam="1">  1        1 0.85230468E+00 0.30000000E+03</pdfrwt>
<pdfrwt beam="2">0</pdfrwt>
<totfact> 0.38936315E-04</totfact>
</mgrwt>
<clustering>
<clus scale="   33.876">  1  6  2 -1</clus>
<clus scale="  470.586">  4  5 -1 -1</clus>
<clus scale="  300.000">  1  4  2 -1</clus>
</clustering>
</event>
<event>
 6    1  0.9480355E-012  0.3000000E+03  0.7818608E-02  0.1093470E+00
          1   -1    0    0  502    0  0.00000000000E+00  0.00000000000E+00  0.22934322684E+03  0.22934322684E+03  0.00000000000E+00 0.  1.
         13   -1    0    0    0    0 -0.00000000000E+00 -0.00000000000E+00 -0.27500000000E+03  0.27500000000E+03  0.00000000000E+00 0.  1.
    9000005    2    1    2  501    0 -0.30308757196E+02  0.30668428954E+01 -0.68786217882E+02  0.46609407650E+03  0.45998273673E+03 0.  0.
         13    1    3    3    0    0 -0.33681399847E+02  0.17380612983E+03  0.11819173059E+03  0.21286684251E+03  0.00000000000E+00 0.  1.
          3    1    3    3  501    0  0.33726426501E+01 -0.17073928694E+03 -0.18697794847E+03  0.25322723399E+03  0.00000000000E+00 0.  1.
         21    1    1    2  502  501  0.30308757196E+02 -0.30668428954E+01  0.23129444718E+02  0.38249150332E+02  0.00000000000E+00 0.  1.
<scales pt_clust_4="550.00000" pt_clust_5="550.00000" pt_clust_6="30.46352"></scales>
<mgrwt>
<rscale>  0 0.30000000E+03</rscale>
<asrwt>  1 0.30463524E+02</asrwt>
<pdfrwt beam="1">  1        1 0.83397537E+00 0.30000000E+03</pdfrwt>
<pdfrwt beam="2">0</pdfrwt>
<totfact> 0.56511846E-04</totfact>
</mgrwt>
<clustering>
<clus scale="   30.464">  1  6  2 -1</clus>
<clus scale="  459.983">  4  5 -1 -1</clus>
<clus scale="  300.000">  1  4  2 -1</clus>
</clustering>
</event>
<event>
 6    1  0.9480355E-012  0.3000000E+03  0.7818608E-02  0.1093470E+00
          1   -1    0    0  502    0  0.00000000000E+00  0.00000000000E+00  0.26775872110E+03  0.26775872110E+03  0.00000000000E+00 0.  1.
         13   -1    0    0    0    0 -0.00000000000E+00 -0.00000000000E+00 -0.27500000000E+03  0.27500000000E+03  0.00000000000E+00 0.  1.
    9000005    2    1    2  501    0  0.42812931175E+02  0.41614632780E+02 -0.25584219873E+02  0.48029922846E+03  0.47588661655E+03 0.  0.
         13    1    3    3    0    0  0.47453431456E+01  0.18164567764E+02  0.22498767260E+03  0.22576962290E+03  0.00000000000E+00 0.  1.
          1    1    3    3  501    0  0.38067588029E+02  0.23450065016E+02 -0.25057189247E+03  0.25452960556E+03  0.00000000000E+00 0.  1.
         21    1    1    2  502  501 -0.42812931175E+02 -0.41614632780E+02  0.18342940969E+02  0.62459492638E+02  0.00000000000E+00 0.  1.
<scales pt_clust_4="550.00000" pt_clust_5="550.00000" pt_clust_6="59.70532"></scales>
<mgrwt>
<rscale>  0 0.30000000E+03</rscale>
<asrwt>  1 0.59705316E+02</asrwt>
<pdfrwt beam="1">  1        1 0.97366808E+00 0.30000000E+03</pdfrwt>
<pdfrwt beam="2">0</pdfrwt>
<totfact> 0.39432090E-06</totfact>
</mgrwt>
<clustering>
<clus scale="   59.705">  1  6  2 -1</clus>
<clus scale="  475.887">  4  5 -1 -1</clus>
<clus scale="  300.000">  1  4  2 -1</clus>
</clustering>
</event>
<event>
 6    1  0.9480355E-012  0.3000000E+03  0.7818608E-02  0.1093470E+00
          1   -1    0    0  502    0  0.00000000000E+00  0.00000000000E+00  0.23075137920E+03  0.23075137920E+03  0.00000000000E+00 0.  1.
         13   -1    0    0    0    0 -0.00000000000E+00 -0.00000000000E+00 -0.27500000000E+03  0.27500000000E+03  0.00000000000E+00 0.  1.
    9000005    2    1    2  501    0 -0.41328936036E+02  0.41266513197E+01 -0.27632658401E+02  0.46101660066E+03  0.45830953739E+03 0.  0.
         13    1    3    3    0    0  0.25679488549E+02 -0.21153746691E+03  0.55780121540E+02  0.22027019317E+03  0.00000000000E+00 0.  1.
          3    1    3    3  501    0 -0.67008424585E+02  0.21566411823E+03 -0.83412779940E+02  0.24074640748E+03  0.00000000000E+00 0.  1.
         21    1    1    2  502  501  0.41328936036E+02 -0.41266513197E+01 -0.16615962399E+02  0.44734778544E+02  0.00000000000E+00 0.  1.
<scales pt_clust_4="550.00000" pt_clust_5="550.00000" pt_clust_6="41.53447"></scales>
<mgrwt>
<rscale>  0 0.30000000E+03</rscale>
<asrwt>  1 0.41534467E+02</asrwt>
<pdfrwt beam="1">  1        1 0.83909592E+00 0.30000000E+03</pdfrwt>
<pdfrwt beam="2">0</pdfrwt>
<totfact> 0.48927856E-04</totfact>
</mgrwt>
<clustering>
<clus scale="   41.534">  1  6  2 -1</clus>
<clus scale="  458.310">  4  5 -1 -1</clus>
<clus scale="  300.000">  1  4  2 -1</clus>
</clustering>
</event>
<event>
 6    1  0.9480355E-012  0.3000000E+03  0.7818608E-02  0.1093470E+00
          1   -1    0    0  502    0  0.00000000000E+00  0.00000000000E+00  0.23725759600E+03  0.23725759600E+03  0.00000000000E+00 0.  1.
         13   -1    0    0    0    0 -0.00000000000E+00 -0.00000000000E+00 -0.27500000000E+03  0.27500000000E+03  0.00000000000E+00 0.  1.
    9000005    2    1    2  501    0  0.32928469611E+02  0.62222104506E+01 -0.64055239091E+02  0.46965049208E+03  0.46405334935E+03 0.  0.
         13    1    3    3    0    0 -0.98229381858E+02  0.12862179054E+03 -0.19065158991E+03  0.25008119721E+03  0.00000000000E+00 0.  1.
          3    1    3    3  501    0  0.13115785147E+03 -0.12239958009E+03  0.12659635082E+03  0.21956929487E+03  0.00000000000E+00 0.  1.
         21    1    1    2  502  501 -0.32928469611E+02 -0.62222104506E+01  0.26312835086E+02  0.42607103916E+02  0.00000000000E+00 0.  1.
<scales pt_clust_4="550.00000" pt_clust_5="550.00000" pt_clust_6="33.51119"></scales>
<mgrwt>
<rscale>  0 0.30000000E+03</rscale>
<asrwt>  1 0.33511192E+02</asrwt>
<pdfrwt beam="1">  1        1 0.86275489E+00 0.30000000E+03</pdfrwt>
<pdfrwt beam="2">0</pdfrwt>
<totfact> 0.30459167E-04</totfact>
</mgrwt>
<clustering>
<clus scale="   33.511">  1  6  2 -1</clus>
<clus scale="  464.053">  4  5 -1 -1</clus>
<clus scale="  300.000">  1  4  2 -1</clus>
</clustering>
</event>
<event>
 6    1  0.9480355E-012  0.3000000E+03  0.7818608E-02  0.1093470E+00
          1   -1    0    0  502    0  0.00000000000E+00  0.00000000000E+00  0.23547700006E+03  0.23547700006E+03  0.00000000000E+00 0.  1.
         13   -1    0    0    0    0 -0.00000000000E+00 -0.00000000000E+00 -0.27500000000E+03  0.27500000000E+03  0.00000000000E+00 0.  1.
    9000005    2    1    2  501    0  0.38703660984E+02 -0.85268726818E+01 -0.47536103668E+02  0.47004321762E+03  0.46595092482E+03 0.  0.
         13    1    3    3    0    0  0.68887510905E+02 -0.11962110360E+03  0.17296719372E+03  0.22129696719E+03  0.00000000000E+00 0.  1.
          1    1    3    3  501    0 -0.30183849921E+02  0.11109423092E+03 -0.22050329739E+03  0.24874625042E+03  0.00000000000E+00 0.  1.
         21    1    1    2  502  501 -0.38703660984E+02  0.85268726818E+01  0.80131037286E+01  0.40433782443E+02  0.00000000000E+00 0. -1.
<scales pt_clust_4="550.00000" pt_clust_5="550.00000" pt_clust_6="39.63182"></scales>
<mgrwt>
<rscale>  0 0.30000000E+03</rscale>
<asrwt>  1 0.39631817E+02</asrwt>
<pdfrwt beam="1">  1        1 0.85628000E+00 0.30000000E+03</pdfrwt>
<pdfrwt beam="2">0</pdfrwt>
<totfact> 0.34567899E-04</totfact>
</mgrwt>
<clustering>
<clus scale="   39.632">  1  6  2 -1</clus>
<clus scale="  465.951">  4  5 -1 -1</clus>
<clus scale="  300.000">  1  4  2 -1</clus>
</clustering>
</event>
<event>
 6    1  0.9480355E-012  0.3000000E+03  0.7818608E-02  0.1093470E+00
          1   -1    0    0  502    0  0.00000000000E+00  0.00000000000E+00  0.23050047952E+03  0.23050047952E+03  0.00000000000E+00 0.  1.
         13   -1    0    0    0    0 -0.00000000000E+00 -0.00000000000E+00 -0.27500000000E+03  0.27500000000E+03  0.00000000000E+00 0.  1.
    9000005    2    1    2  501    0  0.24143311385E+02  0.19450002793E+02 -0.65929878181E+02  0.46781145825E+03  0.46210346194E+03 0.  0.
         13    1    3    3    0    0  0.84451320017E+02  0.14478059205E+03  0.14062802250E+03  0.21879142122E+03  0.00000000000E+00 0.  1.
          1    1    3    3  501    0 -0.60308008632E+02 -0.12533058926E+03 -0.20655790068E+03  0.24902003703E+03  0.00000000000E+00 0.  1.
         21    1    1    2  502  501 -0.24143311385E+02 -0.19450002793E+02  0.21430357697E+02  0.37689021270E+02  0.00000000000E+00 0.  1.
<scales pt_clust_4="550.00000" pt_clust_5="550.00000" pt_clust_6="31.00326"></scales>
<mgrwt>
<rscale>  0 0.30000000E+03</rscale>
<asrwt>  1 0.31003259E+02</asrwt>
<pdfrwt beam="1">  1        1 0.83818356E+00 0.30000000E+03</pdfrwt>
<pdfrwt beam="2">0</pdfrwt>
<totfact> 0.52477544E-04</totfact>
</mgrwt>
<clustering>
<clus scale="   31.003">  1  6  2 -1</clus>
<clus scale="  462.103">  4  5 -1 -1</clus>
<clus scale="  300.000">  1  4  2 -1</clus>
</clustering>
</event>
<event>
 6    1  0.9480355E-012  0.3000000E+03  0.7818608E-02  0.1093470E+00
          1   -1    0    0  502    0  0.00000000000E+00  0.00000000000E+00  0.22712896559E+03  0.22712896559E+03  0.00000000000E+00 0.  1.
         13   -1    0    0    0    0 -0.00000000000E+00 -0.00000000000E+00 -0.27500000000E+03  0.27500000000E+03  0.00000000000E+00 0.  1.
    9000005    2    1    2  501    0  0.38426299493E+02 -0.38782827347E+00 -0.31491625955E+02  0.46035557783E+03  0.45766669601E+03 0.  0.
         13    1    3    3    0    0 -0.11667439165E+03  0.18129608703E+03  0.18188893748E+02  0.21636085758E+03  0.00000000000E+00 0.  1.
          3    1    3    3  501    0  0.15510069114E+03 -0.18168391530E+03 -0.49680519703E+02  0.24399472025E+03  0.00000000000E+00 0.  1.
         21    1    1    2  502  501 -0.38426299493E+02  0.38782827347E+00 -0.16379408452E+02  0.41773387758E+02  0.00000000000E+00 0. -1.
<scales pt_clust_4="550.00000" pt_clust_5="550.00000" pt_clust_6="38.42828"></scales>
<mgrwt>
<rscale>  0 0.30000000E+03</rscale>
<asrwt>  1 0.38428276E+02</asrwt>
<pdfrwt beam="1">  1        1 0.82592351E+00 0.30000000E+03</pdfrwt>
<pdfrwt beam="2">0</pdfrwt>
<totfact> 0.62990502E-04</totfact>
</mgrwt>
<clustering>
<clus scale="   38.428">  1  6  2 -1</clus>
<clus scale="  457.667">  4  5 -1 -1</clus>
<clus scale="  300.000">  1  4  2 -1</clus>
</clustering>
</event>
<event>
 6    1  0.9480355E-012  0.3000000E+03  0.7818608E-02  0.1093470E+00
          1   -1    0    0  502    0  0.00000000000E+00  0.00000000000E+00  0.24383697083E+03  0.24383697083E+03  0.00000000000E+00 0.  1.
         13   -1    0    0    0    0 -0.00000000000E+00 -0.00000000000E+00 -0.27500000000E+03  0.27500000000E+03  0.00000000000E+00 0.  1.
    9000005    2    1    2  501    0 -0.18074257947E+02  0.24989700632E+02 -0.70899475677E+02  0.46853638317E+03  0.46211301947E+03 0.  0.
         13    1    3    3    0    0  0.17102210149E+02  0.23686280505E+03  0.13291452412E+02  0.23785108096E+03  0.00000000000E+00 0.  1.
          1    1    3    3  501    0 -0.35176468097E+02 -0.21187310442E+03 -0.84190928089E+02  0.23068530221E+03  0.00000000000E+00 0.  1.
         21    1    1    2  502  501  0.18074257947E+02 -0.24989700632E+02  0.39736446511E+02  0.50300587664E+02  0.00000000000E+00 0. -1.
<scales pt_clust_4="550.00000" pt_clust_5="550.00000" pt_clust_6="30.84095"></scales>
<mgrwt>
<rscale>  0 0.30000000E+03</rscale>
<asrwt>  1 0.30840946E+02</asrwt>
<pdfrwt beam="1">  1        1 0.88667989E+00 0.30000000E+03</pdfrwt>
<pdfrwt beam="2">0</pdfrwt>
<totfact> 0.16480065E-04</totfact>
</mgrwt>
<clustering>
<clus scale="   30.841">  1  6  2 -1</clus>
<clus scale="  462.113">  4  5 -1 -1</clus>
<clus scale="  300.000">  1  4  2 -1</clus>
</clustering>
</event>
<event>
 6    1  0.9480355E-012  0.3000000E+03  0.7818608E-02  0.1093470E+00
          1   -1    0    0  502    0  0.00000000000E+00  0.00000000000E+00  0.23113547123E+03  0.23113547123E+03  0.00000000000E+00 0.  1.
         13   -1    0    0    0    0 -0.00000000000E+00 -0.00000000000E+00 -0.27500000000E+03  0.27500000000E+03  0.00000000000E+00 0.  1.
    9000005    2    1    2  501    0  0.40025162722E+02 -0.15733933016E+02 -0.48944566818E+02  0.46282984705E+03  0.45822082711E+03 0.  0.
         13    1    3    3    0    0  0.18873736659E+03  0.90370122981E+02  0.95423672986E+02  0.22998745627E+03  0.00000000000E+00 0.  1.
          1    1    3    3  501    0 -0.14871220387E+03 -0.10610405600E+03 -0.14436823980E+03  0.23284239078E+03  0.00000000000E+00 0.  1.
         21    1    1    2  502  501 -0.40025162722E+02  0.15733933016E+02  0.50800380491E+01  0.43305624180E+02  0.00000000000E+00 0.  1.
<scales pt_clust_4="550.00000" pt_clust_5="550.00000" pt_clust_6="43.00663"></scales>
<mgrwt>
<rscale>  0 0.30000000E+03</rscale>
<asrwt>  1 0.43006631E+02</asrwt>
<pdfrwt beam="1">  1        1 0.84049262E+00 0.30000000E+03</pdfrwt>
<pdfrwt beam="2">0</pdfrwt>
<totfact> 0.47442225E-04</totfact>
</mgrwt>
<clustering>
<clus scale="   43.007">  1  6  2 -1</clus>
<clus scale="  458.221">  4  5 -1 -1</clus>
<clus scale="  300.000">  1  4  2 -1</clus>
</clustering>
</event>
<event>
 6    1  0.9480355E-012  0.3000000E+03  0.7818608E-02  0.1093470E+00
          1   -1    0    0  502    0  0.00000000000E+00  0.00000000000E+00  0.22855538010E+03  0.22855538010E+03  0.00000000000E+00 0.  1.
         13   -1    0    0    0    0 -0.00000000000E+00 -0.00000000000E+00 -0.27500000000E+03  0.27500000000E+03  0.00000000000E+00 0.  1.
    9000005    2    1    2  501    0  0.85601797500E+01  0.40817962594E+02 -0.53516739641E+02  0.46125410795E+03  0.45623670165E+03 0.  0.
         13    1    3    3    0    0  0.19100654228E+03  0.34973090048E+02 -0.15851863049E+03  0.25066865068E+03  0.00000000000E+00 0.  1.
          3    1    3    3  501    0 -0.18244636253E+03  0.58448725460E+01  0.10500189085E+03  0.21058545728E+03  0.00000000000E+00 0.  1.
         21    1    1    2  502  501 -0.85601797500E+01 -0.40817962594E+02  0.70721197415E+01  0.42301272148E+02  0.00000000000E+00 0.  1.
<scales pt_clust_4="550.00000" pt_clust_5="550.00000" pt_clust_6="41.70591"></scales>
<mgrwt>
<rscale>  0 0.30000000E+03</rscale>
<asrwt>  1 0.41705908E+02</asrwt>
<pdfrwt beam="1">  1        1 0.83111047E+00 0.30000000E+03</pdfrwt>
<pdfrwt beam="2">0</pdfrwt>
<totfact> 0.56052683E-04</totfact>
</mgrwt>
<clustering>
<clus scale="   41.706">  1  6  2 -1</clus>
<clus scale="  456.237">  4  5 -1 -1</clus>
<clus scale="  300.000">  1  4  2 -1</clus>
</clustering>
</event>
<event>
 6    1  0.9480355E-012  0.3000000E+03  0.7818608E-02  0.1093470E+00
          1   -1    0    0  502    0  0.00000000000E+00  0.00000000000E+00  0.22607238076E+03  0.22607238076E+03  0.00000000000E+00 0.  1.
         13   -1    0    0    0    0 -0.00000000000E+00 -0.00000000000E+00 -0.27500000000E+03  0.27500000000E+03  0.00000000000E+00 0.  1.
    9000005    2    1    2  501    0  0.28121066822E+02  0.12624621013E+02 -0.70327776670E+02  0.46354716000E+03  0.45714308255E+03 0.  0.
         13    1    3    3    0    0  0.90634161517E+02  0.21800798794E+03  0.46539999206E+01  0.23614337542E+03  0.00000000000E+00 0.  1.
          3    1    3    3  501    0 -0.62513094694E+02 -0.20538336693E+03 -0.74981776590E+02  0.22740378458E+03  0.00000000000E+00 0.  1.
         21    1    1    2  502  501 -0.28121066822E+02 -0.12624621013E+02  0.21400157431E+02  0.37525220759E+02  0.00000000000E+00 0. -1.
<scales pt_clust_4="550.00000" pt_clust_5="550.00000" pt_clust_6="30.82492"></scales>
<mgrwt>
<rscale>  0 0.30000000E+03</rscale>
<asrwt>  1 0.30824916E+02</asrwt>
<pdfrwt beam="1">  1        1 0.82208138E+00 0.30000000E+03</pdfrwt>
<pdfrwt beam="2">0</pdfrwt>
<totfact> 0.71039245E-04</totfact>
</mgrwt>
<clustering>
<clus scale="   30.825">  1  6  2 -1</clus>
<clus scale="  457.143">  4  5 -1 -1</clus>
<clus scale="  300.000">  1  4  2 -1</clus>
</clustering>
</event>
<event>
 6    1  0.9480355E-012  0.3000000E+03  0.7818608E-02  0.1093470E+00
          1   -1    0    0  502    0  0.00000000000E+00  0.00000000000E+00  0.24055823744E+03  0.24055823744E+03  0.00000000000E+00 0.  1.
         13   -1    0    0    0    0 -0.00000000000E+00 -0.00000000000E+00 -0.27500000000E+03  0.27500000000E+03  0.00000000000E+00 0.  1.
    9000005    2    1    2  501    0 -0.28744897082E+02  0.10051442881E+02 -0.66922051820E+02  0.47103554881E+03  0.46526189035E+03 0.  0.
         13    1    3    3    0    0 -0.31219343486E+01 -0.14703501047E+03 -0.21043005801E+03  0.25672913760E+03  0.00000000000E+00 0.  1.
          3    1    3    3  501    0 -0.25622962733E+02  0.15708645335E+03  0.14350800619E+03  0.21430641121E+03  0.00000000000E+00 0.  1.
         21    1    1    2  502  501  0.28744897082E+02 -0.10051442881E+02  0.32480289256E+02  0.44522688625E+02  0.00000000000E+00 0. -1.
<scales pt_clust_4="550.00000" pt_clust_5="550.00000" pt_clust_6="30.45161"></scales>
<mgrwt>
<rscale>  0 0.30000000E+03</rscale>
<asrwt>  1 0.30451611E+02</asrwt>
<pdfrwt beam="1">  1        1 0.87475723E+00 0.30000000E+03</pdfrwt>
<pdfrwt beam="2">0</pdfrwt>
<totfact> 0.23230664E-04</totfact>
</mgrwt>
<clustering>
<clus scale="   30.452">  1  6  2 -1</clus>
<clus scale="  465.262">  4  5 -1 -1</clus>
<clus scale="  300.000">  1  4  2 -1</clus>
</clustering>
</event>
<event>
 6    1  0.9480355E-012  0.3000000E+03  0.7818608E-02  0.1093470E+00
          1   -1    0    0  502    0  0.00000000000E+00  0.00000000000E+00  0.23034240300E+03  0.23034240300E+03  0.00000000000E+00 0.  1.
         13   -1    0    0    0    0 -0.00000000000E+00 -0.00000000000E+00 -0.27500000000E+03  0.27500000000E+03  0.00000000000E+00 0.  1.
    9000005    2    1    2  501    0 -0.13636573872E+02 -0.26896733258E+02 -0.57774567387E+02  0.47245706707E+03  0.46794058296E+03 0.  0.
         13    1    3    3    0    0 -0.15960744322E+03  0.40925071752E+01 -0.20700109484E+03  0.26142061474E+03  0.00000000000E+00 0.  1.
          3    1    3    3  501    0  0.14597086935E+03 -0.30989240433E+02  0.14922652745E+03  0.21103645234E+03  0.00000000000E+00 0.  1.
         21    1    1    2  502  501  0.13636573872E+02  0.26896733258E+02  0.13116970390E+02  0.32885335929E+02  0.00000000000E+00 0. -1.
<scales pt_clust_4="550.00000" pt_clust_5="550.00000" pt_clust_6="30.15610"></scales>
<mgrwt>
<rscale>  0 0.30000000E+03</rscale>
<asrwt>  1 0.30156101E+02</asrwt>
<pdfrwt beam="1">  1        1 0.83760874E+00 0.30000000E+03</pdfrwt>
<pdfrwt beam="2">0</pdfrwt>
<totfact> 0.53271686E-04</totfact>
</mgrwt>
<clustering>
<clus scale="   30.156">  1  6  2 -1</clus>
<clus scale="  467.941">  4  5 -1 -1</clus>
<clus scale="  300.000">  1  4  2 -1</clus>
</clustering>
</event>
<event>
 6    1  0.9480355E-012  0.3000000E+03  0.7818608E-02  0.1093470E+00
          1   -1    0    0  502    0  0.00000000000E+00  0.00000000000E+00  0.22315486332E+03  0.22315486332E+03  0.00000000000E+00 0.  1.
         13   -1    0    0    0    0 -0.00000000000E+00 -0.00000000000E+00 -0.27500000000E+03  0.27500000000E+03  0.00000000000E+00 0.  1.
    9000005    2    1    2  501    0 -0.30716213358E+02  0.32381735543E+01 -0.51716746284E+02  0.46726816692E+03  0.46336912547E+03 0.  0.
         13    1    3    3    0    0  0.91330247738E+02 -0.42819175400E+00 -0.23211258135E+03  0.24943465662E+03  0.00000000000E+00 0.  1.
          3    1    3    3  501    0 -0.12204646110E+03  0.36663653083E+01  0.18039583507E+03  0.21783351030E+03  0.00000000000E+00 0.  1.
         21    1    1    2  502  501  0.30716213358E+02 -0.32381735543E+01 -0.12839039136E+00  0.30886696410E+02  0.00000000000E+00 0.  1.
<scales pt_clust_4="550.00000" pt_clust_5="550.00000" pt_clust_6="30.88643"></scales>
<mgrwt>
<rscale>  0 0.30000000E+03</rscale>
<asrwt>  1 0.30886430E+02</asrwt>
<pdfrwt beam="1">  1        1 0.81147223E+00 0.30000000E+03</pdfrwt>
<pdfrwt beam="2">0</pdfrwt>
<totfact> 0.86962690E-04</totfact>
</mgrwt>
<clustering>
<clus scale="   30.886">  1  6  2 -1</clus>
<clus scale="  463.369">  4  5 -1 -1</clus>
<clus scale="  300.000">  1  4  2 -1</clus>
</clustering>
</event>
<event>
 6    1  0.9480355E-012  0.3000000E+03  0.7818608E-02  0.1093470E+00
          1   -1    0    0  502    0  0.00000000000E+00  0.00000000000E+00  0.22356426611E+03  0.22356426611E+03  0.00000000000E+00 0.  1.
         13   -1    0    0    0    0 -0.00000000000E+00 -0.00000000000E+00 -0.27500000000E+03  0.27500000000E+03  0.00000000000E+00 0.  1.
    9000005    2    1    2  501    0  0.30954423548E+02  0.36925605167E+01 -0.62695008632E+02  0.46541939308E+03  0.46012252282E+03 0.  0.
         13    1    3    3    0    0  0.16447430940E+03  0.19394243875E+02  0.14358907686E+03  0.21919342632E+03  0.00000000000E+00 0.  1.
          3    1    3    3  501    0 -0.13351988586E+03 -0.15701683358E+02 -0.20628408549E+03  0.24622596676E+03  0.00000000000E+00 0.  1.
         21    1    1    2  502  501 -0.30954423548E+02 -0.36925605167E+01  0.11259274737E+02  0.33144873027E+02  0.00000000000E+00 0.  1.
<scales pt_clust_4="550.00000" pt_clust_5="550.00000" pt_clust_6="31.17389"></scales>
<mgrwt>
<rscale>  0 0.30000000E+03</rscale>
<asrwt>  1 0.31173889E+02</asrwt>
<pdfrwt beam="1">  1        1 0.81296097E+00 0.30000000E+03</pdfrwt>
<pdfrwt beam="2">0</pdfrwt>
<totfact> 0.84486342E-04</totfact>
</mgrwt>
<clustering>
<clus scale="   31.174">  1  6  2 -1</clus>
<clus scale="  460.123">  4  5 -1 -1</clus>
<clus scale="  300.000">  1  4  2 -1</clus>
</clustering>
</event>
<event>
 6    1  0.9480355E-012  0.3000000E+03  0.7818608E-02  0.1093470E+00
          1   -1    0    0  502    0  0.00000000000E+00  0.00000000000E+00  0.22306561474E+03  0.22306561474E+03  0.00000000000E+00 0.  1.
         13   -1    0    0    0    0 -0.00000000000E+00 -0.00000000000E+00 -0.27500000000E+03  0.27500000000E+03  0.00000000000E+00 0.  1.
    9000005    2    1    2  501    0  0.27953807312E+02 -0.18832715291E+02 -0.58800821722E+02  0.46366743953E+03  0.45868711703E+03 0.  0.
         13    1    3    3    0    0  0.11640942101E+03  0.12428206697E+03 -0.18642768230E+03  0.25249250721E+03  0.00000000000E+00 0.  1.
          3    1    3    3  501    0 -0.88455613701E+02 -0.14311478226E+03  0.12762686057E+03  0.21117493231E+03  0.00000000000E+00 0.  1.
         21    1    1    2  502  501 -0.27953807312E+02  0.18832715291E+02  0.68664364644E+01  0.34398175216E+02  0.00000000000E+00 0. -1.
<scales pt_clust_4="550.00000" pt_clust_5="550.00000" pt_clust_6="33.70588"></scales>
<mgrwt>
<rscale>  0 0.30000000E+03</rscale>
<asrwt>  1 0.33705882E+02</asrwt>
<pdfrwt beam="1">  1        1 0.81114769E+00 0.30000000E+03</pdfrwt>
<pdfrwt beam="2">0</pdfrwt>
<totfact> 0.86035903E-04</totfact>
</mgrwt>
<clustering>
<clus scale="   33.706">  1  6  2 -1</clus>
<clus scale="  458.687">  4  5 -1 -1</clus>
<clus scale="  300.000">  1  4  2 -1</clus>
</clustering>
</event>
<event>
 6    1  0.9480355E-012  0.3000000E+03  0.7818608E-02  0.1093470E+00
          1   -1    0    0  502    0  0.00000000000E+00  0.00000000000E+00  0.23216948081E+03  0.23216948081E+03  0.00000000000E+00 0.  1.
         13   -1    0    0    0    0 -0.00000000000E+00 -0.00000000000E+00 -0.27500000000E+03  0.27500000000E+03  0.00000000000E+00 0.  1.
    9000005    2    1    2  501    0 -0.43383370173E+01 -0.38695174210E+02 -0.34680690978E+02  0.46738811111E+03  0.46447040638E+03 0.  0.
         13    1    3    3    0    0  0.12361860413E+03 -0.19902814260E+03 -0.96130598677E+02  0.25324859888E+03  0.00000000000E+00 0.  1.
          3    1    3    3  501    0 -0.12795694114E+03  0.16033296839E+03  0.61449907699E+02  0.21413951223E+03  0.00000000000E+00 0.  1.
         21    1    1    2  502  501  0.43383370173E+01  0.38695174210E+02 -0.81498282142E+01  0.39781369699E+02  0.00000000000E+00 0. -1.
<scales pt_clust_4="550.00000" pt_clust_5="550.00000" pt_clust_6="38.93763"></scales>
<mgrwt>
<rscale>  0 0.30000000E+03</rscale>
<asrwt>  1 0.38937632E+02</asrwt>
<pdfrwt beam="1">  1        1 0.84425266E+00 0.30000000E+03</pdfrwt>
<pdfrwt beam="2">0</pdfrwt>
<totfact> 0.44965715E-04</totfact>
</mgrwt>
<clustering>
<clus scale="   38.938">  1  6  2 -1</clus>
<clus scale="  464.470">  4  5 -1 -1</clus>
<clus scale="  300.000">  1  4  2 -1</clus>
</clustering>
</event>
<event>
 6    1  0.9480355E-012  0.3000000E+03  0.7818608E-02  0.1093470E+00
          1   -1    0    0  502    0  0.00000000000E+00  0.00000000000E+00  0.23552021052E+03  0.23552021052E+03  0.00000000000E+00 0.  1.
         13   -1    0    0    0    0 -0.00000000000E+00 -0.00000000000E+00 -0.27500000000E+03  0.27500000000E+03  0.00000000000E+00 0.  1.
    9000005    2    1    2  501    0  0.35948345194E+02  0.61900086874E+01 -0.44900258442E+02  0.47364228740E+03  0.47009614280E+03 0.  0.
         13    1    3    3    0    0  0.77007926678E+02 -0.21516840248E+03  0.41921571676E+02  0.23234689662E+03  0.00000000000E+00 0.  1.
          3    1    3    3  501    0 -0.41059581484E+02  0.22135841117E+03 -0.86821830118E+02  0.24129539078E+03  0.00000000000E+00 0.  1.
         21    1    1    2  502  501 -0.35948345194E+02 -0.61900086874E+01  0.54204689573E+01  0.36877923117E+02  0.00000000000E+00 0.  1.
<scales pt_clust_4="550.00000" pt_clust_5="550.00000" pt_clust_6="36.47739"></scales>
<mgrwt>
<rscale>  0 0.30000000E+03</rscale>
<asrwt>  1 0.36477387E+02</asrwt>
<pdfrwt beam="1">  1        1 0.85643713E+00 0.30000000E+03</pdfrwt>
<pdfrwt beam="2">0</pdfrwt>
<totfact> 0.34971182E-04</totfact>
</mgrwt>
<clustering>
<clus scale="   36.477">  1  6  2 -1</clus>
<clus scale="  470.096">  4  5 -1 -1</clus>
<clus scale="  300.000">  1  4  2 -1</clus>
</clustering>
</event>
<event>
 6    1  0.9480355E-012  0.3000000E+03  0.7818608E-02  0.1093470E+00
          1   -1    0    0  502    0  0.00000000000E+00  0.00000000000E+00  0.23955623193E+03  0.23955623193E+03  0.00000000000E+00 0.  1.
         13   -1    0    0    0    0 -0.00000000000E+00 -0.00000000000E+00 -0.27500000000E+03  0.27500000000E+03  0.00000000000E+00 0.  1.
    9000005    2    1    2  501    0 -0.32337902503E+02  0.38450925294E+02 -0.48515497090E+02  0.46264203644E+03  0.45733979362E+03 0.  0.
         13    1    3    3    0    0  0.41149127388E+02 -0.57302478235E+02  0.18597701698E+03  0.19890770609E+03  0.00000000000E+00 0.  1.
          1    1    3    3  501    0 -0.73487029890E+02  0.95753403528E+02 -0.23449251407E+03  0.26373433035E+03  0.00000000000E+00 0.  1.
         21    1    1    2  502  501  0.32337902503E+02 -0.38450925294E+02  0.13071729018E+02  0.51914195493E+02  0.00000000000E+00 0.  1.
<scales pt_clust_4="550.00000" pt_clust_5="550.00000" pt_clust_6="50.24155"></scales>
<mgrwt>
<rscale>  0 0.30000000E+03</rscale>
<asrwt>  1 0.50241552E+02</asrwt>
<pdfrwt beam="1">  1        1 0.87111357E+00 0.30000000E+03</pdfrwt>
<pdfrwt beam="2">0</pdfrwt>
<totfact> 0.23108179E-04</totfact>
</mgrwt>
<clustering>
<clus scale="   50.242">  1  6  2 -1</clus>
<clus scale="  457.340">  4  5 -1 -1</clus>
<clus scale="  300.000">  1  4  2 -1</clus>
</clustering>
</event>
<event>
 6    1  0.9480355E-012  0.3000000E+03  0.7818608E-02  0.1093470E+00
          1   -1    0    0  502    0  0.00000000000E+00  0.00000000000E+00  0.24256097670E+03  0.24256097670E+03  0.00000000000E+00 0.  1.
         13   -1    0    0    0    0 -0.00000000000E+00 -0.00000000000E+00 -0.27500000000E+03  0.27500000000E+03  0.00000000000E+00 0.  1.
    9000005    2    1    2  501    0  0.12863099575E+02 -0.33895028559E+02 -0.45751973075E+02  0.47894016724E+03  0.47536944418E+03 0.  0.
         13    1    3    3    0    0 -0.21887969367E+03 -0.63808041137E+02 -0.82387874720E+02  0.24242018958E+03  0.00000000000E+00 0.  1.
          1    1    3    3  501    0  0.23174279324E+03  0.29913012578E+02  0.36635901645E+02  0.23651997766E+03  0.00000000000E+00 0.  1.
         21    1    1    2  502  501 -0.12863099575E+02  0.33895028559E+02  0.13312949771E+02  0.38620809460E+02  0.00000000000E+00 0.  1.
<scales pt_clust_4="550.00000" pt_clust_5="550.00000" pt_clust_6="36.25372"></scales>
<mgrwt>
<rscale>  0 0.30000000E+03</rscale>
<asrwt>  1 0.36253721E+02</asrwt>
<pdfrwt beam="1">  1        1 0.88203992E+00 0.30000000E+03</pdfrwt>
<pdfrwt beam="2">0</pdfrwt>
<totfact> 0.18473551E-04</totfact>
</mgrwt>
<clustering>
<clus scale="   36.254">  1  6  2 -1</clus>
<clus scale="  475.369">  4  5 -1 -1</clus>
<clus scale="  300.000">  1  4  2 -1</clus>
</clustering>
</event>
<event>
 6    1  0.9480355E-012  0.3000000E+03  0.7818608E-02  0.1093470E+00
          1   -1    0    0  502    0  0.00000000000E+00  0.00000000000E+00  0.22988667267E+03  0.22988667267E+03  0.00000000000E+00 0.  1.
         13   -1    0    0    0    0 -0.00000000000E+00 -0.00000000000E+00 -0.27500000000E+03  0.27500000000E+03  0.00000000000E+00 0.  1.
    9000005    2    1    2  501    0 -0.33132714136E+02 -0.32993047649E+01 -0.68502440484E+02  0.46419622205E+03  0.45790488756E+03 0.  0.
         13    1    3    3    0    0  0.93647249071E+01  0.36848026762E+02  0.19275949944E+03  0.19647315280E+03  0.00000000000E+00 0.  1.
          1    1    3    3  501    0 -0.42497439043E+02 -0.40147331527E+02 -0.26126193992E+03  0.26772306924E+03  0.00000000000E+00 0.  1.
         21    1    1    2  502  501  0.33132714136E+02  0.32993047649E+01  0.23389113156E+02  0.40690450627E+02  0.00000000000E+00 0.  1.
<scales pt_clust_4="550.00000" pt_clust_5="550.00000" pt_clust_6="33.29658"></scales>
<mgrwt>
<rscale>  0 0.30000000E+03</rscale>
<asrwt>  1 0.33296579E+02</asrwt>
<pdfrwt beam="1">  1        1 0.83595154E+00 0.30000000E+03</pdfrwt>
<pdfrwt beam="2">0</pdfrwt>
<totfact> 0.53745128E-04</totfact>
</mgrwt>
<clustering>
<clus scale="   33.297">  1  6  2 -1</clus>
<clus scale="  457.905">  4  5 -1 -1</clus>
<clus scale="  300.000">  1  4  2 -1</clus>
</clustering>
</event>
<event>
 6    1  0.9480355E-012  0.3000000E+03  0.7818608E-02  0.1093470E+00
          1   -1    0    0  502    0  0.00000000000E+00  0.00000000000E+00  0.22278348143E+03  0.22278348143E+03  0.00000000000E+00 0.  1.
         13   -1    0    0    0    0 -0.00000000000E+00 -0.00000000000E+00 -0.27500000000E+03  0.27500000000E+03  0.00000000000E+00 0.  1.
    9000005    2    1    2  501    0 -0.14150383921E+02  0.30078006723E+02 -0.58198341662E+02  0.46400920037E+03  0.45914330138E+03 0.  0.
         13    1    3    3    0    0 -0.19734686820E+03  0.13678785765E+03  0.12715299043E+02  0.24045453462E+03  0.00000000000E+00 0.  1.
          1    1    3    3  501    0  0.18319648428E+03 -0.10670985093E+03 -0.70913640705E+02  0.22355466575E+03  0.00000000000E+00 0.  1.
         21    1    1    2  502  501  0.14150383921E+02 -0.30078006723E+02  0.59818230877E+01  0.33774281058E+02  0.00000000000E+00 0. -1.
<scales pt_clust_4="550.00000" pt_clust_5="550.00000" pt_clust_6="33.24033"></scales>
<mgrwt>
<rscale>  0 0.30000000E+03</rscale>
<asrwt>  1 0.33240335E+02</asrwt>
<pdfrwt beam="1">  1        1 0.81012175E+00 0.30000000E+03</pdfrwt>
<pdfrwt beam="2">0</pdfrwt>
<totfact> 0.87871794E-04</totfact>
</mgrwt>
<clustering>
<clus scale="   33.240">  1  6  2 -1</clus>
<clus scale="  459.143">  4  5 -1 -1</clus>
<clus scale="  300.000">  1  4  2 -1</clus>
</clustering>
</event>
<event>
 6    1  0.9480355E-012  0.3000000E+03  0.7818608E-02  0.1093470E+00
          1   -1    0    0  502    0  0.00000000000E+00  0.00000000000E+00  0.24764441134E+03  0.24764441134E+03  0.00000000000E+00 0.  1.
         13   -1    0    0    0    0 -0.00000000000E+00 -0.00000000000E+00 -0.27500000000E+03  0.27500000000E+03  0.00000000000E+00 0.  1.
    9000005    2    1    2  501    0  0.38682614414E+02 -0.31665747983E+01 -0.43147894718E+02  0.48074251658E+03  0.47722662811E+03 0.  0.
         13    1    3    3    0    0  0.21516719455E+02  0.23572082737E+03  0.35580021058E+01  0.23672755871E+03  0.00000000000E+00 0.  1.
          1    1    3    3  501    0  0.17165894959E+02 -0.23888740217E+03 -0.46705896824E+02  0.24401495787E+03  0.00000000000E+00 0.  1.
         21    1    1    2  502  501 -0.38682614414E+02  0.31665747983E+01  0.15792306061E+02  0.41901894761E+02  0.00000000000E+00 0. -1.
<scales pt_clust_4="550.00000" pt_clust_5="550.00000" pt_clust_6="38.81201"></scales>
<mgrwt>
<rscale>  0 0.30000000E+03</rscale>
<asrwt>  1 0.38812007E+02</asrwt>
<pdfrwt beam="1">  1        1 0.90052513E+00 0.30000000E+03</pdfrwt>
<pdfrwt beam="2">0</pdfrwt>
<totfact> 0.10668722E-04</totfact>
</mgrwt>
<clustering>
<clus scale="   38.812">  1  6  2 -1</clus>
<clus scale="  477.227">  4  5 -1 -1</clus>
<clus scale="  300.000">  1  4  2 -1</clus>
</clustering>
</event>
<event>
 6    1  0.9480355E-012  0.3000000E+03  0.7818608E-02  0.1093470E+00
          1   -1    0    0  502    0  0.00000000000E+00  0.00000000000E+00  0.24420490080E+03  0.24420490080E+03  0.00000000000E+00 0.  1.
         13   -1    0    0    0    0 -0.00000000000E+00 -0.00000000000E+00 -0.27500000000E+03  0.27500000000E+03  0.00000000000E+00 0.  1.
    9000005    2    1    2  501    0 -0.38646732623E+02  0.73851671661E+01 -0.63131487498E+02  0.46827600287E+03  0.46232966540E+03 0.  0.
         13    1    3    3    0    0 -0.15732540332E+02 -0.21440433330E+03  0.46283809125E+02  0.21990662098E+03  0.00000000000E+00 0.  1.
          3    1    3    3  501    0 -0.22914192291E+02  0.22178950046E+03 -0.10941529662E+03  0.24836938189E+03  0.00000000000E+00 0.  1.
         21    1    1    2  502  501  0.38646732623E+02 -0.73851671661E+01  0.32336388297E+02  0.50928897933E+02  0.00000000000E+00 0.  1.
<scales pt_clust_4="550.00000" pt_clust_5="550.00000" pt_clust_6="39.34604"></scales>
<mgrwt>
<rscale>  0 0.30000000E+03</rscale>
<asrwt>  1 0.39346037E+02</asrwt>
<pdfrwt beam="1">  1        1 0.88801782E+00 0.30000000E+03</pdfrwt>
<pdfrwt beam="2">0</pdfrwt>
<totfact> 0.15090428E-04</totfact>
</mgrwt>
<clustering>
<clus scale="   39.346">  1  6  2 -1</clus>
<clus scale="  462.330">  4  5 -1 -1</clus>
<clus scale="  300.000">  1  4  2 -1</clus>
</clustering>
</event>
<event>
 6    1  0.9480355E-012  0.3000000E+03  0.7818608E-02  0.1093470E+00
          1   -1    0    0  502    0  0.00000000000E+00  0.00000000000E+00  0.24406972726E+03  0.24406972726E+03  0.00000000000E+00 0.  1.
         13   -1    0    0    0    0 -0.00000000000E+00 -0.00000000000E+00 -0.27500000000E+03  0.27500000000E+03  0.00000000000E+00 0.  1.
    9000005    2    1    2  501    0 -0.21438452531E+02  0.37793206706E+02 -0.28695653990E+02  0.47556194358E+03  0.47270264216E+03 0.  0.
         13    1    3    3    0    0  0.11236067888E+03  0.21404335823E+03 -0.67301463223E+02  0.25093618374E+03  0.00000000000E+00 0.  1.
          1    1    3    3  501    0 -0.13379913141E+03 -0.17625015152E+03  0.38605809233E+02  0.22462575984E+03  0.00000000000E+00 0.  1.
         21    1    1    2  502  501  0.21438452531E+02 -0.37793206706E+02 -0.22346187475E+01  0.43507783683E+02  0.00000000000E+00 0. -1.
<scales pt_clust_4="550.00000" pt_clust_5="550.00000" pt_clust_6="43.45036"></scales>
<mgrwt>
<rscale>  0 0.30000000E+03</rscale>
<asrwt>  1 0.43450359E+02</asrwt>
<pdfrwt beam="1">  1        1 0.88752628E+00 0.30000000E+03</pdfrwt>
<pdfrwt beam="2">0</pdfrwt>
<totfact> 0.15054048E-04</totfact>
</mgrwt>
<clustering>
<clus scale="   43.450">  1  6  2 -1</clus>
<clus scale="  472.703">  4  5 -1 -1</clus>
<clus scale="  300.000">  1  4  2 -1</clus>
</clustering>
</event>
<event>
 6    1  0.9480355E-012  0.3000000E+03  0.7818608E-02  0.1093470E+00
          1   -1    0    0  502    0  0.00000000000E+00  0.00000000000E+00  0.23399463091E+03  0.23399463091E+03  0.00000000000E+00 0.  1.
         13   -1    0    0    0    0 -0.00000000000E+00 -0.00000000000E+00 -0.27500000000E+03  0.27500000000E+03  0.00000000000E+00 0.  1.
    9000005    2    1    2  501    0  0.98970318779E+01  0.29280914839E+02 -0.74125830554E+02  0.46369244353E+03  0.45668448651E+03 0.  0.
         13    1    3    3    0    0 -0.71200332605E+02 -0.15343447933E+03 -0.17189288189E+03  0.24116133532E+03  0.00000000000E+00 0.  1.
          3    1    3    3  501    0  0.81097364483E+02  0.18271539417E+03  0.97767051336E+02  0.22253110821E+03  0.00000000000E+00 0.  1.
         21    1    1    2  502  501 -0.98970318779E+01 -0.29280914839E+02  0.33120461466E+02  0.45302187381E+02  0.00000000000E+00 0.  1.
<scales pt_clust_4="550.00000" pt_clust_5="550.00000" pt_clust_6="30.90830"></scales>
<mgrwt>
<rscale>  0 0.30000000E+03</rscale>
<asrwt>  1 0.30908303E+02</asrwt>
<pdfrwt beam="1">  1        1 0.85088957E+00 0.30000000E+03</pdfrwt>
<pdfrwt beam="2">0</pdfrwt>
<totfact> 0.40870438E-04</totfact>
</mgrwt>
<clustering>
<clus scale="   30.908">  1  6  2 -1</clus>
<clus scale="  456.684">  4  5 -1 -1</clus>
<clus scale="  300.000">  1  4  2 -1</clus>
</clustering>
</event>
<event>
 6    1  0.9480355E-012  0.3000000E+03  0.7818608E-02  0.1093470E+00
          1   -1    0    0  502    0  0.00000000000E+00  0.00000000000E+00  0.24666041753E+03  0.24666041753E+03  0.00000000000E+00 0.  1.
         13   -1    0    0    0    0 -0.00000000000E+00 -0.00000000000E+00 -0.27500000000E+03  0.27500000000E+03  0.00000000000E+00 0.  1.
    9000005    2    1    2  501    0  0.30765728239E+02  0.15292744414E+02 -0.63857924434E+02  0.47224432014E+03  0.46664383133E+03 0.  0.
         13    1    3    3    0    0 -0.11079206249E+00  0.24051773310E+03 -0.36530101353E+02  0.24327605825E+03  0.00000000000E+00 0.  1.
          3    1    3    3  501    0  0.30876520301E+02 -0.22522498869E+03 -0.27327823081E+02  0.22896826189E+03  0.00000000000E+00 0.  1.
         21    1    1    2  502  501 -0.30765728239E+02 -0.15292744414E+02  0.35518341962E+02  0.49416097393E+02  0.00000000000E+00 0.  1.
<scales pt_clust_4="550.00000" pt_clust_5="550.00000" pt_clust_6="34.35692"></scales>
<mgrwt>
<rscale>  0 0.30000000E+03</rscale>
<asrwt>  1 0.34356922E+02</asrwt>
<pdfrwt beam="1">  1        1 0.89694697E+00 0.30000000E+03</pdfrwt>
<pdfrwt beam="2">0</pdfrwt>
<totfact> 0.12035345E-04</totfact>
</mgrwt>
<clustering>
<clus scale="   34.357">  1  6  2 -1</clus>
<clus scale="  466.644">  4  5 -1 -1</clus>
<clus scale="  300.000">  1  4  2 -1</clus>
</clustering>
</event>
<event>
 6    1  0.9480355E-012  0.3000000E+03  0.7818608E-02  0.1093470E+00
          1   -1    0    0  502    0  0.00000000000E+00  0.00000000000E+00  0.24543885285E+03  0.24543885285E+03  0.00000000000E+00 0.  1.
         13   -1    0    0    0    0 -0.00000000000E+00 -0.00000000000E+00 -0.27500000000E+03  0.27500000000E+03  0.00000000000E+00 0.  1.
    9000005    2    1    2  501    0 -0.29613554691E+02  0.18519246055E+02 -0.45861287377E+02  0.48189511578E+03  0.47843465576E+03 0.  0.
         13    1    3    3    0    0 -0.19172664760E+03 -0.48476894421E+02  0.12747823137E+03  0.23528666806E+03  0.00000000000E+00 0.  1.
          1    1    3    3  501    0  0.16211309291E+03  0.66996140476E+02 -0.17333951874E+03  0.24660844772E+03  0.00000000000E+00 0.  1.
         21    1    1    2  502  501  0.29613554691E+02 -0.18519246055E+02  0.16300140226E+02  0.38543737069E+02  0.00000000000E+00 0. -1.
<scales pt_clust_4="550.00000" pt_clust_5="550.00000" pt_clust_6="34.92743"></scales>
<mgrwt>
<rscale>  0 0.30000000E+03</rscale>
<asrwt>  1 0.34927426E+02</asrwt>
<pdfrwt beam="1">  1        1 0.89250492E+00 0.30000000E+03</pdfrwt>
<pdfrwt beam="2">0</pdfrwt>
<totfact> 0.13479247E-04</totfact>
</mgrwt>
<clustering>
<clus scale="   34.927">  1  6  2 -1</clus>
<clus scale="  478.435">  4  5 -1 -1</clus>
<clus scale="  300.000">  1  4  2 -1</clus>
</clustering>
</event>
<event>
 6    1  0.9480355E-012  0.3000000E+03  0.7818608E-02  0.1093470E+00
          1   -1    0    0  502    0  0.00000000000E+00  0.00000000000E+00  0.24449436187E+03  0.24449436187E+03  0.00000000000E+00 0.  1.
         13   -1    0    0    0    0 -0.00000000000E+00 -0.00000000000E+00 -0.27500000000E+03  0.27500000000E+03  0.00000000000E+00 0.  1.
    9000005    2    1    2  501    0  0.26312204879E+02  0.30663208951E+02 -0.56748137131E+02  0.47131518314E+03  0.46613848402E+03 0.  0.
         13    1    3    3    0    0  0.68641566141E+02  0.19367741191E+03 -0.17139270189E+03  0.26757814326E+03  0.00000000000E+00 0.  1.
          3    1    3    3  501    0 -0.42329361262E+02 -0.16301420296E+03  0.11464456476E+03  0.20373703989E+03  0.00000000000E+00 0.  1.
         21    1    1    2  502  501 -0.26312204879E+02 -0.30663208951E+02  0.26242498997E+02  0.48179178722E+02  0.00000000000E+00 0.  1.
<scales pt_clust_4="550.00000" pt_clust_5="550.00000" pt_clust_6="40.40501"></scales>
<mgrwt>
<rscale>  0 0.30000000E+03</rscale>
<asrwt>  1 0.40405006E+02</asrwt>
<pdfrwt beam="1">  1        1 0.88907041E+00 0.30000000E+03</pdfrwt>
<pdfrwt beam="2">0</pdfrwt>
<totfact> 0.14528391E-04</totfact>
</mgrwt>
<clustering>
<clus scale="   40.405">  1  6  2 -1</clus>
<clus scale="  466.138">  4  5 -1 -1</clus>
<clus scale="  300.000">  1  4  2 -1</clus>
</clustering>
</event>
<event>
 6    1  0.9480355E-012  0.3000000E+03  0.7818608E-02  0.1093470E+00
          1   -1    0    0  502    0  0.00000000000E+00  0.00000000000E+00  0.23746147458E+03  0.23746147458E+03  0.00000000000E+00 0.  1.
         13   -1    0    0    0    0 -0.00000000000E+00 -0.00000000000E+00 -0.27500000000E+03  0.27500000000E+03  0.00000000000E+00 0.  1.
    9000005    2    1    2  501    0  0.23159543962E+02 -0.22752259436E+02 -0.62432653063E+02  0.47155001681E+03  0.46626982789E+03 0.  0.
         13    1    3    3    0    0  0.23342933232E+03  0.32239827315E+02 -0.90453205139E+02  0.25240927473E+03  0.00000000000E+00 0.  1.
          3    1    3    3  501    0 -0.21026978835E+03 -0.54992086751E+02  0.28020552076E+02  0.21914074208E+03  0.00000000000E+00 0.  1.
         21    1    1    2  502  501 -0.23159543962E+02  0.22752259436E+02  0.24894127648E+02  0.40911457776E+02  0.00000000000E+00 0.  1.
<scales pt_clust_4="550.00000" pt_clust_5="550.00000" pt_clust_6="32.46582"></scales>
<mgrwt>
<rscale>  0 0.30000000E+03</rscale>
<asrwt>  1 0.32465825E+02</asrwt>
<pdfrwt beam="1">  1        1 0.86349627E+00 0.30000000E+03</pdfrwt>
<pdfrwt beam="2">0</pdfrwt>
<totfact> 0.30081317E-04</totfact>
</mgrwt>
<clustering>
<clus scale="   32.466">  1  6  2 -1</clus>
<clus scale="  466.270">  4  5 -1 -1</clus>
<clus scale="  300.000">  1  4  2 -1</clus>
</clustering>
</event>
<event>
 6    1  0.9480355E-012  0.3000000E+03  0.7818608E-02  0.1093470E+00
          1   -1    0    0  502    0  0.00000000000E+00  0.00000000000E+00  0.22069614854E+03  0.22069614854E+03  0.00000000000E+00 0.  1.
         13   -1    0    0    0    0 -0.00000000000E+00 -0.00000000000E+00 -0.27500000000E+03  0.27500000000E+03  0.00000000000E+00 0.  1.
    9000005    2    1    2  501    0  0.14812752972E+02 -0.28386977028E+02 -0.54553960565E+02  0.46367583202E+03  0.45934072808E+03 0.  0.
         13    1    3    3    0    0  0.12474034255E+03 -0.14422430579E+03 -0.17875401990E+03  0.26136909357E+03  0.00000000000E+00 0.  1.
          1    1    3    3  501    0 -0.10992758958E+03  0.11583732876E+03  0.12420005934E+03  0.20230673846E+03  0.00000000000E+00 0.  1.
         21    1    1    2  502  501 -0.14812752972E+02  0.28386977028E+02  0.25010910445E+00  0.32020316519E+02  0.00000000000E+00 0.  1.
<scales pt_clust_4="550.00000" pt_clust_5="550.00000" pt_clust_6="32.01934"></scales>
<mgrwt>
<rscale>  0 0.30000000E+03</rscale>
<asrwt>  1 0.32019340E+02</asrwt>
<pdfrwt beam="1">  1        1 0.80253145E+00 0.30000000E+03</pdfrwt>
<pdfrwt beam="2">0</pdfrwt>
<totfact> 0.10108711E-03</totfact>
</mgrwt>
<clustering>
<clus scale="   32.019">  1  6  2 -1</clus>
<clus scale="  459.341">  4  5 -1 -1</clus>
<clus scale="  300.000">  1  4  2 -1</clus>
</clustering>
</event>
<event>
 6    1  0.9480355E-012  0.3000000E+03  0.7818608E-02  0.1093470E+00
          1   -1    0    0  502    0  0.00000000000E+00  0.00000000000E+00  0.22623553504E+03  0.22623553504E+03  0.00000000000E+00 0.  1.
         13   -1    0    0    0    0 -0.00000000000E+00 -0.00000000000E+00 -0.27500000000E+03  0.27500000000E+03  0.00000000000E+00 0.  1.
    9000005    2    1    2  501    0 -0.18384638179E+02 -0.25895142811E+02 -0.52658937634E+02  0.46923990629E+03  0.46519304874E+03 0.  0.
         13    1    3    3    0    0  0.19267245544E+03 -0.12849529179E+03 -0.24453808296E+02  0.23287701440E+03  0.00000000000E+00 0.  1.
          1    1    3    3  501    0 -0.21105709362E+03  0.10260014898E+03 -0.28205129337E+02  0.23636289188E+03  0.00000000000E+00 0.  1.
         21    1    1    2  502  501  0.18384638179E+02  0.25895142811E+02  0.38944726770E+01  0.31995628758E+02  0.00000000000E+00 0.  1.
<scales pt_clust_4="550.00000" pt_clust_5="550.00000" pt_clust_6="31.75773"></scales>
<mgrwt>
<rscale>  0 0.30000000E+03</rscale>
<asrwt>  1 0.31757729E+02</asrwt>
<pdfrwt beam="1">  1        1 0.82267467E+00 0.30000000E+03</pdfrwt>
<pdfrwt beam="2">0</pdfrwt>
<totfact> 0.69783873E-04</totfact>
</mgrwt>
<clustering>
<clus scale="   31.758">  1  6  2 -1</clus>
<clus scale="  465.193">  4  5 -1 -1</clus>
<clus scale="  300.000">  1  4  2 -1</clus>
</clustering>
</event>
<event>
 6    1  0.9480355E-012  0.3000000E+03  0.7818608E-02  0.1093470E+00
          1   -1    0    0  502    0  0.00000000000E+00  0.00000000000E+00  0.22960944955E+03  0.22960944955E+03  0.00000000000E+00 0.  1.
         13   -1    0    0    0    0 -0.00000000000E+00 -0.00000000000E+00 -0.27500000000E+03  0.27500000000E+03  0.00000000000E+00 0.  1.
    9000005    2    1    2  501    0 -0.30168269213E+02 -0.43837657359E+01 -0.72142395565E+02  0.46405081192E+03  0.45739401935E+03 0.  0.
         13    1    3    3    0    0 -0.20645864202E+03 -0.30003682057E+01  0.89336652764E+02  0.22497824473E+03  0.00000000000E+00 0.  1.
          1    1    3    3  501    0  0.17629037281E+03 -0.13833975302E+01 -0.16147904833E+03  0.23907256719E+03  0.00000000000E+00 0.  1.
         21    1    1    2  502  501  0.30168269213E+02  0.43837657359E+01  0.26751845118E+02  0.40558637632E+02  0.00000000000E+00 0.  1.
<scales pt_clust_4="550.00000" pt_clust_5="550.00000" pt_clust_6="30.48511"></scales>
<mgrwt>
<rscale>  0 0.30000000E+03</rscale>
<asrwt>  1 0.30485109E+02</asrwt>
<pdfrwt beam="1">  1        1 0.83494345E+00 0.30000000E+03</pdfrwt>
<pdfrwt beam="2">0</pdfrwt>
<totfact> 0.55586240E-04</totfact>
</mgrwt>
<clustering>
<clus scale="   30.485">  1  6  2 -1</clus>
<clus scale="  457.394">  4  5 -1 -1</clus>
<clus scale="  300.000">  1  4  2 -1</clus>
</clustering>
</event>
<event>
 6    1  0.9480355E-012  0.3000000E+03  0.7818608E-02  0.1093470E+00
          1   -1    0    0  502    0  0.00000000000E+00  0.00000000000E+00  0.23346709320E+03  0.23346709320E+03  0.00000000000E+00 0.  1.
         13   -1    0    0    0    0 -0.00000000000E+00 -0.00000000000E+00 -0.27500000000E+03  0.27500000000E+03  0.00000000000E+00 0.  1.
    9000005    2    1    2  501    0 -0.33591925372E+02  0.57926797069E+01 -0.18802020779E+02  0.46749556933E+03  0.46587189094E+03 0.  0.
         13    1    3    3    0    0 -0.24731385841E+03  0.35153762814E+01 -0.47452970744E+02  0.25184973073E+03  0.00000000000E+00 0.  1.
          1    1    3    3  501    0  0.21372193304E+03  0.22773034255E+01  0.28650949965E+02  0.21564583861E+03  0.00000000000E+00 0.  1.
         21    1    1    2  502  501  0.33591925372E+02 -0.57926797069E+01 -0.22730886025E+02  0.40971523866E+02  0.00000000000E+00 0.  1.
<scales pt_clust_4="550.00000" pt_clust_5="550.00000" pt_clust_6="34.08774"></scales>
<mgrwt>
<rscale>  0 0.30000000E+03</rscale>
<asrwt>  1 0.34087736E+02</asrwt>
<pdfrwt beam="1">  1        1 0.84897125E+00 0.30000000E+03</pdfrwt>
<pdfrwt beam="2">0</pdfrwt>
<totfact> 0.41814350E-04</totfact>
</mgrwt>
<clustering>
<clus scale="   34.088">  1  6  2 -1</clus>
<clus scale="  465.872">  4  5 -1 -1</clus>
<clus scale="  300.000">  1  4  2 -1</clus>
</clustering>
</event>
<event>
 6    1  0.9480355E-012  0.3000000E+03  0.7818608E-02  0.1093470E+00
          1   -1    0    0  502    0  0.00000000000E+00  0.00000000000E+00  0.23622236847E+03  0.23622236847E+03  0.00000000000E+00 0.  1.
         13   -1    0    0    0    0 -0.00000000000E+00 -0.00000000000E+00 -0.27500000000E+03  0.27500000000E+03  0.00000000000E+00 0.  1.
    9000005    2    1    2  501    0 -0.43397550581E+02 -0.12327140778E+02 -0.47784647238E+02  0.46521767166E+03  0.46055271546E+03 0.  0.
         13    1    3    3    0    0 -0.76709080105E+02 -0.15274832355E+03  0.14517481866E+03  0.22425891575E+03  0.00000000000E+00 0.  1.
          3    1    3    3  501    0  0.33311529524E+02  0.14042118277E+03 -0.19295946590E+03  0.24095875592E+03  0.00000000000E+00 0.  1.
         21    1    1    2  502  501  0.43397550581E+02  0.12327140778E+02  0.90070157082E+01  0.46004696806E+02  0.00000000000E+00 0. -1.
<scales pt_clust_4="550.00000" pt_clust_5="550.00000" pt_clust_6="45.11436"></scales>
<mgrwt>
<rscale>  0 0.30000000E+03</rscale>
<asrwt>  1 0.45114364E+02</asrwt>
<pdfrwt beam="1">  1        1 0.85899043E+00 0.30000000E+03</pdfrwt>
<pdfrwt beam="2">0</pdfrwt>
<totfact> 0.31651702E-04</totfact>
</mgrwt>
<clustering>
<clus scale="   45.114">  1  6  2 -1</clus>
<clus scale="  460.553">  4  5 -1 -1</clus>
<clus scale="  300.000">  1  4  2 -1</clus>
</clustering>
</event>
<event>
 6    1  0.9480355E-012  0.3000000E+03  0.7818608E-02  0.1093470E+00
          1   -1    0    0  502    0  0.00000000000E+00  0.00000000000E+00  0.22563075563E+03  0.22563075563E+03  0.00000000000E+00 0.  1.
         13   -1    0    0    0    0 -0.00000000000E+00 -0.00000000000E+00 -0.27500000000E+03  0.27500000000E+03  0.00000000000E+00 0.  1.
    9000005    2    1    2  501    0 -0.12390541207E+02  0.36176279474E+02 -0.55625449800E+02  0.46188299680E+03  0.45692391419E+03 0.  0.
         13    1    3    3    0    0 -0.23225979298E+03  0.93146231879E+01 -0.60987536243E+02  0.24031407203E+03  0.00000000000E+00 0.  1.
          3    1    3    3  501    0  0.21986925177E+03  0.26861656286E+02  0.53620864438E+01  0.22156892477E+03  0.00000000000E+00 0.  1.
         21    1    1    2  502  501  0.12390541207E+02 -0.36176279474E+02  0.62562054301E+01  0.38747758830E+02  0.00000000000E+00 0. -1.
<scales pt_clust_4="550.00000" pt_clust_5="550.00000" pt_clust_6="38.23936"></scales>
<mgrwt>
<rscale>  0 0.30000000E+03</rscale>
<asrwt>  1 0.38239361E+02</asrwt>
<pdfrwt beam="1">  1        1 0.82047548E+00 0.30000000E+03</pdfrwt>
<pdfrwt beam="2">0</pdfrwt>
<totfact> 0.70477292E-04</totfact>
</mgrwt>
<clustering>
<clus scale="   38.239">  1  6  2 -1</clus>
<clus scale="  456.924">  4  5 -1 -1</clus>
<clus scale="  300.000">  1  4  2 -1</clus>
</clustering>
</event>
<event>
 6    1  0.9480355E-012  0.3000000E+03  0.7818608E-02  0.1093470E+00
          1   -1    0    0  502    0  0.00000000000E+00  0.00000000000E+00  0.22078607822E+03  0.22078607822E+03  0.00000000000E+00 0.  1.
         13   -1    0    0    0    0 -0.00000000000E+00 -0.00000000000E+00 -0.27500000000E+03  0.27500000000E+03  0.00000000000E+00 0.  1.
    9000005    2    1    2  501    0 -0.16388690142E+01  0.31459124184E+02 -0.36904266401E+02  0.45984186373E+03  0.45727481056E+03 0.  0.
         13    1    3    3    0    0  0.57557294621E+02 -0.12230185898E+03  0.15582722636E+03  0.20628308547E+03  0.00000000000E+00 0.  1.
          3    1    3    3  501    0 -0.59196163636E+02  0.15376098317E+03 -0.19273149276E+03  0.25355877826E+03  0.00000000000E+00 0.  1.
         21    1    1    2  502  501  0.16388690142E+01 -0.31459124184E+02 -0.17309655379E+02  0.35944214491E+02  0.00000000000E+00 0.  1.
<scales pt_clust_4="550.00000" pt_clust_5="550.00000" pt_clust_6="31.50180"></scales>
<mgrwt>
<rscale>  0 0.30000000E+03</rscale>
<asrwt>  1 0.31501800E+02</asrwt>
<pdfrwt beam="1">  1        1 0.80285847E+00 0.30000000E+03</pdfrwt>
<pdfrwt beam="2">0</pdfrwt>
<totfact> 0.10084324E-03</totfact>
</mgrwt>
<clustering>
<clus scale="   31.502">  1  6  2 -1</clus>
<clus scale="  457.275">  4  5 -1 -1</clus>
<clus scale="  300.000">  1  4  2 -1</clus>
</clustering>
</event>
<event>
 6    1  0.9480355E-012  0.3000000E+03  0.7818608E-02  0.1093470E+00
          1   -1    0    0  502    0  0.00000000000E+00  0.00000000000E+00  0.24377657177E+03  0.24377657177E+03  0.00000000000E+00 0.  1.
         13   -1    0    0    0    0 -0.00000000000E+00 -0.00000000000E+00 -0.27500000000E+03  0.27500000000E+03  0.00000000000E+00 0.  1.
    9000005    2    1    2  501    0 -0.61486965557E+01 -0.35529632255E+02 -0.71018619031E+02  0.46507537580E+03  0.45820443002E+03 0.  0.
         13    1    3    3    0    0 -0.76319243425E+02  0.39273911492E+01  0.18315452860E+03  0.19845813832E+03  0.00000000000E+00 0.  1.
          1    1    3    3  501    0  0.70170546869E+02 -0.39457023404E+02 -0.25417314763E+03  0.26661723748E+03  0.00000000000E+00 0.  1.
         21    1    1    2  502  501  0.61486965557E+01  0.35529632255E+02  0.39795190801E+02  0.53701195968E+02  0.00000000000E+00 0.  1.
<scales pt_clust_4="550.00000" pt_clust_5="550.00000" pt_clust_6="36.05775"></scales>
<mgrwt>
<rscale>  0 0.30000000E+03</rscale>
<asrwt>  1 0.36057749E+02</asrwt>
<pdfrwt beam="1">  1        1 0.88646026E+00 0.30000000E+03</pdfrwt>
<pdfrwt beam="2">0</pdfrwt>
<totfact> 0.16113253E-04</totfact>
</mgrwt>
<clustering>
<clus scale="   36.058">  1  6  2 -1</clus>
<clus scale="  458.204">  4  5 -1 -1</clus>
<clus scale="  300.000">  1  4  2 -1</clus>
</clustering>
</event>
<event>
 6    1  0.9480355E-012  0.3000000E+03  0.7818608E-02  0.1093470E+00
          1   -1    0    0  502    0  0.00000000000E+00  0.00000000000E+00  0.23941889023E+03  0.23941889023E+03  0.00000000000E+00 0.  1.
         13   -1    0    0    0    0 -0.00000000000E+00 -0.00000000000E+00 -0.27500000000E+03  0.27500000000E+03  0.00000000000E+00 0.  1.
    9000005    2    1    2  501    0  0.34163799393E+02  0.32872273711E+01 -0.45786713511E+02  0.47861211153E+03  0.47517908111E+03 0.  0.
         13    1    3    3    0    0  0.76986506141E+02  0.15948594622E+03 -0.19143888481E+03  0.26079021413E+03  0.00000000000E+00 0.  1.
          3    1    3    3  501    0 -0.42822706748E+02 -0.15619871885E+03  0.14565217130E+03  0.21782189740E+03  0.00000000000E+00 0.  1.
         21    1    1    2  502  501 -0.34163799393E+02 -0.32872273711E+01  0.10205603739E+02  0.35806778694E+02  0.00000000000E+00 0. -1.
<scales pt_clust_4="550.00000" pt_clust_5="550.00000" pt_clust_6="34.32158"></scales>
<mgrwt>
<rscale>  0 0.30000000E+03</rscale>
<asrwt>  1 0.34321583E+02</asrwt>
<pdfrwt beam="1">  1        1 0.87061415E+00 0.30000000E+03</pdfrwt>
<pdfrwt beam="2">0</pdfrwt>
<totfact> 0.25053583E-04</totfact>
</mgrwt>
<clustering>
<clus scale="   34.322">  1  6  2 -1</clus>
<clus scale="  475.179">  4  5 -1 -1</clus>
<clus scale="  300.000">  1  4  2 -1</clus>
</clustering>
</event>
<event>
 6    1  0.9480355E-012  0.3000000E+03  0.7818608E-02  0.1093470E+00
          1   -1    0    0  502    0  0.00000000000E+00  0.00000000000E+00  0.23554992738E+03  0.23554992738E+03  0.00000000000E+00 0.  1.
         13   -1    0    0    0    0 -0.00000000000E+00 -0.00000000000E+00 -0.27500000000E+03  0.27500000000E+03  0.00000000000E+00 0.  1.
    9000005    2    1    2  501    0 -0.28296902129E+02 -0.19156737387E+02 -0.59920353078E+02  0.47071617738E+03  0.46563459458E+03 0.  0.
         13    1    3    3    0    0 -0.31250486754E+02  0.68178295949E+02  0.19090281697E+03  0.20510670025E+03  0.00000000000E+00 0.  1.
          3    1    3    3  501    0  0.29535846248E+01 -0.87335033336E+02 -0.25082317004E+03  0.26560947713E+03  0.00000000000E+00 0.  1.
         21    1    1    2  502  501  0.28296902129E+02  0.19156737387E+02  0.20470280462E+02  0.39833750007E+02  0.00000000000E+00 0.  1.
<scales pt_clust_4="550.00000" pt_clust_5="550.00000" pt_clust_6="34.17156"></scales>
<mgrwt>
<rscale>  0 0.30000000E+03</rscale>
<asrwt>  1 0.34171556E+02</asrwt>
<pdfrwt beam="1">  1        1 0.85654519E+00 0.30000000E+03</pdfrwt>
<pdfrwt beam="2">0</pdfrwt>
<totfact> 0.35310586E-04</totfact>
</mgrwt>
<clustering>
<clus scale="   34.172">  1  6  2 -1</clus>
<clus scale="  465.635">  4  5 -1 -1</clus>
<clus scale="  300.000">  1  4  2 -1</clus>
</clustering>
</event>
<event>
 6    1  0.9480355E-012  0.3000000E+03  0.7818608E-02  0.1093470E+00
          1   -1    0    0  502    0  0.00000000000E+00  0.00000000000E+00  0.23166007896E+03  0.23166007896E+03  0.00000000000E+00 0.  1.
         13   -1    0    0    0    0 -0.00000000000E+00 -0.00000000000E+00 -0.27500000000E+03  0.27500000000E+03  0.00000000000E+00 0.  1.
    9000005    2    1    2  501    0 -0.74660380586E+01 -0.31798046759E+02 -0.69560120825E+02  0.46477504131E+03  0.45837797844E+03 0.  0.
         13    1    3    3    0    0 -0.64867028403E+02  0.11635809713E+03  0.14557349978E+03  0.19732861419E+03  0.00000000000E+00 0.  1.
          3    1    3    3  501    0  0.57400990345E+02 -0.14815614389E+03 -0.21513362060E+03  0.26744642712E+03  0.00000000000E+00 0.  1.
         21    1    1    2  502  501  0.74660380586E+01  0.31798046759E+02  0.26220199788E+02  0.41885037650E+02  0.00000000000E+00 0. -1.
<scales pt_clust_4="550.00000" pt_clust_5="550.00000" pt_clust_6="32.66278"></scales>
<mgrwt>
<rscale>  0 0.30000000E+03</rscale>
<asrwt>  1 0.32662785E+02</asrwt>
<pdfrwt beam="1">  1        1 0.84240029E+00 0.30000000E+03</pdfrwt>
<pdfrwt beam="2">0</pdfrwt>
<totfact> 0.48174140E-04</totfact>
</mgrwt>
<clustering>
<clus scale="   32.663">  1  6  2 -1</clus>
<clus scale="  458.378">  4  5 -1 -1</clus>
<clus scale="  300.000">  1  4  2 -1</clus>
</clustering>
</event>
<event>
 6    1  0.9480355E-012  0.3000000E+03  0.7818608E-02  0.1093470E+00
          1   -1    0    0  502    0  0.00000000000E+00  0.00000000000E+00  0.24735988486E+03  0.24735988486E+03  0.00000000000E+00 0.  1.
         13   -1    0    0    0    0 -0.00000000000E+00 -0.00000000000E+00 -0.27500000000E+03  0.27500000000E+03  0.00000000000E+00 0.  1.
    9000005    2    1    2  501    0 -0.12581971716E+02 -0.27242936415E+02 -0.56336218532E+02  0.48083940863E+03  0.47658397347E+03 0.  0.
         13    1    3    3    0    0 -0.11913734287E+03 -0.50966557723E+02  0.17925425756E+03  0.22118631360E+03  0.00000000000E+00 0.  1.
          1    1    3    3  501    0  0.10655537116E+03  0.23723621308E+02 -0.23559047609E+03  0.25965309502E+03  0.00000000000E+00 0.  1.
         21    1    1    2  502  501  0.12581971716E+02  0.27242936415E+02  0.28696103393E+02  0.41520476234E+02  0.00000000000E+00 0.  1.
<scales pt_clust_4="550.00000" pt_clust_5="550.00000" pt_clust_6="30.00806"></scales>
<mgrwt>
<rscale>  0 0.30000000E+03</rscale>
<asrwt>  1 0.30008059E+02</asrwt>
<pdfrwt beam="1">  1        1 0.89949049E+00 0.30000000E+03</pdfrwt>
<pdfrwt beam="2">0</pdfrwt>
<totfact> 0.11537787E-04</totfact>
</mgrwt>
<clustering>
<clus scale="   30.008">  1  6  2 -1</clus>
<clus scale="  476.584">  4  5 -1 -1</clus>
<clus scale="  300.000">  1  4  2 -1</clus>
</clustering>
</event>
<event>
 6    1  0.9480355E-012  0.3000000E+03  0.7818608E-02  0.1093470E+00
          1   -1    0    0  502    0  0.00000000000E+00  0.00000000000E+00  0.23044288112E+03  0.23044288112E+03  0.00000000000E+00 0.  1.
         13   -1    0    0    0    0 -0.00000000000E+00 -0.00000000000E+00 -0.27500000000E+03  0.27500000000E+03  0.00000000000E+00 0.  1.
    9000005    2    1    2  501    0 -0.31884912445E+02  0.14673027753E+02 -0.46532915565E+02  0.47028823481E+03  0.46666236851E+03 0.  0.
         13    1    3    3    0    0 -0.20134900610E+03  0.34333025327E+02  0.11579885703E+03  0.23479683595E+03  0.00000000000E+00 0.  1.
          3    1    3    3  501    0  0.16946409365E+03 -0.19659997574E+02 -0.16233177259E+03  0.23549139886E+03  0.00000000000E+00 0.  1.
         21    1    1    2  502  501  0.31884912445E+02 -0.14673027753E+02  0.19757966879E+01  0.35154646316E+02  0.00000000000E+00 0. -1.
<scales pt_clust_4="550.00000" pt_clust_5="550.00000" pt_clust_6="35.09908"></scales>
<mgrwt>
<rscale>  0 0.30000000E+03</rscale>
<asrwt>  1 0.35099080E+02</asrwt>
<pdfrwt beam="1">  1        1 0.83797411E+00 0.30000000E+03</pdfrwt>
<pdfrwt beam="2">0</pdfrwt>
<totfact> 0.51442445E-04</totfact>
</mgrwt>
<clustering>
<clus scale="   35.099">  1  6  2 -1</clus>
<clus scale="  466.662">  4  5 -1 -1</clus>
<clus scale="  300.000">  1  4  2 -1</clus>
</clustering>
</event>
<event>
 6    1  0.9480355E-012  0.3000000E+03  0.7818608E-02  0.1093470E+00
          1   -1    0    0  502    0  0.00000000000E+00  0.00000000000E+00  0.23323762807E+03  0.23323762807E+03  0.00000000000E+00 0.  1.
         13   -1    0    0    0    0 -0.00000000000E+00 -0.00000000000E+00 -0.27500000000E+03  0.27500000000E+03  0.00000000000E+00 0.  1.
    9000005    2    1    2  501    0  0.23865992588E+02 -0.27371753775E+02 -0.57921697814E+02  0.46848939138E+03  0.46347447422E+03 0.  0.
         13    1    3    3    0    0 -0.13226737349E+03 -0.14938623937E+03  0.92288517187E+02  0.21983647789E+03  0.00000000000E+00 0.  1.
          1    1    3    3  501    0  0.15613336608E+03  0.12201448560E+03 -0.15021021500E+03  0.24865291350E+03  0.00000000000E+00 0.  1.
         21    1    1    2  502  501 -0.23865992588E+02  0.27371753775E+02  0.16159325886E+02  0.39748236691E+02  0.00000000000E+00 0.  1.
<scales pt_clust_4="550.00000" pt_clust_5="550.00000" pt_clust_6="36.31527"></scales>
<mgrwt>
<rscale>  0 0.30000000E+03</rscale>
<asrwt>  1 0.36315265E+02</asrwt>
<pdfrwt beam="1">  1        1 0.84813683E+00 0.30000000E+03</pdfrwt>
<pdfrwt beam="2">0</pdfrwt>
<totfact> 0.42061056E-04</totfact>
</mgrwt>
<clustering>
<clus scale="   36.315">  1  6  2 -1</clus>
<clus scale="  463.474">  4  5 -1 -1</clus>
<clus scale="  300.000">  1  4  2 -1</clus>
</clustering>
</event>
<event>
 6    1  0.9480355E-012  0.3000000E+03  0.7818608E-02  0.1093470E+00
          1   -1    0    0  502    0  0.00000000000E+00  0.00000000000E+00  0.25498206690E+03  0.25498206690E+03  0.00000000000E+00 0.  1.
         13   -1    0    0    0    0 -0.00000000000E+00 -0.00000000000E+00 -0.27500000000E+03  0.27500000000E+03  0.00000000000E+00 0.  1.
    9000005    2    1    2  501    0  0.43511387046E+02  0.32634017020E+02 -0.41147436302E+02  0.47163246729E+03  0.46667531841E+03 0.  0.
         13    1    3    3    0    0  0.31039671038E+01 -0.76464776310E+02 -0.23411563714E+03  0.24630596457E+03  0.00000000000E+00 0.  1.
          1    1    3    3  501    0  0.40407419942E+02  0.10909879333E+03  0.19296820084E+03  0.22532650272E+03  0.00000000000E+00 0.  1.
         21    1    1    2  502  501 -0.43511387046E+02 -0.32634017020E+02  0.21129503201E+02  0.58349599613E+02  0.00000000000E+00 0.  1.
<scales pt_clust_4="550.00000" pt_clust_5="550.00000" pt_clust_6="54.38952"></scales>
<mgrwt>
<rscale>  0 0.30000000E+03</rscale>
<asrwt>  1 0.54389520E+02</asrwt>
<pdfrwt beam="1">  1        1 0.92720752E+00 0.30000000E+03</pdfrwt>
<pdfrwt beam="2">0</pdfrwt>
<totfact> 0.27282946E-05</totfact>
</mgrwt>
<clustering>
<clus scale="   54.390">  1  6  2 -1</clus>
<clus scale="  466.675">  4  5 -1 -1</clus>
<clus scale="  300.000">  1  4  2 -1</clus>
</clustering>
</event>
<event>
 6    1  0.9480355E-012  0.3000000E+03  0.7818608E-02  0.1093470E+00
          1   -1    0    0  502    0  0.00000000000E+00  0.00000000000E+00  0.24294900931E+03  0.24294900931E+03  0.00000000000E+00 0.  1.
         13   -1    0    0    0    0 -0.00000000000E+00 -0.00000000000E+00 -0.27500000000E+03  0.27500000000E+03  0.00000000000E+00 0.  1.
    9000005    2    1    2  501    0  0.26416732905E+02 -0.27460414281E+02 -0.41235466612E+02  0.47875369418E+03  0.47545012132E+03 0.  0.
         13    1    3    3    0    0  0.15601295030E+03 -0.16235378856E+03 -0.14207912680E+03  0.26624288084E+03  0.00000000000E+00 0.  1.
          3    1    3    3  501    0 -0.12959621740E+03  0.13489337428E+03  0.10084366019E+03  0.21251081335E+03  0.00000000000E+00 0.  1.
         21    1    1    2  502  501 -0.26416732905E+02  0.27460414281E+02  0.91844759225E+01  0.39195315126E+02  0.00000000000E+00 0.  1.
<scales pt_clust_4="550.00000" pt_clust_5="550.00000" pt_clust_6="38.10404"></scales>
<mgrwt>
<rscale>  0 0.30000000E+03</rscale>
<asrwt>  1 0.38104043E+02</asrwt>
<pdfrwt beam="1">  1        1 0.88345094E+00 0.30000000E+03</pdfrwt>
<pdfrwt beam="2">0</pdfrwt>
<totfact> 0.17533724E-04</totfact>
</mgrwt>
<clustering>
<clus scale="   38.104">  1  6  2 -1</clus>
<clus scale="  475.450">  4  5 -1 -1</clus>
<clus scale="  300.000">  1  4  2 -1</clus>
</clustering>
</event>
<event>
 6    1  0.9480355E-012  0.3000000E+03  0.7818608E-02  0.1093470E+00
          1   -1    0    0  502    0  0.00000000000E+00  0.00000000000E+00  0.22890034144E+03  0.22890034144E+03  0.00000000000E+00 0.  1.
         13   -1    0    0    0    0 -0.00000000000E+00 -0.00000000000E+00 -0.27500000000E+03  0.27500000000E+03  0.00000000000E+00 0.  1.
    9000005    2    1    2  501    0 -0.61227551026E+01 -0.31722122302E+02 -0.68683377982E+02  0.46448200109E+03  0.45823830236E+03 0.  0.
         13    1    3    3    0    0  0.23373226447E+02  0.18264665343E+03  0.81209195080E+02  0.20124870457E+03  0.00000000000E+00 0.  1.
          3    1    3    3  501    0 -0.29495981549E+02 -0.21436877573E+03 -0.14989257306E+03  0.26323329652E+03  0.00000000000E+00 0.  1.
         21    1    1    2  502  501  0.61227551026E+01  0.31722122302E+02  0.22583719421E+02  0.39418340354E+02  0.00000000000E+00 0.  1.
<scales pt_clust_4="550.00000" pt_clust_5="550.00000" pt_clust_6="32.30760"></scales>
<mgrwt>
<rscale>  0 0.30000000E+03</rscale>
<asrwt>  1 0.32307602E+02</asrwt>
<pdfrwt beam="1">  1        1 0.83236488E+00 0.30000000E+03</pdfrwt>
<pdfrwt beam="2">0</pdfrwt>
<totfact> 0.57461373E-04</totfact>
</mgrwt>
<clustering>
<clus scale="   32.308">  1  6  2 -1</clus>
<clus scale="  458.238">  4  5 -1 -1</clus>
<clus scale="  300.000">  1  4  2 -1</clus>
</clustering>
</event>
<event>
 6    1  0.9480355E-012  0.3000000E+03  0.7818608E-02  0.1093470E+00
          1   -1    0    0  502    0  0.00000000000E+00  0.00000000000E+00  0.24321399237E+03  0.24321399237E+03  0.00000000000E+00 0.  1.
         13   -1    0    0    0    0 -0.00000000000E+00 -0.00000000000E+00 -0.27500000000E+03  0.27500000000E+03  0.00000000000E+00 0.  1.
    9000005    2    1    2  501    0 -0.41255844401E+02 -0.21955282142E+02 -0.38425913823E+02  0.47101052359E+03  0.46710842785E+03 0.  0.
         13    1    3    3    0    0  0.12457076752E+03 -0.72868122327E+02  0.15460047030E+03  0.21149218612E+03  0.00000000000E+00 0.  1.
          1    1    3    3  501    0 -0.16582661192E+03  0.50912840185E+02 -0.19302638412E+03  0.25951833747E+03  0.00000000000E+00 0.  1.
         21    1    1    2  502  501  0.41255844401E+02  0.21955282142E+02  0.66399061971E+01  0.47203468787E+02  0.00000000000E+00 0.  1.
<scales pt_clust_4="550.00000" pt_clust_5="550.00000" pt_clust_6="46.73413"></scales>
<mgrwt>
<rscale>  0 0.30000000E+03</rscale>
<asrwt>  1 0.46734132E+02</asrwt>
<pdfrwt beam="1">  1        1 0.88441452E+00 0.30000000E+03</pdfrwt>
<pdfrwt beam="2">0</pdfrwt>
<totfact> 0.16399242E-04</totfact>
</mgrwt>
<clustering>
<clus scale="   46.734">  1  6  2 -1</clus>
<clus scale="  467.108">  4  5 -1 -1</clus>
<clus scale="  300.000">  1  4  2 -1</clus>
</clustering>
</event>
<event>
 6    1  0.9480355E-012  0.3000000E+03  0.7818608E-02  0.1093470E+00
          1   -1    0    0  502    0  0.00000000000E+00  0.00000000000E+00  0.23680635022E+03  0.23680635022E+03  0.00000000000E+00 0.  1.
         13   -1    0    0    0    0 -0.00000000000E+00 -0.00000000000E+00 -0.27500000000E+03  0.27500000000E+03  0.00000000000E+00 0.  1.
    9000005    2    1    2  501    0  0.28479423084E+02 -0.23692950541E+02 -0.19713687745E+02  0.47040656228E+03  0.46853097113E+03 0.  0.
         13    1    3    3    0    0 -0.16169460214E+03  0.13550681844E+02  0.14383090819E+03  0.21683195219E+03  0.00000000000E+00 0.  1.
          1    1    3    3  501    0  0.19017402522E+03 -0.37243632385E+02 -0.16354459594E+03  0.25357461009E+03  0.00000000000E+00 0.  1.
         21    1    1    2  502  501 -0.28479423084E+02  0.23692950541E+02 -0.18479962038E+02  0.41399787939E+02  0.00000000000E+00 0.  1.
<scales pt_clust_4="550.00000" pt_clust_5="550.00000" pt_clust_6="37.04639"></scales>
<mgrwt>
<rscale>  0 0.30000000E+03</rscale>
<asrwt>  1 0.37046387E+02</asrwt>
<pdfrwt beam="1">  1        1 0.86111400E+00 0.30000000E+03</pdfrwt>
<pdfrwt beam="2">0</pdfrwt>
<totfact> 0.31138358E-04</totfact>
</mgrwt>
<clustering>
<clus scale="   37.046">  1  6  2 -1</clus>
<clus scale="  468.531">  4  5 -1 -1</clus>
<clus scale="  300.000">  1  4  2 -1</clus>
</clustering>
</event>
<event>
 6    1  0.9480355E-012  0.3000000E+03  0.7818608E-02  0.1093470E+00
          1   -1    0    0  502    0  0.00000000000E+00  0.00000000000E+00  0.23281994589E+03  0.23281994589E+03  0.00000000000E+00 0.  1.
         13   -1    0    0    0    0 -0.00000000000E+00 -0.00000000000E+00 -0.27500000000E+03  0.27500000000E+03  0.00000000000E+00 0.  1.
    9000005    2    1    2  501    0  0.28281848601E+02 -0.12383781374E+02 -0.23306173623E+02  0.47163370036E+03  0.47004462403E+03 0.  0.
         13    1    3    3    0    0 -0.19739187567E+03 -0.95031657866E+02  0.40926063242E+02  0.22286657719E+03  0.00000000000E+00 0.  1.
          3    1    3    3  501    0  0.22567372427E+03  0.82647876492E+02 -0.64232236865E+02  0.24876712316E+03  0.00000000000E+00 0.  1.
         21    1    1    2  502  501 -0.28281848601E+02  0.12383781374E+02 -0.18873880485E+02  0.36186245535E+02  0.00000000000E+00 0.  1.
<scales pt_clust_4="550.00000" pt_clust_5="550.00000" pt_clust_6="30.87429"></scales>
<mgrwt>
<rscale>  0 0.30000000E+03</rscale>
<asrwt>  1 0.30874293E+02</asrwt>
<pdfrwt beam="1">  1        1 0.84661799E+00 0.30000000E+03</pdfrwt>
<pdfrwt beam="2">0</pdfrwt>
<totfact> 0.44766236E-04</totfact>
</mgrwt>
<clustering>
<clus scale="   30.874">  1  6  2 -1</clus>
<clus scale="  470.045">  4  5 -1 -1</clus>
<clus scale="  300.000">  1  4  2 -1</clus>
</clustering>
</event>
<event>
 6    1  0.9480355E-012  0.3000000E+03  0.7818608E-02  0.1093470E+00
          1   -1    0    0  502    0  0.00000000000E+00  0.00000000000E+00  0.24355058606E+03  0.24355058606E+03  0.00000000000E+00 0.  1.
         13   -1    0    0    0    0 -0.00000000000E+00 -0.00000000000E+00 -0.27500000000E+03  0.27500000000E+03  0.00000000000E+00 0.  1.
    9000005    2    1    2  501    0  0.20411530638E+02  0.27394056537E+02 -0.52285722854E+02  0.47853538038E+03  0.47444203918E+03 0.  0.
         13    1    3    3    0    0 -0.11673074505E+03 -0.18348397863E+03  0.15475946510E+02  0.21801821524E+03  0.00000000000E+00 0.  1.
          1    1    3    3  501    0  0.13714227569E+03  0.21087803517E+03 -0.67761669364E+02  0.26051716514E+03  0.00000000000E+00 0.  1.
         21    1    1    2  502  501 -0.20411530638E+02 -0.27394056537E+02  0.20836308918E+02  0.40015205683E+02  0.00000000000E+00 0.  1.
<scales pt_clust_4="550.00000" pt_clust_5="550.00000" pt_clust_6="34.16233"></scales>
<mgrwt>
<rscale>  0 0.30000000E+03</rscale>
<asrwt>  1 0.34162332E+02</asrwt>
<pdfrwt beam="1">  1        1 0.88563849E+00 0.30000000E+03</pdfrwt>
<pdfrwt beam="2">0</pdfrwt>
<totfact> 0.16707209E-04</totfact>
</mgrwt>
<clustering>
<clus scale="   34.162">  1  6  2 -1</clus>
<clus scale="  474.442">  4  5 -1 -1</clus>
<clus scale="  300.000">  1  4  2 -1</clus>
</clustering>
</event>
<event>
 6    1  0.9480355E-012  0.3000000E+03  0.7818608E-02  0.1093470E+00
          1   -1    0    0  502    0  0.00000000000E+00  0.00000000000E+00  0.24424183483E+03  0.24424183483E+03  0.00000000000E+00 0.  1.
         13   -1    0    0    0    0 -0.00000000000E+00 -0.00000000000E+00 -0.27500000000E+03  0.27500000000E+03  0.00000000000E+00 0.  1.
    9000005    2    1    2  501    0  0.26340518495E+01  0.43893391236E+02 -0.53208878032E+02  0.46986975232E+03  0.46477180575E+03 0.  0.
         13    1    3    3    0    0 -0.15456419077E+03  0.43599923828E+02 -0.19883074829E+03  0.25558698889E+03  0.00000000000E+00 0.  1.
          1    1    3    3  501    0  0.15719824262E+03  0.29346740851E+00  0.14562187026E+03  0.21428276343E+03  0.00000000000E+00 0.  1.
         21    1    1    2  502  501 -0.26340518495E+01 -0.43893391236E+02  0.22450712858E+02  0.49372082508E+02  0.00000000000E+00 0.  1.
<scales pt_clust_4="550.00000" pt_clust_5="550.00000" pt_clust_6="43.97236"></scales>
<mgrwt>
<rscale>  0 0.30000000E+03</rscale>
<asrwt>  1 0.43972355E+02</asrwt>
<pdfrwt beam="1">  1        1 0.88815213E+00 0.30000000E+03</pdfrwt>
<pdfrwt beam="2">0</pdfrwt>
<totfact> 0.14726879E-04</totfact>
</mgrwt>
<clustering>
<clus scale="   43.972">  1  6  2 -1</clus>
<clus scale="  464.772">  4  5 -1 -1</clus>
<clus scale="  300.000">  1  4  2 -1</clus>
</clustering>
</event>
<event>
 6    1  0.9480355E-012  0.3000000E+03  0.7818608E-02  0.1093470E+00
          1   -1    0    0  502    0  0.00000000000E+00  0.00000000000E+00  0.25327057036E+03  0.25327057036E+03  0.00000000000E+00 0.  1.
         13   -1    0    0    0    0 -0.00000000000E+00 -0.00000000000E+00 -0.27500000000E+03  0.27500000000E+03  0.00000000000E+00 0.  1.
    9000005    2    1    2  501    0  0.13323961447E+02  0.27102547189E+02 -0.28671106908E+02  0.49728246141E+03  0.49553580904E+03 0.  0.
         13    1    3    3    0    0 -0.18071542840E+03  0.17537759756E+03 -0.24837146765E+02  0.25304594771E+03  0.00000000000E+00 0.  1.
          1    1    3    3  501    0  0.19403938985E+03 -0.14827505038E+03 -0.38339601429E+01  0.24423651371E+03  0.00000000000E+00 0.  1.
         21    1    1    2  502  501 -0.13323961447E+02 -0.27102547189E+02  0.69416772666E+01  0.30988108946E+02  0.00000000000E+00 0.  1.
<scales pt_clust_4="550.00000" pt_clust_5="550.00000" pt_clust_6="30.20060"></scales>
<mgrwt>
<rscale>  0 0.30000000E+03</rscale>
<asrwt>  1 0.30200596E+02</asrwt>
<pdfrwt beam="1">  1        1 0.92098389E+00 0.30000000E+03</pdfrwt>
<pdfrwt beam="2">0</pdfrwt>
<totfact> 0.40936616E-05</totfact>
</mgrwt>
<clustering>
<clus scale="   30.201">  1  6  2 -1</clus>
<clus scale="  495.536">  4  5 -1 -1</clus>
<clus scale="  300.000">  1  4  2 -1</clus>
</clustering>
</event>
<event>
 6    1  0.9480355E-012  0.3000000E+03  0.7818608E-02  0.1093470E+00
          1   -1    0    0  502    0  0.00000000000E+00  0.00000000000E+00  0.25023225535E+03  0.25023225535E+03  0.00000000000E+00 0.  1.
         13   -1    0    0    0    0 -0.00000000000E+00 -0.00000000000E+00 -0.27500000000E+03  0.27500000000E+03  0.00000000000E+00 0.  1.
    9000005    2    1    2  501    0  0.30787454682E+02  0.14230778523E+02 -0.41816609195E+02  0.48727114096E+03  0.48428726350E+03 0.  0.
         13    1    3    3    0    0 -0.61712853623E+02 -0.14767000324E+03  0.15029232922E+03  0.21955111109E+03  0.00000000000E+00 0.  1.
          3    1    3    3  501    0  0.92500308305E+02  0.16190078176E+03 -0.19210893842E+03  0.26772002987E+03  0.00000000000E+00 0.  1.
         21    1    1    2  502  501 -0.30787454682E+02 -0.14230778523E+02  0.17048864544E+02  0.37961114386E+02  0.00000000000E+00 0.  1.
<scales pt_clust_4="550.00000" pt_clust_5="550.00000" pt_clust_6="33.91729"></scales>
<mgrwt>
<rscale>  0 0.30000000E+03</rscale>
<asrwt>  1 0.33917288E+02</asrwt>
<pdfrwt beam="1">  1        1 0.90993547E+00 0.30000000E+03</pdfrwt>
<pdfrwt beam="2">0</pdfrwt>
<totfact> 0.72544494E-05</totfact>
</mgrwt>
<clustering>
<clus scale="   33.917">  1  6  2 -1</clus>
<clus scale="  484.287">  4  5 -1 -1</clus>
<clus scale="  300.000">  1  4  2 -1</clus>
</clustering>
</event>
<event>
 6    1  0.9480355E-012  0.3000000E+03  0.7818608E-02  0.1093470E+00
          1   -1    0    0  502    0  0.00000000000E+00  0.00000000000E+00  0.23524991509E+03  0.23524991509E+03  0.00000000000E+00 0.  1.
         13   -1    0    0    0    0 -0.00000000000E+00 -0.00000000000E+00 -0.27500000000E+03  0.27500000000E+03  0.00000000000E+00 0.  1.
    9000005    2    1    2  501    0  0.63532994247E+01 -0.34813068279E+02 -0.32040963795E+02  0.47403189906E+03  0.47162199253E+03 0.  0.
         13    1    3    3    0    0 -0.17986397466E+03 -0.15418608301E+03 -0.75426203180E+02  0.24862322840E+03  0.00000000000E+00 0.  1.
          1    1    3    3  501    0  0.18621727408E+03  0.11937301473E+03  0.43385239384E+02  0.22540867066E+03  0.00000000000E+00 0.  1.
         21    1    1    2  502  501 -0.63532994247E+01  0.34813068279E+02 -0.77091211139E+01  0.36218016026E+02  0.00000000000E+00 0.  1.
<scales pt_clust_4="550.00000" pt_clust_5="550.00000" pt_clust_6="35.38807"></scales>
<mgrwt>
<rscale>  0 0.30000000E+03</rscale>
<asrwt>  1 0.35388068E+02</asrwt>
<pdfrwt beam="1">  1        1 0.85545424E+00 0.30000000E+03</pdfrwt>
<pdfrwt beam="2">0</pdfrwt>
<totfact> 0.35981915E-04</totfact>
</mgrwt>
<clustering>
<clus scale="   35.388">  1  6  2 -1</clus>
<clus scale="  471.622">  4  5 -1 -1</clus>
<clus scale="  300.000">  1  4  2 -1</clus>
</clustering>
</event>
<event>
 6    1  0.9480355E-012  0.3000000E+03  0.7818608E-02  0.1093470E+00
          1   -1    0    0  502    0  0.00000000000E+00  0.00000000000E+00  0.23095030870E+03  0.23095030870E+03  0.00000000000E+00 0.  1.
         13   -1    0    0    0    0 -0.00000000000E+00 -0.00000000000E+00 -0.27500000000E+03  0.27500000000E+03  0.00000000000E+00 0.  1.
    9000005    2    1    2  501    0  0.23313387033E+02  0.37779888285E+02 -0.31689181322E+02  0.45986759848E+03  0.45662147338E+03 0.  0.
         13    1    3    3    0    0 -0.14022477922E+03  0.84024637152E+02  0.14223968412E+03  0.21669161519E+03  0.00000000000E+00 0.  1.
          1    1    3    3  501    0  0.16353816625E+03 -0.46244748867E+02 -0.17392886544E+03  0.24317598330E+03  0.00000000000E+00 0.  1.
         21    1    1    2  502  501 -0.23313387033E+02 -0.37779888285E+02 -0.12360509979E+02  0.46082710215E+02  0.00000000000E+00 0.  1.
<scales pt_clust_4="550.00000" pt_clust_5="550.00000" pt_clust_6="44.39410"></scales>
<mgrwt>
<rscale>  0 0.30000000E+03</rscale>
<asrwt>  1 0.44394098E+02</asrwt>
<pdfrwt beam="1">  1        1 0.83981930E+00 0.30000000E+03</pdfrwt>
<pdfrwt beam="2">0</pdfrwt>
<totfact> 0.47739740E-04</totfact>
</mgrwt>
<clustering>
<clus scale="   44.394">  1  6  2 -1</clus>
<clus scale="  456.621">  4  5 -1 -1</clus>
<clus scale="  300.000">  1  4  2 -1</clus>
</clustering>
</event>
<event>
 6    1  0.9480355E-012  0.3000000E+03  0.7818608E-02  0.1093470E+00
          1   -1    0    0  502    0  0.00000000000E+00  0.00000000000E+00  0.24983526371E+03  0.24983526371E+03  0.00000000000E+00 0.  1.
         13   -1    0    0    0    0 -0.00000000000E+00 -0.00000000000E+00 -0.27500000000E+03  0.27500000000E+03  0.00000000000E+00 0.  1.
    9000005    2    1    2  501    0  0.48916636802E+01 -0.35153858018E+02 -0.69981503800E+02  0.46766652438E+03  0.46103670682E+03 0.  0.
         13    1    3    3    0    0  0.76484955122E+02  0.19837408659E+03  0.33687509602E+01  0.21263483974E+03  0.00000000000E+00 0.  1.
          1    1    3    3  501    0 -0.71593291441E+02 -0.23352794461E+03 -0.73350254760E+02  0.25503168463E+03  0.00000000000E+00 0.  1.
         21    1    1    2  502  501 -0.48916636802E+01  0.35153858018E+02  0.44816767512E+02  0.57168739337E+02  0.00000000000E+00 0. -1.
<scales pt_clust_4="550.00000" pt_clust_5="550.00000" pt_clust_6="35.49256"></scales>
<mgrwt>
<rscale>  0 0.30000000E+03</rscale>
<asrwt>  1 0.35492564E+02</asrwt>
<pdfrwt beam="1">  1        1 0.90849187E+00 0.30000000E+03</pdfrwt>
<pdfrwt beam="2">0</pdfrwt>
<totfact> 0.77827694E-05</totfact>
</mgrwt>
<clustering>
<clus scale="   35.493">  1  6  2 -1</clus>
<clus scale="  461.037">  4  5 -1 -1</clus>
<clus scale="  300.000">  1  4  2 -1</clus>
</clustering>
</event>
<event>
 6    1  0.9480355E-012  0.3000000E+03  0.7818608E-02  0.1093470E+00
          1   -1    0    0  502    0  0.00000000000E+00  0.00000000000E+00  0.24111574701E+03  0.24111574701E+03  0.00000000000E+00 0.  1.
         13   -1    0    0    0    0 -0.00000000000E+00 -0.00000000000E+00 -0.27500000000E+03  0.27500000000E+03  0.00000000000E+00 0.  1.
    9000005    2    1    2  501    0  0.52276602061E+02 -0.34726663623E+00 -0.28116892802E+02  0.46352082178E+03  0.45970428412E+03 0.  0.
         13    1    3    3    0    0  0.20763271230E+02 -0.20978486648E+03 -0.10836664355E+03  0.23703192416E+03  0.00000000000E+00 0.  1.
          3    1    3    3  501    0  0.31513330832E+02  0.20943759984E+03  0.80249750751E+02  0.22648889762E+03  0.00000000000E+00 0.  1.
         21    1    1    2  502  501 -0.52276602061E+02  0.34726663623E+00 -0.57673601848E+01  0.52594925237E+02  0.00000000000E+00 0. -1.
<scales pt_clust_4="550.00000" pt_clust_5="550.00000" pt_clust_6="52.27778"></scales>
<mgrwt>
<rscale>  0 0.30000000E+03</rscale>
<asrwt>  1 0.52277782E+02</asrwt>
<pdfrwt beam="1">  1        1 0.87678453E+00 0.30000000E+03</pdfrwt>
<pdfrwt beam="2">0</pdfrwt>
<totfact> 0.20015022E-04</totfact>
</mgrwt>
<clustering>
<clus scale="   52.278">  1  6  2 -1</clus>
<clus scale="  459.704">  4  5 -1 -1</clus>
<clus scale="  300.000">  1  4  2 -1</clus>
</clustering>
</event>
<event>
 6    1  0.9480355E-012  0.3000000E+03  0.7818608E-02  0.1093470E+00
          1   -1    0    0  502    0  0.00000000000E+00  0.00000000000E+00  0.22701128536E+03  0.22701128536E+03  0.00000000000E+00 0.  1.
         13   -1    0    0    0    0 -0.00000000000E+00 -0.00000000000E+00 -0.27500000000E+03  0.27500000000E+03  0.00000000000E+00 0.  1.
    9000005    2    1    2  501    0  0.32470158513E+02  0.37179101619E+00 -0.69346514602E+02  0.46314478254E+03  0.45677095035E+03 0.  0.
         13    1    3    3    0    0  0.74447404461E+02 -0.20163268402E+03 -0.12605335645E+03  0.24917384287E+03  0.00000000000E+00 0.  1.
          3    1    3    3  501    0 -0.41977245948E+02  0.20200447504E+03  0.56706841852E+02  0.21397093967E+03  0.00000000000E+00 0.  1.
         21    1    1    2  502  501 -0.32470158513E+02 -0.37179101619E+00  0.21357799964E+02  0.38866502824E+02  0.00000000000E+00 0. -1.
<scales pt_clust_4="550.00000" pt_clust_5="550.00000" pt_clust_6="32.47229"></scales>
<mgrwt>
<rscale>  0 0.30000000E+03</rscale>
<asrwt>  1 0.32472287E+02</asrwt>
<pdfrwt beam="1">  1        1 0.82549558E+00 0.30000000E+03</pdfrwt>
<pdfrwt beam="2">0</pdfrwt>
<totfact> 0.65575156E-04</totfact>
</mgrwt>
<clustering>
<clus scale="   32.472">  1  6  2 -1</clus>
<clus scale="  456.771">  4  5 -1 -1</clus>
<clus scale="  300.000">  1  4  2 -1</clus>
</clustering>
</event>
<event>
 6    1  0.9480355E-012  0.3000000E+03  0.7818608E-02  0.1093470E+00
          1   -1    0    0  502    0  0.00000000000E+00  0.00000000000E+00  0.22739551170E+03  0.22739551170E+03  0.00000000000E+00 0.  1.
         13   -1    0    0    0    0 -0.00000000000E+00 -0.00000000000E+00 -0.27500000000E+03  0.27500000000E+03  0.00000000000E+00 0.  1.
    9000005    2    1    2  501    0 -0.33480120764E+02 -0.10383268011E+02 -0.47952715348E+02  0.46734052628E+03  0.46355040055E+03 0.  0.
         13    1    3    3    0    0 -0.81620474348E+02 -0.22298575914E+03  0.21837405214E+02  0.23845633328E+03  0.00000000000E+00 0.  1.
          3    1    3    3  501    0  0.48140353584E+02  0.21260249113E+03 -0.69790120562E+02  0.22888419300E+03  0.00000000000E+00 0.  1.
         21    1    1    2  502  501  0.33480120764E+02  0.10383268011E+02  0.34822704931E+00  0.35054985423E+02  0.00000000000E+00 0. -1.
<scales pt_clust_4="550.00000" pt_clust_5="550.00000" pt_clust_6="35.05326"></scales>
<mgrwt>
<rscale>  0 0.30000000E+03</rscale>
<asrwt>  1 0.35053256E+02</asrwt>
<pdfrwt beam="1">  1        1 0.82689277E+00 0.30000000E+03</pdfrwt>
<pdfrwt beam="2">0</pdfrwt>
<totfact> 0.62820928E-04</totfact>
</mgrwt>
<clustering>
<clus scale="   35.053">  1  6  2 -1</clus>
<clus scale="  463.550">  4  5 -1 -1</clus>
<clus scale="  300.000">  1  4  2 -1</clus>
</clustering>
</event>
<event>
 6    1  0.9480355E-012  0.3000000E+03  0.7818608E-02  0.1093470E+00
          1   -1    0    0  502    0  0.00000000000E+00  0.00000000000E+00  0.21995349380E+03  0.21995349380E+03  0.00000000000E+00 0.  1.
         13   -1    0    0    0    0 -0.00000000000E+00 -0.00000000000E+00 -0.27500000000E+03  0.27500000000E+03  0.00000000000E+00 0.  1.
    9000005    2    1    2  501    0 -0.22260520720E+02 -0.23345340542E+02 -0.59474162188E+02  0.46239370502E+03  0.45741690695E+03 0.  0.
         13    1    3    3    0    0 -0.23954621270E+03  0.22634145635E+01 -0.24154115477E+02  0.24077153561E+03  0.00000000000E+00 0.  1.
          1    1    3    3  501    0  0.21728569198E+03 -0.25608755106E+02 -0.35320046711E+02  0.22162216941E+03  0.00000000000E+00 0.  1.
         21    1    1    2  502  501  0.22260520720E+02  0.23345340542E+02  0.44276559855E+01  0.32559788778E+02  0.00000000000E+00 0.  1.
<scales pt_clust_4="550.00000" pt_clust_5="550.00000" pt_clust_6="32.25734"></scales>
<mgrwt>
<rscale>  0 0.30000000E+03</rscale>
<asrwt>  1 0.32257336E+02</asrwt>
<pdfrwt beam="1">  1        1 0.79983089E+00 0.30000000E+03</pdfrwt>
<pdfrwt beam="2">0</pdfrwt>
<totfact> 0.10560652E-03</totfact>
</mgrwt>
<clustering>
<clus scale="   32.257">  1  6  2 -1</clus>
<clus scale="  457.417">  4  5 -1 -1</clus>
<clus scale="  300.000">  1  4  2 -1</clus>
</clustering>
</event>
<event>
 6    1  0.9480355E-012  0.3000000E+03  0.7818608E-02  0.1093470E+00
          1   -1    0    0  502    0  0.00000000000E+00  0.00000000000E+00  0.24458427680E+03  0.24458427680E+03  0.00000000000E+00 0.  1.
         13   -1    0    0    0    0 -0.00000000000E+00 -0.00000000000E+00 -0.27500000000E+03  0.27500000000E+03  0.00000000000E+00 0.  1.
    9000005    2    1    2  501    0 -0.32144931464E+02  0.94557638808E+01 -0.54061816077E+02  0.47857396349E+03  0.47432863132E+03 0.  0.
         13    1    3    3    0    0  0.79731726605E+02  0.20975355502E+03 -0.98199206062E+02  0.24494241393E+03  0.00000000000E+00 0.  1.
          1    1    3    3  501    0 -0.11187665807E+03 -0.20029779114E+03  0.44137389985E+02  0.23363154956E+03  0.00000000000E+00 0.  1.
         21    1    1    2  502  501  0.32144931464E+02 -0.94557638808E+01  0.23646092880E+02  0.41010313311E+02  0.00000000000E+00 0.  1.
<scales pt_clust_4="550.00000" pt_clust_5="550.00000" pt_clust_6="33.50684"></scales>
<mgrwt>
<rscale>  0 0.30000000E+03</rscale>
<asrwt>  1 0.33506836E+02</asrwt>
<pdfrwt beam="1">  1        1 0.88939737E+00 0.30000000E+03</pdfrwt>
<pdfrwt beam="2">0</pdfrwt>
<totfact> 0.14888944E-04</totfact>
</mgrwt>
<clustering>
<clus scale="   33.507">  1  6  2 -1</clus>
<clus scale="  474.329">  4  5 -1 -1</clus>
<clus scale="  300.000">  1  4  2 -1</clus>
</clustering>
</event>
<event>
 6    1  0.9480355E-012  0.3000000E+03  0.7818608E-02  0.1093470E+00
          1   -1    0    0  502    0  0.00000000000E+00  0.00000000000E+00  0.23860574197E+03  0.23860574197E+03  0.00000000000E+00 0.  1.
         13   -1    0    0    0    0 -0.00000000000E+00 -0.00000000000E+00 -0.27500000000E+03  0.27500000000E+03  0.00000000000E+00 0.  1.
    9000005    2    1    2  501    0 -0.53881876863E+01 -0.37586910840E+02 -0.63651354697E+02  0.46686434970E+03  0.46094361654E+03 0.  0.
         13    1    3    3    0    0 -0.13271236235E+03 -0.18587274809E+03 -0.12710298417E+03  0.26137409624E+03  0.00000000000E+00 0.  1.
          1    1    3    3  501    0  0.12732417466E+03  0.14828583725E+03  0.63451629472E+02  0.20549025345E+03  0.00000000000E+00 0.  1.
         21    1    1    2  502  501  0.53881876863E+01  0.37586910840E+02  0.27257096668E+02  0.46741392275E+02  0.00000000000E+00 0.  1.
<scales pt_clust_4="550.00000" pt_clust_5="550.00000" pt_clust_6="37.97115"></scales>
<mgrwt>
<rscale>  0 0.30000000E+03</rscale>
<asrwt>  1 0.37971153E+02</asrwt>
<pdfrwt beam="1">  1        1 0.86765724E+00 0.30000000E+03</pdfrwt>
<pdfrwt beam="2">0</pdfrwt>
<totfact> 0.26371913E-04</totfact>
</mgrwt>
<clustering>
<clus scale="   37.971">  1  6  2 -1</clus>
<clus scale="  460.944">  4  5 -1 -1</clus>
<clus scale="  300.000">  1  4  2 -1</clus>
</clustering>
</event>
<event>
 6    1  0.9480355E-012  0.3000000E+03  0.7818608E-02  0.1093470E+00
          1   -1    0    0  502    0  0.00000000000E+00  0.00000000000E+00  0.22959401269E+03  0.22959401269E+03  0.00000000000E+00 0.  1.
         13   -1    0    0    0    0 -0.00000000000E+00 -0.00000000000E+00 -0.27500000000E+03  0.27500000000E+03  0.00000000000E+00 0.  1.
    9000005    2    1    2  501    0 -0.56636748008E+00  0.32004685751E+02 -0.62303201124E+02  0.46839820469E+03  0.46313126498E+03 0.  0.
         13    1    3    3    0    0 -0.14740217371E+03  0.76726802693E+02 -0.20150250159E+03  0.26118510910E+03  0.00000000000E+00 0.  1.
          1    1    3    3  501    0  0.14683580623E+03 -0.44722116942E+02  0.13919930047E+03  0.20721309559E+03  0.00000000000E+00 0.  1.
         21    1    1    2  502  501  0.56636748008E+00 -0.32004685751E+02  0.16897213812E+02  0.36195808000E+02  0.00000000000E+00 0.  1.
<scales pt_clust_4="550.00000" pt_clust_5="550.00000" pt_clust_6="32.00970"></scales>
<mgrwt>
<rscale>  0 0.30000000E+03</rscale>
<asrwt>  1 0.32009697E+02</asrwt>
<pdfrwt beam="1">  1        1 0.83488732E+00 0.30000000E+03</pdfrwt>
<pdfrwt beam="2">0</pdfrwt>
<totfact> 0.55122228E-04</totfact>
</mgrwt>
<clustering>
<clus scale="   32.010">  1  6  2 -1</clus>
<clus scale="  463.131">  4  5 -1 -1</clus>
<clus scale="  300.000">  1  4  2 -1</clus>
</clustering>
</event>
<event>
 6    1  0.9480355E-012  0.3000000E+03  0.7818608E-02  0.1093470E+00
          1   -1    0    0  502    0  0.00000000000E+00  0.00000000000E+00  0.22547882118E+03  0.22547882118E+03  0.00000000000E+00 0.  1.
         13   -1    0    0    0    0 -0.00000000000E+00 -0.00000000000E+00 -0.27500000000E+03  0.27500000000E+03  0.00000000000E+00 0.  1.
    9000005    2    1    2  501    0 -0.36174333701E+02 -0.19790957080E+01 -0.59691998533E+02  0.46284977904E+03  0.45755249320E+03 0.  0.
         13    1    3    3    0    0 -0.68152905276E+02 -0.18586696069E+03 -0.15671635608E+03  0.25249032029E+03  0.00000000000E+00 0.  1.
          1    1    3    3  501    0  0.31978571575E+02  0.18388786499E+03  0.97024357551E+02  0.21035945875E+03  0.00000000000E+00 0.  1.
         21    1    1    2  502  501  0.36174333701E+02  0.19790957080E+01  0.10170819712E+02  0.37629042137E+02  0.00000000000E+00 0.  1.
<scales pt_clust_4="550.00000" pt_clust_5="550.00000" pt_clust_6="36.22843"></scales>
<mgrwt>
<rscale>  0 0.30000000E+03</rscale>
<asrwt>  1 0.36228431E+02</asrwt>
<pdfrwt beam="1">  1        1 0.81992299E+00 0.30000000E+03</pdfrwt>
<pdfrwt beam="2">0</pdfrwt>
<totfact> 0.71975752E-04</totfact>
</mgrwt>
<clustering>
<clus scale="   36.228">  1  6  2 -1</clus>
<clus scale="  457.552">  4  5 -1 -1</clus>
<clus scale="  300.000">  1  4  2 -1</clus>
</clustering>
</event>
<event>
 6    1  0.9480355E-012  0.3000000E+03  0.7818608E-02  0.1093470E+00
          1   -1    0    0  502    0  0.00000000000E+00  0.00000000000E+00  0.23008125837E+03  0.23008125837E+03  0.00000000000E+00 0.  1.
         13   -1    0    0    0    0 -0.00000000000E+00 -0.00000000000E+00 -0.27500000000E+03  0.27500000000E+03  0.00000000000E+00 0.  1.
    9000005    2    1    2  501    0 -0.16948464871E+02 -0.28176399927E+02 -0.54420528991E+02  0.47085489518E+03  0.46654215068E+03 0.  0.
         13    1    3    3    0    0 -0.73853765855E+02 -0.14789385128E+03 -0.20948656559E+03  0.26685500022E+03  0.00000000000E+00 0.  1.
          3    1    3    3  501    0  0.56905300984E+02  0.11971745135E+03  0.15506603660E+03  0.20399989496E+03  0.00000000000E+00 0.  1.
         21    1    1    2  502  501  0.16948464871E+02  0.28176399927E+02  0.95017873628E+01  0.34226363193E+02  0.00000000000E+00 0.  1.
<scales pt_clust_4="550.00000" pt_clust_5="550.00000" pt_clust_6="32.88100"></scales>
<mgrwt>
<rscale>  0 0.30000000E+03</rscale>
<asrwt>  1 0.32880997E+02</asrwt>
<pdfrwt beam="1">  1        1 0.83665912E+00 0.30000000E+03</pdfrwt>
<pdfrwt beam="2">0</pdfrwt>
<totfact> 0.53239829E-04</totfact>
</mgrwt>
<clustering>
<clus scale="   32.881">  1  6  2 -1</clus>
<clus scale="  466.542">  4  5 -1 -1</clus>
<clus scale="  300.000">  1  4  2 -1</clus>
</clustering>
</event>
<event>
 6    1  0.9480355E-012  0.3000000E+03  0.7818608E-02  0.1093470E+00
          1   -1    0    0  502    0  0.00000000000E+00  0.00000000000E+00  0.25872169251E+03  0.25872169251E+03  0.00000000000E+00 0.  1.
         13   -1    0    0    0    0 -0.00000000000E+00 -0.00000000000E+00 -0.27500000000E+03  0.27500000000E+03  0.00000000000E+00 0.  1.
    9000005    2    1    2  501    0 -0.35830829823E+02 -0.45002376710E+01 -0.26413165298E+02  0.49621414864E+03  0.49419300430E+03 0.  0.
         13    1    3    3    0    0 -0.22056366113E+03  0.72586164595E+02  0.10698908080E+03  0.25566333978E+03  0.00000000000E+00 0.  1.
          3    1    3    3  501    0  0.18473283130E+03 -0.77086402265E+02 -0.13340224610E+03  0.24055080885E+03  0.00000000000E+00 0.  1.
         21    1    1    2  502  501  0.35830829823E+02  0.45002376710E+01  0.10134857812E+02  0.37507543879E+02  0.00000000000E+00 0. -1.
<scales pt_clust_4="550.00000" pt_clust_5="550.00000" pt_clust_6="36.11233"></scales>
<mgrwt>
<rscale>  0 0.30000000E+03</rscale>
<asrwt>  1 0.36112332E+02</asrwt>
<pdfrwt beam="1">  1        1 0.94080615E+00 0.30000000E+03</pdfrwt>
<pdfrwt beam="2">0</pdfrwt>
<totfact> 0.18451695E-05</totfact>
</mgrwt>
<clustering>
<clus scale="   36.112">  1  6  2 -1</clus>
<clus scale="  494.193">  4  5 -1 -1</clus>
<clus scale="  300.000">  1  4  2 -1</clus>
</clustering>
</event>
<event>
 6    1  0.9480355E-012  0.3000000E+03  0.7818608E-02  0.1093470E+00
          1   -1    0    0  502    0  0.00000000000E+00  0.00000000000E+00  0.22854124208E+03  0.22854124208E+03  0.00000000000E+00 0.  1.
         13   -1    0    0    0    0 -0.00000000000E+00 -0.00000000000E+00 -0.27500000000E+03  0.27500000000E+03  0.00000000000E+00 0.  1.
    9000005    2    1    2  501    0  0.21213353364E+02 -0.30999030352E+02 -0.54565821530E+02  0.46511376852E+03  0.46037206969E+03 0.  0.
         13    1    3    3    0    0  0.17551147233E+03 -0.16119466518E+03  0.40909173637E+02  0.24178824928E+03  0.00000000000E+00 0.  1.
          1    1    3    3  501    0 -0.15429811896E+03  0.13019563483E+03 -0.95474995166E+02  0.22332551925E+03  0.00000000000E+00 0.  1.
         21    1    1    2  502  501 -0.21213353364E+02  0.30999030352E+02  0.81070636124E+01  0.38427473559E+02  0.00000000000E+00 0.  1.
<scales pt_clust_4="550.00000" pt_clust_5="550.00000" pt_clust_6="37.56256"></scales>
<mgrwt>
<rscale>  0 0.30000000E+03</rscale>
<asrwt>  1 0.37562564E+02</asrwt>
<pdfrwt beam="1">  1        1 0.83105906E+00 0.30000000E+03</pdfrwt>
<pdfrwt beam="2">0</pdfrwt>
<totfact> 0.57188986E-04</totfact>
</mgrwt>
<clustering>
<clus scale="   37.563">  1  6  2 -1</clus>
<clus scale="  460.372">  4  5 -1 -1</clus>
<clus scale="  300.000">  1  4  2 -1</clus>
</clustering>
</event>
<event>
 6    1  0.9480355E-012  0.3000000E+03  0.7818608E-02  0.1093470E+00
          1   -1    0    0  502    0  0.00000000000E+00  0.00000000000E+00  0.24736209171E+03  0.24736209171E+03  0.00000000000E+00 0.  1.
         13   -1    0    0    0    0 -0.00000000000E+00 -0.00000000000E+00 -0.27500000000E+03  0.27500000000E+03  0.00000000000E+00 0.  1.
    9000005    2    1    2  501    0  0.52369726115E+02 -0.31251276784E+02 -0.24405761819E+02  0.46129100785E+03  0.45659010304E+03 0.  0.
         13    1    3    3    0    0 -0.10431691638E+02  0.14446184300E+03 -0.17092742347E+03  0.22404068462E+03  0.00000000000E+00 0.  1.
          3    1    3    3  501    0  0.62801417753E+02 -0.17571311978E+03  0.14652166165E+03  0.23725032322E+03  0.00000000000E+00 0.  1.
         21    1    1    2  502  501 -0.52369726115E+02  0.31251276784E+02 -0.32321464679E+01  0.61071083868E+02  0.00000000000E+00 0. -1.
<scales pt_clust_4="550.00000" pt_clust_5="550.00000" pt_clust_6="60.98552"></scales>
<mgrwt>
<rscale>  0 0.30000000E+03</rscale>
<asrwt>  1 0.60985525E+02</asrwt>
<pdfrwt beam="1">  1        1 0.89949852E+00 0.30000000E+03</pdfrwt>
<pdfrwt beam="2">0</pdfrwt>
<totfact> 0.10149080E-04</totfact>
</mgrwt>
<clustering>
<clus scale="   60.986">  1  6  2 -1</clus>
<clus scale="  456.590">  4  5 -1 -1</clus>
<clus scale="  300.000">  1  4  2 -1</clus>
</clustering>
</event>
<event>
 6    1  0.9480355E-012  0.3000000E+03  0.7818608E-02  0.1093470E+00
          1   -1    0    0  502    0  0.00000000000E+00  0.00000000000E+00  0.23933451229E+03  0.23933451229E+03  0.00000000000E+00 0.  1.
         13   -1    0    0    0    0 -0.00000000000E+00 -0.00000000000E+00 -0.27500000000E+03  0.27500000000E+03  0.00000000000E+00 0.  1.
    9000005    2    1    2  501    0  0.19307529456E+02  0.26122809631E+02 -0.48209166464E+02  0.47951317180E+03  0.47597644513E+03 0.  0.
         13    1    3    3    0    0 -0.19542434649E+03  0.10253730993E+03 -0.10533455566E+03  0.24454027019E+03  0.00000000000E+00 0.  1.
          1    1    3    3  501    0  0.21473187594E+03 -0.76414500296E+02  0.57125389199E+02  0.23497290161E+03  0.00000000000E+00 0.  1.
         21    1    1    2  502  501 -0.19307529456E+02 -0.26122809631E+02  0.12543678753E+02  0.34821340488E+02  0.00000000000E+00 0.  1.
<scales pt_clust_4="550.00000" pt_clust_5="550.00000" pt_clust_6="32.48356"></scales>
<mgrwt>
<rscale>  0 0.30000000E+03</rscale>
<asrwt>  1 0.32483563E+02</asrwt>
<pdfrwt beam="1">  1        1 0.87030732E+00 0.30000000E+03</pdfrwt>
<pdfrwt beam="2">0</pdfrwt>
<totfact> 0.25498374E-04</totfact>
</mgrwt>
<clustering>
<clus scale="   32.484">  1  6  2 -1</clus>
<clus scale="  475.976">  4  5 -1 -1</clus>
<clus scale="  300.000">  1  4  2 -1</clus>
</clustering>
</event>
<event>
 6    1  0.9480355E-012  0.3000000E+03  0.7818608E-02  0.1093470E+00
          1   -1    0    0  502    0  0.00000000000E+00  0.00000000000E+00  0.23837728848E+03  0.23837728848E+03  0.00000000000E+00 0.  1.
         13   -1    0    0    0    0 -0.00000000000E+00 -0.00000000000E+00 -0.27500000000E+03  0.27500000000E+03  0.00000000000E+00 0.  1.
    9000005    2    1    2  501    0  0.23871377722E+02 -0.38571965012E+02 -0.56112697398E+02  0.46400625741E+03  0.45836179264E+03 0.  0.
         13    1    3    3    0    0 -0.32525073376E+02  0.20641672293E+03 -0.32949035284E+02  0.21154522644E+03  0.00000000000E+00 0.  1.
          1    1    3    3  501    0  0.56396451098E+02 -0.24498868794E+03 -0.23163662115E+02  0.25246103097E+03  0.00000000000E+00 0.  1.
         21    1    1    2  502  501 -0.23871377722E+02  0.38571965012E+02  0.19489985882E+02  0.49371031070E+02  0.00000000000E+00 0.  1.
<scales pt_clust_4="550.00000" pt_clust_5="550.00000" pt_clust_6="45.36121"></scales>
<mgrwt>
<rscale>  0 0.30000000E+03</rscale>
<asrwt>  1 0.45361208E+02</asrwt>
<pdfrwt beam="1">  1        1 0.86682650E+00 0.30000000E+03</pdfrwt>
<pdfrwt beam="2">0</pdfrwt>
<totfact> 0.26052769E-04</totfact>
</mgrwt>
<clustering>
<clus scale="   45.361">  1  6  2 -1</clus>
<clus scale="  458.362">  4  5 -1 -1</clus>
<clus scale="  300.000">  1  4  2 -1</clus>
</clustering>
</event>
<event>
 6    1  0.9480355E-012  0.3000000E+03  0.7818608E-02  0.1093470E+00
          1   -1    0    0  502    0  0.00000000000E+00  0.00000000000E+00  0.23368987539E+03  0.23368987539E+03  0.00000000000E+00 0.  1.
         13   -1    0    0    0    0 -0.00000000000E+00 -0.00000000000E+00 -0.27500000000E+03  0.27500000000E+03  0.00000000000E+00 0.  1.
    9000005    2    1    2  501    0  0.22724946422E+02  0.27248730935E+02 -0.50112267401E+02  0.47213314899E+03  0.46812343939E+03 0.  0.
         13    1    3    3    0    0  0.94708781555E+02  0.14247075875E+03 -0.20440542155E+03  0.26655064577E+03  0.00000000000E+00 0.  1.
          3    1    3    3  501    0 -0.71983835133E+02 -0.11522202781E+03  0.15429315415E+03  0.20558250322E+03  0.00000000000E+00 0.  1.
         21    1    1    2  502  501 -0.22724946422E+02 -0.27248730935E+02  0.88021427952E+01  0.36556726402E+02  0.00000000000E+00 0. -1.
<scales pt_clust_4="550.00000" pt_clust_5="550.00000" pt_clust_6="35.48121"></scales>
<mgrwt>
<rscale>  0 0.30000000E+03</rscale>
<asrwt>  1 0.35481214E+02</asrwt>
<pdfrwt beam="1">  1        1 0.84978137E+00 0.30000000E+03</pdfrwt>
<pdfrwt beam="2">0</pdfrwt>
<totfact> 0.40786989E-04</totfact>
</mgrwt>
<clustering>
<clus scale="   35.481">  1  6  2 -1</clus>
<clus scale="  468.123">  4  5 -1 -1</clus>
<clus scale="  300.000">  1  4  2 -1</clus>
</clustering>
</event>
<event>
 6    1  0.9480355E-012  0.3000000E+03  0.7818608E-02  0.1093470E+00
          1   -1    0    0  502    0  0.00000000000E+00  0.00000000000E+00  0.23318660669E+03  0.23318660669E+03  0.00000000000E+00 0.  1.
         13   -1    0    0    0    0 -0.00000000000E+00 -0.00000000000E+00 -0.27500000000E+03  0.27500000000E+03  0.00000000000E+00 0.  1.
    9000005    2    1    2  501    0 -0.11924841883E+02  0.36839209247E+02 -0.64952912490E+02  0.46307822011E+03  0.45686237305E+03 0.  0.
         13    1    3    3    0    0  0.26259311886E+02  0.70471048571E+02  0.18934827027E+03  0.20373631881E+03  0.00000000000E+00 0.  1.
          1    1    3    3  501    0 -0.38184153769E+02 -0.33631839324E+02 -0.25430118276E+03  0.25934190130E+03  0.00000000000E+00 0.  1.
         21    1    1    2  502  501  0.11924841883E+02 -0.36839209247E+02  0.23139519177E+02  0.45108386578E+02  0.00000000000E+00 0. -1.
<scales pt_clust_4="550.00000" pt_clust_5="550.00000" pt_clust_6="38.72117"></scales>
<mgrwt>
<rscale>  0 0.30000000E+03</rscale>
<asrwt>  1 0.38721172E+02</asrwt>
<pdfrwt beam="1">  1        1 0.84795130E+00 0.30000000E+03</pdfrwt>
<pdfrwt beam="2">0</pdfrwt>
<totfact> 0.41728535E-04</totfact>
</mgrwt>
<clustering>
<clus scale="   38.721">  1  6  2 -1</clus>
<clus scale="  456.862">  4  5 -1 -1</clus>
<clus scale="  300.000">  1  4  2 -1</clus>
</clustering>
</event>
<event>
 6    1  0.9480355E-012  0.3000000E+03  0.7818608E-02  0.1093470E+00
          1   -1    0    0  502    0  0.00000000000E+00  0.00000000000E+00  0.24587886781E+03  0.24587886781E+03  0.00000000000E+00 0.  1.
         13   -1    0    0    0    0 -0.00000000000E+00 -0.00000000000E+00 -0.27500000000E+03  0.27500000000E+03  0.00000000000E+00 0.  1.
    9000005    2    1    2  501    0  0.19987639226E+02 -0.31965115160E+02 -0.49523930349E+02  0.47801223181E+03  0.47394282332E+03 0.  0.
         13    1    3    3    0    0  0.17918583981E+03  0.12978180082E+03  0.55253298685E+02  0.22804343452E+03  0.00000000000E+00 0.  1.
          3    1    3    3  501    0 -0.15919820058E+03 -0.16174691598E+03 -0.10477722903E+03  0.24996879729E+03  0.00000000000E+00 0.  1.
         21    1    1    2  502  501 -0.19987639226E+02  0.31965115160E+02  0.20402798159E+02  0.42866635997E+02  0.00000000000E+00 0. -1.
<scales pt_clust_4="550.00000" pt_clust_5="550.00000" pt_clust_6="37.69979"></scales>
<mgrwt>
<rscale>  0 0.30000000E+03</rscale>
<asrwt>  1 0.37699792E+02</asrwt>
<pdfrwt beam="1">  1        1 0.89410497E+00 0.30000000E+03</pdfrwt>
<pdfrwt beam="2">0</pdfrwt>
<totfact> 0.12729486E-04</totfact>
</mgrwt>
<clustering>
<clus scale="   37.700">  1  6  2 -1</clus>
<clus scale="  473.943">  4  5 -1 -1</clus>
<clus scale="  300.000">  1  4  2 -1</clus>
</clustering>
</event>
<event>
 6    1  0.9480355E-012  0.3000000E+03  0.7818608E-02  0.1093470E+00
          1   -1    0    0  502    0  0.00000000000E+00  0.00000000000E+00  0.24110432593E+03  0.24110432593E+03  0.00000000000E+00 0.  1.
         13   -1    0    0    0    0 -0.00000000000E+00 -0.00000000000E+00 -0.27500000000E+03  0.27500000000E+03  0.00000000000E+00 0.  1.
    9000005    2    1    2  501    0 -0.94897960268E+01 -0.53300886694E+02 -0.39893376049E+02  0.46163402962E+03  0.45670937706E+03 0.  0.
         13    1    3    3    0    0  0.18320541355E+02 -0.44647114245E+02 -0.24741537461E+03  0.25207811218E+03  0.00000000000E+00 0.  1.
          1    1    3    3  501    0 -0.27810337382E+02 -0.86537724495E+01  0.20752199857E+03  0.20955591743E+03  0.00000000000E+00 0.  1.
         21    1    1    2  502  501  0.94897960268E+01  0.53300886694E+02  0.59977019745E+01  0.54470296309E+02  0.00000000000E+00 0.  1.
<scales pt_clust_4="550.00000" pt_clust_5="550.00000" pt_clust_6="54.13909"></scales>
<mgrwt>
<rscale>  0 0.30000000E+03</rscale>
<asrwt>  1 0.54139087E+02</asrwt>
<pdfrwt beam="1">  1        1 0.87674300E+00 0.30000000E+03</pdfrwt>
<pdfrwt beam="2">0</pdfrwt>
<totfact> 0.19914925E-04</totfact>
</mgrwt>
<clustering>
<clus scale="   54.139">  1  6  2 -1</clus>
<clus scale="  456.709">  4  5 -1 -1</clus>
<clus scale="  300.000">  1  4  2 -1</clus>
</clustering>
</event>
<event>
 6    1  0.9480355E-012  0.3000000E+03  0.7818608E-02  0.1093470E+00
          1   -1    0    0  502    0  0.00000000000E+00  0.00000000000E+00  0.22555859869E+03  0.22555859869E+03  0.00000000000E+00 0.  1.
         13   -1    0    0    0    0 -0.00000000000E+00 -0.00000000000E+00 -0.27500000000E+03  0.27500000000E+03  0.00000000000E+00 0.  1.
    9000005    2    1    2  501    0  0.88727086861E+01 -0.29878645406E+02 -0.63364419761E+02  0.46642197828E+03  0.46104550070E+03 0.  0.
         13    1    3    3    0    0  0.20358028614E+02 -0.24538907343E+03 -0.37172704710E+02  0.24902220114E+03  0.00000000000E+00 0.  1.
          1    1    3    3  501    0 -0.11485319928E+02  0.21551042802E+03 -0.26191715051E+02  0.21739977713E+03  0.00000000000E+00 0.  1.
         21    1    1    2  502  501 -0.88727086861E+01  0.29878645406E+02  0.13923018456E+02  0.34136620419E+02  0.00000000000E+00 0. -1.
<scales pt_clust_4="550.00000" pt_clust_5="550.00000" pt_clust_6="31.16823"></scales>
<mgrwt>
<rscale>  0 0.30000000E+03</rscale>
<asrwt>  1 0.31168228E+02</asrwt>
<pdfrwt beam="1">  1        1 0.82021309E+00 0.30000000E+03</pdfrwt>
<pdfrwt beam="2">0</pdfrwt>
<totfact> 0.73618292E-04</totfact>
</mgrwt>
<clustering>
<clus scale="   31.168">  1  6  2 -1</clus>
<clus scale="  461.046">  4  5 -1 -1</clus>
<clus scale="  300.000">  1  4  2 -1</clus>
</clustering>
</event>
<event>
 6    1  0.9480355E-012  0.3000000E+03  0.7818608E-02  0.1093470E+00
          1   -1    0    0  502    0  0.00000000000E+00  0.00000000000E+00  0.23067248929E+03  0.23067248929E+03  0.00000000000E+00 0.  1.
         13   -1    0    0    0    0 -0.00000000000E+00 -0.00000000000E+00 -0.27500000000E+03  0.27500000000E+03  0.00000000000E+00 0.  1.
    9000005    2    1    2  501    0  0.26568293257E+02 -0.32070909169E+02 -0.46638818631E+02  0.46396206414E+03  0.45972948583E+03 0.  0.
         13    1    3    3    0    0  0.51343828903E+02 -0.21287856175E+02  0.20422180865E+03  0.21165043992E+03  0.00000000000E+00 0.  1.
          1    1    3    3  501    0 -0.24775535646E+02 -0.10783052994E+02 -0.25086062728E+03  0.25231162423E+03  0.00000000000E+00 0.  1.
         21    1    1    2  502  501 -0.26568293257E+02  0.32070909169E+02  0.23113079200E+01  0.41710425145E+02  0.00000000000E+00 0.  1.
<scales pt_clust_4="550.00000" pt_clust_5="550.00000" pt_clust_6="41.64634"></scales>
<mgrwt>
<rscale>  0 0.30000000E+03</rscale>
<asrwt>  1 0.41646337E+02</asrwt>
<pdfrwt beam="1">  1        1 0.83880905E+00 0.30000000E+03</pdfrwt>
<pdfrwt beam="2">0</pdfrwt>
<totfact> 0.49145764E-04</totfact>
</mgrwt>
<clustering>
<clus scale="   41.646">  1  6  2 -1</clus>
<clus scale="  459.729">  4  5 -1 -1</clus>
<clus scale="  300.000">  1  4  2 -1</clus>
</clustering>
</event>
<event>
 6    1  0.9480355E-012  0.3000000E+03  0.7818608E-02  0.1093470E+00
          1   -1    0    0  502    0  0.00000000000E+00  0.00000000000E+00  0.24896881965E+03  0.24896881965E+03  0.00000000000E+00 0.  1.
         13   -1    0    0    0    0 -0.00000000000E+00 -0.00000000000E+00 -0.27500000000E+03  0.27500000000E+03  0.00000000000E+00 0.  1.
    9000005    2    1    2  501    0 -0.25469949972E+01  0.54396080999E+02 -0.34961606437E+02  0.46878573056E+03  0.46429767007E+03 0.  0.
         13    1    3    3    0    0 -0.18796423579E+03  0.58698119027E+02 -0.15262856696E+03  0.24914153119E+03  0.00000000000E+00 0.  1.
          1    1    3    3  501    0  0.18541724079E+03 -0.43020380280E+01  0.11766696053E+03  0.21964419936E+03  0.00000000000E+00 0.  1.
         21    1    1    2  502  501  0.25469949972E+01 -0.54396080999E+02  0.89304260837E+01  0.55183089091E+02  0.00000000000E+00 0.  1.
<scales pt_clust_4="550.00000" pt_clust_5="550.00000" pt_clust_6="54.45568"></scales>
<mgrwt>
<rscale>  0 0.30000000E+03</rscale>
<asrwt>  1 0.54455677E+02</asrwt>
<pdfrwt beam="1">  1        1 0.90534116E+00 0.30000000E+03</pdfrwt>
<pdfrwt beam="2">0</pdfrwt>
<totfact> 0.84129600E-05</totfact>
</mgrwt>
<clustering>
<clus scale="   54.456">  1  6  2 -1</clus>
<clus scale="  464.298">  4  5 -1 -1</clus>
<clus scale="  300.000">  1  4  2 -1</clus>
</clustering>
</event>
<event>
 6    1  0.9480355E-012  0.3000000E+03  0.7818608E-02  0.1093470E+00
          1   -1    0    0  502    0  0.00000000000E+00  0.00000000000E+00  0.23386057750E+03  0.23386057750E+03  0.00000000000E+00 0.  1.
         13   -1    0    0    0    0 -0.00000000000E+00 -0.00000000000E+00 -0.27500000000E+03  0.27500000000E+03  0.00000000000E+00 0.  1.
    9000005    2    1    2  501    0  0.26501179062E+02  0.30604792356E+02 -0.58619697405E+02  0.46476379964E+03  0.45927133018E+03 0.  0.
         13    1    3    3    0    0 -0.17956783807E+03  0.15750601028E+02 -0.15411451219E+03  0.23715811765E+03  0.00000000000E+00 0.  1.
          3    1    3    3  501    0  0.20606901713E+03  0.14854191329E+02  0.95494814781E+02  0.22760568199E+03  0.00000000000E+00 0.  1.
         21    1    1    2  502  501 -0.26501179062E+02 -0.30604792356E+02  0.17480274900E+02  0.44096777858E+02  0.00000000000E+00 0. -1.
<scales pt_clust_4="550.00000" pt_clust_5="550.00000" pt_clust_6="40.48414"></scales>
<mgrwt>
<rscale>  0 0.30000000E+03</rscale>
<asrwt>  1 0.40484143E+02</asrwt>
<pdfrwt beam="1">  1        1 0.85040210E+00 0.30000000E+03</pdfrwt>
<pdfrwt beam="2">0</pdfrwt>
<totfact> 0.39276463E-04</totfact>
</mgrwt>
<clustering>
<clus scale="   40.484">  1  6  2 -1</clus>
<clus scale="  459.271">  4  5 -1 -1</clus>
<clus scale="  300.000">  1  4  2 -1</clus>
</clustering>
</event>
<event>
 6    1  0.9480355E-012  0.3000000E+03  0.7818608E-02  0.1093470E+00
          1   -1    0    0  502    0  0.00000000000E+00  0.00000000000E+00  0.22696351737E+03  0.22696351737E+03  0.00000000000E+00 0.  1.
         13   -1    0    0    0    0 -0.00000000000E+00 -0.00000000000E+00 -0.27500000000E+03  0.27500000000E+03  0.00000000000E+00 0.  1.
    9000005    2    1    2  501    0  0.16149957561E+02  0.34686401692E+02 -0.58532887185E+02  0.46228805770E+03  0.45696846917E+03 0.  0.
         13    1    3    3    0    0  0.95733567205E+02 -0.17954704827E+02 -0.23903455418E+03  0.25811781304E+03  0.00000000000E+00 0.  1.
          1    1    3    3  501    0 -0.79583609644E+02  0.52641106519E+02  0.18050166699E+03  0.20417024467E+03  0.00000000000E+00 0.  1.
         21    1    1    2  502  501 -0.16149957561E+02 -0.34686401692E+02  0.10496404558E+02  0.39675459673E+02  0.00000000000E+00 0. -1.
<scales pt_clust_4="550.00000" pt_clust_5="550.00000" pt_clust_6="38.26183"></scales>
<mgrwt>
<rscale>  0 0.30000000E+03</rscale>
<asrwt>  1 0.38261829E+02</asrwt>
<pdfrwt beam="1">  1        1 0.82532188E+00 0.30000000E+03</pdfrwt>
<pdfrwt beam="2">0</pdfrwt>
<totfact> 0.63822875E-04</totfact>
</mgrwt>
<clustering>
<clus scale="   38.262">  1  6  2 -1</clus>
<clus scale="  456.968">  4  5 -1 -1</clus>
<clus scale="  300.000">  1  4  2 -1</clus>
</clustering>
</event>
<event>
 6    1  0.9480355E-012  0.3000000E+03  0.7818608E-02  0.1093470E+00
          1   -1    0    0  502    0  0.00000000000E+00  0.00000000000E+00  0.24083146780E+03  0.24083146780E+03  0.00000000000E+00 0.  1.
         13   -1    0    0    0    0 -0.00000000000E+00 -0.00000000000E+00 -0.27500000000E+03  0.27500000000E+03  0.00000000000E+00 0.  1.
    9000005    2    1    2  501    0 -0.47147332617E+02  0.51315122228E+00 -0.28325982687E+02  0.46832073552E+03  0.46507936497E+03 0.  0.
         13    1    3    3    0    0 -0.33273119135E+02  0.13130513814E+03  0.17797543612E+03  0.22365910583E+03  0.00000000000E+00 0.  1.
          1    1    3    3  501    0 -0.13874213482E+02 -0.13079198692E+03 -0.20630141880E+03  0.24466162969E+03  0.00000000000E+00 0.  1.
         21    1    1    2  502  501  0.47147332617E+02 -0.51315122228E+00 -0.58425495143E+01  0.47510732281E+02  0.00000000000E+00 0. -1.
<scales pt_clust_4="550.00000" pt_clust_5="550.00000" pt_clust_6="47.15015"></scales>
<mgrwt>
<rscale>  0 0.30000000E+03</rscale>
<asrwt>  1 0.47150149E+02</asrwt>
<pdfrwt beam="1">  1        1 0.87575079E+00 0.30000000E+03</pdfrwt>
<pdfrwt beam="2">0</pdfrwt>
<totfact> 0.20916113E-04</totfact>
</mgrwt>
<clustering>
<clus scale="   47.150">  1  6  2 -1</clus>
<clus scale="  465.079">  4  5 -1 -1</clus>
<clus scale="  300.000">  1  4  2 -1</clus>
</clustering>
</event>
<event>
 6    1  0.9480355E-012  0.3000000E+03  0.7818608E-02  0.1093470E+00
          1   -1    0    0  502    0  0.00000000000E+00  0.00000000000E+00  0.23113013604E+03  0.23113013604E+03  0.00000000000E+00 0.  1.
         13   -1    0    0    0    0 -0.00000000000E+00 -0.00000000000E+00 -0.27500000000E+03  0.27500000000E+03  0.00000000000E+00 0.  1.
    9000005    2    1    2  501    0  0.31720393708E+02  0.16249834495E+02 -0.65850499938E+02  0.46425664973E+03  0.45817868564E+03 0.  0.
         13    1    3    3    0    0 -0.82741995573E+02 -0.19878521115E+03 -0.43156772717E+02  0.21960033023E+03  0.00000000000E+00 0.  1.
          1    1    3    3  501    0  0.11446238928E+03  0.21503504565E+03 -0.22693727221E+02  0.24465631950E+03  0.00000000000E+00 0.  1.
         21    1    1    2  502  501 -0.31720393708E+02 -0.16249834495E+02  0.21980635983E+02  0.41873486316E+02  0.00000000000E+00 0.  1.
<scales pt_clust_4="550.00000" pt_clust_5="550.00000" pt_clust_6="35.64043"></scales>
<mgrwt>
<rscale>  0 0.30000000E+03</rscale>
<asrwt>  1 0.35640433E+02</asrwt>
<pdfrwt beam="1">  1        1 0.84047322E+00 0.30000000E+03</pdfrwt>
<pdfrwt beam="2">0</pdfrwt>
<totfact> 0.49120778E-04</totfact>
</mgrwt>
<clustering>
<clus scale="   35.640">  1  6  2 -1</clus>
<clus scale="  458.179">  4  5 -1 -1</clus>
<clus scale="  300.000">  1  4  2 -1</clus>
</clustering>
</event>
<event>
 6    1  0.9480355E-012  0.3000000E+03  0.7818608E-02  0.1093470E+00
          1   -1    0    0  502    0  0.00000000000E+00  0.00000000000E+00  0.23456256863E+03  0.23456256863E+03  0.00000000000E+00 0.  1.
         13   -1    0    0    0    0 -0.00000000000E+00 -0.00000000000E+00 -0.27500000000E+03  0.27500000000E+03  0.00000000000E+00 0.  1.
    9000005    2    1    2  501    0  0.32233868647E+02 -0.13846542048E+02 -0.70644936149E+02  0.46326740301E+03  0.45650326469E+03 0.  0.
         13    1    3    3    0    0  0.16567778361E+03  0.11737798184E+03 -0.15747222896E+03  0.25695178827E+03  0.00000000000E+00 0.  1.
          3    1    3    3  501    0 -0.13344391496E+03 -0.13122452389E+03  0.86827292811E+02  0.20631561474E+03  0.00000000000E+00 0.  1.
         21    1    1    2  502  501 -0.32233868647E+02  0.13846542048E+02  0.30207504782E+02  0.46295165621E+02  0.00000000000E+00 0.  1.
<scales pt_clust_4="550.00000" pt_clust_5="550.00000" pt_clust_6="35.08203"></scales>
<mgrwt>
<rscale>  0 0.30000000E+03</rscale>
<asrwt>  1 0.35082033E+02</asrwt>
<pdfrwt beam="1">  1        1 0.85295480E+00 0.30000000E+03</pdfrwt>
<pdfrwt beam="2">0</pdfrwt>
<totfact> 0.38128360E-04</totfact>
</mgrwt>
<clustering>
<clus scale="   35.082">  1  6  2 -1</clus>
<clus scale="  456.503">  4  5 -1 -1</clus>
<clus scale="  300.000">  1  4  2 -1</clus>
</clustering>
</event>
<event>
 6    1  0.9480355E-012  0.3000000E+03  0.7818608E-02  0.1093470E+00
          1   -1    0    0  502    0  0.00000000000E+00  0.00000000000E+00  0.25009408291E+03  0.25009408291E+03  0.00000000000E+00 0.  1.
         13   -1    0    0    0    0 -0.00000000000E+00 -0.00000000000E+00 -0.27500000000E+03  0.27500000000E+03  0.00000000000E+00 0.  1.
    9000005    2    1    2  501    0  0.36020397548E+02  0.14425482685E+02 -0.99318636047E+01  0.48350338843E+03  0.48184159339E+03 0.  0.
         13    1    3    3    0    0  0.15897453650E+03  0.16764567679E+03 -0.11785157289E+03  0.25935876587E+03  0.00000000000E+00 0.  1.
          1    1    3    3  501    0 -0.12295413895E+03 -0.15322019410E+03  0.10791970929E+03  0.22414462255E+03  0.00000000000E+00 0.  1.
         21    1    1    2  502  501 -0.36020397548E+02 -0.14425482685E+02 -0.14974053481E+02  0.41590694486E+02  0.00000000000E+00 0.  1.
<scales pt_clust_4="550.00000" pt_clust_5="550.00000" pt_clust_6="38.80161"></scales>
<mgrwt>
<rscale>  0 0.30000000E+03</rscale>
<asrwt>  1 0.38801612E+02</asrwt>
<pdfrwt beam="1">  1        1 0.90943303E+00 0.30000000E+03</pdfrwt>
<pdfrwt beam="2">0</pdfrwt>
<totfact> 0.72752860E-05</totfact>
</mgrwt>
<clustering>
<clus scale="   38.802">  1  6  2 -1</clus>
<clus scale="  481.842">  4  5 -1 -1</clus>
<clus scale="  300.000">  1  4  2 -1</clus>
</clustering>
</event>
<event>
 6    1  0.9480355E-012  0.3000000E+03  0.7818608E-02  0.1093470E+00
          1   -1    0    0  502    0  0.00000000000E+00  0.00000000000E+00  0.24932225672E+03  0.24932225672E+03  0.00000000000E+00 0.  1.
         13   -1    0    0    0    0 -0.00000000000E+00 -0.00000000000E+00 -0.27500000000E+03  0.27500000000E+03  0.00000000000E+00 0.  1.
    9000005    2    1    2  501    0 -0.20735504361E+01  0.32232427645E+02 -0.54674028834E+02  0.48091703147E+03  0.47670610729E+03 0.  0.
         13    1    3    3    0    0 -0.16561129152E+01 -0.29104573683E+02 -0.26255862186E+03  0.26417200615E+03  0.00000000000E+00 0.  1.
          3    1    3    3  501    0 -0.41743752083E+00  0.61337001328E+02  0.20788459302E+03  0.21674502532E+03  0.00000000000E+00 0.  1.
         21    1    1    2  502  501  0.20735504361E+01 -0.32232427645E+02  0.28996285557E+02  0.43405225254E+02  0.00000000000E+00 0. -1.
<scales pt_clust_4="550.00000" pt_clust_5="550.00000" pt_clust_6="32.29906"></scales>
<mgrwt>
<rscale>  0 0.30000000E+03</rscale>
<asrwt>  1 0.32299056E+02</asrwt>
<pdfrwt beam="1">  1        1 0.90662639E+00 0.30000000E+03</pdfrwt>
<pdfrwt beam="2">0</pdfrwt>
<totfact> 0.87105797E-05</totfact>
</mgrwt>
<clustering>
<clus scale="   32.299">  1  6  2 -1</clus>
<clus scale="  476.706">  4  5 -1 -1</clus>
<clus scale="  300.000">  1  4  2 -1</clus>
</clustering>
</event>
<event>
 6    1  0.9480355E-012  0.3000000E+03  0.7818608E-02  0.1093470E+00
          1   -1    0    0  502    0  0.00000000000E+00  0.00000000000E+00  0.26336488648E+03  0.26336488648E+03  0.00000000000E+00 0.  1.
         13   -1    0    0    0    0 -0.00000000000E+00 -0.00000000000E+00 -0.27500000000E+03  0.27500000000E+03  0.00000000000E+00 0.  1.
    9000005    2    1    2  501    0  0.31179149834E+02  0.39290133994E+02 -0.51798489616E+02  0.47410797406E+03  0.46859303615E+03 0.  0.
         13    1    3    3    0    0 -0.14767148510E+03  0.17593322032E+03  0.36031438778E+02  0.23250296795E+03  0.00000000000E+00 0.  1.
          1    1    3    3  501    0  0.17885063493E+03 -0.13664308633E+03 -0.87829928394E+02  0.24160500611E+03  0.00000000000E+00 0.  1.
         21    1    1    2  502  501 -0.31179149834E+02 -0.39290133994E+02  0.40163376092E+02  0.64256912412E+02  0.00000000000E+00 0.  1.
<scales pt_clust_4="550.00000" pt_clust_5="550.00000" pt_clust_6="50.15829"></scales>
<mgrwt>
<rscale>  0 0.30000000E+03</rscale>
<asrwt>  1 0.50158290E+02</asrwt>
<pdfrwt beam="1">  1        1 0.95769050E+00 0.30000000E+03</pdfrwt>
<pdfrwt beam="2">0</pdfrwt>
<totfact> 0.79686139E-06</totfact>
</mgrwt>
<clustering>
<clus scale="   50.158">  1  6  2 -1</clus>
<clus scale="  468.593">  4  5 -1 -1</clus>
<clus scale="  300.000">  1  4  2 -1</clus>
</clustering>
</event>
<event>
 6    1  0.9480355E-012  0.3000000E+03  0.7818608E-02  0.1093470E+00
          1   -1    0    0  502    0  0.00000000000E+00  0.00000000000E+00  0.22252373764E+03  0.22252373764E+03  0.00000000000E+00 0.  1.
         13   -1    0    0    0    0 -0.00000000000E+00 -0.00000000000E+00 -0.27500000000E+03  0.27500000000E+03  0.00000000000E+00 0.  1.
    9000005    2    1    2  501    0 -0.30075326022E+02 -0.65982697574E+00 -0.58227697798E+02  0.46689630522E+03  0.46227344119E+03 0.  0.
         13    1    3    3    0    0 -0.43817312186E+02  0.71099362508E+02  0.19031675159E+03  0.20783537266E+03  0.00000000000E+00 0.  1.
          1    1    3    3  501    0  0.13741986164E+02 -0.71759189484E+02 -0.24854444938E+03  0.25906093256E+03  0.00000000000E+00 0.  1.
         21    1    1    2  502  501  0.30075326022E+02  0.65982697574E+00  0.57514354408E+01  0.30627432419E+02  0.00000000000E+00 0. -1.
<scales pt_clust_4="550.00000" pt_clust_5="550.00000" pt_clust_6="30.08256"></scales>
<mgrwt>
<rscale>  0 0.30000000E+03</rscale>
<asrwt>  1 0.30082563E+02</asrwt>
<pdfrwt beam="1">  1        1 0.80917723E+00 0.30000000E+03</pdfrwt>
<pdfrwt beam="2">0</pdfrwt>
<totfact> 0.91088827E-04</totfact>
</mgrwt>
<clustering>
<clus scale="   30.083">  1  6  2 -1</clus>
<clus scale="  462.273">  4  5 -1 -1</clus>
<clus scale="  300.000">  1  4  2 -1</clus>
</clustering>
</event>
<event>
 6    1  0.9480355E-012  0.3000000E+03  0.7818608E-02  0.1093470E+00
          1   -1    0    0  502    0  0.00000000000E+00  0.00000000000E+00  0.22305737496E+03  0.22305737496E+03  0.00000000000E+00 0.  1.
         13   -1    0    0    0    0 -0.00000000000E+00 -0.00000000000E+00 -0.27500000000E+03  0.27500000000E+03  0.00000000000E+00 0.  1.
    9000005    2    1    2  501    0  0.28713615827E+01 -0.33476727877E+02 -0.57848430422E+02  0.46394264846E+03  0.45909411250E+03 0.  0.
         13    1    3    3    0    0  0.22198229050E+03 -0.72185453430E+02  0.23617253932E+01  0.23343618984E+03  0.00000000000E+00 0.  1.
          1    1    3    3  501    0 -0.21911092891E+03  0.38708725552E+02 -0.60210155815E+02  0.23050645862E+03  0.00000000000E+00 0.  1.
         21    1    1    2  502  501 -0.28713615827E+01  0.33476727877E+02  0.59058053815E+01  0.34114726496E+02  0.00000000000E+00 0. -1.
<scales pt_clust_4="550.00000" pt_clust_5="550.00000" pt_clust_6="33.59964"></scales>
<mgrwt>
<rscale>  0 0.30000000E+03</rscale>
<asrwt>  1 0.33599643E+02</asrwt>
<pdfrwt beam="1">  1        1 0.81111773E+00 0.30000000E+03</pdfrwt>
<pdfrwt beam="2">0</pdfrwt>
<totfact> 0.86133731E-04</totfact>
</mgrwt>
<clustering>
<clus scale="   33.600">  1  6  2 -1</clus>
<clus scale="  459.094">  4  5 -1 -1</clus>
<clus scale="  300.000">  1  4  2 -1</clus>
</clustering>
</event>
<event>
 6    1  0.9480355E-012  0.3000000E+03  0.7818608E-02  0.1093470E+00
          1   -1    0    0  502    0  0.00000000000E+00  0.00000000000E+00  0.23859820363E+03  0.23859820363E+03  0.00000000000E+00 0.  1.
         13   -1    0    0    0    0 -0.00000000000E+00 -0.00000000000E+00 -0.27500000000E+03  0.27500000000E+03  0.00000000000E+00 0.  1.
    9000005    2    1    2  501    0 -0.36757437697E+02  0.54383936287E+01 -0.62504506326E+02  0.46818854807E+03  0.46250731657E+03 0.  0.
         13    1    3    3    0    0  0.11841052800E+03 -0.14072666918E+03  0.91294541397E+02  0.20532837565E+03  0.00000000000E+00 0.  1.
          1    1    3    3  501    0 -0.15516796569E+03  0.14616506281E+03 -0.15379904772E+03  0.26286017242E+03  0.00000000000E+00 0.  1.
         21    1    1    2  502  501  0.36757437697E+02 -0.54383936287E+01  0.26102709952E+02  0.45409655561E+02  0.00000000000E+00 0.  1.
<scales pt_clust_4="550.00000" pt_clust_5="550.00000" pt_clust_6="37.15757"></scales>
<mgrwt>
<rscale>  0 0.30000000E+03</rscale>
<asrwt>  1 0.37157575E+02</asrwt>
<pdfrwt beam="1">  1        1 0.86762983E+00 0.30000000E+03</pdfrwt>
<pdfrwt beam="2">0</pdfrwt>
<totfact> 0.26495030E-04</totfact>
</mgrwt>
<clustering>
<clus scale="   37.158">  1  6  2 -1</clus>
<clus scale="  462.507">  4  5 -1 -1</clus>
<clus scale="  300.000">  1  4  2 -1</clus>
</clustering>
</event>
<event>
 6    1  0.9480355E-012  0.3000000E+03  0.7818608E-02  0.1093470E+00
          1   -1    0    0  502    0  0.00000000000E+00  0.00000000000E+00  0.22405288881E+03  0.22405288881E+03  0.00000000000E+00 0.  1.
         13   -1    0    0    0    0 -0.00000000000E+00 -0.00000000000E+00 -0.27500000000E+03  0.27500000000E+03  0.00000000000E+00 0.  1.
    9000005    2    1    2  501    0 -0.28254820869E+02 -0.24905322711E+02 -0.55903003069E+02  0.46106380003E+03  0.45610971482E+03 0.  0.
         13    1    3    3    0    0  0.11618644795E+03 -0.19755116531E+03 -0.56153763916E+02  0.23596397777E+03  0.00000000000E+00 0.  1.
          1    1    3    3  501    0 -0.14444126882E+03  0.17264584260E+03  0.25076084698E+00  0.22509982227E+03  0.00000000000E+00 0.  1.
         21    1    1    2  502  501  0.28254820869E+02  0.24905322711E+02  0.49558918791E+01  0.37989088776E+02  0.00000000000E+00 0.  1.
<scales pt_clust_4="550.00000" pt_clust_5="550.00000" pt_clust_6="37.66444"></scales>
<mgrwt>
<rscale>  0 0.30000000E+03</rscale>
<asrwt>  1 0.37664439E+02</asrwt>
<pdfrwt beam="1">  1        1 0.81473778E+00 0.30000000E+03</pdfrwt>
<pdfrwt beam="2">0</pdfrwt>
<totfact> 0.78910109E-04</totfact>
</mgrwt>
<clustering>
<clus scale="   37.664">  1  6  2 -1</clus>
<clus scale="  456.110">  4  5 -1 -1</clus>
<clus scale="  300.000">  1  4  2 -1</clus>
</clustering>
</event>
<event>
 6    1  0.9480355E-012  0.3000000E+03  0.7818608E-02  0.1093470E+00
          1   -1    0    0  502    0  0.00000000000E+00  0.00000000000E+00  0.23207626626E+03  0.23207626626E+03  0.00000000000E+00 0.  1.
         13   -1    0    0    0    0 -0.00000000000E+00 -0.00000000000E+00 -0.27500000000E+03  0.27500000000E+03  0.00000000000E+00 0.  1.
    9000005    2    1    2  501    0  0.24122105757E+02  0.20809243047E+02 -0.46302254328E+02  0.47504011506E+03  0.47170362684E+03 0.  0.
         13    1    3    3    0    0  0.17051712902E+03  0.14570917504E+03 -0.13644829358E+03  0.26253645805E+03  0.00000000000E+00 0.  1.
          3    1    3    3  501    0 -0.14639502327E+03 -0.12489993200E+03  0.90146039253E+02  0.21250365701E+03  0.00000000000E+00 0.  1.
         21    1    1    2  502  501 -0.24122105757E+02 -0.20809243047E+02  0.33785205887E+01  0.32036151200E+02  0.00000000000E+00 0. -1.
<scales pt_clust_4="550.00000" pt_clust_5="550.00000" pt_clust_6="31.85750"></scales>
<mgrwt>
<rscale>  0 0.30000000E+03</rscale>
<asrwt>  1 0.31857504E+02</asrwt>
<pdfrwt beam="1">  1        1 0.84391370E+00 0.30000000E+03</pdfrwt>
<pdfrwt beam="2">0</pdfrwt>
<totfact> 0.46998156E-04</totfact>
</mgrwt>
<clustering>
<clus scale="   31.858">  1  6  2 -1</clus>
<clus scale="  471.704">  4  5 -1 -1</clus>
<clus scale="  300.000">  1  4  2 -1</clus>
</clustering>
</event>
<event>
 6    1  0.9480355E-012  0.3000000E+03  0.7818608E-02  0.1093470E+00
          1   -1    0    0  502    0  0.00000000000E+00  0.00000000000E+00  0.24712000761E+03  0.24712000761E+03  0.00000000000E+00 0.  1.
         13   -1    0    0    0    0 -0.00000000000E+00 -0.00000000000E+00 -0.27500000000E+03  0.27500000000E+03  0.00000000000E+00 0.  1.
    9000005    2    1    2  501    0  0.28387695584E+02  0.28338421399E+02 -0.56467927008E+02  0.47286356241E+03  0.46776318206E+03 0.  0.
         13    1    3    3    0    0 -0.95404844404E+02  0.31782348494E+01  0.18057959105E+03  0.20425761728E+03  0.00000000000E+00 0.  1.
          3    1    3    3  501    0  0.12379253999E+03  0.25160186549E+02 -0.23704751806E+03  0.26860594513E+03  0.00000000000E+00 0.  1.
         21    1    1    2  502  501 -0.28387695584E+02 -0.28338421399E+02  0.28587934617E+02  0.49256445198E+02  0.00000000000E+00 0.  1.
<scales pt_clust_4="550.00000" pt_clust_5="550.00000" pt_clust_6="40.11144"></scales>
<mgrwt>
<rscale>  0 0.30000000E+03</rscale>
<asrwt>  1 0.40111437E+02</asrwt>
<pdfrwt beam="1">  1        1 0.89861821E+00 0.30000000E+03</pdfrwt>
<pdfrwt beam="2">0</pdfrwt>
<totfact> 0.11192452E-04</totfact>
</mgrwt>
<clustering>
<clus scale="   40.111">  1  6  2 -1</clus>
<clus scale="  467.763">  4  5 -1 -1</clus>
<clus scale="  300.000">  1  4  2 -1</clus>
</clustering>
</event>
<event>
 6    1  0.9480355E-012  0.3000000E+03  0.7818608E-02  0.1093470E+00
          1   -1    0    0  502    0  0.00000000000E+00  0.00000000000E+00  0.22505456577E+03  0.22505456577E+03  0.00000000000E+00 0.  1.
         13   -1    0    0    0    0 -0.00000000000E+00 -0.00000000000E+00 -0.27500000000E+03  0.27500000000E+03  0.00000000000E+00 0.  1.
    9000005    2    1    2  501    0  0.36758286154E+02 -0.58801999849E+01 -0.58796416435E+02  0.46179115977E+03  0.45651758817E+03 0.  0.
         13    1    3    3    0    0 -0.34697051819E+02  0.19525678832E+03 -0.12959347130E+03  0.23690412954E+03  0.00000000000E+00 0.  1.
          1    1    3    3  501    0  0.71455337973E+02 -0.20113698831E+03  0.70797054862E+02  0.22488703023E+03  0.00000000000E+00 0.  1.
         21    1    1    2  502  501 -0.36758286154E+02  0.58801999849E+01  0.88509822080E+01  0.38263406002E+02  0.00000000000E+00 0.  1.
<scales pt_clust_4="550.00000" pt_clust_5="550.00000" pt_clust_6="37.22564"></scales>
<mgrwt>
<rscale>  0 0.30000000E+03</rscale>
<asrwt>  1 0.37225641E+02</asrwt>
<pdfrwt beam="1">  1        1 0.81838024E+00 0.30000000E+03</pdfrwt>
<pdfrwt beam="2">0</pdfrwt>
<totfact> 0.73819933E-04</totfact>
</mgrwt>
<clustering>
<clus scale="   37.226">  1  6  2 -1</clus>
<clus scale="  456.518">  4  5 -1 -1</clus>
<clus scale="  300.000">  1  4  2 -1</clus>
</clustering>
</event>
<event>
 6    1  0.9480355E-012  0.3000000E+03  0.7818608E-02  0.1093470E+00
          1   -1    0    0  502    0  0.00000000000E+00  0.00000000000E+00  0.22068177571E+03  0.22068177571E+03  0.00000000000E+00 0.  1.
         13   -1    0    0    0    0 -0.00000000000E+00 -0.00000000000E+00 -0.27500000000E+03  0.27500000000E+03  0.00000000000E+00 0.  1.
    9000005    2    1    2  501    0  0.40196466274E+01  0.31106218186E+02 -0.61185683619E+02  0.46357388935E+03  0.45844662573E+03 0.  0.
         13    1    3    3    0    0 -0.14556833683E+03  0.65945857967E+02 -0.20037314255E+03  0.25629747000E+03  0.00000000000E+00 0.  1.
          1    1    3    3  501    0  0.14958798346E+03 -0.34839639781E+02  0.13918745893E+03  0.20727641935E+03  0.00000000000E+00 0.  1.
         21    1    1    2  502  501 -0.40196466274E+01 -0.31106218186E+02  0.68674593288E+01  0.32107886360E+02  0.00000000000E+00 0. -1.
<scales pt_clust_4="550.00000" pt_clust_5="550.00000" pt_clust_6="31.36486"></scales>
<mgrwt>
<rscale>  0 0.30000000E+03</rscale>
<asrwt>  1 0.31364859E+02</asrwt>
<pdfrwt beam="1">  1        1 0.80247918E+00 0.30000000E+03</pdfrwt>
<pdfrwt beam="2">0</pdfrwt>
<totfact> 0.10157513E-03</totfact>
</mgrwt>
<clustering>
<clus scale="   31.365">  1  6  2 -1</clus>
<clus scale="  458.447">  4  5 -1 -1</clus>
<clus scale="  300.000">  1  4  2 -1</clus>
</clustering>
</event>
<event>
 6    1  0.9480355E-012  0.3000000E+03  0.7818608E-02  0.1093470E+00
          1   -1    0    0  502    0  0.00000000000E+00  0.00000000000E+00  0.24322756984E+03  0.24322756984E+03  0.00000000000E+00 0.  1.
         13   -1    0    0    0    0 -0.00000000000E+00 -0.00000000000E+00 -0.27500000000E+03  0.27500000000E+03  0.00000000000E+00 0.  1.
    9000005    2    1    2  501    0 -0.21394783590E+02 -0.33583922054E+02 -0.30671233876E+02  0.47839254481E+03  0.47574476955E+03 0.  0.
         13    1    3    3    0    0 -0.84485213655E+02  0.20569889912E+03  0.27839302382E+02  0.22410893597E+03  0.00000000000E+00 0.  1.
          3    1    3    3  501    0  0.63090430065E+02 -0.23928282117E+03 -0.58510536258E+02  0.25428360884E+03  0.00000000000E+00 0.  1.
         21    1    1    2  502  501  0.21394783590E+02  0.33583922054E+02 -0.11011962883E+01  0.39835025024E+02  0.00000000000E+00 0. -1.
<scales pt_clust_4="550.00000" pt_clust_5="550.00000" pt_clust_6="39.81980"></scales>
<mgrwt>
<rscale>  0 0.30000000E+03</rscale>
<asrwt>  1 0.39819801E+02</asrwt>
<pdfrwt beam="1">  1        1 0.88446389E+00 0.30000000E+03</pdfrwt>
<pdfrwt beam="2">0</pdfrwt>
<totfact> 0.16852691E-04</totfact>
</mgrwt>
<clustering>
<clus scale="   39.820">  1  6  2 -1</clus>
<clus scale="  475.745">  4  5 -1 -1</clus>
<clus scale="  300.000">  1  4  2 -1</clus>
</clustering>
</event>
<event>
 6    1  0.9480355E-012  0.3000000E+03  0.7818608E-02  0.1093470E+00
          1   -1    0    0  502    0  0.00000000000E+00  0.00000000000E+00  0.23066234778E+03  0.23066234778E+03  0.00000000000E+00 0.  1.
         13   -1    0    0    0    0 -0.00000000000E+00 -0.00000000000E+00 -0.27500000000E+03  0.27500000000E+03  0.00000000000E+00 0.  1.
    9000005    2    1    2  501    0 -0.25711336497E+02  0.35434458069E+02 -0.51830448652E+02  0.46124595845E+03  0.45622885171E+03 0.  0.
         13    1    3    3    0    0  0.12360724097E+03 -0.16359241266E+03 -0.55456814079E+02  0.21240688720E+03  0.00000000000E+00 0.  1.
          3    1    3    3  501    0 -0.14931857747E+03  0.19902687073E+03  0.36263654270E+01  0.24883907124E+03  0.00000000000E+00 0.  1.
         21    1    1    2  502  501  0.25711336497E+02 -0.35434458069E+02  0.74927964313E+01  0.44416389334E+02  0.00000000000E+00 0.  1.
<scales pt_clust_4="550.00000" pt_clust_5="550.00000" pt_clust_6="43.77983"></scales>
<mgrwt>
<rscale>  0 0.30000000E+03</rscale>
<asrwt>  1 0.43779831E+02</asrwt>
<pdfrwt beam="1">  1        1 0.83877217E+00 0.30000000E+03</pdfrwt>
<pdfrwt beam="2">0</pdfrwt>
<totfact> 0.48735777E-04</totfact>
</mgrwt>
<clustering>
<clus scale="   43.780">  1  6  2 -1</clus>
<clus scale="  456.229">  4  5 -1 -1</clus>
<clus scale="  300.000">  1  4  2 -1</clus>
</clustering>
</event>
<event>
 6    1  0.9480355E-012  0.3000000E+03  0.7818608E-02  0.1093470E+00
          1   -1    0    0  502    0  0.00000000000E+00  0.00000000000E+00  0.24237947330E+03  0.24237947330E+03  0.00000000000E+00 0.  1.
         13   -1    0    0    0    0 -0.00000000000E+00 -0.00000000000E+00 -0.27500000000E+03  0.27500000000E+03  0.00000000000E+00 0.  1.
    9000005    2    1    2  501    0  0.19043182388E+02 -0.44457808770E+02 -0.34929807513E+02  0.46895972182E+03  0.46514942726E+03 0.  0.
         13    1    3    3    0    0  0.18851755506E+03 -0.60482157289E+02 -0.16258275080E+03  0.25618374416E+03  0.00000000000E+00 0.  1.
          3    1    3    3  501    0 -0.16947437267E+03  0.16024348520E+02  0.12765294328E+03  0.21277597766E+03  0.00000000000E+00 0.  1.
         21    1    1    2  502  501 -0.19043182388E+02  0.44457808770E+02  0.23092808175E+01  0.48419751486E+02  0.00000000000E+00 0.  1.
<scales pt_clust_4="550.00000" pt_clust_5="550.00000" pt_clust_6="48.36465"></scales>
<mgrwt>
<rscale>  0 0.30000000E+03</rscale>
<asrwt>  1 0.48364652E+02</asrwt>
<pdfrwt beam="1">  1        1 0.88137990E+00 0.30000000E+03</pdfrwt>
<pdfrwt beam="2">0</pdfrwt>
<totfact> 0.17882476E-04</totfact>
</mgrwt>
<clustering>
<clus scale="   48.365">  1  6  2 -1</clus>
<clus scale="  465.149">  4  5 -1 -1</clus>
<clus scale="  300.000">  1  4  2 -1</clus>
</clustering>
</event>
<event>
 6    1  0.9480355E-012  0.3000000E+03  0.7818608E-02  0.1093470E+00
          1   -1    0    0  502    0  0.00000000000E+00  0.00000000000E+00  0.24075783386E+03  0.24075783386E+03  0.00000000000E+00 0.  1.
         13   -1    0    0    0    0 -0.00000000000E+00 -0.00000000000E+00 -0.27500000000E+03  0.27500000000E+03  0.00000000000E+00 0.  1.
    9000005    2    1    2  501    0 -0.31185942668E+02  0.66168733675E+01 -0.72827566964E+02  0.46570606875E+03  0.45887028879E+03 0.  0.
         13    1    3    3    0    0 -0.14739849824E+03  0.32045329090E+02 -0.22602964424E+03  0.27173998689E+03  0.00000000000E+00 0.  1.
          1    1    3    3  501    0  0.11621255557E+03 -0.25428455722E+02  0.15320207728E+03  0.19396608187E+03  0.00000000000E+00 0.  1.
         21    1    1    2  502  501  0.31185942668E+02 -0.66168733675E+01  0.38585400819E+02  0.50051765100E+02  0.00000000000E+00 0.  1.
<scales pt_clust_4="550.00000" pt_clust_5="550.00000" pt_clust_6="31.88018"></scales>
<mgrwt>
<rscale>  0 0.30000000E+03</rscale>
<asrwt>  1 0.31880182E+02</asrwt>
<pdfrwt beam="1">  1        1 0.87548303E+00 0.30000000E+03</pdfrwt>
<pdfrwt beam="2">0</pdfrwt>
<totfact> 0.22623322E-04</totfact>
</mgrwt>
<clustering>
<clus scale="   31.880">  1  6  2 -1</clus>
<clus scale="  458.870">  4  5 -1 -1</clus>
<clus scale="  300.000">  1  4  2 -1</clus>
</clustering>
</event>
<event>
 6    1  0.9480355E-012  0.3000000E+03  0.7818608E-02  0.1093470E+00
          1   -1    0    0  502    0  0.00000000000E+00  0.00000000000E+00  0.23311971906E+03  0.23311971906E+03  0.00000000000E+00 0.  1.
         13   -1    0    0    0    0 -0.00000000000E+00 -0.00000000000E+00 -0.27500000000E+03  0.27500000000E+03  0.00000000000E+00 0.  1.
    9000005    2    1    2  501    0 -0.55239900917E-01  0.36374161230E+02 -0.67155906413E+02  0.46382592830E+03  0.45749480144E+03 0.  0.
         13    1    3    3    0    0 -0.50834768151E+02  0.18817917550E+03 -0.18210629569E+03  0.26675509119E+03  0.00000000000E+00 0.  1.
          1    1    3    3  501    0  0.50779528250E+02 -0.15180501427E+03  0.11495038927E+03  0.19707083712E+03  0.00000000000E+00 0.  1.
         21    1    1    2  502  501  0.55239900917E-01 -0.36374161230E+02  0.25275625473E+02  0.44293790758E+02  0.00000000000E+00 0.  1.
<scales pt_clust_4="550.00000" pt_clust_5="550.00000" pt_clust_6="36.37420"></scales>
<mgrwt>
<rscale>  0 0.30000000E+03</rscale>
<asrwt>  1 0.36374203E+02</asrwt>
<pdfrwt beam="1">  1        1 0.84770807E+00 0.30000000E+03</pdfrwt>
<pdfrwt beam="2">0</pdfrwt>
<totfact> 0.42429550E-04</totfact>
</mgrwt>
<clustering>
<clus scale="   36.374">  1  6  2 -1</clus>
<clus scale="  457.495">  4  5 -1 -1</clus>
<clus scale="  300.000">  1  4  2 -1</clus>
</clustering>
</event>
<event>
 6    1  0.9480355E-012  0.3000000E+03  0.7818608E-02  0.1093470E+00
          1   -1    0    0  502    0  0.00000000000E+00  0.00000000000E+00  0.24385591501E+03  0.24385591501E+03  0.00000000000E+00 0.  1.
         13   -1    0    0    0    0 -0.00000000000E+00 -0.00000000000E+00 -0.27500000000E+03  0.27500000000E+03  0.00000000000E+00 0.  1.
    9000005    2    1    2  501    0 -0.37752419943E+02  0.31124321516E+02 -0.58940192788E+02  0.46258343319E+03  0.45619679715E+03 0.  0.
         13    1    3    3    0    0 -0.18462214740E+03  0.10192637514E+03  0.10131802649E+03  0.23396509515E+03  0.00000000000E+00 0.  1.
          1    1    3    3  501    0  0.14686972745E+03 -0.70802053619E+02 -0.16025821928E+03  0.22861833804E+03  0.00000000000E+00 0.  1.
         21    1    1    2  502  501  0.37752419943E+02 -0.31124321516E+02  0.27796107794E+02  0.56272481817E+02  0.00000000000E+00 0. -1.
<scales pt_clust_4="550.00000" pt_clust_5="550.00000" pt_clust_6="48.92820"></scales>
<mgrwt>
<rscale>  0 0.30000000E+03</rscale>
<asrwt>  1 0.48928198E+02</asrwt>
<pdfrwt beam="1">  1        1 0.88674878E+00 0.30000000E+03</pdfrwt>
<pdfrwt beam="2">0</pdfrwt>
<totfact> 0.15108247E-04</totfact>
</mgrwt>
<clustering>
<clus scale="   48.928">  1  6  2 -1</clus>
<clus scale="  456.197">  4  5 -1 -1</clus>
<clus scale="  300.000">  1  4  2 -1</clus>
</clustering>
</event>
<event>
 6    1  0.9480355E-012  0.3000000E+03  0.7818608E-02  0.1093470E+00
          1   -1    0    0  502    0  0.00000000000E+00  0.00000000000E+00  0.22397604661E+03  0.22397604661E+03  0.00000000000E+00 0.  1.
         13   -1    0    0    0    0 -0.00000000000E+00 -0.00000000000E+00 -0.27500000000E+03  0.27500000000E+03  0.00000000000E+00 0.  1.
    9000005    2    1    2  501    0 -0.21271274542E+02  0.28081263609E+02 -0.52323571902E+02  0.46372390491E+03  0.45941384319E+03 0.  0.
         13    1    3    3    0    0  0.20954768388E+03 -0.45932713652E+02  0.52420544808E+01  0.21458687085E+03  0.00000000000E+00 0.  1.
          3    1    3    3  501    0 -0.23081895843E+03  0.74013977261E+02 -0.57565626382E+02  0.24913703406E+03  0.00000000000E+00 0.  1.
         21    1    1    2  502  501  0.21271274542E+02 -0.28081263609E+02  0.12996185124E+01  0.35252141705E+02  0.00000000000E+00 0.  1.
<scales pt_clust_4="550.00000" pt_clust_5="550.00000" pt_clust_6="35.22818"></scales>
<mgrwt>
<rscale>  0 0.30000000E+03</rscale>
<asrwt>  1 0.35228177E+02</asrwt>
<pdfrwt beam="1">  1        1 0.81445835E+00 0.30000000E+03</pdfrwt>
<pdfrwt beam="2">0</pdfrwt>
<totfact> 0.80311362E-04</totfact>
</mgrwt>
<clustering>
<clus scale="   35.228">  1  6  2 -1</clus>
<clus scale="  459.414">  4  5 -1 -1</clus>
<clus scale="  300.000">  1  4  2 -1</clus>
</clustering>
</event>
<event>
 6    1  0.9480355E-012  0.3000000E+03  0.7818608E-02  0.1093470E+00
          1   -1    0    0  502    0  0.00000000000E+00  0.00000000000E+00  0.24507664300E+03  0.24507664300E+03  0.00000000000E+00 0.  1.
         13   -1    0    0    0    0 -0.00000000000E+00 -0.00000000000E+00 -0.27500000000E+03  0.27500000000E+03  0.00000000000E+00 0.  1.
    9000005    2    1    2  501    0  0.13844285515E+02 -0.41254672858E+02 -0.25529788056E+02  0.47633975100E+03  0.47366040158E+03 0.  0.
         13    1    3    3    0    0  0.66332804962E+02  0.24966999144E+02  0.21236668250E+03  0.22388166494E+03  0.00000000000E+00 0.  1.
          1    1    3    3  501    0 -0.52488519447E+02 -0.66221672002E+02 -0.23789647055E+03  0.25245808606E+03  0.00000000000E+00 0.  1.
         21    1    1    2  502  501 -0.13844285515E+02  0.41254672858E+02 -0.43935689412E+01  0.43736892003E+02  0.00000000000E+00 0.  1.
<scales pt_clust_4="550.00000" pt_clust_5="550.00000" pt_clust_6="43.51568"></scales>
<mgrwt>
<rscale>  0 0.30000000E+03</rscale>
<asrwt>  1 0.43515677E+02</asrwt>
<pdfrwt beam="1">  1        1 0.89118779E+00 0.30000000E+03</pdfrwt>
<pdfrwt beam="2">0</pdfrwt>
<totfact> 0.13440318E-04</totfact>
</mgrwt>
<clustering>
<clus scale="   43.516">  1  6  2 -1</clus>
<clus scale="  473.660">  4  5 -1 -1</clus>
<clus scale="  300.000">  1  4  2 -1</clus>
</clustering>
</event>
<event>
 6    1  0.9480355E-012  0.3000000E+03  0.7818608E-02  0.1093470E+00
          1   -1    0    0  502    0  0.00000000000E+00  0.00000000000E+00  0.24498170985E+03  0.24498170985E+03  0.00000000000E+00 0.  1.
         13   -1    0    0    0    0 -0.00000000000E+00 -0.00000000000E+00 -0.27500000000E+03  0.27500000000E+03  0.00000000000E+00 0.  1.
    9000005    2    1    2  501    0 -0.16949503358E+02 -0.26735675765E+02 -0.50524595398E+02  0.48226446475E+03  0.47856472624E+03 0.  0.
         13    1    3    3    0    0 -0.22876255360E+03 -0.57907922680E+02  0.56884468765E+02  0.24273746358E+03  0.00000000000E+00 0.  1.
          3    1    3    3  501    0  0.21181305024E+03  0.31172246915E+02 -0.10740906416E+03  0.23952700118E+03  0.00000000000E+00 0.  1.
         21    1    1    2  502  501  0.16949503358E+02  0.26735675765E+02  0.20506305249E+02  0.37717245096E+02  0.00000000000E+00 0. -1.
<scales pt_clust_4="550.00000" pt_clust_5="550.00000" pt_clust_6="31.65568"></scales>
<mgrwt>
<rscale>  0 0.30000000E+03</rscale>
<asrwt>  1 0.31655679E+02</asrwt>
<pdfrwt beam="1">  1        1 0.89084258E+00 0.30000000E+03</pdfrwt>
<pdfrwt beam="2">0</pdfrwt>
<totfact> 0.14401348E-04</totfact>
</mgrwt>
<clustering>
<clus scale="   31.656">  1  6  2 -1</clus>
<clus scale="  478.565">  4  5 -1 -1</clus>
<clus scale="  300.000">  1  4  2 -1</clus>
</clustering>
</event>
<event>
 6    1  0.9480355E-012  0.3000000E+03  0.7818608E-02  0.1093470E+00
          1   -1    0    0  502    0  0.00000000000E+00  0.00000000000E+00  0.22043796035E+03  0.22043796035E+03  0.00000000000E+00 0.  1.
         13   -1    0    0    0    0 -0.00000000000E+00 -0.00000000000E+00 -0.27500000000E+03  0.27500000000E+03  0.00000000000E+00 0.  1.
    9000005    2    1    2  501    0  0.19957150979E+02  0.27018758638E+02 -0.53893323863E+02  0.46184110969E+03  0.45745428083E+03 0.  0.
         13    1    3    3    0    0  0.11747113006E+03 -0.10845289656E+03 -0.18867182622E+03  0.24730255797E+03  0.00000000000E+00 0.  1.
          1    1    3    3  501    0 -0.97513979076E+02  0.13547165520E+03  0.13477850236E+03  0.21453855172E+03  0.00000000000E+00 0.  1.
         21    1    1    2  502  501 -0.19957150979E+02 -0.27018758638E+02 -0.66871578664E+00  0.33596850661E+02  0.00000000000E+00 0. -1.
<scales pt_clust_4="550.00000" pt_clust_5="550.00000" pt_clust_6="33.59019"></scales>
<mgrwt>
<rscale>  0 0.30000000E+03</rscale>
<asrwt>  1 0.33590195E+02</asrwt>
<pdfrwt beam="1">  1        1 0.80159258E+00 0.30000000E+03</pdfrwt>
<pdfrwt beam="2">0</pdfrwt>
<totfact> 0.10176631E-03</totfact>
</mgrwt>
<clustering>
<clus scale="   33.590">  1  6  2 -1</clus>
<clus scale="  457.454">  4  5 -1 -1</clus>
<clus scale="  300.000">  1  4  2 -1</clus>
</clustering>
</event>
<event>
 6    1  0.9480355E-012  0.3000000E+03  0.7818608E-02  0.1093470E+00
          1   -1    0    0  502    0  0.00000000000E+00  0.00000000000E+00  0.26116321811E+03  0.26116321811E+03  0.00000000000E+00 0.  1.
         13   -1    0    0    0    0 -0.00000000000E+00 -0.00000000000E+00 -0.27500000000E+03  0.27500000000E+03  0.00000000000E+00 0.  1.
    9000005    2    1    2  501    0 -0.30629561207E+02 -0.10615139210E+01 -0.73374640256E+02  0.46920014313E+03  0.46241284547E+03 0.  0.
         13    1    3    3    0    0 -0.14012751357E+03  0.11985019053E+03 -0.19299189822E+03  0.26691882850E+03  0.00000000000E+00 0.  1.
          3    1    3    3  501    0  0.10949795236E+03 -0.12091170445E+03  0.11961725797E+03  0.20228131463E+03  0.00000000000E+00 0.  1.
         21    1    1    2  502  501  0.30629561207E+02  0.10615139210E+01  0.59537858364E+02  0.66963074975E+02  0.00000000000E+00 0. -1.
<scales pt_clust_4="550.00000" pt_clust_5="550.00000" pt_clust_6="30.64795"></scales>
<mgrwt>
<rscale>  0 0.30000000E+03</rscale>
<asrwt>  1 0.30647950E+02</asrwt>
<pdfrwt beam="1">  1        1 0.94968443E+00 0.30000000E+03</pdfrwt>
<pdfrwt beam="2">0</pdfrwt>
<totfact> 0.12841064E-05</totfact>
</mgrwt>
<clustering>
<clus scale="   30.648">  1  6  2 -1</clus>
<clus scale="  462.413">  4  5 -1 -1</clus>
<clus scale="  300.000">  1  4  2 -1</clus>
</clustering>
</event>
<event>
 6    1  0.9480355E-012  0.3000000E+03  0.7818608E-02  0.1093470E+00
          1   -1    0    0  502    0  0.00000000000E+00  0.00000000000E+00  0.22099881986E+03  0.22099881986E+03  0.00000000000E+00 0.  1.
         13   -1    0    0    0    0 -0.00000000000E+00 -0.00000000000E+00 -0.27500000000E+03  0.27500000000E+03  0.00000000000E+00 0.  1.
    9000005    2    1    2  501    0 -0.25966084770E+02  0.16494781428E+02 -0.63971300214E+02  0.46366124625E+03  0.45819549174E+03 0.  0.
         13    1    3    3    0    0 -0.87543410812E+02  0.22520427609E+03 -0.32984016891E+02  0.24386217443E+03  0.00000000000E+00 0.  1.
          3    1    3    3  501    0  0.61577326042E+02 -0.20870949466E+03 -0.30987283323E+02  0.21979907182E+03  0.00000000000E+00 0.  1.
         21    1    1    2  502  501  0.25966084770E+02 -0.16494781428E+02  0.99701200712E+01  0.32337573608E+02  0.00000000000E+00 0. -1.
<scales pt_clust_4="550.00000" pt_clust_5="550.00000" pt_clust_6="30.76224"></scales>
<mgrwt>
<rscale>  0 0.30000000E+03</rscale>
<asrwt>  1 0.30762239E+02</asrwt>
<pdfrwt beam="1">  1        1 0.80363207E+00 0.30000000E+03</pdfrwt>
<pdfrwt beam="2">0</pdfrwt>
<totfact> 0.99980611E-04</totfact>
</mgrwt>
<clustering>
<clus scale="   30.762">  1  6  2 -1</clus>
<clus scale="  458.195">  4  5 -1 -1</clus>
<clus scale="  300.000">  1  4  2 -1</clus>
</clustering>
</event>
<event>
 6    1  0.9480355E-012  0.3000000E+03  0.7818608E-02  0.1093470E+00
          1   -1    0    0  502    0  0.00000000000E+00  0.00000000000E+00  0.23130454982E+03  0.23130454982E+03  0.00000000000E+00 0.  1.
         13   -1    0    0    0    0 -0.00000000000E+00 -0.00000000000E+00 -0.27500000000E+03  0.27500000000E+03  0.00000000000E+00 0.  1.
    9000005    2    1    2  501    0  0.30469086130E+02 -0.14997285651E+01 -0.53155933747E+02  0.47436530836E+03  0.47038949615E+03 0.  0.
         13    1    3    3    0    0 -0.14868279177E+03 -0.12214202578E+03 -0.14371252977E+03  0.24016356560E+03  0.00000000000E+00 0.  1.
          1    1    3    3  501    0  0.17915187789E+03  0.12064229721E+03  0.90556596024E+02  0.23420174276E+03  0.00000000000E+00 0.  1.
         21    1    1    2  502  501 -0.30469086130E+02  0.14997285651E+01  0.94604835663E+01  0.31939241454E+02  0.00000000000E+00 0.  1.
<scales pt_clust_4="550.00000" pt_clust_5="550.00000" pt_clust_6="30.50597"></scales>
<mgrwt>
<rscale>  0 0.30000000E+03</rscale>
<asrwt>  1 0.30505973E+02</asrwt>
<pdfrwt beam="1">  1        1 0.84110745E+00 0.30000000E+03</pdfrwt>
<pdfrwt beam="2">0</pdfrwt>
<totfact> 0.50008650E-04</totfact>
</mgrwt>
<clustering>
<clus scale="   30.506">  1  6  2 -1</clus>
<clus scale="  470.389">  4  5 -1 -1</clus>
<clus scale="  300.000">  1  4  2 -1</clus>
</clustering>
</event>
<event>
 6    1  0.9480355E-012  0.3000000E+03  0.7818608E-02  0.1093470E+00
          1   -1    0    0  502    0  0.00000000000E+00  0.00000000000E+00  0.23925051939E+03  0.23925051939E+03  0.00000000000E+00 0.  1.
         13   -1    0    0    0    0 -0.00000000000E+00 -0.00000000000E+00 -0.27500000000E+03  0.27500000000E+03  0.00000000000E+00 0.  1.
    9000005    2    1    2  501    0  0.51816499251E+01 -0.36488023895E+02 -0.67943617574E+02  0.46531497159E+03  0.45885015226E+03 0.  0.
         13    1    3    3    0    0  0.21987204374E+03  0.44792947214E+02  0.49966571917E+01  0.22444395809E+03  0.00000000000E+00 0.  1.
          1    1    3    3  501    0 -0.21469039382E+03 -0.81280971109E+02 -0.72940274765E+02  0.24087101350E+03  0.00000000000E+00 0.  1.
         21    1    1    2  502  501 -0.51816499251E+01  0.36488023895E+02  0.32194136959E+02  0.48935547797E+02  0.00000000000E+00 0. -1.
<scales pt_clust_4="550.00000" pt_clust_5="550.00000" pt_clust_6="36.85411"></scales>
<mgrwt>
<rscale>  0 0.30000000E+03</rscale>
<asrwt>  1 0.36854109E+02</asrwt>
<pdfrwt beam="1">  1        1 0.87000189E+00 0.30000000E+03</pdfrwt>
<pdfrwt beam="2">0</pdfrwt>
<totfact> 0.25081773E-04</totfact>
</mgrwt>
<clustering>
<clus scale="   36.854">  1  6  2 -1</clus>
<clus scale="  458.850">  4  5 -1 -1</clus>
<clus scale="  300.000">  1  4  2 -1</clus>
</clustering>
</event>
<event>
 6    1  0.9480355E-012  0.3000000E+03  0.7818608E-02  0.1093470E+00
          1   -1    0    0  502    0  0.00000000000E+00  0.00000000000E+00  0.22883269516E+03  0.22883269516E+03  0.00000000000E+00 0.  1.
         13   -1    0    0    0    0 -0.00000000000E+00 -0.00000000000E+00 -0.27500000000E+03  0.27500000000E+03  0.00000000000E+00 0.  1.
    9000005    2    1    2  501    0  0.39696656783E+00 -0.35726108320E+02 -0.58459342511E+02  0.46604901366E+03  0.46098554858E+03 0.  0.
         13    1    3    3    0    0 -0.14787492603E+03 -0.13963853122E+03 -0.15971362670E+03  0.25860076509E+03  0.00000000000E+00 0.  1.
          1    1    3    3  501    0  0.14827189260E+03  0.10391242290E+03  0.10125428419E+03  0.20744824857E+03  0.00000000000E+00 0.  1.
         21    1    1    2  502  501 -0.39696656783E+00  0.35726108320E+02  0.12292037675E+02  0.37783681509E+02  0.00000000000E+00 0.  1.
<scales pt_clust_4="550.00000" pt_clust_5="550.00000" pt_clust_6="35.72831"></scales>
<mgrwt>
<rscale>  0 0.30000000E+03</rscale>
<asrwt>  1 0.35728314E+02</asrwt>
<pdfrwt beam="1">  1        1 0.83211889E+00 0.30000000E+03</pdfrwt>
<pdfrwt beam="2">0</pdfrwt>
<totfact> 0.56630069E-04</totfact>
</mgrwt>
<clustering>
<clus scale="   35.728">  1  6  2 -1</clus>
<clus scale="  460.986">  4  5 -1 -1</clus>
<clus scale="  300.000">  1  4  2 -1</clus>
</clustering>
</event>
<event>
 6    1  0.9480355E-012  0.3000000E+03  0.7818608E-02  0.1093470E+00
          1   -1    0    0  502    0  0.00000000000E+00  0.00000000000E+00  0.23415125511E+03  0.23415125511E+03  0.00000000000E+00 0.  1.
         13   -1    0    0    0    0 -0.00000000000E+00 -0.00000000000E+00 -0.27500000000E+03  0.27500000000E+03  0.00000000000E+00 0.  1.
    9000005    2    1    2  501    0  0.35571480470E+02 -0.21374133430E+02 -0.53195472878E+02  0.46585430955E+03  0.46094283332E+03 0.  0.
         13    1    3    3    0    0 -0.13765530473E+03 -0.66280517534E+02  0.13663885670E+03  0.20496894176E+03  0.00000000000E+00 0.  1.
          3    1    3    3  501    0  0.17322678520E+03  0.44906384104E+02 -0.18983432958E+03  0.26088536780E+03  0.00000000000E+00 0.  1.
         21    1    1    2  502  501 -0.35571480470E+02  0.21374133430E+02  0.12346727991E+02  0.43296945560E+02  0.00000000000E+00 0.  1.
<scales pt_clust_4="550.00000" pt_clust_5="550.00000" pt_clust_6="41.49920"></scales>
<mgrwt>
<rscale>  0 0.30000000E+03</rscale>
<asrwt>  1 0.41499202E+02</asrwt>
<pdfrwt beam="1">  1        1 0.85145911E+00 0.30000000E+03</pdfrwt>
<pdfrwt beam="2">0</pdfrwt>
<totfact> 0.38208669E-04</totfact>
</mgrwt>
<clustering>
<clus scale="   41.499">  1  6  2 -1</clus>
<clus scale="  460.943">  4  5 -1 -1</clus>
<clus scale="  300.000">  1  4  2 -1</clus>
</clustering>
</event>
<event>
 6    1  0.9480355E-012  0.3000000E+03  0.7818608E-02  0.1093470E+00
          1   -1    0    0  502    0  0.00000000000E+00  0.00000000000E+00  0.24625557531E+03  0.24625557531E+03  0.00000000000E+00 0.  1.
         13   -1    0    0    0    0 -0.00000000000E+00 -0.00000000000E+00 -0.27500000000E+03  0.27500000000E+03  0.00000000000E+00 0.  1.
    9000005    2    1    2  501    0  0.48487243194E+02  0.33627756729E+02 -0.36146723719E+02  0.46178597967E+03  0.45657186358E+03 0.  0.
         13    1    3    3    0    0 -0.42904079781E+02 -0.96782405423E+02  0.17062517900E+03  0.20079976536E+03  0.00000000000E+00 0.  1.
          3    1    3    3  501    0  0.91391322975E+02  0.13041016215E+03 -0.20677190271E+03  0.26098621431E+03  0.00000000000E+00 0.  1.
         21    1    1    2  502  501 -0.48487243194E+02 -0.33627756729E+02  0.74022990329E+01  0.59469595645E+02  0.00000000000E+00 0.  1.
<scales pt_clust_4="550.00000" pt_clust_5="550.00000" pt_clust_6="59.00711"></scales>
<mgrwt>
<rscale>  0 0.30000000E+03</rscale>
<asrwt>  1 0.59007108E+02</asrwt>
<pdfrwt beam="1">  1        1 0.89547482E+00 0.30000000E+03</pdfrwt>
<pdfrwt beam="2">0</pdfrwt>
<totfact> 0.11347350E-04</totfact>
</mgrwt>
<clustering>
<clus scale="   59.007">  1  6  2 -1</clus>
<clus scale="  456.572">  4  5 -1 -1</clus>
<clus scale="  300.000">  1  4  2 -1</clus>
</clustering>
</event>
<event>
 6    1  0.9480355E-012  0.3000000E+03  0.7818608E-02  0.1093470E+00
          1   -1    0    0  502    0  0.00000000000E+00  0.00000000000E+00  0.21786020719E+03  0.21786020719E+03  0.00000000000E+00 0.  1.
         13   -1    0    0    0    0 -0.00000000000E+00 -0.00000000000E+00 -0.27500000000E+03  0.27500000000E+03  0.00000000000E+00 0.  1.
    9000005    2    1    2  501    0 -0.33243366848E+01 -0.30754688265E+02 -0.59927018833E+02  0.46180105888E+03  0.45685015961E+03 0.  0.
         13    1    3    3    0    0  0.11375614424E+03 -0.20667425600E+03 -0.81008530343E+02  0.24943353911E+03  0.00000000000E+00 0.  1.
          1    1    3    3  501    0 -0.11708048093E+03  0.17591956773E+03  0.21081511510E+02  0.21236751977E+03  0.00000000000E+00 0.  1.
         21    1    1    2  502  501  0.33243366848E+01  0.30754688265E+02  0.27872260241E+01  0.31059148307E+02  0.00000000000E+00 0. -1.
<scales pt_clust_4="550.00000" pt_clust_5="550.00000" pt_clust_6="30.93383"></scales>
<mgrwt>
<rscale>  0 0.30000000E+03</rscale>
<asrwt>  1 0.30933834E+02</asrwt>
<pdfrwt beam="1">  1        1 0.79221894E+00 0.30000000E+03</pdfrwt>
<pdfrwt beam="2">0</pdfrwt>
<totfact> 0.12125749E-03</totfact>
</mgrwt>
<clustering>
<clus scale="   30.934">  1  6  2 -1</clus>
<clus scale="  456.850">  4  5 -1 -1</clus>
<clus scale="  300.000">  1  4  2 -1</clus>
</clustering>
</event>
<event>
 6    1  0.9480355E-012  0.3000000E+03  0.7818608E-02  0.1093470E+00
          1   -1    0    0  502    0  0.00000000000E+00  0.00000000000E+00  0.23627127209E+03  0.23627127209E+03  0.00000000000E+00 0.  1.
         13   -1    0    0    0    0 -0.00000000000E+00 -0.00000000000E+00 -0.27500000000E+03  0.27500000000E+03  0.00000000000E+00 0.  1.
    9000005    2    1    2  501    0  0.24823343577E+02 -0.23163399144E+02 -0.63246072901E+02  0.46939237942E+03  0.46387110135E+03 0.  0.
         13    1    3    3    0    0  0.18603892160E+03  0.30891625867E+02 -0.18192627439E+03  0.26203423863E+03  0.00000000000E+00 0.  1.
          3    1    3    3  501    0 -0.16121557802E+03 -0.54055025010E+02  0.11868020149E+03  0.20735814079E+03  0.00000000000E+00 0.  1.
         21    1    1    2  502  501 -0.24823343577E+02  0.23163399144E+02  0.24517344995E+02  0.41878892677E+02  0.00000000000E+00 0. -1.
<scales pt_clust_4="550.00000" pt_clust_5="550.00000" pt_clust_6="33.95205"></scales>
<mgrwt>
<rscale>  0 0.30000000E+03</rscale>
<asrwt>  1 0.33952046E+02</asrwt>
<pdfrwt beam="1">  1        1 0.85916826E+00 0.30000000E+03</pdfrwt>
<pdfrwt beam="2">0</pdfrwt>
<totfact> 0.33200156E-04</totfact>
</mgrwt>
<clustering>
<clus scale="   33.952">  1  6  2 -1</clus>
<clus scale="  463.871">  4  5 -1 -1</clus>
<clus scale="  300.000">  1  4  2 -1</clus>
</clustering>
</event>
<event>
 6    1  0.9480355E-012  0.3000000E+03  0.7818608E-02  0.1093470E+00
          1   -1    0    0  502    0  0.00000000000E+00  0.00000000000E+00  0.22202131765E+03  0.22202131765E+03  0.00000000000E+00 0.  1.
         13   -1    0    0    0    0 -0.00000000000E+00 -0.00000000000E+00 -0.27500000000E+03  0.27500000000E+03  0.00000000000E+00 0.  1.
    9000005    2    1    2  501    0  0.17985199023E+02 -0.30182113629E+02 -0.44445863169E+02  0.46086559376E+03  0.45736990871E+03 0.  0.
         13    1    3    3    0    0  0.13132239043E+03 -0.12641059659E+03 -0.18252815329E+03  0.25795684892E+03  0.00000000000E+00 0.  1.
          3    1    3    3  501    0 -0.11333719140E+03  0.96228482964E+02  0.13808229012E+03  0.20290874484E+03  0.00000000000E+00 0.  1.
         21    1    1    2  502  501 -0.17985199023E+02  0.30182113629E+02 -0.85328191791E+01  0.36155723892E+02  0.00000000000E+00 0.  1.
<scales pt_clust_4="550.00000" pt_clust_5="550.00000" pt_clust_6="35.13444"></scales>
<mgrwt>
<rscale>  0 0.30000000E+03</rscale>
<asrwt>  1 0.35134436E+02</asrwt>
<pdfrwt beam="1">  1        1 0.80735025E+00 0.30000000E+03</pdfrwt>
<pdfrwt beam="2">0</pdfrwt>
<totfact> 0.91367111E-04</totfact>
</mgrwt>
<clustering>
<clus scale="   35.134">  1  6  2 -1</clus>
<clus scale="  457.370">  4  5 -1 -1</clus>
<clus scale="  300.000">  1  4  2 -1</clus>
</clustering>
</event>
<event>
 6    1  0.9480355E-012  0.3000000E+03  0.7818608E-02  0.1093470E+00
          1   -1    0    0  502    0  0.00000000000E+00  0.00000000000E+00  0.23229097313E+03  0.23229097313E+03  0.00000000000E+00 0.  1.
         13   -1    0    0    0    0 -0.00000000000E+00 -0.00000000000E+00 -0.27500000000E+03  0.27500000000E+03  0.00000000000E+00 0.  1.
    9000005    2    1    2  501    0  0.23685216617E+01 -0.36801060411E+02 -0.50097847307E+02  0.46968083341E+03  0.46554308396E+03 0.  0.
         13    1    3    3    0    0  0.53408556802E+02 -0.20560059520E+03 -0.15638383589E+03  0.26378017896E+03  0.00000000000E+00 0.  1.
          1    1    3    3  501    0 -0.51040035140E+02  0.16879953479E+03  0.10628598858E+03  0.20590065445E+03  0.00000000000E+00 0.  1.
         21    1    1    2  502  501 -0.23685216617E+01  0.36801060411E+02  0.73888204359E+01  0.37610139719E+02  0.00000000000E+00 0. -1.
<scales pt_clust_4="550.00000" pt_clust_5="550.00000" pt_clust_6="36.87720"></scales>
<mgrwt>
<rscale>  0 0.30000000E+03</rscale>
<asrwt>  1 0.36877201E+02</asrwt>
<pdfrwt beam="1">  1        1 0.84469445E+00 0.30000000E+03</pdfrwt>
<pdfrwt beam="2">0</pdfrwt>
<totfact> 0.45020303E-04</totfact>
</mgrwt>
<clustering>
<clus scale="   36.877">  1  6  2 -1</clus>
<clus scale="  465.543">  4  5 -1 -1</clus>
<clus scale="  300.000">  1  4  2 -1</clus>
</clustering>
</event>
<event>
 6    1  0.9480355E-012  0.3000000E+03  0.7818608E-02  0.1093470E+00
          1   -1    0    0  502    0  0.00000000000E+00  0.00000000000E+00  0.23167561427E+03  0.23167561427E+03  0.00000000000E+00 0.  1.
         13   -1    0    0    0    0 -0.00000000000E+00 -0.00000000000E+00 -0.27500000000E+03  0.27500000000E+03  0.00000000000E+00 0.  1.
    9000005    2    1    2  501    0  0.41516648138E+02 -0.13522740177E+02 -0.39674289117E+02  0.46285986619E+03  0.45908464354E+03 0.  0.
         13    1    3    3    0    0 -0.97128102415E+01 -0.16982759732E+03  0.13923910841E+03  0.21982556904E+03  0.00000000000E+00 0.  1.
          3    1    3    3  501    0  0.51229458379E+02  0.15630485715E+03 -0.17891339752E+03  0.24303429714E+03  0.00000000000E+00 0.  1.
         21    1    1    2  502  501 -0.41516648138E+02  0.13522740177E+02 -0.36500966166E+01  0.43815748080E+02  0.00000000000E+00 0. -1.
<scales pt_clust_4="550.00000" pt_clust_5="550.00000" pt_clust_6="43.66345"></scales>
<mgrwt>
<rscale>  0 0.30000000E+03</rscale>
<asrwt>  1 0.43663447E+02</asrwt>
<pdfrwt beam="1">  1        1 0.84245678E+00 0.30000000E+03</pdfrwt>
<pdfrwt beam="2">0</pdfrwt>
<totfact> 0.45613194E-04</totfact>
</mgrwt>
<clustering>
<clus scale="   43.663">  1  6  2 -1</clus>
<clus scale="  459.085">  4  5 -1 -1</clus>
<clus scale="  300.000">  1  4  2 -1</clus>
</clustering>
</event>
<event>
 6    1  0.9480355E-012  0.3000000E+03  0.7818608E-02  0.1093470E+00
          1   -1    0    0  502    0  0.00000000000E+00  0.00000000000E+00  0.24302833039E+03  0.24302833039E+03  0.00000000000E+00 0.  1.
         13   -1    0    0    0    0 -0.00000000000E+00 -0.00000000000E+00 -0.27500000000E+03  0.27500000000E+03  0.00000000000E+00 0.  1.
    9000005    2    1    2  501    0  0.13470069171E+01 -0.37434341926E+02 -0.47221653075E+02  0.47758446338E+03  0.47376564962E+03 0.  0.
         13    1    3    3    0    0 -0.10615560790E+03 -0.17277540299E+03 -0.17078467304E+03  0.26511838396E+03  0.00000000000E+00 0.  1.
          3    1    3    3  501    0  0.10750261482E+03  0.13534106106E+03  0.12356301997E+03  0.21246607942E+03  0.00000000000E+00 0.  1.
         21    1    1    2  502  501 -0.13470069171E+01  0.37434341926E+02  0.15249983466E+02  0.40443867011E+02  0.00000000000E+00 0. -1.
<scales pt_clust_4="550.00000" pt_clust_5="550.00000" pt_clust_6="37.45857"></scales>
<mgrwt>
<rscale>  0 0.30000000E+03</rscale>
<asrwt>  1 0.37458569E+02</asrwt>
<pdfrwt beam="1">  1        1 0.88373938E+00 0.30000000E+03</pdfrwt>
<pdfrwt beam="2">0</pdfrwt>
<totfact> 0.17432650E-04</totfact>
</mgrwt>
<clustering>
<clus scale="   37.459">  1  6  2 -1</clus>
<clus scale="  473.766">  4  5 -1 -1</clus>
<clus scale="  300.000">  1  4  2 -1</clus>
</clustering>
</event>
<event>
 6    1  0.9480355E-012  0.3000000E+03  0.7818608E-02  0.1093470E+00
          1   -1    0    0  502    0  0.00000000000E+00  0.00000000000E+00  0.23467578293E+03  0.23467578293E+03  0.00000000000E+00 0.  1.
         13   -1    0    0    0    0 -0.00000000000E+00 -0.00000000000E+00 -0.27500000000E+03  0.27500000000E+03  0.00000000000E+00 0.  1.
    9000005    2    1    2  501    0  0.20698747320E+02  0.34995044306E+02 -0.58555444818E+02  0.46511718183E+03  0.45962175912E+03 0.  0.
         13    1    3    3    0    0 -0.19540086917E+03 -0.64108724162E+02  0.36892690550E+02  0.20893180419E+03  0.00000000000E+00 0.  1.
          1    1    3    3  501    0  0.21609961649E+03  0.99103768469E+02 -0.95448135368E+02  0.25618537764E+03  0.00000000000E+00 0.  1.
         21    1    1    2  502  501 -0.20698747320E+02 -0.34995044306E+02  0.18231227751E+02  0.44558601100E+02  0.00000000000E+00 0. -1.
<scales pt_clust_4="550.00000" pt_clust_5="550.00000" pt_clust_6="40.65823"></scales>
<mgrwt>
<rscale>  0 0.30000000E+03</rscale>
<asrwt>  1 0.40658225E+02</asrwt>
<pdfrwt beam="1">  1        1 0.85336648E+00 0.30000000E+03</pdfrwt>
<pdfrwt beam="2">0</pdfrwt>
<totfact> 0.36766650E-04</totfact>
</mgrwt>
<clustering>
<clus scale="   40.658">  1  6  2 -1</clus>
<clus scale="  459.622">  4  5 -1 -1</clus>
<clus scale="  300.000">  1  4  2 -1</clus>
</clustering>
</event>
<event>
 6    1  0.9480355E-012  0.3000000E+03  0.7818608E-02  0.1093470E+00
          1   -1    0    0  502    0  0.00000000000E+00  0.00000000000E+00  0.23551707248E+03  0.23551707248E+03  0.00000000000E+00 0.  1.
         13   -1    0    0    0    0 -0.00000000000E+00 -0.00000000000E+00 -0.27500000000E+03  0.27500000000E+03  0.00000000000E+00 0.  1.
    9000005    2    1    2  501    0 -0.49317467738E+01  0.32325744624E+02 -0.54561243855E+02  0.47450830250E+03  0.47022539693E+03 0.  0.
         13    1    3    3    0    0  0.40504227743E+02  0.20278600378E+03 -0.16657649458E+03  0.26553810337E+03  0.00000000000E+00 0.  1.
          1    1    3    3  501    0 -0.45435974517E+02 -0.17046025915E+03  0.11201525073E+03  0.20897019913E+03  0.00000000000E+00 0.  1.
         21    1    1    2  502  501  0.49317467738E+01 -0.32325744624E+02  0.15078316333E+02  0.36008769976E+02  0.00000000000E+00 0. -1.
<scales pt_clust_4="550.00000" pt_clust_5="550.00000" pt_clust_6="32.69978"></scales>
<mgrwt>
<rscale>  0 0.30000000E+03</rscale>
<asrwt>  1 0.32699784E+02</asrwt>
<pdfrwt beam="1">  1        1 0.85642572E+00 0.30000000E+03</pdfrwt>
<pdfrwt beam="2">0</pdfrwt>
<totfact> 0.35704973E-04</totfact>
</mgrwt>
<clustering>
<clus scale="   32.700">  1  6  2 -1</clus>
<clus scale="  470.225">  4  5 -1 -1</clus>
<clus scale="  300.000">  1  4  2 -1</clus>
</clustering>
</event>
<event>
 6    1  0.9480355E-012  0.3000000E+03  0.7818608E-02  0.1093470E+00
          1   -1    0    0  502    0  0.00000000000E+00  0.00000000000E+00  0.25391760616E+03  0.25391760616E+03  0.00000000000E+00 0.  1.
         13   -1    0    0    0    0 -0.00000000000E+00 -0.00000000000E+00 -0.27500000000E+03  0.27500000000E+03  0.00000000000E+00 0.  1.
    9000005    2    1    2  501    0  0.27572444924E+02  0.14449553974E+02 -0.36388277487E+02  0.49422899991E+03  0.49190361687E+03 0.  0.
         13    1    3    3    0    0 -0.21652755691E+03 -0.77994883114E+02 -0.37658944400E+02  0.23320716282E+03  0.00000000000E+00 0.  1.
          1    1    3    3  501    0  0.24410000184E+03  0.92444437088E+02  0.12706669132E+01  0.26102183709E+03  0.00000000000E+00 0.  1.
         21    1    1    2  502  501 -0.27572444924E+02 -0.14449553974E+02  0.15305883643E+02  0.34688606245E+02  0.00000000000E+00 0.  1.
<scales pt_clust_4="550.00000" pt_clust_5="550.00000" pt_clust_6="31.12924"></scales>
<mgrwt>
<rscale>  0 0.30000000E+03</rscale>
<asrwt>  1 0.31129236E+02</asrwt>
<pdfrwt beam="1">  1        1 0.92333675E+00 0.30000000E+03</pdfrwt>
<pdfrwt beam="2">0</pdfrwt>
<totfact> 0.36299282E-05</totfact>
</mgrwt>
<clustering>
<clus scale="   31.129">  1  6  2 -1</clus>
<clus scale="  491.904">  4  5 -1 -1</clus>
<clus scale="  300.000">  1  4  2 -1</clus>
</clustering>
</event>
<event>
 6    1  0.9480355E-012  0.3000000E+03  0.7818608E-02  0.1093470E+00
          1   -1    0    0  502    0  0.00000000000E+00  0.00000000000E+00  0.22024907516E+03  0.22024907516E+03  0.00000000000E+00 0.  1.
         13   -1    0    0    0    0 -0.00000000000E+00 -0.00000000000E+00 -0.27500000000E+03  0.27500000000E+03  0.00000000000E+00 0.  1.
    9000005    2    1    2  501    0 -0.31269102805E+02 -0.30258507058E+01 -0.64767296869E+02  0.46227574849E+03  0.45663678382E+03 0.  0.
         13    1    3    3    0    0  0.13809147061E+03 -0.25037889741E+02  0.13823378583E+03  0.19698916144E+03  0.00000000000E+00 0.  1.
          1    1    3    3  501    0 -0.16936057342E+03  0.22012039036E+02 -0.20300108270E+03  0.26528658705E+03  0.00000000000E+00 0.  1.
         21    1    1    2  502  501  0.31269102805E+02  0.30258507058E+01  0.10016372025E+02  0.32973326664E+02  0.00000000000E+00 0.  1.
<scales pt_clust_4="550.00000" pt_clust_5="550.00000" pt_clust_6="31.41516"></scales>
<mgrwt>
<rscale>  0 0.30000000E+03</rscale>
<asrwt>  1 0.31415165E+02</asrwt>
<pdfrwt beam="1">  1        1 0.80090573E+00 0.30000000E+03</pdfrwt>
<pdfrwt beam="2">0</pdfrwt>
<totfact> 0.10425599E-03</totfact>
</mgrwt>
<clustering>
<clus scale="   31.415">  1  6  2 -1</clus>
<clus scale="  456.637">  4  5 -1 -1</clus>
<clus scale="  300.000">  1  4  2 -1</clus>
</clustering>
</event>
<event>
 6    1  0.9480355E-012  0.3000000E+03  0.7818608E-02  0.1093470E+00
          1   -1    0    0  502    0  0.00000000000E+00  0.00000000000E+00  0.26116462742E+03  0.26116462742E+03  0.00000000000E+00 0.  1.
         13   -1    0    0    0    0 -0.00000000000E+00 -0.00000000000E+00 -0.27500000000E+03  0.27500000000E+03  0.00000000000E+00 0.  1.
    9000005    2    1    2  501    0  0.30577809447E+02 -0.96504882800E+01 -0.37575479257E+02  0.49626817370E+03  0.49380365453E+03 0.  0.
         13    1    3    3    0    0 -0.14773281121E+03  0.17746223487E+03  0.18978319625E+02  0.23168514179E+03  0.00000000000E+00 0.  1.
          3    1    3    3  501    0  0.17831062066E+03 -0.18711272315E+03 -0.56553798882E+02  0.26458303190E+03  0.00000000000E+00 0.  1.
         21    1    1    2  502  501 -0.30577809447E+02  0.96504882800E+01  0.23740106680E+02  0.39896453725E+02  0.00000000000E+00 0.  1.
<scales pt_clust_4="550.00000" pt_clust_5="550.00000" pt_clust_6="32.06453"></scales>
<mgrwt>
<rscale>  0 0.30000000E+03</rscale>
<asrwt>  1 0.32064534E+02</asrwt>
<pdfrwt beam="1">  1        1 0.94968955E+00 0.30000000E+03</pdfrwt>
<pdfrwt beam="2">0</pdfrwt>
<totfact> 0.12727635E-05</totfact>
</mgrwt>
<clustering>
<clus scale="   32.065">  1  6  2 -1</clus>
<clus scale="  493.804">  4  5 -1 -1</clus>
<clus scale="  300.000">  1  4  2 -1</clus>
</clustering>
</event>
<event>
 6    1  0.9480355E-012  0.3000000E+03  0.7818608E-02  0.1093470E+00
          1   -1    0    0  502    0  0.00000000000E+00  0.00000000000E+00  0.24472425632E+03  0.24472425632E+03  0.00000000000E+00 0.  1.
         13   -1    0    0    0    0 -0.00000000000E+00 -0.00000000000E+00 -0.27500000000E+03  0.27500000000E+03  0.00000000000E+00 0.  1.
    9000005    2    1    2  501    0  0.22637441441E+02  0.45762684503E+02 -0.24528581545E+02  0.46834617811E+03  0.46490839333E+03 0.  0.
         13    1    3    3    0    0  0.21643196546E+03  0.10843549389E+03 -0.83881868419E+02  0.25619761876E+03  0.00000000000E+00 0.  1.
          1    1    3    3  501    0 -0.19379452402E+03 -0.62672809387E+02  0.59353286874E+02  0.21214855936E+03  0.00000000000E+00 0.  1.
         21    1    1    2  502  501 -0.22637441441E+02 -0.45762684503E+02 -0.57471621335E+01  0.51378078209E+02  0.00000000000E+00 0. -1.
<scales pt_clust_4="550.00000" pt_clust_5="550.00000" pt_clust_6="51.05565"></scales>
<mgrwt>
<rscale>  0 0.30000000E+03</rscale>
<asrwt>  1 0.51055653E+02</asrwt>
<pdfrwt beam="1">  1        1 0.88990639E+00 0.30000000E+03</pdfrwt>
<pdfrwt beam="2">0</pdfrwt>
<totfact> 0.13578372E-04</totfact>
</mgrwt>
<clustering>
<clus scale="   51.056">  1  6  2 -1</clus>
<clus scale="  464.908">  4  5 -1 -1</clus>
<clus scale="  300.000">  1  4  2 -1</clus>
</clustering>
</event>
<event>
 6    1  0.9480355E-012  0.3000000E+03  0.7818608E-02  0.1093470E+00
          1   -1    0    0  502    0  0.00000000000E+00  0.00000000000E+00  0.24069901108E+03  0.24069901108E+03  0.00000000000E+00 0.  1.
         13   -1    0    0    0    0 -0.00000000000E+00 -0.00000000000E+00 -0.27500000000E+03  0.27500000000E+03  0.00000000000E+00 0.  1.
    9000005    2    1    2  501    0 -0.30882413566E+02  0.20807899400E+02 -0.47376273230E+02  0.47623187025E+03  0.47240405463E+03 0.  0.
         13    1    3    3    0    0  0.48483515962E+01 -0.22507309134E+03 -0.30705386308E+02  0.22720964703E+03  0.00000000000E+00 0.  1.
          1    1    3    3  501    0 -0.35730765163E+02  0.24588099074E+03 -0.16670886922E+02  0.24902222322E+03  0.00000000000E+00 0.  1.
         21    1    1    2  502  501  0.30882413566E+02 -0.20807899400E+02  0.13075284306E+02  0.39467140824E+02  0.00000000000E+00 0.  1.
<scales pt_clust_4="550.00000" pt_clust_5="550.00000" pt_clust_6="37.23832"></scales>
<mgrwt>
<rscale>  0 0.30000000E+03</rscale>
<asrwt>  1 0.37238316E+02</asrwt>
<pdfrwt beam="1">  1        1 0.87526913E+00 0.30000000E+03</pdfrwt>
<pdfrwt beam="2">0</pdfrwt>
<totfact> 0.22089175E-04</totfact>
</mgrwt>
<clustering>
<clus scale="   37.238">  1  6  2 -1</clus>
<clus scale="  472.404">  4  5 -1 -1</clus>
<clus scale="  300.000">  1  4  2 -1</clus>
</clustering>
</event>
<event>
 6    1  0.9480355E-012  0.3000000E+03  0.7818608E-02  0.1093470E+00
          1   -1    0    0  502    0  0.00000000000E+00  0.00000000000E+00  0.23965948953E+03  0.23965948953E+03  0.00000000000E+00 0.  1.
         13   -1    0    0    0    0 -0.00000000000E+00 -0.00000000000E+00 -0.27500000000E+03  0.27500000000E+03  0.00000000000E+00 0.  1.
    9000005    2    1    2  501    0 -0.42469307090E+02  0.12371088787E+02 -0.51368192792E+02  0.46761087124E+03  0.46267110326E+03 0.  0.
         13    1    3    3    0    0 -0.18648541248E+03 -0.61146813261E+02 -0.17587839730E+03  0.26353169160E+03  0.00000000000E+00 0.  1.
          3    1    3    3  501    0  0.14401610539E+03  0.73517902048E+02  0.12451020451E+03  0.20407917964E+03  0.00000000000E+00 0.  1.
         21    1    1    2  502  501  0.42469307090E+02 -0.12371088787E+02  0.16027682324E+02  0.47048618292E+02  0.00000000000E+00 0.  1.
<scales pt_clust_4="550.00000" pt_clust_5="550.00000" pt_clust_6="44.23444"></scales>
<mgrwt>
<rscale>  0 0.30000000E+03</rscale>
<asrwt>  1 0.44234442E+02</asrwt>
<pdfrwt beam="1">  1        1 0.87148905E+00 0.30000000E+03</pdfrwt>
<pdfrwt beam="2">0</pdfrwt>
<totfact> 0.23427845E-04</totfact>
</mgrwt>
<clustering>
<clus scale="   44.234">  1  6  2 -1</clus>
<clus scale="  462.671">  4  5 -1 -1</clus>
<clus scale="  300.000">  1  4  2 -1</clus>
</clustering>
</event>
<event>
 6    1  0.9480355E-012  0.3000000E+03  0.7818608E-02  0.1093470E+00
          1   -1    0    0  502    0  0.00000000000E+00  0.00000000000E+00  0.22289086161E+03  0.22289086161E+03  0.00000000000E+00 0.  1.
         13   -1    0    0    0    0 -0.00000000000E+00 -0.00000000000E+00 -0.27500000000E+03  0.27500000000E+03  0.00000000000E+00 0.  1.
    9000005    2    1    2  501    0 -0.36687826683E+01  0.33624694322E+02 -0.53233954962E+02  0.46404791187E+03  0.45974180854E+03 0.  0.
         13    1    3    3    0    0 -0.37956158889E+02 -0.16890884644E+03  0.10700854848E+03  0.20352321207E+03  0.00000000000E+00 0.  1.
          3    1    3    3  501    0  0.34287376221E+02  0.20253354076E+03 -0.16024250344E+03  0.26052469981E+03  0.00000000000E+00 0.  1.
         21    1    1    2  502  501  0.36687826683E+01 -0.33624694322E+02  0.11248165685E+01  0.33842949735E+02  0.00000000000E+00 0.  1.
<scales pt_clust_4="550.00000" pt_clust_5="550.00000" pt_clust_6="33.82425"></scales>
<mgrwt>
<rscale>  0 0.30000000E+03</rscale>
<asrwt>  1 0.33824252E+02</asrwt>
<pdfrwt beam="1">  1        1 0.81051222E+00 0.30000000E+03</pdfrwt>
<pdfrwt beam="2">0</pdfrwt>
<totfact> 0.86970792E-04</totfact>
</mgrwt>
<clustering>
<clus scale="   33.824">  1  6  2 -1</clus>
<clus scale="  459.742">  4  5 -1 -1</clus>
<clus scale="  300.000">  1  4  2 -1</clus>
</clustering>
</event>
<event>
 6    1  0.9480355E-012  0.3000000E+03  0.7818608E-02  0.1093470E+00
          1   -1    0    0  502    0  0.00000000000E+00  0.00000000000E+00  0.24267654002E+03  0.24267654002E+03  0.00000000000E+00 0.  1.
         13   -1    0    0    0    0 -0.00000000000E+00 -0.00000000000E+00 -0.27500000000E+03  0.27500000000E+03  0.00000000000E+00 0.  1.
    9000005    2    1    2  501    0 -0.55925970942E+01  0.29512713752E+02 -0.58946361528E+02  0.47753857418E+03  0.47293354594E+03 0.  0.
         13    1    3    3    0    0  0.12453836488E+03 -0.16758510040E+03  0.54112718501E+02  0.21569134546E+03  0.00000000000E+00 0.  1.
          3    1    3    3  501    0 -0.13013096198E+03  0.19709781415E+03 -0.11305908003E+03  0.26184722871E+03  0.00000000000E+00 0.  1.
         21    1    1    2  502  501  0.55925970942E+01 -0.29512713752E+02  0.26622901544E+02  0.40137965841E+02  0.00000000000E+00 0. -1.
<scales pt_clust_4="550.00000" pt_clust_5="550.00000" pt_clust_6="30.03793"></scales>
<mgrwt>
<rscale>  0 0.30000000E+03</rscale>
<asrwt>  1 0.30037933E+02</asrwt>
<pdfrwt beam="1">  1        1 0.88246015E+00 0.30000000E+03</pdfrwt>
<pdfrwt beam="2">0</pdfrwt>
<totfact> 0.18901421E-04</totfact>
</mgrwt>
<clustering>
<clus scale="   30.038">  1  6  2 -1</clus>
<clus scale="  472.934">  4  5 -1 -1</clus>
<clus scale="  300.000">  1  4  2 -1</clus>
</clustering>
</event>
<event>
 6    1  0.9480355E-012  0.3000000E+03  0.7818608E-02  0.1093470E+00
          1   -1    0    0  502    0  0.00000000000E+00  0.00000000000E+00  0.24615763264E+03  0.24615763264E+03  0.00000000000E+00 0.  1.
         13   -1    0    0    0    0 -0.00000000000E+00 -0.00000000000E+00 -0.27500000000E+03  0.27500000000E+03  0.00000000000E+00 0.  1.
    9000005    2    1    2  501    0  0.50510246611E+02 -0.28397780872E+02 -0.18580807639E+02  0.46231021486E+03  0.45828786737E+03 0.  0.
         13    1    3    3    0    0 -0.50515170833E+02 -0.20300314913E+03 -0.11500715220E+03  0.23872307408E+03  0.00000000000E+00 0.  1.
          3    1    3    3  501    0  0.10102541744E+03  0.17460536826E+03  0.96426344564E+02  0.22358714078E+03  0.00000000000E+00 0.  1.
         21    1    1    2  502  501 -0.50510246611E+02  0.28397780872E+02 -0.10261559723E+02  0.58847417777E+02  0.00000000000E+00 0.  1.
<scales pt_clust_4="550.00000" pt_clust_5="550.00000" pt_clust_6="57.94586"></scales>
<mgrwt>
<rscale>  0 0.30000000E+03</rscale>
<asrwt>  1 0.57945857E+02</asrwt>
<pdfrwt beam="1">  1        1 0.89511866E+00 0.30000000E+03</pdfrwt>
<pdfrwt beam="2">0</pdfrwt>
<totfact> 0.11487394E-04</totfact>
</mgrwt>
<clustering>
<clus scale="   57.946">  1  6  2 -1</clus>
<clus scale="  458.288">  4  5 -1 -1</clus>
<clus scale="  300.000">  1  4  2 -1</clus>
</clustering>
</event>
<event>
 6    1  0.9480355E-012  0.3000000E+03  0.7818608E-02  0.1093470E+00
          1   -1    0    0  502    0  0.00000000000E+00  0.00000000000E+00  0.24300359962E+03  0.24300359962E+03  0.00000000000E+00 0.  1.
         13   -1    0    0    0    0 -0.00000000000E+00 -0.00000000000E+00 -0.27500000000E+03  0.27500000000E+03  0.00000000000E+00 0.  1.
    9000005    2    1    2  501    0 -0.26207004551E+02 -0.27423832362E+02 -0.40347911223E+02  0.47916262380E+03  0.47595167028E+03 0.  0.
         13    1    3    3    0    0 -0.21613940150E+03  0.10920781650E+03 -0.26697039960E+01  0.24217703314E+03  0.00000000000E+00 0.  1.
          1    1    3    3  501    0  0.18993239694E+03 -0.13663164886E+03 -0.37678207227E+02  0.23698559066E+03  0.00000000000E+00 0.  1.
         21    1    1    2  502  501  0.26207004551E+02  0.27423832362E+02  0.83515108411E+01  0.38840975815E+02  0.00000000000E+00 0.  1.
<scales pt_clust_4="550.00000" pt_clust_5="550.00000" pt_clust_6="37.93249"></scales>
<mgrwt>
<rscale>  0 0.30000000E+03</rscale>
<asrwt>  1 0.37932488E+02</asrwt>
<pdfrwt beam="1">  1        1 0.88364945E+00 0.30000000E+03</pdfrwt>
<pdfrwt beam="2">0</pdfrwt>
<totfact> 0.17440839E-04</totfact>
</mgrwt>
<clustering>
<clus scale="   37.932">  1  6  2 -1</clus>
<clus scale="  475.952">  4  5 -1 -1</clus>
<clus scale="  300.000">  1  4  2 -1</clus>
</clustering>
</event>
<event>
 6    1  0.9480355E-012  0.3000000E+03  0.7818608E-02  0.1093470E+00
          1   -1    0    0  502    0  0.00000000000E+00  0.00000000000E+00  0.25393130180E+03  0.25393130180E+03  0.00000000000E+00 0.  1.
         13   -1    0    0    0    0 -0.00000000000E+00 -0.00000000000E+00 -0.27500000000E+03  0.27500000000E+03  0.00000000000E+00 0.  1.
    9000005    2    1    2  501    0 -0.25457040505E+02 -0.16179579751E+02 -0.28492417259E+02  0.49786763626E+03  0.49613559203E+03 0.  0.
         13    1    3    3    0    0  0.23349493963E+03  0.26897557145E+01 -0.44593516171E+02  0.23773031633E+03  0.00000000000E+00 0.  1.
          3    1    3    3  501    0 -0.25895198013E+03 -0.18869335465E+02  0.16101098912E+02  0.26013731993E+03  0.00000000000E+00 0.  1.
         21    1    1    2  502  501  0.25457040505E+02  0.16179579751E+02  0.74237190585E+01  0.31063665541E+02  0.00000000000E+00 0.  1.
<scales pt_clust_4="550.00000" pt_clust_5="550.00000" pt_clust_6="30.16355"></scales>
<mgrwt>
<rscale>  0 0.30000000E+03</rscale>
<asrwt>  1 0.30163549E+02</asrwt>
<pdfrwt beam="1">  1        1 0.92338655E+00 0.30000000E+03</pdfrwt>
<pdfrwt beam="2">0</pdfrwt>
<totfact> 0.36432221E-05</totfact>
</mgrwt>
<clustering>
<clus scale="   30.164">  1  6  2 -1</clus>
<clus scale="  496.136">  4  5 -1 -1</clus>
<clus scale="  300.000">  1  4  2 -1</clus>
</clustering>
</event>
<event>
 6    1  0.9480355E-012  0.3000000E+03  0.7818608E-02  0.1093470E+00
          1   -1    0    0  502    0  0.00000000000E+00  0.00000000000E+00  0.23057459118E+03  0.23057459118E+03  0.00000000000E+00 0.  1.
         13   -1    0    0    0    0 -0.00000000000E+00 -0.00000000000E+00 -0.27500000000E+03  0.27500000000E+03  0.00000000000E+00 0.  1.
    9000005    2    1    2  501    0 -0.30302669081E+02  0.15168985036E+01 -0.57648133428E+02  0.47247786656E+03  0.46796524910E+03 0.  0.
         13    1    3    3    0    0  0.68611519527E+02  0.10023411142E+03 -0.22424501083E+03  0.25502988567E+03  0.00000000000E+00 0.  1.
          1    1    3    3  501    0 -0.98914188608E+02 -0.98717212919E+02  0.16659687740E+03  0.21744798089E+03  0.00000000000E+00 0.  1.
         21    1    1    2  502  501  0.30302669081E+02 -0.15168985036E+01  0.13222724611E+02  0.33096724621E+02  0.00000000000E+00 0. -1.
<scales pt_clust_4="550.00000" pt_clust_5="550.00000" pt_clust_6="30.34061"></scales>
<mgrwt>
<rscale>  0 0.30000000E+03</rscale>
<asrwt>  1 0.30340612E+02</asrwt>
<pdfrwt beam="1">  1        1 0.83845306E+00 0.30000000E+03</pdfrwt>
<pdfrwt beam="2">0</pdfrwt>
<totfact> 0.52454900E-04</totfact>
</mgrwt>
<clustering>
<clus scale="   30.341">  1  6  2 -1</clus>
<clus scale="  467.965">  4  5 -1 -1</clus>
<clus scale="  300.000">  1  4  2 -1</clus>
</clustering>
</event>
<event>
 6    1  0.9480355E-012  0.3000000E+03  0.7818608E-02  0.1093470E+00
          1   -1    0    0  502    0  0.00000000000E+00  0.00000000000E+00  0.23208072952E+03  0.23208072952E+03  0.00000000000E+00 0.  1.
         13   -1    0    0    0    0 -0.00000000000E+00 -0.00000000000E+00 -0.27500000000E+03  0.27500000000E+03  0.00000000000E+00 0.  1.
    9000005    2    1    2  501    0  0.24162678263E+02 -0.24697262445E+02 -0.58368296104E+02  0.46923284734E+03  0.46430465993E+03 0.  0.
         13    1    3    3    0    0  0.21896802152E+03  0.88207990233E+01  0.74040640138E+02  0.23131540661E+03  0.00000000000E+00 0.  1.
          1    1    3    3  501    0 -0.19480534326E+03 -0.33518061469E+02 -0.13240893624E+03  0.23791744073E+03  0.00000000000E+00 0.  1.
         21    1    1    2  502  501 -0.24162678263E+02  0.24697262445E+02  0.15449025625E+02  0.37847882185E+02  0.00000000000E+00 0. -1.
<scales pt_clust_4="550.00000" pt_clust_5="550.00000" pt_clust_6="34.55126"></scales>
<mgrwt>
<rscale>  0 0.30000000E+03</rscale>
<asrwt>  1 0.34551263E+02</asrwt>
<pdfrwt beam="1">  1        1 0.84392993E+00 0.30000000E+03</pdfrwt>
<pdfrwt beam="2">0</pdfrwt>
<totfact> 0.46268249E-04</totfact>
</mgrwt>
<clustering>
<clus scale="   34.551">  1  6  2 -1</clus>
<clus scale="  464.305">  4  5 -1 -1</clus>
<clus scale="  300.000">  1  4  2 -1</clus>
</clustering>
</event>
<event>
 6    1  0.9480355E-012  0.3000000E+03  0.7818608E-02  0.1093470E+00
          1   -1    0    0  502    0  0.00000000000E+00  0.00000000000E+00  0.25646443893E+03  0.25646443893E+03  0.00000000000E+00 0.  1.
         13   -1    0    0    0    0 -0.00000000000E+00 -0.00000000000E+00 -0.27500000000E+03  0.27500000000E+03  0.00000000000E+00 0.  1.
    9000005    2    1    2  501    0  0.43376468515E+02  0.17080871569E+02 -0.98449019282E+01  0.48404290637E+03  0.48169216198E+03 0.  0.
         13    1    3    3    0    0  0.25436405105E+03  0.30775227319E+01 -0.70670033306E+02  0.26401665709E+03  0.00000000000E+00 0.  1.
          1    1    3    3  501    0 -0.21098758254E+03  0.14003348837E+02  0.60825131378E+02  0.22002624928E+03  0.00000000000E+00 0.  1.
         21    1    1    2  502  501 -0.43376468515E+02 -0.17080871569E+02 -0.86906591407E+01  0.47421532564E+02  0.00000000000E+00 0.  1.
<scales pt_clust_4="550.00000" pt_clust_5="550.00000" pt_clust_6="46.61841"></scales>
<mgrwt>
<rscale>  0 0.30000000E+03</rscale>
<asrwt>  1 0.46618412E+02</asrwt>
<pdfrwt beam="1">  1        1 0.93259796E+00 0.30000000E+03</pdfrwt>
<pdfrwt beam="2">0</pdfrwt>
<totfact> 0.22901270E-05</totfact>
</mgrwt>
<clustering>
<clus scale="   46.618">  1  6  2 -1</clus>
<clus scale="  481.692">  4  5 -1 -1</clus>
<clus scale="  300.000">  1  4  2 -1</clus>
</clustering>
</event>
<event>
 6    1  0.9480355E-012  0.3000000E+03  0.7818608E-02  0.1093470E+00
          1   -1    0    0  502    0  0.00000000000E+00  0.00000000000E+00  0.21888226231E+03  0.21888226231E+03  0.00000000000E+00 0.  1.
         13   -1    0    0    0    0 -0.00000000000E+00 -0.00000000000E+00 -0.27500000000E+03  0.27500000000E+03  0.00000000000E+00 0.  1.
    9000005    2    1    2  501    0 -0.22517181346E+02  0.20442260419E+02 -0.45647860833E+02  0.46171818626E+03  0.45844852150E+03 0.  0.
         13    1    3    3    0    0  0.81459042838E+02 -0.48320902829E+02  0.18030073621E+03  0.20366354801E+03  0.00000000000E+00 0.  1.
          1    1    3    3  501    0 -0.10397622418E+03  0.68763163248E+02 -0.22594859705E+03  0.25805463825E+03  0.00000000000E+00 0.  1.
         21    1    1    2  502  501  0.22517181346E+02 -0.20442260419E+02 -0.10469876853E+02  0.32164076050E+02  0.00000000000E+00 0.  1.
<scales pt_clust_4="550.00000" pt_clust_5="550.00000" pt_clust_6="30.41234"></scales>
<mgrwt>
<rscale>  0 0.30000000E+03</rscale>
<asrwt>  1 0.30412339E+02</asrwt>
<pdfrwt beam="1">  1        1 0.79593550E+00 0.30000000E+03</pdfrwt>
<pdfrwt beam="2">0</pdfrwt>
<totfact> 0.11401408E-03</totfact>
</mgrwt>
<clustering>
<clus scale="   30.412">  1  6  2 -1</clus>
<clus scale="  458.449">  4  5 -1 -1</clus>
<clus scale="  300.000">  1  4  2 -1</clus>
</clustering>
</event>
<event>
 6    1  0.9480355E-012  0.3000000E+03  0.7818608E-02  0.1093470E+00
          1   -1    0    0  502    0  0.00000000000E+00  0.00000000000E+00  0.22058398869E+03  0.22058398869E+03  0.00000000000E+00 0.  1.
         13   -1    0    0    0    0 -0.00000000000E+00 -0.00000000000E+00 -0.27500000000E+03  0.27500000000E+03  0.00000000000E+00 0.  1.
    9000005    2    1    2  501    0  0.27134073808E+02  0.14376020474E+02 -0.53243216966E+02  0.46485446912E+03  0.46077316478E+03 0.  0.
         13    1    3    3    0    0  0.24339538657E+03 -0.53763379403E+01 -0.44704532117E+02  0.24752517933E+03  0.00000000000E+00 0.  1.
          3    1    3    3  501    0 -0.21626131276E+03  0.19752358415E+02 -0.85386848497E+01  0.21732928979E+03  0.00000000000E+00 0.  1.
         21    1    1    2  502  501 -0.27134073808E+02 -0.14376020474E+02 -0.11727943477E+01  0.30729519564E+02  0.00000000000E+00 0.  1.
<scales pt_clust_4="550.00000" pt_clust_5="550.00000" pt_clust_6="30.70713"></scales>
<mgrwt>
<rscale>  0 0.30000000E+03</rscale>
<asrwt>  1 0.30707132E+02</asrwt>
<pdfrwt beam="1">  1        1 0.80212360E+00 0.30000000E+03</pdfrwt>
<pdfrwt beam="2">0</pdfrwt>
<totfact> 0.10259971E-03</totfact>
</mgrwt>
<clustering>
<clus scale="   30.707">  1  6  2 -1</clus>
<clus scale="  460.773">  4  5 -1 -1</clus>
<clus scale="  300.000">  1  4  2 -1</clus>
</clustering>
</event>
<event>
 6    1  0.9480355E-012  0.3000000E+03  0.7818608E-02  0.1093470E+00
          1   -1    0    0  502    0  0.00000000000E+00  0.00000000000E+00  0.23485245787E+03  0.23485245787E+03  0.00000000000E+00 0.  1.
         13   -1    0    0    0    0 -0.00000000000E+00 -0.00000000000E+00 -0.27500000000E+03  0.27500000000E+03  0.00000000000E+00 0.  1.
    9000005    2    1    2  501    0  0.19312382214E+02 -0.27199352764E+02 -0.50224338821E+02  0.47500543893E+03  0.47116335798E+03 0.  0.
         13    1    3    3    0    0 -0.78936704505E+02  0.12516776672E+03  0.14597856123E+03  0.20786465183E+03  0.00000000000E+00 0.  1.
          1    1    3    3  501    0  0.98249086718E+02 -0.15236711948E+03 -0.19620290005E+03  0.26714078709E+03  0.00000000000E+00 0.  1.
         21    1    1    2  502  501 -0.19312382214E+02  0.27199352764E+02  0.10076796687E+02  0.34847018940E+02  0.00000000000E+00 0. -1.
<scales pt_clust_4="550.00000" pt_clust_5="550.00000" pt_clust_6="33.35825"></scales>
<mgrwt>
<rscale>  0 0.30000000E+03</rscale>
<asrwt>  1 0.33358251E+02</asrwt>
<pdfrwt beam="1">  1        1 0.85400894E+00 0.30000000E+03</pdfrwt>
<pdfrwt beam="2">0</pdfrwt>
<totfact> 0.37596632E-04</totfact>
</mgrwt>
<clustering>
<clus scale="   33.358">  1  6  2 -1</clus>
<clus scale="  471.163">  4  5 -1 -1</clus>
<clus scale="  300.000">  1  4  2 -1</clus>
</clustering>
</event>
<event>
 6    1  0.9480355E-012  0.3000000E+03  0.7818608E-02  0.1093470E+00
          1   -1    0    0  502    0  0.00000000000E+00  0.00000000000E+00  0.23529321277E+03  0.23529321277E+03  0.00000000000E+00 0.  1.
         13   -1    0    0    0    0 -0.00000000000E+00 -0.00000000000E+00 -0.27500000000E+03  0.27500000000E+03  0.00000000000E+00 0.  1.
    9000005    2    1    2  501    0  0.29678042758E+02 -0.14094664622E+02 -0.41763149316E+02  0.47737400230E+03  0.47440734780E+03 0.  0.
         13    1    3    3    0    0 -0.12625045201E+03 -0.15374676255E+03 -0.14285469840E+03  0.24491775861E+03  0.00000000000E+00 0.  1.
          3    1    3    3  501    0  0.15592849477E+03  0.13965209793E+03  0.10109154908E+03  0.23245624370E+03  0.00000000000E+00 0.  1.
         21    1    1    2  502  501 -0.29678042758E+02  0.14094664622E+02  0.20563620882E+01  0.32919210467E+02  0.00000000000E+00 0. -1.
<scales pt_clust_4="550.00000" pt_clust_5="550.00000" pt_clust_6="32.85492"></scales>
<mgrwt>
<rscale>  0 0.30000000E+03</rscale>
<asrwt>  1 0.32854920E+02</asrwt>
<pdfrwt beam="1">  1        1 0.85561168E+00 0.30000000E+03</pdfrwt>
<pdfrwt beam="2">0</pdfrwt>
<totfact> 0.36355362E-04</totfact>
</mgrwt>
<clustering>
<clus scale="   32.855">  1  6  2 -1</clus>
<clus scale="  474.407">  4  5 -1 -1</clus>
<clus scale="  300.000">  1  4  2 -1</clus>
</clustering>
</event>
<event>
 6    1  0.9480355E-012  0.3000000E+03  0.7818608E-02  0.1093470E+00
          1   -1    0    0  502    0  0.00000000000E+00  0.00000000000E+00  0.24702159212E+03  0.24702159212E+03  0.00000000000E+00 0.  1.
         13   -1    0    0    0    0 -0.00000000000E+00 -0.00000000000E+00 -0.27500000000E+03  0.27500000000E+03  0.00000000000E+00 0.  1.
    9000005    2    1    2  501    0  0.29495245196E+02  0.10064520758E+02 -0.31486416154E+02  0.49065966952E+03  0.48865555642E+03 0.  0.
         13    1    3    3    0    0 -0.76445566625E+02  0.19811893257E+03  0.10334233633E+03  0.23616662461E+03  0.00000000000E+00 0.  1.
          1    1    3    3  501    0  0.10594081182E+03 -0.18805441181E+03 -0.13482875248E+03  0.25449304491E+03  0.00000000000E+00 0.  1.
         21    1    1    2  502  501 -0.29495245196E+02 -0.10064520758E+02  0.35080082736E+01  0.31361922602E+02  0.00000000000E+00 0.  1.
<scales pt_clust_4="550.00000" pt_clust_5="550.00000" pt_clust_6="31.16511"></scales>
<mgrwt>
<rscale>  0 0.30000000E+03</rscale>
<asrwt>  1 0.31165110E+02</asrwt>
<pdfrwt beam="1">  1        1 0.89826033E+00 0.30000000E+03</pdfrwt>
<pdfrwt beam="2">0</pdfrwt>
<totfact> 0.11845539E-04</totfact>
</mgrwt>
<clustering>
<clus scale="   31.165">  1  6  2 -1</clus>
<clus scale="  488.656">  4  5 -1 -1</clus>
<clus scale="  300.000">  1  4  2 -1</clus>
</clustering>
</event>
<event>
 6    1  0.9480355E-012  0.3000000E+03  0.7818608E-02  0.1093470E+00
          1   -1    0    0  502    0  0.00000000000E+00  0.00000000000E+00  0.22694532232E+03  0.22694532232E+03  0.00000000000E+00 0.  1.
         13   -1    0    0    0    0 -0.00000000000E+00 -0.00000000000E+00 -0.27500000000E+03  0.27500000000E+03  0.00000000000E+00 0.  1.
    9000005    2    1    2  501    0 -0.45396326270E+01 -0.31312340293E+02 -0.22730723601E+02  0.46141911389E+03  0.45977151059E+03 0.  0.
         13    1    3    3    0    0 -0.17491823449E+03  0.90851977068E+02  0.97328953912E+02  0.21982583052E+03  0.00000000000E+00 0.  1.
          1    1    3    3  501    0  0.17037860186E+03 -0.12216431736E+03 -0.12005967751E+03  0.24159328338E+03  0.00000000000E+00 0.  1.
         21    1    1    2  502  501  0.45396326270E+01  0.31312340293E+02 -0.25323954082E+02  0.40526208426E+02  0.00000000000E+00 0. -1.
<scales pt_clust_4="550.00000" pt_clust_5="550.00000" pt_clust_6="31.63972"></scales>
<mgrwt>
<rscale>  0 0.30000000E+03</rscale>
<asrwt>  1 0.31639721E+02</asrwt>
<pdfrwt beam="1">  1        1 0.82525572E+00 0.30000000E+03</pdfrwt>
<pdfrwt beam="2">0</pdfrwt>
<totfact> 0.66224992E-04</totfact>
</mgrwt>
<clustering>
<clus scale="   31.640">  1  6  2 -1</clus>
<clus scale="  459.772">  4  5 -1 -1</clus>
<clus scale="  300.000">  1  4  2 -1</clus>
</clustering>
</event>
<event>
 6    1  0.9480355E-012  0.3000000E+03  0.7818608E-02  0.1093470E+00
          1   -1    0    0  502    0  0.00000000000E+00  0.00000000000E+00  0.22744897977E+03  0.22744897977E+03  0.00000000000E+00 0.  1.
         13   -1    0    0    0    0 -0.00000000000E+00 -0.00000000000E+00 -0.27500000000E+03  0.27500000000E+03  0.00000000000E+00 0.  1.
    9000005    2    1    2  501    0 -0.35506087128E+02 -0.15843303433E+02 -0.44476364729E+02  0.46344710811E+03  0.45966659929E+03 0.  0.
         13    1    3    3    0    0 -0.21049336741E+03  0.68141453131E+02 -0.12407255239E+03  0.25366259798E+03  0.00000000000E+00 0.  1.
          1    1    3    3  501    0  0.17498728029E+03 -0.83984756564E+02  0.79596187660E+02  0.20978451012E+03  0.00000000000E+00 0.  1.
         21    1    1    2  502  501  0.35506087128E+02  0.15843303433E+02 -0.30746555022E+01  0.39001871664E+02  0.00000000000E+00 0.  1.
<scales pt_clust_4="550.00000" pt_clust_5="550.00000" pt_clust_6="38.88049"></scales>
<mgrwt>
<rscale>  0 0.30000000E+03</rscale>
<asrwt>  1 0.38880490E+02</asrwt>
<pdfrwt beam="1">  1        1 0.82708720E+00 0.30000000E+03</pdfrwt>
<pdfrwt beam="2">0</pdfrwt>
<totfact> 0.61384486E-04</totfact>
</mgrwt>
<clustering>
<clus scale="   38.880">  1  6  2 -1</clus>
<clus scale="  459.667">  4  5 -1 -1</clus>
<clus scale="  300.000">  1  4  2 -1</clus>
</clustering>
</event>
<event>
 6    1  0.9480355E-012  0.3000000E+03  0.7818608E-02  0.1093470E+00
          1   -1    0    0  502    0  0.00000000000E+00  0.00000000000E+00  0.23447738744E+03  0.23447738744E+03  0.00000000000E+00 0.  1.
         13   -1    0    0    0    0 -0.00000000000E+00 -0.00000000000E+00 -0.27500000000E+03  0.27500000000E+03  0.00000000000E+00 0.  1.
    9000005    2    1    2  501    0 -0.37391218089E+02  0.17615259663E+02 -0.56108901354E+02  0.46530349287E+03  0.46005513920E+03 0.  0.
         13    1    3    3    0    0 -0.55223380797E+01  0.16543761958E+03  0.14060322362E+03  0.21718510235E+03  0.00000000000E+00 0.  1.
          1    1    3    3  501    0 -0.31868880010E+02 -0.14782235992E+03 -0.19671212497E+03  0.24811839052E+03  0.00000000000E+00 0.  1.
         21    1    1    2  502  501  0.37391218089E+02 -0.17615259663E+02  0.15586288796E+02  0.44173894572E+02  0.00000000000E+00 0.  1.
<scales pt_clust_4="550.00000" pt_clust_5="550.00000" pt_clust_6="41.33280"></scales>
<mgrwt>
<rscale>  0 0.30000000E+03</rscale>
<asrwt>  1 0.41332803E+02</asrwt>
<pdfrwt beam="1">  1        1 0.85264505E+00 0.30000000E+03</pdfrwt>
<pdfrwt beam="2">0</pdfrwt>
<totfact> 0.37249426E-04</totfact>
</mgrwt>
<clustering>
<clus scale="   41.333">  1  6  2 -1</clus>
<clus scale="  460.055">  4  5 -1 -1</clus>
<clus scale="  300.000">  1  4  2 -1</clus>
</clustering>
</event>
<event>
 6    1  0.9480355E-012  0.3000000E+03  0.7818608E-02  0.1093470E+00
          1   -1    0    0  502    0  0.00000000000E+00  0.00000000000E+00  0.22780162848E+03  0.22780162848E+03  0.00000000000E+00 0.  1.
         13   -1    0    0    0    0 -0.00000000000E+00 -0.00000000000E+00 -0.27500000000E+03  0.27500000000E+03  0.00000000000E+00 0.  1.
    9000005    2    1    2  501    0 -0.87128782305E+01 -0.36347169800E+02 -0.41337994364E+02  0.46496811133E+03  0.46161616499E+03 0.  0.
         13    1    3    3    0    0 -0.18525151529E+03 -0.89122190616E+02  0.10391116569E+03  0.23034413197E+03  0.00000000000E+00 0.  1.
          3    1    3    3  501    0  0.17653863706E+03  0.52775020816E+02 -0.14524916005E+03  0.23462397936E+03  0.00000000000E+00 0.  1.
         21    1    1    2  502  501  0.87128782305E+01  0.36347169800E+02 -0.58603771535E+01  0.37833517149E+02  0.00000000000E+00 0.  1.
<scales pt_clust_4="550.00000" pt_clust_5="550.00000" pt_clust_6="37.37690"></scales>
<mgrwt>
<rscale>  0 0.30000000E+03</rscale>
<asrwt>  1 0.37376897E+02</asrwt>
<pdfrwt beam="1">  1        1 0.82836956E+00 0.30000000E+03</pdfrwt>
<pdfrwt beam="2">0</pdfrwt>
<totfact> 0.60263951E-04</totfact>
</mgrwt>
<clustering>
<clus scale="   37.377">  1  6  2 -1</clus>
<clus scale="  461.616">  4  5 -1 -1</clus>
<clus scale="  300.000">  1  4  2 -1</clus>
</clustering>
</event>
<event>
 6    1  0.9480355E-012  0.3000000E+03  0.7818608E-02  0.1093470E+00
          1   -1    0    0  502    0  0.00000000000E+00  0.00000000000E+00  0.23132110969E+03  0.23132110969E+03  0.00000000000E+00 0.  1.
         13   -1    0    0    0    0 -0.00000000000E+00 -0.00000000000E+00 -0.27500000000E+03  0.27500000000E+03  0.00000000000E+00 0.  1.
    9000005    2    1    2  501    0 -0.37773614145E+01 -0.32142955431E+02 -0.63579799759E+02  0.46832789661E+03  0.46286195541E+03 0.  0.
         13    1    3    3    0    0  0.11937149979E+02 -0.17128968911E+03 -0.20628402532E+03  0.26839476941E+03  0.00000000000E+00 0.  1.
          1    1    3    3  501    0 -0.15714511393E+02  0.13914673368E+03  0.14270422556E+03  0.19993312720E+03  0.00000000000E+00 0.  1.
         21    1    1    2  502  501  0.37773614145E+01  0.32142955431E+02  0.19900909449E+02  0.37993213078E+02  0.00000000000E+00 0.  1.
<scales pt_clust_4="550.00000" pt_clust_5="550.00000" pt_clust_6="32.36415"></scales>
<mgrwt>
<rscale>  0 0.30000000E+03</rscale>
<asrwt>  1 0.32364147E+02</asrwt>
<pdfrwt beam="1">  1        1 0.84116767E+00 0.30000000E+03</pdfrwt>
<pdfrwt beam="2">0</pdfrwt>
<totfact> 0.49392626E-04</totfact>
</mgrwt>
<clustering>
<clus scale="   32.364">  1  6  2 -1</clus>
<clus scale="  462.862">  4  5 -1 -1</clus>
<clus scale="  300.000">  1  4  2 -1</clus>
</clustering>
</event>
<event>
 6    1  0.9480355E-012  0.3000000E+03  0.7818608E-02  0.1093470E+00
          1   -1    0    0  502    0  0.00000000000E+00  0.00000000000E+00  0.23331349897E+03  0.23331349897E+03  0.00000000000E+00 0.  1.
         13   -1    0    0    0    0 -0.00000000000E+00 -0.00000000000E+00 -0.27500000000E+03  0.27500000000E+03  0.00000000000E+00 0.  1.
    9000005    2    1    2  501    0 -0.40182105466E+02  0.20116227135E+01 -0.47325596942E+02  0.46768779739E+03  0.46354451294E+03 0.  0.
         13    1    3    3    0    0 -0.15425430983E+02  0.46369839847E+02  0.20477230113E+03  0.21052268590E+03  0.00000000000E+00 0.  1.
          3    1    3    3  501    0 -0.24756674482E+02 -0.44358217133E+02 -0.25209789807E+03  0.25716511150E+03  0.00000000000E+00 0.  1.
         21    1    1    2  502  501  0.40182105466E+02 -0.20116227135E+01  0.56390959085E+01  0.40625701573E+02  0.00000000000E+00 0.  1.
<scales pt_clust_4="550.00000" pt_clust_5="550.00000" pt_clust_6="40.23243"></scales>
<mgrwt>
<rscale>  0 0.30000000E+03</rscale>
<asrwt>  1 0.40232428E+02</asrwt>
<pdfrwt beam="1">  1        1 0.84841272E+00 0.30000000E+03</pdfrwt>
<pdfrwt beam="2">0</pdfrwt>
<totfact> 0.41035478E-04</totfact>
</mgrwt>
<clustering>
<clus scale="   40.232">  1  6  2 -1</clus>
<clus scale="  463.545">  4  5 -1 -1</clus>
<clus scale="  300.000">  1  4  2 -1</clus>
</clustering>
</event>
<event>
 6    1  0.9480355E-012  0.3000000E+03  0.7818608E-02  0.1093470E+00
          1   -1    0    0  502    0  0.00000000000E+00  0.00000000000E+00  0.23868523715E+03  0.23868523715E+03  0.00000000000E+00 0.  1.
         13   -1    0    0    0    0 -0.00000000000E+00 -0.00000000000E+00 -0.27500000000E+03  0.27500000000E+03  0.00000000000E+00 0.  1.
    9000005    2    1    2  501    0  0.14070991811E+02 -0.30355322869E+02 -0.40841829721E+02  0.47992234670E+03  0.47700939757E+03 0.  0.
         13    1    3    3    0    0  0.21874038545E+03  0.62300615466E+02  0.57624665186E+02  0.23462592557E+03  0.00000000000E+00 0.  1.
          3    1    3    3  501    0 -0.20466939363E+03 -0.92655938335E+02 -0.98466494907E+02  0.24529642113E+03  0.00000000000E+00 0.  1.
         21    1    1    2  502  501 -0.14070991811E+02  0.30355322869E+02  0.45270668706E+01  0.33762890449E+02  0.00000000000E+00 0.  1.
<scales pt_clust_4="550.00000" pt_clust_5="550.00000" pt_clust_6="33.45801"></scales>
<mgrwt>
<rscale>  0 0.30000000E+03</rscale>
<asrwt>  1 0.33458010E+02</asrwt>
<pdfrwt beam="1">  1        1 0.86794632E+00 0.30000000E+03</pdfrwt>
<pdfrwt beam="2">0</pdfrwt>
<totfact> 0.26814929E-04</totfact>
</mgrwt>
<clustering>
<clus scale="   33.458">  1  6  2 -1</clus>
<clus scale="  477.009">  4  5 -1 -1</clus>
<clus scale="  300.000">  1  4  2 -1</clus>
</clustering>
</event>
<event>
 6    1  0.9480355E-012  0.3000000E+03  0.7818608E-02  0.1093470E+00
          1   -1    0    0  502    0  0.00000000000E+00  0.00000000000E+00  0.22084626588E+03  0.22084626588E+03  0.00000000000E+00 0.  1.
         13   -1    0    0    0    0 -0.00000000000E+00 -0.00000000000E+00 -0.27500000000E+03  0.27500000000E+03  0.00000000000E+00 0.  1.
    9000005    2    1    2  501    0  0.28833438285E+02  0.13369005836E+02 -0.53213710953E+02  0.46405033652E+03  0.45989228990E+03 0.  0.
         13    1    3    3    0    0 -0.96911829048E+02 -0.51136440711E+02 -0.21979608039E+03  0.24559551122E+03  0.00000000000E+00 0.  1.
          1    1    3    3  501    0  0.12574526733E+03  0.64505446547E+02  0.16658236943E+03  0.21845482530E+03  0.00000000000E+00 0.  1.
         21    1    1    2  502  501 -0.28833438285E+02 -0.13369005836E+02 -0.94002316511E+00  0.31795929361E+02  0.00000000000E+00 0. -1.
<scales pt_clust_4="550.00000" pt_clust_5="550.00000" pt_clust_6="31.78203"></scales>
<mgrwt>
<rscale>  0 0.30000000E+03</rscale>
<asrwt>  1 0.31782031E+02</asrwt>
<pdfrwt beam="1">  1        1 0.80307733E+00 0.30000000E+03</pdfrwt>
<pdfrwt beam="2">0</pdfrwt>
<totfact> 0.10030091E-03</totfact>
</mgrwt>
<clustering>
<clus scale="   31.782">  1  6  2 -1</clus>
<clus scale="  459.892">  4  5 -1 -1</clus>
<clus scale="  300.000">  1  4  2 -1</clus>
</clustering>
</event>
<event>
 6    1  0.9480355E-012  0.3000000E+03  0.7818608E-02  0.1093470E+00
          1   -1    0    0  502    0  0.00000000000E+00  0.00000000000E+00  0.23345397686E+03  0.23345397686E+03  0.00000000000E+00 0.  1.
         13   -1    0    0    0    0 -0.00000000000E+00 -0.00000000000E+00 -0.27500000000E+03  0.27500000000E+03  0.00000000000E+00 0.  1.
    9000005    2    1    2  501    0 -0.49528103625E+01 -0.37848385879E+02 -0.43471612861E+02  0.47023436749E+03  0.46666213538E+03 0.  0.
         13    1    3    3    0    0  0.21857623660E+03 -0.49249398132E+02 -0.90300489689E+02  0.24156831924E+03  0.00000000000E+00 0.  1.
          1    1    3    3  501    0 -0.22352904696E+03  0.11401012253E+02  0.46828876828E+02  0.22866604825E+03  0.00000000000E+00 0.  1.
         21    1    1    2  502  501  0.49528103625E+01  0.37848385879E+02  0.19255897164E+01  0.38219609363E+02  0.00000000000E+00 0. -1.
<scales pt_clust_4="550.00000" pt_clust_5="550.00000" pt_clust_6="38.17107"></scales>
<mgrwt>
<rscale>  0 0.30000000E+03</rscale>
<asrwt>  1 0.38171071E+02</asrwt>
<pdfrwt beam="1">  1        1 0.84892355E+00 0.30000000E+03</pdfrwt>
<pdfrwt beam="2">0</pdfrwt>
<totfact> 0.40985157E-04</totfact>
</mgrwt>
<clustering>
<clus scale="   38.171">  1  6  2 -1</clus>
<clus scale="  466.662">  4  5 -1 -1</clus>
<clus scale="  300.000">  1  4  2 -1</clus>
</clustering>
</event>
<event>
 6    1  0.9480355E-012  0.3000000E+03  0.7818608E-02  0.1093470E+00
          1   -1    0    0  502    0  0.00000000000E+00  0.00000000000E+00  0.23208914738E+03  0.23208914738E+03  0.00000000000E+00 0.  1.
         13   -1    0    0    0    0 -0.00000000000E+00 -0.00000000000E+00 -0.27500000000E+03  0.27500000000E+03  0.00000000000E+00 0.  1.
    9000005    2    1    2  501    0 -0.27708153769E+02  0.13803848388E+02 -0.45948378568E+02  0.47598425099E+03  0.47274883995E+03 0.  0.
         13    1    3    3    0    0  0.85950961410E+02 -0.14665741398E+03  0.12852082608E+03  0.21310459305E+03  0.00000000000E+00 0.  1.
          3    1    3    3  501    0 -0.11365911518E+03  0.16046126237E+03 -0.17446920465E+03  0.26287965793E+03  0.00000000000E+00 0.  1.
         21    1    1    2  502  501  0.27708153769E+02 -0.13803848388E+02  0.30375259453E+01  0.31104896391E+02  0.00000000000E+00 0.  1.
<scales pt_clust_4="550.00000" pt_clust_5="550.00000" pt_clust_6="30.95623"></scales>
<mgrwt>
<rscale>  0 0.30000000E+03</rscale>
<asrwt>  1 0.30956227E+02</asrwt>
<pdfrwt beam="1">  1        1 0.84396054E+00 0.30000000E+03</pdfrwt>
<pdfrwt beam="2">0</pdfrwt>
<totfact> 0.47212678E-04</totfact>
</mgrwt>
<clustering>
<clus scale="   30.956">  1  6  2 -1</clus>
<clus scale="  472.749">  4  5 -1 -1</clus>
<clus scale="  300.000">  1  4  2 -1</clus>
</clustering>
</event>
<event>
 6    1  0.9480355E-012  0.3000000E+03  0.7818608E-02  0.1093470E+00
          1   -1    0    0  502    0  0.00000000000E+00  0.00000000000E+00  0.25294098176E+03  0.25294098176E+03  0.00000000000E+00 0.  1.
         13   -1    0    0    0    0 -0.00000000000E+00 -0.00000000000E+00 -0.27500000000E+03  0.27500000000E+03  0.00000000000E+00 0.  1.
    9000005    2    1    2  501    0  0.11495283710E+02  0.31445002662E+02 -0.22873965607E+02  0.49445077604E+03  0.49278537101E+03 0.  0.
         13    1    3    3    0    0 -0.17943737292E+03  0.62567285755E+02 -0.16718033433E+03  0.25310412923E+03  0.00000000000E+00 0.  1.
          3    1    3    3  501    0  0.19093265663E+03 -0.31122283093E+02  0.14430636872E+03  0.24134664681E+03  0.00000000000E+00 0.  1.
         21    1    1    2  502  501 -0.11495283710E+02 -0.31445002662E+02  0.81494736272E+00  0.33490205721E+02  0.00000000000E+00 0. -1.
<scales pt_clust_4="550.00000" pt_clust_5="550.00000" pt_clust_6="33.48029"></scales>
<mgrwt>
<rscale>  0 0.30000000E+03</rscale>
<asrwt>  1 0.33480289E+02</asrwt>
<pdfrwt beam="1">  1        1 0.91978539E+00 0.30000000E+03</pdfrwt>
<pdfrwt beam="2">0</pdfrwt>
<totfact> 0.42605333E-05</totfact>
</mgrwt>
<clustering>
<clus scale="   33.480">  1  6  2 -1</clus>
<clus scale="  492.785">  4  5 -1 -1</clus>
<clus scale="  300.000">  1  4  2 -1</clus>
</clustering>
</event>
<event>
 6    1  0.9480355E-012  0.3000000E+03  0.7818608E-02  0.1093470E+00
          1   -1    0    0  502    0  0.00000000000E+00  0.00000000000E+00  0.22582710759E+03  0.22582710759E+03  0.00000000000E+00 0.  1.
         13   -1    0    0    0    0 -0.00000000000E+00 -0.00000000000E+00 -0.27500000000E+03  0.27500000000E+03  0.00000000000E+00 0.  1.
    9000005    2    1    2  501    0  0.27637701083E+02  0.23587202760E+02 -0.61515826101E+02  0.46245333181E+03  0.45690118033E+03 0.  0.
         13    1    3    3    0    0  0.22017782315E+03 -0.11458968329E+02  0.64464324127E+02  0.22970683675E+03  0.00000000000E+00 0.  1.
          1    1    3    3  501    0 -0.19254012207E+03  0.35046171089E+02 -0.12598015023E+03  0.23274649507E+03  0.00000000000E+00 0.  1.
         21    1    1    2  502  501 -0.27637701083E+02 -0.23587202760E+02  0.12342933688E+02  0.38373775775E+02  0.00000000000E+00 0. -1.
<scales pt_clust_4="550.00000" pt_clust_5="550.00000" pt_clust_6="36.33454"></scales>
<mgrwt>
<rscale>  0 0.30000000E+03</rscale>
<asrwt>  1 0.36334538E+02</asrwt>
<pdfrwt beam="1">  1        1 0.82118948E+00 0.30000000E+03</pdfrwt>
<pdfrwt beam="2">0</pdfrwt>
<totfact> 0.70129718E-04</totfact>
</mgrwt>
<clustering>
<clus scale="   36.335">  1  6  2 -1</clus>
<clus scale="  456.901">  4  5 -1 -1</clus>
<clus scale="  300.000">  1  4  2 -1</clus>
</clustering>
</event>
<event>
 6    1  0.9480355E-012  0.3000000E+03  0.7818608E-02  0.1093470E+00
          1   -1    0    0  502    0  0.00000000000E+00  0.00000000000E+00  0.23636434108E+03  0.23636434108E+03  0.00000000000E+00 0.  1.
         13   -1    0    0    0    0 -0.00000000000E+00 -0.00000000000E+00 -0.27500000000E+03  0.27500000000E+03  0.00000000000E+00 0.  1.
    9000005    2    1    2  501    0  0.29822104963E+02 -0.25710388372E+02 -0.42919396372E+02  0.47175711420E+03  0.46814775253E+03 0.  0.
         13    1    3    3    0    0 -0.11991006984E+03  0.64606928232E+02 -0.19645556554E+03  0.23905495028E+03  0.00000000000E+00 0.  1.
          1    1    3    3  501    0  0.14973217480E+03 -0.90317316604E+02  0.15353616917E+03  0.23270216392E+03  0.00000000000E+00 0.  1.
         21    1    1    2  502  501 -0.29822104963E+02  0.25710388372E+02  0.42837374560E+01  0.39607226882E+02  0.00000000000E+00 0.  1.
<scales pt_clust_4="550.00000" pt_clust_5="550.00000" pt_clust_6="39.37489"></scales>
<mgrwt>
<rscale>  0 0.30000000E+03</rscale>
<asrwt>  1 0.39374891E+02</asrwt>
<pdfrwt beam="1">  1        1 0.85950669E+00 0.30000000E+03</pdfrwt>
<pdfrwt beam="2">0</pdfrwt>
<totfact> 0.32034037E-04</totfact>
</mgrwt>
<clustering>
<clus scale="   39.375">  1  6  2 -1</clus>
<clus scale="  468.148">  4  5 -1 -1</clus>
<clus scale="  300.000">  1  4  2 -1</clus>
</clustering>
</event>
<event>
 6    1  0.9480355E-012  0.3000000E+03  0.7818608E-02  0.1093470E+00
          1   -1    0    0  502    0  0.00000000000E+00  0.00000000000E+00  0.22614285010E+03  0.22614285010E+03  0.00000000000E+00 0.  1.
         13   -1    0    0    0    0 -0.00000000000E+00 -0.00000000000E+00 -0.27500000000E+03  0.27500000000E+03  0.00000000000E+00 0.  1.
    9000005    2    1    2  501    0  0.30060891766E+02  0.50629376633E+01 -0.37471328741E+02  0.46860168425E+03  0.46610529653E+03 0.  0.
         13    1    3    3    0    0 -0.14028243206E+03 -0.16952631432E+03 -0.44856702313E+02  0.22456726327E+03  0.00000000000E+00 0.  1.
          3    1    3    3  501    0  0.17034332383E+03  0.17458925198E+03  0.73853735722E+01  0.24403442098E+03  0.00000000000E+00 0.  1.
         21    1    1    2  502  501 -0.30060891766E+02 -0.50629376633E+01 -0.11385821154E+02  0.32541165850E+02  0.00000000000E+00 0. -1.
<scales pt_clust_4="550.00000" pt_clust_5="550.00000" pt_clust_6="30.48428"></scales>
<mgrwt>
<rscale>  0 0.30000000E+03</rscale>
<asrwt>  1 0.30484283E+02</asrwt>
<pdfrwt beam="1">  1        1 0.82233764E+00 0.30000000E+03</pdfrwt>
<pdfrwt beam="2">0</pdfrwt>
<totfact> 0.70819169E-04</totfact>
</mgrwt>
<clustering>
<clus scale="   30.484">  1  6  2 -1</clus>
<clus scale="  466.105">  4  5 -1 -1</clus>
<clus scale="  300.000">  1  4  2 -1</clus>
</clustering>
</event>
<event>
 6    1  0.9480355E-012  0.3000000E+03  0.7818608E-02  0.1093470E+00
          1   -1    0    0  502    0  0.00000000000E+00  0.00000000000E+00  0.23601545837E+03  0.23601545837E+03  0.00000000000E+00 0.  1.
         13   -1    0    0    0    0 -0.00000000000E+00 -0.00000000000E+00 -0.27500000000E+03  0.27500000000E+03  0.00000000000E+00 0.  1.
    9000005    2    1    2  501    0  0.31944002095E+02 -0.12393346405E+02 -0.47512210811E+02  0.47570631725E+03  0.47208587756E+03 0.  0.
         13    1    3    3    0    0 -0.15067592778E+03 -0.79559223671E+02 -0.17407427804E+03  0.24358727298E+03  0.00000000000E+00 0.  1.
          1    1    3    3  501    0  0.18261992987E+03  0.67165877266E+02  0.12656206722E+03  0.23211904428E+03  0.00000000000E+00 0.  1.
         21    1    1    2  502  501 -0.31944002095E+02  0.12393346405E+02  0.85276691823E+01  0.35309141120E+02  0.00000000000E+00 0.  1.
<scales pt_clust_4="550.00000" pt_clust_5="550.00000" pt_clust_6="34.26389"></scales>
<mgrwt>
<rscale>  0 0.30000000E+03</rscale>
<asrwt>  1 0.34263892E+02</asrwt>
<pdfrwt beam="1">  1        1 0.85823803E+00 0.30000000E+03</pdfrwt>
<pdfrwt beam="2">0</pdfrwt>
<totfact> 0.33898788E-04</totfact>
</mgrwt>
<clustering>
<clus scale="   34.264">  1  6  2 -1</clus>
<clus scale="  472.086">  4  5 -1 -1</clus>
<clus scale="  300.000">  1  4  2 -1</clus>
</clustering>
</event>
<event>
 6    1  0.9480355E-012  0.3000000E+03  0.7818608E-02  0.1093470E+00
          1   -1    0    0  502    0  0.00000000000E+00  0.00000000000E+00  0.24758005517E+03  0.24758005517E+03  0.00000000000E+00 0.  1.
         13   -1    0    0    0    0 -0.00000000000E+00 -0.00000000000E+00 -0.27500000000E+03  0.27500000000E+03  0.00000000000E+00 0.  1.
    9000005    2    1    2  501    0 -0.25567272191E+01  0.30578739534E+02 -0.18633814549E+02  0.49066152997E+03  0.48934642308E+03 0.  0.
         13    1    3    3    0    0  0.18122241594E+03 -0.40222609035E+02  0.14424667399E+03  0.23508833504E+03  0.00000000000E+00 0.  1.
          1    1    3    3  501    0 -0.18377914316E+03  0.70801348569E+02 -0.16288048854E+03  0.25557319493E+03  0.00000000000E+00 0.  1.
         21    1    1    2  502  501  0.25567272191E+01 -0.30578739534E+02 -0.87861302801E+01  0.31918525199E+02  0.00000000000E+00 0. -1.
<scales pt_clust_4="550.00000" pt_clust_5="550.00000" pt_clust_6="30.68545"></scales>
<mgrwt>
<rscale>  0 0.30000000E+03</rscale>
<asrwt>  1 0.30685454E+02</asrwt>
<pdfrwt beam="1">  1        1 0.90029111E+00 0.30000000E+03</pdfrwt>
<pdfrwt beam="2">0</pdfrwt>
<totfact> 0.11227057E-04</totfact>
</mgrwt>
<clustering>
<clus scale="   30.685">  1  6  2 -1</clus>
<clus scale="  489.346">  4  5 -1 -1</clus>
<clus scale="  300.000">  1  4  2 -1</clus>
</clustering>
</event>
<event>
 6    1  0.9480355E-012  0.3000000E+03  0.7818608E-02  0.1093470E+00
          1   -1    0    0  502    0  0.00000000000E+00  0.00000000000E+00  0.24488694543E+03  0.24488694543E+03  0.00000000000E+00 0.  1.
         13   -1    0    0    0    0 -0.00000000000E+00 -0.00000000000E+00 -0.27500000000E+03  0.27500000000E+03  0.00000000000E+00 0.  1.
    9000005    2    1    2  501    0  0.69492103524E+01  0.31695393876E+02 -0.62718229766E+02  0.47388708709E+03  0.46859631395E+03 0.  0.
         13    1    3    3    0    0  0.80790822768E+02  0.10859385104E+03  0.17036049247E+03  0.21758326894E+03  0.00000000000E+00 0.  1.
          3    1    3    3  501    0 -0.73841612415E+02 -0.76898457166E+02 -0.23307872224E+03  0.25630381815E+03  0.00000000000E+00 0.  1.
         21    1    1    2  502  501 -0.69492103524E+01 -0.31695393876E+02  0.32605175192E+02  0.45999858335E+02  0.00000000000E+00 0.  1.
<scales pt_clust_4="550.00000" pt_clust_5="550.00000" pt_clust_6="32.44826"></scales>
<mgrwt>
<rscale>  0 0.30000000E+03</rscale>
<asrwt>  1 0.32448259E+02</asrwt>
<pdfrwt beam="1">  1        1 0.89049798E+00 0.30000000E+03</pdfrwt>
<pdfrwt beam="2">0</pdfrwt>
<totfact> 0.14482649E-04</totfact>
</mgrwt>
<clustering>
<clus scale="   32.448">  1  6  2 -1</clus>
<clus scale="  468.596">  4  5 -1 -1</clus>
<clus scale="  300.000">  1  4  2 -1</clus>
</clustering>
</event>
<event>
 6    1  0.9480355E-012  0.3000000E+03  0.7818608E-02  0.1093470E+00
          1   -1    0    0  502    0  0.00000000000E+00  0.00000000000E+00  0.24589011097E+03  0.24589011097E+03  0.00000000000E+00 0.  1.
         13   -1    0    0    0    0 -0.00000000000E+00 -0.00000000000E+00 -0.27500000000E+03  0.27500000000E+03  0.00000000000E+00 0.  1.
    9000005    2    1    2  501    0  0.26856830160E+02 -0.35402159042E+02 -0.37748694520E+02  0.47562167659E+03  0.47203433468E+03 0.  0.
         13    1    3    3    0    0 -0.11814966976E+03 -0.20679709352E+03  0.32512393551E+02  0.24037769881E+03  0.00000000000E+00 0.  1.
          3    1    3    3  501    0  0.14500649992E+03  0.17139493448E+03 -0.70261088071E+02  0.23524397778E+03  0.00000000000E+00 0.  1.
         21    1    1    2  502  501 -0.26856830160E+02  0.35402159042E+02  0.86388054916E+01  0.45268434382E+02  0.00000000000E+00 0. -1.
<scales pt_clust_4="550.00000" pt_clust_5="550.00000" pt_clust_6="44.43650"></scales>
<mgrwt>
<rscale>  0 0.30000000E+03</rscale>
<asrwt>  1 0.44436496E+02</asrwt>
<pdfrwt beam="1">  1        1 0.89414586E+00 0.30000000E+03</pdfrwt>
<pdfrwt beam="2">0</pdfrwt>
<totfact> 0.12341559E-04</totfact>
</mgrwt>
<clustering>
<clus scale="   44.436">  1  6  2 -1</clus>
<clus scale="  472.034">  4  5 -1 -1</clus>
<clus scale="  300.000">  1  4  2 -1</clus>
</clustering>
</event>
<event>
 6    1  0.9480355E-012  0.3000000E+03  0.7818608E-02  0.1093470E+00
          1   -1    0    0  502    0  0.00000000000E+00  0.00000000000E+00  0.26154265879E+03  0.26154265879E+03  0.00000000000E+00 0.  1.
         13   -1    0    0    0    0 -0.00000000000E+00 -0.00000000000E+00 -0.27500000000E+03  0.27500000000E+03  0.00000000000E+00 0.  1.
    9000005    2    1    2  501    0  0.78344776320E+00 -0.41942394804E+02 -0.27253759663E+02  0.49238250215E+03  0.48983464836E+03 0.  0.
         13    1    3    3    0    0  0.22878524927E+02 -0.30516027764E+02  0.23039763450E+03  0.23353313435E+03  0.00000000000E+00 0.  1.
          3    1    3    3  501    0 -0.22095077164E+02 -0.11426367041E+02 -0.25765139417E+03  0.25884936781E+03  0.00000000000E+00 0.  1.
         21    1    1    2  502  501 -0.78344776320E+00  0.41942394804E+02  0.13796418457E+02  0.44160156641E+02  0.00000000000E+00 0.  1.
<scales pt_clust_4="550.00000" pt_clust_5="550.00000" pt_clust_6="41.94971"></scales>
<mgrwt>
<rscale>  0 0.30000000E+03</rscale>
<asrwt>  1 0.41949711E+02</asrwt>
<pdfrwt beam="1">  1        1 0.95106421E+00 0.30000000E+03</pdfrwt>
<pdfrwt beam="2">0</pdfrwt>
<totfact> 0.11344356E-05</totfact>
</mgrwt>
<clustering>
<clus scale="   41.950">  1  6  2 -1</clus>
<clus scale="  489.835">  4  5 -1 -1</clus>
<clus scale="  300.000">  1  4  2 -1</clus>
</clustering>
</event>
<event>
 6    1  0.9480355E-012  0.3000000E+03  0.7818608E-02  0.1093470E+00
          1   -1    0    0  502    0  0.00000000000E+00  0.00000000000E+00  0.22283546389E+03  0.22283546389E+03  0.00000000000E+00 0.  1.
         13   -1    0    0    0    0 -0.00000000000E+00 -0.00000000000E+00 -0.27500000000E+03  0.27500000000E+03  0.00000000000E+00 0.  1.
    9000005    2    1    2  501    0 -0.80286555739E+01  0.29435976846E+02 -0.63627737990E+02  0.46524189028E+03  0.45985931695E+03 0.  0.
         13    1    3    3    0    0 -0.18934114002E+03  0.14413708348E+03 -0.77454671937E+02  0.25024946023E+03  0.00000000000E+00 0.  1.
          3    1    3    3  501    0  0.18131248444E+03 -0.11470110664E+03  0.13826933946E+02  0.21499243006E+03  0.00000000000E+00 0.  1.
         21    1    1    2  502  501  0.80286555739E+01 -0.29435976846E+02  0.11463201882E+02  0.32593573609E+02  0.00000000000E+00 0. -1.
<scales pt_clust_4="550.00000" pt_clust_5="550.00000" pt_clust_6="30.51124"></scales>
<mgrwt>
<rscale>  0 0.30000000E+03</rscale>
<asrwt>  1 0.30511245E+02</asrwt>
<pdfrwt beam="1">  1        1 0.81031078E+00 0.30000000E+03</pdfrwt>
<pdfrwt beam="2">0</pdfrwt>
<totfact> 0.89013805E-04</totfact>
</mgrwt>
<clustering>
<clus scale="   30.511">  1  6  2 -1</clus>
<clus scale="  459.859">  4  5 -1 -1</clus>
<clus scale="  300.000">  1  4  2 -1</clus>
</clustering>
</event>
<event>
 6    1  0.9480355E-012  0.3000000E+03  0.7818608E-02  0.1093470E+00
          1   -1    0    0  502    0  0.00000000000E+00  0.00000000000E+00  0.24862759645E+03  0.24862759645E+03  0.00000000000E+00 0.  1.
         13   -1    0    0    0    0 -0.00000000000E+00 -0.00000000000E+00 -0.27500000000E+03  0.27500000000E+03  0.00000000000E+00 0.  1.
    9000005    2    1    2  501    0  0.12993465663E+02  0.29441414857E+02 -0.25446463275E+02  0.49143311829E+03  0.48971763313E+03 0.  0.
         13    1    3    3    0    0  0.19098454479E+03  0.15052107210E+03  0.74172326310E+02  0.25423065017E+03  0.00000000000E+00 0.  1.
          3    1    3    3  501    0 -0.17799107912E+03 -0.12107965725E+03 -0.99618789584E+02  0.23720246812E+03  0.00000000000E+00 0.  1.
         21    1    1    2  502  501 -0.12993465663E+02 -0.29441414857E+02 -0.92594027291E+00  0.32194478161E+02  0.00000000000E+00 0.  1.
<scales pt_clust_4="550.00000" pt_clust_5="550.00000" pt_clust_6="32.18116"></scales>
<mgrwt>
<rscale>  0 0.30000000E+03</rscale>
<asrwt>  1 0.32181160E+02</asrwt>
<pdfrwt beam="1">  1        1 0.90410035E+00 0.30000000E+03</pdfrwt>
<pdfrwt beam="2">0</pdfrwt>
<totfact> 0.97563903E-05</totfact>
</mgrwt>
<clustering>
<clus scale="   32.181">  1  6  2 -1</clus>
<clus scale="  489.718">  4  5 -1 -1</clus>
<clus scale="  300.000">  1  4  2 -1</clus>
</clustering>
</event>
<event>
 6    1  0.9480355E-012  0.3000000E+03  0.7818608E-02  0.1093470E+00
          1   -1    0    0  502    0  0.00000000000E+00  0.00000000000E+00  0.23763976300E+03  0.23763976300E+03  0.00000000000E+00 0.  1.
         13   -1    0    0    0    0 -0.00000000000E+00 -0.00000000000E+00 -0.27500000000E+03  0.27500000000E+03  0.00000000000E+00 0.  1.
    9000005    2    1    2  501    0 -0.17880492554E+01 -0.41139706953E+02 -0.26285253241E+02  0.46999790711E+03  0.46745207833E+03 0.  0.
         13    1    3    3    0    0  0.76320372885E+02  0.77008604667E+02 -0.21100424187E+03  0.23722966635E+03  0.00000000000E+00 0.  1.
          1    1    3    3  501    0 -0.78108422141E+02 -0.11814831162E+03  0.18471898862E+03  0.23276824076E+03  0.00000000000E+00 0.  1.
         21    1    1    2  502  501  0.17880492554E+01  0.41139706953E+02 -0.11074983763E+02  0.42641855889E+02  0.00000000000E+00 0.  1.
<scales pt_clust_4="550.00000" pt_clust_5="550.00000" pt_clust_6="41.17857"></scales>
<mgrwt>
<rscale>  0 0.30000000E+03</rscale>
<asrwt>  1 0.41178566E+02</asrwt>
<pdfrwt beam="1">  1        1 0.86414459E+00 0.30000000E+03</pdfrwt>
<pdfrwt beam="2">0</pdfrwt>
<totfact> 0.28322350E-04</totfact>
</mgrwt>
<clustering>
<clus scale="   41.179">  1  6  2 -1</clus>
<clus scale="  467.452">  4  5 -1 -1</clus>
<clus scale="  300.000">  1  4  2 -1</clus>
</clustering>
</event>
<event>
 6    1  0.9480355E-012  0.3000000E+03  0.7818608E-02  0.1093470E+00
          1   -1    0    0  502    0  0.00000000000E+00  0.00000000000E+00  0.23298871782E+03  0.23298871782E+03  0.00000000000E+00 0.  1.
         13   -1    0    0    0    0 -0.00000000000E+00 -0.00000000000E+00 -0.27500000000E+03  0.27500000000E+03  0.00000000000E+00 0.  1.
    9000005    2    1    2  501    0 -0.34832760107E+02  0.13810241129E+02 -0.41381537725E+02  0.47051285205E+03  0.46718932816E+03 0.  0.
         13    1    3    3    0    0  0.68967528286E+02  0.20631282924E+03 -0.10665652900E+03  0.24227488241E+03  0.00000000000E+00 0.  1.
          3    1    3    3  501    0 -0.10380028839E+03 -0.19250258811E+03  0.65274991276E+02  0.22823796964E+03  0.00000000000E+00 0.  1.
         21    1    1    2  502  501  0.34832760107E+02 -0.13810241129E+02 -0.62974445536E+00  0.37475865765E+02  0.00000000000E+00 0. -1.
<scales pt_clust_4="550.00000" pt_clust_5="550.00000" pt_clust_6="37.47057"></scales>
<mgrwt>
<rscale>  0 0.30000000E+03</rscale>
<asrwt>  1 0.37470574E+02</asrwt>
<pdfrwt beam="1">  1        1 0.84723170E+00 0.30000000E+03</pdfrwt>
<pdfrwt beam="2">0</pdfrwt>
<totfact> 0.42619233E-04</totfact>
</mgrwt>
<clustering>
<clus scale="   37.471">  1  6  2 -1</clus>
<clus scale="  467.189">  4  5 -1 -1</clus>
<clus scale="  300.000">  1  4  2 -1</clus>
</clustering>
</event>
<event>
 6    1  0.9480355E-012  0.3000000E+03  0.7818608E-02  0.1093470E+00
          1   -1    0    0  502    0  0.00000000000E+00  0.00000000000E+00  0.23250170528E+03  0.23250170528E+03  0.00000000000E+00 0.  1.
         13   -1    0    0    0    0 -0.00000000000E+00 -0.00000000000E+00 -0.27500000000E+03  0.27500000000E+03  0.00000000000E+00 0.  1.
    9000005    2    1    2  501    0  0.77084597494E+01  0.31197291438E+02 -0.66934694510E+02  0.46713056485E+03  0.46119195564E+03 0.  0.
         13    1    3    3    0    0  0.22054715668E+03  0.77129537012E+01 -0.11325597157E+03  0.24804727991E+03  0.00000000000E+00 0.  1.
          1    1    3    3  501    0 -0.21283869693E+03  0.23484337737E+02  0.46321277060E+02  0.21908328494E+03  0.00000000000E+00 0.  1.
         21    1    1    2  502  501 -0.77084597494E+01 -0.31197291438E+02  0.24436399785E+02  0.40371140425E+02  0.00000000000E+00 0.  1.
<scales pt_clust_4="550.00000" pt_clust_5="550.00000" pt_clust_6="32.13552"></scales>
<mgrwt>
<rscale>  0 0.30000000E+03</rscale>
<asrwt>  1 0.32135515E+02</asrwt>
<pdfrwt beam="1">  1        1 0.84546075E+00 0.30000000E+03</pdfrwt>
<pdfrwt beam="2">0</pdfrwt>
<totfact> 0.45490276E-04</totfact>
</mgrwt>
<clustering>
<clus scale="   32.136">  1  6  2 -1</clus>
<clus scale="  461.192">  4  5 -1 -1</clus>
<clus scale="  300.000">  1  4  2 -1</clus>
</clustering>
</event>
<event>
 6    1  0.9480355E-012  0.3000000E+03  0.7818608E-02  0.1093470E+00
          1   -1    0    0  502    0  0.00000000000E+00  0.00000000000E+00  0.21875931909E+03  0.21875931909E+03  0.00000000000E+00 0.  1.
         13   -1    0    0    0    0 -0.00000000000E+00 -0.00000000000E+00 -0.27500000000E+03  0.27500000000E+03  0.00000000000E+00 0.  1.
    9000005    2    1    2  501    0  0.78625403383E+01  0.29684703051E+02 -0.55552698580E+02  0.46304328980E+03  0.45867197949E+03 0.  0.
         13    1    3    3    0    0 -0.74791989826E+02 -0.12416290734E+03  0.13953943625E+03  0.20120020768E+03  0.00000000000E+00 0.  1.
          3    1    3    3  501    0  0.82654530164E+02  0.15384761039E+03 -0.19509213483E+03  0.26184308212E+03  0.00000000000E+00 0.  1.
         21    1    1    2  502  501 -0.78625403383E+01 -0.29684703051E+02 -0.68798233073E+00  0.30716029292E+02  0.00000000000E+00 0. -1.
<scales pt_clust_4="550.00000" pt_clust_5="550.00000" pt_clust_6="30.70832"></scales>
<mgrwt>
<rscale>  0 0.30000000E+03</rscale>
<asrwt>  1 0.30708324E+02</asrwt>
<pdfrwt beam="1">  1        1 0.79548843E+00 0.30000000E+03</pdfrwt>
<pdfrwt beam="2">0</pdfrwt>
<totfact> 0.11467379E-03</totfact>
</mgrwt>
<clustering>
<clus scale="   30.708">  1  6  2 -1</clus>
<clus scale="  458.672">  4  5 -1 -1</clus>
<clus scale="  300.000">  1  4  2 -1</clus>
</clustering>
</event>
<event>
 6    1  0.9480355E-012  0.3000000E+03  0.7818608E-02  0.1093470E+00
          1   -1    0    0  502    0  0.00000000000E+00  0.00000000000E+00  0.24560228943E+03  0.24560228943E+03  0.00000000000E+00 0.  1.
         13   -1    0    0    0    0 -0.00000000000E+00 -0.00000000000E+00 -0.27500000000E+03  0.27500000000E+03  0.00000000000E+00 0.  1.
    9000005    2    1    2  501    0 -0.31255438872E+02  0.14102414954E+02 -0.46650273468E+02  0.48221698634E+03  0.47872872625E+03 0.  0.
         13    1    3    3    0    0 -0.22281563083E+03  0.45690292170E+02  0.90201422232E+02  0.24468490904E+03  0.00000000000E+00 0.  1.
          3    1    3    3  501    0  0.19156019196E+03 -0.31587877216E+02 -0.13685169570E+03  0.23753207730E+03  0.00000000000E+00 0.  1.
         21    1    1    2  502  501  0.31255438872E+02 -0.14102414954E+02  0.17252562896E+02  0.38385303088E+02  0.00000000000E+00 0.  1.
<scales pt_clust_4="550.00000" pt_clust_5="550.00000" pt_clust_6="34.28966"></scales>
<mgrwt>
<rscale>  0 0.30000000E+03</rscale>
<asrwt>  1 0.34289657E+02</asrwt>
<pdfrwt beam="1">  1        1 0.89309923E+00 0.30000000E+03</pdfrwt>
<pdfrwt beam="2">0</pdfrwt>
<totfact> 0.13307907E-04</totfact>
</mgrwt>
<clustering>
<clus scale="   34.290">  1  6  2 -1</clus>
<clus scale="  478.729">  4  5 -1 -1</clus>
<clus scale="  300.000">  1  4  2 -1</clus>
</clustering>
</event>
<event>
 6    1  0.9480355E-012  0.3000000E+03  0.7818608E-02  0.1093470E+00
          1   -1    0    0  502    0  0.00000000000E+00  0.00000000000E+00  0.24280464022E+03  0.24280464022E+03  0.00000000000E+00 0.  1.
         13   -1    0    0    0    0 -0.00000000000E+00 -0.00000000000E+00 -0.27500000000E+03  0.27500000000E+03  0.00000000000E+00 0.  1.
    9000005    2    1    2  501    0  0.46201447224E+02 -0.20416504050E+01 -0.61450869719E+02  0.46308145570E+03  0.45665028541E+03 0.  0.
         13    1    3    3    0    0 -0.93140950888E+02 -0.16036785910E+03  0.87317587138E+02  0.20498157963E+03  0.00000000000E+00 0.  1.
          1    1    3    3  501    0  0.13934239811E+03  0.15832620870E+03 -0.14876845686E+03  0.25809987607E+03  0.00000000000E+00 0.  1.
         21    1    1    2  502  501 -0.46201447224E+02  0.20416504050E+01  0.29255509942E+02  0.54723184519E+02  0.00000000000E+00 0.  1.
<scales pt_clust_4="550.00000" pt_clust_5="550.00000" pt_clust_6="46.24654"></scales>
<mgrwt>
<rscale>  0 0.30000000E+03</rscale>
<asrwt>  1 0.46246536E+02</asrwt>
<pdfrwt beam="1">  1        1 0.88292596E+00 0.30000000E+03</pdfrwt>
<pdfrwt beam="2">0</pdfrwt>
<totfact> 0.17205563E-04</totfact>
</mgrwt>
<clustering>
<clus scale="   46.247">  1  6  2 -1</clus>
<clus scale="  456.650">  4  5 -1 -1</clus>
<clus scale="  300.000">  1  4  2 -1</clus>
</clustering>
</event>
<event>
 6    1  0.9480355E-012  0.3000000E+03  0.7818608E-02  0.1093470E+00
          1   -1    0    0  502    0  0.00000000000E+00  0.00000000000E+00  0.24533798775E+03  0.24533798775E+03  0.00000000000E+00 0.  1.
         13   -1    0    0    0    0 -0.00000000000E+00 -0.00000000000E+00 -0.27500000000E+03  0.27500000000E+03  0.00000000000E+00 0.  1.
    9000005    2    1    2  501    0 -0.32506091761E+02 -0.23729658787E+02 -0.56426432432E+02  0.47200500837E+03  0.46688868368E+03 0.  0.
         13    1    3    3    0    0 -0.22005538753E+03 -0.37882526434E+02  0.82639478759E+02  0.23809397900E+03  0.00000000000E+00 0.  1.
          1    1    3    3  501    0  0.18754929577E+03  0.14152867647E+02 -0.13906591119E+03  0.23391102937E+03  0.00000000000E+00 0.  1.
         21    1    1    2  502  501  0.32506091761E+02  0.23729658787E+02  0.26764420181E+02  0.48332979376E+02  0.00000000000E+00 0.  1.
<scales pt_clust_4="550.00000" pt_clust_5="550.00000" pt_clust_6="40.24603"></scales>
<mgrwt>
<rscale>  0 0.30000000E+03</rscale>
<asrwt>  1 0.40246027E+02</asrwt>
<pdfrwt beam="1">  1        1 0.89213814E+00 0.30000000E+03</pdfrwt>
<pdfrwt beam="2">0</pdfrwt>
<totfact> 0.13265737E-04</totfact>
</mgrwt>
<clustering>
<clus scale="   40.246">  1  6  2 -1</clus>
<clus scale="  466.889">  4  5 -1 -1</clus>
<clus scale="  300.000">  1  4  2 -1</clus>
</clustering>
</event>
<event>
 6    1  0.9480355E-012  0.3000000E+03  0.7818608E-02  0.1093470E+00
          1   -1    0    0  502    0  0.00000000000E+00  0.00000000000E+00  0.23308434324E+03  0.23308434324E+03  0.00000000000E+00 0.  1.
         13   -1    0    0    0    0 -0.00000000000E+00 -0.00000000000E+00 -0.27500000000E+03  0.27500000000E+03  0.00000000000E+00 0.  1.
    9000005    2    1    2  501    0  0.12320989225E+02 -0.30720097393E+02 -0.56035214515E+02  0.47209972055E+03  0.46759241837E+03 0.  0.
         13    1    3    3    0    0 -0.22385269960E+03 -0.14360525222E+02  0.15333769660E+02  0.22483634114E+03  0.00000000000E+00 0.  1.
          3    1    3    3  501    0  0.23617368883E+03 -0.16359572171E+02 -0.71368984175E+02  0.24726337941E+03  0.00000000000E+00 0.  1.
         21    1    1    2  502  501 -0.12320989225E+02  0.30720097393E+02  0.14119557756E+02  0.35984622695E+02  0.00000000000E+00 0.  1.
<scales pt_clust_4="550.00000" pt_clust_5="550.00000" pt_clust_6="33.09881"></scales>
<mgrwt>
<rscale>  0 0.30000000E+03</rscale>
<asrwt>  1 0.33098809E+02</asrwt>
<pdfrwt beam="1">  1        1 0.84757943E+00 0.30000000E+03</pdfrwt>
<pdfrwt beam="2">0</pdfrwt>
<totfact> 0.43302895E-04</totfact>
</mgrwt>
<clustering>
<clus scale="   33.099">  1  6  2 -1</clus>
<clus scale="  467.592">  4  5 -1 -1</clus>
<clus scale="  300.000">  1  4  2 -1</clus>
</clustering>
</event>
<event>
 6    1  0.9480355E-012  0.3000000E+03  0.7818608E-02  0.1093470E+00
          1   -1    0    0  502    0  0.00000000000E+00  0.00000000000E+00  0.24447350653E+03  0.24447350653E+03  0.00000000000E+00 0.  1.
         13   -1    0    0    0    0 -0.00000000000E+00 -0.00000000000E+00 -0.27500000000E+03  0.27500000000E+03  0.00000000000E+00 0.  1.
    9000005    2    1    2  501    0  0.33572038896E+02 -0.15385405594E+02 -0.60437104039E+02  0.47195048973E+03  0.46660564582E+03 0.  0.
         13    1    3    3    0    0  0.23650553704E+03 -0.42860666609E+02  0.40327153013E+02  0.24371742872E+03  0.00000000000E+00 0.  1.
          1    1    3    3  501    0 -0.20293349815E+03  0.27475261016E+02 -0.10076425705E+03  0.22823306101E+03  0.00000000000E+00 0.  1.
         21    1    1    2  502  501 -0.33572038896E+02  0.15385405594E+02  0.29910610567E+02  0.47523016796E+02  0.00000000000E+00 0. -1.
<scales pt_clust_4="550.00000" pt_clust_5="550.00000" pt_clust_6="36.92956"></scales>
<mgrwt>
<rscale>  0 0.30000000E+03</rscale>
<asrwt>  1 0.36929561E+02</asrwt>
<pdfrwt beam="1">  1        1 0.88899457E+00 0.30000000E+03</pdfrwt>
<pdfrwt beam="2">0</pdfrwt>
<totfact> 0.14805397E-04</totfact>
</mgrwt>
<clustering>
<clus scale="   36.930">  1  6  2 -1</clus>
<clus scale="  466.606">  4  5 -1 -1</clus>
<clus scale="  300.000">  1  4  2 -1</clus>
</clustering>
</event>
<event>
 6    1  0.9480355E-012  0.3000000E+03  0.7818608E-02  0.1093470E+00
          1   -1    0    0  502    0  0.00000000000E+00  0.00000000000E+00  0.22761201700E+03  0.22761201700E+03  0.00000000000E+00 0.  1.
         13   -1    0    0    0    0 -0.00000000000E+00 -0.00000000000E+00 -0.27500000000E+03  0.27500000000E+03  0.00000000000E+00 0.  1.
    9000005    2    1    2  501    0  0.27102811380E+02  0.17517660678E+02 -0.53448860444E+02  0.46977659321E+03  0.46560910217E+03 0.  0.
         13    1    3    3    0    0 -0.20533962070E+03 -0.18428521745E+02 -0.10137054107E+03  0.22973888839E+03  0.00000000000E+00 0.  1.
          1    1    3    3  501    0  0.23244243208E+03  0.35946182423E+02  0.47921680630E+02  0.24003770482E+03  0.00000000000E+00 0.  1.
         21    1    1    2  502  501 -0.27102811380E+02 -0.17517660678E+02  0.60608774466E+01  0.32835423794E+02  0.00000000000E+00 0. -1.
<scales pt_clust_4="550.00000" pt_clust_5="550.00000" pt_clust_6="32.27121"></scales>
<mgrwt>
<rscale>  0 0.30000000E+03</rscale>
<asrwt>  1 0.32271207E+02</asrwt>
<pdfrwt beam="1">  1        1 0.82768006E+00 0.30000000E+03</pdfrwt>
<pdfrwt beam="2">0</pdfrwt>
<totfact> 0.62802324E-04</totfact>
</mgrwt>
<clustering>
<clus scale="   32.271">  1  6  2 -1</clus>
<clus scale="  465.609">  4  5 -1 -1</clus>
<clus scale="  300.000">  1  4  2 -1</clus>
</clustering>
</event>
<event>
 6    1  0.9480355E-012  0.3000000E+03  0.7818608E-02  0.1093470E+00
          1   -1    0    0  502    0  0.00000000000E+00  0.00000000000E+00  0.22418431358E+03  0.22418431358E+03  0.00000000000E+00 0.  1.
         13   -1    0    0    0    0 -0.00000000000E+00 -0.00000000000E+00 -0.27500000000E+03  0.27500000000E+03  0.00000000000E+00 0.  1.
    9000005    2    1    2  501    0  0.21233478724E+02 -0.21406722450E+02 -0.70726747011E+02  0.46305179749E+03  0.45662411898E+03 0.  0.
         13    1    3    3    0    0 -0.12229481483E+03 -0.16909975720E+03  0.62408540740E+02  0.21782005320E+03  0.00000000000E+00 0.  1.
          1    1    3    3  501    0  0.14352829356E+03  0.14769303475E+03 -0.13313528775E+03  0.24523174429E+03  0.00000000000E+00 0.  1.
         21    1    1    2  502  501 -0.21233478724E+02  0.21406722450E+02  0.19911060590E+02  0.36132516084E+02  0.00000000000E+00 0.  1.
<scales pt_clust_4="550.00000" pt_clust_5="550.00000" pt_clust_6="30.15142"></scales>
<mgrwt>
<rscale>  0 0.30000000E+03</rscale>
<asrwt>  1 0.30151424E+02</asrwt>
<pdfrwt beam="1">  1        1 0.81521569E+00 0.30000000E+03</pdfrwt>
<pdfrwt beam="2">0</pdfrwt>
<totfact> 0.81559660E-04</totfact>
</mgrwt>
<clustering>
<clus scale="   30.151">  1  6  2 -1</clus>
<clus scale="  456.624">  4  5 -1 -1</clus>
<clus scale="  300.000">  1  4  2 -1</clus>
</clustering>
</event>
<event>
 6    1  0.9480355E-012  0.3000000E+03  0.7818608E-02  0.1093470E+00
          1   -1    0    0  502    0  0.00000000000E+00  0.00000000000E+00  0.24640971271E+03  0.24640971271E+03  0.00000000000E+00 0.  1.
         13   -1    0    0    0    0 -0.00000000000E+00 -0.00000000000E+00 -0.27500000000E+03  0.27500000000E+03  0.00000000000E+00 0.  1.
    9000005    2    1    2  501    0 -0.42237516167E+02  0.92149892368E+01 -0.35219000270E+02  0.47767341618E+03  0.47440762088E+03 0.  0.
         13    1    3    3    0    0 -0.65221172655E+02  0.11687209226E+03 -0.22295546241E+03  0.26004235334E+03  0.00000000000E+00 0.  1.
          1    1    3    3  501    0  0.22983656488E+02 -0.10765710302E+03  0.18773646214E+03  0.21763106284E+03  0.00000000000E+00 0.  1.
         21    1    1    2  502  501  0.42237516167E+02 -0.92149892368E+01  0.66287129824E+01  0.43736296533E+02  0.00000000000E+00 0.  1.
<scales pt_clust_4="550.00000" pt_clust_5="550.00000" pt_clust_6="43.23105"></scales>
<mgrwt>
<rscale>  0 0.30000000E+03</rscale>
<asrwt>  1 0.43231051E+02</asrwt>
<pdfrwt beam="1">  1        1 0.89603532E+00 0.30000000E+03</pdfrwt>
<pdfrwt beam="2">0</pdfrwt>
<totfact> 0.11811415E-04</totfact>
</mgrwt>
<clustering>
<clus scale="   43.231">  1  6  2 -1</clus>
<clus scale="  474.408">  4  5 -1 -1</clus>
<clus scale="  300.000">  1  4  2 -1</clus>
</clustering>
</event>
<event>
 6    1  0.9480355E-012  0.3000000E+03  0.7818608E-02  0.1093470E+00
          1   -1    0    0  502    0  0.00000000000E+00  0.00000000000E+00  0.22442477569E+03  0.22442477569E+03  0.00000000000E+00 0.  1.
         13   -1    0    0    0    0 -0.00000000000E+00 -0.00000000000E+00 -0.27500000000E+03  0.27500000000E+03  0.00000000000E+00 0.  1.
    9000005    2    1    2  501    0 -0.27567592347E+02 -0.25661806740E+02 -0.56153908610E+02  0.46135087135E+03  0.45636921957E+03 0.  0.
         13    1    3    3    0    0 -0.13350377474E+03 -0.20598563179E+03 -0.26649593424E+01  0.24548002034E+03  0.00000000000E+00 0.  1.
          1    1    3    3  501    0  0.10593618240E+03  0.18032382505E+03 -0.53488949268E+02  0.21587085101E+03  0.00000000000E+00 0.  1.
         21    1    1    2  502  501  0.27567592347E+02  0.25661806740E+02  0.55786842976E+01  0.38073904337E+02  0.00000000000E+00 0.  1.
<scales pt_clust_4="550.00000" pt_clust_5="550.00000" pt_clust_6="37.66299"></scales>
<mgrwt>
<rscale>  0 0.30000000E+03</rscale>
<asrwt>  1 0.37662985E+02</asrwt>
<pdfrwt beam="1">  1        1 0.81609009E+00 0.30000000E+03</pdfrwt>
<pdfrwt beam="2">0</pdfrwt>
<totfact> 0.76942350E-04</totfact>
</mgrwt>
<clustering>
<clus scale="   37.663">  1  6  2 -1</clus>
<clus scale="  456.369">  4  5 -1 -1</clus>
<clus scale="  300.000">  1  4  2 -1</clus>
</clustering>
</event>
<event>
 6    1  0.9480355E-012  0.3000000E+03  0.7818608E-02  0.1093470E+00
          1   -1    0    0  502    0  0.00000000000E+00  0.00000000000E+00  0.24477166372E+03  0.24477166372E+03  0.00000000000E+00 0.  1.
         13   -1    0    0    0    0 -0.00000000000E+00 -0.00000000000E+00 -0.27500000000E+03  0.27500000000E+03  0.00000000000E+00 0.  1.
    9000005    2    1    2  501    0  0.26454116260E+02  0.37304141069E+02 -0.13591462299E+02  0.47110745938E+03  0.46868549287E+03 0.  0.
         13    1    3    3    0    0  0.19255471043E+03 -0.11835452930E+02 -0.15502190787E+03  0.24748572963E+03  0.00000000000E+00 0.  1.
          3    1    3    3  501    0 -0.16610059417E+03  0.49139593999E+02  0.14143044557E+03  0.22362172975E+03  0.00000000000E+00 0.  1.
         21    1    1    2  502  501 -0.26454116260E+02 -0.37304141069E+02 -0.16636873981E+02  0.48664204338E+02  0.00000000000E+00 0.  1.
<scales pt_clust_4="550.00000" pt_clust_5="550.00000" pt_clust_6="45.73206"></scales>
<mgrwt>
<rscale>  0 0.30000000E+03</rscale>
<asrwt>  1 0.45732060E+02</asrwt>
<pdfrwt beam="1">  1        1 0.89007878E+00 0.30000000E+03</pdfrwt>
<pdfrwt beam="2">0</pdfrwt>
<totfact> 0.13771750E-04</totfact>
</mgrwt>
<clustering>
<clus scale="   45.732">  1  6  2 -1</clus>
<clus scale="  468.685">  4  5 -1 -1</clus>
<clus scale="  300.000">  1  4  2 -1</clus>
</clustering>
</event>
<event>
 6    1  0.9480355E-012  0.3000000E+03  0.7818608E-02  0.1093470E+00
          1   -1    0    0  502    0  0.00000000000E+00  0.00000000000E+00  0.23958107259E+03  0.23958107259E+03  0.00000000000E+00 0.  1.
         13   -1    0    0    0    0 -0.00000000000E+00 -0.00000000000E+00 -0.27500000000E+03  0.27500000000E+03  0.00000000000E+00 0.  1.
    9000005    2    1    2  501    0 -0.35593615764E+02  0.32676160339E+01 -0.65124571650E+02  0.46810518532E+03  0.46217277277E+03 0.  0.
         13    1    3    3    0    0 -0.16903193825E+03  0.17465547593E+03 -0.62149261672E+02  0.25087618888E+03  0.00000000000E+00 0.  1.
          1    1    3    3  501    0  0.13343832248E+03 -0.17138785989E+03 -0.29753099780E+01  0.21722899644E+03  0.00000000000E+00 0.  1.
         21    1    1    2  502  501  0.35593615764E+02 -0.32676160339E+01  0.29705644239E+02  0.46475887269E+02  0.00000000000E+00 0.  1.
<scales pt_clust_4="550.00000" pt_clust_5="550.00000" pt_clust_6="35.74329"></scales>
<mgrwt>
<rscale>  0 0.30000000E+03</rscale>
<asrwt>  1 0.35743290E+02</asrwt>
<pdfrwt beam="1">  1        1 0.87120390E+00 0.30000000E+03</pdfrwt>
<pdfrwt beam="2">0</pdfrwt>
<totfact> 0.24521945E-04</totfact>
</mgrwt>
<clustering>
<clus scale="   35.743">  1  6  2 -1</clus>
<clus scale="  462.173">  4  5 -1 -1</clus>
<clus scale="  300.000">  1  4  2 -1</clus>
</clustering>
</event>
<event>
 6    1  0.9480355E-012  0.3000000E+03  0.7818608E-02  0.1093470E+00
          1   -1    0    0  502    0  0.00000000000E+00  0.00000000000E+00  0.23333553775E+03  0.23333553775E+03  0.00000000000E+00 0.  1.
         13   -1    0    0    0    0 -0.00000000000E+00 -0.00000000000E+00 -0.27500000000E+03  0.27500000000E+03  0.00000000000E+00 0.  1.
    9000005    2    1    2  501    0 -0.31333404584E+02  0.24993466497E+02 -0.46954750265E+02  0.46790729567E+03  0.46381680991E+03 0.  0.
         13    1    3    3    0    0 -0.17085952592E+03  0.65897432170E+02 -0.19003855736E+03  0.26391305850E+03  0.00000000000E+00 0.  1.
          3    1    3    3  501    0  0.13952612134E+03 -0.40903965673E+02  0.14308380710E+03  0.20399423717E+03  0.00000000000E+00 0.  1.
         21    1    1    2  502  501  0.31333404584E+02 -0.24993466497E+02  0.52902880156E+01  0.40428242080E+02  0.00000000000E+00 0.  1.
<scales pt_clust_4="550.00000" pt_clust_5="550.00000" pt_clust_6="40.08061"></scales>
<mgrwt>
<rscale>  0 0.30000000E+03</rscale>
<asrwt>  1 0.40080614E+02</asrwt>
<pdfrwt beam="1">  1        1 0.84849286E+00 0.30000000E+03</pdfrwt>
<pdfrwt beam="2">0</pdfrwt>
<totfact> 0.40994067E-04</totfact>
</mgrwt>
<clustering>
<clus scale="   40.081">  1  6  2 -1</clus>
<clus scale="  463.817">  4  5 -1 -1</clus>
<clus scale="  300.000">  1  4  2 -1</clus>
</clustering>
</event>
<event>
 6    1  0.9480355E-012  0.3000000E+03  0.7818608E-02  0.1093470E+00
          1   -1    0    0  502    0  0.00000000000E+00  0.00000000000E+00  0.25339363756E+03  0.25339363756E+03  0.00000000000E+00 0.  1.
         13   -1    0    0    0    0 -0.00000000000E+00 -0.00000000000E+00 -0.27500000000E+03  0.27500000000E+03  0.00000000000E+00 0.  1.
    9000005    2    1    2  501    0 -0.13594759625E+02  0.40677089752E+02 -0.60170371615E+02  0.47071672776E+03  0.46488097515E+03 0.  0.
         13    1    3    3    0    0  0.66765206897E+02 -0.82457288734E+02 -0.22565074519E+03  0.24934926533E+03  0.00000000000E+00 0.  1.
          3    1    3    3  501    0 -0.80359966522E+02  0.12313437849E+03  0.16548037357E+03  0.22136746243E+03  0.00000000000E+00 0.  1.
         21    1    1    2  502  501  0.13594759625E+02 -0.40677089752E+02  0.38564009175E+02  0.57676909796E+02  0.00000000000E+00 0. -1.
<scales pt_clust_4="550.00000" pt_clust_5="550.00000" pt_clust_6="42.88873"></scales>
<mgrwt>
<rscale>  0 0.30000000E+03</rscale>
<asrwt>  1 0.42888730E+02</asrwt>
<pdfrwt beam="1">  1        1 0.92143141E+00 0.30000000E+03</pdfrwt>
<pdfrwt beam="2">0</pdfrwt>
<totfact> 0.37514711E-05</totfact>
</mgrwt>
<clustering>
<clus scale="   42.889">  1  6  2 -1</clus>
<clus scale="  464.881">  4  5 -1 -1</clus>
<clus scale="  300.000">  1  4  2 -1</clus>
</clustering>
</event>
<event>
 6    1  0.9480355E-012  0.3000000E+03  0.7818608E-02  0.1093470E+00
          1   -1    0    0  502    0  0.00000000000E+00  0.00000000000E+00  0.23380541971E+03  0.23380541971E+03  0.00000000000E+00 0.  1.
         13   -1    0    0    0    0 -0.00000000000E+00 -0.00000000000E+00 -0.27500000000E+03  0.27500000000E+03  0.00000000000E+00 0.  1.
    9000005    2    1    2  501    0  0.33095360348E+02  0.10648644441E+02 -0.39876974808E+02  0.47401414797E+03  0.47105259032E+03 0.  0.
         13    1    3    3    0    0  0.53352169086E+02 -0.22606339092E+03 -0.43983409556E+02  0.23640146146E+03  0.00000000000E+00 0.  1.
          3    1    3    3  501    0 -0.20256808738E+02  0.23671203536E+03  0.41064347478E+01  0.23761268652E+03  0.00000000000E+00 0.  1.
         21    1    1    2  502  501 -0.33095360348E+02 -0.10648644441E+02 -0.13176054822E+01  0.34791271739E+02  0.00000000000E+00 0. -1.
<scales pt_clust_4="550.00000" pt_clust_5="550.00000" pt_clust_6="34.76631"></scales>
<mgrwt>
<rscale>  0 0.30000000E+03</rscale>
<asrwt>  1 0.34766313E+02</asrwt>
<pdfrwt beam="1">  1        1 0.85020153E+00 0.30000000E+03</pdfrwt>
<pdfrwt beam="2">0</pdfrwt>
<totfact> 0.40572523E-04</totfact>
</mgrwt>
<clustering>
<clus scale="   34.766">  1  6  2 -1</clus>
<clus scale="  471.053">  4  5 -1 -1</clus>
<clus scale="  300.000">  1  4  2 -1</clus>
</clustering>
</event>
<event>
 6    1  0.9480355E-012  0.3000000E+03  0.7818608E-02  0.1093470E+00
          1   -1    0    0  502    0  0.00000000000E+00  0.00000000000E+00  0.23473557737E+03  0.23473557737E+03  0.00000000000E+00 0.  1.
         13   -1    0    0    0    0 -0.00000000000E+00 -0.00000000000E+00 -0.27500000000E+03  0.27500000000E+03  0.00000000000E+00 0.  1.
    9000005    2    1    2  501    0  0.33128266695E+02 -0.19498154275E+02 -0.57206025043E+02  0.46772750711E+03  0.46262169376E+03 0.  0.
         13    1    3    3    0    0  0.23438250538E+03  0.27037103639E+02  0.40220205125E+02  0.23934040340E+03  0.00000000000E+00 0.  1.
          1    1    3    3  501    0 -0.20125423868E+03 -0.46535257914E+02 -0.97426230168E+02  0.22838710371E+03  0.00000000000E+00 0.  1.
         21    1    1    2  502  501 -0.33128266695E+02  0.19498154275E+02  0.16941602412E+02  0.42008070256E+02  0.00000000000E+00 0.  1.
<scales pt_clust_4="550.00000" pt_clust_5="550.00000" pt_clust_6="38.44034"></scales>
<mgrwt>
<rscale>  0 0.30000000E+03</rscale>
<asrwt>  1 0.38440344E+02</asrwt>
<pdfrwt beam="1">  1        1 0.85358392E+00 0.30000000E+03</pdfrwt>
<pdfrwt beam="2">0</pdfrwt>
<totfact> 0.36965991E-04</totfact>
</mgrwt>
<clustering>
<clus scale="   38.440">  1  6  2 -1</clus>
<clus scale="  462.622">  4  5 -1 -1</clus>
<clus scale="  300.000">  1  4  2 -1</clus>
</clustering>
</event>
<event>
 6    1  0.9480355E-012  0.3000000E+03  0.7818608E-02  0.1093470E+00
          1   -1    0    0  502    0  0.00000000000E+00  0.00000000000E+00  0.23501335949E+03  0.23501335949E+03  0.00000000000E+00 0.  1.
         13   -1    0    0    0    0 -0.00000000000E+00 -0.00000000000E+00 -0.27500000000E+03  0.27500000000E+03  0.00000000000E+00 0.  1.
    9000005    2    1    2  501    0 -0.29771315410E+02 -0.23648675387E+02 -0.60312017956E+02  0.46690057673E+03  0.46142498629E+03 0.  0.
         13    1    3    3    0    0 -0.63641691042E+02 -0.23436442268E+03  0.74948641308E+01  0.24296732382E+03  0.00000000000E+00 0.  1.
          1    1    3    3  501    0  0.33870375632E+02  0.21071574729E+03 -0.67806882086E+02  0.22393325291E+03  0.00000000000E+00 0.  1.
         21    1    1    2  502  501  0.29771315410E+02  0.23648675387E+02  0.20325377442E+02  0.43112782756E+02  0.00000000000E+00 0. -1.
<scales pt_clust_4="550.00000" pt_clust_5="550.00000" pt_clust_6="38.02093"></scales>
<mgrwt>
<rscale>  0 0.30000000E+03</rscale>
<asrwt>  1 0.38020929E+02</asrwt>
<pdfrwt beam="1">  1        1 0.85459403E+00 0.30000000E+03</pdfrwt>
<pdfrwt beam="2">0</pdfrwt>
<totfact> 0.36210679E-04</totfact>
</mgrwt>
<clustering>
<clus scale="   38.021">  1  6  2 -1</clus>
<clus scale="  461.425">  4  5 -1 -1</clus>
<clus scale="  300.000">  1  4  2 -1</clus>
</clustering>
</event>
<event>
 6    1  0.9480355E-012  0.3000000E+03  0.7818608E-02  0.1093470E+00
          1   -1    0    0  502    0  0.00000000000E+00  0.00000000000E+00  0.22532371464E+03  0.22532371464E+03  0.00000000000E+00 0.  1.
         13   -1    0    0    0    0 -0.00000000000E+00 -0.00000000000E+00 -0.27500000000E+03  0.27500000000E+03  0.00000000000E+00 0.  1.
    9000005    2    1    2  501    0 -0.88477856484E+01  0.33161062804E+02 -0.58112785999E+02  0.46498090858E+03  0.46005674655E+03 0.  0.
         13    1    3    3    0    0 -0.16831310700E+03 -0.10739151393E+03  0.76014047185E+02  0.21363607987E+03  0.00000000000E+00 0.  1.
          3    1    3    3  501    0  0.15946532135E+03  0.14055257673E+03 -0.13412683318E+03  0.25134482871E+03  0.00000000000E+00 0.  1.
         21    1    1    2  502  501  0.88477856484E+01 -0.33161062804E+02  0.84365006364E+01  0.35342806060E+02  0.00000000000E+00 0.  1.
<scales pt_clust_4="550.00000" pt_clust_5="550.00000" pt_clust_6="34.32112"></scales>
<mgrwt>
<rscale>  0 0.30000000E+03</rscale>
<asrwt>  1 0.34321122E+02</asrwt>
<pdfrwt beam="1">  1        1 0.81935896E+00 0.30000000E+03</pdfrwt>
<pdfrwt beam="2">0</pdfrwt>
<totfact> 0.73524226E-04</totfact>
</mgrwt>
<clustering>
<clus scale="   34.321">  1  6  2 -1</clus>
<clus scale="  460.057">  4  5 -1 -1</clus>
<clus scale="  300.000">  1  4  2 -1</clus>
</clustering>
</event>
<event>
 6    1  0.9480355E-012  0.3000000E+03  0.7818608E-02  0.1093470E+00
          1   -1    0    0  502    0  0.00000000000E+00  0.00000000000E+00  0.24374951568E+03  0.24374951568E+03  0.00000000000E+00 0.  1.
         13   -1    0    0    0    0 -0.00000000000E+00 -0.00000000000E+00 -0.27500000000E+03  0.27500000000E+03  0.00000000000E+00 0.  1.
    9000005    2    1    2  501    0 -0.31683078204E+02 -0.36020895464E+02 -0.44748650389E+02  0.46891455966E+03  0.46430281088E+03 0.  0.
         13    1    3    3    0    0  0.14660358765E+03  0.90103333620E+02 -0.14835035260E+03  0.22719826090E+03  0.00000000000E+00 0.  1.
          3    1    3    3  501    0 -0.17828666585E+03 -0.12612422908E+03  0.10360170221E+03  0.24171629875E+03  0.00000000000E+00 0.  1.
         21    1    1    2  502  501  0.31683078204E+02  0.36020895464E+02  0.13498166068E+02  0.49834956022E+02  0.00000000000E+00 0. -1.
<scales pt_clust_4="550.00000" pt_clust_5="550.00000" pt_clust_6="47.97210"></scales>
<mgrwt>
<rscale>  0 0.30000000E+03</rscale>
<asrwt>  1 0.47972100E+02</asrwt>
<pdfrwt beam="1">  1        1 0.88636188E+00 0.30000000E+03</pdfrwt>
<pdfrwt beam="2">0</pdfrwt>
<totfact> 0.15348635E-04</totfact>
</mgrwt>
<clustering>
<clus scale="   47.972">  1  6  2 -1</clus>
<clus scale="  464.303">  4  5 -1 -1</clus>
<clus scale="  300.000">  1  4  2 -1</clus>
</clustering>
</event>
<event>
 6    1  0.9480355E-012  0.3000000E+03  0.7818608E-02  0.1093470E+00
          1   -1    0    0  502    0  0.00000000000E+00  0.00000000000E+00  0.23979575576E+03  0.23979575576E+03  0.00000000000E+00 0.  1.
         13   -1    0    0    0    0 -0.00000000000E+00 -0.00000000000E+00 -0.27500000000E+03  0.27500000000E+03  0.00000000000E+00 0.  1.
    9000005    2    1    2  501    0  0.22207073810E+02  0.26371461143E+02 -0.47544396407E+02  0.47817762575E+03  0.47455744020E+03 0.  0.
         13    1    3    3    0    0 -0.11678764624E+03  0.20622849540E+03 -0.76483561745E+02  0.24903670783E+03  0.00000000000E+00 0.  1.
          1    1    3    3  501    0  0.13899472005E+03 -0.17985703426E+03  0.28939165338E+02  0.22914091792E+03  0.00000000000E+00 0.  1.
         21    1    1    2  502  501 -0.22207073810E+02 -0.26371461143E+02  0.12340152166E+02  0.36618130011E+02  0.00000000000E+00 0. -1.
<scales pt_clust_4="550.00000" pt_clust_5="550.00000" pt_clust_6="34.47620"></scales>
<mgrwt>
<rscale>  0 0.30000000E+03</rscale>
<asrwt>  1 0.34476196E+02</asrwt>
<pdfrwt beam="1">  1        1 0.87198457E+00 0.30000000E+03</pdfrwt>
<pdfrwt beam="2">0</pdfrwt>
<totfact> 0.24238923E-04</totfact>
</mgrwt>
<clustering>
<clus scale="   34.476">  1  6  2 -1</clus>
<clus scale="  474.557">  4  5 -1 -1</clus>
<clus scale="  300.000">  1  4  2 -1</clus>
</clustering>
</event>
<event>
 6    1  0.9480355E-012  0.3000000E+03  0.7818608E-02  0.1093470E+00
          1   -1    0    0  502    0  0.00000000000E+00  0.00000000000E+00  0.23039424026E+03  0.23039424026E+03  0.00000000000E+00 0.  1.
         13   -1    0    0    0    0 -0.00000000000E+00 -0.00000000000E+00 -0.27500000000E+03  0.27500000000E+03  0.00000000000E+00 0.  1.
    9000005    2    1    2  501    0  0.74388420641E+01  0.42191799842E+02 -0.53824009917E+02  0.46157118148E+03  0.45641587087E+03 0.  0.
         13    1    3    3    0    0  0.19397888549E+03  0.14344366863E+03  0.50557660317E+01  0.24130780107E+03  0.00000000000E+00 0.  1.
          1    1    3    3  501    0 -0.18654004342E+03 -0.10125186879E+03 -0.58879775949E+02  0.22026338041E+03  0.00000000000E+00 0.  1.
         21    1    1    2  502  501 -0.74388420641E+01 -0.42191799842E+02  0.92182501816E+01  0.43823058788E+02  0.00000000000E+00 0.  1.
<scales pt_clust_4="550.00000" pt_clust_5="550.00000" pt_clust_6="42.84255"></scales>
<mgrwt>
<rscale>  0 0.30000000E+03</rscale>
<asrwt>  1 0.42842553E+02</asrwt>
<pdfrwt beam="1">  1        1 0.83779724E+00 0.30000000E+03</pdfrwt>
<pdfrwt beam="2">0</pdfrwt>
<totfact> 0.49742415E-04</totfact>
</mgrwt>
<clustering>
<clus scale="   42.843">  1  6  2 -1</clus>
<clus scale="  456.416">  4  5 -1 -1</clus>
<clus scale="  300.000">  1  4  2 -1</clus>
</clustering>
</event>
<event>
 6    1  0.9480355E-012  0.3000000E+03  0.7818608E-02  0.1093470E+00
          1   -1    0    0  502    0  0.00000000000E+00  0.00000000000E+00  0.22316845293E+03  0.22316845293E+03  0.00000000000E+00 0.  1.
         13   -1    0    0    0    0 -0.00000000000E+00 -0.00000000000E+00 -0.27500000000E+03  0.27500000000E+03  0.00000000000E+00 0.  1.
    9000005    2    1    2  501    0  0.19980158997E+02  0.23295768940E+02 -0.38084892260E+02  0.46454004050E+03  0.46195788835E+03 0.  0.
         13    1    3    3    0    0 -0.10410154192E+03  0.20164170652E+03 -0.84899260905E+02  0.24228989525E+03  0.00000000000E+00 0.  1.
          1    1    3    3  501    0  0.12408170092E+03 -0.17834593758E+03  0.46814368645E+02  0.22225014525E+03  0.00000000000E+00 0.  1.
         21    1    1    2  502  501 -0.19980158997E+02 -0.23295768940E+02 -0.13746654810E+02  0.33628412430E+02  0.00000000000E+00 0. -1.
<scales pt_clust_4="550.00000" pt_clust_5="550.00000" pt_clust_6="30.69040"></scales>
<mgrwt>
<rscale>  0 0.30000000E+03</rscale>
<asrwt>  1 0.30690398E+02</asrwt>
<pdfrwt beam="1">  1        1 0.81152165E+00 0.30000000E+03</pdfrwt>
<pdfrwt beam="2">0</pdfrwt>
<totfact> 0.86990945E-04</totfact>
</mgrwt>
<clustering>
<clus scale="   30.690">  1  6  2 -1</clus>
<clus scale="  461.958">  4  5 -1 -1</clus>
<clus scale="  300.000">  1  4  2 -1</clus>
</clustering>
</event>
<event>
 6    1  0.9480355E-012  0.3000000E+03  0.7818608E-02  0.1093470E+00
          1   -1    0    0  502    0  0.00000000000E+00  0.00000000000E+00  0.23970068694E+03  0.23970068694E+03  0.00000000000E+00 0.  1.
         13   -1    0    0    0    0 -0.00000000000E+00 -0.00000000000E+00 -0.27500000000E+03  0.27500000000E+03  0.00000000000E+00 0.  1.
    9000005    2    1    2  501    0 -0.91400883173E+01 -0.30880703118E+02 -0.53121251007E+02  0.47789334376E+03  0.47383860297E+03 0.  0.
         13    1    3    3    0    0 -0.13937183129E+03  0.13494252526E+03  0.99096564926E+02  0.21783966962E+03  0.00000000000E+00 0.  1.
          1    1    3    3  501    0  0.13023174297E+03 -0.16582322838E+03 -0.15221781593E+03  0.26005367414E+03  0.00000000000E+00 0.  1.
         21    1    1    2  502  501  0.91400883173E+01  0.30880703118E+02  0.17821937946E+02  0.36807343176E+02  0.00000000000E+00 0.  1.
<scales pt_clust_4="550.00000" pt_clust_5="550.00000" pt_clust_6="32.20495"></scales>
<mgrwt>
<rscale>  0 0.30000000E+03</rscale>
<asrwt>  1 0.32204954E+02</asrwt>
<pdfrwt beam="1">  1        1 0.87163886E+00 0.30000000E+03</pdfrwt>
<pdfrwt beam="2">0</pdfrwt>
<totfact> 0.24753180E-04</totfact>
</mgrwt>
<clustering>
<clus scale="   32.205">  1  6  2 -1</clus>
<clus scale="  473.839">  4  5 -1 -1</clus>
<clus scale="  300.000">  1  4  2 -1</clus>
</clustering>
</event>
<event>
 6    1  0.9480355E-012  0.3000000E+03  0.7818608E-02  0.1093470E+00
          1   -1    0    0  502    0  0.00000000000E+00  0.00000000000E+00  0.22593070887E+03  0.22593070887E+03  0.00000000000E+00 0.  1.
         13   -1    0    0    0    0 -0.00000000000E+00 -0.00000000000E+00 -0.27500000000E+03  0.27500000000E+03  0.00000000000E+00 0.  1.
    9000005    2    1    2  501    0  0.20166453214E+02 -0.25084134573E+02 -0.65128406155E+02  0.46496134944E+03  0.45925096357E+03 0.  0.
         13    1    3    3    0    0 -0.17268312378E+03 -0.66940314743E+01 -0.17191007885E+03  0.24375673633E+03  0.00000000000E+00 0.  1.
          3    1    3    3  501    0  0.19284957699E+03 -0.18390103098E+02  0.10678167270E+03  0.22120461311E+03  0.00000000000E+00 0.  1.
         21    1    1    2  502  501 -0.20166453214E+02  0.25084134573E+02  0.16059115028E+02  0.35969359433E+02  0.00000000000E+00 0.  1.
<scales pt_clust_4="550.00000" pt_clust_5="550.00000" pt_clust_6="32.18539"></scales>
<mgrwt>
<rscale>  0 0.30000000E+03</rscale>
<asrwt>  1 0.32185395E+02</asrwt>
<pdfrwt beam="1">  1        1 0.82156621E+00 0.30000000E+03</pdfrwt>
<pdfrwt beam="2">0</pdfrwt>
<totfact> 0.71199315E-04</totfact>
</mgrwt>
<clustering>
<clus scale="   32.185">  1  6  2 -1</clus>
<clus scale="  459.251">  4  5 -1 -1</clus>
<clus scale="  300.000">  1  4  2 -1</clus>
</clustering>
</event>
<event>
 6    1  0.9480355E-012  0.3000000E+03  0.7818608E-02  0.1093470E+00
          1   -1    0    0  502    0  0.00000000000E+00  0.00000000000E+00  0.25285888458E+03  0.25285888458E+03  0.00000000000E+00 0.  1.
         13   -1    0    0    0    0 -0.00000000000E+00 -0.00000000000E+00 -0.27500000000E+03  0.27500000000E+03  0.00000000000E+00 0.  1.
    9000005    2    1    2  501    0  0.45368877078E+01  0.55862933394E+02 -0.24016881524E+02  0.47178064303E+03  0.46782359267E+03 0.  0.
         13    1    3    3    0    0  0.74210751557E+02  0.35247093259E+02 -0.23483564581E+03  0.24879182819E+03  0.00000000000E+00 0.  1.
          1    1    3    3  501    0 -0.69673863849E+02  0.20615840134E+02  0.21081876429E+03  0.22298881484E+03  0.00000000000E+00 0.  1.
         21    1    1    2  502  501 -0.45368877078E+01 -0.55862933394E+02  0.18757661082E+01  0.56078241555E+02  0.00000000000E+00 0. -1.
<scales pt_clust_4="550.00000" pt_clust_5="550.00000" pt_clust_6="56.04686"></scales>
<mgrwt>
<rscale>  0 0.30000000E+03</rscale>
<asrwt>  1 0.56046861E+02</asrwt>
<pdfrwt beam="1">  1        1 0.91948685E+00 0.30000000E+03</pdfrwt>
<pdfrwt beam="2">0</pdfrwt>
<totfact> 0.39418544E-05</totfact>
</mgrwt>
<clustering>
<clus scale="   56.047">  1  6  2 -1</clus>
<clus scale="  467.824">  4  5 -1 -1</clus>
<clus scale="  300.000">  1  4  2 -1</clus>
</clustering>
</event>
<event>
 6    1  0.9480355E-012  0.3000000E+03  0.7818608E-02  0.1093470E+00
          1   -1    0    0  502    0  0.00000000000E+00  0.00000000000E+00  0.23097678166E+03  0.23097678166E+03  0.00000000000E+00 0.  1.
         13   -1    0    0    0    0 -0.00000000000E+00 -0.00000000000E+00 -0.27500000000E+03  0.27500000000E+03  0.00000000000E+00 0.  1.
    9000005    2    1    2  501    0 -0.30117939255E+01 -0.33327390354E+02 -0.43167211305E+02  0.47250263345E+03  0.46933521563E+03 0.  0.
         13    1    3    3    0    0  0.20173620957E+03 -0.81192316737E+02 -0.12031704567E+03  0.24852742711E+03  0.00000000000E+00 0.  1.
          1    1    3    3  501    0 -0.20474800349E+03  0.47864926383E+02  0.77149834364E+02  0.22397520634E+03  0.00000000000E+00 0.  1.
         21    1    1    2  502  501  0.30117939255E+01  0.33327390354E+02 -0.85600703775E+00  0.33474148212E+02  0.00000000000E+00 0.  1.
<scales pt_clust_4="550.00000" pt_clust_5="550.00000" pt_clust_6="33.46320"></scales>
<mgrwt>
<rscale>  0 0.30000000E+03</rscale>
<asrwt>  1 0.33463201E+02</asrwt>
<pdfrwt beam="1">  1        1 0.83991557E+00 0.30000000E+03</pdfrwt>
<pdfrwt beam="2">0</pdfrwt>
<totfact> 0.50199897E-04</totfact>
</mgrwt>
<clustering>
<clus scale="   33.463">  1  6  2 -1</clus>
<clus scale="  469.335">  4  5 -1 -1</clus>
<clus scale="  300.000">  1  4  2 -1</clus>
</clustering>
</event>
<event>
 6    1  0.9480355E-012  0.3000000E+03  0.7818608E-02  0.1093470E+00
          1   -1    0    0  502    0  0.00000000000E+00  0.00000000000E+00  0.24581816268E+03  0.24581816268E+03  0.00000000000E+00 0.  1.
         13   -1    0    0    0    0 -0.00000000000E+00 -0.00000000000E+00 -0.27500000000E+03  0.27500000000E+03  0.00000000000E+00 0.  1.
    9000005    2    1    2  501    0  0.18530902937E+02 -0.39137997118E+02 -0.45021638608E+02  0.47470876573E+03  0.47058079767E+03 0.  0.
         13    1    3    3    0    0  0.41069666513E+02 -0.24892067314E+03  0.22221135473E+02  0.25326270528E+03  0.00000000000E+00 0.  1.
          3    1    3    3  501    0 -0.22538763576E+02  0.20978267602E+03 -0.67242774081E+02  0.22144606045E+03  0.00000000000E+00 0.  1.
         21    1    1    2  502  501 -0.18530902937E+02  0.39137997118E+02  0.15839801284E+02  0.46109396947E+02  0.00000000000E+00 0.  1.
<scales pt_clust_4="550.00000" pt_clust_5="550.00000" pt_clust_6="43.30332"></scales>
<mgrwt>
<rscale>  0 0.30000000E+03</rscale>
<asrwt>  1 0.43303316E+02</asrwt>
<pdfrwt beam="1">  1        1 0.89388423E+00 0.30000000E+03</pdfrwt>
<pdfrwt beam="2">0</pdfrwt>
<totfact> 0.12484625E-04</totfact>
</mgrwt>
<clustering>
<clus scale="   43.303">  1  6  2 -1</clus>
<clus scale="  470.581">  4  5 -1 -1</clus>
<clus scale="  300.000">  1  4  2 -1</clus>
</clustering>
</event>
<event>
 6    1  0.9480355E-012  0.3000000E+03  0.7818608E-02  0.1093470E+00
          1   -1    0    0  502    0  0.00000000000E+00  0.00000000000E+00  0.23052478033E+03  0.23052478033E+03  0.00000000000E+00 0.  1.
         13   -1    0    0    0    0 -0.00000000000E+00 -0.00000000000E+00 -0.27500000000E+03  0.27500000000E+03  0.00000000000E+00 0.  1.
    9000005    2    1    2  501    0  0.36067556539E+02 -0.13055871367E+02 -0.51832992227E+02  0.46646762697E+03  0.46198924610E+03 0.  0.
         13    1    3    3    0    0  0.20246199410E+03  0.12316502113E+03 -0.78802785324E+02  0.24974058633E+03  0.00000000000E+00 0.  1.
          3    1    3    3  501    0 -0.16639443756E+03 -0.13622089250E+03  0.26969793097E+02  0.21672704064E+03  0.00000000000E+00 0.  1.
         21    1    1    2  502  501 -0.36067556539E+02  0.13055871367E+02  0.73577725603E+01  0.39057153364E+02  0.00000000000E+00 0.  1.
<scales pt_clust_4="550.00000" pt_clust_5="550.00000" pt_clust_6="38.35785"></scales>
<mgrwt>
<rscale>  0 0.30000000E+03</rscale>
<asrwt>  1 0.38357847E+02</asrwt>
<pdfrwt beam="1">  1        1 0.83827193E+00 0.30000000E+03</pdfrwt>
<pdfrwt beam="2">0</pdfrwt>
<totfact> 0.50347877E-04</totfact>
</mgrwt>
<clustering>
<clus scale="   38.358">  1  6  2 -1</clus>
<clus scale="  461.989">  4  5 -1 -1</clus>
<clus scale="  300.000">  1  4  2 -1</clus>
</clustering>
</event>
<event>
 6    1  0.9480355E-012  0.3000000E+03  0.7818608E-02  0.1093470E+00
          1   -1    0    0  502    0  0.00000000000E+00  0.00000000000E+00  0.25851968959E+03  0.25851968959E+03  0.00000000000E+00 0.  1.
         13   -1    0    0    0    0 -0.00000000000E+00 -0.00000000000E+00 -0.27500000000E+03  0.27500000000E+03  0.00000000000E+00 0.  1.
    9000005    2    1    2  501    0 -0.13633083425E+02 -0.32171344523E+02 -0.45761043106E+02  0.48793221676E+03  0.48452339336E+03 0.  0.
         13    1    3    3    0    0  0.17052136106E+03  0.99341747919E+02  0.97483588365E+02  0.22011217017E+03  0.00000000000E+00 0.  1.
          3    1    3    3  501    0 -0.18415444448E+03 -0.13151309244E+03 -0.14324463147E+03  0.26782004658E+03  0.00000000000E+00 0.  1.
         21    1    1    2  502  501  0.13633083425E+02  0.32171344523E+02  0.29280732692E+02  0.45587472831E+02  0.00000000000E+00 0.  1.
<scales pt_clust_4="550.00000" pt_clust_5="550.00000" pt_clust_6="34.94076"></scales>
<mgrwt>
<rscale>  0 0.30000000E+03</rscale>
<asrwt>  1 0.34940755E+02</asrwt>
<pdfrwt beam="1">  1        1 0.94007160E+00 0.30000000E+03</pdfrwt>
<pdfrwt beam="2">0</pdfrwt>
<totfact> 0.19110379E-05</totfact>
</mgrwt>
<clustering>
<clus scale="   34.941">  1  6  2 -1</clus>
<clus scale="  484.523">  4  5 -1 -1</clus>
<clus scale="  300.000">  1  4  2 -1</clus>
</clustering>
</event>
<event>
 6    1  0.9480355E-012  0.3000000E+03  0.7818608E-02  0.1093470E+00
          1   -1    0    0  502    0  0.00000000000E+00  0.00000000000E+00  0.25845245585E+03  0.25845245585E+03  0.00000000000E+00 0.  1.
         13   -1    0    0    0    0 -0.00000000000E+00 -0.00000000000E+00 -0.27500000000E+03  0.27500000000E+03  0.00000000000E+00 0.  1.
    9000005    2    1    2  501    0  0.34455571571E+02 -0.34575204820E+02 -0.50685980488E+02  0.47388682788E+03  0.46863314630E+03 0.  0.
         13    1    3    3    0    0 -0.43522230992E+01 -0.14155326983E+03 -0.22491386186E+03  0.26578659730E+03  0.00000000000E+00 0.  1.
          3    1    3    3  501    0  0.38807794670E+02  0.10697806501E+03  0.17422788137E+03  0.20810023058E+03  0.00000000000E+00 0.  1.
         21    1    1    2  502  501 -0.34455571571E+02  0.34575204820E+02  0.34138436343E+02  0.59565627979E+02  0.00000000000E+00 0.  1.
<scales pt_clust_4="550.00000" pt_clust_5="550.00000" pt_clust_6="48.81220"></scales>
<mgrwt>
<rscale>  0 0.30000000E+03</rscale>
<asrwt>  1 0.48812203E+02</asrwt>
<pdfrwt beam="1">  1        1 0.93982711E+00 0.30000000E+03</pdfrwt>
<pdfrwt beam="2">0</pdfrwt>
<totfact> 0.18156604E-05</totfact>
</mgrwt>
<clustering>
<clus scale="   48.812">  1  6  2 -1</clus>
<clus scale="  468.633">  4  5 -1 -1</clus>
<clus scale="  300.000">  1  4  2 -1</clus>
</clustering>
</event>
<event>
 6    1  0.9480355E-012  0.3000000E+03  0.7818608E-02  0.1093470E+00
          1   -1    0    0  502    0  0.00000000000E+00  0.00000000000E+00  0.23200507713E+03  0.23200507713E+03  0.00000000000E+00 0.  1.
         13   -1    0    0    0    0 -0.00000000000E+00 -0.00000000000E+00 -0.27500000000E+03  0.27500000000E+03  0.00000000000E+00 0.  1.
    9000005    2    1    2  501    0 -0.29579477937E+02 -0.12227566218E+02 -0.41549309114E+02  0.47496527861E+03  0.47206060194E+03 0.  0.
         13    1    3    3    0    0 -0.30056221197E+02  0.22923224601E+03 -0.95229760112E+01  0.23139033281E+03  0.00000000000E+00 0.  1.
          1    1    3    3  501    0  0.47674326060E+00 -0.24145981223E+03 -0.32026333102E+02  0.24357494580E+03  0.00000000000E+00 0.  1.
         21    1    1    2  502  501  0.29579477937E+02  0.12227566218E+02 -0.14456137520E+01  0.32039798528E+02  0.00000000000E+00 0.  1.
<scales pt_clust_4="550.00000" pt_clust_5="550.00000" pt_clust_6="32.00717"></scales>
<mgrwt>
<rscale>  0 0.30000000E+03</rscale>
<asrwt>  1 0.32007169E+02</asrwt>
<pdfrwt beam="1">  1        1 0.84365483E+00 0.30000000E+03</pdfrwt>
<pdfrwt beam="2">0</pdfrwt>
<totfact> 0.47196245E-04</totfact>
</mgrwt>
<clustering>
<clus scale="   32.007">  1  6  2 -1</clus>
<clus scale="  472.061">  4  5 -1 -1</clus>
<clus scale="  300.000">  1  4  2 -1</clus>
</clustering>
</event>
<event>
 6    1  0.9480355E-012  0.3000000E+03  0.7818608E-02  0.1093470E+00
          1   -1    0    0  502    0  0.00000000000E+00  0.00000000000E+00  0.24733428446E+03  0.24733428446E+03  0.00000000000E+00 0.  1.
         13   -1    0    0    0    0 -0.00000000000E+00 -0.00000000000E+00 -0.27500000000E+03  0.27500000000E+03  0.00000000000E+00 0.  1.
    9000005    2    1    2  501    0  0.38339833157E+02 -0.65822887290E+01 -0.36827660578E+02  0.48236916757E+03  0.47938551074E+03 0.  0.
         13    1    3    3    0    0 -0.18627092605E+03 -0.47386857621E+02 -0.13395575451E+03  0.23427871506E+03  0.00000000000E+00 0.  1.
          3    1    3    3  501    0  0.22461075921E+03  0.40804568892E+02  0.97128093929E+02  0.24809045250E+03  0.00000000000E+00 0.  1.
         21    1    1    2  502  501 -0.38339833157E+02  0.65822887290E+01  0.91619450394E+01  0.39965116893E+02  0.00000000000E+00 0. -1.
<scales pt_clust_4="550.00000" pt_clust_5="550.00000" pt_clust_6="38.90076"></scales>
<mgrwt>
<rscale>  0 0.30000000E+03</rscale>
<asrwt>  1 0.38900763E+02</asrwt>
<pdfrwt beam="1">  1        1 0.89939740E+00 0.30000000E+03</pdfrwt>
<pdfrwt beam="2">0</pdfrwt>
<totfact> 0.11017210E-04</totfact>
</mgrwt>
<clustering>
<clus scale="   38.901">  1  6  2 -1</clus>
<clus scale="  479.386">  4  5 -1 -1</clus>
<clus scale="  300.000">  1  4  2 -1</clus>
</clustering>
</event>
<event>
 6    1  0.9480355E-012  0.3000000E+03  0.7818608E-02  0.1093470E+00
          1   -1    0    0  502    0  0.00000000000E+00  0.00000000000E+00  0.25446873465E+03  0.25446873465E+03  0.00000000000E+00 0.  1.
         13   -1    0    0    0    0 -0.00000000000E+00 -0.00000000000E+00 -0.27500000000E+03  0.27500000000E+03  0.00000000000E+00 0.  1.
    9000005    2    1    2  501    0  0.28634653801E+02 -0.43234208775E+02 -0.48937170479E+02  0.47034145116E+03  0.46490546761E+03 0.  0.
         13    1    3    3    0    0  0.20060610756E+03 -0.11063970169E+03 -0.13570172914E+03  0.26626849846E+03  0.00000000000E+00 0.  1.
          3    1    3    3  501    0 -0.17197145376E+03  0.67405492917E+02  0.86764558661E+02  0.20407295270E+03  0.00000000000E+00 0.  1.
         21    1    1    2  502  501 -0.28634653801E+02  0.43234208775E+02  0.28405905126E+02  0.59127283489E+02  0.00000000000E+00 0.  1.
<scales pt_clust_4="550.00000" pt_clust_5="550.00000" pt_clust_6="51.85692"></scales>
<mgrwt>
<rscale>  0 0.30000000E+03</rscale>
<asrwt>  1 0.51856921E+02</asrwt>
<pdfrwt beam="1">  1        1 0.92534085E+00 0.30000000E+03</pdfrwt>
<pdfrwt beam="2">0</pdfrwt>
<totfact> 0.30057588E-05</totfact>
</mgrwt>
<clustering>
<clus scale="   51.857">  1  6  2 -1</clus>
<clus scale="  464.905">  4  5 -1 -1</clus>
<clus scale="  300.000">  1  4  2 -1</clus>
</clustering>
</event>
<event>
 6    1  0.9480355E-012  0.3000000E+03  0.7818608E-02  0.1093470E+00
          1   -1    0    0  502    0  0.00000000000E+00  0.00000000000E+00  0.22200705952E+03  0.22200705952E+03  0.00000000000E+00 0.  1.
         13   -1    0    0    0    0 -0.00000000000E+00 -0.00000000000E+00 -0.27500000000E+03  0.27500000000E+03  0.00000000000E+00 0.  1.
    9000005    2    1    2  501    0 -0.31478617532E+02 -0.65130868752E+01 -0.50201413566E+02  0.46474072591E+03  0.46090176473E+03 0.  0.
         13    1    3    3    0    0  0.76620065300E+02  0.77873366101E+02 -0.22050641954E+03  0.24608530353E+03  0.00000000000E+00 0.  1.
          1    1    3    3  501    0 -0.10809868283E+03 -0.84386452977E+02  0.17030500597E+03  0.21865542238E+03  0.00000000000E+00 0.  1.
         21    1    1    2  502  501  0.31478617532E+02  0.65130868752E+01 -0.27915269110E+01  0.32266333614E+02  0.00000000000E+00 0. -1.
<scales pt_clust_4="550.00000" pt_clust_5="550.00000" pt_clust_6="32.14535"></scales>
<mgrwt>
<rscale>  0 0.30000000E+03</rscale>
<asrwt>  1 0.32145352E+02</asrwt>
<pdfrwt beam="1">  1        1 0.80729840E+00 0.30000000E+03</pdfrwt>
<pdfrwt beam="2">0</pdfrwt>
<totfact> 0.92996093E-04</totfact>
</mgrwt>
<clustering>
<clus scale="   32.145">  1  6  2 -1</clus>
<clus scale="  460.902">  4  5 -1 -1</clus>
<clus scale="  300.000">  1  4  2 -1</clus>
</clustering>
</event>
<event>
 6    1  0.9480355E-012  0.3000000E+03  0.7818608E-02  0.1093470E+00
          1   -1    0    0  502    0  0.00000000000E+00  0.00000000000E+00  0.24060548217E+03  0.24060548217E+03  0.00000000000E+00 0.  1.
         13   -1    0    0    0    0 -0.00000000000E+00 -0.00000000000E+00 -0.27500000000E+03  0.27500000000E+03  0.00000000000E+00 0.  1.
    9000005    2    1    2  501    0 -0.23893479374E+02 -0.29274178645E+02 -0.61582905041E+02  0.46905352957E+03  0.46345537381E+03 0.  0.
         13    1    3    3    0    0 -0.16099975760E+03  0.13439078836E+03  0.66582299159E+02  0.22003410759E+03  0.00000000000E+00 0.  1.
          3    1    3    3  501    0  0.13710627823E+03 -0.16366496700E+03 -0.12816520420E+03  0.24901942198E+03  0.00000000000E+00 0.  1.
         21    1    1    2  502  501  0.23893479374E+02  0.29274178645E+02  0.27188387215E+02  0.46551952605E+02  0.00000000000E+00 0. -1.
<scales pt_clust_4="550.00000" pt_clust_5="550.00000" pt_clust_6="37.78725"></scales>
<mgrwt>
<rscale>  0 0.30000000E+03</rscale>
<asrwt>  1 0.37787245E+02</asrwt>
<pdfrwt beam="1">  1        1 0.87492903E+00 0.30000000E+03</pdfrwt>
<pdfrwt beam="2">0</pdfrwt>
<totfact> 0.22213197E-04</totfact>
</mgrwt>
<clustering>
<clus scale="   37.787">  1  6  2 -1</clus>
<clus scale="  463.455">  4  5 -1 -1</clus>
<clus scale="  300.000">  1  4  2 -1</clus>
</clustering>
</event>
<event>
 6    1  0.9480355E-012  0.3000000E+03  0.7818608E-02  0.1093470E+00
          1   -1    0    0  502    0  0.00000000000E+00  0.00000000000E+00  0.22325239338E+03  0.22325239338E+03  0.00000000000E+00 0.  1.
         13   -1    0    0    0    0 -0.00000000000E+00 -0.00000000000E+00 -0.27500000000E+03  0.27500000000E+03  0.00000000000E+00 0.  1.
    9000005    2    1    2  501    0 -0.22958111225E+01  0.33928812602E+02 -0.58149896350E+02  0.46364857297E+03  0.45872884550E+03 0.  0.
         13    1    3    3    0    0  0.11782450129E+03 -0.10940923458E+03  0.12364629328E+03  0.20283342811E+03  0.00000000000E+00 0.  1.
          1    1    3    3  501    0 -0.12012031241E+03  0.14333804719E+03 -0.18179618963E+03  0.26081514486E+03  0.00000000000E+00 0.  1.
         21    1    1    2  502  501  0.22958111225E+01 -0.33928812602E+02  0.64022897318E+01  0.34603820412E+02  0.00000000000E+00 0. -1.
<scales pt_clust_4="550.00000" pt_clust_5="550.00000" pt_clust_6="34.00640"></scales>
<mgrwt>
<rscale>  0 0.30000000E+03</rscale>
<asrwt>  1 0.34006398E+02</asrwt>
<pdfrwt beam="1">  1        1 0.81182689E+00 0.30000000E+03</pdfrwt>
<pdfrwt beam="2">0</pdfrwt>
<totfact> 0.84841557E-04</totfact>
</mgrwt>
<clustering>
<clus scale="   34.006">  1  6  2 -1</clus>
<clus scale="  458.729">  4  5 -1 -1</clus>
<clus scale="  300.000">  1  4  2 -1</clus>
</clustering>
</event>
<event>
 6    1  0.9480355E-012  0.3000000E+03  0.7818608E-02  0.1093470E+00
          1   -1    0    0  502    0  0.00000000000E+00  0.00000000000E+00  0.23638147298E+03  0.23638147298E+03  0.00000000000E+00 0.  1.
         13   -1    0    0    0    0 -0.00000000000E+00 -0.00000000000E+00 -0.27500000000E+03  0.27500000000E+03  0.00000000000E+00 0.  1.
    9000005    2    1    2  501    0  0.28787847200E+02 -0.87534042808E+01 -0.49892253329E+02  0.47924957080E+03  0.47569480966E+03 0.  0.
         13    1    3    3    0    0 -0.12777016585E+03 -0.57501587348E+02  0.16014518965E+03  0.21278658227E+03  0.00000000000E+00 0.  1.
          3    1    3    3  501    0  0.15655801305E+03  0.48748183067E+02 -0.21003744298E+03  0.26646298853E+03  0.00000000000E+00 0.  1.
         21    1    1    2  502  501 -0.28787847200E+02  0.87534042808E+01  0.11273726309E+02  0.32131902181E+02  0.00000000000E+00 0. -1.
<scales pt_clust_4="550.00000" pt_clust_5="550.00000" pt_clust_6="30.08924"></scales>
<mgrwt>
<rscale>  0 0.30000000E+03</rscale>
<asrwt>  1 0.30089238E+02</asrwt>
<pdfrwt beam="1">  1        1 0.85956899E+00 0.30000000E+03</pdfrwt>
<pdfrwt beam="2">0</pdfrwt>
<totfact> 0.33641202E-04</totfact>
</mgrwt>
<clustering>
<clus scale="   30.089">  1  6  2 -1</clus>
<clus scale="  475.695">  4  5 -1 -1</clus>
<clus scale="  300.000">  1  4  2 -1</clus>
</clustering>
</event>
<event>
 6    1  0.9480355E-012  0.3000000E+03  0.7818608E-02  0.1093470E+00
          1   -1    0    0  502    0  0.00000000000E+00  0.00000000000E+00  0.23012219339E+03  0.23012219339E+03  0.00000000000E+00 0.  1.
         13   -1    0    0    0    0 -0.00000000000E+00 -0.00000000000E+00 -0.27500000000E+03  0.27500000000E+03  0.00000000000E+00 0.  1.
    9000005    2    1    2  501    0 -0.22166812898E+00 -0.32438374154E+02 -0.52374611162E+02  0.47182805977E+03  0.46778875664E+03 0.  0.
         13    1    3    3    0    0 -0.16053709839E+03 -0.12822582083E+03 -0.15625640309E+03  0.25812803915E+03  0.00000000000E+00 0.  1.
          3    1    3    3  501    0  0.16031543026E+03  0.95787446677E+02  0.10388179193E+03  0.21370002063E+03  0.00000000000E+00 0.  1.
         21    1    1    2  502  501  0.22166812898E+00  0.32438374154E+02  0.74968045479E+01  0.33294133612E+02  0.00000000000E+00 0. -1.
<scales pt_clust_4="550.00000" pt_clust_5="550.00000" pt_clust_6="32.43913"></scales>
<mgrwt>
<rscale>  0 0.30000000E+03</rscale>
<asrwt>  1 0.32439132E+02</asrwt>
<pdfrwt beam="1">  1        1 0.83680798E+00 0.30000000E+03</pdfrwt>
<pdfrwt beam="2">0</pdfrwt>
<totfact> 0.53243823E-04</totfact>
</mgrwt>
<clustering>
<clus scale="   32.439">  1  6  2 -1</clus>
<clus scale="  467.789">  4  5 -1 -1</clus>
<clus scale="  300.000">  1  4  2 -1</clus>
</clustering>
</event>
<event>
 6    1  0.9480355E-012  0.3000000E+03  0.7818608E-02  0.1093470E+00
          1   -1    0    0  502    0  0.00000000000E+00  0.00000000000E+00  0.25425771663E+03  0.25425771663E+03  0.00000000000E+00 0.  1.
         13   -1    0    0    0    0 -0.00000000000E+00 -0.00000000000E+00 -0.27500000000E+03  0.27500000000E+03  0.00000000000E+00 0.  1.
    9000005    2    1    2  501    0 -0.27726601600E+02  0.14789590109E+02 -0.84473958334E+01  0.49551367017E+03  0.49444407410E+03 0.  0.
         13    1    3    3    0    0  0.21731012315E+03 -0.69763000961E+02  0.40275281966E+02  0.23175992808E+03  0.00000000000E+00 0.  1.
          3    1    3    3  501    0 -0.24503672475E+03  0.84552591070E+02 -0.48722677799E+02  0.26375374209E+03  0.00000000000E+00 0.  1.
         21    1    1    2  502  501  0.27726601600E+02 -0.14789590109E+02 -0.12294887539E+02  0.33744046460E+02  0.00000000000E+00 0. -1.
<scales pt_clust_4="550.00000" pt_clust_5="550.00000" pt_clust_6="31.42447"></scales>
<mgrwt>
<rscale>  0 0.30000000E+03</rscale>
<asrwt>  1 0.31424471E+02</asrwt>
<pdfrwt beam="1">  1        1 0.92457352E+00 0.30000000E+03</pdfrwt>
<pdfrwt beam="2">0</pdfrwt>
<totfact> 0.34154345E-05</totfact>
</mgrwt>
<clustering>
<clus scale="   31.424">  1  6  2 -1</clus>
<clus scale="  494.444">  4  5 -1 -1</clus>
<clus scale="  300.000">  1  4  2 -1</clus>
</clustering>
</event>
<event>
 6    1  0.9480355E-012  0.3000000E+03  0.7818608E-02  0.1093470E+00
          1   -1    0    0  502    0  0.00000000000E+00  0.00000000000E+00  0.23472261655E+03  0.23472261655E+03  0.00000000000E+00 0.  1.
         13   -1    0    0    0    0 -0.00000000000E+00 -0.00000000000E+00 -0.27500000000E+03  0.27500000000E+03  0.00000000000E+00 0.  1.
    9000005    2    1    2  501    0 -0.13636604968E+02  0.30487063090E+02 -0.60487558507E+02  0.47068584944E+03  0.46558673318E+03 0.  0.
         13    1    3    3    0    0  0.20293686244E+03  0.58184809563E+01 -0.13097033468E+03  0.24159977944E+03  0.00000000000E+00 0.  1.
          3    1    3    3  501    0 -0.21657346741E+03  0.24668582134E+02  0.70482776176E+02  0.22908607000E+03  0.00000000000E+00 0.  1.
         21    1    1    2  502  501  0.13636604968E+02 -0.30487063090E+02  0.20210175061E+02  0.39036767117E+02  0.00000000000E+00 0. -1.
<scales pt_clust_4="550.00000" pt_clust_5="550.00000" pt_clust_6="33.39787"></scales>
<mgrwt>
<rscale>  0 0.30000000E+03</rscale>
<asrwt>  1 0.33397874E+02</asrwt>
<pdfrwt beam="1">  1        1 0.85353679E+00 0.30000000E+03</pdfrwt>
<pdfrwt beam="2">0</pdfrwt>
<totfact> 0.37986824E-04</totfact>
</mgrwt>
<clustering>
<clus scale="   33.398">  1  6  2 -1</clus>
<clus scale="  465.587">  4  5 -1 -1</clus>
<clus scale="  300.000">  1  4  2 -1</clus>
</clustering>
</event>
<event>
 6    1  0.9480355E-012  0.3000000E+03  0.7818608E-02  0.1093470E+00
          1   -1    0    0  502    0  0.00000000000E+00  0.00000000000E+00  0.23297310513E+03  0.23297310513E+03  0.00000000000E+00 0.  1.
         13   -1    0    0    0    0 -0.00000000000E+00 -0.00000000000E+00 -0.27500000000E+03  0.27500000000E+03  0.00000000000E+00 0.  1.
    9000005    2    1    2  501    0 -0.26304558866E+02 -0.22230154194E+02 -0.34117781039E+02  0.47263666990E+03  0.47014390263E+03 0.  0.
         13    1    3    3    0    0 -0.22008464567E+03 -0.57430447798E+02 -0.12069841342E+03  0.25749488266E+03  0.00000000000E+00 0.  1.
          3    1    3    3  501    0  0.19378008681E+03  0.35200293604E+02  0.86580632385E+02  0.21514178724E+03  0.00000000000E+00 0.  1.
         21    1    1    2  502  501  0.26304558866E+02  0.22230154194E+02 -0.79091138336E+01  0.35336435223E+02  0.00000000000E+00 0. -1.
<scales pt_clust_4="550.00000" pt_clust_5="550.00000" pt_clust_6="34.43996"></scales>
<mgrwt>
<rscale>  0 0.30000000E+03</rscale>
<asrwt>  1 0.34439959E+02</asrwt>
<pdfrwt beam="1">  1        1 0.84717493E+00 0.30000000E+03</pdfrwt>
<pdfrwt beam="2">0</pdfrwt>
<totfact> 0.43344953E-04</totfact>
</mgrwt>
<clustering>
<clus scale="   34.440">  1  6  2 -1</clus>
<clus scale="  470.144">  4  5 -1 -1</clus>
<clus scale="  300.000">  1  4  2 -1</clus>
</clustering>
</event>
<event>
 6    1  0.9480355E-012  0.3000000E+03  0.7818608E-02  0.1093470E+00
          1   -1    0    0  502    0  0.00000000000E+00  0.00000000000E+00  0.25090939127E+03  0.25090939127E+03  0.00000000000E+00 0.  1.
         13   -1    0    0    0    0 -0.00000000000E+00 -0.00000000000E+00 -0.27500000000E+03  0.27500000000E+03  0.00000000000E+00 0.  1.
    9000005    2    1    2  501    0 -0.37086614872E+02 -0.36847123575E+01 -0.51797643973E+02  0.47946938794E+03  0.47520406558E+03 0.  0.
         13    1    3    3    0    0  0.53381899927E+02  0.14025516713E+03 -0.20266009228E+03  0.25217504268E+03  0.00000000000E+00 0.  1.
          1    1    3    3  501    0 -0.90468514799E+02 -0.14393987949E+03  0.15086244831E+03  0.22729434526E+03  0.00000000000E+00 0.  1.
         21    1    1    2  502  501  0.37086614872E+02  0.36847123575E+01  0.27707035248E+02  0.46440003338E+02  0.00000000000E+00 0. -1.
<scales pt_clust_4="550.00000" pt_clust_5="550.00000" pt_clust_6="37.26921"></scales>
<mgrwt>
<rscale>  0 0.30000000E+03</rscale>
<asrwt>  1 0.37269211E+02</asrwt>
<pdfrwt beam="1">  1        1 0.91239779E+00 0.30000000E+03</pdfrwt>
<pdfrwt beam="2">0</pdfrwt>
<totfact> 0.61926534E-05</totfact>
</mgrwt>
<clustering>
<clus scale="   37.269">  1  6  2 -1</clus>
<clus scale="  475.204">  4  5 -1 -1</clus>
<clus scale="  300.000">  1  4  2 -1</clus>
</clustering>
</event>
<event>
 6    1  0.9480355E-012  0.3000000E+03  0.7818608E-02  0.1093470E+00
          1   -1    0    0  502    0  0.00000000000E+00  0.00000000000E+00  0.23276586506E+03  0.23276586506E+03  0.00000000000E+00 0.  1.
         13   -1    0    0    0    0 -0.00000000000E+00 -0.00000000000E+00 -0.27500000000E+03  0.27500000000E+03  0.00000000000E+00 0.  1.
    9000005    2    1    2  501    0 -0.14914332087E+02 -0.26286382504E+02 -0.48893532638E+02  0.47681818689E+03  0.47334088626E+03 0.  0.
         13    1    3    3    0    0 -0.58155296132E+02 -0.17278530682E+03  0.14289379107E+03  0.23163643118E+03  0.00000000000E+00 0.  1.
          3    1    3    3  501    0  0.43240964045E+02  0.14649892432E+03 -0.19178732371E+03  0.24518175571E+03  0.00000000000E+00 0.  1.
         21    1    1    2  502  501  0.14914332087E+02  0.26286382504E+02  0.66593977031E+01  0.30947678177E+02  0.00000000000E+00 0.  1.
<scales pt_clust_4="550.00000" pt_clust_5="550.00000" pt_clust_6="30.22269"></scales>
<mgrwt>
<rscale>  0 0.30000000E+03</rscale>
<asrwt>  1 0.30222694E+02</asrwt>
<pdfrwt beam="1">  1        1 0.84642133E+00 0.30000000E+03</pdfrwt>
<pdfrwt beam="2">0</pdfrwt>
<totfact> 0.45132605E-04</totfact>
</mgrwt>
<clustering>
<clus scale="   30.223">  1  6  2 -1</clus>
<clus scale="  473.341">  4  5 -1 -1</clus>
<clus scale="  300.000">  1  4  2 -1</clus>
</clustering>
</event>
<event>
 6    1  0.9480355E-012  0.3000000E+03  0.7818608E-02  0.1093470E+00
          1   -1    0    0  502    0  0.00000000000E+00  0.00000000000E+00  0.23009447715E+03  0.23009447715E+03  0.00000000000E+00 0.  1.
         13   -1    0    0    0    0 -0.00000000000E+00 -0.00000000000E+00 -0.27500000000E+03  0.27500000000E+03  0.00000000000E+00 0.  1.
    9000005    2    1    2  501    0 -0.27397339079E+02  0.20210875854E+02 -0.42971534739E+02  0.47099412522E+03  0.46779249620E+03 0.  0.
         13    1    3    3    0    0 -0.16053898854E+03 -0.15838838936E+03  0.47653019593E+02  0.23050045336E+03  0.00000000000E+00 0.  1.
          3    1    3    3  501    0  0.13314164946E+03  0.17859926521E+03 -0.90624554333E+02  0.24049367186E+03  0.00000000000E+00 0.  1.
         21    1    1    2  502  501  0.27397339079E+02 -0.20210875854E+02 -0.19339881157E+01  0.34100351925E+02  0.00000000000E+00 0.  1.
<scales pt_clust_4="550.00000" pt_clust_5="550.00000" pt_clust_6="34.04547"></scales>
<mgrwt>
<rscale>  0 0.30000000E+03</rscale>
<asrwt>  1 0.34045465E+02</asrwt>
<pdfrwt beam="1">  1        1 0.83670719E+00 0.30000000E+03</pdfrwt>
<pdfrwt beam="2">0</pdfrwt>
<totfact> 0.52849106E-04</totfact>
</mgrwt>
<clustering>
<clus scale="   34.045">  1  6  2 -1</clus>
<clus scale="  467.792">  4  5 -1 -1</clus>
<clus scale="  300.000">  1  4  2 -1</clus>
</clustering>
</event>
<event>
 6    1  0.9480355E-012  0.3000000E+03  0.7818608E-02  0.1093470E+00
          1   -1    0    0  502    0  0.00000000000E+00  0.00000000000E+00  0.24014029618E+03  0.24014029618E+03  0.00000000000E+00 0.  1.
         13   -1    0    0    0    0 -0.00000000000E+00 -0.00000000000E+00 -0.27500000000E+03  0.27500000000E+03  0.00000000000E+00 0.  1.
    9000005    2    1    2  501    0  0.38202512169E+02 -0.66074582135E+01 -0.63493575299E+02  0.46694289961E+03  0.46097846691E+03 0.  0.
         13    1    3    3    0    0  0.22623791636E+03  0.44517745746E+02 -0.12541753167E+03  0.26247853576E+03  0.00000000000E+00 0.  1.
          3    1    3    3  501    0 -0.18803540419E+03 -0.51125203960E+02  0.61923956373E+02  0.20446436385E+03  0.00000000000E+00 0.  1.
         21    1    1    2  502  501 -0.38202512169E+02  0.66074582135E+01  0.28633871477E+02  0.48197396567E+02  0.00000000000E+00 0.  1.
<scales pt_clust_4="550.00000" pt_clust_5="550.00000" pt_clust_6="38.76971"></scales>
<mgrwt>
<rscale>  0 0.30000000E+03</rscale>
<asrwt>  1 0.38769710E+02</asrwt>
<pdfrwt beam="1">  1        1 0.87323744E+00 0.30000000E+03</pdfrwt>
<pdfrwt beam="2">0</pdfrwt>
<totfact> 0.23024893E-04</totfact>
</mgrwt>
<clustering>
<clus scale="   38.770">  1  6  2 -1</clus>
<clus scale="  460.978">  4  5 -1 -1</clus>
<clus scale="  300.000">  1  4  2 -1</clus>
</clustering>
</event>
<event>
 6    1  0.9480355E-012  0.3000000E+03  0.7818608E-02  0.1093470E+00
          1   -1    0    0  502    0  0.00000000000E+00  0.00000000000E+00  0.22963266765E+03  0.22963266765E+03  0.00000000000E+00 0.  1.
         13   -1    0    0    0    0 -0.00000000000E+00 -0.00000000000E+00 -0.27500000000E+03  0.27500000000E+03  0.00000000000E+00 0.  1.
    9000005    2    1    2  501    0  0.34830335797E+02  0.22484833251E+02 -0.36303420998E+02  0.46219595586E+03  0.45889916455E+03 0.  0.
         13    1    3    3    0    0  0.23011426766E+03 -0.66903037021E+02  0.19077776565E+02  0.24040081967E+03  0.00000000000E+00 0.  1.
          3    1    3    3  501    0 -0.19528393186E+03  0.89387870272E+02 -0.55381197562E+02  0.22179513619E+03  0.00000000000E+00 0.  1.
         21    1    1    2  502  501 -0.34830335797E+02 -0.22484833251E+02 -0.90639113536E+01  0.42436711785E+02  0.00000000000E+00 0.  1.
<scales pt_clust_4="550.00000" pt_clust_5="550.00000" pt_clust_6="41.45747"></scales>
<mgrwt>
<rscale>  0 0.30000000E+03</rscale>
<asrwt>  1 0.41457469E+02</asrwt>
<pdfrwt beam="1">  1        1 0.83502788E+00 0.30000000E+03</pdfrwt>
<pdfrwt beam="2">0</pdfrwt>
<totfact> 0.52413748E-04</totfact>
</mgrwt>
<clustering>
<clus scale="   41.457">  1  6  2 -1</clus>
<clus scale="  458.899">  4  5 -1 -1</clus>
<clus scale="  300.000">  1  4  2 -1</clus>
</clustering>
</event>
<event>
 6    1  0.9480355E-012  0.3000000E+03  0.7818608E-02  0.1093470E+00
          1   -1    0    0  502    0  0.00000000000E+00  0.00000000000E+00  0.22999663018E+03  0.22999663018E+03  0.00000000000E+00 0.  1.
         13   -1    0    0    0    0 -0.00000000000E+00 -0.00000000000E+00 -0.27500000000E+03  0.27500000000E+03  0.00000000000E+00 0.  1.
    9000005    2    1    2  501    0  0.26068859824E+02 -0.15023320250E+02 -0.38387392170E+02  0.47418986527E+03  0.47167483592E+03 0.  0.
         13    1    3    3    0    0 -0.71022662497E+02  0.21300858080E+03 -0.26028487562E+02  0.22604060752E+03  0.00000000000E+00 0.  1.
          1    1    3    3  501    0  0.97091522321E+02 -0.22803190105E+03 -0.12358904608E+02  0.24814925776E+03  0.00000000000E+00 0.  1.
         21    1    1    2  502  501 -0.26068859824E+02  0.15023320250E+02 -0.66159776503E+01  0.30806764909E+02  0.00000000000E+00 0.  1.
<scales pt_clust_4="550.00000" pt_clust_5="550.00000" pt_clust_6="30.08798"></scales>
<mgrwt>
<rscale>  0 0.30000000E+03</rscale>
<asrwt>  1 0.30087979E+02</asrwt>
<pdfrwt beam="1">  1        1 0.83635138E+00 0.30000000E+03</pdfrwt>
<pdfrwt beam="2">0</pdfrwt>
<totfact> 0.54428660E-04</totfact>
</mgrwt>
<clustering>
<clus scale="   30.088">  1  6  2 -1</clus>
<clus scale="  471.675">  4  5 -1 -1</clus>
<clus scale="  300.000">  1  4  2 -1</clus>
</clustering>
</event>
<event>
 6    1  0.9480355E-012  0.3000000E+03  0.7818608E-02  0.1093470E+00
          1   -1    0    0  502    0  0.00000000000E+00  0.00000000000E+00  0.25130628620E+03  0.25130628620E+03  0.00000000000E+00 0.  1.
         13   -1    0    0    0    0 -0.00000000000E+00 -0.00000000000E+00 -0.27500000000E+03  0.27500000000E+03  0.00000000000E+00 0.  1.
    9000005    2    1    2  501    0  0.12576008361E+02 -0.31152691880E+02 -0.60102602480E+02  0.47676586460E+03  0.47176765534E+03 0.  0.
         13    1    3    3    0    0  0.15865788495E+03  0.10250248141E+03 -0.16667104382E+03  0.25190934878E+03  0.00000000000E+00 0.  1.
          1    1    3    3  501    0 -0.14608187659E+03 -0.13365517329E+03  0.10656844134E+03  0.22485651582E+03  0.00000000000E+00 0.  1.
         21    1    1    2  502  501 -0.12576008361E+02  0.31152691880E+02  0.36408888676E+02  0.49540421600E+02  0.00000000000E+00 0.  1.
<scales pt_clust_4="550.00000" pt_clust_5="550.00000" pt_clust_6="33.59533"></scales>
<mgrwt>
<rscale>  0 0.30000000E+03</rscale>
<asrwt>  1 0.33595330E+02</asrwt>
<pdfrwt beam="1">  1        1 0.91384104E+00 0.30000000E+03</pdfrwt>
<pdfrwt beam="2">0</pdfrwt>
<totfact> 0.58143745E-05</totfact>
</mgrwt>
<clustering>
<clus scale="   33.595">  1  6  2 -1</clus>
<clus scale="  471.768">  4  5 -1 -1</clus>
<clus scale="  300.000">  1  4  2 -1</clus>
</clustering>
</event>
<event>
 6    1  0.9480355E-012  0.3000000E+03  0.7818608E-02  0.1093470E+00
          1   -1    0    0  502    0  0.00000000000E+00  0.00000000000E+00  0.24229782054E+03  0.24229782054E+03  0.00000000000E+00 0.  1.
         13   -1    0    0    0    0 -0.00000000000E+00 -0.00000000000E+00 -0.27500000000E+03  0.27500000000E+03  0.00000000000E+00 0.  1.
    9000005    2    1    2  501    0 -0.17599694570E+02  0.43023518857E+02 -0.39862162581E+02  0.47026551482E+03  0.46626161111E+03 0.  0.
         13    1    3    3    0    0  0.65466948892E+02  0.24120303579E+03 -0.51051190633E+02  0.25509027801E+03  0.00000000000E+00 0.  1.
          1    1    3    3  501    0 -0.83066643462E+02 -0.19817951693E+03  0.11189028051E+02  0.21517523681E+03  0.00000000000E+00 0.  1.
         21    1    1    2  502  501  0.17599694570E+02 -0.43023518857E+02  0.71599831249E+01  0.47032305728E+02  0.00000000000E+00 0.  1.
<scales pt_clust_4="550.00000" pt_clust_5="550.00000" pt_clust_6="46.48411"></scales>
<mgrwt>
<rscale>  0 0.30000000E+03</rscale>
<asrwt>  1 0.46484109E+02</asrwt>
<pdfrwt beam="1">  1        1 0.88108298E+00 0.30000000E+03</pdfrwt>
<pdfrwt beam="2">0</pdfrwt>
<totfact> 0.18166411E-04</totfact>
</mgrwt>
<clustering>
<clus scale="   46.484">  1  6  2 -1</clus>
<clus scale="  466.262">  4  5 -1 -1</clus>
<clus scale="  300.000">  1  4  2 -1</clus>
</clustering>
</event>
<event>
 6    1  0.9480355E-012  0.3000000E+03  0.7818608E-02  0.1093470E+00
          1   -1    0    0  502    0  0.00000000000E+00  0.00000000000E+00  0.23886215071E+03  0.23886215071E+03  0.00000000000E+00 0.  1.
         13   -1    0    0    0    0 -0.00000000000E+00 -0.00000000000E+00 -0.27500000000E+03  0.27500000000E+03  0.00000000000E+00 0.  1.
    9000005    2    1    2  501    0 -0.33589914540E+02 -0.95455089750E+01 -0.51061369602E+02  0.47588701992E+03  0.47184933311E+03 0.  0.
         13    1    3    3    0    0 -0.19382386579E+03  0.13447857718E+03  0.44718629997E+02  0.24010817258E+03  0.00000000000E+00 0.  1.
          1    1    3    3  501    0  0.16023395125E+03 -0.14402408616E+03 -0.95779999599E+02  0.23577884733E+03  0.00000000000E+00 0.  1.
         21    1    1    2  502  501  0.33589914540E+02  0.95455089750E+01  0.14923520314E+02  0.37975130796E+02  0.00000000000E+00 0.  1.
<scales pt_clust_4="550.00000" pt_clust_5="550.00000" pt_clust_6="34.91990"></scales>
<mgrwt>
<rscale>  0 0.30000000E+03</rscale>
<asrwt>  1 0.34919895E+02</asrwt>
<pdfrwt beam="1">  1        1 0.86858964E+00 0.30000000E+03</pdfrwt>
<pdfrwt beam="2">0</pdfrwt>
<totfact> 0.26195302E-04</totfact>
</mgrwt>
<clustering>
<clus scale="   34.920">  1  6  2 -1</clus>
<clus scale="  471.849">  4  5 -1 -1</clus>
<clus scale="  300.000">  1  4  2 -1</clus>
</clustering>
</event>
<event>
 6    1  0.9480355E-012  0.3000000E+03  0.7818608E-02  0.1093470E+00
          1   -1    0    0  502    0  0.00000000000E+00  0.00000000000E+00  0.21907482490E+03  0.21907482490E+03  0.00000000000E+00 0.  1.
         13   -1    0    0    0    0 -0.00000000000E+00 -0.00000000000E+00 -0.27500000000E+03  0.27500000000E+03  0.00000000000E+00 0.  1.
    9000005    2    1    2  501    0  0.71387820349E+01  0.29710506453E+02 -0.43601617586E+02  0.46112719262E+03  0.45804313150E+03 0.  0.
         13    1    3    3    0    0 -0.20157990112E+03 -0.59681277163E+02 -0.91161946355E+02  0.22914364892E+03  0.00000000000E+00 0.  1.
          3    1    3    3  501    0  0.20871868315E+03  0.89391783616E+02  0.47560328769E+02  0.23198354370E+03  0.00000000000E+00 0.  1.
         21    1    1    2  502  501 -0.71387820349E+01 -0.29710506453E+02 -0.12323557517E+02  0.32947632275E+02  0.00000000000E+00 0.  1.
<scales pt_clust_4="550.00000" pt_clust_5="550.00000" pt_clust_6="30.55613"></scales>
<mgrwt>
<rscale>  0 0.30000000E+03</rscale>
<asrwt>  1 0.30556134E+02</asrwt>
<pdfrwt beam="1">  1        1 0.79663573E+00 0.30000000E+03</pdfrwt>
<pdfrwt beam="2">0</pdfrwt>
<totfact> 0.11256596E-03</totfact>
</mgrwt>
<clustering>
<clus scale="   30.556">  1  6  2 -1</clus>
<clus scale="  458.043">  4  5 -1 -1</clus>
<clus scale="  300.000">  1  4  2 -1</clus>
</clustering>
</event>
<event>
 6    1  0.9480355E-012  0.3000000E+03  0.7818608E-02  0.1093470E+00
          1   -1    0    0  502    0  0.00000000000E+00  0.00000000000E+00  0.24042564848E+03  0.24042564848E+03  0.00000000000E+00 0.  1.
         13   -1    0    0    0    0 -0.00000000000E+00 -0.00000000000E+00 -0.27500000000E+03  0.27500000000E+03  0.00000000000E+00 0.  1.
    9000005    2    1    2  501    0 -0.35301211089E+02 -0.22808201178E+02 -0.53477343935E+02  0.46934189139E+03  0.46438733311E+03 0.  0.
         13    1    3    3    0    0 -0.16653699162E+03 -0.14342086029E+03 -0.15053044917E+03  0.26638980624E+03  0.00000000000E+00 0.  1.
          3    1    3    3  501    0  0.13123578053E+03  0.12061265911E+03  0.97053105231E+02  0.20295208515E+03  0.00000000000E+00 0.  1.
         21    1    1    2  502  501  0.35301211089E+02  0.22808201178E+02  0.18902992416E+02  0.46083757091E+02  0.00000000000E+00 0.  1.
<scales pt_clust_4="550.00000" pt_clust_5="550.00000" pt_clust_6="42.02844"></scales>
<mgrwt>
<rscale>  0 0.30000000E+03</rscale>
<asrwt>  1 0.42028437E+02</asrwt>
<pdfrwt beam="1">  1        1 0.87427509E+00 0.30000000E+03</pdfrwt>
<pdfrwt beam="2">0</pdfrwt>
<totfact> 0.22133316E-04</totfact>
</mgrwt>
<clustering>
<clus scale="   42.028">  1  6  2 -1</clus>
<clus scale="  464.387">  4  5 -1 -1</clus>
<clus scale="  300.000">  1  4  2 -1</clus>
</clustering>
</event>
<event>
 6    1  0.9480355E-012  0.3000000E+03  0.7818608E-02  0.1093470E+00
          1   -1    0    0  502    0  0.00000000000E+00  0.00000000000E+00  0.23614431561E+03  0.23614431561E+03  0.00000000000E+00 0.  1.
         13   -1    0    0    0    0 -0.00000000000E+00 -0.00000000000E+00 -0.27500000000E+03  0.27500000000E+03  0.00000000000E+00 0.  1.
    9000005    2    1    2  501    0  0.10976041199E+02 -0.33403607472E+02 -0.37024667666E+02  0.47593597718E+03  0.47318913120E+03 0.  0.
         13    1    3    3    0    0 -0.92149913866E+02 -0.20125657130E+03 -0.13148674337E+03  0.25745791462E+03  0.00000000000E+00 0.  1.
          3    1    3    3  501    0  0.10312595506E+03  0.16785296383E+03  0.94462075704E+02  0.21847806256E+03  0.00000000000E+00 0.  1.
         21    1    1    2  502  501 -0.10976041199E+02  0.33403607472E+02 -0.18310167237E+01  0.35208338427E+02  0.00000000000E+00 0. -1.
<scales pt_clust_4="550.00000" pt_clust_5="550.00000" pt_clust_6="35.16069"></scales>
<mgrwt>
<rscale>  0 0.30000000E+03</rscale>
<asrwt>  1 0.35160695E+02</asrwt>
<pdfrwt beam="1">  1        1 0.85870660E+00 0.30000000E+03</pdfrwt>
<pdfrwt beam="2">0</pdfrwt>
<totfact> 0.33355285E-04</totfact>
</mgrwt>
<clustering>
<clus scale="   35.161">  1  6  2 -1</clus>
<clus scale="  473.189">  4  5 -1 -1</clus>
<clus scale="  300.000">  1  4  2 -1</clus>
</clustering>
</event>
<event>
 6    1  0.9480355E-012  0.3000000E+03  0.7818608E-02  0.1093470E+00
          1   -1    0    0  502    0  0.00000000000E+00  0.00000000000E+00  0.22971177124E+03  0.22971177124E+03  0.00000000000E+00 0.  1.
         13   -1    0    0    0    0 -0.00000000000E+00 -0.00000000000E+00 -0.27500000000E+03  0.27500000000E+03  0.00000000000E+00 0.  1.
    9000005    2    1    2  501    0 -0.31692935846E+02  0.81951061766E+01 -0.62319656895E+02  0.46781093802E+03  0.46248430476E+03 0.  0.
         13    1    3    3    0    0 -0.13888720924E+03 -0.19124433488E+03 -0.46096845422E+02  0.24080899417E+03  0.00000000000E+00 0.  1.
          3    1    3    3  501    0  0.10719427340E+03  0.19943944106E+03 -0.16222811473E+02  0.22700194385E+03  0.00000000000E+00 0.  1.
         21    1    1    2  502  501  0.31692935846E+02 -0.81951061766E+01  0.17031428134E+02  0.36900833216E+02  0.00000000000E+00 0.  1.
<scales pt_clust_4="550.00000" pt_clust_5="550.00000" pt_clust_6="32.73533"></scales>
<mgrwt>
<rscale>  0 0.30000000E+03</rscale>
<asrwt>  1 0.32735332E+02</asrwt>
<pdfrwt beam="1">  1        1 0.83531553E+00 0.30000000E+03</pdfrwt>
<pdfrwt beam="2">0</pdfrwt>
<totfact> 0.54494955E-04</totfact>
</mgrwt>
<clustering>
<clus scale="   32.735">  1  6  2 -1</clus>
<clus scale="  462.484">  4  5 -1 -1</clus>
<clus scale="  300.000">  1  4  2 -1</clus>
</clustering>
</event>
<event>
 6    1  0.9480355E-012  0.3000000E+03  0.7818608E-02  0.1093470E+00
          1   -1    0    0  502    0  0.00000000000E+00  0.00000000000E+00  0.25326863612E+03  0.25326863612E+03  0.00000000000E+00 0.  1.
         13   -1    0    0    0    0 -0.00000000000E+00 -0.00000000000E+00 -0.27500000000E+03  0.27500000000E+03  0.00000000000E+00 0.  1.
    9000005    2    1    2  501    0  0.49705933564E+02  0.42555635248E+02 -0.90920208409E+01  0.46162469480E+03  0.45687310282E+03 0.  0.
         13    1    3    3    0    0  0.24385556839E+03  0.35845550629E+02 -0.73097060332E+02  0.25708679851E+03  0.00000000000E+00 0.  1.
          3    1    3    3  501    0 -0.19414963483E+03  0.67100846195E+01  0.64005039491E+02  0.20453789629E+03  0.00000000000E+00 0.  1.
         21    1    1    2  502  501 -0.49705933564E+02 -0.42555635248E+02 -0.12639343036E+02  0.66643941324E+02  0.00000000000E+00 0.  1.
<scales pt_clust_4="550.00000" pt_clust_5="550.00000" pt_clust_6="65.43444"></scales>
<mgrwt>
<rscale>  0 0.30000000E+03</rscale>
<asrwt>  1 0.65434442E+02</asrwt>
<pdfrwt beam="1">  1        1 0.92097686E+00 0.30000000E+03</pdfrwt>
<pdfrwt beam="2">0</pdfrwt>
<totfact> 0.35649223E-05</totfact>
</mgrwt>
<clustering>
<clus scale="   65.434">  1  6  2 -1</clus>
<clus scale="  456.873">  4  5 -1 -1</clus>
<clus scale="  300.000">  1  4  2 -1</clus>
</clustering>
</event>
<event>
 6    1  0.9480355E-012  0.3000000E+03  0.7818608E-02  0.1093470E+00
          1   -1    0    0  502    0  0.00000000000E+00  0.00000000000E+00  0.21662939465E+03  0.21662939465E+03  0.00000000000E+00 0.  1.
         13   -1    0    0    0    0 -0.00000000000E+00 -0.00000000000E+00 -0.27500000000E+03  0.27500000000E+03  0.00000000000E+00 0.  1.
    9000005    2    1    2  501    0  0.29993081060E+02 -0.23678191074E+01 -0.52547506881E+02  0.46098465685E+03  0.45699061467E+03 0.  0.
         13    1    3    3    0    0 -0.73401022079E+02  0.11424003821E+03 -0.20309013093E+03  0.24430329031E+03  0.00000000000E+00 0.  1.
          1    1    3    3  501    0  0.10339410314E+03 -0.11660785732E+03  0.15054262405E+03  0.21668136655E+03  0.00000000000E+00 0.  1.
         21    1    1    2  502  501 -0.29993081060E+02  0.23678191074E+01 -0.58230984696E+01  0.30644737796E+02  0.00000000000E+00 0. -1.
<scales pt_clust_4="550.00000" pt_clust_5="550.00000" pt_clust_6="30.08642"></scales>
<mgrwt>
<rscale>  0 0.30000000E+03</rscale>
<asrwt>  1 0.30086415E+02</asrwt>
<pdfrwt beam="1">  1        1 0.78774325E+00 0.30000000E+03</pdfrwt>
<pdfrwt beam="2">0</pdfrwt>
<totfact> 0.13226455E-03</totfact>
</mgrwt>
<clustering>
<clus scale="   30.086">  1  6  2 -1</clus>
<clus scale="  456.991">  4  5 -1 -1</clus>
<clus scale="  300.000">  1  4  2 -1</clus>
</clustering>
</event>
<event>
 6    1  0.9480355E-012  0.3000000E+03  0.7818608E-02  0.1093470E+00
          1   -1    0    0  502    0  0.00000000000E+00  0.00000000000E+00  0.25644355684E+03  0.25644355684E+03  0.00000000000E+00 0.  1.
         13   -1    0    0    0    0 -0.00000000000E+00 -0.00000000000E+00 -0.27500000000E+03  0.27500000000E+03  0.00000000000E+00 0.  1.
    9000005    2    1    2  501    0 -0.23076898420E+02  0.26723112125E+02 -0.53127436550E+02  0.48202876607E+03  0.47778922010E+03 0.  0.
         13    1    3    3    0    0 -0.12108903897E+03  0.22310638054E+03 -0.65613161282E+02  0.26219095966E+03  0.00000000000E+00 0.  1.
          1    1    3    3  501    0  0.98012140548E+02 -0.19638326841E+03  0.12485724732E+02  0.21983780641E+03  0.00000000000E+00 0.  1.
         21    1    1    2  502  501  0.23076898420E+02 -0.26723112125E+02  0.34570993389E+02  0.49414790764E+02  0.00000000000E+00 0. -1.
<scales pt_clust_4="550.00000" pt_clust_5="550.00000" pt_clust_6="35.30819"></scales>
<mgrwt>
<rscale>  0 0.30000000E+03</rscale>
<asrwt>  1 0.35308185E+02</asrwt>
<pdfrwt beam="1">  1        1 0.93252202E+00 0.30000000E+03</pdfrwt>
<pdfrwt beam="2">0</pdfrwt>
<totfact> 0.24144856E-05</totfact>
</mgrwt>
<clustering>
<clus scale="   35.308">  1  6  2 -1</clus>
<clus scale="  477.789">  4  5 -1 -1</clus>
<clus scale="  300.000">  1  4  2 -1</clus>
</clustering>
</event>
<event>
 6    1  0.9480355E-012  0.3000000E+03  0.7818608E-02  0.1093470E+00
          1   -1    0    0  502    0  0.00000000000E+00  0.00000000000E+00  0.24079018696E+03  0.24079018696E+03  0.00000000000E+00 0.  1.
         13   -1    0    0    0    0 -0.00000000000E+00 -0.00000000000E+00 -0.27500000000E+03  0.27500000000E+03  0.00000000000E+00 0.  1.
    9000005    2    1    2  501    0 -0.27308166689E+02 -0.20741217938E+02 -0.48980405122E+02  0.47845247841E+03  0.47470175891E+03 0.  0.
         13    1    3    3    0    0 -0.76371839563E+02  0.21834592710E+03 -0.12318672726E+02  0.23164488221E+03  0.00000000000E+00 0.  1.
          1    1    3    3  501    0  0.49063672874E+02 -0.23908714503E+03 -0.36661732397E+02  0.24680759619E+03  0.00000000000E+00 0.  1.
         21    1    1    2  502  501  0.27308166689E+02  0.20741217938E+02  0.14770592078E+02  0.37337708551E+02  0.00000000000E+00 0.  1.
<scales pt_clust_4="550.00000" pt_clust_5="550.00000" pt_clust_6="34.29190"></scales>
<mgrwt>
<rscale>  0 0.30000000E+03</rscale>
<asrwt>  1 0.34291895E+02</asrwt>
<pdfrwt beam="1">  1        1 0.87560068E+00 0.30000000E+03</pdfrwt>
<pdfrwt beam="2">0</pdfrwt>
<totfact> 0.22249070E-04</totfact>
</mgrwt>
<clustering>
<clus scale="   34.292">  1  6  2 -1</clus>
<clus scale="  474.702">  4  5 -1 -1</clus>
<clus scale="  300.000">  1  4  2 -1</clus>
</clustering>
</event>
<event>
 6    1  0.9480355E-012  0.3000000E+03  0.7818608E-02  0.1093470E+00
          1   -1    0    0  502    0  0.00000000000E+00  0.00000000000E+00  0.25128478200E+03  0.25128478200E+03  0.00000000000E+00 0.  1.
         13   -1    0    0    0    0 -0.00000000000E+00 -0.00000000000E+00 -0.27500000000E+03  0.27500000000E+03  0.00000000000E+00 0.  1.
    9000005    2    1    2  501    0  0.28426094017E+02 -0.25196446823E+02 -0.31800731549E+02  0.48744821053E+03  0.48492429066E+03 0.  0.
         13    1    3    3    0    0  0.17663575354E+03 -0.69886337766E+02 -0.18819447569E+03  0.26739755106E+03  0.00000000000E+00 0.  1.
          1    1    3    3  501    0 -0.14820965952E+03  0.44689890943E+02  0.15639374414E+03  0.22005065947E+03  0.00000000000E+00 0.  1.
         21    1    1    2  502  501 -0.28426094017E+02  0.25196446823E+02  0.80855135446E+01  0.38836571461E+02  0.00000000000E+00 0.  1.
<scales pt_clust_4="550.00000" pt_clust_5="550.00000" pt_clust_6="37.98557"></scales>
<mgrwt>
<rscale>  0 0.30000000E+03</rscale>
<asrwt>  1 0.37985573E+02</asrwt>
<pdfrwt beam="1">  1        1 0.91376284E+00 0.30000000E+03</pdfrwt>
<pdfrwt beam="2">0</pdfrwt>
<totfact> 0.57078524E-05</totfact>
</mgrwt>
<clustering>
<clus scale="   37.986">  1  6  2 -1</clus>
<clus scale="  484.924">  4  5 -1 -1</clus>
<clus scale="  300.000">  1  4  2 -1</clus>
</clustering>
</event>
<event>
 6    1  0.9480355E-012  0.3000000E+03  0.7818608E-02  0.1093470E+00
          1   -1    0    0  502    0  0.00000000000E+00  0.00000000000E+00  0.23433799760E+03  0.23433799760E+03  0.00000000000E+00 0.  1.
         13   -1    0    0    0    0 -0.00000000000E+00 -0.00000000000E+00 -0.27500000000E+03  0.27500000000E+03  0.00000000000E+00 0.  1.
    9000005    2    1    2  501    0 -0.48671166519E+00 -0.31978341643E+02 -0.51461206103E+02  0.47558190151E+03  0.47170651690E+03 0.  0.
         13    1    3    3    0    0 -0.91007696130E+01  0.79822877371E+02 -0.24172896135E+03  0.25473006598E+03  0.00000000000E+00 0.  1.
          3    1    3    3  501    0  0.86140579478E+01 -0.11180121901E+03  0.19026775525E+03  0.22085183553E+03  0.00000000000E+00 0.  1.
         21    1    1    2  502  501  0.48671166519E+00  0.31978341643E+02  0.10799203700E+02  0.33756096087E+02  0.00000000000E+00 0.  1.
<scales pt_clust_4="550.00000" pt_clust_5="550.00000" pt_clust_6="31.98205"></scales>
<mgrwt>
<rscale>  0 0.30000000E+03</rscale>
<asrwt>  1 0.31982045E+02</asrwt>
<pdfrwt beam="1">  1        1 0.85213817E+00 0.30000000E+03</pdfrwt>
<pdfrwt beam="2">0</pdfrwt>
<totfact> 0.39507351E-04</totfact>
</mgrwt>
<clustering>
<clus scale="   31.982">  1  6  2 -1</clus>
<clus scale="  471.707">  4  5 -1 -1</clus>
<clus scale="  300.000">  1  4  2 -1</clus>
</clustering>
</event>
<event>
 6    1  0.9480355E-012  0.3000000E+03  0.7818608E-02  0.1093470E+00
          1   -1    0    0  502    0  0.00000000000E+00  0.00000000000E+00  0.22855693194E+03  0.22855693194E+03  0.00000000000E+00 0.  1.
         13   -1    0    0    0    0 -0.00000000000E+00 -0.00000000000E+00 -0.27500000000E+03  0.27500000000E+03  0.00000000000E+00 0.  1.
    9000005    2    1    2  501    0 -0.29176317868E+02 -0.21404713498E+02 -0.33232380804E+02  0.46503497013E+03  0.46243238751E+03 0.  0.
         13    1    3    3    0    0 -0.85591578741E+02 -0.11243665875E+03  0.17855735183E+03  0.22770737467E+03  0.00000000000E+00 0.  1.
          1    1    3    3  501    0  0.56415260874E+02  0.91031945257E+02 -0.21178973264E+03  0.23732759546E+03  0.00000000000E+00 0.  1.
         21    1    1    2  502  501  0.29176317868E+02  0.21404713498E+02 -0.13210687255E+02  0.38521961814E+02  0.00000000000E+00 0.  1.
<scales pt_clust_4="550.00000" pt_clust_5="550.00000" pt_clust_6="36.18592"></scales>
<mgrwt>
<rscale>  0 0.30000000E+03</rscale>
<asrwt>  1 0.36185917E+02</asrwt>
<pdfrwt beam="1">  1        1 0.83111612E+00 0.30000000E+03</pdfrwt>
<pdfrwt beam="2">0</pdfrwt>
<totfact> 0.57525954E-04</totfact>
</mgrwt>
<clustering>
<clus scale="   36.186">  1  6  2 -1</clus>
<clus scale="  462.432">  4  5 -1 -1</clus>
<clus scale="  300.000">  1  4  2 -1</clus>
</clustering>
</event>
<event>
 6    1  0.9480355E-012  0.3000000E+03  0.7818608E-02  0.1093470E+00
          1   -1    0    0  502    0  0.00000000000E+00  0.00000000000E+00  0.22505201995E+03  0.22505201995E+03  0.00000000000E+00 0.  1.
         13   -1    0    0    0    0 -0.00000000000E+00 -0.00000000000E+00 -0.27500000000E+03  0.27500000000E+03  0.00000000000E+00 0.  1.
    9000005    2    1    2  501    0  0.34902441293E+01 -0.34972320539E+02 -0.41050226010E+02  0.46379715772E+03  0.46063807642E+03 0.  0.
         13    1    3    3    0    0  0.88310356946E+02  0.13215285471E+03 -0.17274059445E+03  0.23473902344E+03  0.00000000000E+00 0.  1.
          1    1    3    3  501    0 -0.84820112816E+02 -0.16712517525E+03  0.13169036844E+03  0.22905813428E+03  0.00000000000E+00 0.  1.
         21    1    1    2  502  501 -0.34902441293E+01  0.34972320539E+02 -0.88977540423E+01  0.36254862225E+02  0.00000000000E+00 0.  1.
<scales pt_clust_4="550.00000" pt_clust_5="550.00000" pt_clust_6="35.14607"></scales>
<mgrwt>
<rscale>  0 0.30000000E+03</rscale>
<asrwt>  1 0.35146070E+02</asrwt>
<pdfrwt beam="1">  1        1 0.81837098E+00 0.30000000E+03</pdfrwt>
<pdfrwt beam="2">0</pdfrwt>
<totfact> 0.74626677E-04</totfact>
</mgrwt>
<clustering>
<clus scale="   35.146">  1  6  2 -1</clus>
<clus scale="  460.638">  4  5 -1 -1</clus>
<clus scale="  300.000">  1  4  2 -1</clus>
</clustering>
</event>
<event>
 6    1  0.9480355E-012  0.3000000E+03  0.7818608E-02  0.1093470E+00
          1   -1    0    0  502    0  0.00000000000E+00  0.00000000000E+00  0.24094812479E+03  0.24094812479E+03  0.00000000000E+00 0.  1.
         13   -1    0    0    0    0 -0.00000000000E+00 -0.00000000000E+00 -0.27500000000E+03  0.27500000000E+03  0.00000000000E+00 0.  1.
    9000005    2    1    2  501    0  0.10023876189E+02  0.32037594357E+02 -0.43846650826E+02  0.48097923611E+03  0.47779871414E+03 0.  0.
         13    1    3    3    0    0 -0.17168482830E+03  0.17288966566E+03 -0.58596098146E+02  0.25059932059E+03  0.00000000000E+00 0.  1.
          3    1    3    3  501    0  0.18170870449E+03 -0.14085207131E+03  0.14749447320E+02  0.23037991552E+03  0.00000000000E+00 0.  1.
         21    1    1    2  502  501 -0.10023876189E+02 -0.32037594357E+02  0.97947756161E+01  0.34968888678E+02  0.00000000000E+00 0.  1.
<scales pt_clust_4="550.00000" pt_clust_5="550.00000" pt_clust_6="33.56912"></scales>
<mgrwt>
<rscale>  0 0.30000000E+03</rscale>
<asrwt>  1 0.33569116E+02</asrwt>
<pdfrwt beam="1">  1        1 0.87617500E+00 0.30000000E+03</pdfrwt>
<pdfrwt beam="2">0</pdfrwt>
<totfact> 0.22022088E-04</totfact>
</mgrwt>
<clustering>
<clus scale="   33.569">  1  6  2 -1</clus>
<clus scale="  477.799">  4  5 -1 -1</clus>
<clus scale="  300.000">  1  4  2 -1</clus>
</clustering>
</event>
<event>
 6    1  0.9480355E-012  0.3000000E+03  0.7818608E-02  0.1093470E+00
          1   -1    0    0  502    0  0.00000000000E+00  0.00000000000E+00  0.24280487693E+03  0.24280487693E+03  0.00000000000E+00 0.  1.
         13   -1    0    0    0    0 -0.00000000000E+00 -0.00000000000E+00 -0.27500000000E+03  0.27500000000E+03  0.00000000000E+00 0.  1.
    9000005    2    1    2  501    0  0.12108433716E+02  0.38289814748E+02 -0.51840771609E+02  0.47309832722E+03  0.46853157582E+03 0.  0.
         13    1    3    3    0    0 -0.10868767137E+02 -0.16440057505E+02  0.20679836887E+03  0.20773533873E+03  0.00000000000E+00 0.  1.
          3    1    3    3  501    0  0.22977200854E+02  0.54729872253E+02 -0.25863914048E+03  0.26536298849E+03  0.00000000000E+00 0.  1.
         21    1    1    2  502  501 -0.12108433716E+02 -0.38289814748E+02  0.19645648544E+02  0.44706549712E+02  0.00000000000E+00 0. -1.
<scales pt_clust_4="550.00000" pt_clust_5="550.00000" pt_clust_6="40.15874"></scales>
<mgrwt>
<rscale>  0 0.30000000E+03</rscale>
<asrwt>  1 0.40158736E+02</asrwt>
<pdfrwt beam="1">  1        1 0.88292683E+00 0.30000000E+03</pdfrwt>
<pdfrwt beam="2">0</pdfrwt>
<totfact> 0.17647959E-04</totfact>
</mgrwt>
<clustering>
<clus scale="   40.159">  1  6  2 -1</clus>
<clus scale="  468.532">  4  5 -1 -1</clus>
<clus scale="  300.000">  1  4  2 -1</clus>
</clustering>
</event>
<event>
 6    1  0.9480355E-012  0.3000000E+03  0.7818608E-02  0.1093470E+00
          1   -1    0    0  502    0  0.00000000000E+00  0.00000000000E+00  0.22493006651E+03  0.22493006651E+03  0.00000000000E+00 0.  1.
         13   -1    0    0    0    0 -0.00000000000E+00 -0.00000000000E+00 -0.27500000000E+03  0.27500000000E+03  0.00000000000E+00 0.  1.
    9000005    2    1    2  501    0 -0.18894089777E+02  0.25342007623E+02 -0.58634185978E+02  0.46718025125E+03  0.46240698028E+03 0.  0.
         13    1    3    3    0    0  0.13421939708E+03  0.94779033301E+02 -0.19190916463E+03  0.25264013769E+03  0.00000000000E+00 0.  1.
          1    1    3    3  501    0 -0.15311348686E+03 -0.69437025677E+02  0.13327497865E+03  0.21454011356E+03  0.00000000000E+00 0.  1.
         21    1    1    2  502  501  0.18894089777E+02 -0.25342007623E+02  0.85642524912E+01  0.32749815261E+02  0.00000000000E+00 0. -1.
<scales pt_clust_4="550.00000" pt_clust_5="550.00000" pt_clust_6="31.61019"></scales>
<mgrwt>
<rscale>  0 0.30000000E+03</rscale>
<asrwt>  1 0.31610188E+02</asrwt>
<pdfrwt beam="1">  1        1 0.81792751E+00 0.30000000E+03</pdfrwt>
<pdfrwt beam="2">0</pdfrwt>
<totfact> 0.76789518E-04</totfact>
</mgrwt>
<clustering>
<clus scale="   31.610">  1  6  2 -1</clus>
<clus scale="  462.407">  4  5 -1 -1</clus>
<clus scale="  300.000">  1  4  2 -1</clus>
</clustering>
</event>
<event>
 6    1  0.9480355E-012  0.3000000E+03  0.7818608E-02  0.1093470E+00
          1   -1    0    0  502    0  0.00000000000E+00  0.00000000000E+00  0.25291971325E+03  0.25291971325E+03  0.00000000000E+00 0.  1.
         13   -1    0    0    0    0 -0.00000000000E+00 -0.00000000000E+00 -0.27500000000E+03  0.27500000000E+03  0.00000000000E+00 0.  1.
    9000005    2    1    2  501    0 -0.10706205416E+02 -0.41584552357E+02 -0.54475654150E+02  0.47412977313E+03  0.46902830090E+03 0.  0.
         13    1    3    3    0    0 -0.13130253829E+03 -0.20894003050E+03  0.35072407113E+02  0.24925161313E+03  0.00000000000E+00 0.  1.
          3    1    3    3  501    0  0.12059633288E+03  0.16735547814E+03 -0.89548061264E+02  0.22487816000E+03  0.00000000000E+00 0.  1.
         21    1    1    2  502  501  0.10706205416E+02  0.41584552357E+02  0.32395367396E+02  0.53789940118E+02  0.00000000000E+00 0. -1.
<scales pt_clust_4="550.00000" pt_clust_5="550.00000" pt_clust_6="42.94063"></scales>
<mgrwt>
<rscale>  0 0.30000000E+03</rscale>
<asrwt>  1 0.42940631E+02</asrwt>
<pdfrwt beam="1">  1        1 0.91970805E+00 0.30000000E+03</pdfrwt>
<pdfrwt beam="2">0</pdfrwt>
<totfact> 0.40853492E-05</totfact>
</mgrwt>
<clustering>
<clus scale="   42.941">  1  6  2 -1</clus>
<clus scale="  469.028">  4  5 -1 -1</clus>
<clus scale="  300.000">  1  4  2 -1</clus>
</clustering>
</event>
<event>
 6    1  0.9480355E-012  0.3000000E+03  0.7818608E-02  0.1093470E+00
          1   -1    0    0  502    0  0.00000000000E+00  0.00000000000E+00  0.25334996164E+03  0.25334996164E+03  0.00000000000E+00 0.  1.
         13   -1    0    0    0    0 -0.00000000000E+00 -0.00000000000E+00 -0.27500000000E+03  0.27500000000E+03  0.00000000000E+00 0.  1.
    9000005    2    1    2  501    0 -0.35970784905E+02  0.23586779592E+02 -0.64325816939E+02  0.46775742402E+03  0.46131221907E+03 0.  0.
         13    1    3    3    0    0 -0.15686251384E+03 -0.69608560124E+02  0.13382877626E+03  0.21762660969E+03  0.00000000000E+00 0.  1.
          3    1    3    3  501    0  0.12089172893E+03  0.93195339716E+02 -0.19815459320E+03  0.25013081433E+03  0.00000000000E+00 0.  1.
         21    1    1    2  502  501  0.35970784905E+02 -0.23586779592E+02  0.42675778575E+02  0.60592537619E+02  0.00000000000E+00 0.  1.
<scales pt_clust_4="550.00000" pt_clust_5="550.00000" pt_clust_6="43.01434"></scales>
<mgrwt>
<rscale>  0 0.30000000E+03</rscale>
<asrwt>  1 0.43014341E+02</asrwt>
<pdfrwt beam="1">  1        1 0.92127259E+00 0.30000000E+03</pdfrwt>
<pdfrwt beam="2">0</pdfrwt>
<totfact> 0.37788407E-05</totfact>
</mgrwt>
<clustering>
<clus scale="   43.014">  1  6  2 -1</clus>
<clus scale="  461.312">  4  5 -1 -1</clus>
<clus scale="  300.000">  1  4  2 -1</clus>
</clustering>
</event>
<event>
 6    1  0.9480355E-012  0.3000000E+03  0.7818608E-02  0.1093470E+00
          1   -1    0    0  502    0  0.00000000000E+00  0.00000000000E+00  0.24318401109E+03  0.24318401109E+03  0.00000000000E+00 0.  1.
         13   -1    0    0    0    0 -0.00000000000E+00 -0.00000000000E+00 -0.27500000000E+03  0.27500000000E+03  0.00000000000E+00 0.  1.
    9000005    2    1    2  501    0 -0.21586632559E+02  0.48618398698E+02 -0.42711819781E+02  0.46388437456E+03  0.45884058453E+03 0.  0.
         13    1    3    3    0    0 -0.71779609016E+02 -0.19451507036E+03  0.18587703767E+02  0.20816802732E+03  0.00000000000E+00 0.  1.
          3    1    3    3  501    0  0.50192976457E+02  0.24313346905E+03 -0.61299523548E+02  0.25571634724E+03  0.00000000000E+00 0.  1.
         21    1    1    2  502  501  0.21586632559E+02 -0.48618398698E+02  0.10895830874E+02  0.54299636534E+02  0.00000000000E+00 0. -1.
<scales pt_clust_4="550.00000" pt_clust_5="550.00000" pt_clust_6="53.19522"></scales>
<mgrwt>
<rscale>  0 0.30000000E+03</rscale>
<asrwt>  1 0.53195220E+02</asrwt>
<pdfrwt beam="1">  1        1 0.88430549E+00 0.30000000E+03</pdfrwt>
<pdfrwt beam="2">0</pdfrwt>
<totfact> 0.16085787E-04</totfact>
</mgrwt>
<clustering>
<clus scale="   53.195">  1  6  2 -1</clus>
<clus scale="  458.841">  4  5 -1 -1</clus>
<clus scale="  300.000">  1  4  2 -1</clus>
</clustering>
</event>
<event>
 6    1  0.9480355E-012  0.3000000E+03  0.7818608E-02  0.1093470E+00
          1   -1    0    0  502    0  0.00000000000E+00  0.00000000000E+00  0.22438292191E+03  0.22438292191E+03  0.00000000000E+00 0.  1.
         13   -1    0    0    0    0 -0.00000000000E+00 -0.00000000000E+00 -0.27500000000E+03  0.27500000000E+03  0.00000000000E+00 0.  1.
    9000005    2    1    2  501    0  0.12418125857E+02 -0.29824129604E+02 -0.39655999711E+02  0.46526791355E+03  0.46244777490E+03 0.  0.
         13    1    3    3    0    0  0.11438370672E+03  0.76708574408E+02  0.16379033462E+03  0.21399792398E+03  0.00000000000E+00 0.  1.
          3    1    3    3  501    0 -0.10196558086E+03 -0.10653270401E+03 -0.20344633433E+03  0.25126998957E+03  0.00000000000E+00 0.  1.
         21    1    1    2  502  501 -0.12418125857E+02  0.29824129604E+02 -0.10961078379E+02  0.34115008364E+02  0.00000000000E+00 0. -1.
<scales pt_clust_4="550.00000" pt_clust_5="550.00000" pt_clust_6="32.30619"></scales>
<mgrwt>
<rscale>  0 0.30000000E+03</rscale>
<asrwt>  1 0.32306185E+02</asrwt>
<pdfrwt beam="1">  1        1 0.81593790E+00 0.30000000E+03</pdfrwt>
<pdfrwt beam="2">0</pdfrwt>
<totfact> 0.79410472E-04</totfact>
</mgrwt>
<clustering>
<clus scale="   32.306">  1  6  2 -1</clus>
<clus scale="  462.448">  4  5 -1 -1</clus>
<clus scale="  300.000">  1  4  2 -1</clus>
</clustering>
</event>
<event>
 6    1  0.9480355E-012  0.3000000E+03  0.7818608E-02  0.1093470E+00
          1   -1    0    0  502    0  0.00000000000E+00  0.00000000000E+00  0.22531868292E+03  0.22531868292E+03  0.00000000000E+00 0.  1.
         13   -1    0    0    0    0 -0.00000000000E+00 -0.00000000000E+00 -0.27500000000E+03  0.27500000000E+03  0.00000000000E+00 0.  1.
    9000005    2    1    2  501    0 -0.30242961942E+02 -0.51743663227E+00 -0.58335085536E+02  0.46885771987E+03  0.46423019591E+03 0.  0.
         13    1    3    3    0    0 -0.24667465871E+03  0.19520524442E+02 -0.40888671125E+02  0.25080135875E+03  0.00000000000E+00 0.  1.
          3    1    3    3  501    0  0.21643169677E+03 -0.20037961074E+02 -0.17446414411E+02  0.21805636112E+03  0.00000000000E+00 0.  1.
         21    1    1    2  502  501  0.30242961942E+02  0.51743663227E+00  0.86537684599E+01  0.31460963053E+02  0.00000000000E+00 0.  1.
<scales pt_clust_4="550.00000" pt_clust_5="550.00000" pt_clust_6="30.24739"></scales>
<mgrwt>
<rscale>  0 0.30000000E+03</rscale>
<asrwt>  1 0.30247388E+02</asrwt>
<pdfrwt beam="1">  1        1 0.81934067E+00 0.30000000E+03</pdfrwt>
<pdfrwt beam="2">0</pdfrwt>
<totfact> 0.75337613E-04</totfact>
</mgrwt>
<clustering>
<clus scale="   30.247">  1  6  2 -1</clus>
<clus scale="  464.230">  4  5 -1 -1</clus>
<clus scale="  300.000">  1  4  2 -1</clus>
</clustering>
</event>
<event>
 6    1  0.9480355E-012  0.3000000E+03  0.7818608E-02  0.1093470E+00
          1   -1    0    0  502    0  0.00000000000E+00  0.00000000000E+00  0.23763124329E+03  0.23763124329E+03  0.00000000000E+00 0.  1.
         13   -1    0    0    0    0 -0.00000000000E+00 -0.00000000000E+00 -0.27500000000E+03  0.27500000000E+03  0.00000000000E+00 0.  1.
    9000005    2    1    2  501    0 -0.13116295781E+02  0.27588327134E+02 -0.24698767207E+02  0.47956038537E+03  0.47794872226E+03 0.  0.
         13    1    3    3    0    0 -0.12438184333E+03 -0.19402862651E+03 -0.22518192452E+02  0.23157076639E+03  0.00000000000E+00 0.  1.
          3    1    3    3  501    0  0.11126554755E+03  0.22161695365E+03 -0.21805747547E+01  0.24798961898E+03  0.00000000000E+00 0.  1.
         21    1    1    2  502  501  0.13116295781E+02 -0.27588327134E+02 -0.12669989505E+02  0.33070857913E+02  0.00000000000E+00 0.  1.
<scales pt_clust_4="550.00000" pt_clust_5="550.00000" pt_clust_6="30.54757"></scales>
<mgrwt>
<rscale>  0 0.30000000E+03</rscale>
<asrwt>  1 0.30547569E+02</asrwt>
<pdfrwt beam="1">  1        1 0.86411361E+00 0.30000000E+03</pdfrwt>
<pdfrwt beam="2">0</pdfrwt>
<totfact> 0.29968664E-04</totfact>
</mgrwt>
<clustering>
<clus scale="   30.548">  1  6  2 -1</clus>
<clus scale="  477.949">  4  5 -1 -1</clus>
<clus scale="  300.000">  1  4  2 -1</clus>
</clustering>
</event>
<event>
 6    1  0.9480355E-012  0.3000000E+03  0.7818608E-02  0.1093470E+00
          1   -1    0    0  502    0  0.00000000000E+00  0.00000000000E+00  0.22808934195E+03  0.22808934195E+03  0.00000000000E+00 0.  1.
         13   -1    0    0    0    0 -0.00000000000E+00 -0.00000000000E+00 -0.27500000000E+03  0.27500000000E+03  0.00000000000E+00 0.  1.
    9000005    2    1    2  501    0  0.13908138691E+02  0.32380014676E+02 -0.55371879652E+02  0.46684718496E+03  0.46221028480E+03 0.  0.
         13    1    3    3    0    0 -0.89934651039E+02 -0.10777999330E+03 -0.19717894162E+03  0.24204194561E+03  0.00000000000E+00 0.  1.
          1    1    3    3  501    0  0.10384278973E+03  0.14016000798E+03  0.14180706197E+03  0.22480523935E+03  0.00000000000E+00 0.  1.
         21    1    1    2  502  501 -0.13908138691E+02 -0.32380014676E+02  0.84612215991E+01  0.36242156989E+02  0.00000000000E+00 0.  1.
<scales pt_clust_4="550.00000" pt_clust_5="550.00000" pt_clust_6="35.24063"></scales>
<mgrwt>
<rscale>  0 0.30000000E+03</rscale>
<asrwt>  1 0.35240625E+02</asrwt>
<pdfrwt beam="1">  1        1 0.82941579E+00 0.30000000E+03</pdfrwt>
<pdfrwt beam="2">0</pdfrwt>
<totfact> 0.59690781E-04</totfact>
</mgrwt>
<clustering>
<clus scale="   35.241">  1  6  2 -1</clus>
<clus scale="  462.210">  4  5 -1 -1</clus>
<clus scale="  300.000">  1  4  2 -1</clus>
</clustering>
</event>
<event>
 6    1  0.9480355E-012  0.3000000E+03  0.7818608E-02  0.1093470E+00
          1   -1    0    0  502    0  0.00000000000E+00  0.00000000000E+00  0.23311691701E+03  0.23311691701E+03  0.00000000000E+00 0.  1.
         13   -1    0    0    0    0 -0.00000000000E+00 -0.00000000000E+00 -0.27500000000E+03  0.27500000000E+03  0.00000000000E+00 0.  1.
    9000005    2    1    2  501    0 -0.23620819639E+02 -0.20742174440E+02 -0.32618587779E+02  0.47534479787E+03  0.47318127993E+03 0.  0.
         13    1    3    3    0    0 -0.53204312796E+02 -0.19761964801E+03  0.12225538267E+03  0.23839170030E+03  0.00000000000E+00 0.  1.
          1    1    3    3  501    0  0.29583493157E+02  0.17687747357E+03 -0.15487397045E+03  0.23695309757E+03  0.00000000000E+00 0.  1.
         21    1    1    2  502  501  0.23620819639E+02  0.20742174440E+02 -0.92644952152E+01  0.32772119134E+02  0.00000000000E+00 0.  1.
<scales pt_clust_4="550.00000" pt_clust_5="550.00000" pt_clust_6="31.43536"></scales>
<mgrwt>
<rscale>  0 0.30000000E+03</rscale>
<asrwt>  1 0.31435361E+02</asrwt>
<pdfrwt beam="1">  1        1 0.84769788E+00 0.30000000E+03</pdfrwt>
<pdfrwt beam="2">0</pdfrwt>
<totfact> 0.43620558E-04</totfact>
</mgrwt>
<clustering>
<clus scale="   31.435">  1  6  2 -1</clus>
<clus scale="  473.181">  4  5 -1 -1</clus>
<clus scale="  300.000">  1  4  2 -1</clus>
</clustering>
</event>
<event>
 6    1  0.9480355E-012  0.3000000E+03  0.7818608E-02  0.1093470E+00
          1   -1    0    0  502    0  0.00000000000E+00  0.00000000000E+00  0.24472817634E+03  0.24472817634E+03  0.00000000000E+00 0.  1.
         13   -1    0    0    0    0 -0.00000000000E+00 -0.00000000000E+00 -0.27500000000E+03  0.27500000000E+03  0.00000000000E+00 0.  1.
    9000005    2    1    2  501    0 -0.37948493380E+02 -0.31204728956E+01 -0.55314673424E+02  0.47415439193E+03  0.46937495544E+03 0.  0.
         13    1    3    3    0    0  0.29757420364E+02 -0.14369364460E+03 -0.20885282151E+03  0.25525059965E+03  0.00000000000E+00 0.  1.
          3    1    3    3  501    0 -0.67705913744E+02  0.14057317170E+03  0.15353814809E+03  0.21890379229E+03  0.00000000000E+00 0.  1.
         21    1    1    2  502  501  0.37948493380E+02  0.31204728956E+01  0.25042849767E+02  0.45573784409E+02  0.00000000000E+00 0.  1.
<scales pt_clust_4="550.00000" pt_clust_5="550.00000" pt_clust_6="38.07657"></scales>
<mgrwt>
<rscale>  0 0.30000000E+03</rscale>
<asrwt>  1 0.38076574E+02</asrwt>
<pdfrwt beam="1">  1        1 0.88992064E+00 0.30000000E+03</pdfrwt>
<pdfrwt beam="2">0</pdfrwt>
<totfact> 0.14305436E-04</totfact>
</mgrwt>
<clustering>
<clus scale="   38.077">  1  6  2 -1</clus>
<clus scale="  469.375">  4  5 -1 -1</clus>
<clus scale="  300.000">  1  4  2 -1</clus>
</clustering>
</event>
<event>
 6    1  0.9480355E-012  0.3000000E+03  0.7818608E-02  0.1093470E+00
          1   -1    0    0  502    0  0.00000000000E+00  0.00000000000E+00  0.22577114999E+03  0.22577114999E+03  0.00000000000E+00 0.  1.
         13   -1    0    0    0    0 -0.00000000000E+00 -0.00000000000E+00 -0.27500000000E+03  0.27500000000E+03  0.00000000000E+00 0.  1.
    9000005    2    1    2  501    0 -0.31517928622E+02  0.86846803748E+01 -0.59234797589E+02  0.46658164159E+03  0.46165015274E+03 0.  0.
         13    1    3    3    0    0 -0.23531121595E+02 -0.95846113243E+02  0.18005805820E+03  0.20533167177E+03  0.00000000000E+00 0.  1.
          1    1    3    3  501    0 -0.79868070269E+01  0.10453079362E+03 -0.23929285579E+03  0.26124996982E+03  0.00000000000E+00 0.  1.
         21    1    1    2  502  501  0.31517928622E+02 -0.86846803748E+01  0.10005947580E+02  0.34189508403E+02  0.00000000000E+00 0. -1.
<scales pt_clust_4="550.00000" pt_clust_5="550.00000" pt_clust_6="32.69256"></scales>
<mgrwt>
<rscale>  0 0.30000000E+03</rscale>
<asrwt>  1 0.32692560E+02</asrwt>
<pdfrwt beam="1">  1        1 0.82098600E+00 0.30000000E+03</pdfrwt>
<pdfrwt beam="2">0</pdfrwt>
<totfact> 0.71827812E-04</totfact>
</mgrwt>
<clustering>
<clus scale="   32.693">  1  6  2 -1</clus>
<clus scale="  461.650">  4  5 -1 -1</clus>
<clus scale="  300.000">  1  4  2 -1</clus>
</clustering>
</event>
<event>
 6    1  0.9480355E-012  0.3000000E+03  0.7818608E-02  0.1093470E+00
          1   -1    0    0  502    0  0.00000000000E+00  0.00000000000E+00  0.23909436337E+03  0.23909436337E+03  0.00000000000E+00 0.  1.
         13   -1    0    0    0    0 -0.00000000000E+00 -0.00000000000E+00 -0.27500000000E+03  0.27500000000E+03  0.00000000000E+00 0.  1.
    9000005    2    1    2  501    0  0.37641049726E+02  0.10087509535E+02 -0.25684461463E+02  0.47380691006E+03  0.47150258746E+03 0.  0.
         13    1    3    3    0    0 -0.38058990445E+02  0.61606733025E+02 -0.23469786418E+03  0.24561547948E+03  0.00000000000E+00 0.  1.
          3    1    3    3  501    0  0.75700040170E+02 -0.51519223490E+02  0.20901340272E+03  0.22819143058E+03  0.00000000000E+00 0.  1.
         21    1    1    2  502  501 -0.37641049726E+02 -0.10087509535E+02 -0.10221175164E+02  0.40287453317E+02  0.00000000000E+00 0.  1.
<scales pt_clust_4="550.00000" pt_clust_5="550.00000" pt_clust_6="38.96932"></scales>
<mgrwt>
<rscale>  0 0.30000000E+03</rscale>
<asrwt>  1 0.38969321E+02</asrwt>
<pdfrwt beam="1">  1        1 0.86943405E+00 0.30000000E+03</pdfrwt>
<pdfrwt beam="2">0</pdfrwt>
<totfact> 0.25159762E-04</totfact>
</mgrwt>
<clustering>
<clus scale="   38.969">  1  6  2 -1</clus>
<clus scale="  471.503">  4  5 -1 -1</clus>
<clus scale="  300.000">  1  4  2 -1</clus>
</clustering>
</event>
<event>
 6    1  0.9480355E-012  0.3000000E+03  0.7818608E-02  0.1093470E+00
          1   -1    0    0  502    0  0.00000000000E+00  0.00000000000E+00  0.23016468255E+03  0.23016468255E+03  0.00000000000E+00 0.  1.
         13   -1    0    0    0    0 -0.00000000000E+00 -0.00000000000E+00 -0.27500000000E+03  0.27500000000E+03  0.00000000000E+00 0.  1.
    9000005    2    1    2  501    0  0.12614897841E+02 -0.35523390097E+02 -0.62890859915E+02  0.46336696126E+03  0.45752883366E+03 0.  0.
         13    1    3    3    0    0  0.35765964789E+02 -0.17990215517E+03  0.12744214771E+03  0.22335060037E+03  0.00000000000E+00 0.  1.
          1    1    3    3  501    0 -0.23151066948E+02  0.14437876507E+03 -0.19033300762E+03  0.24001636089E+03  0.00000000000E+00 0.  1.
         21    1    1    2  502  501 -0.12614897841E+02  0.35523390097E+02  0.18055542464E+02  0.41797721292E+02  0.00000000000E+00 0. -1.
<scales pt_clust_4="550.00000" pt_clust_5="550.00000" pt_clust_6="37.69678"></scales>
<mgrwt>
<rscale>  0 0.30000000E+03</rscale>
<asrwt>  1 0.37696776E+02</asrwt>
<pdfrwt beam="1">  1        1 0.83696248E+00 0.30000000E+03</pdfrwt>
<pdfrwt beam="2">0</pdfrwt>
<totfact> 0.51634796E-04</totfact>
</mgrwt>
<clustering>
<clus scale="   37.697">  1  6  2 -1</clus>
<clus scale="  457.529">  4  5 -1 -1</clus>
<clus scale="  300.000">  1  4  2 -1</clus>
</clustering>
</event>
<event>
 6    1  0.9480355E-012  0.3000000E+03  0.7818608E-02  0.1093470E+00
          1   -1    0    0  502    0  0.00000000000E+00  0.00000000000E+00  0.22064886328E+03  0.22064886328E+03  0.00000000000E+00 0.  1.
         13   -1    0    0    0    0 -0.00000000000E+00 -0.00000000000E+00 -0.27500000000E+03  0.27500000000E+03  0.00000000000E+00 0.  1.
    9000005    2    1    2  501    0 -0.12011783625E+02 -0.30450772706E+02 -0.51101416217E+02  0.46275367841E+03  0.45875710310E+03 0.  0.
         13    1    3    3    0    0  0.17411159620E+03  0.19444258478E+01 -0.16687826032E+03  0.24117832094E+03  0.00000000000E+00 0.  1.
          3    1    3    3  501    0 -0.18612337983E+03 -0.32395198554E+02  0.11577684411E+03  0.22157535747E+03  0.00000000000E+00 0.  1.
         21    1    1    2  502  501  0.12011783625E+02  0.30450772706E+02 -0.32497205010E+01  0.32895184869E+02  0.00000000000E+00 0.  1.
<scales pt_clust_4="550.00000" pt_clust_5="550.00000" pt_clust_6="32.73427"></scales>
<mgrwt>
<rscale>  0 0.30000000E+03</rscale>
<asrwt>  1 0.32734271E+02</asrwt>
<pdfrwt beam="1">  1        1 0.80235950E+00 0.30000000E+03</pdfrwt>
<pdfrwt beam="2">0</pdfrwt>
<totfact> 0.10095628E-03</totfact>
</mgrwt>
<clustering>
<clus scale="   32.734">  1  6  2 -1</clus>
<clus scale="  458.757">  4  5 -1 -1</clus>
<clus scale="  300.000">  1  4  2 -1</clus>
</clustering>
</event>
<event>
 6    1  0.9480355E-012  0.3000000E+03  0.7818608E-02  0.1093470E+00
          1   -1    0    0  502    0  0.00000000000E+00  0.00000000000E+00  0.26213022509E+03  0.26213022509E+03  0.00000000000E+00 0.  1.
         13   -1    0    0    0    0 -0.00000000000E+00 -0.00000000000E+00 -0.27500000000E+03  0.27500000000E+03  0.00000000000E+00 0.  1.
    9000005    2    1    2  501    0 -0.29887807308E+01 -0.30998156802E+02 -0.21855410930E+02  0.50471787883E+03  0.50328188889E+03 0.  0.
         13    1    3    3    0    0 -0.75448096511E+02  0.18561073878E+03  0.12219392808E+03  0.23468088477E+03  0.00000000000E+00 0.  1.
          1    1    3    3  501    0  0.72459315781E+02 -0.21660889558E+03 -0.14404933901E+03  0.27003699406E+03  0.00000000000E+00 0.  1.
         21    1    1    2  502  501  0.29887807308E+01  0.30998156802E+02  0.89856360164E+01  0.32412346259E+02  0.00000000000E+00 0.  1.
<scales pt_clust_4="550.00000" pt_clust_5="550.00000" pt_clust_6="31.14191"></scales>
<mgrwt>
<rscale>  0 0.30000000E+03</rscale>
<asrwt>  1 0.31141910E+02</asrwt>
<pdfrwt beam="1">  1        1 0.95320082E+00 0.30000000E+03</pdfrwt>
<pdfrwt beam="2">0</pdfrwt>
<totfact> 0.10828550E-05</totfact>
</mgrwt>
<clustering>
<clus scale="   31.142">  1  6  2 -1</clus>
<clus scale="  503.282">  4  5 -1 -1</clus>
<clus scale="  300.000">  1  4  2 -1</clus>
</clustering>
</event>
<event>
 6    1  0.9480355E-012  0.3000000E+03  0.7818608E-02  0.1093470E+00
          1   -1    0    0  502    0  0.00000000000E+00  0.00000000000E+00  0.24373257850E+03  0.24373257850E+03  0.00000000000E+00 0.  1.
         13   -1    0    0    0    0 -0.00000000000E+00 -0.00000000000E+00 -0.27500000000E+03  0.27500000000E+03  0.00000000000E+00 0.  1.
    9000005    2    1    2  501    0  0.20328965581E+02 -0.23296114884E+02 -0.55895044609E+02  0.47920416302E+03  0.47492778191E+03 0.  0.
         13    1    3    3    0    0 -0.82860039814E+02  0.20590311960E+03 -0.11425037774E+01  0.22195311706E+03  0.00000000000E+00 0.  1.
          3    1    3    3  501    0  0.10318900539E+03 -0.22919923448E+03 -0.54752540831E+02  0.25725104596E+03  0.00000000000E+00 0.  1.
         21    1    1    2  502  501 -0.20328965581E+02  0.23296114884E+02  0.24627623105E+02  0.39528415477E+02  0.00000000000E+00 0. -1.
<scales pt_clust_4="550.00000" pt_clust_5="550.00000" pt_clust_6="30.91886"></scales>
<mgrwt>
<rscale>  0 0.30000000E+03</rscale>
<asrwt>  1 0.30918858E+02</asrwt>
<pdfrwt beam="1">  1        1 0.88630029E+00 0.30000000E+03</pdfrwt>
<pdfrwt beam="2">0</pdfrwt>
<totfact> 0.16672192E-04</totfact>
</mgrwt>
<clustering>
<clus scale="   30.919">  1  6  2 -1</clus>
<clus scale="  474.928">  4  5 -1 -1</clus>
<clus scale="  300.000">  1  4  2 -1</clus>
</clustering>
</event>
<event>
 6    1  0.9480355E-012  0.3000000E+03  0.7818608E-02  0.1093470E+00
          1   -1    0    0  502    0  0.00000000000E+00  0.00000000000E+00  0.23936598731E+03  0.23936598731E+03  0.00000000000E+00 0.  1.
         13   -1    0    0    0    0 -0.00000000000E+00 -0.00000000000E+00 -0.27500000000E+03  0.27500000000E+03  0.00000000000E+00 0.  1.
    9000005    2    1    2  501    0 -0.36991849716E+01  0.35386190239E+02 -0.45790044196E+02  0.47736583319E+03  0.47383071251E+03 0.  0.
         13    1    3    3    0    0 -0.10511690434E+03 -0.13379674091E+03  0.12922878376E+03  0.21366143782E+03  0.00000000000E+00 0.  1.
          1    1    3    3  501    0  0.10141771937E+03  0.16918293115E+03 -0.17501882796E+03  0.26370439537E+03  0.00000000000E+00 0.  1.
         21    1    1    2  502  501  0.36991849716E+01 -0.35386190239E+02  0.10156031502E+02  0.37000154121E+02  0.00000000000E+00 0. -1.
<scales pt_clust_4="550.00000" pt_clust_5="550.00000" pt_clust_6="35.57902"></scales>
<mgrwt>
<rscale>  0 0.30000000E+03</rscale>
<asrwt>  1 0.35579017E+02</asrwt>
<pdfrwt beam="1">  1        1 0.87042177E+00 0.30000000E+03</pdfrwt>
<pdfrwt beam="2">0</pdfrwt>
<totfact> 0.24998305E-04</totfact>
</mgrwt>
<clustering>
<clus scale="   35.579">  1  6  2 -1</clus>
<clus scale="  473.831">  4  5 -1 -1</clus>
<clus scale="  300.000">  1  4  2 -1</clus>
</clustering>
</event>
<event>
 6    1  0.9480355E-012  0.3000000E+03  0.7818608E-02  0.1093470E+00
          1   -1    0    0  502    0  0.00000000000E+00  0.00000000000E+00  0.23585120910E+03  0.23585120910E+03  0.00000000000E+00 0.  1.
         13   -1    0    0    0    0 -0.00000000000E+00 -0.00000000000E+00 -0.27500000000E+03  0.27500000000E+03  0.00000000000E+00 0.  1.
    9000005    2    1    2  501    0 -0.21495356190E+02 -0.22886347834E+02 -0.48643879568E+02  0.47804889266E+03  0.47452995849E+03 0.  0.
         13    1    3    3    0    0 -0.21568234154E+03 -0.15556451321E+02 -0.14578603493E+03  0.26079578910E+03  0.00000000000E+00 0.  1.
          1    1    3    3  501    0  0.19418698535E+03 -0.73298965134E+01  0.97142155366E+02  0.21725310357E+03  0.00000000000E+00 0.  1.
         21    1    1    2  502  501  0.21495356190E+02  0.22886347834E+02  0.94950886709E+01  0.32802316440E+02  0.00000000000E+00 0.  1.
<scales pt_clust_4="550.00000" pt_clust_5="550.00000" pt_clust_6="31.39801"></scales>
<mgrwt>
<rscale>  0 0.30000000E+03</rscale>
<asrwt>  1 0.31398014E+02</asrwt>
<pdfrwt beam="1">  1        1 0.85764076E+00 0.30000000E+03</pdfrwt>
<pdfrwt beam="2">0</pdfrwt>
<totfact> 0.34961485E-04</totfact>
</mgrwt>
<clustering>
<clus scale="   31.398">  1  6  2 -1</clus>
<clus scale="  474.530">  4  5 -1 -1</clus>
<clus scale="  300.000">  1  4  2 -1</clus>
</clustering>
</event>
<event>
 6    1  0.9480355E-012  0.3000000E+03  0.7818608E-02  0.1093470E+00
          1   -1    0    0  502    0  0.00000000000E+00  0.00000000000E+00  0.24052004844E+03  0.24052004844E+03  0.00000000000E+00 0.  1.
         13   -1    0    0    0    0 -0.00000000000E+00 -0.00000000000E+00 -0.27500000000E+03  0.27500000000E+03  0.00000000000E+00 0.  1.
    9000005    2    1    2  501    0 -0.20652729786E+01  0.35923439962E+02 -0.62913669874E+02  0.46965900584E+03  0.46403307320E+03 0.  0.
         13    1    3    3    0    0  0.56710401399E+02 -0.68096953965E+02  0.17906372085E+03  0.19979259468E+03  0.00000000000E+00 0.  1.
          3    1    3    3  501    0 -0.58775674378E+02  0.10402039393E+03 -0.24197739072E+03  0.26986641116E+03  0.00000000000E+00 0.  1.
         21    1    1    2  502  501  0.20652729786E+01 -0.35923439962E+02  0.28433718319E+02  0.45861042603E+02  0.00000000000E+00 0. -1.
<scales pt_clust_4="550.00000" pt_clust_5="550.00000" pt_clust_6="35.98276"></scales>
<mgrwt>
<rscale>  0 0.30000000E+03</rscale>
<asrwt>  1 0.35982758E+02</asrwt>
<pdfrwt beam="1">  1        1 0.87461836E+00 0.30000000E+03</pdfrwt>
<pdfrwt beam="2">0</pdfrwt>
<totfact> 0.22585111E-04</totfact>
</mgrwt>
<clustering>
<clus scale="   35.983">  1  6  2 -1</clus>
<clus scale="  464.033">  4  5 -1 -1</clus>
<clus scale="  300.000">  1  4  2 -1</clus>
</clustering>
</event>
<event>
 6    1  0.9480355E-012  0.3000000E+03  0.7818608E-02  0.1093470E+00
          1   -1    0    0  502    0  0.00000000000E+00  0.00000000000E+00  0.21814274874E+03  0.21814274874E+03  0.00000000000E+00 0.  1.
         13   -1    0    0    0    0 -0.00000000000E+00 -0.00000000000E+00 -0.27500000000E+03  0.27500000000E+03  0.00000000000E+00 0.  1.
    9000005    2    1    2  501    0 -0.29723168523E+02 -0.53818252800E+01 -0.63636632840E+02  0.46218486114E+03  0.45678528220E+03 0.  0.
         13    1    3    3    0    0 -0.28163710672E+02  0.13208607858E+03  0.15395769067E+03  0.20479965153E+03  0.00000000000E+00 0.  1.
          1    1    3    3  501    0 -0.15594578508E+01 -0.13746790386E+03 -0.21759432351E+03  0.25738520960E+03  0.00000000000E+00 0.  1.
         21    1    1    2  502  501  0.29723168523E+02  0.53818252800E+01  0.67793815804E+01  0.30957887606E+02  0.00000000000E+00 0.  1.
<scales pt_clust_4="550.00000" pt_clust_5="550.00000" pt_clust_6="30.20647"></scales>
<mgrwt>
<rscale>  0 0.30000000E+03</rscale>
<asrwt>  1 0.30206469E+02</asrwt>
<pdfrwt beam="1">  1        1 0.79324636E+00 0.30000000E+03</pdfrwt>
<pdfrwt beam="2">0</pdfrwt>
<totfact> 0.11960528E-03</totfact>
</mgrwt>
<clustering>
<clus scale="   30.206">  1  6  2 -1</clus>
<clus scale="  456.785">  4  5 -1 -1</clus>
<clus scale="  300.000">  1  4  2 -1</clus>
</clustering>
</event>
<event>
 6    1  0.9480355E-012  0.3000000E+03  0.7818608E-02  0.1093470E+00
          1   -1    0    0  502    0  0.00000000000E+00  0.00000000000E+00  0.24297528269E+03  0.24297528269E+03  0.00000000000E+00 0.  1.
         13   -1    0    0    0    0 -0.00000000000E+00 -0.00000000000E+00 -0.27500000000E+03  0.27500000000E+03  0.00000000000E+00 0.  1.
    9000005    2    1    2  501    0  0.37233341208E+02 -0.78019745073E+01 -0.47703238472E+02  0.47682909781E+03  0.47290929052E+03 0.  0.
         13    1    3    3    0    0  0.64886659523E+02 -0.23342109228E+03  0.94159725369E+01  0.24245483176E+03  0.00000000000E+00 0.  1.
          3    1    3    3  501    0 -0.27653318315E+02  0.22561911778E+03 -0.57119211009E+02  0.23437426605E+03  0.00000000000E+00 0.  1.
         21    1    1    2  502  501 -0.37233341208E+02  0.78019745073E+01  0.15678521159E+02  0.41146184872E+02  0.00000000000E+00 0.  1.
<scales pt_clust_4="550.00000" pt_clust_5="550.00000" pt_clust_6="38.04198"></scales>
<mgrwt>
<rscale>  0 0.30000000E+03</rscale>
<asrwt>  1 0.38041983E+02</asrwt>
<pdfrwt beam="1">  1        1 0.88354648E+00 0.30000000E+03</pdfrwt>
<pdfrwt beam="2">0</pdfrwt>
<totfact> 0.17487256E-04</totfact>
</mgrwt>
<clustering>
<clus scale="   38.042">  1  6  2 -1</clus>
<clus scale="  472.909">  4  5 -1 -1</clus>
<clus scale="  300.000">  1  4  2 -1</clus>
</clustering>
</event>
<event>
 6    1  0.9480355E-012  0.3000000E+03  0.7818608E-02  0.1093470E+00
          1   -1    0    0  502    0  0.00000000000E+00  0.00000000000E+00  0.22460084446E+03  0.22460084446E+03  0.00000000000E+00 0.  1.
         13   -1    0    0    0    0 -0.00000000000E+00 -0.00000000000E+00 -0.27500000000E+03  0.27500000000E+03  0.00000000000E+00 0.  1.
    9000005    2    1    2  501    0 -0.16672850328E+02 -0.27003970074E+02 -0.52151901434E+02  0.46781609252E+03  0.46381556384E+03 0.  0.
         13    1    3    3    0    0  0.14760705897E+03 -0.18108539184E+03 -0.64135327706E+02  0.24226659542E+03  0.00000000000E+00 0.  1.
          1    1    3    3  501    0 -0.16427990930E+03  0.15408142177E+03  0.11983426272E+02  0.22554949709E+03  0.00000000000E+00 0.  1.
         21    1    1    2  502  501  0.16672850328E+02  0.27003970074E+02  0.17527458938E+01  0.31784751942E+02  0.00000000000E+00 0. -1.
<scales pt_clust_4="550.00000" pt_clust_5="550.00000" pt_clust_6="31.73639"></scales>
<mgrwt>
<rscale>  0 0.30000000E+03</rscale>
<asrwt>  1 0.31736388E+02</asrwt>
<pdfrwt beam="1">  1        1 0.81673034E+00 0.30000000E+03</pdfrwt>
<pdfrwt beam="2">0</pdfrwt>
<totfact> 0.78499243E-04</totfact>
</mgrwt>
<clustering>
<clus scale="   31.736">  1  6  2 -1</clus>
<clus scale="  463.816">  4  5 -1 -1</clus>
<clus scale="  300.000">  1  4  2 -1</clus>
</clustering>
</event>
<event>
 6    1  0.9480355E-012  0.3000000E+03  0.7818608E-02  0.1093470E+00
          1   -1    0    0  502    0  0.00000000000E+00  0.00000000000E+00  0.24082162363E+03  0.24082162363E+03  0.00000000000E+00 0.  1.
         13   -1    0    0    0    0 -0.00000000000E+00 -0.00000000000E+00 -0.27500000000E+03  0.27500000000E+03  0.00000000000E+00 0.  1.
    9000005    2    1    2  501    0 -0.43430131827E+02 -0.22034181577E+01 -0.40227829227E+02  0.47191687125E+03  0.46818396355E+03 0.  0.
         13    1    3    3    0    0 -0.15441907545E+03 -0.53799572638E+02  0.16542019431E+03  0.23260155968E+03  0.00000000000E+00 0.  1.
          3    1    3    3  501    0  0.11098894362E+03  0.51596154480E+02 -0.20564802354E+03  0.23931531157E+03  0.00000000000E+00 0.  1.
         21    1    1    2  502  501  0.43430131827E+02  0.22034181577E+01  0.60494528599E+01  0.43904752385E+02  0.00000000000E+00 0. -1.
<scales pt_clust_4="550.00000" pt_clust_5="550.00000" pt_clust_6="43.48599"></scales>
<mgrwt>
<rscale>  0 0.30000000E+03</rscale>
<asrwt>  1 0.43485991E+02</asrwt>
<pdfrwt beam="1">  1        1 0.87571500E+00 0.30000000E+03</pdfrwt>
<pdfrwt beam="2">0</pdfrwt>
<totfact> 0.21239138E-04</totfact>
</mgrwt>
<clustering>
<clus scale="   43.486">  1  6  2 -1</clus>
<clus scale="  468.184">  4  5 -1 -1</clus>
<clus scale="  300.000">  1  4  2 -1</clus>
</clustering>
</event>
<event>
 6    1  0.9480355E-012  0.3000000E+03  0.7818608E-02  0.1093470E+00
          1   -1    0    0  502    0  0.00000000000E+00  0.00000000000E+00  0.23788226641E+03  0.23788226641E+03  0.00000000000E+00 0.  1.
         13   -1    0    0    0    0 -0.00000000000E+00 -0.00000000000E+00 -0.27500000000E+03  0.27500000000E+03  0.00000000000E+00 0.  1.
    9000005    2    1    2  501    0 -0.58137581685E+01  0.35530113394E+02 -0.63671626885E+02  0.46814639723E+03  0.46239678246E+03 0.  0.
         13    1    3    3    0    0  0.33325557357E+01 -0.77170777413E+02 -0.24364775208E+03  0.25559863440E+03  0.00000000000E+00 0.  1.
          3    1    3    3  501    0 -0.91463139042E+01  0.11270089081E+03  0.17997612519E+03  0.21254776283E+03  0.00000000000E+00 0.  1.
         21    1    1    2  502  501  0.58137581685E+01 -0.35530113394E+02  0.26553893291E+02  0.44735869174E+02  0.00000000000E+00 0. -1.
<scales pt_clust_4="550.00000" pt_clust_5="550.00000" pt_clust_6="36.00262"></scales>
<mgrwt>
<rscale>  0 0.30000000E+03</rscale>
<asrwt>  1 0.36002621E+02</asrwt>
<pdfrwt beam="1">  1        1 0.86502642E+00 0.30000000E+03</pdfrwt>
<pdfrwt beam="2">0</pdfrwt>
<totfact> 0.28401430E-04</totfact>
</mgrwt>
<clustering>
<clus scale="   36.003">  1  6  2 -1</clus>
<clus scale="  462.397">  4  5 -1 -1</clus>
<clus scale="  300.000">  1  4  2 -1</clus>
</clustering>
</event>
<event>
 6    1  0.9480355E-012  0.3000000E+03  0.7818608E-02  0.1093470E+00
          1   -1    0    0  502    0  0.00000000000E+00  0.00000000000E+00  0.24971302138E+03  0.24971302138E+03  0.00000000000E+00 0.  1.
         13   -1    0    0    0    0 -0.00000000000E+00 -0.00000000000E+00 -0.27500000000E+03  0.27500000000E+03  0.00000000000E+00 0.  1.
    9000005    2    1    2  501    0  0.23692628989E+02  0.25863528512E+02 -0.53567347603E+02  0.47965703348E+03  0.47536422485E+03 0.  0.
         13    1    3    3    0    0 -0.16991776239E+03  0.10118828856E+03  0.99715295409E+02  0.22148195379E+03  0.00000000000E+00 0.  1.
          3    1    3    3  501    0  0.19361039138E+03 -0.75324760050E+02 -0.15328264301E+03  0.25817507969E+03  0.00000000000E+00 0.  1.
         21    1    1    2  502  501 -0.23692628989E+02 -0.25863528512E+02  0.28280368985E+02  0.45055987897E+02  0.00000000000E+00 0.  1.
<scales pt_clust_4="550.00000" pt_clust_5="550.00000" pt_clust_6="35.07510"></scales>
<mgrwt>
<rscale>  0 0.30000000E+03</rscale>
<asrwt>  1 0.35075102E+02</asrwt>
<pdfrwt beam="1">  1        1 0.90804735E+00 0.30000000E+03</pdfrwt>
<pdfrwt beam="2">0</pdfrwt>
<totfact> 0.79846186E-05</totfact>
</mgrwt>
<clustering>
<clus scale="   35.075">  1  6  2 -1</clus>
<clus scale="  475.364">  4  5 -1 -1</clus>
<clus scale="  300.000">  1  4  2 -1</clus>
</clustering>
</event>
<event>
 6    1  0.9480355E-012  0.3000000E+03  0.7818608E-02  0.1093470E+00
          1   -1    0    0  502    0  0.00000000000E+00  0.00000000000E+00  0.22327777910E+03  0.22327777910E+03  0.00000000000E+00 0.  1.
         13   -1    0    0    0    0 -0.00000000000E+00 -0.00000000000E+00 -0.27500000000E+03  0.27500000000E+03  0.00000000000E+00 0.  1.
    9000005    2    1    2  501    0  0.72331398345E+01 -0.32942855992E+02 -0.61831165435E+02  0.46306782550E+03  0.45768020268E+03 0.  0.
         13    1    3    3    0    0 -0.14710665528E+03  0.45143136387E+02  0.13238979708E+03  0.20299095832E+03  0.00000000000E+00 0.  1.
          3    1    3    3  501    0  0.15433979511E+03 -0.78085992379E+02 -0.19422096252E+03  0.26007686718E+03  0.00000000000E+00 0.  1.
         21    1    1    2  502  501 -0.72331398345E+01  0.32942855992E+02  0.10108944534E+02  0.35209953598E+02  0.00000000000E+00 0.  1.
<scales pt_clust_4="550.00000" pt_clust_5="550.00000" pt_clust_6="33.72759"></scales>
<mgrwt>
<rscale>  0 0.30000000E+03</rscale>
<asrwt>  1 0.33727586E+02</asrwt>
<pdfrwt beam="1">  1        1 0.81191920E+00 0.30000000E+03</pdfrwt>
<pdfrwt beam="2">0</pdfrwt>
<totfact> 0.84830664E-04</totfact>
</mgrwt>
<clustering>
<clus scale="   33.728">  1  6  2 -1</clus>
<clus scale="  457.680">  4  5 -1 -1</clus>
<clus scale="  300.000">  1  4  2 -1</clus>
</clustering>
</event>
<event>
 6    1  0.9480355E-012  0.3000000E+03  0.7818608E-02  0.1093470E+00
          1   -1    0    0  502    0  0.00000000000E+00  0.00000000000E+00  0.23030188100E+03  0.23030188100E+03  0.00000000000E+00 0.  1.
         13   -1    0    0    0    0 -0.00000000000E+00 -0.00000000000E+00 -0.27500000000E+03  0.27500000000E+03  0.00000000000E+00 0.  1.
    9000005    2    1    2  501    0  0.98387997382E+01  0.34217616737E+02 -0.67103816692E+02  0.46323452353E+03  0.45696351528E+03 0.  0.
         13    1    3    3    0    0 -0.84567647500E+02 -0.18816857903E+03  0.18014328064E+02  0.20708359943E+03  0.00000000000E+00 0.  1.
          3    1    3    3  501    0  0.94406447238E+02  0.22238619577E+03 -0.85118144757E+02  0.25615092410E+03  0.00000000000E+00 0.  1.
         21    1    1    2  502  501 -0.98387997382E+01 -0.34217616737E+02  0.22405697690E+02  0.42067357469E+02  0.00000000000E+00 0.  1.
<scales pt_clust_4="550.00000" pt_clust_5="550.00000" pt_clust_6="35.60403"></scales>
<mgrwt>
<rscale>  0 0.30000000E+03</rscale>
<asrwt>  1 0.35604035E+02</asrwt>
<pdfrwt beam="1">  1        1 0.83746139E+00 0.30000000E+03</pdfrwt>
<pdfrwt beam="2">0</pdfrwt>
<totfact> 0.51750337E-04</totfact>
</mgrwt>
<clustering>
<clus scale="   35.604">  1  6  2 -1</clus>
<clus scale="  456.964">  4  5 -1 -1</clus>
<clus scale="  300.000">  1  4  2 -1</clus>
</clustering>
</event>
<event>
 6    1  0.9480355E-012  0.3000000E+03  0.7818608E-02  0.1093470E+00
          1   -1    0    0  502    0  0.00000000000E+00  0.00000000000E+00  0.23119634610E+03  0.23119634610E+03  0.00000000000E+00 0.  1.
         13   -1    0    0    0    0 -0.00000000000E+00 -0.00000000000E+00 -0.27500000000E+03  0.27500000000E+03  0.00000000000E+00 0.  1.
    9000005    2    1    2  501    0  0.31414068277E+02 -0.20628677899E+02 -0.56136897246E+02  0.46664264932E+03  0.46172678598E+03 0.  0.
         13    1    3    3    0    0 -0.66403492079E+02  0.20586819882E+03 -0.18980375786E+02  0.21714371672E+03  0.00000000000E+00 0.  1.
          1    1    3    3  501    0  0.97817560355E+02 -0.22649687672E+03 -0.37156521460E+02  0.24949893259E+03  0.00000000000E+00 0.  1.
         21    1    1    2  502  501 -0.31414068277E+02  0.20628677899E+02  0.12333243343E+02  0.39553696779E+02  0.00000000000E+00 0.  1.
<scales pt_clust_4="550.00000" pt_clust_5="550.00000" pt_clust_6="37.58172"></scales>
<mgrwt>
<rscale>  0 0.30000000E+03</rscale>
<asrwt>  1 0.37581725E+02</asrwt>
<pdfrwt beam="1">  1        1 0.84071399E+00 0.30000000E+03</pdfrwt>
<pdfrwt beam="2">0</pdfrwt>
<totfact> 0.48429200E-04</totfact>
</mgrwt>
<clustering>
<clus scale="   37.582">  1  6  2 -1</clus>
<clus scale="  461.727">  4  5 -1 -1</clus>
<clus scale="  300.000">  1  4  2 -1</clus>
</clustering>
</event>
<event>
 6    1  0.9480355E-012  0.3000000E+03  0.7818608E-02  0.1093470E+00
          1   -1    0    0  502    0  0.00000000000E+00  0.00000000000E+00  0.24139142218E+03  0.24139142218E+03  0.00000000000E+00 0.  1.
         13   -1    0    0    0    0 -0.00000000000E+00 -0.00000000000E+00 -0.27500000000E+03  0.27500000000E+03  0.00000000000E+00 0.  1.
    9000005    2    1    2  501    0 -0.24954171200E+02 -0.17940799795E+02 -0.70085728148E+02  0.46869272771E+03  0.46240272573E+03 0.  0.
         13    1    3    3    0    0 -0.68006314677E+02 -0.16502088434E+03  0.12698452705E+03  0.21904753186E+03  0.00000000000E+00 0.  1.
          1    1    3    3  501    0  0.43052143476E+02  0.14708008454E+03 -0.19707025520E+03  0.24964519585E+03  0.00000000000E+00 0.  1.
         21    1    1    2  502  501  0.24954171200E+02  0.17940799795E+02  0.36477150325E+02  0.47698694462E+02  0.00000000000E+00 0. -1.
<scales pt_clust_4="550.00000" pt_clust_5="550.00000" pt_clust_6="30.73407"></scales>
<mgrwt>
<rscale>  0 0.30000000E+03</rscale>
<asrwt>  1 0.30734068E+02</asrwt>
<pdfrwt beam="1">  1        1 0.87778699E+00 0.30000000E+03</pdfrwt>
<pdfrwt beam="2">0</pdfrwt>
<totfact> 0.21489755E-04</totfact>
</mgrwt>
<clustering>
<clus scale="   30.734">  1  6  2 -1</clus>
<clus scale="  462.403">  4  5 -1 -1</clus>
<clus scale="  300.000">  1  4  2 -1</clus>
</clustering>
</event>
<event>
 6    1  0.9480355E-012  0.3000000E+03  0.7818608E-02  0.1093470E+00
          1   -1    0    0  502    0  0.00000000000E+00  0.00000000000E+00  0.24158693478E+03  0.24158693478E+03  0.00000000000E+00 0.  1.
         13   -1    0    0    0    0 -0.00000000000E+00 -0.00000000000E+00 -0.27500000000E+03  0.27500000000E+03  0.00000000000E+00 0.  1.
    9000005    2    1    2  501    0 -0.18727464141E+02  0.27293041989E+02 -0.63073215716E+02  0.47214199602E+03  0.46673783413E+03 0.  0.
         13    1    3    3    0    0  0.18916571104E+03 -0.23842661959E+02  0.88125833379E+02  0.21004356994E+03  0.00000000000E+00 0.  1.
          1    1    3    3  501    0 -0.20789317518E+03  0.51135703947E+02 -0.15119904910E+03  0.26209842608E+03  0.00000000000E+00 0.  1.
         21    1    1    2  502  501  0.18727464141E+02 -0.27293041989E+02  0.29660150492E+02  0.44444938760E+02  0.00000000000E+00 0.  1.
<scales pt_clust_4="550.00000" pt_clust_5="550.00000" pt_clust_6="33.10027"></scales>
<mgrwt>
<rscale>  0 0.30000000E+03</rscale>
<asrwt>  1 0.33100273E+02</asrwt>
<pdfrwt beam="1">  1        1 0.87849794E+00 0.30000000E+03</pdfrwt>
<pdfrwt beam="2">0</pdfrwt>
<totfact> 0.20792059E-04</totfact>
</mgrwt>
<clustering>
<clus scale="   33.100">  1  6  2 -1</clus>
<clus scale="  466.738">  4  5 -1 -1</clus>
<clus scale="  300.000">  1  4  2 -1</clus>
</clustering>
</event>
<event>
 6    1  0.9480355E-012  0.3000000E+03  0.7818608E-02  0.1093470E+00
          1   -1    0    0  502    0  0.00000000000E+00  0.00000000000E+00  0.22662604275E+03  0.22662604275E+03  0.00000000000E+00 0.  1.
         13   -1    0    0    0    0 -0.00000000000E+00 -0.00000000000E+00 -0.27500000000E+03  0.27500000000E+03  0.00000000000E+00 0.  1.
    9000005    2    1    2  501    0 -0.29742299078E+02  0.25771320714E+02 -0.56020650806E+02  0.46153567922E+03  0.45642973671E+03 0.  0.
         13    1    3    3    0    0 -0.50976984332E+02  0.19596068256E+03 -0.16253106117E+03  0.25964511912E+03  0.00000000000E+00 0.  1.
          3    1    3    3  501    0  0.21234685255E+02 -0.17018936184E+03  0.10651041036E+03  0.20189056010E+03  0.00000000000E+00 0.  1.
         21    1    1    2  502  501  0.29742299078E+02 -0.25771320714E+02  0.76466935595E+01  0.40090363532E+02  0.00000000000E+00 0.  1.
<scales pt_clust_4="550.00000" pt_clust_5="550.00000" pt_clust_6="39.35436"></scales>
<mgrwt>
<rscale>  0 0.30000000E+03</rscale>
<asrwt>  1 0.39354356E+02</asrwt>
<pdfrwt beam="1">  1        1 0.82409470E+00 0.30000000E+03</pdfrwt>
<pdfrwt beam="2">0</pdfrwt>
<totfact> 0.65116715E-04</totfact>
</mgrwt>
<clustering>
<clus scale="   39.354">  1  6  2 -1</clus>
<clus scale="  456.430">  4  5 -1 -1</clus>
<clus scale="  300.000">  1  4  2 -1</clus>
</clustering>
</event>
<event>
 6    1  0.9480355E-012  0.3000000E+03  0.7818608E-02  0.1093470E+00
          1   -1    0    0  502    0  0.00000000000E+00  0.00000000000E+00  0.24049945731E+03  0.24049945731E+03  0.00000000000E+00 0.  1.
         13   -1    0    0    0    0 -0.00000000000E+00 -0.00000000000E+00 -0.27500000000E+03  0.27500000000E+03  0.00000000000E+00 0.  1.
    9000005    2    1    2  501    0 -0.11579444434E+02 -0.42586246578E+02 -0.41868844430E+02  0.47075614718E+03  0.46680903809E+03 0.  0.
         13    1    3    3    0    0 -0.15847871911E+03 -0.16769877925E+03 -0.12295885518E+03  0.26145222324E+03  0.00000000000E+00 0.  1.
          3    1    3    3  501    0  0.14689927468E+03  0.12511253267E+03  0.81090010750E+02  0.20930392394E+03  0.00000000000E+00 0.  1.
         21    1    1    2  502  501  0.11579444434E+02  0.42586246578E+02  0.73683017438E+01  0.44743310132E+02  0.00000000000E+00 0.  1.
<scales pt_clust_4="550.00000" pt_clust_5="550.00000" pt_clust_6="44.13244"></scales>
<mgrwt>
<rscale>  0 0.30000000E+03</rscale>
<asrwt>  1 0.44132436E+02</asrwt>
<pdfrwt beam="1">  1        1 0.87454348E+00 0.30000000E+03</pdfrwt>
<pdfrwt beam="2">0</pdfrwt>
<totfact> 0.21797969E-04</totfact>
</mgrwt>
<clustering>
<clus scale="   44.132">  1  6  2 -1</clus>
<clus scale="  466.809">  4  5 -1 -1</clus>
<clus scale="  300.000">  1  4  2 -1</clus>
</clustering>
</event>
<event>
 6    1  0.9480355E-012  0.3000000E+03  0.7818608E-02  0.1093470E+00
          1   -1    0    0  502    0  0.00000000000E+00  0.00000000000E+00  0.23321795764E+03  0.23321795764E+03  0.00000000000E+00 0.  1.
         13   -1    0    0    0    0 -0.00000000000E+00 -0.00000000000E+00 -0.27500000000E+03  0.27500000000E+03  0.00000000000E+00 0.  1.
    9000005    2    1    2  501    0  0.41759885315E+02 -0.13441224312E+02 -0.53377116248E+02  0.46284174943E+03  0.45765578107E+03 0.  0.
         13    1    3    3    0    0 -0.16045575704E+03 -0.47693294803E+02  0.11027766153E+03  0.20045414181E+03  0.00000000000E+00 0.  1.
          3    1    3    3  501    0  0.20221564235E+03  0.34252070491E+02 -0.16365477778E+03  0.26238760763E+03  0.00000000000E+00 0.  1.
         21    1    1    2  502  501 -0.41759885315E+02  0.13441224312E+02  0.11595073888E+02  0.45376208205E+02  0.00000000000E+00 0. -1.
<scales pt_clust_4="550.00000" pt_clust_5="550.00000" pt_clust_6="43.86975"></scales>
<mgrwt>
<rscale>  0 0.30000000E+03</rscale>
<asrwt>  1 0.43869745E+02</asrwt>
<pdfrwt beam="1">  1        1 0.84806530E+00 0.30000000E+03</pdfrwt>
<pdfrwt beam="2">0</pdfrwt>
<totfact> 0.40695961E-04</totfact>
</mgrwt>
<clustering>
<clus scale="   43.870">  1  6  2 -1</clus>
<clus scale="  457.656">  4  5 -1 -1</clus>
<clus scale="  300.000">  1  4  2 -1</clus>
</clustering>
</event>
<event>
 6    1  0.9480355E-012  0.3000000E+03  0.7818608E-02  0.1093470E+00
          1   -1    0    0  502    0  0.00000000000E+00  0.00000000000E+00  0.23958608760E+03  0.23958608760E+03  0.00000000000E+00 0.  1.
         13   -1    0    0    0    0 -0.00000000000E+00 -0.00000000000E+00 -0.27500000000E+03  0.27500000000E+03  0.00000000000E+00 0.  1.
    9000005    2    1    2  501    0 -0.25892908756E+02 -0.33422751002E+02 -0.46336278831E+02  0.47091892492E+03  0.46672268008E+03 0.  0.
         13    1    3    3    0    0 -0.51369530372E+02  0.18881708276E+03 -0.12682339356E+03  0.23318424592E+03  0.00000000000E+00 0.  1.
          3    1    3    3  501    0  0.25476621616E+02 -0.22223983376E+03  0.80487114726E+02  0.23773467900E+03  0.00000000000E+00 0.  1.
         21    1    1    2  502  501  0.25892908756E+02  0.33422751002E+02  0.10922366434E+02  0.43667162684E+02  0.00000000000E+00 0.  1.
<scales pt_clust_4="550.00000" pt_clust_5="550.00000" pt_clust_6="42.27911"></scales>
<mgrwt>
<rscale>  0 0.30000000E+03</rscale>
<asrwt>  1 0.42279108E+02</asrwt>
<pdfrwt beam="1">  1        1 0.87122214E+00 0.30000000E+03</pdfrwt>
<pdfrwt beam="2">0</pdfrwt>
<totfact> 0.23767829E-04</totfact>
</mgrwt>
<clustering>
<clus scale="   42.279">  1  6  2 -1</clus>
<clus scale="  466.723">  4  5 -1 -1</clus>
<clus scale="  300.000">  1  4  2 -1</clus>
</clustering>
</event>
<event>
 6    1  0.9480355E-012  0.3000000E+03  0.7818608E-02  0.1093470E+00
          1   -1    0    0  502    0  0.00000000000E+00  0.00000000000E+00  0.24053455798E+03  0.24053455798E+03  0.00000000000E+00 0.  1.
         13   -1    0    0    0    0 -0.00000000000E+00 -0.00000000000E+00 -0.27500000000E+03  0.27500000000E+03  0.00000000000E+00 0.  1.
    9000005    2    1    2  501    0 -0.26075943383E+02  0.19523347391E+02 -0.63836848210E+02  0.47167346567E+03  0.46619695314E+03 0.  0.
         13    1    3    3    0    0 -0.18396769179E+03 -0.85940504403E+01  0.12601161054E+03  0.22315217973E+03  0.00000000000E+00 0.  1.
          3    1    3    3  501    0  0.15789174841E+03  0.28117397831E+02 -0.18984845875E+03  0.24852128594E+03  0.00000000000E+00 0.  1.
         21    1    1    2  502  501  0.26075943383E+02 -0.19523347391E+02  0.29371406189E+02  0.43861092305E+02  0.00000000000E+00 0. -1.
<scales pt_clust_4="550.00000" pt_clust_5="550.00000" pt_clust_6="32.57477"></scales>
<mgrwt>
<rscale>  0 0.30000000E+03</rscale>
<asrwt>  1 0.32574774E+02</asrwt>
<pdfrwt beam="1">  1        1 0.87467112E+00 0.30000000E+03</pdfrwt>
<pdfrwt beam="2">0</pdfrwt>
<totfact> 0.22981724E-04</totfact>
</mgrwt>
<clustering>
<clus scale="   32.575">  1  6  2 -1</clus>
<clus scale="  466.197">  4  5 -1 -1</clus>
<clus scale="  300.000">  1  4  2 -1</clus>
</clustering>
</event>
<event>
 6    1  0.9480355E-012  0.3000000E+03  0.7818608E-02  0.1093470E+00
          1   -1    0    0  502    0  0.00000000000E+00  0.00000000000E+00  0.22093796518E+03  0.22093796518E+03  0.00000000000E+00 0.  1.
         13   -1    0    0    0    0 -0.00000000000E+00 -0.00000000000E+00 -0.27500000000E+03  0.27500000000E+03  0.00000000000E+00 0.  1.
    9000005    2    1    2  501    0  0.29218785210E+02 -0.14057663900E+02 -0.58226997136E+02  0.46324695365E+03  0.45842774954E+03 0.  0.
         13    1    3    3    0    0 -0.20825860516E+02 -0.11500672390E+03  0.17140565804E+03  0.20746123160E+03  0.00000000000E+00 0.  1.
          1    1    3    3  501    0  0.50044645726E+02  0.10094906000E+03 -0.22963265518E+03  0.25578572205E+03  0.00000000000E+00 0.  1.
         21    1    1    2  502  501 -0.29218785210E+02  0.14057663900E+02  0.41649623140E+01  0.32691011525E+02  0.00000000000E+00 0. -1.
<scales pt_clust_4="550.00000" pt_clust_5="550.00000" pt_clust_6="32.42461"></scales>
<mgrwt>
<rscale>  0 0.30000000E+03</rscale>
<asrwt>  1 0.32424610E+02</asrwt>
<pdfrwt beam="1">  1        1 0.80341078E+00 0.30000000E+03</pdfrwt>
<pdfrwt beam="2">0</pdfrwt>
<totfact> 0.99355970E-04</totfact>
</mgrwt>
<clustering>
<clus scale="   32.425">  1  6  2 -1</clus>
<clus scale="  458.428">  4  5 -1 -1</clus>
<clus scale="  300.000">  1  4  2 -1</clus>
</clustering>
</event>
<event>
 6    1  0.9480355E-012  0.3000000E+03  0.7818608E-02  0.1093470E+00
          1   -1    0    0  502    0  0.00000000000E+00  0.00000000000E+00  0.24218697724E+03  0.24218697724E+03  0.00000000000E+00 0.  1.
         13   -1    0    0    0    0 -0.00000000000E+00 -0.00000000000E+00 -0.27500000000E+03  0.27500000000E+03  0.00000000000E+00 0.  1.
    9000005    2    1    2  501    0 -0.19048736964E+02  0.43625870944E+02 -0.21507529212E+02  0.46825963131E+03  0.46533690752E+03 0.  0.
         13    1    3    3    0    0 -0.21779956170E+02  0.38536016544E+02  0.22114841367E+03  0.22553494614E+03  0.00000000000E+00 0.  1.
          1    1    3    3  501    0  0.27312192053E+01  0.50898543999E+01 -0.24265594288E+03  0.24272468517E+03  0.00000000000E+00 0.  1.
         21    1    1    2  502  501  0.19048736964E+02 -0.43625870944E+02 -0.11305493549E+02  0.48927345932E+02  0.00000000000E+00 0.  1.
<scales pt_clust_4="550.00000" pt_clust_5="550.00000" pt_clust_6="47.60329"></scales>
<mgrwt>
<rscale>  0 0.30000000E+03</rscale>
<asrwt>  1 0.47603290E+02</asrwt>
<pdfrwt beam="1">  1        1 0.88067992E+00 0.30000000E+03</pdfrwt>
<pdfrwt beam="2">0</pdfrwt>
<totfact> 0.18303660E-04</totfact>
</mgrwt>
<clustering>
<clus scale="   47.603">  1  6  2 -1</clus>
<clus scale="  465.337">  4  5 -1 -1</clus>
<clus scale="  300.000">  1  4  2 -1</clus>
</clustering>
</event>
<event>
 6    1  0.9480355E-012  0.3000000E+03  0.7818608E-02  0.1093470E+00
          1   -1    0    0  502    0  0.00000000000E+00  0.00000000000E+00  0.23821955701E+03  0.23821955701E+03  0.00000000000E+00 0.  1.
         13   -1    0    0    0    0 -0.00000000000E+00 -0.00000000000E+00 -0.27500000000E+03  0.27500000000E+03  0.00000000000E+00 0.  1.
    9000005    2    1    2  501    0 -0.23028961602E+02  0.27325318289E+02 -0.64015752075E+02  0.46828885311E+03  0.46251424555E+03 0.  0.
         13    1    3    3    0    0  0.19670037868E+03 -0.19624697204E+01  0.70538603142E+02  0.20897508175E+03  0.00000000000E+00 0.  1.
          3    1    3    3  501    0 -0.21972934028E+03  0.29287788009E+02 -0.13455435522E+03  0.25931377136E+03  0.00000000000E+00 0.  1.
         21    1    1    2  502  501  0.23028961602E+02 -0.27325318289E+02  0.27235309085E+02  0.44930703901E+02  0.00000000000E+00 0.  1.
<scales pt_clust_4="550.00000" pt_clust_5="550.00000" pt_clust_6="35.73522"></scales>
<mgrwt>
<rscale>  0 0.30000000E+03</rscale>
<asrwt>  1 0.35735222E+02</asrwt>
<pdfrwt beam="1">  1        1 0.86625293E+00 0.30000000E+03</pdfrwt>
<pdfrwt beam="2">0</pdfrwt>
<totfact> 0.27593945E-04</totfact>
</mgrwt>
<clustering>
<clus scale="   35.735">  1  6  2 -1</clus>
<clus scale="  462.514">  4  5 -1 -1</clus>
<clus scale="  300.000">  1  4  2 -1</clus>
</clustering>
</event>
<event>
 6    1  0.9480355E-012  0.3000000E+03  0.7818608E-02  0.1093470E+00
          1   -1    0    0  502    0  0.00000000000E+00  0.00000000000E+00  0.22771607254E+03  0.22771607254E+03  0.00000000000E+00 0.  1.
         13   -1    0    0    0    0 -0.00000000000E+00 -0.00000000000E+00 -0.27500000000E+03  0.27500000000E+03  0.00000000000E+00 0.  1.
    9000005    2    1    2  501    0 -0.95858909664E+01 -0.40069009424E+02 -0.36829683073E+02  0.46021070761E+03  0.45688078864E+03 0.  0.
         13    1    3    3    0    0 -0.14162370023E+03 -0.16974745873E+03  0.86960318246E+02  0.23755750706E+03  0.00000000000E+00 0.  1.
          1    1    3    3  501    0  0.13203780927E+03  0.12967844930E+03 -0.12379000132E+03  0.22265320055E+03  0.00000000000E+00 0.  1.
         21    1    1    2  502  501  0.95858909664E+01  0.40069009424E+02 -0.10454244387E+02  0.42505364926E+02  0.00000000000E+00 0. -1.
<scales pt_clust_4="550.00000" pt_clust_5="550.00000" pt_clust_6="41.19972"></scales>
<mgrwt>
<rscale>  0 0.30000000E+03</rscale>
<asrwt>  1 0.41199715E+02</asrwt>
<pdfrwt beam="1">  1        1 0.82805845E+00 0.30000000E+03</pdfrwt>
<pdfrwt beam="2">0</pdfrwt>
<totfact> 0.59566019E-04</totfact>
</mgrwt>
<clustering>
<clus scale="   41.200">  1  6  2 -1</clus>
<clus scale="  456.881">  4  5 -1 -1</clus>
<clus scale="  300.000">  1  4  2 -1</clus>
</clustering>
</event>
<event>
 6    1  0.9480355E-012  0.3000000E+03  0.7818608E-02  0.1093470E+00
          1   -1    0    0  502    0  0.00000000000E+00  0.00000000000E+00  0.24491997412E+03  0.24491997412E+03  0.00000000000E+00 0.  1.
         13   -1    0    0    0    0 -0.00000000000E+00 -0.00000000000E+00 -0.27500000000E+03  0.27500000000E+03  0.00000000000E+00 0.  1.
    9000005    2    1    2  501    0  0.34010500747E+02  0.24667998417E+02 -0.50927568175E+02  0.47301747603E+03  0.46838733024E+03 0.  0.
         13    1    3    3    0    0 -0.19392797670E+03  0.93426379339E+02 -0.87078661065E+02  0.23220517160E+03  0.00000000000E+00 0.  1.
          1    1    3    3  501    0  0.22793847745E+03 -0.68758380922E+02  0.36151092890E+02  0.24081230443E+03  0.00000000000E+00 0.  1.
         21    1    1    2  502  501 -0.34010500747E+02 -0.24667998417E+02  0.20847542295E+02  0.46902498086E+02  0.00000000000E+00 0.  1.
<scales pt_clust_4="550.00000" pt_clust_5="550.00000" pt_clust_6="42.01457"></scales>
<mgrwt>
<rscale>  0 0.30000000E+03</rscale>
<asrwt>  1 0.42014573E+02</asrwt>
<pdfrwt beam="1">  1        1 0.89061809E+00 0.30000000E+03</pdfrwt>
<pdfrwt beam="2">0</pdfrwt>
<totfact> 0.13756046E-04</totfact>
</mgrwt>
<clustering>
<clus scale="   42.015">  1  6  2 -1</clus>
<clus scale="  468.387">  4  5 -1 -1</clus>
<clus scale="  300.000">  1  4  2 -1</clus>
</clustering>
</event>
<event>
 6    1  0.9480355E-012  0.3000000E+03  0.7818608E-02  0.1093470E+00
          1   -1    0    0  502    0  0.00000000000E+00  0.00000000000E+00  0.23481013840E+03  0.23481013840E+03  0.00000000000E+00 0.  1.
         13   -1    0    0    0    0 -0.00000000000E+00 -0.00000000000E+00 -0.27500000000E+03  0.27500000000E+03  0.00000000000E+00 0.  1.
    9000005    2    1    2  501    0 -0.27317349227E+02 -0.30061858118E+02 -0.42654526588E+02  0.46911582115E+03  0.46540336498E+03 0.  0.
         13    1    3    3    0    0 -0.14376796164E+03  0.78815261347E+01  0.17057184652E+03  0.22321760699E+03  0.00000000000E+00 0.  1.
          1    1    3    3  501    0  0.11645061241E+03 -0.37943384253E+02 -0.21322637310E+03  0.24589821416E+03  0.00000000000E+00 0.  1.
         21    1    1    2  502  501  0.27317349227E+02  0.30061858118E+02  0.24646649834E+01  0.40694317242E+02  0.00000000000E+00 0. -1.
<scales pt_clust_4="550.00000" pt_clust_5="550.00000" pt_clust_6="40.61961"></scales>
<mgrwt>
<rscale>  0 0.30000000E+03</rscale>
<asrwt>  1 0.40619612E+02</asrwt>
<pdfrwt beam="1">  1        1 0.85385505E+00 0.30000000E+03</pdfrwt>
<pdfrwt beam="2">0</pdfrwt>
<totfact> 0.36374200E-04</totfact>
</mgrwt>
<clustering>
<clus scale="   40.620">  1  6  2 -1</clus>
<clus scale="  465.403">  4  5 -1 -1</clus>
<clus scale="  300.000">  1  4  2 -1</clus>
</clustering>
</event>
<event>
 6    1  0.9480355E-012  0.3000000E+03  0.7818608E-02  0.1093470E+00
          1   -1    0    0  502    0  0.00000000000E+00  0.00000000000E+00  0.23868713562E+03  0.23868713562E+03  0.00000000000E+00 0.  1.
         13   -1    0    0    0    0 -0.00000000000E+00 -0.00000000000E+00 -0.27500000000E+03  0.27500000000E+03  0.00000000000E+00 0.  1.
    9000005    2    1    2  501    0 -0.10038851276E+02 -0.29536222107E+02 -0.37242881805E+02  0.48247765174E+03  0.48002550478E+03 0.  0.
         13    1    3    3    0    0 -0.14669756625E+03 -0.55639838125E+02  0.17097628255E+03  0.23205356434E+03  0.00000000000E+00 0.  1.
          1    1    3    3  501    0  0.13665871498E+03  0.26103616018E+02 -0.20821916435E+03  0.25042408740E+03  0.00000000000E+00 0.  1.
         21    1    1    2  502  501  0.10038851276E+02  0.29536222107E+02  0.93001742362E+00  0.31209483875E+02  0.00000000000E+00 0. -1.
<scales pt_clust_4="550.00000" pt_clust_5="550.00000" pt_clust_6="31.19562"></scales>
<mgrwt>
<rscale>  0 0.30000000E+03</rscale>
<asrwt>  1 0.31195624E+02</asrwt>
<pdfrwt beam="1">  1        1 0.86795322E+00 0.30000000E+03</pdfrwt>
<pdfrwt beam="2">0</pdfrwt>
<totfact> 0.27169246E-04</totfact>
</mgrwt>
<clustering>
<clus scale="   31.196">  1  6  2 -1</clus>
<clus scale="  480.026">  4  5 -1 -1</clus>
<clus scale="  300.000">  1  4  2 -1</clus>
</clustering>
</event>
<event>
 6    1  0.9480355E-012  0.3000000E+03  0.7818608E-02  0.1093470E+00
          1   -1    0    0  502    0  0.00000000000E+00  0.00000000000E+00  0.22842954671E+03  0.22842954671E+03  0.00000000000E+00 0.  1.
         13   -1    0    0    0    0 -0.00000000000E+00 -0.00000000000E+00 -0.27500000000E+03  0.27500000000E+03  0.00000000000E+00 0.  1.
    9000005    2    1    2  501    0  0.31381119679E+02  0.99843925739E+01 -0.40013435849E+02  0.46985191658E+03  0.46698531637E+03 0.  0.
         13    1    3    3    0    0  0.23038948527E+03 -0.63309297944E+02 -0.83993913636E+02  0.25326341950E+03  0.00000000000E+00 0.  1.
          3    1    3    3  501    0 -0.19900836559E+03  0.73293690518E+02  0.43980477787E+02  0.21658849709E+03  0.00000000000E+00 0.  1.
         21    1    1    2  502  501 -0.31381119679E+02 -0.99843925739E+01 -0.65570174381E+01  0.33577630129E+02  0.00000000000E+00 0.  1.
<scales pt_clust_4="550.00000" pt_clust_5="550.00000" pt_clust_6="32.93120"></scales>
<mgrwt>
<rscale>  0 0.30000000E+03</rscale>
<asrwt>  1 0.32931199E+02</asrwt>
<pdfrwt beam="1">  1        1 0.83065290E+00 0.30000000E+03</pdfrwt>
<pdfrwt beam="2">0</pdfrwt>
<totfact> 0.59053610E-04</totfact>
</mgrwt>
<clustering>
<clus scale="   32.931">  1  6  2 -1</clus>
<clus scale="  466.985">  4  5 -1 -1</clus>
<clus scale="  300.000">  1  4  2 -1</clus>
</clustering>
</event>
<event>
 6    1  0.9480355E-012  0.3000000E+03  0.7818608E-02  0.1093470E+00
          1   -1    0    0  502    0  0.00000000000E+00  0.00000000000E+00  0.24572601910E+03  0.24572601910E+03  0.00000000000E+00 0.  1.
         13   -1    0    0    0    0 -0.00000000000E+00 -0.00000000000E+00 -0.27500000000E+03  0.27500000000E+03  0.00000000000E+00 0.  1.
    9000005    2    1    2  501    0  0.20682703147E+02  0.39916986562E+02 -0.15751070659E+02  0.47377914352E+03  0.47137823516E+03 0.  0.
         13    1    3    3    0    0  0.24575488133E+03  0.34242353264E+02 -0.65434204062E+00  0.24812986240E+03  0.00000000000E+00 0.  1.
          3    1    3    3  501    0 -0.22507217818E+03  0.56746332981E+01 -0.15096728618E+02  0.22564928112E+03  0.00000000000E+00 0.  1.
         21    1    1    2  502  501 -0.20682703147E+02 -0.39916986562E+02 -0.13522910238E+02  0.46946875583E+02  0.00000000000E+00 0.  1.
<scales pt_clust_4="550.00000" pt_clust_5="550.00000" pt_clust_6="44.95711"></scales>
<mgrwt>
<rscale>  0 0.30000000E+03</rscale>
<asrwt>  1 0.44957113E+02</asrwt>
<pdfrwt beam="1">  1        1 0.89354916E+00 0.30000000E+03</pdfrwt>
<pdfrwt beam="2">0</pdfrwt>
<totfact> 0.12511754E-04</totfact>
</mgrwt>
<clustering>
<clus scale="   44.957">  1  6  2 -1</clus>
<clus scale="  471.378">  4  5 -1 -1</clus>
<clus scale="  300.000">  1  4  2 -1</clus>
</clustering>
</event>
<event>
 6    1  0.9480355E-012  0.3000000E+03  0.7818608E-02  0.1093470E+00
          1   -1    0    0  502    0  0.00000000000E+00  0.00000000000E+00  0.23762731663E+03  0.23762731663E+03  0.00000000000E+00 0.  1.
         13   -1    0    0    0    0 -0.00000000000E+00 -0.00000000000E+00 -0.27500000000E+03  0.27500000000E+03  0.00000000000E+00 0.  1.
    9000005    2    1    2  501    0 -0.25303651293E+00 -0.47487691528E+02 -0.27918123685E+02  0.46420693277E+03  0.46092679454E+03 0.  0.
         13    1    3    3    0    0  0.54176854211E+02 -0.39067322753E+02  0.20980821125E+03  0.22018372499E+03  0.00000000000E+00 0.  1.
          1    1    3    3  501    0 -0.54429890724E+02 -0.84203687746E+01 -0.23772633494E+03  0.24402320778E+03  0.00000000000E+00 0.  1.
         21    1    1    2  502  501  0.25303651293E+00  0.47487691528E+02 -0.94545596868E+01  0.48420383858E+02  0.00000000000E+00 0.  1.
<scales pt_clust_4="550.00000" pt_clust_5="550.00000" pt_clust_6="47.48839"></scales>
<mgrwt>
<rscale>  0 0.30000000E+03</rscale>
<asrwt>  1 0.47488389E+02</asrwt>
<pdfrwt beam="1">  1        1 0.86409933E+00 0.30000000E+03</pdfrwt>
<pdfrwt beam="2">0</pdfrwt>
<totfact> 0.27638922E-04</totfact>
</mgrwt>
<clustering>
<clus scale="   47.488">  1  6  2 -1</clus>
<clus scale="  460.927">  4  5 -1 -1</clus>
<clus scale="  300.000">  1  4  2 -1</clus>
</clustering>
</event>
<event>
 6    1  0.9480355E-012  0.3000000E+03  0.7818608E-02  0.1093470E+00
          1   -1    0    0  502    0  0.00000000000E+00  0.00000000000E+00  0.24404066573E+03  0.24404066573E+03  0.00000000000E+00 0.  1.
         13   -1    0    0    0    0 -0.00000000000E+00 -0.00000000000E+00 -0.27500000000E+03  0.27500000000E+03  0.00000000000E+00 0.  1.
    9000005    2    1    2  501    0 -0.77992879770E+01  0.40248443230E+02 -0.55207404644E+02  0.47140942606E+03  0.46636704791E+03 0.  0.
         13    1    3    3    0    0 -0.14717605895E+03  0.11297566753E+03  0.13143837723E+03  0.22737708941E+03  0.00000000000E+00 0.  1.
          1    1    3    3  501    0  0.13937677097E+03 -0.72727224297E+02 -0.18664578187E+03  0.24403233665E+03  0.00000000000E+00 0.  1.
         21    1    1    2  502  501  0.77992879770E+01 -0.40248443230E+02  0.24248070374E+02  0.47631239667E+02  0.00000000000E+00 0.  1.
<scales pt_clust_4="550.00000" pt_clust_5="550.00000" pt_clust_6="40.99715"></scales>
<mgrwt>
<rscale>  0 0.30000000E+03</rscale>
<asrwt>  1 0.40997147E+02</asrwt>
<pdfrwt beam="1">  1        1 0.88742060E+00 0.30000000E+03</pdfrwt>
<pdfrwt beam="2">0</pdfrwt>
<totfact> 0.15264100E-04</totfact>
</mgrwt>
<clustering>
<clus scale="   40.997">  1  6  2 -1</clus>
<clus scale="  466.367">  4  5 -1 -1</clus>
<clus scale="  300.000">  1  4  2 -1</clus>
</clustering>
</event>
<event>
 6    1  0.9480355E-012  0.3000000E+03  0.7818608E-02  0.1093470E+00
          1   -1    0    0  502    0  0.00000000000E+00  0.00000000000E+00  0.23398542800E+03  0.23398542800E+03  0.00000000000E+00 0.  1.
         13   -1    0    0    0    0 -0.00000000000E+00 -0.00000000000E+00 -0.27500000000E+03  0.27500000000E+03  0.00000000000E+00 0.  1.
    9000005    2    1    2  501    0  0.44288575642E+02 -0.21592273262E+01 -0.52701184409E+02  0.46313003459E+03  0.45798021126E+03 0.  0.
         13    1    3    3    0    0 -0.12699969447E+02 -0.18816238387E+03  0.10215707243E+03  0.21448179264E+03  0.00000000000E+00 0.  1.
          1    1    3    3  501    0  0.56988545089E+02  0.18600315654E+03 -0.15485825684E+03  0.24864824195E+03  0.00000000000E+00 0.  1.
         21    1    1    2  502  501 -0.44288575642E+02  0.21592273262E+01  0.11686612410E+02  0.45855393409E+02  0.00000000000E+00 0. -1.
<scales pt_clust_4="550.00000" pt_clust_5="550.00000" pt_clust_6="44.34118"></scales>
<mgrwt>
<rscale>  0 0.30000000E+03</rscale>
<asrwt>  1 0.44341179E+02</asrwt>
<pdfrwt beam="1">  1        1 0.85085610E+00 0.30000000E+03</pdfrwt>
<pdfrwt beam="2">0</pdfrwt>
<totfact> 0.38256593E-04</totfact>
</mgrwt>
<clustering>
<clus scale="   44.341">  1  6  2 -1</clus>
<clus scale="  457.980">  4  5 -1 -1</clus>
<clus scale="  300.000">  1  4  2 -1</clus>
</clustering>
</event>
<event>
 6    1  0.9480355E-012  0.3000000E+03  0.7818608E-02  0.1093470E+00
          1   -1    0    0  502    0  0.00000000000E+00  0.00000000000E+00  0.22277494085E+03  0.22277494085E+03  0.00000000000E+00 0.  1.
         13   -1    0    0    0    0 -0.00000000000E+00 -0.00000000000E+00 -0.27500000000E+03  0.27500000000E+03  0.00000000000E+00 0.  1.
    9000005    2    1    2  501    0 -0.10833938061E+02 -0.29381958308E+02 -0.55919817231E+02  0.46624202273E+03  0.46181589851E+03 0.  0.
         13    1    3    3    0    0 -0.91443918805E+02  0.13067805045E+03  0.13165744259E+03  0.20681495436E+03  0.00000000000E+00 0.  1.
          1    1    3    3  501    0  0.80609980743E+02 -0.16006000876E+03 -0.18757725983E+03  0.25942706837E+03  0.00000000000E+00 0.  1.
         21    1    1    2  502  501  0.10833938061E+02  0.29381958308E+02  0.36947580818E+01  0.31532918121E+02  0.00000000000E+00 0.  1.
<scales pt_clust_4="550.00000" pt_clust_5="550.00000" pt_clust_6="31.31571"></scales>
<mgrwt>
<rscale>  0 0.30000000E+03</rscale>
<asrwt>  1 0.31315710E+02</asrwt>
<pdfrwt beam="1">  1        1 0.81009069E+00 0.30000000E+03</pdfrwt>
<pdfrwt beam="2">0</pdfrwt>
<totfact> 0.88922318E-04</totfact>
</mgrwt>
<clustering>
<clus scale="   31.316">  1  6  2 -1</clus>
<clus scale="  461.816">  4  5 -1 -1</clus>
<clus scale="  300.000">  1  4  2 -1</clus>
</clustering>
</event>
<event>
 6    1  0.9480355E-012  0.3000000E+03  0.7818608E-02  0.1093470E+00
          1   -1    0    0  502    0  0.00000000000E+00  0.00000000000E+00  0.25176054804E+03  0.25176054804E+03  0.00000000000E+00 0.  1.
         13   -1    0    0    0    0 -0.00000000000E+00 -0.00000000000E+00 -0.27500000000E+03  0.27500000000E+03  0.00000000000E+00 0.  1.
    9000005    2    1    2  501    0  0.23574628396E+02 -0.44109301825E+02 -0.45755514428E+02  0.47191196847E+03  0.46701814234E+03 0.  0.
         13    1    3    3    0    0 -0.30352194157E+02  0.17114203368E+03 -0.14734190163E+03  0.22786067532E+03  0.00000000000E+00 0.  1.
          1    1    3    3  501    0  0.53926822553E+02 -0.21525133550E+03  0.10158638720E+03  0.24405129316E+03  0.00000000000E+00 0.  1.
         21    1    1    2  502  501 -0.23574628396E+02  0.44109301825E+02  0.22516062471E+02  0.54848579569E+02  0.00000000000E+00 0. -1.
<scales pt_clust_4="550.00000" pt_clust_5="550.00000" pt_clust_6="50.01393"></scales>
<mgrwt>
<rscale>  0 0.30000000E+03</rscale>
<asrwt>  1 0.50013934E+02</asrwt>
<pdfrwt beam="1">  1        1 0.91549290E+00 0.30000000E+03</pdfrwt>
<pdfrwt beam="2">0</pdfrwt>
<totfact> 0.49440620E-05</totfact>
</mgrwt>
<clustering>
<clus scale="   50.014">  1  6  2 -1</clus>
<clus scale="  467.018">  4  5 -1 -1</clus>
<clus scale="  300.000">  1  4  2 -1</clus>
</clustering>
</event>
<event>
 6    1  0.9480355E-012  0.3000000E+03  0.7818608E-02  0.1093470E+00
          1   -1    0    0  502    0  0.00000000000E+00  0.00000000000E+00  0.23380644705E+03  0.23380644705E+03  0.00000000000E+00 0.  1.
         13   -1    0    0    0    0 -0.00000000000E+00 -0.00000000000E+00 -0.27500000000E+03  0.27500000000E+03  0.00000000000E+00 0.  1.
    9000005    2    1    2  501    0  0.31665918686E+02  0.15318607579E+02 -0.52926186424E+02  0.47172485009E+03  0.46742460659E+03 0.  0.
         13    1    3    3    0    0 -0.87747014067E+02  0.17679046631E+03 -0.15073327769E+03  0.24834437473E+03  0.00000000000E+00 0.  1.
          3    1    3    3  501    0  0.11941293275E+03 -0.16147185873E+03  0.97807091269E+02  0.22338047536E+03  0.00000000000E+00 0.  1.
         21    1    1    2  502  501 -0.31665918686E+02 -0.15318607579E+02  0.11732633472E+02  0.37081596953E+02  0.00000000000E+00 0.  1.
<scales pt_clust_4="550.00000" pt_clust_5="550.00000" pt_clust_6="35.17656"></scales>
<mgrwt>
<rscale>  0 0.30000000E+03</rscale>
<asrwt>  1 0.35176557E+02</asrwt>
<pdfrwt beam="1">  1        1 0.85020526E+00 0.30000000E+03</pdfrwt>
<pdfrwt beam="2">0</pdfrwt>
<totfact> 0.40480316E-04</totfact>
</mgrwt>
<clustering>
<clus scale="   35.177">  1  6  2 -1</clus>
<clus scale="  467.425">  4  5 -1 -1</clus>
<clus scale="  300.000">  1  4  2 -1</clus>
</clustering>
</event>
<event>
 6    1  0.9480355E-012  0.3000000E+03  0.7818608E-02  0.1093470E+00
          1   -1    0    0  502    0  0.00000000000E+00  0.00000000000E+00  0.24774308538E+03  0.24774308538E+03  0.00000000000E+00 0.  1.
         13   -1    0    0    0    0 -0.00000000000E+00 -0.00000000000E+00 -0.27500000000E+03  0.27500000000E+03  0.00000000000E+00 0.  1.
    9000005    2    1    2  501    0 -0.95640625904E+01 -0.35316350433E+02 -0.59306088932E+02  0.47410292219E+03  0.46895378530E+03 0.  0.
         13    1    3    3    0    0  0.10777902430E+03 -0.20824935995E+03  0.47738589460E+02  0.23929706836E+03  0.00000000000E+00 0.  1.
          3    1    3    3  501    0 -0.11734308689E+03  0.17293300952E+03 -0.10704467839E+03  0.23480585383E+03  0.00000000000E+00 0.  1.
         21    1    1    2  502  501  0.95640625904E+01  0.35316350433E+02  0.32049174313E+02  0.48640163192E+02  0.00000000000E+00 0.  1.
<scales pt_clust_4="550.00000" pt_clust_5="550.00000" pt_clust_6="36.58847"></scales>
<mgrwt>
<rscale>  0 0.30000000E+03</rscale>
<asrwt>  1 0.36588467E+02</asrwt>
<pdfrwt beam="1">  1        1 0.90088395E+00 0.30000000E+03</pdfrwt>
<pdfrwt beam="2">0</pdfrwt>
<totfact> 0.10668956E-04</totfact>
</mgrwt>
<clustering>
<clus scale="   36.588">  1  6  2 -1</clus>
<clus scale="  468.954">  4  5 -1 -1</clus>
<clus scale="  300.000">  1  4  2 -1</clus>
</clustering>
</event>
<event>
 6    1  0.9480355E-012  0.3000000E+03  0.7818608E-02  0.1093470E+00
          1   -1    0    0  502    0  0.00000000000E+00  0.00000000000E+00  0.22784467791E+03  0.22784467791E+03  0.00000000000E+00 0.  1.
         13   -1    0    0    0    0 -0.00000000000E+00 -0.00000000000E+00 -0.27500000000E+03  0.27500000000E+03  0.00000000000E+00 0.  1.
    9000005    2    1    2  501    0  0.25028590156E+02 -0.25246214726E+02 -0.42789413199E+02  0.46702760316E+03  0.46370254102E+03 0.  0.
         13    1    3    3    0    0 -0.50470035863E+02 -0.97100681243E+02  0.18589347316E+03  0.21571312009E+03  0.00000000000E+00 0.  1.
          1    1    3    3  501    0  0.75498626019E+02  0.71854466518E+02 -0.22868288635E+03  0.25131448307E+03  0.00000000000E+00 0.  1.
         21    1    1    2  502  501 -0.25028590156E+02  0.25246214726E+02 -0.43659088893E+01  0.35817074749E+02  0.00000000000E+00 0.  1.
<scales pt_clust_4="550.00000" pt_clust_5="550.00000" pt_clust_6="35.55001"></scales>
<mgrwt>
<rscale>  0 0.30000000E+03</rscale>
<asrwt>  1 0.35550006E+02</asrwt>
<pdfrwt beam="1">  1        1 0.82852610E+00 0.30000000E+03</pdfrwt>
<pdfrwt beam="2">0</pdfrwt>
<totfact> 0.60639336E-04</totfact>
</mgrwt>
<clustering>
<clus scale="   35.550">  1  6  2 -1</clus>
<clus scale="  463.703">  4  5 -1 -1</clus>
<clus scale="  300.000">  1  4  2 -1</clus>
</clustering>
</event>
<event>
 6    1  0.9480355E-012  0.3000000E+03  0.7818608E-02  0.1093470E+00
          1   -1    0    0  502    0  0.00000000000E+00  0.00000000000E+00  0.25067267290E+03  0.25067267290E+03  0.00000000000E+00 0.  1.
         13   -1    0    0    0    0 -0.00000000000E+00 -0.00000000000E+00 -0.27500000000E+03  0.27500000000E+03  0.00000000000E+00 0.  1.
    9000005    2    1    2  501    0 -0.30527650925E+02  0.10118817730E+02 -0.76706569900E+02  0.46420794302E+03  0.45669550967E+03 0.  0.
         13    1    3    3    0    0  0.16221919837E+03  0.14657367345E+03 -0.10222071097E+02  0.21886845548E+03  0.00000000000E+00 0.  1.
          1    1    3    3  501    0 -0.19274684929E+03 -0.13645485572E+03 -0.66484498803E+02  0.24533948753E+03  0.00000000000E+00 0.  1.
         21    1    1    2  502  501  0.30527650925E+02 -0.10118817730E+02  0.52379242801E+02  0.61464729884E+02  0.00000000000E+00 0. -1.
<scales pt_clust_4="550.00000" pt_clust_5="550.00000" pt_clust_6="32.16097"></scales>
<mgrwt>
<rscale>  0 0.30000000E+03</rscale>
<asrwt>  1 0.32160969E+02</asrwt>
<pdfrwt beam="1">  1        1 0.91153699E+00 0.30000000E+03</pdfrwt>
<pdfrwt beam="2">0</pdfrwt>
<totfact> 0.66900198E-05</totfact>
</mgrwt>
<clustering>
<clus scale="   32.161">  1  6  2 -1</clus>
<clus scale="  456.696">  4  5 -1 -1</clus>
<clus scale="  300.000">  1  4  2 -1</clus>
</clustering>
</event>
<event>
 6    1  0.9480355E-012  0.3000000E+03  0.7818608E-02  0.1093470E+00
          1   -1    0    0  502    0  0.00000000000E+00  0.00000000000E+00  0.23849072430E+03  0.23849072430E+03  0.00000000000E+00 0.  1.
         13   -1    0    0    0    0 -0.00000000000E+00 -0.00000000000E+00 -0.27500000000E+03  0.27500000000E+03  0.00000000000E+00 0.  1.
    9000005    2    1    2  501    0 -0.63691026379E+01  0.39468319572E+02 -0.62096571932E+02  0.46602470017E+03  0.46013554873E+03 0.  0.
         13    1    3    3    0    0 -0.19109764958E+03  0.70829733134E+02  0.91829357250E+02  0.22353477050E+03  0.00000000000E+00 0.  1.
          3    1    3    3  501    0  0.18472854694E+03 -0.31361413562E+02 -0.15392592918E+03  0.24248992967E+03  0.00000000000E+00 0.  1.
         21    1    1    2  502  501  0.63691026379E+01 -0.39468319572E+02  0.25587296233E+02  0.47466024130E+02  0.00000000000E+00 0. -1.
<scales pt_clust_4="550.00000" pt_clust_5="550.00000" pt_clust_6="39.97892"></scales>
<mgrwt>
<rscale>  0 0.30000000E+03</rscale>
<asrwt>  1 0.39978916E+02</asrwt>
<pdfrwt beam="1">  1        1 0.86723900E+00 0.30000000E+03</pdfrwt>
<pdfrwt beam="2">0</pdfrwt>
<totfact> 0.26388407E-04</totfact>
</mgrwt>
<clustering>
<clus scale="   39.979">  1  6  2 -1</clus>
<clus scale="  460.136">  4  5 -1 -1</clus>
<clus scale="  300.000">  1  4  2 -1</clus>
</clustering>
</event>
<event>
 6    1  0.9480355E-012  0.3000000E+03  0.7818608E-02  0.1093470E+00
          1   -1    0    0  502    0  0.00000000000E+00  0.00000000000E+00  0.22642688333E+03  0.22642688333E+03  0.00000000000E+00 0.  1.
         13   -1    0    0    0    0 -0.00000000000E+00 -0.00000000000E+00 -0.27500000000E+03  0.27500000000E+03  0.00000000000E+00 0.  1.
    9000005    2    1    2  501    0  0.29638873255E+02 -0.27080418373E+02 -0.44869284415E+02  0.46110901830E+03  0.45716130874E+03 0.  0.
         13    1    3    3    0    0  0.17844177908E+02  0.11038098237E+03 -0.21483778371E+03  0.24219341292E+03  0.00000000000E+00 0.  1.
          1    1    3    3  501    0  0.11794695348E+02 -0.13746140074E+03  0.16996849929E+03  0.21891560539E+03  0.00000000000E+00 0.  1.
         21    1    1    2  502  501 -0.29638873255E+02  0.27080418373E+02 -0.37038322515E+01  0.40317865029E+02  0.00000000000E+00 0.  1.
<scales pt_clust_4="550.00000" pt_clust_5="550.00000" pt_clust_6="40.14738"></scales>
<mgrwt>
<rscale>  0 0.30000000E+03</rscale>
<asrwt>  1 0.40147377E+02</asrwt>
<pdfrwt beam="1">  1        1 0.82337048E+00 0.30000000E+03</pdfrwt>
<pdfrwt beam="2">0</pdfrwt>
<totfact> 0.65853599E-04</totfact>
</mgrwt>
<clustering>
<clus scale="   40.147">  1  6  2 -1</clus>
<clus scale="  457.161">  4  5 -1 -1</clus>
<clus scale="  300.000">  1  4  2 -1</clus>
</clustering>
</event>
<event>
 6    1  0.9480355E-012  0.3000000E+03  0.7818608E-02  0.1093470E+00
          1   -1    0    0  502    0  0.00000000000E+00  0.00000000000E+00  0.24965092927E+03  0.24965092927E+03  0.00000000000E+00 0.  1.
         13   -1    0    0    0    0 -0.00000000000E+00 -0.00000000000E+00 -0.27500000000E+03  0.27500000000E+03  0.00000000000E+00 0.  1.
    9000005    2    1    2  501    0 -0.41324980700E+02 -0.11750344925E+02 -0.42900907165E+02  0.47824089159E+03  0.47437120266E+03 0.  0.
         13    1    3    3    0    0  0.97934990370E+02 -0.67125360198E+02 -0.21771203351E+03  0.24798307575E+03  0.00000000000E+00 0.  1.
          3    1    3    3  501    0 -0.13925997107E+03  0.55375015273E+02  0.17481112635E+03  0.23025781584E+03  0.00000000000E+00 0.  1.
         21    1    1    2  502  501  0.41324980700E+02  0.11750344925E+02  0.17551836436E+02  0.46410037685E+02  0.00000000000E+00 0.  1.
<scales pt_clust_4="550.00000" pt_clust_5="550.00000" pt_clust_6="42.96306"></scales>
<mgrwt>
<rscale>  0 0.30000000E+03</rscale>
<asrwt>  1 0.42963061E+02</asrwt>
<pdfrwt beam="1">  1        1 0.90782156E+00 0.30000000E+03</pdfrwt>
<pdfrwt beam="2">0</pdfrwt>
<totfact> 0.77834390E-05</totfact>
</mgrwt>
<clustering>
<clus scale="   42.963">  1  6  2 -1</clus>
<clus scale="  474.371">  4  5 -1 -1</clus>
<clus scale="  300.000">  1  4  2 -1</clus>
</clustering>
</event>
<event>
 6    1  0.9480355E-012  0.3000000E+03  0.7818608E-02  0.1093470E+00
          1   -1    0    0  502    0  0.00000000000E+00  0.00000000000E+00  0.23096209122E+03  0.23096209122E+03  0.00000000000E+00 0.  1.
         13   -1    0    0    0    0 -0.00000000000E+00 -0.00000000000E+00 -0.27500000000E+03  0.27500000000E+03  0.00000000000E+00 0.  1.
    9000005    2    1    2  501    0 -0.22622488471E+00 -0.39672890931E+02 -0.26819780733E+02  0.46271335268E+03  0.46022859174E+03 0.  0.
         13    1    3    3    0    0 -0.19795192985E+03 -0.94902153602E+02  0.77029023587E+02  0.23264749250E+03  0.00000000000E+00 0.  1.
          1    1    3    3  501    0  0.19772570497E+03  0.55229262671E+02 -0.10384880432E+03  0.23006586018E+03  0.00000000000E+00 0.  1.
         21    1    1    2  502  501  0.22622488471E+00  0.39672890931E+02 -0.17218128045E+02  0.43248738547E+02  0.00000000000E+00 0. -1.
<scales pt_clust_4="550.00000" pt_clust_5="550.00000" pt_clust_6="39.67356"></scales>
<mgrwt>
<rscale>  0 0.30000000E+03</rscale>
<asrwt>  1 0.39673556E+02</asrwt>
<pdfrwt beam="1">  1        1 0.83986215E+00 0.30000000E+03</pdfrwt>
<pdfrwt beam="2">0</pdfrwt>
<totfact> 0.48683784E-04</totfact>
</mgrwt>
<clustering>
<clus scale="   39.674">  1  6  2 -1</clus>
<clus scale="  460.229">  4  5 -1 -1</clus>
<clus scale="  300.000">  1  4  2 -1</clus>
</clustering>
</event>
<event>
 6    1  0.9480355E-012  0.3000000E+03  0.7818608E-02  0.1093470E+00
          1   -1    0    0  502    0  0.00000000000E+00  0.00000000000E+00  0.24237265191E+03  0.24237265191E+03  0.00000000000E+00 0.  1.
         13   -1    0    0    0    0 -0.00000000000E+00 -0.00000000000E+00 -0.27500000000E+03  0.27500000000E+03  0.00000000000E+00 0.  1.
    9000005    2    1    2  501    0  0.26108636680E+02  0.17537406862E+02 -0.59409847552E+02  0.47606255839E+03  0.47129269883E+03 0.  0.
         13    1    3    3    0    0  0.82013488354E+01 -0.18379345851E+03  0.10824212014E+03  0.21345644540E+03  0.00000000000E+00 0.  1.
          1    1    3    3  501    0  0.17907287844E+02  0.20133086537E+03 -0.16765196769E+03  0.26260611299E+03  0.00000000000E+00 0.  1.
         21    1    1    2  502  501 -0.26108636680E+02 -0.17537406862E+02  0.26782499458E+02  0.41310093512E+02  0.00000000000E+00 0. -1.
<scales pt_clust_4="550.00000" pt_clust_5="550.00000" pt_clust_6="31.45189"></scales>
<mgrwt>
<rscale>  0 0.30000000E+03</rscale>
<asrwt>  1 0.31451893E+02</asrwt>
<pdfrwt beam="1">  1        1 0.88135510E+00 0.30000000E+03</pdfrwt>
<pdfrwt beam="2">0</pdfrwt>
<totfact> 0.19365264E-04</totfact>
</mgrwt>
<clustering>
<clus scale="   31.452">  1  6  2 -1</clus>
<clus scale="  471.293">  4  5 -1 -1</clus>
<clus scale="  300.000">  1  4  2 -1</clus>
</clustering>
</event>
<event>
 6    1  0.9480355E-012  0.3000000E+03  0.7818608E-02  0.1093470E+00
          1   -1    0    0  502    0  0.00000000000E+00  0.00000000000E+00  0.24874961823E+03  0.24874961823E+03  0.00000000000E+00 0.  1.
         13   -1    0    0    0    0 -0.00000000000E+00 -0.00000000000E+00 -0.27500000000E+03  0.27500000000E+03  0.00000000000E+00 0.  1.
    9000005    2    1    2  501    0  0.39900690481E+02 -0.78966446466E+00 -0.52168906799E+02  0.47616329025E+03  0.47161127582E+03 0.  0.
         13    1    3    3    0    0 -0.68795923040E+02  0.51293095849E+02  0.18843672619E+03  0.20705617712E+03  0.00000000000E+00 0.  1.
          3    1    3    3  501    0  0.10869661352E+03 -0.52082760314E+02 -0.24060563299E+03  0.26910711313E+03  0.00000000000E+00 0.  1.
         21    1    1    2  502  501 -0.39900690481E+02  0.78966446466E+00  0.25918525031E+02  0.47586327980E+02  0.00000000000E+00 0.  1.
<scales pt_clust_4="550.00000" pt_clust_5="550.00000" pt_clust_6="39.90850"></scales>
<mgrwt>
<rscale>  0 0.30000000E+03</rscale>
<asrwt>  1 0.39908504E+02</asrwt>
<pdfrwt beam="1">  1        1 0.90454407E+00 0.30000000E+03</pdfrwt>
<pdfrwt beam="2">0</pdfrwt>
<totfact> 0.92027570E-05</totfact>
</mgrwt>
<clustering>
<clus scale="   39.909">  1  6  2 -1</clus>
<clus scale="  471.611">  4  5 -1 -1</clus>
<clus scale="  300.000">  1  4  2 -1</clus>
</clustering>
</event>
<event>
 6    1  0.9480355E-012  0.3000000E+03  0.7818608E-02  0.1093470E+00
          1   -1    0    0  502    0  0.00000000000E+00  0.00000000000E+00  0.23684309698E+03  0.23684309698E+03  0.00000000000E+00 0.  1.
         13   -1    0    0    0    0 -0.00000000000E+00 -0.00000000000E+00 -0.27500000000E+03  0.27500000000E+03  0.00000000000E+00 0.  1.
    9000005    2    1    2  501    0 -0.42746476150E+02 -0.95666444711E+01 -0.36230108925E+02  0.46799683779E+03  0.46453163237E+03 0.  0.
         13    1    3    3    0    0 -0.86722512464E+02  0.20192353438E+03 -0.10188177056E+03  0.24222675962E+03  0.00000000000E+00 0.  1.
          1    1    3    3  501    0  0.43976036314E+02 -0.21149017885E+03  0.65651661633E+02  0.22577007817E+03  0.00000000000E+00 0.  1.
         21    1    1    2  502  501  0.42746476150E+02  0.95666444711E+01 -0.19267940973E+01  0.43846259192E+02  0.00000000000E+00 0.  1.
<scales pt_clust_4="550.00000" pt_clust_5="550.00000" pt_clust_6="43.80390"></scales>
<mgrwt>
<rscale>  0 0.30000000E+03</rscale>
<asrwt>  1 0.43803903E+02</asrwt>
<pdfrwt beam="1">  1        1 0.86124763E+00 0.30000000E+03</pdfrwt>
<pdfrwt beam="2">0</pdfrwt>
<totfact> 0.30102077E-04</totfact>
</mgrwt>
<clustering>
<clus scale="   43.804">  1  6  2 -1</clus>
<clus scale="  464.532">  4  5 -1 -1</clus>
<clus scale="  300.000">  1  4  2 -1</clus>
</clustering>
</event>
<event>
 6    1  0.9480355E-012  0.3000000E+03  0.7818608E-02  0.1093470E+00
          1   -1    0    0  502    0  0.00000000000E+00  0.00000000000E+00  0.24315417727E+03  0.24315417727E+03  0.00000000000E+00 0.  1.
         13   -1    0    0    0    0 -0.00000000000E+00 -0.00000000000E+00 -0.27500000000E+03  0.27500000000E+03  0.00000000000E+00 0.  1.
    9000005    2    1    2  501    0 -0.38927262773E+02  0.21922911373E+02 -0.12025800190E+02  0.46927903918E+03  0.46699277394E+03 0.  0.
         13    1    3    3    0    0  0.86784642667E+02  0.46185176563E+02 -0.21093929959E+03  0.23272308190E+03  0.00000000000E+00 0.  1.
          3    1    3    3  501    0 -0.12571190544E+03 -0.24262265190E+02  0.19891349940E+03  0.23655595728E+03  0.00000000000E+00 0.  1.
         21    1    1    2  502  501  0.38927262773E+02 -0.21922911373E+02 -0.19820022540E+02  0.48875138092E+02  0.00000000000E+00 0. -1.
<scales pt_clust_4="550.00000" pt_clust_5="550.00000" pt_clust_6="44.67603"></scales>
<mgrwt>
<rscale>  0 0.30000000E+03</rscale>
<asrwt>  1 0.44676032E+02</asrwt>
<pdfrwt beam="1">  1        1 0.88419701E+00 0.30000000E+03</pdfrwt>
<pdfrwt beam="2">0</pdfrwt>
<totfact> 0.16644307E-04</totfact>
</mgrwt>
<clustering>
<clus scale="   44.676">  1  6  2 -1</clus>
<clus scale="  466.993">  4  5 -1 -1</clus>
<clus scale="  300.000">  1  4  2 -1</clus>
</clustering>
</event>
<event>
 6    1  0.9480355E-012  0.3000000E+03  0.7818608E-02  0.1093470E+00
          1   -1    0    0  502    0  0.00000000000E+00  0.00000000000E+00  0.24519894934E+03  0.24519894934E+03  0.00000000000E+00 0.  1.
         13   -1    0    0    0    0 -0.00000000000E+00 -0.00000000000E+00 -0.27500000000E+03  0.27500000000E+03  0.00000000000E+00 0.  1.
    9000005    2    1    2  501    0  0.30348119284E+02  0.22777907821E+01 -0.43843241021E+02  0.48668209112E+03  0.48374686703E+03 0.  0.
         13    1    3    3    0    0  0.98497535851E+02  0.16362595923E+03 -0.18183576729E+03  0.26370336625E+03  0.00000000000E+00 0.  1.
          1    1    3    3  501    0 -0.68149416567E+02 -0.16134816845E+03  0.13799252627E+03  0.22297872487E+03  0.00000000000E+00 0.  1.
         21    1    1    2  502  501 -0.30348119284E+02 -0.22777907821E+01  0.14042190364E+02  0.33516858223E+02  0.00000000000E+00 0. -1.
<scales pt_clust_4="550.00000" pt_clust_5="550.00000" pt_clust_6="30.43348"></scales>
<mgrwt>
<rscale>  0 0.30000000E+03</rscale>
<asrwt>  1 0.30433480E+02</asrwt>
<pdfrwt beam="1">  1        1 0.89163254E+00 0.30000000E+03</pdfrwt>
<pdfrwt beam="2">0</pdfrwt>
<totfact> 0.14179557E-04</totfact>
</mgrwt>
<clustering>
<clus scale="   30.433">  1  6  2 -1</clus>
<clus scale="  483.747">  4  5 -1 -1</clus>
<clus scale="  300.000">  1  4  2 -1</clus>
</clustering>
</event>
<event>
 6    1  0.9480355E-012  0.3000000E+03  0.7818608E-02  0.1093470E+00
          1   -1    0    0  502    0  0.00000000000E+00  0.00000000000E+00  0.22742328247E+03  0.22742328247E+03  0.00000000000E+00 0.  1.
         13   -1    0    0    0    0 -0.00000000000E+00 -0.00000000000E+00 -0.27500000000E+03  0.27500000000E+03  0.00000000000E+00 0.  1.
    9000005    2    1    2  501    0  0.33183341289E+02 -0.12420381523E+02 -0.42764361695E+02  0.46666634209E+03  0.46335006657E+03 0.  0.
         13    1    3    3    0    0 -0.19053943531E+03 -0.91344243654E+02  0.40679372037E+02  0.21518331387E+03  0.00000000000E+00 0.  1.
          1    1    3    3  501    0  0.22372277660E+03  0.78923862131E+02 -0.83443733732E+02  0.25148302822E+03  0.00000000000E+00 0.  1.
         21    1    1    2  502  501 -0.33183341289E+02  0.12420381523E+02 -0.48123558372E+01  0.35756940375E+02  0.00000000000E+00 0.  1.
<scales pt_clust_4="550.00000" pt_clust_5="550.00000" pt_clust_6="35.43164"></scales>
<mgrwt>
<rscale>  0 0.30000000E+03</rscale>
<asrwt>  1 0.35431642E+02</asrwt>
<pdfrwt beam="1">  1        1 0.82699375E+00 0.30000000E+03</pdfrwt>
<pdfrwt beam="2">0</pdfrwt>
<totfact> 0.62566942E-04</totfact>
</mgrwt>
<clustering>
<clus scale="   35.432">  1  6  2 -1</clus>
<clus scale="  463.350">  4  5 -1 -1</clus>
<clus scale="  300.000">  1  4  2 -1</clus>
</clustering>
</event>
<event>
 6    1  0.9480355E-012  0.3000000E+03  0.7818608E-02  0.1093470E+00
          1   -1    0    0  502    0  0.00000000000E+00  0.00000000000E+00  0.24416425907E+03  0.24416425907E+03  0.00000000000E+00 0.  1.
         13   -1    0    0    0    0 -0.00000000000E+00 -0.00000000000E+00 -0.27500000000E+03  0.27500000000E+03  0.00000000000E+00 0.  1.
    9000005    2    1    2  501    0 -0.32873417563E+02 -0.12723110434E+02 -0.42381588943E+02  0.48207186460E+03  0.47890974560E+03 0.  0.
         13    1    3    3    0    0 -0.25203859465E+03 -0.51882433609E+02 -0.15027472252E+02  0.25776164383E+03  0.00000000000E+00 0.  1.
          1    1    3    3  501    0  0.21916517709E+03  0.39159323175E+02 -0.27354116691E+02  0.22431022076E+03  0.00000000000E+00 0.  1.
         21    1    1    2  502  501  0.32873417563E+02  0.12723110434E+02  0.11545848011E+02  0.37092394472E+02  0.00000000000E+00 0.  1.
<scales pt_clust_4="550.00000" pt_clust_5="550.00000" pt_clust_6="35.24967"></scales>
<mgrwt>
<rscale>  0 0.30000000E+03</rscale>
<asrwt>  1 0.35249668E+02</asrwt>
<pdfrwt beam="1">  1        1 0.88787003E+00 0.30000000E+03</pdfrwt>
<pdfrwt beam="2">0</pdfrwt>
<totfact> 0.15472601E-04</totfact>
</mgrwt>
<clustering>
<clus scale="   35.250">  1  6  2 -1</clus>
<clus scale="  478.910">  4  5 -1 -1</clus>
<clus scale="  300.000">  1  4  2 -1</clus>
</clustering>
</event>
<event>
 6    1  0.9480355E-012  0.3000000E+03  0.7818608E-02  0.1093470E+00
          1   -1    0    0  502    0  0.00000000000E+00  0.00000000000E+00  0.22227812046E+03  0.22227812046E+03  0.00000000000E+00 0.  1.
         13   -1    0    0    0    0 -0.00000000000E+00 -0.00000000000E+00 -0.27500000000E+03  0.27500000000E+03  0.00000000000E+00 0.  1.
    9000005    2    1    2  501    0  0.22507628814E+01 -0.34305725923E+02 -0.59380553517E+02  0.46225974380E+03  0.45713900713E+03 0.  0.
         13    1    3    3    0    0  0.12774752670E+03  0.16415524349E+03  0.31691291849E+02  0.21040606579E+03  0.00000000000E+00 0.  1.
          1    1    3    3  501    0 -0.12549676382E+03 -0.19846096941E+03 -0.91071845366E+02  0.25185367801E+03  0.00000000000E+00 0.  1.
         21    1    1    2  502  501 -0.22507628814E+01  0.34305725923E+02  0.66586739806E+01  0.35018376659E+02  0.00000000000E+00 0.  1.
<scales pt_clust_4="550.00000" pt_clust_5="550.00000" pt_clust_6="34.37948"></scales>
<mgrwt>
<rscale>  0 0.30000000E+03</rscale>
<asrwt>  1 0.34379482E+02</asrwt>
<pdfrwt beam="1">  1        1 0.80828407E+00 0.30000000E+03</pdfrwt>
<pdfrwt beam="2">0</pdfrwt>
<totfact> 0.90231934E-04</totfact>
</mgrwt>
<clustering>
<clus scale="   34.379">  1  6  2 -1</clus>
<clus scale="  457.139">  4  5 -1 -1</clus>
<clus scale="  300.000">  1  4  2 -1</clus>
</clustering>
</event>
<event>
 6    1  0.9480355E-012  0.3000000E+03  0.7818608E-02  0.1093470E+00
          1   -1    0    0  502    0  0.00000000000E+00  0.00000000000E+00  0.22442039157E+03  0.22442039157E+03  0.00000000000E+00 0.  1.
         13   -1    0    0    0    0 -0.00000000000E+00 -0.00000000000E+00 -0.27500000000E+03  0.27500000000E+03  0.00000000000E+00 0.  1.
    9000005    2    1    2  501    0  0.18423270727E+02  0.25915932654E+02 -0.44995648291E+02  0.46713675670E+03  0.46387615656E+03 0.  0.
         13    1    3    3    0    0 -0.17893341896E+03 -0.11075516417E+03  0.36584786468E+02  0.21359382344E+03  0.00000000000E+00 0.  1.
          1    1    3    3  501    0  0.19735668968E+03  0.13667109683E+03 -0.81580434758E+02  0.25354293326E+03  0.00000000000E+00 0.  1.
         21    1    1    2  502  501 -0.18423270727E+02 -0.25915932654E+02 -0.55839601389E+01  0.32283634870E+02  0.00000000000E+00 0. -1.
<scales pt_clust_4="550.00000" pt_clust_5="550.00000" pt_clust_6="31.79707"></scales>
<mgrwt>
<rscale>  0 0.30000000E+03</rscale>
<asrwt>  1 0.31797067E+02</asrwt>
<pdfrwt beam="1">  1        1 0.81607415E+00 0.30000000E+03</pdfrwt>
<pdfrwt beam="2">0</pdfrwt>
<totfact> 0.79447154E-04</totfact>
</mgrwt>
<clustering>
<clus scale="   31.797">  1  6  2 -1</clus>
<clus scale="  463.876">  4  5 -1 -1</clus>
<clus scale="  300.000">  1  4  2 -1</clus>
</clustering>
</event>
<event>
 6    1  0.9480355E-012  0.3000000E+03  0.7818608E-02  0.1093470E+00
          1   -1    0    0  502    0  0.00000000000E+00  0.00000000000E+00  0.22965198234E+03  0.22965198234E+03  0.00000000000E+00 0.  1.
         13   -1    0    0    0    0 -0.00000000000E+00 -0.00000000000E+00 -0.27500000000E+03  0.27500000000E+03  0.00000000000E+00 0.  1.
    9000005    2    1    2  501    0  0.14377783109E+02 -0.29192797735E+02 -0.36895710426E+02  0.47103083446E+03  0.46845470803E+03 0.  0.
         13    1    3    3    0    0 -0.14478248121E+02 -0.19203109057E+03  0.13292001681E+03  0.23399420993E+03  0.00000000000E+00 0.  1.
          1    1    3    3  501    0  0.28856031230E+02  0.16283829283E+03 -0.16981572724E+03  0.23703662453E+03  0.00000000000E+00 0.  1.
         21    1    1    2  502  501 -0.14377783109E+02  0.29192797735E+02 -0.84523072380E+01  0.33621147874E+02  0.00000000000E+00 0. -1.
<scales pt_clust_4="550.00000" pt_clust_5="550.00000" pt_clust_6="32.54138"></scales>
<mgrwt>
<rscale>  0 0.30000000E+03</rscale>
<asrwt>  1 0.32541376E+02</asrwt>
<pdfrwt beam="1">  1        1 0.83509812E+00 0.30000000E+03</pdfrwt>
<pdfrwt beam="2">0</pdfrwt>
<totfact> 0.54755710E-04</totfact>
</mgrwt>
<clustering>
<clus scale="   32.541">  1  6  2 -1</clus>
<clus scale="  468.455">  4  5 -1 -1</clus>
<clus scale="  300.000">  1  4  2 -1</clus>
</clustering>
</event>
<event>
 6    1  0.9480355E-012  0.3000000E+03  0.7818608E-02  0.1093470E+00
          1   -1    0    0  502    0  0.00000000000E+00  0.00000000000E+00  0.25056948624E+03  0.25056948624E+03  0.00000000000E+00 0.  1.
         13   -1    0    0    0    0 -0.00000000000E+00 -0.00000000000E+00 -0.27500000000E+03  0.27500000000E+03  0.00000000000E+00 0.  1.
    9000005    2    1    2  501    0  0.45360148455E+02 -0.18439685789E+01 -0.93005239516E+01  0.47771700585E+03  0.47546408344E+03 0.  0.
         13    1    3    3    0    0 -0.11623090774E+03  0.16775583367E+03 -0.99054336208E+02  0.22685547197E+03  0.00000000000E+00 0.  1.
          3    1    3    3  501    0  0.16159105619E+03 -0.16959980225E+03  0.89753812256E+02  0.25086153387E+03  0.00000000000E+00 0.  1.
         21    1    1    2  502  501 -0.45360148455E+02  0.18439685789E+01 -0.15129989811E+02  0.47852480392E+02  0.00000000000E+00 0. -1.
<scales pt_clust_4="550.00000" pt_clust_5="550.00000" pt_clust_6="45.39764"></scales>
<mgrwt>
<rscale>  0 0.30000000E+03</rscale>
<asrwt>  1 0.45397636E+02</asrwt>
<pdfrwt beam="1">  1        1 0.91116177E+00 0.30000000E+03</pdfrwt>
<pdfrwt beam="2">0</pdfrwt>
<totfact> 0.64154923E-05</totfact>
</mgrwt>
<clustering>
<clus scale="   45.398">  1  6  2 -1</clus>
<clus scale="  475.464">  4  5 -1 -1</clus>
<clus scale="  300.000">  1  4  2 -1</clus>
</clustering>
</event>
<event>
 6    1  0.9480355E-012  0.3000000E+03  0.7818608E-02  0.1093470E+00
          1   -1    0    0  502    0  0.00000000000E+00  0.00000000000E+00  0.24002816052E+03  0.24002816052E+03  0.00000000000E+00 0.  1.
         13   -1    0    0    0    0 -0.00000000000E+00 -0.00000000000E+00 -0.27500000000E+03  0.27500000000E+03  0.00000000000E+00 0.  1.
    9000005    2    1    2  501    0 -0.37441175744E+02 -0.22948210330E+02 -0.22108509114E+02  0.46926871050E+03  0.46668605559E+03 0.  0.
         13    1    3    3    0    0 -0.12588780791E+03 -0.26773134453E+02  0.19565880511E+03  0.23419416928E+03  0.00000000000E+00 0.  1.
          1    1    3    3  501    0  0.88446632167E+02  0.38249241223E+01 -0.21776731422E+03  0.23507454122E+03  0.00000000000E+00 0.  1.
         21    1    1    2  502  501  0.37441175744E+02  0.22948210330E+02 -0.12863330365E+02  0.45759450024E+02  0.00000000000E+00 0. -1.
<scales pt_clust_4="550.00000" pt_clust_5="550.00000" pt_clust_6="43.91428"></scales>
<mgrwt>
<rscale>  0 0.30000000E+03</rscale>
<asrwt>  1 0.43914279E+02</asrwt>
<pdfrwt beam="1">  1        1 0.87282967E+00 0.30000000E+03</pdfrwt>
<pdfrwt beam="2">0</pdfrwt>
<totfact> 0.22728841E-04</totfact>
</mgrwt>
<clustering>
<clus scale="   43.914">  1  6  2 -1</clus>
<clus scale="  466.686">  4  5 -1 -1</clus>
<clus scale="  300.000">  1  4  2 -1</clus>
</clustering>
</event>
<event>
 6    1  0.9480355E-012  0.3000000E+03  0.7818608E-02  0.1093470E+00
          1   -1    0    0  502    0  0.00000000000E+00  0.00000000000E+00  0.23130131951E+03  0.23130131951E+03  0.00000000000E+00 0.  1.
         13   -1    0    0    0    0 -0.00000000000E+00 -0.00000000000E+00 -0.27500000000E+03  0.27500000000E+03  0.00000000000E+00 0.  1.
    9000005    2    1    2  501    0  0.25070070827E+02 -0.27147445544E+02 -0.45955512069E+02  0.46927989950E+03  0.46556011721E+03 0.  0.
         13    1    3    3    0    0  0.97331703335E+02 -0.12105749752E+03  0.16544375947E+03  0.22693614901E+03  0.00000000000E+00 0.  1.
          1    1    3    3  501    0 -0.72261632508E+02  0.93910051976E+02 -0.21139927154E+03  0.24234375049E+03  0.00000000000E+00 0.  1.
         21    1    1    2  502  501 -0.25070070827E+02  0.27147445544E+02  0.22568315806E+01  0.37021420010E+02  0.00000000000E+00 0.  1.
<scales pt_clust_4="550.00000" pt_clust_5="550.00000" pt_clust_6="36.95257"></scales>
<mgrwt>
<rscale>  0 0.30000000E+03</rscale>
<asrwt>  1 0.36952568E+02</asrwt>
<pdfrwt beam="1">  1        1 0.84109571E+00 0.30000000E+03</pdfrwt>
<pdfrwt beam="2">0</pdfrwt>
<totfact> 0.48243894E-04</totfact>
</mgrwt>
<clustering>
<clus scale="   36.953">  1  6  2 -1</clus>
<clus scale="  465.560">  4  5 -1 -1</clus>
<clus scale="  300.000">  1  4  2 -1</clus>
</clustering>
</event>
<event>
 6    1  0.9480355E-012  0.3000000E+03  0.7818608E-02  0.1093470E+00
          1   -1    0    0  502    0  0.00000000000E+00  0.00000000000E+00  0.22830476744E+03  0.22830476744E+03  0.00000000000E+00 0.  1.
         13   -1    0    0    0    0 -0.00000000000E+00 -0.00000000000E+00 -0.27500000000E+03  0.27500000000E+03  0.00000000000E+00 0.  1.
    9000005    2    1    2  501    0 -0.15284139510E+02 -0.25944706522E+02 -0.42933198049E+02  0.47295867015E+03  0.47004245708E+03 0.  0.
         13    1    3    3    0    0 -0.14760067005E+03  0.13600975432E+03 -0.13764950247E+03  0.24337624494E+03  0.00000000000E+00 0.  1.
          3    1    3    3  501    0  0.13231653054E+03 -0.16195446085E+03  0.94716304418E+02  0.22958242521E+03  0.00000000000E+00 0.  1.
         21    1    1    2  502  501  0.15284139510E+02  0.25944706522E+02 -0.37620345122E+01  0.30346097290E+02  0.00000000000E+00 0.  1.
<scales pt_clust_4="550.00000" pt_clust_5="550.00000" pt_clust_6="30.11202"></scales>
<mgrwt>
<rscale>  0 0.30000000E+03</rscale>
<asrwt>  1 0.30112018E+02</asrwt>
<pdfrwt beam="1">  1        1 0.83019915E+00 0.30000000E+03</pdfrwt>
<pdfrwt beam="2">0</pdfrwt>
<totfact> 0.60583102E-04</totfact>
</mgrwt>
<clustering>
<clus scale="   30.112">  1  6  2 -1</clus>
<clus scale="  470.042">  4  5 -1 -1</clus>
<clus scale="  300.000">  1  4  2 -1</clus>
</clustering>
</event>
<event>
 6    1  0.9480355E-012  0.3000000E+03  0.7818608E-02  0.1093470E+00
          1   -1    0    0  502    0  0.00000000000E+00  0.00000000000E+00  0.22698113833E+03  0.22698113833E+03  0.00000000000E+00 0.  1.
         13   -1    0    0    0    0 -0.00000000000E+00 -0.00000000000E+00 -0.27500000000E+03  0.27500000000E+03  0.00000000000E+00 0.  1.
    9000005    2    1    2  501    0  0.25436711983E+02  0.16281634487E+02 -0.36219635985E+02  0.46955676995E+03  0.46718259838E+03 0.  0.
         13    1    3    3    0    0 -0.66795991496E+02  0.22759922725E+03 -0.27951788274E+02  0.23883972700E+03  0.00000000000E+00 0.  1.
          3    1    3    3  501    0  0.92232703479E+02 -0.21131759276E+03 -0.82678477112E+01  0.23071704295E+03  0.00000000000E+00 0.  1.
         21    1    1    2  502  501 -0.25436711983E+02 -0.16281634487E+02 -0.11799225688E+02  0.32424368381E+02  0.00000000000E+00 0.  1.
<scales pt_clust_4="550.00000" pt_clust_5="550.00000" pt_clust_6="30.20131"></scales>
<mgrwt>
<rscale>  0 0.30000000E+03</rscale>
<asrwt>  1 0.30201305E+02</asrwt>
<pdfrwt beam="1">  1        1 0.82538596E+00 0.30000000E+03</pdfrwt>
<pdfrwt beam="2">0</pdfrwt>
<totfact> 0.66639410E-04</totfact>
</mgrwt>
<clustering>
<clus scale="   30.201">  1  6  2 -1</clus>
<clus scale="  467.183">  4  5 -1 -1</clus>
<clus scale="  300.000">  1  4  2 -1</clus>
</clustering>
</event>
<event>
 6    1  0.9480355E-012  0.3000000E+03  0.7818608E-02  0.1093470E+00
          1   -1    0    0  502    0  0.00000000000E+00  0.00000000000E+00  0.23019889372E+03  0.23019889372E+03  0.00000000000E+00 0.  1.
         13   -1    0    0    0    0 -0.00000000000E+00 -0.00000000000E+00 -0.27500000000E+03  0.27500000000E+03  0.00000000000E+00 0.  1.
    9000005    2    1    2  501    0  0.31877051753E+02  0.57686928500E+01 -0.55672952887E+02  0.47102841971E+03  0.46660354718E+03 0.  0.
         13    1    3    3    0    0  0.19994286527E+03 -0.96086585746E+02 -0.13434808632E+03  0.25934376729E+03  0.00000000000E+00 0.  1.
          3    1    3    3  501    0 -0.16806581351E+03  0.10185527860E+03  0.78675133434E+02  0.21168465242E+03  0.00000000000E+00 0.  1.
         21    1    1    2  502  501 -0.31877051753E+02 -0.57686928500E+01  0.10871846609E+02  0.34170474014E+02  0.00000000000E+00 0.  1.
<scales pt_clust_4="550.00000" pt_clust_5="550.00000" pt_clust_6="32.39482"></scales>
<mgrwt>
<rscale>  0 0.30000000E+03</rscale>
<asrwt>  1 0.32394818E+02</asrwt>
<pdfrwt beam="1">  1        1 0.83708689E+00 0.30000000E+03</pdfrwt>
<pdfrwt beam="2">0</pdfrwt>
<totfact> 0.53009697E-04</totfact>
</mgrwt>
<clustering>
<clus scale="   32.395">  1  6  2 -1</clus>
<clus scale="  466.604">  4  5 -1 -1</clus>
<clus scale="  300.000">  1  4  2 -1</clus>
</clustering>
</event>
<event>
 6    1  0.9480355E-012  0.3000000E+03  0.7818608E-02  0.1093470E+00
          1   -1    0    0  502    0  0.00000000000E+00  0.00000000000E+00  0.23156073080E+03  0.23156073080E+03  0.00000000000E+00 0.  1.
         13   -1    0    0    0    0 -0.00000000000E+00 -0.00000000000E+00 -0.27500000000E+03  0.27500000000E+03  0.00000000000E+00 0.  1.
    9000005    2    1    2  501    0 -0.33711638030E+02 -0.13943635327E+02 -0.55842802151E+02  0.46802831413E+03  0.46325067164E+03 0.  0.
         13    1    3    3    0    0 -0.15273373352E+03 -0.16313629415E+03  0.76022317739E+02  0.23605176682E+03  0.00000000000E+00 0.  1.
          1    1    3    3  501    0  0.11902209549E+03  0.14919265882E+03 -0.13186511989E+03  0.23197654732E+03  0.00000000000E+00 0.  1.
         21    1    1    2  502  501  0.33711638030E+02  0.13943635327E+02  0.12403532955E+02  0.38532416671E+02  0.00000000000E+00 0.  1.
<scales pt_clust_4="550.00000" pt_clust_5="550.00000" pt_clust_6="36.48150"></scales>
<mgrwt>
<rscale>  0 0.30000000E+03</rscale>
<asrwt>  1 0.36481495E+02</asrwt>
<pdfrwt beam="1">  1        1 0.84203902E+00 0.30000000E+03</pdfrwt>
<pdfrwt beam="2">0</pdfrwt>
<totfact> 0.47512523E-04</totfact>
</mgrwt>
<clustering>
<clus scale="   36.481">  1  6  2 -1</clus>
<clus scale="  463.251">  4  5 -1 -1</clus>
<clus scale="  300.000">  1  4  2 -1</clus>
</clustering>
</event>
<event>
 6    1  0.9480355E-012  0.3000000E+03  0.7818608E-02  0.1093470E+00
          1   -1    0    0  502    0  0.00000000000E+00  0.00000000000E+00  0.22981114321E+03  0.22981114321E+03  0.00000000000E+00 0.  1.
         13   -1    0    0    0    0 -0.00000000000E+00 -0.00000000000E+00 -0.27500000000E+03  0.27500000000E+03  0.00000000000E+00 0.  1.
    9000005    2    1    2  501    0  0.92966673257E+00 -0.33379537948E+02 -0.60815646307E+02  0.46794307593E+03  0.46277113312E+03 0.  0.
         13    1    3    3    0    0  0.53400181728E+02 -0.45244013566E+02 -0.25604454904E+03  0.26543814960E+03  0.00000000000E+00 0.  1.
          1    1    3    3  501    0 -0.52470514996E+02  0.11864475618E+02  0.19522890273E+03  0.20250492633E+03  0.00000000000E+00 0.  1.
         21    1    1    2  502  501 -0.92966673257E+00  0.33379537948E+02  0.15626789514E+02  0.36868067272E+02  0.00000000000E+00 0.  1.
<scales pt_clust_4="550.00000" pt_clust_5="550.00000" pt_clust_6="33.39248"></scales>
<mgrwt>
<rscale>  0 0.30000000E+03</rscale>
<asrwt>  1 0.33392482E+02</asrwt>
<pdfrwt beam="1">  1        1 0.83567688E+00 0.30000000E+03</pdfrwt>
<pdfrwt beam="2">0</pdfrwt>
<totfact> 0.53963159E-04</totfact>
</mgrwt>
<clustering>
<clus scale="   33.392">  1  6  2 -1</clus>
<clus scale="  462.771">  4  5 -1 -1</clus>
<clus scale="  300.000">  1  4  2 -1</clus>
</clustering>
</event>
<event>
 6    1  0.9480355E-012  0.3000000E+03  0.7818608E-02  0.1093470E+00
          1   -1    0    0  502    0  0.00000000000E+00  0.00000000000E+00  0.22860459412E+03  0.22860459412E+03  0.00000000000E+00 0.  1.
         13   -1    0    0    0    0 -0.00000000000E+00 -0.00000000000E+00 -0.27500000000E+03  0.27500000000E+03  0.00000000000E+00 0.  1.
    9000005    2    1    2  501    0  0.30557862877E+01 -0.39375586541E+02 -0.40992690360E+02  0.46374278307E+03  0.46023601939E+03 0.  0.
         13    1    3    3    0    0 -0.14705084701E+03 -0.44958831346E+02  0.15398368232E+03  0.21761484909E+03  0.00000000000E+00 0.  1.
          1    1    3    3  501    0  0.15010663330E+03  0.55832448057E+01 -0.19497637268E+03  0.24612793398E+03  0.00000000000E+00 0.  1.
         21    1    1    2  502  501 -0.30557862877E+01  0.39375586541E+02 -0.54027155201E+01  0.39861811051E+02  0.00000000000E+00 0.  1.
<scales pt_clust_4="550.00000" pt_clust_5="550.00000" pt_clust_6="39.49400"></scales>
<mgrwt>
<rscale>  0 0.30000000E+03</rscale>
<asrwt>  1 0.39494002E+02</asrwt>
<pdfrwt beam="1">  1        1 0.83128943E+00 0.30000000E+03</pdfrwt>
<pdfrwt beam="2">0</pdfrwt>
<totfact> 0.56426693E-04</totfact>
</mgrwt>
<clustering>
<clus scale="   39.494">  1  6  2 -1</clus>
<clus scale="  460.236">  4  5 -1 -1</clus>
<clus scale="  300.000">  1  4  2 -1</clus>
</clustering>
</event>
<event>
 6    1  0.9480355E-012  0.3000000E+03  0.7818608E-02  0.1093470E+00
          1   -1    0    0  502    0  0.00000000000E+00  0.00000000000E+00  0.22821626574E+03  0.22821626574E+03  0.00000000000E+00 0.  1.
         13   -1    0    0    0    0 -0.00000000000E+00 -0.00000000000E+00 -0.27500000000E+03  0.27500000000E+03  0.00000000000E+00 0.  1.
    9000005    2    1    2  501    0 -0.65011634493E+01 -0.32783211806E+02 -0.63474458240E+02  0.46585874482E+03  0.46030246488E+03 0.  0.
         13    1    3    3    0    0  0.19452134020E+03 -0.24007197941E+00  0.86565818806E+02  0.21291371589E+03  0.00000000000E+00 0.  1.
          3    1    3    3  501    0 -0.20102250365E+03 -0.32543139826E+02 -0.15004027705E+03  0.25294502893E+03  0.00000000000E+00 0.  1.
         21    1    1    2  502  501  0.65011634493E+01  0.32783211806E+02  0.16690723977E+02  0.37357520921E+02  0.00000000000E+00 0.  1.
<scales pt_clust_4="550.00000" pt_clust_5="550.00000" pt_clust_6="33.42161"></scales>
<mgrwt>
<rscale>  0 0.30000000E+03</rscale>
<asrwt>  1 0.33421611E+02</asrwt>
<pdfrwt beam="1">  1        1 0.82987733E+00 0.30000000E+03</pdfrwt>
<pdfrwt beam="2">0</pdfrwt>
<totfact> 0.59754931E-04</totfact>
</mgrwt>
<clustering>
<clus scale="   33.422">  1  6  2 -1</clus>
<clus scale="  460.302">  4  5 -1 -1</clus>
<clus scale="  300.000">  1  4  2 -1</clus>
</clustering>
</event>
<event>
 6    1  0.9480355E-012  0.3000000E+03  0.7818608E-02  0.1093470E+00
          1   -1    0    0  502    0  0.00000000000E+00  0.00000000000E+00  0.23750267891E+03  0.23750267891E+03  0.00000000000E+00 0.  1.
         13   -1    0    0    0    0 -0.00000000000E+00 -0.00000000000E+00 -0.27500000000E+03  0.27500000000E+03  0.00000000000E+00 0.  1.
    9000005    2    1    2  501    0 -0.21314406023E+02 -0.25403222325E+02 -0.50794234712E+02  0.47677544111E+03  0.47290077116E+03 0.  0.
         13    1    3    3    0    0 -0.44349030112E+02  0.21352772583E+03 -0.85489695499E+02  0.23424221269E+03  0.00000000000E+00 0.  1.
          1    1    3    3  501    0  0.23034624089E+02 -0.23893094815E+03  0.34695460786E+02  0.24253322843E+03  0.00000000000E+00 0.  1.
         21    1    1    2  502  501  0.21314406023E+02  0.25403222325E+02  0.13296913622E+02  0.35727237796E+02  0.00000000000E+00 0.  1.
<scales pt_clust_4="550.00000" pt_clust_5="550.00000" pt_clust_6="33.16063"></scales>
<mgrwt>
<rscale>  0 0.30000000E+03</rscale>
<asrwt>  1 0.33160633E+02</asrwt>
<pdfrwt beam="1">  1        1 0.86364611E+00 0.30000000E+03</pdfrwt>
<pdfrwt beam="2">0</pdfrwt>
<totfact> 0.29849361E-04</totfact>
</mgrwt>
<clustering>
<clus scale="   33.161">  1  6  2 -1</clus>
<clus scale="  472.901">  4  5 -1 -1</clus>
<clus scale="  300.000">  1  4  2 -1</clus>
</clustering>
</event>
<event>
 6    1  0.9480355E-012  0.3000000E+03  0.7818608E-02  0.1093470E+00
          1   -1    0    0  502    0  0.00000000000E+00  0.00000000000E+00  0.22671470284E+03  0.22671470284E+03  0.00000000000E+00 0.  1.
         13   -1    0    0    0    0 -0.00000000000E+00 -0.00000000000E+00 -0.27500000000E+03  0.27500000000E+03  0.00000000000E+00 0.  1.
    9000005    2    1    2  501    0 -0.30654436989E+02  0.40370076494E+00 -0.50901438302E+02  0.47094618523E+03  0.46718250767E+03 0.  0.
         13    1    3    3    0    0  0.55514868534E+02 -0.19831103504E+03  0.76473135253E+02  0.21967545985E+03  0.00000000000E+00 0.  1.
          1    1    3    3  501    0 -0.86169305523E+02  0.19871473580E+03 -0.12737457356E+03  0.25127072537E+03  0.00000000000E+00 0.  1.
         21    1    1    2  502  501  0.30654436989E+02 -0.40370076494E+00  0.26161411374E+01  0.30768517609E+02  0.00000000000E+00 0.  1.
<scales pt_clust_4="550.00000" pt_clust_5="550.00000" pt_clust_6="30.65710"></scales>
<mgrwt>
<rscale>  0 0.30000000E+03</rscale>
<asrwt>  1 0.30657095E+02</asrwt>
<pdfrwt beam="1">  1        1 0.82441710E+00 0.30000000E+03</pdfrwt>
<pdfrwt beam="2">0</pdfrwt>
<totfact> 0.67784492E-04</totfact>
</mgrwt>
<clustering>
<clus scale="   30.657">  1  6  2 -1</clus>
<clus scale="  467.183">  4  5 -1 -1</clus>
<clus scale="  300.000">  1  4  2 -1</clus>
</clustering>
</event>
<event>
 6    1  0.9480355E-012  0.3000000E+03  0.7818608E-02  0.1093470E+00
          1   -1    0    0  502    0  0.00000000000E+00  0.00000000000E+00  0.21933774029E+03  0.21933774029E+03  0.00000000000E+00 0.  1.
         13   -1    0    0    0    0 -0.00000000000E+00 -0.00000000000E+00 -0.27500000000E+03  0.27500000000E+03  0.00000000000E+00 0.  1.
    9000005    2    1    2  501    0 -0.11532746096E+02 -0.28124169360E+02 -0.55362591038E+02  0.46393933678E+03  0.45962018950E+03 0.  0.
         13    1    3    3    0    0 -0.68277459783E+02  0.88433421178E+02 -0.22454259941E+03  0.25080203438E+03  0.00000000000E+00 0.  1.
          3    1    3    3  501    0  0.56744713687E+02 -0.11655759054E+03  0.16918000838E+03  0.21313730241E+03  0.00000000000E+00 0.  1.
         21    1    1    2  502  501  0.11532746096E+02  0.28124169360E+02 -0.29966866891E+00  0.30398403511E+02  0.00000000000E+00 0. -1.
<scales pt_clust_4="550.00000" pt_clust_5="550.00000" pt_clust_6="30.39693"></scales>
<mgrwt>
<rscale>  0 0.30000000E+03</rscale>
<asrwt>  1 0.30396926E+02</asrwt>
<pdfrwt beam="1">  1        1 0.79759178E+00 0.30000000E+03</pdfrwt>
<pdfrwt beam="2">0</pdfrwt>
<totfact> 0.11087970E-03</totfact>
</mgrwt>
<clustering>
<clus scale="   30.397">  1  6  2 -1</clus>
<clus scale="  459.620">  4  5 -1 -1</clus>
<clus scale="  300.000">  1  4  2 -1</clus>
</clustering>
</event>
<event>
 6    1  0.9480355E-012  0.3000000E+03  0.7818608E-02  0.1093470E+00
          1   -1    0    0  502    0  0.00000000000E+00  0.00000000000E+00  0.24338297355E+03  0.24338297355E+03  0.00000000000E+00 0.  1.
         13   -1    0    0    0    0 -0.00000000000E+00 -0.00000000000E+00 -0.27500000000E+03  0.27500000000E+03  0.00000000000E+00 0.  1.
    9000005    2    1    2  501    0 -0.25987844671E+02 -0.17988343017E+02 -0.63910783784E+01  0.47794416779E+03  0.47685514896E+03 0.  0.
         13    1    3    3    0    0  0.15772453572E+03 -0.14203545051E+03 -0.10325333761E+03  0.23603463749E+03  0.00000000000E+00 0.  1.
          1    1    3    3  501    0 -0.18371238039E+03  0.12404710749E+03  0.96862259233E+02  0.24190953030E+03  0.00000000000E+00 0.  1.
         21    1    1    2  502  501  0.25987844671E+02  0.17988343017E+02 -0.25225948070E+02  0.40438805758E+02  0.00000000000E+00 0. -1.
<scales pt_clust_4="550.00000" pt_clust_5="550.00000" pt_clust_6="31.60616"></scales>
<mgrwt>
<rscale>  0 0.30000000E+03</rscale>
<asrwt>  1 0.31606163E+02</asrwt>
<pdfrwt beam="1">  1        1 0.88502899E+00 0.30000000E+03</pdfrwt>
<pdfrwt beam="2">0</pdfrwt>
<totfact> 0.17284971E-04</totfact>
</mgrwt>
<clustering>
<clus scale="   31.606">  1  6  2 -1</clus>
<clus scale="  476.855">  4  5 -1 -1</clus>
<clus scale="  300.000">  1  4  2 -1</clus>
</clustering>
</event>
<event>
 6    1  0.9480355E-012  0.3000000E+03  0.7818608E-02  0.1093470E+00
          1   -1    0    0  502    0  0.00000000000E+00  0.00000000000E+00  0.23619017154E+03  0.23619017154E+03  0.00000000000E+00 0.  1.
         13   -1    0    0    0    0 -0.00000000000E+00 -0.00000000000E+00 -0.27500000000E+03  0.27500000000E+03  0.00000000000E+00 0.  1.
    9000005    2    1    2  501    0 -0.42425702323E+01 -0.30032214866E+02 -0.64514998168E+02  0.47143229079E+03  0.46601103687E+03 0.  0.
         13    1    3    3    0    0 -0.83660793366E+02  0.96877105422E+02  0.15793710573E+03  0.20329395286E+03  0.00000000000E+00 0.  1.
          3    1    3    3  501    0  0.79418223134E+02 -0.12690932029E+03 -0.22245210390E+03  0.26813833793E+03  0.00000000000E+00 0.  1.
         21    1    1    2  502  501  0.42425702323E+01  0.30032214866E+02  0.25705169710E+02  0.39757880751E+02  0.00000000000E+00 0. -1.
<scales pt_clust_4="550.00000" pt_clust_5="550.00000" pt_clust_6="30.33040"></scales>
<mgrwt>
<rscale>  0 0.30000000E+03</rscale>
<asrwt>  1 0.30330403E+02</asrwt>
<pdfrwt beam="1">  1        1 0.85887335E+00 0.30000000E+03</pdfrwt>
<pdfrwt beam="2">0</pdfrwt>
<totfact> 0.34164028E-04</totfact>
</mgrwt>
<clustering>
<clus scale="   30.330">  1  6  2 -1</clus>
<clus scale="  466.011">  4  5 -1 -1</clus>
<clus scale="  300.000">  1  4  2 -1</clus>
</clustering>
</event>
<event>
 6    1  0.9480355E-012  0.3000000E+03  0.7818608E-02  0.1093470E+00
          1   -1    0    0  502    0  0.00000000000E+00  0.00000000000E+00  0.23941006458E+03  0.23941006458E+03  0.00000000000E+00 0.  1.
         13   -1    0    0    0    0 -0.00000000000E+00 -0.00000000000E+00 -0.27500000000E+03  0.27500000000E+03  0.00000000000E+00 0.  1.
    9000005    2    1    2  501    0  0.36562296888E+02  0.16276160884E+02 -0.46598475535E+02  0.47290219879E+03  0.46889589115E+03 0.  0.
         13    1    3    3    0    0 -0.13339050887E+03  0.16671086890E+03  0.60529822105E+02  0.22192206071E+03  0.00000000000E+00 0.  1.
          1    1    3    3  501    0  0.16995280575E+03 -0.15043470801E+03 -0.10712829764E+03  0.25098013809E+03  0.00000000000E+00 0.  1.
         21    1    1    2  502  501 -0.36562296888E+02 -0.16276160884E+02  0.11008540116E+02  0.41507865788E+02  0.00000000000E+00 0.  1.
<scales pt_clust_4="550.00000" pt_clust_5="550.00000" pt_clust_6="40.02143"></scales>
<mgrwt>
<rscale>  0 0.30000000E+03</rscale>
<asrwt>  1 0.40021431E+02</asrwt>
<pdfrwt beam="1">  1        1 0.87058205E+00 0.30000000E+03</pdfrwt>
<pdfrwt beam="2">0</pdfrwt>
<totfact> 0.24369556E-04</totfact>
</mgrwt>
<clustering>
<clus scale="   40.021">  1  6  2 -1</clus>
<clus scale="  468.896">  4  5 -1 -1</clus>
<clus scale="  300.000">  1  4  2 -1</clus>
</clustering>
</event>
<event>
 6    1  0.9480355E-012  0.3000000E+03  0.7818608E-02  0.1093470E+00
          1   -1    0    0  502    0  0.00000000000E+00  0.00000000000E+00  0.26691705494E+03  0.26691705494E+03  0.00000000000E+00 0.  1.
         13   -1    0    0    0    0 -0.00000000000E+00 -0.00000000000E+00 -0.27500000000E+03  0.27500000000E+03  0.00000000000E+00 0.  1.
    9000005    2    1    2  501    0 -0.18868615030E+02 -0.25027940255E+02 -0.52422918942E+02  0.48761737068E+03  0.48377692724E+03 0.  0.
         13    1    3    3    0    0 -0.13874078970E+02 -0.22176287542E+03 -0.14986884477E+03  0.26801480111E+03  0.00000000000E+00 0.  1.
          3    1    3    3  501    0 -0.49945360601E+01  0.19673493516E+03  0.97445925823E+02  0.21960256957E+03  0.00000000000E+00 0.  1.
         21    1    1    2  502  501  0.18868615030E+02  0.25027940255E+02  0.44339973877E+02  0.54299684253E+02  0.00000000000E+00 0. -1.
<scales pt_clust_4="550.00000" pt_clust_5="550.00000" pt_clust_6="31.34362"></scales>
<mgrwt>
<rscale>  0 0.30000000E+03</rscale>
<asrwt>  1 0.31343619E+02</asrwt>
<pdfrwt beam="1">  1        1 0.97060747E+00 0.30000000E+03</pdfrwt>
<pdfrwt beam="2">0</pdfrwt>
<totfact> 0.49550933E-06</totfact>
</mgrwt>
<clustering>
<clus scale="   31.344">  1  6  2 -1</clus>
<clus scale="  483.777">  4  5 -1 -1</clus>
<clus scale="  300.000">  1  4  2 -1</clus>
</clustering>
</event>
<event>
 6    1  0.9480355E-012  0.3000000E+03  0.7818608E-02  0.1093470E+00
          1   -1    0    0  502    0  0.00000000000E+00  0.00000000000E+00  0.23948931660E+03  0.23948931660E+03  0.00000000000E+00 0.  1.
         13   -1    0    0    0    0 -0.00000000000E+00 -0.00000000000E+00 -0.27500000000E+03  0.27500000000E+03  0.00000000000E+00 0.  1.
    9000005    2    1    2  501    0  0.12566632724E+02  0.43125988765E+02 -0.57829365814E+02  0.46433062094E+03  0.45852035814E+03 0.  0.
         13    1    3    3    0    0  0.72661867804E+02  0.72086673573E+02  0.18558602452E+03  0.21193963300E+03  0.00000000000E+00 0.  1.
          3    1    3    3  501    0 -0.60095235081E+02 -0.28960684808E+02 -0.24341539033E+03  0.25239098794E+03  0.00000000000E+00 0.  1.
         21    1    1    2  502  501 -0.12566632724E+02 -0.43125988765E+02  0.22318682410E+02  0.50158695652E+02  0.00000000000E+00 0.  1.
<scales pt_clust_4="550.00000" pt_clust_5="550.00000" pt_clust_6="44.91961"></scales>
<mgrwt>
<rscale>  0 0.30000000E+03</rscale>
<asrwt>  1 0.44919608E+02</asrwt>
<pdfrwt beam="1">  1        1 0.87087024E+00 0.30000000E+03</pdfrwt>
<pdfrwt beam="2">0</pdfrwt>
<totfact> 0.23705667E-04</totfact>
</mgrwt>
<clustering>
<clus scale="   44.920">  1  6  2 -1</clus>
<clus scale="  458.520">  4  5 -1 -1</clus>
<clus scale="  300.000">  1  4  2 -1</clus>
</clustering>
</event>
<event>
 6    1  0.9480355E-012  0.3000000E+03  0.7818608E-02  0.1093470E+00
          1   -1    0    0  502    0  0.00000000000E+00  0.00000000000E+00  0.22133194206E+03  0.22133194206E+03  0.00000000000E+00 0.  1.
         13   -1    0    0    0    0 -0.00000000000E+00 -0.00000000000E+00 -0.27500000000E+03  0.27500000000E+03  0.00000000000E+00 0.  1.
    9000005    2    1    2  501    0 -0.30594904774E+02  0.59740789315E+01 -0.65000615960E+02  0.46316321148E+03  0.45751868003E+03 0.  0.
         13    1    3    3    0    0 -0.95031810054E+01  0.23092455671E+03 -0.51719038604E+02  0.23683606207E+03  0.00000000000E+00 0.  1.
          1    1    3    3  501    0 -0.21091723768E+02 -0.22495047778E+03 -0.13281577356E+02  0.22632714941E+03  0.00000000000E+00 0.  1.
         21    1    1    2  502  501  0.30594904774E+02 -0.59740789315E+01  0.11332558023E+02  0.33168730584E+02  0.00000000000E+00 0.  1.
<scales pt_clust_4="550.00000" pt_clust_5="550.00000" pt_clust_6="31.17271"></scales>
<mgrwt>
<rscale>  0 0.30000000E+03</rscale>
<asrwt>  1 0.31172709E+02</asrwt>
<pdfrwt beam="1">  1        1 0.80484343E+00 0.30000000E+03</pdfrwt>
<pdfrwt beam="2">0</pdfrwt>
<totfact> 0.97669883E-04</totfact>
</mgrwt>
<clustering>
<clus scale="   31.173">  1  6  2 -1</clus>
<clus scale="  457.519">  4  5 -1 -1</clus>
<clus scale="  300.000">  1  4  2 -1</clus>
</clustering>
</event>
<event>
 6    1  0.9480355E-012  0.3000000E+03  0.7818608E-02  0.1093470E+00
          1   -1    0    0  502    0  0.00000000000E+00  0.00000000000E+00  0.24221427091E+03  0.24221427091E+03  0.00000000000E+00 0.  1.
         13   -1    0    0    0    0 -0.00000000000E+00 -0.00000000000E+00 -0.27500000000E+03  0.27500000000E+03  0.00000000000E+00 0.  1.
    9000005    2    1    2  501    0  0.40972639312E+02  0.20432119447E+02 -0.49149285773E+02  0.46859334265E+03  0.46375407255E+03 0.  0.
         13    1    3    3    0    0 -0.19822518383E+03  0.63225653093E+02  0.35910355300E+02  0.21114038063E+03  0.00000000000E+00 0.  1.
          3    1    3    3  501    0  0.23919782314E+03 -0.42793533646E+02 -0.85059641073E+02  0.25745296203E+03  0.00000000000E+00 0.  1.
         21    1    1    2  502  501 -0.40972639312E+02 -0.20432119447E+02  0.16363556685E+02  0.48620928258E+02  0.00000000000E+00 0.  1.
<scales pt_clust_4="550.00000" pt_clust_5="550.00000" pt_clust_6="45.78459"></scales>
<mgrwt>
<rscale>  0 0.30000000E+03</rscale>
<asrwt>  1 0.45784590E+02</asrwt>
<pdfrwt beam="1">  1        1 0.88077917E+00 0.30000000E+03</pdfrwt>
<pdfrwt beam="2">0</pdfrwt>
<totfact> 0.18377659E-04</totfact>
</mgrwt>
<clustering>
<clus scale="   45.785">  1  6  2 -1</clus>
<clus scale="  463.754">  4  5 -1 -1</clus>
<clus scale="  300.000">  1  4  2 -1</clus>
</clustering>
</event>
<event>
 6    1  0.9480355E-012  0.3000000E+03  0.7818608E-02  0.1093470E+00
          1   -1    0    0  502    0  0.00000000000E+00  0.00000000000E+00  0.22811761173E+03  0.22811761173E+03  0.00000000000E+00 0.  1.
         13   -1    0    0    0    0 -0.00000000000E+00 -0.00000000000E+00 -0.27500000000E+03  0.27500000000E+03  0.00000000000E+00 0.  1.
    9000005    2    1    2  501    0  0.32948784330E+02  0.79591131816E+00 -0.58291007944E+02  0.46824050654E+03  0.46342752885E+03 0.  0.
         13    1    3    3    0    0  0.43389684571E+02  0.10253819520E+03  0.17845881147E+03  0.21034327561E+03  0.00000000000E+00 0.  1.
          1    1    3    3  501    0 -0.10440900241E+02 -0.10174228388E+03 -0.23674981942E+03  0.25789723093E+03  0.00000000000E+00 0.  1.
         21    1    1    2  502  501 -0.32948784330E+02 -0.79591131816E+00  0.11408619673E+02  0.34877105191E+02  0.00000000000E+00 0. -1.
<scales pt_clust_4="550.00000" pt_clust_5="550.00000" pt_clust_6="32.95840"></scales>
<mgrwt>
<rscale>  0 0.30000000E+03</rscale>
<asrwt>  1 0.32958396E+02</asrwt>
<pdfrwt beam="1">  1        1 0.82951859E+00 0.30000000E+03</pdfrwt>
<pdfrwt beam="2">0</pdfrwt>
<totfact> 0.60326670E-04</totfact>
</mgrwt>
<clustering>
<clus scale="   32.958">  1  6  2 -1</clus>
<clus scale="  463.428">  4  5 -1 -1</clus>
<clus scale="  300.000">  1  4  2 -1</clus>
</clustering>
</event>
<event>
 6    1  0.9480355E-012  0.3000000E+03  0.7818608E-02  0.1093470E+00
          1   -1    0    0  502    0  0.00000000000E+00  0.00000000000E+00  0.24526007785E+03  0.24526007785E+03  0.00000000000E+00 0.  1.
         13   -1    0    0    0    0 -0.00000000000E+00 -0.00000000000E+00 -0.27500000000E+03  0.27500000000E+03  0.00000000000E+00 0.  1.
    9000005    2    1    2  501    0  0.29268735874E+02  0.11830421157E+02  0.93136324143E-01  0.47682473345E+03  0.47577851989E+03 0.  0.
         13    1    3    3    0    0 -0.19269987263E+03  0.24535626757E+02  0.11583500447E+03  0.22617025922E+03  0.00000000000E+00 0.  1.
          3    1    3    3  501    0  0.22196860851E+03 -0.12705205599E+02 -0.11574186814E+03  0.25065447423E+03  0.00000000000E+00 0.  1.
         21    1    1    2  502  501 -0.29268735874E+02 -0.11830421157E+02 -0.29833058479E+02  0.43435344394E+02  0.00000000000E+00 0. -1.
<scales pt_clust_4="550.00000" pt_clust_5="550.00000" pt_clust_6="31.56927"></scales>
<mgrwt>
<rscale>  0 0.30000000E+03</rscale>
<asrwt>  1 0.31569269E+02</asrwt>
<pdfrwt beam="1">  1        1 0.89185483E+00 0.30000000E+03</pdfrwt>
<pdfrwt beam="2">0</pdfrwt>
<totfact> 0.13991463E-04</totfact>
</mgrwt>
<clustering>
<clus scale="   31.569">  1  6  2 -1</clus>
<clus scale="  475.779">  4  5 -1 -1</clus>
<clus scale="  300.000">  1  4  2 -1</clus>
</clustering>
</event>
<event>
 6    1  0.9480355E-012  0.3000000E+03  0.7818608E-02  0.1093470E+00
          1   -1    0    0  502    0  0.00000000000E+00  0.00000000000E+00  0.23823600321E+03  0.23823600321E+03  0.00000000000E+00 0.  1.
         13   -1    0    0    0    0 -0.00000000000E+00 -0.00000000000E+00 -0.27500000000E+03  0.27500000000E+03  0.00000000000E+00 0.  1.
    9000005    2    1    2  501    0 -0.27570878847E+02 -0.15964510526E+02 -0.63184519329E+02  0.47184683835E+03  0.46651059626E+03 0.  0.
         13    1    3    3    0    0 -0.13744247390E+03 -0.14519309355E+03  0.11103469009E+03  0.22869230518E+03  0.00000000000E+00 0.  1.
          1    1    3    3  501    0  0.10987159505E+03  0.12922858302E+03 -0.17421920942E+03  0.24315453317E+03  0.00000000000E+00 0.  1.
         21    1    1    2  502  501  0.27570878847E+02  0.15964510526E+02  0.26420522538E+02  0.41389164861E+02  0.00000000000E+00 0. -1.
<scales pt_clust_4="550.00000" pt_clust_5="550.00000" pt_clust_6="31.85936"></scales>
<mgrwt>
<rscale>  0 0.30000000E+03</rscale>
<asrwt>  1 0.31859362E+02</asrwt>
<pdfrwt beam="1">  1        1 0.86631274E+00 0.30000000E+03</pdfrwt>
<pdfrwt beam="2">0</pdfrwt>
<totfact> 0.28155708E-04</totfact>
</mgrwt>
<clustering>
<clus scale="   31.859">  1  6  2 -1</clus>
<clus scale="  466.511">  4  5 -1 -1</clus>
<clus scale="  300.000">  1  4  2 -1</clus>
</clustering>
</event>
<event>
 6    1  0.9480355E-012  0.3000000E+03  0.7818608E-02  0.1093470E+00
          1   -1    0    0  502    0  0.00000000000E+00  0.00000000000E+00  0.23340838094E+03  0.23340838094E+03  0.00000000000E+00 0.  1.
         13   -1    0    0    0    0 -0.00000000000E+00 -0.00000000000E+00 -0.27500000000E+03  0.27500000000E+03  0.00000000000E+00 0.  1.
    9000005    2    1    2  501    0  0.31480106266E+02  0.26875644836E+02 -0.27967574094E+02  0.46483187377E+03  0.46213979303E+03 0.  0.
         13    1    3    3    0    0 -0.48511873694E+02 -0.44269965289E+02  0.20133208655E+03  0.21177308798E+03  0.00000000000E+00 0.  1.
          3    1    3    3  501    0  0.79991979960E+02  0.71145610125E+02 -0.22929966064E+03  0.25305878580E+03  0.00000000000E+00 0.  1.
         21    1    1    2  502  501 -0.31480106266E+02 -0.26875644836E+02 -0.13624044964E+02  0.43576507169E+02  0.00000000000E+00 0.  1.
<scales pt_clust_4="550.00000" pt_clust_5="550.00000" pt_clust_6="41.39202"></scales>
<mgrwt>
<rscale>  0 0.30000000E+03</rscale>
<asrwt>  1 0.41392017E+02</asrwt>
<pdfrwt beam="1">  1        1 0.84875775E+00 0.30000000E+03</pdfrwt>
<pdfrwt beam="2">0</pdfrwt>
<totfact> 0.40526077E-04</totfact>
</mgrwt>
<clustering>
<clus scale="   41.392">  1  6  2 -1</clus>
<clus scale="  462.140">  4  5 -1 -1</clus>
<clus scale="  300.000">  1  4  2 -1</clus>
</clustering>
</event>
<event>
 6    1  0.9480355E-012  0.3000000E+03  0.7818608E-02  0.1093470E+00
          1   -1    0    0  502    0  0.00000000000E+00  0.00000000000E+00  0.23459200624E+03  0.23459200624E+03  0.00000000000E+00 0.  1.
         13   -1    0    0    0    0 -0.00000000000E+00 -0.00000000000E+00 -0.27500000000E+03  0.27500000000E+03  0.00000000000E+00 0.  1.
    9000005    2    1    2  501    0  0.27764424036E+02  0.20533420467E+02 -0.61700150181E+02  0.46902304614E+03  0.46366283513E+03 0.  0.
         13    1    3    3    0    0  0.14717983290E+03 -0.12109673306E+03  0.10690558696E+03  0.21852946367E+03  0.00000000000E+00 0.  1.
          1    1    3    3  501    0 -0.11941540886E+03  0.14163015353E+03 -0.16860573714E+03  0.25049358247E+03  0.00000000000E+00 0.  1.
         21    1    1    2  502  501 -0.27764424036E+02 -0.20533420467E+02  0.21292156417E+02  0.40568960093E+02  0.00000000000E+00 0. -1.
<scales pt_clust_4="550.00000" pt_clust_5="550.00000" pt_clust_6="34.53237"></scales>
<mgrwt>
<rscale>  0 0.30000000E+03</rscale>
<asrwt>  1 0.34532370E+02</asrwt>
<pdfrwt beam="1">  1        1 0.85306184E+00 0.30000000E+03</pdfrwt>
<pdfrwt beam="2">0</pdfrwt>
<totfact> 0.38150376E-04</totfact>
</mgrwt>
<clustering>
<clus scale="   34.532">  1  6  2 -1</clus>
<clus scale="  463.663">  4  5 -1 -1</clus>
<clus scale="  300.000">  1  4  2 -1</clus>
</clustering>
</event>
<event>
 6    1  0.9480355E-012  0.3000000E+03  0.7818608E-02  0.1093470E+00
          1   -1    0    0  502    0  0.00000000000E+00  0.00000000000E+00  0.24506219313E+03  0.24506219313E+03  0.00000000000E+00 0.  1.
         13   -1    0    0    0    0 -0.00000000000E+00 -0.00000000000E+00 -0.27500000000E+03  0.27500000000E+03  0.00000000000E+00 0.  1.
    9000005    2    1    2  501    0  0.35620199600E+02  0.13273235793E+00 -0.22333036951E+02  0.48363900323E+03  0.48180816168E+03 0.  0.
         13    1    3    3    0    0 -0.43378985115E+02 -0.22338304536E+03 -0.77222069816E+02  0.24030182973E+03  0.00000000000E+00 0.  1.
          3    1    3    3  501    0  0.78999184715E+02  0.22351577772E+03  0.54889032865E+02  0.24333717350E+03  0.00000000000E+00 0.  1.
         21    1    1    2  502  501 -0.35620199600E+02 -0.13273235793E+00 -0.76047699166E+01  0.36423189906E+02  0.00000000000E+00 0.  1.
<scales pt_clust_4="550.00000" pt_clust_5="550.00000" pt_clust_6="35.62046"></scales>
<mgrwt>
<rscale>  0 0.30000000E+03</rscale>
<asrwt>  1 0.35620465E+02</asrwt>
<pdfrwt beam="1">  1        1 0.89113525E+00 0.30000000E+03</pdfrwt>
<pdfrwt beam="2">0</pdfrwt>
<totfact> 0.13963415E-04</totfact>
</mgrwt>
<clustering>
<clus scale="   35.620">  1  6  2 -1</clus>
<clus scale="  481.808">  4  5 -1 -1</clus>
<clus scale="  300.000">  1  4  2 -1</clus>
</clustering>
</event>
<event>
 6    1  0.9480355E-012  0.3000000E+03  0.7818608E-02  0.1093470E+00
          1   -1    0    0  502    0  0.00000000000E+00  0.00000000000E+00  0.24320315705E+03  0.24320315705E+03  0.00000000000E+00 0.  1.
         13   -1    0    0    0    0 -0.00000000000E+00 -0.00000000000E+00 -0.27500000000E+03  0.27500000000E+03  0.00000000000E+00 0.  1.
    9000005    2    1    2  501    0  0.16821013597E+02 -0.28765608609E+02 -0.54787959770E+02  0.47771861445E+03  0.47339512811E+03 0.  0.
         13    1    3    3    0    0 -0.31577043690E+02  0.65003640825E+02  0.19424432724E+03  0.20725212103E+03  0.00000000000E+00 0.  1.
          3    1    3    3  501    0  0.48398057287E+02 -0.93769249435E+02 -0.24903228701E+03  0.27046649342E+03  0.00000000000E+00 0.  1.
         21    1    1    2  502  501 -0.16821013597E+02  0.28765608609E+02  0.22991116819E+02  0.40484542601E+02  0.00000000000E+00 0. -1.
<scales pt_clust_4="550.00000" pt_clust_5="550.00000" pt_clust_6="33.32277"></scales>
<mgrwt>
<rscale>  0 0.30000000E+03</rscale>
<asrwt>  1 0.33322766E+02</asrwt>
<pdfrwt beam="1">  1        1 0.88437512E+00 0.30000000E+03</pdfrwt>
<pdfrwt beam="2">0</pdfrwt>
<totfact> 0.17467910E-04</totfact>
</mgrwt>
<clustering>
<clus scale="   33.323">  1  6  2 -1</clus>
<clus scale="  473.395">  4  5 -1 -1</clus>
<clus scale="  300.000">  1  4  2 -1</clus>
</clustering>
</event>
<event>
 6    1  0.9480355E-012  0.3000000E+03  0.7818608E-02  0.1093470E+00
          1   -1    0    0  502    0  0.00000000000E+00  0.00000000000E+00  0.24219538521E+03  0.24219538521E+03  0.00000000000E+00 0.  1.
         13   -1    0    0    0    0 -0.00000000000E+00 -0.00000000000E+00 -0.27500000000E+03  0.27500000000E+03  0.00000000000E+00 0.  1.
    9000005    2    1    2  501    0 -0.15188765128E+02 -0.28078055144E+02 -0.25194533469E+02  0.48437787304E+03  0.48266767409E+03 0.  0.
         13    1    3    3    0    0  0.12397672966E+03 -0.20359105010E+03  0.58192609782E+02  0.24536895690E+03  0.00000000000E+00 0.  1.
          3    1    3    3  501    0 -0.13916549479E+03  0.17551299495E+03 -0.83387143251E+02  0.23900891614E+03  0.00000000000E+00 0.  1.
         21    1    1    2  502  501  0.15188765128E+02  0.28078055144E+02 -0.76100813260E+01  0.32817512163E+02  0.00000000000E+00 0.  1.
<scales pt_clust_4="550.00000" pt_clust_5="550.00000" pt_clust_6="31.92298"></scales>
<mgrwt>
<rscale>  0 0.30000000E+03</rscale>
<asrwt>  1 0.31922982E+02</asrwt>
<pdfrwt beam="1">  1        1 0.88071049E+00 0.30000000E+03</pdfrwt>
<pdfrwt beam="2">0</pdfrwt>
<totfact> 0.19678117E-04</totfact>
</mgrwt>
<clustering>
<clus scale="   31.923">  1  6  2 -1</clus>
<clus scale="  482.668">  4  5 -1 -1</clus>
<clus scale="  300.000">  1  4  2 -1</clus>
</clustering>
</event>
<event>
 6    1  0.9480355E-012  0.3000000E+03  0.7818608E-02  0.1093470E+00
          1   -1    0    0  502    0  0.00000000000E+00  0.00000000000E+00  0.24842418617E+03  0.24842418617E+03  0.00000000000E+00 0.  1.
         13   -1    0    0    0    0 -0.00000000000E+00 -0.00000000000E+00 -0.27500000000E+03  0.27500000000E+03  0.00000000000E+00 0.  1.
    9000005    2    1    2  501    0 -0.40808049320E+02 -0.34323129402E+01 -0.51093450181E+02  0.47569377496E+03  0.47116552211E+03 0.  0.
         13    1    3    3    0    0  0.18304566903E+03 -0.72981867562E+02  0.73390240336E+02  0.21028123387E+03  0.00000000000E+00 0.  1.
          1    1    3    3  501    0 -0.22385371835E+03  0.69549554622E+02 -0.12448369052E+03  0.26541254109E+03  0.00000000000E+00 0.  1.
         21    1    1    2  502  501  0.40808049320E+02  0.34323129402E+01  0.24517636348E+02  0.47730411202E+02  0.00000000000E+00 0. -1.
<scales pt_clust_4="550.00000" pt_clust_5="550.00000" pt_clust_6="40.95214"></scales>
<mgrwt>
<rscale>  0 0.30000000E+03</rscale>
<asrwt>  1 0.40952139E+02</asrwt>
<pdfrwt beam="1">  1        1 0.90336068E+00 0.30000000E+03</pdfrwt>
<pdfrwt beam="2">0</pdfrwt>
<totfact> 0.96046710E-05</totfact>
</mgrwt>
<clustering>
<clus scale="   40.952">  1  6  2 -1</clus>
<clus scale="  471.166">  4  5 -1 -1</clus>
<clus scale="  300.000">  1  4  2 -1</clus>
</clustering>
</event>
<event>
 6    1  0.9480355E-012  0.3000000E+03  0.7818608E-02  0.1093470E+00
          1   -1    0    0  502    0  0.00000000000E+00  0.00000000000E+00  0.23401542668E+03  0.23401542668E+03  0.00000000000E+00 0.  1.
         13   -1    0    0    0    0 -0.00000000000E+00 -0.00000000000E+00 -0.27500000000E+03  0.27500000000E+03  0.00000000000E+00 0.  1.
    9000005    2    1    2  501    0 -0.76866889329E+01  0.32573354338E+02 -0.55062144666E+02  0.47270720978E+03  0.46829494744E+03 0.  0.
         13    1    3    3    0    0 -0.11059811641E+03 -0.91842782950E+02  0.15260568967E+03  0.20965575750E+03  0.00000000000E+00 0.  1.
          3    1    3    3  501    0  0.10291142748E+03  0.12441613729E+03 -0.20766783434E+03  0.26305145227E+03  0.00000000000E+00 0.  1.
         21    1    1    2  502  501  0.76866889329E+01 -0.32573354338E+02  0.14077571343E+02  0.36308216900E+02  0.00000000000E+00 0.  1.
<scales pt_clust_4="550.00000" pt_clust_5="550.00000" pt_clust_6="33.46802"></scales>
<mgrwt>
<rscale>  0 0.30000000E+03</rscale>
<asrwt>  1 0.33468024E+02</asrwt>
<pdfrwt beam="1">  1        1 0.85096519E+00 0.30000000E+03</pdfrwt>
<pdfrwt beam="2">0</pdfrwt>
<totfact> 0.40190783E-04</totfact>
</mgrwt>
<clustering>
<clus scale="   33.468">  1  6  2 -1</clus>
<clus scale="  468.295">  4  5 -1 -1</clus>
<clus scale="  300.000">  1  4  2 -1</clus>
</clustering>
</event>
<event>
 6    1  0.9480355E-012  0.3000000E+03  0.7818608E-02  0.1093470E+00
          1   -1    0    0  502    0  0.00000000000E+00  0.00000000000E+00  0.22890758111E+03  0.22890758111E+03  0.00000000000E+00 0.  1.
         13   -1    0    0    0    0 -0.00000000000E+00 -0.00000000000E+00 -0.27500000000E+03  0.27500000000E+03  0.00000000000E+00 0.  1.
    9000005    2    1    2  501    0 -0.43093555172E+01 -0.30743146954E+02 -0.56860568445E+02  0.47104932987E+03  0.46657329038E+03 0.  0.
         13    1    3    3    0    0 -0.18834930591E+03  0.67019525481E+02  0.86787105164E+02  0.21794283530E+03  0.00000000000E+00 0.  1.
          3    1    3    3  501    0  0.18403995040E+03 -0.97762672435E+02 -0.14364767361E+03  0.25310649458E+03  0.00000000000E+00 0.  1.
         21    1    1    2  502  501  0.43093555172E+01  0.30743146954E+02  0.10768149557E+02  0.32858251239E+02  0.00000000000E+00 0.  1.
<scales pt_clust_4="550.00000" pt_clust_5="550.00000" pt_clust_6="31.04371"></scales>
<mgrwt>
<rscale>  0 0.30000000E+03</rscale>
<asrwt>  1 0.31043705E+02</asrwt>
<pdfrwt beam="1">  1        1 0.83239120E+00 0.30000000E+03</pdfrwt>
<pdfrwt beam="2">0</pdfrwt>
<totfact> 0.57873218E-04</totfact>
</mgrwt>
<clustering>
<clus scale="   31.044">  1  6  2 -1</clus>
<clus scale="  466.573">  4  5 -1 -1</clus>
<clus scale="  300.000">  1  4  2 -1</clus>
</clustering>
</event>
<event>
 6    1  0.9480355E-012  0.3000000E+03  0.7818608E-02  0.1093470E+00
          1   -1    0    0  502    0  0.00000000000E+00  0.00000000000E+00  0.23986184743E+03  0.23986184743E+03  0.00000000000E+00 0.  1.
         13   -1    0    0    0    0 -0.00000000000E+00 -0.00000000000E+00 -0.27500000000E+03  0.27500000000E+03  0.00000000000E+00 0.  1.
    9000005    2    1    2  501    0  0.76154994983E+01  0.41196513826E+02 -0.53210175725E+02  0.46923568602E+03  0.46432279467E+03 0.  0.
         13    1    3    3    0    0 -0.19202666071E+01  0.25145437345E+03 -0.60493380410E+02  0.25863572534E+03  0.00000000000E+00 0.  1.
          1    1    3    3  501    0  0.95357661055E+01 -0.21025785962E+03  0.72832046843E+01  0.21059996068E+03  0.00000000000E+00 0.  1.
         21    1    1    2  502  501 -0.76154994983E+01 -0.41196513826E+02  0.18072023160E+02  0.45626161411E+02  0.00000000000E+00 0. -1.
<scales pt_clust_4="550.00000" pt_clust_5="550.00000" pt_clust_6="41.89449"></scales>
<mgrwt>
<rscale>  0 0.30000000E+03</rscale>
<asrwt>  1 0.41894493E+02</asrwt>
<pdfrwt beam="1">  1        1 0.87222490E+00 0.30000000E+03</pdfrwt>
<pdfrwt beam="2">0</pdfrwt>
<totfact> 0.23252143E-04</totfact>
</mgrwt>
<clustering>
<clus scale="   41.894">  1  6  2 -1</clus>
<clus scale="  464.323">  4  5 -1 -1</clus>
<clus scale="  300.000">  1  4  2 -1</clus>
</clustering>
</event>
<event>
 6    1  0.9480355E-012  0.3000000E+03  0.7818608E-02  0.1093470E+00
          1   -1    0    0  502    0  0.00000000000E+00  0.00000000000E+00  0.22380585119E+03  0.22380585119E+03  0.00000000000E+00 0.  1.
         13   -1    0    0    0    0 -0.00000000000E+00 -0.00000000000E+00 -0.27500000000E+03  0.27500000000E+03  0.00000000000E+00 0.  1.
    9000005    2    1    2  501    0 -0.10733409641E+00  0.30434225045E+02 -0.52031677924E+02  0.46835991501E+03  0.46446470362E+03 0.  0.
         13    1    3    3    0    0  0.14873797211E+03 -0.98880948398E+02 -0.16325782021E+03  0.24197839194E+03  0.00000000000E+00 0.  1.
          1    1    3    3  501    0 -0.14884530621E+03  0.12931517344E+03  0.11122614229E+03  0.22638152308E+03  0.00000000000E+00 0.  1.
         21    1    1    2  502  501  0.10733409641E+00 -0.30434225045E+02  0.83752911578E+00  0.30445936177E+02  0.00000000000E+00 0.  1.
<scales pt_clust_4="550.00000" pt_clust_5="550.00000" pt_clust_6="30.43441"></scales>
<mgrwt>
<rscale>  0 0.30000000E+03</rscale>
<asrwt>  1 0.30434414E+02</asrwt>
<pdfrwt beam="1">  1        1 0.81383946E+00 0.30000000E+03</pdfrwt>
<pdfrwt beam="2">0</pdfrwt>
<totfact> 0.83517088E-04</totfact>
</mgrwt>
<clustering>
<clus scale="   30.434">  1  6  2 -1</clus>
<clus scale="  464.465">  4  5 -1 -1</clus>
<clus scale="  300.000">  1  4  2 -1</clus>
</clustering>
</event>
<event>
 6    1  0.9480355E-012  0.3000000E+03  0.7818608E-02  0.1093470E+00
          1   -1    0    0  502    0  0.00000000000E+00  0.00000000000E+00  0.22998971099E+03  0.22998971099E+03  0.00000000000E+00 0.  1.
         13   -1    0    0    0    0 -0.00000000000E+00 -0.00000000000E+00 -0.27500000000E+03  0.27500000000E+03  0.00000000000E+00 0.  1.
    9000005    2    1    2  501    0 -0.27564339273E+02  0.15879654021E+02 -0.56379406002E+02  0.47120786627E+03  0.46674003428E+03 0.  0.
         13    1    3    3    0    0  0.12168830109E+03 -0.88534532249E+02  0.13845401245E+03  0.20448941191E+03  0.00000000000E+00 0.  1.
          3    1    3    3  501    0 -0.14925264036E+03  0.10441418627E+03 -0.19483341845E+03  0.26671845436E+03  0.00000000000E+00 0.  1.
         21    1    1    2  502  501  0.27564339273E+02 -0.15879654021E+02  0.11369116989E+02  0.33781844717E+02  0.00000000000E+00 0.  1.
<scales pt_clust_4="550.00000" pt_clust_5="550.00000" pt_clust_6="31.81126"></scales>
<mgrwt>
<rscale>  0 0.30000000E+03</rscale>
<asrwt>  1 0.31811259E+02</asrwt>
<pdfrwt beam="1">  1        1 0.83632622E+00 0.30000000E+03</pdfrwt>
<pdfrwt beam="2">0</pdfrwt>
<totfact> 0.53873864E-04</totfact>
</mgrwt>
<clustering>
<clus scale="   31.811">  1  6  2 -1</clus>
<clus scale="  466.740">  4  5 -1 -1</clus>
<clus scale="  300.000">  1  4  2 -1</clus>
</clustering>
</event>
<event>
 6    1  0.9480355E-012  0.3000000E+03  0.7818608E-02  0.1093470E+00
          1   -1    0    0  502    0  0.00000000000E+00  0.00000000000E+00  0.22340883274E+03  0.22340883274E+03  0.00000000000E+00 0.  1.
         13   -1    0    0    0    0 -0.00000000000E+00 -0.00000000000E+00 -0.27500000000E+03  0.27500000000E+03  0.00000000000E+00 0.  1.
    9000005    2    1    2  501    0 -0.29096191223E+02 -0.19438895318E+02 -0.41089622132E+02  0.46187471931E+03  0.45871062806E+03 0.  0.
         13    1    3    3    0    0  0.34985088142E+02  0.21273334779E+03 -0.48212570749E+02  0.22091601489E+03  0.00000000000E+00 0.  1.
          1    1    3    3  501    0 -0.64081279365E+02 -0.23217224311E+03  0.71229486173E+01  0.24095870442E+03  0.00000000000E+00 0.  1.
         21    1    1    2  502  501  0.29096191223E+02  0.19438895318E+02 -0.10501545123E+02  0.36534113440E+02  0.00000000000E+00 0.  1.
<scales pt_clust_4="550.00000" pt_clust_5="550.00000" pt_clust_6="34.99229"></scales>
<mgrwt>
<rscale>  0 0.30000000E+03</rscale>
<asrwt>  1 0.34992288E+02</asrwt>
<pdfrwt beam="1">  1        1 0.81239576E+00 0.30000000E+03</pdfrwt>
<pdfrwt beam="2">0</pdfrwt>
<totfact> 0.83518903E-04</totfact>
</mgrwt>
<clustering>
<clus scale="   34.992">  1  6  2 -1</clus>
<clus scale="  458.711">  4  5 -1 -1</clus>
<clus scale="  300.000">  1  4  2 -1</clus>
</clustering>
</event>
<event>
 6    1  0.9480355E-012  0.3000000E+03  0.7818608E-02  0.1093470E+00
          1   -1    0    0  502    0  0.00000000000E+00  0.00000000000E+00  0.23671387687E+03  0.23671387687E+03  0.00000000000E+00 0.  1.
         13   -1    0    0    0    0 -0.00000000000E+00 -0.00000000000E+00 -0.27500000000E+03  0.27500000000E+03  0.00000000000E+00 0.  1.
    9000005    2    1    2  501    0  0.37193159553E+02 -0.22020260957E+02 -0.30335806678E+02  0.46776583321E+03  0.46477563462E+03 0.  0.
         13    1    3    3    0    0 -0.46085191528E+02  0.12426096730E+03 -0.19271253495E+03  0.23388619882E+03  0.00000000000E+00 0.  1.
          3    1    3    3  501    0  0.83278351081E+02 -0.14628122826E+03  0.16237672827E+03  0.23387963439E+03  0.00000000000E+00 0.  1.
         21    1    1    2  502  501 -0.37193159553E+02  0.22020260957E+02 -0.79503164518E+01  0.43948043663E+02  0.00000000000E+00 0. -1.
<scales pt_clust_4="550.00000" pt_clust_5="550.00000" pt_clust_6="43.22297"></scales>
<mgrwt>
<rscale>  0 0.30000000E+03</rscale>
<asrwt>  1 0.43222967E+02</asrwt>
<pdfrwt beam="1">  1        1 0.86077773E+00 0.30000000E+03</pdfrwt>
<pdfrwt beam="2">0</pdfrwt>
<totfact> 0.30527420E-04</totfact>
</mgrwt>
<clustering>
<clus scale="   43.223">  1  6  2 -1</clus>
<clus scale="  464.776">  4  5 -1 -1</clus>
<clus scale="  300.000">  1  4  2 -1</clus>
</clustering>
</event>
<event>
 6    1  0.9480355E-012  0.3000000E+03  0.7818608E-02  0.1093470E+00
          1   -1    0    0  502    0  0.00000000000E+00  0.00000000000E+00  0.23537566077E+03  0.23537566077E+03  0.00000000000E+00 0.  1.
         13   -1    0    0    0    0 -0.00000000000E+00 -0.00000000000E+00 -0.27500000000E+03  0.27500000000E+03  0.00000000000E+00 0.  1.
    9000005    2    1    2  501    0 -0.78459237498E+01 -0.30333064219E+02 -0.54611563850E+02  0.47564425990E+03  0.47145878480E+03 0.  0.
         13    1    3    3    0    0 -0.16688393448E+03  0.14579224146E+03  0.30186370000E+02  0.22364445486E+03  0.00000000000E+00 0.  1.
          1    1    3    3  501    0  0.15903801073E+03 -0.17612530567E+03 -0.84797933851E+02  0.25199980504E+03  0.00000000000E+00 0.  1.
         21    1    1    2  502  501  0.78459237498E+01  0.30333064219E+02  0.14987224620E+02  0.34731400868E+02  0.00000000000E+00 0. -1.
<scales pt_clust_4="550.00000" pt_clust_5="550.00000" pt_clust_6="31.33135"></scales>
<mgrwt>
<rscale>  0 0.30000000E+03</rscale>
<asrwt>  1 0.31331347E+02</asrwt>
<pdfrwt beam="1">  1        1 0.85591149E+00 0.30000000E+03</pdfrwt>
<pdfrwt beam="2">0</pdfrwt>
<totfact> 0.36431076E-04</totfact>
</mgrwt>
<clustering>
<clus scale="   31.331">  1  6  2 -1</clus>
<clus scale="  471.459">  4  5 -1 -1</clus>
<clus scale="  300.000">  1  4  2 -1</clus>
</clustering>
</event>
<event>
 6    1  0.9480355E-012  0.3000000E+03  0.7818608E-02  0.1093470E+00
          1   -1    0    0  502    0  0.00000000000E+00  0.00000000000E+00  0.23720552427E+03  0.23720552427E+03  0.00000000000E+00 0.  1.
         13   -1    0    0    0    0 -0.00000000000E+00 -0.00000000000E+00 -0.27500000000E+03  0.27500000000E+03  0.00000000000E+00 0.  1.
    9000005    2    1    2  501    0  0.20972871641E+02  0.24802149432E+02 -0.64572861156E+02  0.47010932625E+03  0.46451923133E+03 0.  0.
         13    1    3    3    0    0  0.24235576127E+03 -0.29209339914E+01 -0.27311495353E+02  0.24390728701E+03  0.00000000000E+00 0.  1.
          1    1    3    3  501    0 -0.22138288963E+03  0.27723083423E+02 -0.37261365803E+02  0.22620203924E+03  0.00000000000E+00 0.  1.
         21    1    1    2  502  501 -0.20972871641E+02 -0.24802149432E+02  0.26778385426E+02  0.42096198015E+02  0.00000000000E+00 0. -1.
<scales pt_clust_4="550.00000" pt_clust_5="550.00000" pt_clust_6="32.48089"></scales>
<mgrwt>
<rscale>  0 0.30000000E+03</rscale>
<asrwt>  1 0.32480886E+02</asrwt>
<pdfrwt beam="1">  1        1 0.86256554E+00 0.30000000E+03</pdfrwt>
<pdfrwt beam="2">0</pdfrwt>
<totfact> 0.30784418E-04</totfact>
</mgrwt>
<clustering>
<clus scale="   32.481">  1  6  2 -1</clus>
<clus scale="  464.519">  4  5 -1 -1</clus>
<clus scale="  300.000">  1  4  2 -1</clus>
</clustering>
</event>
<event>
 6    1  0.9480355E-012  0.3000000E+03  0.7818608E-02  0.1093470E+00
          1   -1    0    0  502    0  0.00000000000E+00  0.00000000000E+00  0.22445829220E+03  0.22445829220E+03  0.00000000000E+00 0.  1.
         13   -1    0    0    0    0 -0.00000000000E+00 -0.00000000000E+00 -0.27500000000E+03  0.27500000000E+03  0.00000000000E+00 0.  1.
    9000005    2    1    2  501    0  0.61427864665E+01 -0.38462577430E+02 -0.47997041376E+02  0.46042524191E+03  0.45625714649E+03 0.  0.
         13    1    3    3    0    0 -0.22470765759E+03 -0.89815983298E+01 -0.15197674584E+02  0.22540002174E+03  0.00000000000E+00 0.  1.
          3    1    3    3  501    0  0.23085044406E+03 -0.29480979100E+02 -0.32799366793E+02  0.23502522016E+03  0.00000000000E+00 0.  1.
         21    1    1    2  502  501 -0.61427864665E+01  0.38462577430E+02 -0.25446664190E+01  0.39033050295E+02  0.00000000000E+00 0.  1.
<scales pt_clust_4="550.00000" pt_clust_5="550.00000" pt_clust_6="38.95002"></scales>
<mgrwt>
<rscale>  0 0.30000000E+03</rscale>
<asrwt>  1 0.38950015E+02</asrwt>
<pdfrwt beam="1">  1        1 0.81621197E+00 0.30000000E+03</pdfrwt>
<pdfrwt beam="2">0</pdfrwt>
<totfact> 0.76293235E-04</totfact>
</mgrwt>
<clustering>
<clus scale="   38.950">  1  6  2 -1</clus>
<clus scale="  456.257">  4  5 -1 -1</clus>
<clus scale="  300.000">  1  4  2 -1</clus>
</clustering>
</event>
<event>
 6    1  0.9480355E-012  0.3000000E+03  0.7818608E-02  0.1093470E+00
          1   -1    0    0  502    0  0.00000000000E+00  0.00000000000E+00  0.22228952095E+03  0.22228952095E+03  0.00000000000E+00 0.  1.
         13   -1    0    0    0    0 -0.00000000000E+00 -0.00000000000E+00 -0.27500000000E+03  0.27500000000E+03  0.00000000000E+00 0.  1.
    9000005    2    1    2  501    0 -0.80420819304E+00  0.30300086666E+02 -0.41035524056E+02  0.46480804042E+03  0.46199984654E+03 0.  0.
         13    1    3    3    0    0 -0.84171519350E+02  0.21996371576E+03 -0.89649204535E+02  0.25200369202E+03  0.00000000000E+00 0.  1.
          3    1    3    3  501    0  0.83367311157E+02 -0.18966362909E+03  0.48613680478E+02  0.21280434840E+03  0.00000000000E+00 0.  1.
         21    1    1    2  502  501  0.80420819304E+00 -0.30300086666E+02 -0.11674954997E+02  0.32481480523E+02  0.00000000000E+00 0. -1.
<scales pt_clust_4="550.00000" pt_clust_5="550.00000" pt_clust_6="30.31077"></scales>
<mgrwt>
<rscale>  0 0.30000000E+03</rscale>
<asrwt>  1 0.30310772E+02</asrwt>
<pdfrwt beam="1">  1        1 0.80832553E+00 0.30000000E+03</pdfrwt>
<pdfrwt beam="2">0</pdfrwt>
<totfact> 0.92348147E-04</totfact>
</mgrwt>
<clustering>
<clus scale="   30.311">  1  6  2 -1</clus>
<clus scale="  462.000">  4  5 -1 -1</clus>
<clus scale="  300.000">  1  4  2 -1</clus>
</clustering>
</event>
<event>
 6    1  0.9480355E-012  0.3000000E+03  0.7818608E-02  0.1093470E+00
          1   -1    0    0  502    0  0.00000000000E+00  0.00000000000E+00  0.22873479914E+03  0.22873479914E+03  0.00000000000E+00 0.  1.
         13   -1    0    0    0    0 -0.00000000000E+00 -0.00000000000E+00 -0.27500000000E+03  0.27500000000E+03  0.00000000000E+00 0.  1.
    9000005    2    1    2  501    0 -0.14934263200E+02  0.32594014472E+02 -0.56249174971E+02  0.46651811288E+03  0.46172478596E+03 0.  0.
         13    1    3    3    0    0 -0.81862805057E+02 -0.19233510798E+03 -0.93348229638E+02  0.22892838310E+03  0.00000000000E+00 0.  1.
          3    1    3    3  501    0  0.66928541857E+02  0.22492912245E+03  0.37099054668E+02  0.23758972978E+03  0.00000000000E+00 0.  1.
         21    1    1    2  502  501  0.14934263200E+02 -0.32594014472E+02  0.99839741076E+01  0.37216686254E+02  0.00000000000E+00 0. -1.
<scales pt_clust_4="550.00000" pt_clust_5="550.00000" pt_clust_6="35.85250"></scales>
<mgrwt>
<rscale>  0 0.30000000E+03</rscale>
<asrwt>  1 0.35852503E+02</asrwt>
<pdfrwt beam="1">  1        1 0.83176291E+00 0.30000000E+03</pdfrwt>
<pdfrwt beam="2">0</pdfrwt>
<totfact> 0.56954109E-04</totfact>
</mgrwt>
<clustering>
<clus scale="   35.853">  1  6  2 -1</clus>
<clus scale="  461.725">  4  5 -1 -1</clus>
<clus scale="  300.000">  1  4  2 -1</clus>
</clustering>
</event>
<event>
 6    1  0.9480355E-012  0.3000000E+03  0.7818608E-02  0.1093470E+00
          1   -1    0    0  502    0  0.00000000000E+00  0.00000000000E+00  0.23343822851E+03  0.23343822851E+03  0.00000000000E+00 0.  1.
         13   -1    0    0    0    0 -0.00000000000E+00 -0.00000000000E+00 -0.27500000000E+03  0.27500000000E+03  0.00000000000E+00 0.  1.
    9000005    2    1    2  501    0 -0.88788456461E+01 -0.34230088113E+02 -0.45039034911E+02  0.47290480491E+03  0.46942508136E+03 0.  0.
         13    1    3    3    0    0  0.58572741295E+02 -0.10689475484E+03  0.18549290204E+03  0.22195691326E+03  0.00000000000E+00 0.  1.
          3    1    3    3  501    0 -0.67451586941E+02  0.72664666731E+02 -0.23053193695E+03  0.25094789165E+03  0.00000000000E+00 0.  1.
         21    1    1    2  502  501  0.88788456461E+01  0.34230088113E+02  0.34772634234E+01  0.35533423605E+02  0.00000000000E+00 0. -1.
<scales pt_clust_4="550.00000" pt_clust_5="550.00000" pt_clust_6="35.36287"></scales>
<mgrwt>
<rscale>  0 0.30000000E+03</rscale>
<asrwt>  1 0.35362874E+02</asrwt>
<pdfrwt beam="1">  1        1 0.84886629E+00 0.30000000E+03</pdfrwt>
<pdfrwt beam="2">0</pdfrwt>
<totfact> 0.41620779E-04</totfact>
</mgrwt>
<clustering>
<clus scale="   35.363">  1  6  2 -1</clus>
<clus scale="  469.425">  4  5 -1 -1</clus>
<clus scale="  300.000">  1  4  2 -1</clus>
</clustering>
</event>
<event>
 6    1  0.9480355E-012  0.3000000E+03  0.7818608E-02  0.1093470E+00
          1   -1    0    0  502    0  0.00000000000E+00  0.00000000000E+00  0.22259213361E+03  0.22259213361E+03  0.00000000000E+00 0.  1.
         13   -1    0    0    0    0 -0.00000000000E+00 -0.00000000000E+00 -0.27500000000E+03  0.27500000000E+03  0.00000000000E+00 0.  1.
    9000005    2    1    2  501    0  0.21509028134E+01 -0.32055948272E+02 -0.48198023868E+02  0.46518946432E+03  0.46156903927E+03 0.  0.
         13    1    3    3    0    0 -0.17687171495E+03 -0.15696105959E+03 -0.67851927194E+02  0.24601679171E+03  0.00000000000E+00 0.  1.
          1    1    3    3  501    0  0.17902261777E+03  0.12490511132E+03  0.19653903326E+02  0.21917267261E+03  0.00000000000E+00 0.  1.
         21    1    1    2  502  501 -0.21509028134E+01  0.32055948272E+02 -0.42098425267E+01  0.32402669283E+02  0.00000000000E+00 0.  1.
<scales pt_clust_4="550.00000" pt_clust_5="550.00000" pt_clust_6="32.12804"></scales>
<mgrwt>
<rscale>  0 0.30000000E+03</rscale>
<asrwt>  1 0.32128044E+02</asrwt>
<pdfrwt beam="1">  1        1 0.80942594E+00 0.30000000E+03</pdfrwt>
<pdfrwt beam="2">0</pdfrwt>
<totfact> 0.89550455E-04</totfact>
</mgrwt>
<clustering>
<clus scale="   32.128">  1  6  2 -1</clus>
<clus scale="  461.569">  4  5 -1 -1</clus>
<clus scale="  300.000">  1  4  2 -1</clus>
</clustering>
</event>
<event>
 6    1  0.9480355E-012  0.3000000E+03  0.7818608E-02  0.1093470E+00
          1   -1    0    0  502    0  0.00000000000E+00  0.00000000000E+00  0.24366870839E+03  0.24366870839E+03  0.00000000000E+00 0.  1.
         13   -1    0    0    0    0 -0.00000000000E+00 -0.00000000000E+00 -0.27500000000E+03  0.27500000000E+03  0.00000000000E+00 0.  1.
    9000005    2    1    2  501    0  0.28429108138E+02 -0.21650735690E+02 -0.56737733579E+02  0.47482288944E+03  0.47006450343E+03 0.  0.
         13    1    3    3    0    0  0.10713030669E+03  0.14495432462E+01  0.18817625880E+03  0.21653939171E+03  0.00000000000E+00 0.  1.
          3    1    3    3  501    0 -0.78701198551E+02 -0.23100278936E+02 -0.24491399238E+03  0.25828349774E+03  0.00000000000E+00 0.  1.
         21    1    1    2  502  501 -0.28429108138E+02  0.21650735690E+02  0.25406441969E+02  0.43845818945E+02  0.00000000000E+00 0.  1.
<scales pt_clust_4="550.00000" pt_clust_5="550.00000" pt_clust_6="35.73470"></scales>
<mgrwt>
<rscale>  0 0.30000000E+03</rscale>
<asrwt>  1 0.35734697E+02</asrwt>
<pdfrwt beam="1">  1        1 0.88606803E+00 0.30000000E+03</pdfrwt>
<pdfrwt beam="2">0</pdfrwt>
<totfact> 0.16342804E-04</totfact>
</mgrwt>
<clustering>
<clus scale="   35.735">  1  6  2 -1</clus>
<clus scale="  470.065">  4  5 -1 -1</clus>
<clus scale="  300.000">  1  4  2 -1</clus>
</clustering>
</event>
<event>
 6    1  0.9480355E-012  0.3000000E+03  0.7818608E-02  0.1093470E+00
          1   -1    0    0  502    0  0.00000000000E+00  0.00000000000E+00  0.23787231902E+03  0.23787231902E+03  0.00000000000E+00 0.  1.
         13   -1    0    0    0    0 -0.00000000000E+00 -0.00000000000E+00 -0.27500000000E+03  0.27500000000E+03  0.00000000000E+00 0.  1.
    9000005    2    1    2  501    0  0.15552390003E+01 -0.42377378184E+02 -0.63626050867E+02  0.46286807363E+03  0.45650883703E+03 0.  0.
         13    1    3    3    0    0  0.19577274247E+03  0.18126141375E+02 -0.14445658758E+03  0.24397382931E+03  0.00000000000E+00 0.  1.
          1    1    3    3  501    0 -0.19421750347E+03 -0.60503519559E+02  0.80830536709E+02  0.21889424432E+03  0.00000000000E+00 0.  1.
         21    1    1    2  502  501 -0.15552390003E+01  0.42377378184E+02  0.26498369884E+02  0.50004245385E+02  0.00000000000E+00 0. -1.
<scales pt_clust_4="550.00000" pt_clust_5="550.00000" pt_clust_6="42.40591"></scales>
<mgrwt>
<rscale>  0 0.30000000E+03</rscale>
<asrwt>  1 0.42405907E+02</asrwt>
<pdfrwt beam="1">  1        1 0.86499025E+00 0.30000000E+03</pdfrwt>
<pdfrwt beam="2">0</pdfrwt>
<totfact> 0.27586712E-04</totfact>
</mgrwt>
<clustering>
<clus scale="   42.406">  1  6  2 -1</clus>
<clus scale="  456.509">  4  5 -1 -1</clus>
<clus scale="  300.000">  1  4  2 -1</clus>
</clustering>
</event>
<event>
 6    1  0.9480355E-012  0.3000000E+03  0.7818608E-02  0.1093470E+00
          1   -1    0    0  502    0  0.00000000000E+00  0.00000000000E+00  0.23867024188E+03  0.23867024188E+03  0.00000000000E+00 0.  1.
         13   -1    0    0    0    0 -0.00000000000E+00 -0.00000000000E+00 -0.27500000000E+03  0.27500000000E+03  0.00000000000E+00 0.  1.
    9000005    2    1    2  501    0  0.32622416244E+01 -0.36268815476E+02 -0.62216834456E+02  0.46899127683E+03  0.46341753750E+03 0.  0.
         13    1    3    3    0    0 -0.93848524858E+02  0.16490118804E+03  0.78114065128E+02  0.20518712095E+03  0.00000000000E+00 0.  1.
          1    1    3    3  501    0  0.97110766483E+02 -0.20117000351E+03 -0.14033089958E+03  0.26380415588E+03  0.00000000000E+00 0.  1.
         21    1    1    2  502  501 -0.32622416244E+01  0.36268815476E+02  0.25887076335E+02  0.44678965046E+02  0.00000000000E+00 0.  1.
<scales pt_clust_4="550.00000" pt_clust_5="550.00000" pt_clust_6="36.41523"></scales>
<mgrwt>
<rscale>  0 0.30000000E+03</rscale>
<asrwt>  1 0.36415233E+02</asrwt>
<pdfrwt beam="1">  1        1 0.86789179E+00 0.30000000E+03</pdfrwt>
<pdfrwt beam="2">0</pdfrwt>
<totfact> 0.26427760E-04</totfact>
</mgrwt>
<clustering>
<clus scale="   36.415">  1  6  2 -1</clus>
<clus scale="  463.418">  4  5 -1 -1</clus>
<clus scale="  300.000">  1  4  2 -1</clus>
</clustering>
</event>
<event>
 6    1  0.9480355E-012  0.3000000E+03  0.7818608E-02  0.1093470E+00
          1   -1    0    0  502    0  0.00000000000E+00  0.00000000000E+00  0.22431696880E+03  0.22431696880E+03  0.00000000000E+00 0.  1.
         13   -1    0    0    0    0 -0.00000000000E+00 -0.00000000000E+00 -0.27500000000E+03  0.27500000000E+03  0.00000000000E+00 0.  1.
    9000005    2    1    2  501    0  0.18896534951E+02 -0.31927310199E+02 -0.55521021678E+02  0.46190255552E+03  0.45705027598E+03 0.  0.
         13    1    3    3    0    0  0.51779884864E+02 -0.51034313010E+02 -0.25174199458E+03  0.26202993992E+03  0.00000000000E+00 0.  1.
          3    1    3    3  501    0 -0.32883349913E+02  0.19107002811E+02  0.19622097290E+03  0.19987261559E+03  0.00000000000E+00 0.  1.
         21    1    1    2  502  501 -0.18896534951E+02  0.31927310199E+02  0.48379904814E+01  0.37414413287E+02  0.00000000000E+00 0.  1.
<scales pt_clust_4="550.00000" pt_clust_5="550.00000" pt_clust_6="37.10030"></scales>
<mgrwt>
<rscale>  0 0.30000000E+03</rscale>
<asrwt>  1 0.37100299E+02</asrwt>
<pdfrwt beam="1">  1        1 0.81569807E+00 0.30000000E+03</pdfrwt>
<pdfrwt beam="2">0</pdfrwt>
<totfact> 0.77726185E-04</totfact>
</mgrwt>
<clustering>
<clus scale="   37.100">  1  6  2 -1</clus>
<clus scale="  457.050">  4  5 -1 -1</clus>
<clus scale="  300.000">  1  4  2 -1</clus>
</clustering>
</event>
<event>
 6    1  0.9480355E-012  0.3000000E+03  0.7818608E-02  0.1093470E+00
          1   -1    0    0  502    0  0.00000000000E+00  0.00000000000E+00  0.23040086299E+03  0.23040086299E+03  0.00000000000E+00 0.  1.
         13   -1    0    0    0    0 -0.00000000000E+00 -0.00000000000E+00 -0.27500000000E+03  0.27500000000E+03  0.00000000000E+00 0.  1.
    9000005    2    1    2  501    0 -0.26158486586E+02  0.22653981825E+02 -0.42406896201E+02  0.47072702224E+03  0.46753407930E+03 0.  0.
         13    1    3    3    0    0  0.37134487560E+02 -0.16892370707E+03 -0.16133424185E+03  0.23652257095E+03  0.00000000000E+00 0.  1.
          1    1    3    3  501    0 -0.63292974146E+02  0.19157768889E+03  0.11892734565E+03  0.23420445128E+03  0.00000000000E+00 0.  1.
         21    1    1    2  502  501  0.26158486586E+02 -0.22653981825E+02 -0.21922408076E+01  0.34673840756E+02  0.00000000000E+00 0. -1.
<scales pt_clust_4="550.00000" pt_clust_5="550.00000" pt_clust_6="34.60447"></scales>
<mgrwt>
<rscale>  0 0.30000000E+03</rscale>
<asrwt>  1 0.34604470E+02</asrwt>
<pdfrwt beam="1">  1        1 0.83782132E+00 0.30000000E+03</pdfrwt>
<pdfrwt beam="2">0</pdfrwt>
<totfact> 0.51712441E-04</totfact>
</mgrwt>
<clustering>
<clus scale="   34.604">  1  6  2 -1</clus>
<clus scale="  467.534">  4  5 -1 -1</clus>
<clus scale="  300.000">  1  4  2 -1</clus>
</clustering>
</event>
<event>
 6    1  0.9480355E-012  0.3000000E+03  0.7818608E-02  0.1093470E+00
          1   -1    0    0  502    0  0.00000000000E+00  0.00000000000E+00  0.22620938903E+03  0.22620938903E+03  0.00000000000E+00 0.  1.
         13   -1    0    0    0    0 -0.00000000000E+00 -0.00000000000E+00 -0.27500000000E+03  0.27500000000E+03  0.00000000000E+00 0.  1.
    9000005    2    1    2  501    0  0.39207742014E+01 -0.34084848588E+02 -0.66286593962E+02  0.46269629003E+03  0.45663639243E+03 0.  0.
         13    1    3    3    0    0  0.21920243115E+03  0.11284760010E+02 -0.98063642863E+02  0.24040284874E+03  0.00000000000E+00 0.  1.
          3    1    3    3  501    0 -0.21528165695E+03 -0.45369608598E+02  0.31777048901E+02  0.22229344129E+03  0.00000000000E+00 0.  1.
         21    1    1    2  502  501 -0.39207742014E+01  0.34084848588E+02  0.17495982992E+02  0.38513098999E+02  0.00000000000E+00 0.  1.
<scales pt_clust_4="550.00000" pt_clust_5="550.00000" pt_clust_6="34.30961"></scales>
<mgrwt>
<rscale>  0 0.30000000E+03</rscale>
<asrwt>  1 0.34309611E+02</asrwt>
<pdfrwt beam="1">  1        1 0.82257960E+00 0.30000000E+03</pdfrwt>
<pdfrwt beam="2">0</pdfrwt>
<totfact> 0.68905617E-04</totfact>
</mgrwt>
<clustering>
<clus scale="   34.310">  1  6  2 -1</clus>
<clus scale="  456.636">  4  5 -1 -1</clus>
<clus scale="  300.000">  1  4  2 -1</clus>
</clustering>
</event>
<event>
 6    1  0.9480355E-012  0.3000000E+03  0.7818608E-02  0.1093470E+00
          1   -1    0    0  502    0  0.00000000000E+00  0.00000000000E+00  0.23238778956E+03  0.23238778956E+03  0.00000000000E+00 0.  1.
         13   -1    0    0    0    0 -0.00000000000E+00 -0.00000000000E+00 -0.27500000000E+03  0.27500000000E+03  0.00000000000E+00 0.  1.
    9000005    2    1    2  501    0  0.20401019687E+02 -0.28345542863E+02 -0.50274375121E+02  0.47163334687E+03  0.46764391334E+03 0.  0.
         13    1    3    3    0    0 -0.30428910602E+01  0.20592208733E+03  0.55849478026E+02  0.21338305798E+03  0.00000000000E+00 0.  1.
          1    1    3    3  501    0  0.23443910747E+02 -0.23426763019E+03 -0.10612385315E+03  0.25825028889E+03  0.00000000000E+00 0.  1.
         21    1    1    2  502  501 -0.20401019687E+02  0.28345542863E+02  0.76621646827E+01  0.35754442690E+02  0.00000000000E+00 0. -1.
<scales pt_clust_4="550.00000" pt_clust_5="550.00000" pt_clust_6="34.92379"></scales>
<mgrwt>
<rscale>  0 0.30000000E+03</rscale>
<asrwt>  1 0.34923794E+02</asrwt>
<pdfrwt beam="1">  1        1 0.84504651E+00 0.30000000E+03</pdfrwt>
<pdfrwt beam="2">0</pdfrwt>
<totfact> 0.45158606E-04</totfact>
</mgrwt>
<clustering>
<clus scale="   34.924">  1  6  2 -1</clus>
<clus scale="  467.644">  4  5 -1 -1</clus>
<clus scale="  300.000">  1  4  2 -1</clus>
</clustering>
</event>
<event>
 6    1  0.9480355E-012  0.3000000E+03  0.7818608E-02  0.1093470E+00
          1   -1    0    0  502    0  0.00000000000E+00  0.00000000000E+00  0.22604431696E+03  0.22604431696E+03  0.00000000000E+00 0.  1.
         13   -1    0    0    0    0 -0.00000000000E+00 -0.00000000000E+00 -0.27500000000E+03  0.27500000000E+03  0.00000000000E+00 0.  1.
    9000005    2    1    2  501    0 -0.29873143261E+02  0.11065832765E+02 -0.58848503237E+02  0.46768678056E+03  0.46287462777E+03 0.  0.
         13    1    3    3    0    0  0.47979489328E+02 -0.17135993339E+03 -0.16504220018E+03  0.24270390604E+03  0.00000000000E+00 0.  1.
          1    1    3    3  501    0 -0.77852632589E+02  0.18242576615E+03  0.10619369695E+03  0.22498287452E+03  0.00000000000E+00 0.  1.
         21    1    1    2  502  501  0.29873143261E+02 -0.11065832765E+02  0.98928201979E+01  0.33357536398E+02  0.00000000000E+00 0.  1.
<scales pt_clust_4="550.00000" pt_clust_5="550.00000" pt_clust_6="31.85683"></scales>
<mgrwt>
<rscale>  0 0.30000000E+03</rscale>
<asrwt>  1 0.31856826E+02</asrwt>
<pdfrwt beam="1">  1        1 0.82197933E+00 0.30000000E+03</pdfrwt>
<pdfrwt beam="2">0</pdfrwt>
<totfact> 0.70740981E-04</totfact>
</mgrwt>
<clustering>
<clus scale="   31.857">  1  6  2 -1</clus>
<clus scale="  462.875">  4  5 -1 -1</clus>
<clus scale="  300.000">  1  4  2 -1</clus>
</clustering>
</event>
<event>
 6    1  0.9480355E-012  0.3000000E+03  0.7818608E-02  0.1093470E+00
          1   -1    0    0  502    0  0.00000000000E+00  0.00000000000E+00  0.23357609131E+03  0.23357609131E+03  0.00000000000E+00 0.  1.
         13   -1    0    0    0    0 -0.00000000000E+00 -0.00000000000E+00 -0.27500000000E+03  0.27500000000E+03  0.00000000000E+00 0.  1.
    9000005    2    1    2  501    0  0.28902403532E+02 -0.17567863393E+02 -0.69094564138E+02  0.46487661846E+03  0.45846726475E+03 0.  0.
         13    1    3    3    0    0 -0.17326747953E+03 -0.10709141597E+03 -0.12213161687E+03  0.23750015300E+03  0.00000000000E+00 0.  1.
          3    1    3    3  501    0  0.20216988306E+03  0.89523552573E+02  0.53037052729E+02  0.22737646546E+03  0.00000000000E+00 0.  1.
         21    1    1    2  502  501 -0.28902403532E+02  0.17567863393E+02  0.27670655443E+02  0.43699472843E+02  0.00000000000E+00 0.  1.
<scales pt_clust_4="550.00000" pt_clust_5="550.00000" pt_clust_6="33.82275"></scales>
<mgrwt>
<rscale>  0 0.30000000E+03</rscale>
<asrwt>  1 0.33822755E+02</asrwt>
<pdfrwt beam="1">  1        1 0.84936760E+00 0.30000000E+03</pdfrwt>
<pdfrwt beam="2">0</pdfrwt>
<totfact> 0.41522184E-04</totfact>
</mgrwt>
<clustering>
<clus scale="   33.823">  1  6  2 -1</clus>
<clus scale="  458.467">  4  5 -1 -1</clus>
<clus scale="  300.000">  1  4  2 -1</clus>
</clustering>
</event>
<event>
 6    1  0.9480355E-012  0.3000000E+03  0.7818608E-02  0.1093470E+00
          1   -1    0    0  502    0  0.00000000000E+00  0.00000000000E+00  0.22435735127E+03  0.22435735127E+03  0.00000000000E+00 0.  1.
         13   -1    0    0    0    0 -0.00000000000E+00 -0.00000000000E+00 -0.27500000000E+03  0.27500000000E+03  0.00000000000E+00 0.  1.
    9000005    2    1    2  501    0  0.30784721764E+02  0.88854320705E+01 -0.45281010796E+02  0.46687047456E+03  0.46356339381E+03 0.  0.
         13    1    3    3    0    0 -0.50393950267E+02 -0.63210359888E+02  0.19069143434E+03  0.20711910330E+03  0.00000000000E+00 0.  1.
          1    1    3    3  501    0  0.81178672031E+02  0.72095791959E+02 -0.23597244513E+03  0.25975137126E+03  0.00000000000E+00 0.  1.
         21    1    1    2  502  501 -0.30784721764E+02 -0.88854320705E+01 -0.53616379326E+01  0.32486876712E+02  0.00000000000E+00 0.  1.
<scales pt_clust_4="550.00000" pt_clust_5="550.00000" pt_clust_6="32.04140"></scales>
<mgrwt>
<rscale>  0 0.30000000E+03</rscale>
<asrwt>  1 0.32041395E+02</asrwt>
<pdfrwt beam="1">  1        1 0.81584491E+00 0.30000000E+03</pdfrwt>
<pdfrwt beam="2">0</pdfrwt>
<totfact> 0.79673585E-04</totfact>
</mgrwt>
<clustering>
<clus scale="   32.041">  1  6  2 -1</clus>
<clus scale="  463.563">  4  5 -1 -1</clus>
<clus scale="  300.000">  1  4  2 -1</clus>
</clustering>
</event>
<event>
 6    1  0.9480355E-012  0.3000000E+03  0.7818608E-02  0.1093470E+00
          1   -1    0    0  502    0  0.00000000000E+00  0.00000000000E+00  0.22798711512E+03  0.22798711512E+03  0.00000000000E+00 0.  1.
         13   -1    0    0    0    0 -0.00000000000E+00 -0.00000000000E+00 -0.27500000000E+03  0.27500000000E+03  0.00000000000E+00 0.  1.
    9000005    2    1    2  501    0 -0.22972268137E+01 -0.35273882295E+02 -0.58042589735E+02  0.46595768881E+03  0.46097516367E+03 0.  0.
         13    1    3    3    0    0 -0.83822902338E+01 -0.90947663061E+02 -0.24991362913E+03  0.26607999216E+03  0.00000000000E+00 0.  1.
          1    1    3    3  501    0  0.60850634201E+01  0.55673780766E+02  0.19187103939E+03  0.19987769665E+03  0.00000000000E+00 0.  1.
         21    1    1    2  502  501  0.22972268137E+01  0.35273882295E+02  0.11029704851E+02  0.37029426302E+02  0.00000000000E+00 0.  1.
<scales pt_clust_4="550.00000" pt_clust_5="550.00000" pt_clust_6="35.34861"></scales>
<mgrwt>
<rscale>  0 0.30000000E+03</rscale>
<asrwt>  1 0.35348607E+02</asrwt>
<pdfrwt beam="1">  1        1 0.82904405E+00 0.30000000E+03</pdfrwt>
<pdfrwt beam="2">0</pdfrwt>
<totfact> 0.60089305E-04</totfact>
</mgrwt>
<clustering>
<clus scale="   35.349">  1  6  2 -1</clus>
<clus scale="  460.975">  4  5 -1 -1</clus>
<clus scale="  300.000">  1  4  2 -1</clus>
</clustering>
</event>
<event>
 6    1  0.9480355E-012  0.3000000E+03  0.7818608E-02  0.1093470E+00
          1   -1    0    0  502    0  0.00000000000E+00  0.00000000000E+00  0.23771929873E+03  0.23771929873E+03  0.00000000000E+00 0.  1.
         13   -1    0    0    0    0 -0.00000000000E+00 -0.00000000000E+00 -0.27500000000E+03  0.27500000000E+03  0.00000000000E+00 0.  1.
    9000005    2    1    2  501    0  0.18731245195E+02 -0.24857340650E+02 -0.56450698917E+02  0.47616474032E+03  0.47178112678E+03 0.  0.
         13    1    3    3    0    0 -0.19534309042E+03  0.83466443464E+02 -0.95814470331E+02  0.23303644111E+03  0.00000000000E+00 0.  1.
          1    1    3    3  501    0  0.21407433562E+03 -0.10832378411E+03  0.39363771414E+02  0.24312829921E+03  0.00000000000E+00 0.  1.
         21    1    1    2  502  501 -0.18731245195E+02  0.24857340650E+02  0.19169997644E+02  0.36554558409E+02  0.00000000000E+00 0. -1.
<scales pt_clust_4="550.00000" pt_clust_5="550.00000" pt_clust_6="31.12470"></scales>
<mgrwt>
<rscale>  0 0.30000000E+03</rscale>
<asrwt>  1 0.31124700E+02</asrwt>
<pdfrwt beam="1">  1        1 0.86443381E+00 0.30000000E+03</pdfrwt>
<pdfrwt beam="2">0</pdfrwt>
<totfact> 0.29624534E-04</totfact>
</mgrwt>
<clustering>
<clus scale="   31.125">  1  6  2 -1</clus>
<clus scale="  471.781">  4  5 -1 -1</clus>
<clus scale="  300.000">  1  4  2 -1</clus>
</clustering>
</event>
<event>
 6    1  0.9480355E-012  0.3000000E+03  0.7818608E-02  0.1093470E+00
          1   -1    0    0  502    0  0.00000000000E+00  0.00000000000E+00  0.22220714827E+03  0.22220714827E+03  0.00000000000E+00 0.  1.
         13   -1    0    0    0    0 -0.00000000000E+00 -0.00000000000E+00 -0.27500000000E+03  0.27500000000E+03  0.00000000000E+00 0.  1.
    9000005    2    1    2  501    0 -0.26248031232E+02 -0.21261325692E+02 -0.47199126845E+02  0.46296838556E+03  0.45931575777E+03 0.  0.
         13    1    3    3    0    0 -0.16047770047E+03 -0.16060839596E+03  0.68974721705E+02  0.23728814011E+03  0.00000000000E+00 0.  1.
          1    1    3    3  501    0  0.13422966924E+03  0.13934707027E+03 -0.11617384855E+03  0.22568024545E+03  0.00000000000E+00 0.  1.
         21    1    1    2  502  501  0.26248031232E+02  0.21261325692E+02 -0.55937248890E+01  0.34238762709E+02  0.00000000000E+00 0. -1.
<scales pt_clust_4="550.00000" pt_clust_5="550.00000" pt_clust_6="33.77875"></scales>
<mgrwt>
<rscale>  0 0.30000000E+03</rscale>
<asrwt>  1 0.33778754E+02</asrwt>
<pdfrwt beam="1">  1        1 0.80802599E+00 0.30000000E+03</pdfrwt>
<pdfrwt beam="2">0</pdfrwt>
<totfact> 0.90947576E-04</totfact>
</mgrwt>
<clustering>
<clus scale="   33.779">  1  6  2 -1</clus>
<clus scale="  459.316">  4  5 -1 -1</clus>
<clus scale="  300.000">  1  4  2 -1</clus>
</clustering>
</event>
<event>
 6    1  0.9480355E-012  0.3000000E+03  0.7818608E-02  0.1093470E+00
          1   -1    0    0  502    0  0.00000000000E+00  0.00000000000E+00  0.24474620487E+03  0.24474620487E+03  0.00000000000E+00 0.  1.
         13   -1    0    0    0    0 -0.00000000000E+00 -0.00000000000E+00 -0.27500000000E+03  0.27500000000E+03  0.00000000000E+00 0.  1.
    9000005    2    1    2  501    0  0.36490278951E+02  0.29088884341E+02 -0.39132708805E+02  0.47224316541E+03  0.46829962068E+03 0.  0.
         13    1    3    3    0    0  0.12686918870E+03 -0.56820804430E+02 -0.21537991112E+03  0.25634527687E+03  0.00000000000E+00 0.  1.
          3    1    3    3  501    0 -0.90378909748E+02  0.85909688771E+02  0.17624720232E+03  0.21589788854E+03  0.00000000000E+00 0.  1.
         21    1    1    2  502  501 -0.36490278951E+02 -0.29088884341E+02  0.88789136753E+01  0.47503039462E+02  0.00000000000E+00 0.  1.
<scales pt_clust_4="550.00000" pt_clust_5="550.00000" pt_clust_6="46.66587"></scales>
<mgrwt>
<rscale>  0 0.30000000E+03</rscale>
<asrwt>  1 0.46665872E+02</asrwt>
<pdfrwt beam="1">  1        1 0.88998620E+00 0.30000000E+03</pdfrwt>
<pdfrwt beam="2">0</pdfrwt>
<totfact> 0.13761266E-04</totfact>
</mgrwt>
<clustering>
<clus scale="   46.666">  1  6  2 -1</clus>
<clus scale="  468.300">  4  5 -1 -1</clus>
<clus scale="  300.000">  1  4  2 -1</clus>
</clustering>
</event>
<event>
 6    1  0.9480355E-012  0.3000000E+03  0.7818608E-02  0.1093470E+00
          1   -1    0    0  502    0  0.00000000000E+00  0.00000000000E+00  0.24402286875E+03  0.24402286875E+03  0.00000000000E+00 0.  1.
         13   -1    0    0    0    0 -0.00000000000E+00 -0.00000000000E+00 -0.27500000000E+03  0.27500000000E+03  0.00000000000E+00 0.  1.
    9000005    2    1    2  501    0 -0.16219382314E+02  0.31165591614E+02 -0.17192414302E+02  0.48128189784E+03  0.47968982021E+03 0.  0.
         13    1    3    3    0    0 -0.21497282267E+03 -0.64332390537E+02 -0.10009726370E+03  0.24570598926E+03  0.00000000000E+00 0.  1.
          1    1    3    3  501    0  0.19875344036E+03  0.95497982151E+02  0.82904849393E+02  0.23557590858E+03  0.00000000000E+00 0.  1.
         21    1    1    2  502  501  0.16219382314E+02 -0.31165591614E+02 -0.13784716953E+02  0.37740970904E+02  0.00000000000E+00 0. -1.
<scales pt_clust_4="550.00000" pt_clust_5="550.00000" pt_clust_6="35.13351"></scales>
<mgrwt>
<rscale>  0 0.30000000E+03</rscale>
<asrwt>  1 0.35133512E+02</asrwt>
<pdfrwt beam="1">  1        1 0.88735589E+00 0.30000000E+03</pdfrwt>
<pdfrwt beam="2">0</pdfrwt>
<totfact> 0.15736788E-04</totfact>
</mgrwt>
<clustering>
<clus scale="   35.134">  1  6  2 -1</clus>
<clus scale="  479.690">  4  5 -1 -1</clus>
<clus scale="  300.000">  1  4  2 -1</clus>
</clustering>
</event>
<event>
 6    1  0.9480355E-012  0.3000000E+03  0.7818608E-02  0.1093470E+00
          1   -1    0    0  502    0  0.00000000000E+00  0.00000000000E+00  0.26028950466E+03  0.26028950466E+03  0.00000000000E+00 0.  1.
         13   -1    0    0    0    0 -0.00000000000E+00 -0.00000000000E+00 -0.27500000000E+03  0.27500000000E+03  0.00000000000E+00 0.  1.
    9000005    2    1    2  501    0  0.36641314334E+02 -0.81412677107E+01 -0.45902173372E+02  0.48648595013E+03  0.48285888622E+03 0.  0.
         13    1    3    3    0    0 -0.14270847901E+03  0.13004990218E+03 -0.14286284936E+03  0.24018426419E+03  0.00000000000E+00 0.  1.
          1    1    3    3  501    0  0.17934979334E+03 -0.13819116989E+03  0.96960675989E+02  0.24630168594E+03  0.00000000000E+00 0.  1.
         21    1    1    2  502  501 -0.36641314334E+02  0.81412677107E+01  0.31191678031E+02  0.48803554527E+02  0.00000000000E+00 0.  1.
<scales pt_clust_4="550.00000" pt_clust_5="550.00000" pt_clust_6="37.53487"></scales>
<mgrwt>
<rscale>  0 0.30000000E+03</rscale>
<asrwt>  1 0.37534866E+02</asrwt>
<pdfrwt beam="1">  1        1 0.94650729E+00 0.30000000E+03</pdfrwt>
<pdfrwt beam="2">0</pdfrwt>
<totfact> 0.14338219E-05</totfact>
</mgrwt>
<clustering>
<clus scale="   37.535">  1  6  2 -1</clus>
<clus scale="  482.859">  4  5 -1 -1</clus>
<clus scale="  300.000">  1  4  2 -1</clus>
</clustering>
</event>
<event>
 6    1  0.9480355E-012  0.3000000E+03  0.7818608E-02  0.1093470E+00
          1   -1    0    0  502    0  0.00000000000E+00  0.00000000000E+00  0.24713409628E+03  0.24713409628E+03  0.00000000000E+00 0.  1.
         13   -1    0    0    0    0 -0.00000000000E+00 -0.00000000000E+00 -0.27500000000E+03  0.27500000000E+03  0.00000000000E+00 0.  1.
    9000005    2    1    2  501    0 -0.22496366260E+02  0.41815543370E+02  0.31410341236E+01  0.46542381188E+03  0.46298469997E+03 0.  0.
         13    1    3    3    0    0 -0.11137372351E+03 -0.14422092872E+03  0.12955293513E+03  0.22357939433E+03  0.00000000000E+00 0.  1.
          3    1    3    3  501    0  0.88877357252E+02  0.18603647209E+03 -0.12641190100E+03  0.24184441754E+03  0.00000000000E+00 0.  1.
         21    1    1    2  502  501  0.22496366260E+02 -0.41815543370E+02 -0.31006937847E+02  0.56710284402E+02  0.00000000000E+00 0. -1.
<scales pt_clust_4="550.00000" pt_clust_5="550.00000" pt_clust_6="47.48293"></scales>
<mgrwt>
<rscale>  0 0.30000000E+03</rscale>
<asrwt>  1 0.47482928E+02</asrwt>
<pdfrwt beam="1">  1        1 0.89866944E+00 0.30000000E+03</pdfrwt>
<pdfrwt beam="2">0</pdfrwt>
<totfact> 0.10843304E-04</totfact>
</mgrwt>
<clustering>
<clus scale="   47.483">  1  6  2 -1</clus>
<clus scale="  462.985">  4  5 -1 -1</clus>
<clus scale="  300.000">  1  4  2 -1</clus>
</clustering>
</event>
<event>
 6    1  0.9480355E-012  0.3000000E+03  0.7818608E-02  0.1093470E+00
          1   -1    0    0  502    0  0.00000000000E+00  0.00000000000E+00  0.23239949337E+03  0.23239949337E+03  0.00000000000E+00 0.  1.
         13   -1    0    0    0    0 -0.00000000000E+00 -0.00000000000E+00 -0.27500000000E+03  0.27500000000E+03  0.00000000000E+00 0.  1.
    9000005    2    1    2  501    0  0.14992854544E+02 -0.29660679653E+02 -0.40438611936E+02  0.47409460794E+03  0.47119621639E+03 0.  0.
         13    1    3    3    0    0 -0.53385087074E+02 -0.23268142809E+03  0.45943702151E+02  0.24310787373E+03  0.00000000000E+00 0.  1.
          3    1    3    3  501    0  0.68377941618E+02  0.20302074844E+03 -0.86382314087E+02  0.23098673422E+03  0.00000000000E+00 0.  1.
         21    1    1    2  502  501 -0.14992854544E+02  0.29660679653E+02 -0.21618946902E+01  0.33304885429E+02  0.00000000000E+00 0.  1.
<scales pt_clust_4="550.00000" pt_clust_5="550.00000" pt_clust_6="33.23464"></scales>
<mgrwt>
<rscale>  0 0.30000000E+03</rscale>
<asrwt>  1 0.33234645E+02</asrwt>
<pdfrwt beam="1">  1        1 0.84508907E+00 0.30000000E+03</pdfrwt>
<pdfrwt beam="2">0</pdfrwt>
<totfact> 0.45542275E-04</totfact>
</mgrwt>
<clustering>
<clus scale="   33.235">  1  6  2 -1</clus>
<clus scale="  471.196">  4  5 -1 -1</clus>
<clus scale="  300.000">  1  4  2 -1</clus>
</clustering>
</event>
<event>
 6    1  0.9480355E-012  0.3000000E+03  0.7818608E-02  0.1093470E+00
          1   -1    0    0  502    0  0.00000000000E+00  0.00000000000E+00  0.23521393414E+03  0.23521393414E+03  0.00000000000E+00 0.  1.
         13   -1    0    0    0    0 -0.00000000000E+00 -0.00000000000E+00 -0.27500000000E+03  0.27500000000E+03  0.00000000000E+00 0.  1.
    9000005    2    1    2  501    0 -0.59098509223E+01  0.38224759009E+02 -0.58921519572E+02  0.46706043917E+03  0.46171165226E+03 0.  0.
         13    1    3    3    0    0 -0.17434072953E+03 -0.13502925205E+03 -0.11478888365E+02  0.22081520273E+03  0.00000000000E+00 0.  1.
          3    1    3    3  501    0  0.16843087860E+03  0.17325401105E+03 -0.47442631207E+02  0.24624523644E+03  0.00000000000E+00 0.  1.
         21    1    1    2  502  501  0.59098509223E+01 -0.38224759009E+02  0.19135453711E+02  0.43153494968E+02  0.00000000000E+00 0.  1.
<scales pt_clust_4="550.00000" pt_clust_5="550.00000" pt_clust_6="38.67892"></scales>
<mgrwt>
<rscale>  0 0.30000000E+03</rscale>
<asrwt>  1 0.38678916E+02</asrwt>
<pdfrwt beam="1">  1        1 0.85532340E+00 0.30000000E+03</pdfrwt>
<pdfrwt beam="2">0</pdfrwt>
<totfact> 0.35501018E-04</totfact>
</mgrwt>
<clustering>
<clus scale="   38.679">  1  6  2 -1</clus>
<clus scale="  461.712">  4  5 -1 -1</clus>
<clus scale="  300.000">  1  4  2 -1</clus>
</clustering>
</event>
<event>
 6    1  0.9480355E-012  0.3000000E+03  0.7818608E-02  0.1093470E+00
          1   -1    0    0  502    0  0.00000000000E+00  0.00000000000E+00  0.25129736022E+03  0.25129736022E+03  0.00000000000E+00 0.  1.
         13   -1    0    0    0    0 -0.00000000000E+00 -0.00000000000E+00 -0.27500000000E+03  0.27500000000E+03  0.00000000000E+00 0.  1.
    9000005    2    1    2  501    0 -0.32226794921E+02 -0.11851973151E+01 -0.19208447909E+02  0.49373712736E+03  0.49230825248E+03 0.  0.
         13    1    3    3    0    0 -0.14296409834E+03 -0.12126705960E+03  0.16343277913E+03  0.24870606436E+03  0.00000000000E+00 0.  1.
          1    1    3    3  501    0  0.11073730342E+03  0.12008186228E+03 -0.18264122704E+03  0.24503106299E+03  0.00000000000E+00 0.  1.
         21    1    1    2  502  501  0.32226794921E+02  0.11851973151E+01 -0.44941918688E+01  0.32560232863E+02  0.00000000000E+00 0. -1.
<scales pt_clust_4="550.00000" pt_clust_5="550.00000" pt_clust_6="32.24860"></scales>
<mgrwt>
<rscale>  0 0.30000000E+03</rscale>
<asrwt>  1 0.32248598E+02</asrwt>
<pdfrwt beam="1">  1        1 0.91380858E+00 0.30000000E+03</pdfrwt>
<pdfrwt beam="2">0</pdfrwt>
<totfact> 0.58702446E-05</totfact>
</mgrwt>
<clustering>
<clus scale="   32.249">  1  6  2 -1</clus>
<clus scale="  492.308">  4  5 -1 -1</clus>
<clus scale="  300.000">  1  4  2 -1</clus>
</clustering>
</event>
<event>
 6    1  0.9480355E-012  0.3000000E+03  0.7818608E-02  0.1093470E+00
          1   -1    0    0  502    0  0.00000000000E+00  0.00000000000E+00  0.22162087315E+03  0.22162087315E+03  0.00000000000E+00 0.  1.
         13   -1    0    0    0    0 -0.00000000000E+00 -0.00000000000E+00 -0.27500000000E+03  0.27500000000E+03  0.00000000000E+00 0.  1.
    9000005    2    1    2  501    0  0.27612152978E+02 -0.13646110326E+02 -0.66059479756E+02  0.46331263589E+03  0.45754354590E+03 0.  0.
         13    1    3    3    0    0  0.23031596549E+03  0.67501516689E+02 -0.27231884678E+02  0.24154393856E+03  0.00000000000E+00 0.  1.
          3    1    3    3  501    0 -0.20270381251E+03 -0.81147627015E+02 -0.38827595078E+02  0.22176869733E+03  0.00000000000E+00 0.  1.
         21    1    1    2  502  501 -0.27612152978E+02  0.13646110326E+02  0.12680352903E+02  0.33308237252E+02  0.00000000000E+00 0. -1.
<scales pt_clust_4="550.00000" pt_clust_5="550.00000" pt_clust_6="30.80012"></scales>
<mgrwt>
<rscale>  0 0.30000000E+03</rscale>
<asrwt>  1 0.30800119E+02</asrwt>
<pdfrwt beam="1">  1        1 0.80589408E+00 0.30000000E+03</pdfrwt>
<pdfrwt beam="2">0</pdfrwt>
<totfact> 0.96109991E-04</totfact>
</mgrwt>
<clustering>
<clus scale="   30.800">  1  6  2 -1</clus>
<clus scale="  457.544">  4  5 -1 -1</clus>
<clus scale="  300.000">  1  4  2 -1</clus>
</clustering>
</event>
<event>
 6    1  0.9480355E-012  0.3000000E+03  0.7818608E-02  0.1093470E+00
          1   -1    0    0  502    0  0.00000000000E+00  0.00000000000E+00  0.23692093730E+03  0.23692093730E+03  0.00000000000E+00 0.  1.
         13   -1    0    0    0    0 -0.00000000000E+00 -0.00000000000E+00 -0.27500000000E+03  0.27500000000E+03  0.00000000000E+00 0.  1.
    9000005    2    1    2  501    0 -0.21865901683E+02 -0.21692245163E+02 -0.70573791992E+02  0.46714841684E+03  0.46075840967E+03 0.  0.
         13    1    3    3    0    0  0.16484046034E+03 -0.15737946943E+03 -0.61990491282E+02  0.23618529965E+03  0.00000000000E+00 0.  1.
          3    1    3    3  501    0 -0.18670636202E+03  0.13568722427E+03 -0.85833007099E+01  0.23096311719E+03  0.00000000000E+00 0.  1.
         21    1    1    2  502  501  0.21865901683E+02  0.21692245163E+02  0.32494729295E+02  0.44772520463E+02  0.00000000000E+00 0.  1.
<scales pt_clust_4="550.00000" pt_clust_5="550.00000" pt_clust_6="30.80051"></scales>
<mgrwt>
<rscale>  0 0.30000000E+03</rscale>
<asrwt>  1 0.30800506E+02</asrwt>
<pdfrwt beam="1">  1        1 0.86153068E+00 0.30000000E+03</pdfrwt>
<pdfrwt beam="2">0</pdfrwt>
<totfact> 0.31908620E-04</totfact>
</mgrwt>
<clustering>
<clus scale="   30.801">  1  6  2 -1</clus>
<clus scale="  460.758">  4  5 -1 -1</clus>
<clus scale="  300.000">  1  4  2 -1</clus>
</clustering>
</event>
<event>
 6    1  0.9480355E-012  0.3000000E+03  0.7818608E-02  0.1093470E+00
          1   -1    0    0  502    0  0.00000000000E+00  0.00000000000E+00  0.24666560347E+03  0.24666560347E+03  0.00000000000E+00 0.  1.
         13   -1    0    0    0    0 -0.00000000000E+00 -0.00000000000E+00 -0.27500000000E+03  0.27500000000E+03  0.00000000000E+00 0.  1.
    9000005    2    1    2  501    0 -0.34538200327E+02 -0.69961757236E-01 -0.34154850641E+02  0.48664032884E+03  0.48421004085E+03 0.  0.
         13    1    3    3    0    0 -0.14668185796E+03  0.73519977684E+02 -0.20935519470E+03  0.26598938347E+03  0.00000000000E+00 0.  1.
          3    1    3    3  501    0  0.11214365763E+03 -0.73589939441E+02  0.17520034406E+03  0.22065094537E+03  0.00000000000E+00 0.  1.
         21    1    1    2  502  501  0.34538200327E+02  0.69961757236E-01  0.58204541073E+01  0.35025274624E+02  0.00000000000E+00 0.  1.
<scales pt_clust_4="550.00000" pt_clust_5="550.00000" pt_clust_6="34.53827"></scales>
<mgrwt>
<rscale>  0 0.30000000E+03</rscale>
<asrwt>  1 0.34538271E+02</asrwt>
<pdfrwt beam="1">  1        1 0.89696583E+00 0.30000000E+03</pdfrwt>
<pdfrwt beam="2">0</pdfrwt>
<totfact> 0.12017615E-04</totfact>
</mgrwt>
<clustering>
<clus scale="   34.538">  1  6  2 -1</clus>
<clus scale="  484.210">  4  5 -1 -1</clus>
<clus scale="  300.000">  1  4  2 -1</clus>
</clustering>
</event>
<event>
 6    1  0.9480355E-012  0.3000000E+03  0.7818608E-02  0.1093470E+00
          1   -1    0    0  502    0  0.00000000000E+00  0.00000000000E+00  0.23635372076E+03  0.23635372076E+03  0.00000000000E+00 0.  1.
         13   -1    0    0    0    0 -0.00000000000E+00 -0.00000000000E+00 -0.27500000000E+03  0.27500000000E+03  0.00000000000E+00 0.  1.
    9000005    2    1    2  501    0  0.30239059957E+02 -0.32629748227E+02 -0.29499678126E+02  0.46593608621E+03  0.46286834436E+03 0.  0.
         13    1    3    3    0    0  0.79161522835E+02 -0.23146505407E+02 -0.23783192060E+03  0.25172669677E+03  0.00000000000E+00 0.  1.
          3    1    3    3  501    0 -0.48922462878E+02 -0.94832428194E+01  0.20833224248E+03  0.21420938944E+03  0.00000000000E+00 0.  1.
         21    1    1    2  502  501 -0.30239059957E+02  0.32629748227E+02 -0.91466011115E+01  0.45417634552E+02  0.00000000000E+00 0.  1.
<scales pt_clust_4="550.00000" pt_clust_5="550.00000" pt_clust_6="44.48711"></scales>
<mgrwt>
<rscale>  0 0.30000000E+03</rscale>
<asrwt>  1 0.44487113E+02</asrwt>
<pdfrwt beam="1">  1        1 0.85946808E+00 0.30000000E+03</pdfrwt>
<pdfrwt beam="2">0</pdfrwt>
<totfact> 0.31363708E-04</totfact>
</mgrwt>
<clustering>
<clus scale="   44.487">  1  6  2 -1</clus>
<clus scale="  462.868">  4  5 -1 -1</clus>
<clus scale="  300.000">  1  4  2 -1</clus>
</clustering>
</event>
<event>
 6    1  0.9480355E-012  0.3000000E+03  0.7818608E-02  0.1093470E+00
          1   -1    0    0  502    0  0.00000000000E+00  0.00000000000E+00  0.22992138736E+03  0.22992138736E+03  0.00000000000E+00 0.  1.
         13   -1    0    0    0    0 -0.00000000000E+00 -0.00000000000E+00 -0.27500000000E+03  0.27500000000E+03  0.00000000000E+00 0.  1.
    9000005    2    1    2  501    0  0.31083401527E+02 -0.44112716453E+01 -0.46943164313E+02  0.47347120897E+03  0.47009114848E+03 0.  0.
         13    1    3    3    0    0 -0.43327929226E+02 -0.77907044486E+02  0.19252379644E+03  0.21216085696E+03  0.00000000000E+00 0.  1.
          1    1    3    3  501    0  0.74411330753E+02  0.73495772841E+02 -0.23946696076E+03  0.26131035200E+03  0.00000000000E+00 0.  1.
         21    1    1    2  502  501 -0.31083401527E+02  0.44112716453E+01  0.18645516720E+01  0.31450178393E+02  0.00000000000E+00 0. -1.
<scales pt_clust_4="550.00000" pt_clust_5="550.00000" pt_clust_6="31.39486"></scales>
<mgrwt>
<rscale>  0 0.30000000E+03</rscale>
<asrwt>  1 0.31394859E+02</asrwt>
<pdfrwt beam="1">  1        1 0.83607777E+00 0.30000000E+03</pdfrwt>
<pdfrwt beam="2">0</pdfrwt>
<totfact> 0.54233970E-04</totfact>
</mgrwt>
<clustering>
<clus scale="   31.395">  1  6  2 -1</clus>
<clus scale="  470.091">  4  5 -1 -1</clus>
<clus scale="  300.000">  1  4  2 -1</clus>
</clustering>
</event>
<event>
 6    1  0.9480355E-012  0.3000000E+03  0.7818608E-02  0.1093470E+00
          1   -1    0    0  502    0  0.00000000000E+00  0.00000000000E+00  0.21951411919E+03  0.21951411919E+03  0.00000000000E+00 0.  1.
         13   -1    0    0    0    0 -0.00000000000E+00 -0.00000000000E+00 -0.27500000000E+03  0.27500000000E+03  0.00000000000E+00 0.  1.
    9000005    2    1    2  501    0 -0.28115864902E+02  0.15221136601E+02 -0.54440205220E+02  0.46252539780E+03  0.45819627106E+03 0.  0.
         13    1    3    3    0    0 -0.38121240937E+02 -0.10758622284E+03  0.17100972078E+03  0.20560240503E+03  0.00000000000E+00 0.  1.
          1    1    3    3  501    0  0.10005376035E+02  0.12280735944E+03 -0.22544992600E+03  0.25692299277E+03  0.00000000000E+00 0.  1.
         21    1    1    2  502  501  0.28115864902E+02 -0.15221136601E+02 -0.10456755890E+01  0.31988721388E+02  0.00000000000E+00 0.  1.
<scales pt_clust_4="550.00000" pt_clust_5="550.00000" pt_clust_6="31.97163"></scales>
<mgrwt>
<rscale>  0 0.30000000E+03</rscale>
<asrwt>  1 0.31971626E+02</asrwt>
<pdfrwt beam="1">  1        1 0.79823316E+00 0.30000000E+03</pdfrwt>
<pdfrwt beam="2">0</pdfrwt>
<totfact> 0.10864100E-03</totfact>
</mgrwt>
<clustering>
<clus scale="   31.972">  1  6  2 -1</clus>
<clus scale="  458.196">  4  5 -1 -1</clus>
<clus scale="  300.000">  1  4  2 -1</clus>
</clustering>
</event>
<event>
 6    1  0.9480355E-012  0.3000000E+03  0.7818608E-02  0.1093470E+00
          1   -1    0    0  502    0  0.00000000000E+00  0.00000000000E+00  0.26258472344E+03  0.26258472344E+03  0.00000000000E+00 0.  1.
         13   -1    0    0    0    0 -0.00000000000E+00 -0.00000000000E+00 -0.27500000000E+03  0.27500000000E+03  0.00000000000E+00 0.  1.
    9000005    2    1    2  501    0  0.34064168560E+02 -0.29712162766E+01 -0.74282648637E+01  0.50302946347E+03  0.50181098662E+03 0.  0.
         13    1    3    3    0    0 -0.21985789073E+03 -0.19611084414E+02 -0.85719986687E+02  0.23679105318E+03  0.00000000000E+00 0.  1.
          1    1    3    3  501    0  0.25392205929E+03  0.16639868137E+02  0.78291721823E+02  0.26623841029E+03  0.00000000000E+00 0.  1.
         21    1    1    2  502  501 -0.34064168560E+02  0.29712162766E+01 -0.49870116963E+01  0.34555259969E+02  0.00000000000E+00 0. -1.
<scales pt_clust_4="550.00000" pt_clust_5="550.00000" pt_clust_6="34.19352"></scales>
<mgrwt>
<rscale>  0 0.30000000E+03</rscale>
<asrwt>  1 0.34193521E+02</asrwt>
<pdfrwt beam="1">  1        1 0.95485354E+00 0.30000000E+03</pdfrwt>
<pdfrwt beam="2">0</pdfrwt>
<totfact> 0.98198645E-06</totfact>
</mgrwt>
<clustering>
<clus scale="   34.194">  1  6  2 -1</clus>
<clus scale="  501.811">  4  5 -1 -1</clus>
<clus scale="  300.000">  1  4  2 -1</clus>
</clustering>
</event>
<event>
 6    1  0.9480355E-012  0.3000000E+03  0.7818608E-02  0.1093470E+00
          1   -1    0    0  502    0  0.00000000000E+00  0.00000000000E+00  0.22772933512E+03  0.22772933512E+03  0.00000000000E+00 0.  1.
         13   -1    0    0    0    0 -0.00000000000E+00 -0.00000000000E+00 -0.27500000000E+03  0.27500000000E+03  0.00000000000E+00 0.  1.
    9000005    2    1    2  501    0  0.31583778496E+02  0.69727838686E+01 -0.64351881835E+02  0.46615170874E+03  0.46055411852E+03 0.  0.
         13    1    3    3    0    0  0.13980073041E+03  0.16934873760E+03 -0.13597719122E+03  0.25828866735E+03  0.00000000000E+00 0.  1.
          3    1    3    3  501    0 -0.10821695191E+03 -0.16237595374E+03  0.71625309382E+02  0.20786304139E+03  0.00000000000E+00 0.  1.
         21    1    1    2  502  501 -0.31583778496E+02 -0.69727838686E+01  0.17081216960E+02  0.36577626383E+02  0.00000000000E+00 0.  1.
<scales pt_clust_4="550.00000" pt_clust_5="550.00000" pt_clust_6="32.34432"></scales>
<mgrwt>
<rscale>  0 0.30000000E+03</rscale>
<asrwt>  1 0.32344316E+02</asrwt>
<pdfrwt beam="1">  1        1 0.82810667E+00 0.30000000E+03</pdfrwt>
<pdfrwt beam="2">0</pdfrwt>
<totfact> 0.62242525E-04</totfact>
</mgrwt>
<clustering>
<clus scale="   32.344">  1  6  2 -1</clus>
<clus scale="  460.554">  4  5 -1 -1</clus>
<clus scale="  300.000">  1  4  2 -1</clus>
</clustering>
</event>
<event>
 6    1  0.9480355E-012  0.3000000E+03  0.7818608E-02  0.1093470E+00
          1   -1    0    0  502    0  0.00000000000E+00  0.00000000000E+00  0.24055069524E+03  0.24055069524E+03  0.00000000000E+00 0.  1.
         13   -1    0    0    0    0 -0.00000000000E+00 -0.00000000000E+00 -0.27500000000E+03  0.27500000000E+03  0.00000000000E+00 0.  1.
    9000005    2    1    2  501    0 -0.22026240589E+02 -0.31135053095E+02 -0.48287828417E+02  0.47497913448E+03  0.47097655675E+03 0.  0.
         13    1    3    3    0    0 -0.22443223103E+03 -0.33797937526E+02  0.73712981746E+02  0.23863304587E+03  0.00000000000E+00 0.  1.
          3    1    3    3  501    0  0.20240599044E+03  0.26628844302E+01 -0.12200081016E+03  0.23634608861E+03  0.00000000000E+00 0.  1.
         21    1    1    2  502  501  0.22026240589E+02  0.31135053095E+02  0.13838523658E+02  0.40571560763E+02  0.00000000000E+00 0. -1.
<scales pt_clust_4="550.00000" pt_clust_5="550.00000" pt_clust_6="38.13852"></scales>
<mgrwt>
<rscale>  0 0.30000000E+03</rscale>
<asrwt>  1 0.38138521E+02</asrwt>
<pdfrwt beam="1">  1        1 0.87472980E+00 0.30000000E+03</pdfrwt>
<pdfrwt beam="2">0</pdfrwt>
<totfact> 0.22282903E-04</totfact>
</mgrwt>
<clustering>
<clus scale="   38.139">  1  6  2 -1</clus>
<clus scale="  470.977">  4  5 -1 -1</clus>
<clus scale="  300.000">  1  4  2 -1</clus>
</clustering>
</event>
<event>
 6    1  0.9480355E-012  0.3000000E+03  0.7818608E-02  0.1093470E+00
          1   -1    0    0  502    0  0.00000000000E+00  0.00000000000E+00  0.24680642633E+03  0.24680642633E+03  0.00000000000E+00 0.  1.
         13   -1    0    0    0    0 -0.00000000000E+00 -0.00000000000E+00 -0.27500000000E+03  0.27500000000E+03  0.00000000000E+00 0.  1.
    9000005    2    1    2  501    0 -0.48304820561E+02  0.53530096773E+01 -0.41027948389E+02  0.47153982135E+03  0.46723067126E+03 0.  0.
         13    1    3    3    0    0 -0.32826502657E+02  0.19377153843E+03 -0.15543068623E+03  0.25056673084E+03  0.00000000000E+00 0.  1.
          3    1    3    3  501    0 -0.15478317904E+02 -0.18841852876E+03  0.11440273784E+03  0.22097309051E+03  0.00000000000E+00 0.  1.
         21    1    1    2  502  501  0.48304820561E+02 -0.53530096773E+01  0.12834374723E+02  0.50266604984E+02  0.00000000000E+00 0. -1.
<scales pt_clust_4="550.00000" pt_clust_5="550.00000" pt_clust_6="48.60052"></scales>
<mgrwt>
<rscale>  0 0.30000000E+03</rscale>
<asrwt>  1 0.48600519E+02</asrwt>
<pdfrwt beam="1">  1        1 0.89747791E+00 0.30000000E+03</pdfrwt>
<pdfrwt beam="2">0</pdfrwt>
<totfact> 0.11145247E-04</totfact>
</mgrwt>
<clustering>
<clus scale="   48.601">  1  6  2 -1</clus>
<clus scale="  467.231">  4  5 -1 -1</clus>
<clus scale="  300.000">  1  4  2 -1</clus>
</clustering>
</event>
<event>
 6    1  0.9480355E-012  0.3000000E+03  0.7818608E-02  0.1093470E+00
          1   -1    0    0  502    0  0.00000000000E+00  0.00000000000E+00  0.25830620008E+03  0.25830620008E+03  0.00000000000E+00 0.  1.
         13   -1    0    0    0    0 -0.00000000000E+00 -0.00000000000E+00 -0.27500000000E+03  0.27500000000E+03  0.00000000000E+00 0.  1.
    9000005    2    1    2  501    0  0.52991444581E+02  0.40022795950E+02  0.31908649462E+01  0.46398580416E+03  0.45919791751E+03 0.  0.
         13    1    3    3    0    0  0.20095531467E+03 -0.12941554007E+03  0.24335042244E+01  0.23903418678E+03  0.00000000000E+00 0.  1.
          3    1    3    3  501    0 -0.14796387009E+03  0.16943833602E+03  0.75736072183E+00  0.22495161738E+03  0.00000000000E+00 0.  1.
         21    1    1    2  502  501 -0.52991444581E+02 -0.40022795950E+02 -0.19884664865E+02  0.69320395925E+02  0.00000000000E+00 0. -1.
<scales pt_clust_4="550.00000" pt_clust_5="550.00000" pt_clust_6="66.40724"></scales>
<mgrwt>
<rscale>  0 0.30000000E+03</rscale>
<asrwt>  1 0.66407242E+02</asrwt>
<pdfrwt beam="1">  1        1 0.93929527E+00 0.30000000E+03</pdfrwt>
<pdfrwt beam="2">0</pdfrwt>
<totfact> 0.17577431E-05</totfact>
</mgrwt>
<clustering>
<clus scale="   66.407">  1  6  2 -1</clus>
<clus scale="  459.198">  4  5 -1 -1</clus>
<clus scale="  300.000">  1  4  2 -1</clus>
</clustering>
</event>
<event>
 6    1  0.9480355E-012  0.3000000E+03  0.7818608E-02  0.1093470E+00
          1   -1    0    0  502    0  0.00000000000E+00  0.00000000000E+00  0.23113005397E+03  0.23113005397E+03  0.00000000000E+00 0.  1.
         13   -1    0    0    0    0 -0.00000000000E+00 -0.00000000000E+00 -0.27500000000E+03  0.27500000000E+03  0.00000000000E+00 0.  1.
    9000005    2    1    2  501    0  0.28987352840E+02 -0.20034867462E+02 -0.47395586246E+02  0.47071688300E+03  0.46699719465E+03 0.  0.
         13    1    3    3    0    0  0.24736479776E+02  0.13144394079E+03 -0.20966328419E+03  0.24869277380E+03  0.00000000000E+00 0.  1.
          3    1    3    3  501    0  0.42508730638E+01 -0.15147880825E+03  0.16226769794E+03  0.22202410920E+03  0.00000000000E+00 0.  1.
         21    1    1    2  502  501 -0.28987352840E+02  0.20034867462E+02  0.35256402129E+01  0.35413170965E+02  0.00000000000E+00 0. -1.
<scales pt_clust_4="550.00000" pt_clust_5="550.00000" pt_clust_6="35.23723"></scales>
<mgrwt>
<rscale>  0 0.30000000E+03</rscale>
<asrwt>  1 0.35237232E+02</asrwt>
<pdfrwt beam="1">  1        1 0.84047292E+00 0.30000000E+03</pdfrwt>
<pdfrwt beam="2">0</pdfrwt>
<totfact> 0.49225449E-04</totfact>
</mgrwt>
<clustering>
<clus scale="   35.237">  1  6  2 -1</clus>
<clus scale="  466.997">  4  5 -1 -1</clus>
<clus scale="  300.000">  1  4  2 -1</clus>
</clustering>
</event>
<event>
 6    1  0.9480355E-012  0.3000000E+03  0.7818608E-02  0.1093470E+00
          1   -1    0    0  502    0  0.00000000000E+00  0.00000000000E+00  0.23644317768E+03  0.23644317768E+03  0.00000000000E+00 0.  1.
         13   -1    0    0    0    0 -0.00000000000E+00 -0.00000000000E+00 -0.27500000000E+03  0.27500000000E+03  0.00000000000E+00 0.  1.
    9000005    2    1    2  501    0  0.41046647614E+02 -0.64276718362E+01 -0.31801678632E+02  0.46935072928E+03  0.46642536173E+03 0.  0.
         13    1    3    3    0    0 -0.16431049423E+02 -0.23208016940E+03 -0.41304910575E+02  0.23629913257E+03  0.00000000000E+00 0.  1.
          3    1    3    3  501    0  0.57477697038E+02  0.22565249756E+03  0.95032319431E+01  0.23305159671E+03  0.00000000000E+00 0.  1.
         21    1    1    2  502  501 -0.41046647614E+02  0.64276718362E+01 -0.67551436912E+01  0.42092448395E+02  0.00000000000E+00 0. -1.
<scales pt_clust_4="550.00000" pt_clust_5="550.00000" pt_clust_6="41.54689"></scales>
<mgrwt>
<rscale>  0 0.30000000E+03</rscale>
<asrwt>  1 0.41546889E+02</asrwt>
<pdfrwt beam="1">  1        1 0.85979337E+00 0.30000000E+03</pdfrwt>
<pdfrwt beam="2">0</pdfrwt>
<totfact> 0.31500513E-04</totfact>
</mgrwt>
<clustering>
<clus scale="   41.547">  1  6  2 -1</clus>
<clus scale="  466.425">  4  5 -1 -1</clus>
<clus scale="  300.000">  1  4  2 -1</clus>
</clustering>
</event>
<event>
 6    1  0.9480355E-012  0.3000000E+03  0.7818608E-02  0.1093470E+00
          1   -1    0    0  502    0  0.00000000000E+00  0.00000000000E+00  0.23128227964E+03  0.23128227964E+03  0.00000000000E+00 0.  1.
         13   -1    0    0    0    0 -0.00000000000E+00 -0.00000000000E+00 -0.27500000000E+03  0.27500000000E+03  0.00000000000E+00 0.  1.
    9000005    2    1    2  501    0  0.34504455773E+02  0.96298282391E+01 -0.25027382022E+02  0.46587658936E+03  0.46382252598E+03 0.  0.
         13    1    3    3    0    0  0.77740296498E+02  0.89697359001E+02  0.19471320836E+03  0.22804035481E+03  0.00000000000E+00 0.  1.
          3    1    3    3  501    0 -0.43235840725E+02 -0.80067530762E+02 -0.21974059038E+03  0.23783623455E+03  0.00000000000E+00 0.  1.
         21    1    1    2  502  501 -0.34504455773E+02 -0.96298282391E+01 -0.18690338334E+02  0.40405690282E+02  0.00000000000E+00 0.  1.
<scales pt_clust_4="550.00000" pt_clust_5="550.00000" pt_clust_6="35.82307"></scales>
<mgrwt>
<rscale>  0 0.30000000E+03</rscale>
<asrwt>  1 0.35823070E+02</asrwt>
<pdfrwt beam="1">  1        1 0.84102647E+00 0.30000000E+03</pdfrwt>
<pdfrwt beam="2">0</pdfrwt>
<totfact> 0.48584547E-04</totfact>
</mgrwt>
<clustering>
<clus scale="   35.823">  1  6  2 -1</clus>
<clus scale="  463.823">  4  5 -1 -1</clus>
<clus scale="  300.000">  1  4  2 -1</clus>
</clustering>
</event>
<event>
 6    1  0.9480355E-012  0.3000000E+03  0.7818608E-02  0.1093470E+00
          1   -1    0    0  502    0  0.00000000000E+00  0.00000000000E+00  0.24675382094E+03  0.24675382094E+03  0.00000000000E+00 0.  1.
         13   -1    0    0    0    0 -0.00000000000E+00 -0.00000000000E+00 -0.27500000000E+03  0.27500000000E+03  0.00000000000E+00 0.  1.
    9000005    2    1    2  501    0 -0.25737003048E+02 -0.35913432558E+02 -0.12388241551E+02  0.47481085399E+03  0.47258830981E+03 0.  0.
         13    1    3    3    0    0  0.17591712680E+03 -0.10021863602E+03 -0.12207710453E+03  0.23641791378E+03  0.00000000000E+00 0.  1.
          1    1    3    3  501    0 -0.20165412985E+03  0.64305203461E+02  0.10968886298E+03  0.23839294020E+03  0.00000000000E+00 0.  1.
         21    1    1    2  502  501  0.25737003048E+02  0.35913432558E+02 -0.15857937512E+02  0.46942966951E+02  0.00000000000E+00 0. -1.
<scales pt_clust_4="550.00000" pt_clust_5="550.00000" pt_clust_6="44.18337"></scales>
<mgrwt>
<rscale>  0 0.30000000E+03</rscale>
<asrwt>  1 0.44183367E+02</asrwt>
<pdfrwt beam="1">  1        1 0.89728662E+00 0.30000000E+03</pdfrwt>
<pdfrwt beam="2">0</pdfrwt>
<totfact> 0.11392150E-04</totfact>
</mgrwt>
<clustering>
<clus scale="   44.183">  1  6  2 -1</clus>
<clus scale="  472.588">  4  5 -1 -1</clus>
<clus scale="  300.000">  1  4  2 -1</clus>
</clustering>
</event>
<event>
 6    1  0.9480355E-012  0.3000000E+03  0.7818608E-02  0.1093470E+00
          1   -1    0    0  502    0  0.00000000000E+00  0.00000000000E+00  0.24300667732E+03  0.24300667732E+03  0.00000000000E+00 0.  1.
         13   -1    0    0    0    0 -0.00000000000E+00 -0.00000000000E+00 -0.27500000000E+03  0.27500000000E+03  0.00000000000E+00 0.  1.
    9000005    2    1    2  501    0  0.16391935623E+02  0.25140289665E+02 -0.49759671128E+02  0.48313014000E+03  0.47962274507E+03 0.  0.
         13    1    3    3    0    0  0.11275625505E+03  0.22335295624E+03 -0.75232750284E+02  0.26126707185E+03  0.00000000000E+00 0.  1.
          1    1    3    3  501    0 -0.96364319427E+02 -0.19821266658E+03  0.25473079156E+02  0.22186306816E+03  0.00000000000E+00 0.  1.
         21    1    1    2  502  501 -0.16391935623E+02 -0.25140289665E+02  0.17766348445E+02  0.34876537313E+02  0.00000000000E+00 0. -1.
<scales pt_clust_4="550.00000" pt_clust_5="550.00000" pt_clust_6="30.01216"></scales>
<mgrwt>
<rscale>  0 0.30000000E+03</rscale>
<asrwt>  1 0.30012160E+02</asrwt>
<pdfrwt beam="1">  1        1 0.88366064E+00 0.30000000E+03</pdfrwt>
<pdfrwt beam="2">0</pdfrwt>
<totfact> 0.18221191E-04</totfact>
</mgrwt>
<clustering>
<clus scale="   30.012">  1  6  2 -1</clus>
<clus scale="  479.623">  4  5 -1 -1</clus>
<clus scale="  300.000">  1  4  2 -1</clus>
</clustering>
</event>
<event>
 6    1  0.9480355E-012  0.3000000E+03  0.7818608E-02  0.1093470E+00
          1   -1    0    0  502    0  0.00000000000E+00  0.00000000000E+00  0.22897268063E+03  0.22897268063E+03  0.00000000000E+00 0.  1.
         13   -1    0    0    0    0 -0.00000000000E+00 -0.00000000000E+00 -0.27500000000E+03  0.27500000000E+03  0.00000000000E+00 0.  1.
    9000005    2    1    2  501    0 -0.26855338438E+02 -0.20809199031E+02 -0.51563154645E+02  0.46955063190E+03  0.46547266840E+03 0.  0.
         13    1    3    3    0    0  0.14999087242E+03  0.12551711077E+03  0.72558139269E+02  0.20860606530E+03  0.00000000000E+00 0.  1.
          3    1    3    3  501    0 -0.17684621086E+03 -0.14632630980E+03 -0.12412129391E+03  0.26094456660E+03  0.00000000000E+00 0.  1.
         21    1    1    2  502  501  0.26855338438E+02  0.20809199031E+02  0.55358352762E+01  0.34422048735E+02  0.00000000000E+00 0. -1.
<scales pt_clust_4="550.00000" pt_clust_5="550.00000" pt_clust_6="33.97399"></scales>
<mgrwt>
<rscale>  0 0.30000000E+03</rscale>
<asrwt>  1 0.33973990E+02</asrwt>
<pdfrwt beam="1">  1        1 0.83262793E+00 0.30000000E+03</pdfrwt>
<pdfrwt beam="2">0</pdfrwt>
<totfact> 0.56655373E-04</totfact>
</mgrwt>
<clustering>
<clus scale="   33.974">  1  6  2 -1</clus>
<clus scale="  465.473">  4  5 -1 -1</clus>
<clus scale="  300.000">  1  4  2 -1</clus>
</clustering>
</event>
<event>
 6    1  0.9480355E-012  0.3000000E+03  0.7818608E-02  0.1093470E+00
          1   -1    0    0  502    0  0.00000000000E+00  0.00000000000E+00  0.22491335706E+03  0.22491335706E+03  0.00000000000E+00 0.  1.
         13   -1    0    0    0    0 -0.00000000000E+00 -0.00000000000E+00 -0.27500000000E+03  0.27500000000E+03  0.00000000000E+00 0.  1.
    9000005    2    1    2  501    0  0.15006318813E+01 -0.30433349094E+02 -0.49347276183E+02  0.46943406415E+03  0.46583768234E+03 0.  0.
         13    1    3    3    0    0 -0.22486095875E+02  0.21662364357E+03 -0.37002309083E+02  0.22090857462E+03  0.00000000000E+00 0.  1.
          1    1    3    3  501    0  0.23986727756E+02 -0.24705699267E+03 -0.12344967100E+02  0.24852548953E+03  0.00000000000E+00 0.  1.
         21    1    1    2  502  501 -0.15006318813E+01  0.30433349094E+02 -0.73936675423E+00  0.30479292911E+02  0.00000000000E+00 0.  1.
<scales pt_clust_4="550.00000" pt_clust_5="550.00000" pt_clust_6="30.47032"></scales>
<mgrwt>
<rscale>  0 0.30000000E+03</rscale>
<asrwt>  1 0.30470324E+02</asrwt>
<pdfrwt beam="1">  1        1 0.81786675E+00 0.30000000E+03</pdfrwt>
<pdfrwt beam="2">0</pdfrwt>
<totfact> 0.77421396E-04</totfact>
</mgrwt>
<clustering>
<clus scale="   30.470">  1  6  2 -1</clus>
<clus scale="  465.838">  4  5 -1 -1</clus>
<clus scale="  300.000">  1  4  2 -1</clus>
</clustering>
</event>
<event>
 6    1  0.9480355E-012  0.3000000E+03  0.7818608E-02  0.1093470E+00
          1   -1    0    0  502    0  0.00000000000E+00  0.00000000000E+00  0.22987230781E+03  0.22987230781E+03  0.00000000000E+00 0.  1.
         13   -1    0    0    0    0 -0.00000000000E+00 -0.00000000000E+00 -0.27500000000E+03  0.27500000000E+03  0.00000000000E+00 0.  1.
    9000005    2    1    2  501    0  0.13104299142E+02 -0.27515399063E+02 -0.46967460413E+02  0.47434028219E+03  0.47102435301E+03 0.  0.
         13    1    3    3    0    0  0.98349015536E+02  0.19619004102E+03  0.33027026327E+02  0.22193207411E+03  0.00000000000E+00 0.  1.
          1    1    3    3  501    0 -0.85244716394E+02 -0.22370544008E+03 -0.79994486740E+02  0.25240820807E+03  0.00000000000E+00 0.  1.
         21    1    1    2  502  501 -0.13104299142E+02  0.27515399063E+02  0.18397682232E+01  0.30532025624E+02  0.00000000000E+00 0.  1.
<scales pt_clust_4="550.00000" pt_clust_5="550.00000" pt_clust_6="30.47655"></scales>
<mgrwt>
<rscale>  0 0.30000000E+03</rscale>
<asrwt>  1 0.30476546E+02</asrwt>
<pdfrwt beam="1">  1        1 0.83589930E+00 0.30000000E+03</pdfrwt>
<pdfrwt beam="2">0</pdfrwt>
<totfact> 0.54706058E-04</totfact>
</mgrwt>
<clustering>
<clus scale="   30.477">  1  6  2 -1</clus>
<clus scale="  471.024">  4  5 -1 -1</clus>
<clus scale="  300.000">  1  4  2 -1</clus>
</clustering>
</event>
<event>
 6    1  0.9480355E-012  0.3000000E+03  0.7818608E-02  0.1093470E+00
          1   -1    0    0  502    0  0.00000000000E+00  0.00000000000E+00  0.22796754428E+03  0.22796754428E+03  0.00000000000E+00 0.  1.
         13   -1    0    0    0    0 -0.00000000000E+00 -0.00000000000E+00 -0.27500000000E+03  0.27500000000E+03  0.00000000000E+00 0.  1.
    9000005    2    1    2  501    0  0.17181755126E+02 -0.32545907330E+02 -0.42576570971E+02  0.46589594191E+03  0.46248439487E+03 0.  0.
         13    1    3    3    0    0 -0.51581214678E+02  0.19526175218E+03 -0.93492533148E+02  0.22255028045E+03  0.00000000000E+00 0.  1.
          1    1    3    3  501    0  0.68762969804E+02 -0.22780765951E+03  0.50915962177E+02  0.24334566146E+03  0.00000000000E+00 0.  1.
         21    1    1    2  502  501 -0.17181755126E+02  0.32545907330E+02 -0.44558847535E+01  0.37071602367E+02  0.00000000000E+00 0. -1.
<scales pt_clust_4="550.00000" pt_clust_5="550.00000" pt_clust_6="36.80286"></scales>
<mgrwt>
<rscale>  0 0.30000000E+03</rscale>
<asrwt>  1 0.36802855E+02</asrwt>
<pdfrwt beam="1">  1        1 0.82897289E+00 0.30000000E+03</pdfrwt>
<pdfrwt beam="2">0</pdfrwt>
<totfact> 0.59723249E-04</totfact>
</mgrwt>
<clustering>
<clus scale="   36.803">  1  6  2 -1</clus>
<clus scale="  462.484">  4  5 -1 -1</clus>
<clus scale="  300.000">  1  4  2 -1</clus>
</clustering>
</event>
<event>
 6    1  0.9480355E-012  0.3000000E+03  0.7818608E-02  0.1093470E+00
          1   -1    0    0  502    0  0.00000000000E+00  0.00000000000E+00  0.24287212939E+03  0.24287212939E+03  0.00000000000E+00 0.  1.
         13   -1    0    0    0    0 -0.00000000000E+00 -0.00000000000E+00 -0.27500000000E+03  0.27500000000E+03  0.00000000000E+00 0.  1.
    9000005    2    1    2  501    0 -0.23716777802E+02  0.20591907116E+02 -0.49237243381E+02  0.48210562516E+03  0.47855513318E+03 0.  0.
         13    1    3    3    0    0  0.13117263079E+03  0.11603320500E+03  0.13655136168E+03  0.22207259648E+03  0.00000000000E+00 0.  1.
          1    1    3    3  501    0 -0.15488940859E+03 -0.95441297886E+02 -0.18578860506E+03  0.26003302868E+03  0.00000000000E+00 0.  1.
         21    1    1    2  502  501  0.23716777802E+02 -0.20591907116E+02  0.17109372772E+02  0.35766504228E+02  0.00000000000E+00 0.  1.
<scales pt_clust_4="550.00000" pt_clust_5="550.00000" pt_clust_6="31.40879"></scales>
<mgrwt>
<rscale>  0 0.30000000E+03</rscale>
<asrwt>  1 0.31408792E+02</asrwt>
<pdfrwt beam="1">  1        1 0.88317138E+00 0.30000000E+03</pdfrwt>
<pdfrwt beam="2">0</pdfrwt>
<totfact> 0.18337831E-04</totfact>
</mgrwt>
<clustering>
<clus scale="   31.409">  1  6  2 -1</clus>
<clus scale="  478.555">  4  5 -1 -1</clus>
<clus scale="  300.000">  1  4  2 -1</clus>
</clustering>
</event>
<event>
 6    1  0.9480355E-012  0.3000000E+03  0.7818608E-02  0.1093470E+00
          1   -1    0    0  502    0  0.00000000000E+00  0.00000000000E+00  0.22411918085E+03  0.22411918085E+03  0.00000000000E+00 0.  1.
         13   -1    0    0    0    0 -0.00000000000E+00 -0.00000000000E+00 -0.27500000000E+03  0.27500000000E+03  0.00000000000E+00 0.  1.
    9000005    2    1    2  501    0  0.23227368505E+02 -0.22132687912E+02 -0.56807196715E+02  0.46649268130E+03  0.46190799689E+03 0.  0.
         13    1    3    3    0    0 -0.83239219765E+02 -0.20252558361E+03 -0.11738088381E+03  0.24844245130E+03  0.00000000000E+00 0.  1.
          3    1    3    3  501    0  0.10646658827E+03  0.18039289570E+03  0.60573687099E+02  0.21805023000E+03  0.00000000000E+00 0.  1.
         21    1    1    2  502  501 -0.23227368505E+02  0.22132687912E+02  0.59263775667E+01  0.32626499551E+02  0.00000000000E+00 0. -1.
<scales pt_clust_4="550.00000" pt_clust_5="550.00000" pt_clust_6="32.08374"></scales>
<mgrwt>
<rscale>  0 0.30000000E+03</rscale>
<asrwt>  1 0.32083742E+02</asrwt>
<pdfrwt beam="1">  1        1 0.81497884E+00 0.30000000E+03</pdfrwt>
<pdfrwt beam="2">0</pdfrwt>
<totfact> 0.80952592E-04</totfact>
</mgrwt>
<clustering>
<clus scale="   32.084">  1  6  2 -1</clus>
<clus scale="  461.908">  4  5 -1 -1</clus>
<clus scale="  300.000">  1  4  2 -1</clus>
</clustering>
</event>
<event>
 6    1  0.9480355E-012  0.3000000E+03  0.7818608E-02  0.1093470E+00
          1   -1    0    0  502    0  0.00000000000E+00  0.00000000000E+00  0.24240003494E+03  0.24240003494E+03  0.00000000000E+00 0.  1.
         13   -1    0    0    0    0 -0.00000000000E+00 -0.00000000000E+00 -0.27500000000E+03  0.27500000000E+03  0.00000000000E+00 0.  1.
    9000005    2    1    2  501    0  0.24948979204E+02 -0.25630125658E+02 -0.68795522324E+02  0.46651316757E+03  0.46002430014E+03 0.  0.
         13    1    3    3    0    0  0.91212160368E+02 -0.15075558438E+03 -0.20481334290E+03  0.27017662713E+03  0.00000000000E+00 0.  1.
          1    1    3    3  501    0 -0.66263181165E+02  0.12512545872E+03  0.13601782057E+03  0.19633654044E+03  0.00000000000E+00 0.  1.
         21    1    1    2  502  501 -0.24948979204E+02  0.25630125658E+02  0.36195557260E+02  0.50886867362E+02  0.00000000000E+00 0.  1.
<scales pt_clust_4="550.00000" pt_clust_5="550.00000" pt_clust_6="35.76807"></scales>
<mgrwt>
<rscale>  0 0.30000000E+03</rscale>
<asrwt>  1 0.35768071E+02</asrwt>
<pdfrwt beam="1">  1        1 0.88145467E+00 0.30000000E+03</pdfrwt>
<pdfrwt beam="2">0</pdfrwt>
<totfact> 0.18845901E-04</totfact>
</mgrwt>
<clustering>
<clus scale="   35.768">  1  6  2 -1</clus>
<clus scale="  460.024">  4  5 -1 -1</clus>
<clus scale="  300.000">  1  4  2 -1</clus>
</clustering>
</event>
<event>
 6    1  0.9480355E-012  0.3000000E+03  0.7818608E-02  0.1093470E+00
          1   -1    0    0  502    0  0.00000000000E+00  0.00000000000E+00  0.22722655325E+03  0.22722655325E+03  0.00000000000E+00 0.  1.
         13   -1    0    0    0    0 -0.00000000000E+00 -0.00000000000E+00 -0.27500000000E+03  0.27500000000E+03  0.00000000000E+00 0.  1.
    9000005    2    1    2  501    0 -0.28033272935E+02 -0.13542103248E+02 -0.66269990244E+02  0.46601364018E+03  0.46022575794E+03 0.  0.
         13    1    3    3    0    0 -0.15533992402E+03  0.16492961066E+03 -0.93507930372E+02  0.24510406262E+03  0.00000000000E+00 0.  1.
          1    1    3    3  501    0  0.12730665109E+03 -0.17847171391E+03  0.27237940128E+02  0.22090957756E+03  0.00000000000E+00 0.  1.
         21    1    1    2  502  501  0.28033272935E+02  0.13542103248E+02  0.18496543496E+02  0.36212913072E+02  0.00000000000E+00 0. -1.
<scales pt_clust_4="550.00000" pt_clust_5="550.00000" pt_clust_6="31.13283"></scales>
<mgrwt>
<rscale>  0 0.30000000E+03</rscale>
<asrwt>  1 0.31132828E+02</asrwt>
<pdfrwt beam="1">  1        1 0.82627838E+00 0.30000000E+03</pdfrwt>
<pdfrwt beam="2">0</pdfrwt>
<totfact> 0.65053188E-04</totfact>
</mgrwt>
<clustering>
<clus scale="   31.133">  1  6  2 -1</clus>
<clus scale="  460.226">  4  5 -1 -1</clus>
<clus scale="  300.000">  1  4  2 -1</clus>
</clustering>
</event>
<event>
 6    1  0.9480355E-012  0.3000000E+03  0.7818608E-02  0.1093470E+00
          1   -1    0    0  502    0  0.00000000000E+00  0.00000000000E+00  0.24232987949E+03  0.24232987949E+03  0.00000000000E+00 0.  1.
         13   -1    0    0    0    0 -0.00000000000E+00 -0.00000000000E+00 -0.27500000000E+03  0.27500000000E+03  0.00000000000E+00 0.  1.
    9000005    2    1    2  501    0 -0.17871453756E+02  0.30842598026E+02 -0.53886487835E+02  0.47584748618E+03  0.47144079355E+03 0.  0.
         13    1    3    3    0    0 -0.14344277881E+03 -0.14722335085E+03 -0.13210920895E+03  0.24434276932E+03  0.00000000000E+00 0.  1.
          1    1    3    3  501    0  0.12557132506E+03  0.17806594888E+03  0.78222721119E+02  0.23150471686E+03  0.00000000000E+00 0.  1.
         21    1    1    2  502  501  0.17871453756E+02 -0.30842598026E+02  0.21216367327E+02  0.41482393312E+02  0.00000000000E+00 0.  1.
<scales pt_clust_4="550.00000" pt_clust_5="550.00000" pt_clust_6="35.64624"></scales>
<mgrwt>
<rscale>  0 0.30000000E+03</rscale>
<asrwt>  1 0.35646244E+02</asrwt>
<pdfrwt beam="1">  1        1 0.88119956E+00 0.30000000E+03</pdfrwt>
<pdfrwt beam="2">0</pdfrwt>
<totfact> 0.19000307E-04</totfact>
</mgrwt>
<clustering>
<clus scale="   35.646">  1  6  2 -1</clus>
<clus scale="  471.441">  4  5 -1 -1</clus>
<clus scale="  300.000">  1  4  2 -1</clus>
</clustering>
</event>
<event>
 6    1  0.9480355E-012  0.3000000E+03  0.7818608E-02  0.1093470E+00
          1   -1    0    0  502    0  0.00000000000E+00  0.00000000000E+00  0.24276924938E+03  0.24276924938E+03  0.00000000000E+00 0.  1.
         13   -1    0    0    0    0 -0.00000000000E+00 -0.00000000000E+00 -0.27500000000E+03  0.27500000000E+03  0.00000000000E+00 0.  1.
    9000005    2    1    2  501    0 -0.20472696581E+02 -0.28667369646E+02 -0.70175730223E+02  0.46599308822E+03  0.45932992039E+03 0.  0.
         13    1    3    3    0    0 -0.35701501083E+02  0.15351866738E+03 -0.19040773787E+03  0.24717945921E+03  0.00000000000E+00 0.  1.
          1    1    3    3  501    0  0.15228804501E+02 -0.18218603703E+03  0.12023200765E+03  0.21881362900E+03  0.00000000000E+00 0.  1.
         21    1    1    2  502  501  0.20472696581E+02  0.28667369646E+02  0.37944979599E+02  0.51776161160E+02  0.00000000000E+00 0. -1.
<scales pt_clust_4="550.00000" pt_clust_5="550.00000" pt_clust_6="35.22711"></scales>
<mgrwt>
<rscale>  0 0.30000000E+03</rscale>
<asrwt>  1 0.35227112E+02</asrwt>
<pdfrwt beam="1">  1        1 0.88279727E+00 0.30000000E+03</pdfrwt>
<pdfrwt beam="2">0</pdfrwt>
<totfact> 0.18151696E-04</totfact>
</mgrwt>
<clustering>
<clus scale="   35.227">  1  6  2 -1</clus>
<clus scale="  459.330">  4  5 -1 -1</clus>
<clus scale="  300.000">  1  4  2 -1</clus>
</clustering>
</event>
<event>
 6    1  0.9480355E-012  0.3000000E+03  0.7818608E-02  0.1093470E+00
          1   -1    0    0  502    0  0.00000000000E+00  0.00000000000E+00  0.23623982609E+03  0.23623982609E+03  0.00000000000E+00 0.  1.
         13   -1    0    0    0    0 -0.00000000000E+00 -0.00000000000E+00 -0.27500000000E+03  0.27500000000E+03  0.00000000000E+00 0.  1.
    9000005    2    1    2  501    0 -0.13162018731E+02  0.34819026275E+02 -0.48402614673E+02  0.47278751807E+03  0.46882792239E+03 0.  0.
         13    1    3    3    0    0 -0.12511888583E+03  0.19089472188E+03 -0.13159979494E+03  0.26346543693E+03  0.00000000000E+00 0.  1.
          3    1    3    3  501    0  0.11195686710E+03 -0.15607569560E+03  0.83197180267E+02  0.20932208114E+03  0.00000000000E+00 0.  1.
         21    1    1    2  502  501  0.13162018731E+02 -0.34819026275E+02  0.96424407589E+01  0.38452308014E+02  0.00000000000E+00 0.  1.
<scales pt_clust_4="550.00000" pt_clust_5="550.00000" pt_clust_6="37.22369"></scales>
<mgrwt>
<rscale>  0 0.30000000E+03</rscale>
<asrwt>  1 0.37223693E+02</asrwt>
<pdfrwt beam="1">  1        1 0.85905391E+00 0.30000000E+03</pdfrwt>
<pdfrwt beam="2">0</pdfrwt>
<totfact> 0.32726306E-04</totfact>
</mgrwt>
<clustering>
<clus scale="   37.224">  1  6  2 -1</clus>
<clus scale="  468.828">  4  5 -1 -1</clus>
<clus scale="  300.000">  1  4  2 -1</clus>
</clustering>
</event>
<event>
 6    1  0.9480355E-012  0.3000000E+03  0.7818608E-02  0.1093470E+00
          1   -1    0    0  502    0  0.00000000000E+00  0.00000000000E+00  0.23296600761E+03  0.23296600761E+03  0.00000000000E+00 0.  1.
         13   -1    0    0    0    0 -0.00000000000E+00 -0.00000000000E+00 -0.27500000000E+03  0.27500000000E+03  0.00000000000E+00 0.  1.
    9000005    2    1    2  501    0 -0.18674909782E+02  0.35375731275E+02 -0.38931400096E+02  0.46784343668E+03  0.46450148839E+03 0.  0.
         13    1    3    3    0    0  0.11061731501E+03  0.20207858655E+03  0.55099858500E+02  0.23687114626E+03  0.00000000000E+00 0.  1.
          1    1    3    3  501    0 -0.12929222480E+03 -0.16670285528E+03 -0.94031258596E+02  0.23097229042E+03  0.00000000000E+00 0.  1.
         21    1    1    2  502  501  0.18674909782E+02 -0.35375731275E+02 -0.31025922982E+01  0.40122570925E+02  0.00000000000E+00 0. -1.
<scales pt_clust_4="550.00000" pt_clust_5="550.00000" pt_clust_6="40.00243"></scales>
<mgrwt>
<rscale>  0 0.30000000E+03</rscale>
<asrwt>  1 0.40002433E+02</asrwt>
<pdfrwt beam="1">  1        1 0.84714912E+00 0.30000000E+03</pdfrwt>
<pdfrwt beam="2">0</pdfrwt>
<totfact> 0.42183270E-04</totfact>
</mgrwt>
<clustering>
<clus scale="   40.002">  1  6  2 -1</clus>
<clus scale="  464.501">  4  5 -1 -1</clus>
<clus scale="  300.000">  1  4  2 -1</clus>
</clustering>
</event>
<event>
 6    1  0.9480355E-012  0.3000000E+03  0.7818608E-02  0.1093470E+00
          1   -1    0    0  502    0  0.00000000000E+00  0.00000000000E+00  0.23066120640E+03  0.23066120640E+03  0.00000000000E+00 0.  1.
         13   -1    0    0    0    0 -0.00000000000E+00 -0.00000000000E+00 -0.27500000000E+03  0.27500000000E+03  0.00000000000E+00 0.  1.
    9000005    2    1    2  501    0  0.18797889435E+02  0.30273148999E+02 -0.53163286448E+02  0.46895022887E+03  0.46456232944E+03 0.  0.
         13    1    3    3    0    0  0.15243313628E+03 -0.12650284222E+03  0.90518455179E+02  0.21778985480E+03  0.00000000000E+00 0.  1.
          3    1    3    3  501    0 -0.13363524685E+03  0.15677599122E+03 -0.14368174163E+03  0.25116037406E+03  0.00000000000E+00 0.  1.
         21    1    1    2  502  501 -0.18797889435E+02 -0.30273148999E+02  0.88244928503E+01  0.36710977535E+02  0.00000000000E+00 0.  1.
<scales pt_clust_4="550.00000" pt_clust_5="550.00000" pt_clust_6="35.63459"></scales>
<mgrwt>
<rscale>  0 0.30000000E+03</rscale>
<asrwt>  1 0.35634593E+02</asrwt>
<pdfrwt beam="1">  1        1 0.83876802E+00 0.30000000E+03</pdfrwt>
<pdfrwt beam="2">0</pdfrwt>
<totfact> 0.50609573E-04</totfact>
</mgrwt>
<clustering>
<clus scale="   35.635">  1  6  2 -1</clus>
<clus scale="  464.562">  4  5 -1 -1</clus>
<clus scale="  300.000">  1  4  2 -1</clus>
</clustering>
</event>
<event>
 6    1  0.9480355E-012  0.3000000E+03  0.7818608E-02  0.1093470E+00
          1   -1    0    0  502    0  0.00000000000E+00  0.00000000000E+00  0.22725099324E+03  0.22725099324E+03  0.00000000000E+00 0.  1.
         13   -1    0    0    0    0 -0.00000000000E+00 -0.00000000000E+00 -0.27500000000E+03  0.27500000000E+03  0.00000000000E+00 0.  1.
    9000005    2    1    2  501    0 -0.23801272990E+02  0.18629477774E+02 -0.72664975163E+02  0.46308004074E+03  0.45634347534E+03 0.  0.
         13    1    3    3    0    0 -0.14615894247E+03  0.19307726808E+03 -0.16498292631E+02  0.24272095413E+03  0.00000000000E+00 0.  1.
          3    1    3    3  501    0  0.12235766948E+03 -0.17444779031E+03 -0.56166682532E+02  0.22035908661E+03  0.00000000000E+00 0.  1.
         21    1    1    2  502  501  0.23801272990E+02 -0.18629477774E+02  0.24915968405E+02  0.39170952499E+02  0.00000000000E+00 0.  1.
<scales pt_clust_4="550.00000" pt_clust_5="550.00000" pt_clust_6="30.22512"></scales>
<mgrwt>
<rscale>  0 0.30000000E+03</rscale>
<asrwt>  1 0.30225123E+02</asrwt>
<pdfrwt beam="1">  1        1 0.82636725E+00 0.30000000E+03</pdfrwt>
<pdfrwt beam="2">0</pdfrwt>
<totfact> 0.65305056E-04</totfact>
</mgrwt>
<clustering>
<clus scale="   30.225">  1  6  2 -1</clus>
<clus scale="  456.343">  4  5 -1 -1</clus>
<clus scale="  300.000">  1  4  2 -1</clus>
</clustering>
</event>
<event>
 6    1  0.9480355E-012  0.3000000E+03  0.7818608E-02  0.1093470E+00
          1   -1    0    0  502    0  0.00000000000E+00  0.00000000000E+00  0.23015951899E+03  0.23015951899E+03  0.00000000000E+00 0.  1.
         13   -1    0    0    0    0 -0.00000000000E+00 -0.00000000000E+00 -0.27500000000E+03  0.27500000000E+03  0.00000000000E+00 0.  1.
    9000005    2    1    2  501    0 -0.24671539778E+02  0.25536412248E+02 -0.50322576138E+02  0.46923116539E+03  0.46517172278E+03 0.  0.
         13    1    3    3    0    0 -0.76088100053E+02 -0.20263178113E+03 -0.85479486249E+02  0.23271394514E+03  0.00000000000E+00 0.  1.
          3    1    3    3  501    0  0.51416560276E+02  0.22816819338E+03  0.35156910111E+02  0.23651722024E+03  0.00000000000E+00 0.  1.
         21    1    1    2  502  501  0.24671539778E+02 -0.25536412248E+02  0.54820951248E+01  0.35928353601E+02  0.00000000000E+00 0. -1.
<scales pt_clust_4="550.00000" pt_clust_5="550.00000" pt_clust_6="35.50765"></scales>
<mgrwt>
<rscale>  0 0.30000000E+03</rscale>
<asrwt>  1 0.35507650E+02</asrwt>
<pdfrwt beam="1">  1        1 0.83694371E+00 0.30000000E+03</pdfrwt>
<pdfrwt beam="2">0</pdfrwt>
<totfact> 0.52227644E-04</totfact>
</mgrwt>
<clustering>
<clus scale="   35.508">  1  6  2 -1</clus>
<clus scale="  465.172">  4  5 -1 -1</clus>
<clus scale="  300.000">  1  4  2 -1</clus>
</clustering>
</event>
<event>
 6    1  0.9480355E-012  0.3000000E+03  0.7818608E-02  0.1093470E+00
          1   -1    0    0  502    0  0.00000000000E+00  0.00000000000E+00  0.23881333065E+03  0.23881333065E+03  0.00000000000E+00 0.  1.
         13   -1    0    0    0    0 -0.00000000000E+00 -0.00000000000E+00 -0.27500000000E+03  0.27500000000E+03  0.00000000000E+00 0.  1.
    9000005    2    1    2  501    0 -0.91108017898E+01 -0.33847891674E+02 -0.38205611118E+02  0.47870261141E+03  0.47588636770E+03 0.  0.
         13    1    3    3    0    0  0.60410752323E+02  0.54641753776E+02  0.19961827817E+03  0.21559832381E+03  0.00000000000E+00 0.  1.
          1    1    3    3  501    0 -0.69521554112E+02 -0.88489645450E+02 -0.23782388928E+03  0.26310428760E+03  0.00000000000E+00 0.  1.
         21    1    1    2  502  501  0.91108017898E+01  0.33847891674E+02  0.20189417691E+01  0.35110719245E+02  0.00000000000E+00 0.  1.
<scales pt_clust_4="550.00000" pt_clust_5="550.00000" pt_clust_6="35.05262"></scales>
<mgrwt>
<rscale>  0 0.30000000E+03</rscale>
<asrwt>  1 0.35052624E+02</asrwt>
<pdfrwt beam="1">  1        1 0.86841211E+00 0.30000000E+03</pdfrwt>
<pdfrwt beam="2">0</pdfrwt>
<totfact> 0.26287546E-04</totfact>
</mgrwt>
<clustering>
<clus scale="   35.053">  1  6  2 -1</clus>
<clus scale="  475.886">  4  5 -1 -1</clus>
<clus scale="  300.000">  1  4  2 -1</clus>
</clustering>
</event>
<event>
 6    1  0.9480355E-012  0.3000000E+03  0.7818608E-02  0.1093470E+00
          1   -1    0    0  502    0  0.00000000000E+00  0.00000000000E+00  0.23913553897E+03  0.23913553897E+03  0.00000000000E+00 0.  1.
         13   -1    0    0    0    0 -0.00000000000E+00 -0.00000000000E+00 -0.27500000000E+03  0.27500000000E+03  0.00000000000E+00 0.  1.
    9000005    2    1    2  501    0  0.51972114551E+02 -0.32985593396E+01 -0.42227445559E+02  0.46167156317E+03  0.45677729135E+03 0.  0.
         13    1    3    3    0    0  0.75765511736E+01  0.21347086611E+03 -0.95652842013E+02  0.23404418598E+03  0.00000000000E+00 0.  1.
          1    1    3    3  501    0  0.44395563377E+02 -0.21676942545E+03  0.53425396454E+02  0.22762737719E+03  0.00000000000E+00 0.  1.
         21    1    1    2  502  501 -0.51972114551E+02  0.32985593396E+01  0.63629845264E+01  0.52463975799E+02  0.00000000000E+00 0.  1.
<scales pt_clust_4="550.00000" pt_clust_5="550.00000" pt_clust_6="52.07669"></scales>
<mgrwt>
<rscale>  0 0.30000000E+03</rscale>
<asrwt>  1 0.52076686E+02</asrwt>
<pdfrwt beam="1">  1        1 0.86958378E+00 0.30000000E+03</pdfrwt>
<pdfrwt beam="2">0</pdfrwt>
<totfact> 0.23805521E-04</totfact>
</mgrwt>
<clustering>
<clus scale="   52.077">  1  6  2 -1</clus>
<clus scale="  456.777">  4  5 -1 -1</clus>
<clus scale="  300.000">  1  4  2 -1</clus>
</clustering>
</event>
<event>
 6    1  0.9480355E-012  0.3000000E+03  0.7818608E-02  0.1093470E+00
          1   -1    0    0  502    0  0.00000000000E+00  0.00000000000E+00  0.23228998398E+03  0.23228998398E+03  0.00000000000E+00 0.  1.
         13   -1    0    0    0    0 -0.00000000000E+00 -0.00000000000E+00 -0.27500000000E+03  0.27500000000E+03  0.00000000000E+00 0.  1.
    9000005    2    1    2  501    0  0.21060953009E+02  0.31891769373E+02 -0.43688726731E+02  0.46905902048E+03  0.46545355424E+03 0.  0.
         13    1    3    3    0    0  0.21587301297E+03  0.11381224475E+03 -0.75258345603E+02  0.25537854915E+03  0.00000000000E+00 0.  1.
          1    1    3    3  501    0 -0.19481205996E+03 -0.81920475374E+02  0.31569618871E+02  0.21368047133E+03  0.00000000000E+00 0.  1.
         21    1    1    2  502  501 -0.21060953009E+02 -0.31891769373E+02  0.97871071376E+00  0.38230963498E+02  0.00000000000E+00 0.  1.
<scales pt_clust_4="550.00000" pt_clust_5="550.00000" pt_clust_6="38.21843"></scales>
<mgrwt>
<rscale>  0 0.30000000E+03</rscale>
<asrwt>  1 0.38218434E+02</asrwt>
<pdfrwt beam="1">  1        1 0.84469085E+00 0.30000000E+03</pdfrwt>
<pdfrwt beam="2">0</pdfrwt>
<totfact> 0.44727504E-04</totfact>
</mgrwt>
<clustering>
<clus scale="   38.218">  1  6  2 -1</clus>
<clus scale="  465.454">  4  5 -1 -1</clus>
<clus scale="  300.000">  1  4  2 -1</clus>
</clustering>
</event>
<event>
 6    1  0.9480355E-012  0.3000000E+03  0.7818608E-02  0.1093470E+00
          1   -1    0    0  502    0  0.00000000000E+00  0.00000000000E+00  0.23358816420E+03  0.23358816420E+03  0.00000000000E+00 0.  1.
         13   -1    0    0    0    0 -0.00000000000E+00 -0.00000000000E+00 -0.27500000000E+03  0.27500000000E+03  0.00000000000E+00 0.  1.
    9000005    2    1    2  501    0 -0.33571789201E+02 -0.33369704262E+01 -0.66141744036E+02  0.46675792678E+03  0.46081453048E+03 0.  0.
         13    1    3    3    0    0  0.85991202583E+02 -0.13633014197E+03 -0.19004445892E+03  0.24919328020E+03  0.00000000000E+00 0.  1.
          1    1    3    3  501    0 -0.11956299178E+03  0.13299317154E+03  0.12390271489E+03  0.21756464657E+03  0.00000000000E+00 0.  1.
         21    1    1    2  502  501  0.33571789201E+02  0.33369704262E+01  0.24729908240E+02  0.41830237429E+02  0.00000000000E+00 0.  1.
<scales pt_clust_4="550.00000" pt_clust_5="550.00000" pt_clust_6="33.73723"></scales>
<mgrwt>
<rscale>  0 0.30000000E+03</rscale>
<asrwt>  1 0.33737226E+02</asrwt>
<pdfrwt beam="1">  1        1 0.84941151E+00 0.30000000E+03</pdfrwt>
<pdfrwt beam="2">0</pdfrwt>
<totfact> 0.41502875E-04</totfact>
</mgrwt>
<clustering>
<clus scale="   33.737">  1  6  2 -1</clus>
<clus scale="  460.815">  4  5 -1 -1</clus>
<clus scale="  300.000">  1  4  2 -1</clus>
</clustering>
</event>
<event>
 6    1  0.9480355E-012  0.3000000E+03  0.7818608E-02  0.1093470E+00
          1   -1    0    0  502    0  0.00000000000E+00  0.00000000000E+00  0.23512037353E+03  0.23512037353E+03  0.00000000000E+00 0.  1.
         13   -1    0    0    0    0 -0.00000000000E+00 -0.00000000000E+00 -0.27500000000E+03  0.27500000000E+03  0.00000000000E+00 0.  1.
    9000005    2    1    2  501    0 -0.18762897518E+02 -0.25082767555E+02 -0.49984511208E+02  0.47720684672E+03  0.47354696879E+03 0.  0.
         13    1    3    3    0    0 -0.18295963552E+03 -0.12549628038E+02  0.13635769293E+03  0.22852820792E+03  0.00000000000E+00 0.  1.
          1    1    3    3  501    0  0.16419673800E+03 -0.12533139517E+02 -0.18634220414E+03  0.24867863881E+03  0.00000000000E+00 0.  1.
         21    1    1    2  502  501  0.18762897518E+02  0.25082767555E+02  0.10104884742E+02  0.32913526811E+02  0.00000000000E+00 0. -1.
<scales pt_clust_4="550.00000" pt_clust_5="550.00000" pt_clust_6="31.32398"></scales>
<mgrwt>
<rscale>  0 0.30000000E+03</rscale>
<asrwt>  1 0.31323977E+02</asrwt>
<pdfrwt beam="1">  1        1 0.85498318E+00 0.30000000E+03</pdfrwt>
<pdfrwt beam="2">0</pdfrwt>
<totfact> 0.37220021E-04</totfact>
</mgrwt>
<clustering>
<clus scale="   31.324">  1  6  2 -1</clus>
<clus scale="  473.547">  4  5 -1 -1</clus>
<clus scale="  300.000">  1  4  2 -1</clus>
</clustering>
</event>
<event>
 6    1  0.9480355E-012  0.3000000E+03  0.7818608E-02  0.1093470E+00
          1   -1    0    0  502    0  0.00000000000E+00  0.00000000000E+00  0.24489731490E+03  0.24489731490E+03  0.00000000000E+00 0.  1.
         13   -1    0    0    0    0 -0.00000000000E+00 -0.00000000000E+00 -0.27500000000E+03  0.27500000000E+03  0.00000000000E+00 0.  1.
    9000005    2    1    2  501    0 -0.19872074290E+01  0.31777167726E+02 -0.56922290383E+02  0.47826765468E+03  0.47379960426E+03 0.  0.
         13    1    3    3    0    0 -0.16479005892E+03  0.61320575147E+02 -0.19514096679E+03  0.26267084607E+03  0.00000000000E+00 0.  1.
          1    1    3    3  501    0  0.16280285149E+03 -0.29543407421E+02  0.13821867641E+03  0.21559680861E+03  0.00000000000E+00 0.  1.
         21    1    1    2  502  501  0.19872074290E+01 -0.31777167726E+02  0.26819605280E+02  0.41629660213E+02  0.00000000000E+00 0.  1.
<scales pt_clust_4="550.00000" pt_clust_5="550.00000" pt_clust_6="31.83924"></scales>
<mgrwt>
<rscale>  0 0.30000000E+03</rscale>
<asrwt>  1 0.31839243E+02</asrwt>
<pdfrwt beam="1">  1        1 0.89053569E+00 0.30000000E+03</pdfrwt>
<pdfrwt beam="2">0</pdfrwt>
<totfact> 0.14518349E-04</totfact>
</mgrwt>
<clustering>
<clus scale="   31.839">  1  6  2 -1</clus>
<clus scale="  473.800">  4  5 -1 -1</clus>
<clus scale="  300.000">  1  4  2 -1</clus>
</clustering>
</event>
<event>
 6    1  0.9480355E-012  0.3000000E+03  0.7818608E-02  0.1093470E+00
          1   -1    0    0  502    0  0.00000000000E+00  0.00000000000E+00  0.24156513635E+03  0.24156513635E+03  0.00000000000E+00 0.  1.
         13   -1    0    0    0    0 -0.00000000000E+00 -0.00000000000E+00 -0.27500000000E+03  0.27500000000E+03  0.00000000000E+00 0.  1.
    9000005    2    1    2  501    0 -0.38052236175E+02 -0.23503886932E+02 -0.62229856476E+02  0.46337155600E+03  0.45699041400E+03 0.  0.
         13    1    3    3    0    0  0.39359253286E+02 -0.22761425062E+03 -0.79752599052E+02  0.24437241039E+03  0.00000000000E+00 0.  1.
          1    1    3    3  501    0 -0.77411489461E+02  0.20411036369E+03  0.17522742576E+02  0.21899914560E+03  0.00000000000E+00 0.  1.
         21    1    1    2  502  501  0.38052236175E+02  0.23503886932E+02  0.28794992822E+02  0.53193580350E+02  0.00000000000E+00 0.  1.
<scales pt_clust_4="550.00000" pt_clust_5="550.00000" pt_clust_6="44.72589"></scales>
<mgrwt>
<rscale>  0 0.30000000E+03</rscale>
<asrwt>  1 0.44725892E+02</asrwt>
<pdfrwt beam="1">  1        1 0.87841868E+00 0.30000000E+03</pdfrwt>
<pdfrwt beam="2">0</pdfrwt>
<totfact> 0.19714754E-04</totfact>
</mgrwt>
<clustering>
<clus scale="   44.726">  1  6  2 -1</clus>
<clus scale="  456.990">  4  5 -1 -1</clus>
<clus scale="  300.000">  1  4  2 -1</clus>
</clustering>
</event>
<event>
 6    1  0.9480355E-012  0.3000000E+03  0.7818608E-02  0.1093470E+00
          1   -1    0    0  502    0  0.00000000000E+00  0.00000000000E+00  0.23769239473E+03  0.23769239473E+03  0.00000000000E+00 0.  1.
         13   -1    0    0    0    0 -0.00000000000E+00 -0.00000000000E+00 -0.27500000000E+03  0.27500000000E+03  0.00000000000E+00 0.  1.
    9000005    2    1    2  501    0 -0.13682607792E+02 -0.33187448246E+02 -0.65024883618E+02  0.46733968813E+03  0.46139953200E+03 0.  0.
         13    1    3    3    0    0 -0.20458432772E+03 -0.44098247739E+02 -0.15061416262E+03  0.25784497006E+03  0.00000000000E+00 0.  1.
          1    1    3    3  501    0  0.19090171993E+03  0.10910799493E+02  0.85589279002E+02  0.20949471807E+03  0.00000000000E+00 0.  1.
         21    1    1    2  502  501  0.13682607792E+02  0.33187448246E+02  0.27717278348E+02  0.45352706602E+02  0.00000000000E+00 0. -1.
<scales pt_clust_4="550.00000" pt_clust_5="550.00000" pt_clust_6="35.89736"></scales>
<mgrwt>
<rscale>  0 0.30000000E+03</rscale>
<asrwt>  1 0.35897360E+02</asrwt>
<pdfrwt beam="1">  1        1 0.86433598E+00 0.30000000E+03</pdfrwt>
<pdfrwt beam="2">0</pdfrwt>
<totfact> 0.28908101E-04</totfact>
</mgrwt>
<clustering>
<clus scale="   35.897">  1  6  2 -1</clus>
<clus scale="  461.400">  4  5 -1 -1</clus>
<clus scale="  300.000">  1  4  2 -1</clus>
</clustering>
</event>
<event>
 6    1  0.9480355E-012  0.3000000E+03  0.7818608E-02  0.1093470E+00
          1   -1    0    0  502    0  0.00000000000E+00  0.00000000000E+00  0.24105789482E+03  0.24105789482E+03  0.00000000000E+00 0.  1.
         13   -1    0    0    0    0 -0.00000000000E+00 -0.00000000000E+00 -0.27500000000E+03  0.27500000000E+03  0.00000000000E+00 0.  1.
    9000005    2    1    2  501    0 -0.24122326841E+02 -0.29419656754E+02 -0.20740408472E+02  0.47578771167E+03  0.47381048867E+03 0.  0.
         13    1    3    3    0    0  0.15998994331E+03 -0.63371994731E+02  0.14554972880E+03  0.22538304113E+03  0.00000000000E+00 0.  1.
          1    1    3    3  501    0 -0.18411227015E+03  0.33952337977E+02 -0.16629013727E+03  0.25040467054E+03  0.00000000000E+00 0.  1.
         21    1    1    2  502  501  0.24122326841E+02  0.29419656754E+02 -0.13201696704E+02  0.40270183158E+02  0.00000000000E+00 0.  1.
<scales pt_clust_4="550.00000" pt_clust_5="550.00000" pt_clust_6="38.04477"></scales>
<mgrwt>
<rscale>  0 0.30000000E+03</rscale>
<asrwt>  1 0.38044767E+02</asrwt>
<pdfrwt beam="1">  1        1 0.87657416E+00 0.30000000E+03</pdfrwt>
<pdfrwt beam="2">0</pdfrwt>
<totfact> 0.21299654E-04</totfact>
</mgrwt>
<clustering>
<clus scale="   38.045">  1  6  2 -1</clus>
<clus scale="  473.810">  4  5 -1 -1</clus>
<clus scale="  300.000">  1  4  2 -1</clus>
</clustering>
</event>
<event>
 6    1  0.9480355E-012  0.3000000E+03  0.7818608E-02  0.1093470E+00
          1   -1    0    0  502    0  0.00000000000E+00  0.00000000000E+00  0.23322859074E+03  0.23322859074E+03  0.00000000000E+00 0.  1.
         13   -1    0    0    0    0 -0.00000000000E+00 -0.00000000000E+00 -0.27500000000E+03  0.27500000000E+03  0.00000000000E+00 0.  1.
    9000005    2    1    2  501    0  0.14481023163E+02 -0.31514055113E+02 -0.65690032377E+02  0.46609859865E+03  0.46014116053E+03 0.  0.
         13    1    3    3    0    0 -0.16153193643E+03  0.67528203252E+02 -0.16540772270E+03  0.24085750860E+03  0.00000000000E+00 0.  1.
          1    1    3    3  501    0  0.17601295959E+03 -0.99042258366E+02  0.99717690321E+02  0.22524109005E+03  0.00000000000E+00 0.  1.
         21    1    1    2  502  501 -0.14481023163E+02  0.31514055113E+02  0.23918623122E+02  0.42129992091E+02  0.00000000000E+00 0. -1.
<scales pt_clust_4="550.00000" pt_clust_5="550.00000" pt_clust_6="34.68192"></scales>
<mgrwt>
<rscale>  0 0.30000000E+03</rscale>
<asrwt>  1 0.34681922E+02</asrwt>
<pdfrwt beam="1">  1        1 0.84810397E+00 0.30000000E+03</pdfrwt>
<pdfrwt beam="2">0</pdfrwt>
<totfact> 0.42453192E-04</totfact>
</mgrwt>
<clustering>
<clus scale="   34.682">  1  6  2 -1</clus>
<clus scale="  460.141">  4  5 -1 -1</clus>
<clus scale="  300.000">  1  4  2 -1</clus>
</clustering>
</event>
<event>
 6    1  0.9480355E-012  0.3000000E+03  0.7818608E-02  0.1093470E+00
          1   -1    0    0  502    0  0.00000000000E+00  0.00000000000E+00  0.22430763041E+03  0.22430763041E+03  0.00000000000E+00 0.  1.
         13   -1    0    0    0    0 -0.00000000000E+00 -0.00000000000E+00 -0.27500000000E+03  0.27500000000E+03  0.00000000000E+00 0.  1.
    9000005    2    1    2  501    0  0.30660676950E+02  0.25076868125E-01 -0.62536227439E+02  0.46643888068E+03  0.46120968325E+03 0.  0.
         13    1    3    3    0    0  0.13058376974E+03  0.60258937653E+02 -0.22462810219E+03  0.26672278639E+03  0.00000000000E+00 0.  1.
          1    1    3    3  501    0 -0.99923092785E+02 -0.60233860785E+02  0.16209187475E+03  0.19971609429E+03  0.00000000000E+00 0.  1.
         21    1    1    2  502  501 -0.30660676950E+02 -0.25076868125E-01  0.11843857846E+02  0.32868749726E+02  0.00000000000E+00 0.  1.
<scales pt_clust_4="550.00000" pt_clust_5="550.00000" pt_clust_6="30.66069"></scales>
<mgrwt>
<rscale>  0 0.30000000E+03</rscale>
<asrwt>  1 0.30660687E+02</asrwt>
<pdfrwt beam="1">  1        1 0.81566411E+00 0.30000000E+03</pdfrwt>
<pdfrwt beam="2">0</pdfrwt>
<totfact> 0.80619305E-04</totfact>
</mgrwt>
<clustering>
<clus scale="   30.661">  1  6  2 -1</clus>
<clus scale="  461.210">  4  5 -1 -1</clus>
<clus scale="  300.000">  1  4  2 -1</clus>
</clustering>
</event>
<event>
 6    1  0.9480355E-012  0.3000000E+03  0.7818608E-02  0.1093470E+00
          1   -1    0    0  502    0  0.00000000000E+00  0.00000000000E+00  0.25812308535E+03  0.25812308535E+03  0.00000000000E+00 0.  1.
         13   -1    0    0    0    0 -0.00000000000E+00 -0.00000000000E+00 -0.27500000000E+03  0.27500000000E+03  0.00000000000E+00 0.  1.
    9000005    2    1    2  501    0  0.35766548267E+02  0.67160914261E+01 -0.48868331989E+02  0.48466895609E+03  0.48082380481E+03 0.  0.
         13    1    3    3    0    0  0.88312055295E+02 -0.16400941294E+03 -0.18312316953E+03  0.26121294352E+03  0.00000000000E+00 0.  1.
          3    1    3    3  501    0 -0.52545507028E+02  0.17072550437E+03  0.13425483754E+03  0.22345601257E+03  0.00000000000E+00 0.  1.
         21    1    1    2  502  501 -0.35766548267E+02 -0.67160914261E+01  0.31991417342E+02  0.48454129262E+02  0.00000000000E+00 0.  1.
<scales pt_clust_4="550.00000" pt_clust_5="550.00000" pt_clust_6="36.39165"></scales>
<mgrwt>
<rscale>  0 0.30000000E+03</rscale>
<asrwt>  1 0.36391645E+02</asrwt>
<pdfrwt beam="1">  1        1 0.93862940E+00 0.30000000E+03</pdfrwt>
<pdfrwt beam="2">0</pdfrwt>
<totfact> 0.20024308E-05</totfact>
</mgrwt>
<clustering>
<clus scale="   36.392">  1  6  2 -1</clus>
<clus scale="  480.824">  4  5 -1 -1</clus>
<clus scale="  300.000">  1  4  2 -1</clus>
</clustering>
</event>
<event>
 6    1  0.9480355E-012  0.3000000E+03  0.7818608E-02  0.1093470E+00
          1   -1    0    0  502    0  0.00000000000E+00  0.00000000000E+00  0.23722717594E+03  0.23722717594E+03  0.00000000000E+00 0.  1.
         13   -1    0    0    0    0 -0.00000000000E+00 -0.00000000000E+00 -0.27500000000E+03  0.27500000000E+03  0.00000000000E+00 0.  1.
    9000005    2    1    2  501    0 -0.21729821071E+02 -0.22814336212E+02 -0.66118476993E+02  0.46984610586E+03  0.46410239294E+03 0.  0.
         13    1    3    3    0    0 -0.62681263408E+02 -0.16210757672E+03  0.13620736809E+03  0.22081724193E+03  0.00000000000E+00 0.  1.
          1    1    3    3  501    0  0.40951442337E+02  0.13929324051E+03 -0.20232584509E+03  0.24902886393E+03  0.00000000000E+00 0.  1.
         21    1    1    2  502  501  0.21729821071E+02  0.22814336212E+02  0.28345652934E+02  0.42381070076E+02  0.00000000000E+00 0.  1.
<scales pt_clust_4="550.00000" pt_clust_5="550.00000" pt_clust_6="31.50681"></scales>
<mgrwt>
<rscale>  0 0.30000000E+03</rscale>
<asrwt>  1 0.31506810E+02</asrwt>
<pdfrwt beam="1">  1        1 0.86264428E+00 0.30000000E+03</pdfrwt>
<pdfrwt beam="2">0</pdfrwt>
<totfact> 0.30902557E-04</totfact>
</mgrwt>
<clustering>
<clus scale="   31.507">  1  6  2 -1</clus>
<clus scale="  464.102">  4  5 -1 -1</clus>
<clus scale="  300.000">  1  4  2 -1</clus>
</clustering>
</event>
<event>
 6    1  0.9480355E-012  0.3000000E+03  0.7818608E-02  0.1093470E+00
          1   -1    0    0  502    0  0.00000000000E+00  0.00000000000E+00  0.24078292312E+03  0.24078292312E+03  0.00000000000E+00 0.  1.
         13   -1    0    0    0    0 -0.00000000000E+00 -0.00000000000E+00 -0.27500000000E+03  0.27500000000E+03  0.00000000000E+00 0.  1.
    9000005    2    1    2  501    0 -0.33295487764E+02 -0.70397188643E+01 -0.70736937917E+02  0.46586451572E+03  0.45920353382E+03 0.  0.
         13    1    3    3    0    0 -0.39888004020E+02 -0.21347730158E+03  0.55040816642E+02  0.22403817231E+03  0.00000000000E+00 0.  1.
          3    1    3    3  501    0  0.65925162559E+01  0.20643758271E+03 -0.12577775456E+03  0.24182634341E+03  0.00000000000E+00 0.  1.
         21    1    1    2  502  501  0.33295487764E+02  0.70397188643E+01  0.36519861041E+02  0.49918407402E+02  0.00000000000E+00 0. -1.
<scales pt_clust_4="550.00000" pt_clust_5="550.00000" pt_clust_6="34.03156"></scales>
<mgrwt>
<rscale>  0 0.30000000E+03</rscale>
<asrwt>  1 0.34031561E+02</asrwt>
<pdfrwt beam="1">  1        1 0.87557427E+00 0.30000000E+03</pdfrwt>
<pdfrwt beam="2">0</pdfrwt>
<totfact> 0.22295459E-04</totfact>
</mgrwt>
<clustering>
<clus scale="   34.032">  1  6  2 -1</clus>
<clus scale="  459.204">  4  5 -1 -1</clus>
<clus scale="  300.000">  1  4  2 -1</clus>
</clustering>
</event>
<event>
 6    1  0.9480355E-012  0.3000000E+03  0.7818608E-02  0.1093470E+00
          1   -1    0    0  502    0  0.00000000000E+00  0.00000000000E+00  0.25132273113E+03  0.25132273113E+03  0.00000000000E+00 0.  1.
         13   -1    0    0    0    0 -0.00000000000E+00 -0.00000000000E+00 -0.27500000000E+03  0.27500000000E+03  0.00000000000E+00 0.  1.
    9000005    2    1    2  501    0  0.44605077642E+02  0.28519058742E+02 -0.55863862895E+02  0.46436365998E+03  0.45794092181E+03 0.  0.
         13    1    3    3    0    0 -0.39389205629E+02 -0.19036846681E+03  0.59179553933E+02  0.20320896211E+03  0.00000000000E+00 0.  1.
          3    1    3    3  501    0  0.83994283271E+02  0.21888752556E+03 -0.11504341683E+03  0.26115469787E+03  0.00000000000E+00 0.  1.
         21    1    1    2  502  501 -0.44605077642E+02 -0.28519058742E+02  0.32186594027E+02  0.61959071152E+02  0.00000000000E+00 0. -1.
<scales pt_clust_4="550.00000" pt_clust_5="550.00000" pt_clust_6="52.94289"></scales>
<mgrwt>
<rscale>  0 0.30000000E+03</rscale>
<asrwt>  1 0.52942891E+02</asrwt>
<pdfrwt beam="1">  1        1 0.91390084E+00 0.30000000E+03</pdfrwt>
<pdfrwt beam="2">0</pdfrwt>
<totfact> 0.53373528E-05</totfact>
</mgrwt>
<clustering>
<clus scale="   52.943">  1  6  2 -1</clus>
<clus scale="  457.941">  4  5 -1 -1</clus>
<clus scale="  300.000">  1  4  2 -1</clus>
</clustering>
</event>
<event>
 6    1  0.9480355E-012  0.3000000E+03  0.7818608E-02  0.1093470E+00
          1   -1    0    0  502    0  0.00000000000E+00  0.00000000000E+00  0.23839234713E+03  0.23839234713E+03  0.00000000000E+00 0.  1.
         13   -1    0    0    0    0 -0.00000000000E+00 -0.00000000000E+00 -0.27500000000E+03  0.27500000000E+03  0.00000000000E+00 0.  1.
    9000005    2    1    2  501    0  0.93481262615E+01  0.49231372780E+02 -0.37722352501E+02  0.46326891862E+03  0.45900326747E+03 0.  0.
         13    1    3    3    0    0  0.52173883731E+02 -0.18740479423E+02 -0.23963321622E+03  0.24596218821E+03  0.00000000000E+00 0.  1.
          3    1    3    3  501    0 -0.42825757470E+02  0.67971852203E+02  0.20191086372E+03  0.21730673041E+03  0.00000000000E+00 0.  1.
         21    1    1    2  502  501 -0.93481262615E+01 -0.49231372780E+02  0.11146996326E+01  0.50123428511E+02  0.00000000000E+00 0.  1.
<scales pt_clust_4="550.00000" pt_clust_5="550.00000" pt_clust_6="50.11103"></scales>
<mgrwt>
<rscale>  0 0.30000000E+03</rscale>
<asrwt>  1 0.50111032E+02</asrwt>
<pdfrwt beam="1">  1        1 0.86688126E+00 0.30000000E+03</pdfrwt>
<pdfrwt beam="2">0</pdfrwt>
<totfact> 0.25564066E-04</totfact>
</mgrwt>
<clustering>
<clus scale="   50.111">  1  6  2 -1</clus>
<clus scale="  459.003">  4  5 -1 -1</clus>
<clus scale="  300.000">  1  4  2 -1</clus>
</clustering>
</event>
<event>
 6    1  0.9480355E-012  0.3000000E+03  0.7818608E-02  0.1093470E+00
          1   -1    0    0  502    0  0.00000000000E+00  0.00000000000E+00  0.22843180783E+03  0.22843180783E+03  0.00000000000E+00 0.  1.
         13   -1    0    0    0    0 -0.00000000000E+00 -0.00000000000E+00 -0.27500000000E+03  0.27500000000E+03  0.00000000000E+00 0.  1.
    9000005    2    1    2  501    0  0.13230989650E+02 -0.30581646070E+02 -0.20366382310E+02  0.46104276439E+03  0.45938583447E+03 0.  0.
         13    1    3    3    0    0  0.46886208462E+02  0.13308731168E+03 -0.18083591673E+03  0.22937344627E+03  0.00000000000E+00 0.  1.
          3    1    3    3  501    0 -0.33655218812E+02 -0.16366895775E+03  0.16046953442E+03  0.23166931812E+03  0.00000000000E+00 0.  1.
         21    1    1    2  502  501 -0.13230989650E+02  0.30581646070E+02 -0.26201809860E+02  0.42389043436E+02  0.00000000000E+00 0. -1.
<scales pt_clust_4="550.00000" pt_clust_5="550.00000" pt_clust_6="33.32112"></scales>
<mgrwt>
<rscale>  0 0.30000000E+03</rscale>
<asrwt>  1 0.33321124E+02</asrwt>
<pdfrwt beam="1">  1        1 0.83066112E+00 0.30000000E+03</pdfrwt>
<pdfrwt beam="2">0</pdfrwt>
<totfact> 0.58913434E-04</totfact>
</mgrwt>
<clustering>
<clus scale="   33.321">  1  6  2 -1</clus>
<clus scale="  459.386">  4  5 -1 -1</clus>
<clus scale="  300.000">  1  4  2 -1</clus>
</clustering>
</event>
<event>
 6    1  0.9480355E-012  0.3000000E+03  0.7818608E-02  0.1093470E+00
          1   -1    0    0  502    0  0.00000000000E+00  0.00000000000E+00  0.23424271051E+03  0.23424271051E+03  0.00000000000E+00 0.  1.
         13   -1    0    0    0    0 -0.00000000000E+00 -0.00000000000E+00 -0.27500000000E+03  0.27500000000E+03  0.00000000000E+00 0.  1.
    9000005    2    1    2  501    0 -0.11422895774E+02 -0.28112099637E+02 -0.71688395883E+02  0.46591251276E+03  0.45936311427E+03 0.  0.
         13    1    3    3    0    0  0.22134051171E+03 -0.46751167001E+02 -0.47476459576E+02  0.23115213162E+03  0.00000000000E+00 0.  1.
          3    1    3    3  501    0 -0.23276340748E+03  0.18639067364E+02 -0.24211936307E+02  0.23476038114E+03  0.00000000000E+00 0.  1.
         21    1    1    2  502  501  0.11422895774E+02  0.28112099637E+02  0.30931106389E+02  0.43330197741E+02  0.00000000000E+00 0. -1.
<scales pt_clust_4="550.00000" pt_clust_5="550.00000" pt_clust_6="30.34424"></scales>
<mgrwt>
<rscale>  0 0.30000000E+03</rscale>
<asrwt>  1 0.30344237E+02</asrwt>
<pdfrwt beam="1">  1        1 0.85179167E+00 0.30000000E+03</pdfrwt>
<pdfrwt beam="2">0</pdfrwt>
<totfact> 0.40212410E-04</totfact>
</mgrwt>
<clustering>
<clus scale="   30.344">  1  6  2 -1</clus>
<clus scale="  459.363">  4  5 -1 -1</clus>
<clus scale="  300.000">  1  4  2 -1</clus>
</clustering>
</event>
<event>
 6    1  0.9480355E-012  0.3000000E+03  0.7818608E-02  0.1093470E+00
          1   -1    0    0  502    0  0.00000000000E+00  0.00000000000E+00  0.23188568426E+03  0.23188568426E+03  0.00000000000E+00 0.  1.
         13   -1    0    0    0    0 -0.00000000000E+00 -0.00000000000E+00 -0.27500000000E+03  0.27500000000E+03  0.00000000000E+00 0.  1.
    9000005    2    1    2  501    0  0.23366298597E+02 -0.29091843966E+02 -0.40331640935E+02  0.46946827421E+03  0.46624188994E+03 0.  0.
         13    1    3    3    0    0  0.66146601968E+02 -0.19355415695E+03 -0.16161846117E+03  0.26068968452E+03  0.00000000000E+00 0.  1.
          1    1    3    3  501    0 -0.42780303371E+02  0.16446231299E+03  0.12128682024E+03  0.20877858969E+03  0.00000000000E+00 0.  1.
         21    1    1    2  502  501 -0.23366298597E+02  0.29091843966E+02 -0.27826748091E+01  0.37417410046E+02  0.00000000000E+00 0.  1.
<scales pt_clust_4="550.00000" pt_clust_5="550.00000" pt_clust_6="37.31379"></scales>
<mgrwt>
<rscale>  0 0.30000000E+03</rscale>
<asrwt>  1 0.37313795E+02</asrwt>
<pdfrwt beam="1">  1        1 0.84322067E+00 0.30000000E+03</pdfrwt>
<pdfrwt beam="2">0</pdfrwt>
<totfact> 0.46249338E-04</totfact>
</mgrwt>
<clustering>
<clus scale="   37.314">  1  6  2 -1</clus>
<clus scale="  466.242">  4  5 -1 -1</clus>
<clus scale="  300.000">  1  4  2 -1</clus>
</clustering>
</event>
<event>
 6    1  0.9480355E-012  0.3000000E+03  0.7818608E-02  0.1093470E+00
          1   -1    0    0  502    0  0.00000000000E+00  0.00000000000E+00  0.23814504025E+03  0.23814504025E+03  0.00000000000E+00 0.  1.
         13   -1    0    0    0    0 -0.00000000000E+00 -0.00000000000E+00 -0.27500000000E+03  0.27500000000E+03  0.00000000000E+00 0.  1.
    9000005    2    1    2  501    0 -0.39565699762E+02 -0.33970658448E+01 -0.63285158568E+02  0.46544241911E+03  0.45940684536E+03 0.  0.
         13    1    3    3    0    0 -0.14743247536E+03 -0.12300307090E+03 -0.18262429588E+03  0.26498627075E+03  0.00000000000E+00 0.  1.
          1    1    3    3  501    0  0.10786677559E+03  0.11960600505E+03  0.11933913731E+03  0.20045614836E+03  0.00000000000E+00 0.  1.
         21    1    1    2  502  501  0.39565699762E+02  0.33970658448E+01  0.26430198823E+02  0.47702621142E+02  0.00000000000E+00 0.  1.
<scales pt_clust_4="550.00000" pt_clust_5="550.00000" pt_clust_6="39.71127"></scales>
<mgrwt>
<rscale>  0 0.30000000E+03</rscale>
<asrwt>  1 0.39711266E+02</asrwt>
<pdfrwt beam="1">  1        1 0.86598196E+00 0.30000000E+03</pdfrwt>
<pdfrwt beam="2">0</pdfrwt>
<totfact> 0.27242468E-04</totfact>
</mgrwt>
<clustering>
<clus scale="   39.711">  1  6  2 -1</clus>
<clus scale="  459.407">  4  5 -1 -1</clus>
<clus scale="  300.000">  1  4  2 -1</clus>
</clustering>
</event>
<event>
 6    1  0.9480355E-012  0.3000000E+03  0.7818608E-02  0.1093470E+00
          1   -1    0    0  502    0  0.00000000000E+00  0.00000000000E+00  0.23777268227E+03  0.23777268227E+03  0.00000000000E+00 0.  1.
         13   -1    0    0    0    0 -0.00000000000E+00 -0.00000000000E+00 -0.27500000000E+03  0.27500000000E+03  0.00000000000E+00 0.  1.
    9000005    2    1    2  501    0  0.52108508645E+01 -0.36471270234E+02 -0.56871436066E+02  0.47102106069E+03  0.46612141429E+03 0.  0.
         13    1    3    3    0    0  0.17821671326E+03  0.11848662819E+03 -0.97609965403E+02  0.23521901133E+03  0.00000000000E+00 0.  1.
          3    1    3    3  501    0 -0.17300586240E+03 -0.15495789842E+03  0.40738529337E+02  0.23580204936E+03  0.00000000000E+00 0.  1.
         21    1    1    2  502  501 -0.52108508645E+01  0.36471270234E+02  0.19644118336E+02  0.41751621579E+02  0.00000000000E+00 0. -1.
<scales pt_clust_4="550.00000" pt_clust_5="550.00000" pt_clust_6="36.84164"></scales>
<mgrwt>
<rscale>  0 0.30000000E+03</rscale>
<asrwt>  1 0.36841641E+02</asrwt>
<pdfrwt beam="1">  1        1 0.86462794E+00 0.30000000E+03</pdfrwt>
<pdfrwt beam="2">0</pdfrwt>
<totfact> 0.28561042E-04</totfact>
</mgrwt>
<clustering>
<clus scale="   36.842">  1  6  2 -1</clus>
<clus scale="  466.121">  4  5 -1 -1</clus>
<clus scale="  300.000">  1  4  2 -1</clus>
</clustering>
</event>
<event>
 6    1  0.9480355E-012  0.3000000E+03  0.7818608E-02  0.1093470E+00
          1   -1    0    0  502    0  0.00000000000E+00  0.00000000000E+00  0.23984600529E+03  0.23984600529E+03  0.00000000000E+00 0.  1.
         13   -1    0    0    0    0 -0.00000000000E+00 -0.00000000000E+00 -0.27500000000E+03  0.27500000000E+03  0.00000000000E+00 0.  1.
    9000005    2    1    2  501    0  0.36642820360E+02 -0.20057730880E+02 -0.61364578200E+02  0.46553065739E+03  0.45957390337E+03 0.  0.
         13    1    3    3    0    0 -0.11221013757E+03 -0.19901809725E+03 -0.37618455821E+02  0.23154797823E+03  0.00000000000E+00 0.  1.
          3    1    3    3  501    0  0.14885295793E+03  0.17896036637E+03 -0.23746122379E+02  0.23398267915E+03  0.00000000000E+00 0.  1.
         21    1    1    2  502  501 -0.36642820360E+02  0.20057730880E+02  0.26210583492E+02  0.49315347905E+02  0.00000000000E+00 0.  1.
<scales pt_clust_4="550.00000" pt_clust_5="550.00000" pt_clust_6="41.77330"></scales>
<mgrwt>
<rscale>  0 0.30000000E+03</rscale>
<asrwt>  1 0.41773303E+02</asrwt>
<pdfrwt beam="1">  1        1 0.87216729E+00 0.30000000E+03</pdfrwt>
<pdfrwt beam="2">0</pdfrwt>
<totfact> 0.23295935E-04</totfact>
</mgrwt>
<clustering>
<clus scale="   41.773">  1  6  2 -1</clus>
<clus scale="  459.574">  4  5 -1 -1</clus>
<clus scale="  300.000">  1  4  2 -1</clus>
</clustering>
</event>
<event>
 6    1  0.9480355E-012  0.3000000E+03  0.7818608E-02  0.1093470E+00
          1   -1    0    0  502    0  0.00000000000E+00  0.00000000000E+00  0.23160158005E+03  0.23160158005E+03  0.00000000000E+00 0.  1.
         13   -1    0    0    0    0 -0.00000000000E+00 -0.00000000000E+00 -0.27500000000E+03  0.27500000000E+03  0.00000000000E+00 0.  1.
    9000005    2    1    2  501    0  0.17510857460E+02  0.30893269845E+02 -0.58719913097E+02  0.46792636314E+03  0.46286718276E+03 0.  0.
         13    1    3    3    0    0  0.21207623221E+03  0.69980093468E+02 -0.12838993651E+03  0.25759952940E+03  0.00000000000E+00 0.  1.
          3    1    3    3  501    0 -0.19456537475E+03 -0.39086823623E+02  0.69670023408E+02  0.21032683375E+03  0.00000000000E+00 0.  1.
         21    1    1    2  502  501 -0.17510857460E+02 -0.30893269845E+02  0.15321493148E+02  0.38675216910E+02  0.00000000000E+00 0. -1.
<scales pt_clust_4="550.00000" pt_clust_5="550.00000" pt_clust_6="35.51090"></scales>
<mgrwt>
<rscale>  0 0.30000000E+03</rscale>
<asrwt>  1 0.35510903E+02</asrwt>
<pdfrwt beam="1">  1        1 0.84218756E+00 0.30000000E+03</pdfrwt>
<pdfrwt beam="2">0</pdfrwt>
<totfact> 0.47616501E-04</totfact>
</mgrwt>
<clustering>
<clus scale="   35.511">  1  6  2 -1</clus>
<clus scale="  462.867">  4  5 -1 -1</clus>
<clus scale="  300.000">  1  4  2 -1</clus>
</clustering>
</event>
<event>
 6    1  0.9480355E-012  0.3000000E+03  0.7818608E-02  0.1093470E+00
          1   -1    0    0  502    0  0.00000000000E+00  0.00000000000E+00  0.22949662027E+03  0.22949662027E+03  0.00000000000E+00 0.  1.
         13   -1    0    0    0    0 -0.00000000000E+00 -0.00000000000E+00 -0.27500000000E+03  0.27500000000E+03  0.00000000000E+00 0.  1.
    9000005    2    1    2  501    0 -0.14206862307E+02  0.35017733093E+02 -0.35794835493E+02  0.46547954197E+03  0.46256011196E+03 0.  0.
         13    1    3    3    0    0  0.73807345258E+02 -0.51990076542E+02 -0.22327351704E+03  0.24083512137E+03  0.00000000000E+00 0.  1.
          1    1    3    3  501    0 -0.88014207565E+02  0.87007809635E+02  0.18747868155E+03  0.22464442060E+03  0.00000000000E+00 0.  1.
         21    1    1    2  502  501  0.14206862307E+02 -0.35017733093E+02 -0.97085442405E+01  0.39017078298E+02  0.00000000000E+00 0.  1.
<scales pt_clust_4="550.00000" pt_clust_5="550.00000" pt_clust_6="37.78992"></scales>
<mgrwt>
<rscale>  0 0.30000000E+03</rscale>
<asrwt>  1 0.37789919E+02</asrwt>
<pdfrwt beam="1">  1        1 0.83453316E+00 0.30000000E+03</pdfrwt>
<pdfrwt beam="2">0</pdfrwt>
<totfact> 0.53754969E-04</totfact>
</mgrwt>
<clustering>
<clus scale="   37.790">  1  6  2 -1</clus>
<clus scale="  462.560">  4  5 -1 -1</clus>
<clus scale="  300.000">  1  4  2 -1</clus>
</clustering>
</event>
<event>
 6    1  0.9480355E-012  0.3000000E+03  0.7818608E-02  0.1093470E+00
          1   -1    0    0  502    0  0.00000000000E+00  0.00000000000E+00  0.26358022295E+03  0.26358022295E+03  0.00000000000E+00 0.  1.
         13   -1    0    0    0    0 -0.00000000000E+00 -0.00000000000E+00 -0.27500000000E+03  0.27500000000E+03  0.00000000000E+00 0.  1.
    9000005    2    1    2  501    0 -0.24908309086E+02  0.38778404513E+02 -0.22198521365E+02  0.49124767762E+03  0.48857682907E+03 0.  0.
         13    1    3    3    0    0  0.11916879617E+03  0.14982830801E+03 -0.17064615090E+03  0.25645629780E+03  0.00000000000E+00 0.  1.
          1    1    3    3  501    0 -0.14407710525E+03 -0.11104990350E+03  0.14844762954E+03  0.23479137983E+03  0.00000000000E+00 0.  1.
         21    1    1    2  502  501  0.24908309086E+02 -0.38778404513E+02  0.10778744315E+02  0.47332545327E+02  0.00000000000E+00 0.  1.
<scales pt_clust_4="550.00000" pt_clust_5="550.00000" pt_clust_6="46.08892"></scales>
<mgrwt>
<rscale>  0 0.30000000E+03</rscale>
<asrwt>  1 0.46088920E+02</asrwt>
<pdfrwt beam="1">  1        1 0.95847354E+00 0.30000000E+03</pdfrwt>
<pdfrwt beam="2">0</pdfrwt>
<totfact> 0.77809056E-06</totfact>
</mgrwt>
<clustering>
<clus scale="   46.089">  1  6  2 -1</clus>
<clus scale="  488.577">  4  5 -1 -1</clus>
<clus scale="  300.000">  1  4  2 -1</clus>
</clustering>
</event>
<event>
 6    1  0.9480355E-012  0.3000000E+03  0.7818608E-02  0.1093470E+00
          1   -1    0    0  502    0  0.00000000000E+00  0.00000000000E+00  0.24490198924E+03  0.24490198924E+03  0.00000000000E+00 0.  1.
         13   -1    0    0    0    0 -0.00000000000E+00 -0.00000000000E+00 -0.27500000000E+03  0.27500000000E+03  0.00000000000E+00 0.  1.
    9000005    2    1    2  501    0 -0.13150751110E+02 -0.28578031944E+02 -0.30685957954E+02  0.48843785336E+03  0.48645684538E+03 0.  0.
         13    1    3    3    0    0  0.19246913137E+03 -0.47348364397E+02 -0.15126422934E+03  0.24933331350E+03  0.00000000000E+00 0.  1.
          1    1    3    3  501    0 -0.20561988248E+03  0.18770332452E+02  0.12057827138E+03  0.23910453986E+03  0.00000000000E+00 0.  1.
         21    1    1    2  502  501  0.13150751110E+02  0.28578031944E+02  0.58794718986E+00  0.31464135877E+02  0.00000000000E+00 0.  1.
<scales pt_clust_4="550.00000" pt_clust_5="550.00000" pt_clust_6="31.45864"></scales>
<mgrwt>
<rscale>  0 0.30000000E+03</rscale>
<asrwt>  1 0.31458642E+02</asrwt>
<pdfrwt beam="1">  1        1 0.89055269E+00 0.30000000E+03</pdfrwt>
<pdfrwt beam="2">0</pdfrwt>
<totfact> 0.14544208E-04</totfact>
</mgrwt>
<clustering>
<clus scale="   31.459">  1  6  2 -1</clus>
<clus scale="  486.457">  4  5 -1 -1</clus>
<clus scale="  300.000">  1  4  2 -1</clus>
</clustering>
</event>
<event>
 6    1  0.9480355E-012  0.3000000E+03  0.7818608E-02  0.1093470E+00
          1   -1    0    0  502    0  0.00000000000E+00  0.00000000000E+00  0.24956791997E+03  0.24956791997E+03  0.00000000000E+00 0.  1.
         13   -1    0    0    0    0 -0.00000000000E+00 -0.00000000000E+00 -0.27500000000E+03  0.27500000000E+03  0.00000000000E+00 0.  1.
    9000005    2    1    2  501    0  0.38181941558E+02  0.74116391241E+01 -0.44326533367E+02  0.48132681195E+03  0.47770060215E+03 0.  0.
         13    1    3    3    0    0 -0.73005921297E+02 -0.29889304619E+01 -0.24282030722E+03  0.25357543226E+03  0.00000000000E+00 0.  1.
          3    1    3    3  501    0  0.11118786286E+03  0.10400569586E+02  0.19849377385E+03  0.22775137969E+03  0.00000000000E+00 0.  1.
         21    1    1    2  502  501 -0.38181941558E+02 -0.74116391241E+01  0.18894453340E+02  0.43241108019E+02  0.00000000000E+00 0.  1.
<scales pt_clust_4="550.00000" pt_clust_5="550.00000" pt_clust_6="38.89464"></scales>
<mgrwt>
<rscale>  0 0.30000000E+03</rscale>
<asrwt>  1 0.38894640E+02</asrwt>
<pdfrwt beam="1">  1        1 0.90751971E+00 0.30000000E+03</pdfrwt>
<pdfrwt beam="2">0</pdfrwt>
<totfact> 0.80488455E-05</totfact>
</mgrwt>
<clustering>
<clus scale="   38.895">  1  6  2 -1</clus>
<clus scale="  477.701">  4  5 -1 -1</clus>
<clus scale="  300.000">  1  4  2 -1</clus>
</clustering>
</event>
<event>
 6    1  0.9480355E-012  0.3000000E+03  0.7818608E-02  0.1093470E+00
          1   -1    0    0  502    0  0.00000000000E+00  0.00000000000E+00  0.24605419304E+03  0.24605419304E+03  0.00000000000E+00 0.  1.
         13   -1    0    0    0    0 -0.00000000000E+00 -0.00000000000E+00 -0.27500000000E+03  0.27500000000E+03  0.00000000000E+00 0.  1.
    9000005    2    1    2  501    0  0.20766072193E+02  0.24636533303E+02 -0.45159458112E+02  0.48498383109E+03  0.48180053055E+03 0.  0.
         13    1    3    3    0    0 -0.38139600256E+02 -0.12786990430E+03 -0.21257417360E+03  0.25098430392E+03  0.00000000000E+00 0.  1.
          3    1    3    3  501    0  0.58905672449E+02  0.15250643760E+03  0.16741471549E+03  0.23399952717E+03  0.00000000000E+00 0.  1.
         21    1    1    2  502  501 -0.20766072193E+02 -0.24636533303E+02  0.16213651153E+02  0.36070361950E+02  0.00000000000E+00 0.  1.
<scales pt_clust_4="550.00000" pt_clust_5="550.00000" pt_clust_6="32.22093"></scales>
<mgrwt>
<rscale>  0 0.30000000E+03</rscale>
<asrwt>  1 0.32220933E+02</asrwt>
<pdfrwt beam="1">  1        1 0.89474252E+00 0.30000000E+03</pdfrwt>
<pdfrwt beam="2">0</pdfrwt>
<totfact> 0.12893004E-04</totfact>
</mgrwt>
<clustering>
<clus scale="   32.221">  1  6  2 -1</clus>
<clus scale="  481.801">  4  5 -1 -1</clus>
<clus scale="  300.000">  1  4  2 -1</clus>
</clustering>
</event>
<event>
 6    1  0.9480355E-012  0.3000000E+03  0.7818608E-02  0.1093470E+00
          1   -1    0    0  502    0  0.00000000000E+00  0.00000000000E+00  0.23043121765E+03  0.23043121765E+03  0.00000000000E+00 0.  1.
         13   -1    0    0    0    0 -0.00000000000E+00 -0.00000000000E+00 -0.27500000000E+03  0.27500000000E+03  0.00000000000E+00 0.  1.
    9000005    2    1    2  501    0 -0.31496839158E+02  0.17538410657E+02 -0.51604291177E+02  0.46870050693E+03  0.46445399730E+03 0.  0.
         13    1    3    3    0    0  0.85131882814E+02  0.50535984541E+02  0.18105922499E+03  0.20635834405E+03  0.00000000000E+00 0.  1.
          1    1    3    3  501    0 -0.11662872197E+03 -0.32997573884E+02 -0.23266351617E+03  0.26234216288E+03  0.00000000000E+00 0.  1.
         21    1    1    2  502  501  0.31496839158E+02 -0.17538410657E+02  0.70355088269E+01  0.36730710717E+02  0.00000000000E+00 0.  1.
<scales pt_clust_4="550.00000" pt_clust_5="550.00000" pt_clust_6="36.05061"></scales>
<mgrwt>
<rscale>  0 0.30000000E+03</rscale>
<asrwt>  1 0.36050613E+02</asrwt>
<pdfrwt beam="1">  1        1 0.83793170E+00 0.30000000E+03</pdfrwt>
<pdfrwt beam="2">0</pdfrwt>
<totfact> 0.51223129E-04</totfact>
</mgrwt>
<clustering>
<clus scale="   36.051">  1  6  2 -1</clus>
<clus scale="  464.454">  4  5 -1 -1</clus>
<clus scale="  300.000">  1  4  2 -1</clus>
</clustering>
</event>
<event>
 6    1  0.9480355E-012  0.3000000E+03  0.7818608E-02  0.1093470E+00
          1   -1    0    0  502    0  0.00000000000E+00  0.00000000000E+00  0.22568281587E+03  0.22568281587E+03  0.00000000000E+00 0.  1.
         13   -1    0    0    0    0 -0.00000000000E+00 -0.00000000000E+00 -0.27500000000E+03  0.27500000000E+03  0.00000000000E+00 0.  1.
    9000005    2    1    2  501    0 -0.22061740258E+02 -0.22768149465E+02 -0.54800485575E+02  0.46850867085E+03  0.46421134457E+03 0.  0.
         13    1    3    3    0    0  0.11314705495E+03  0.13757910588E+03 -0.15493929841E+03  0.23608568913E+03  0.00000000000E+00 0.  1.
          1    1    3    3  501    0 -0.13520879521E+03 -0.16034725534E+03  0.10013881284E+03  0.23242298172E+03  0.00000000000E+00 0.  1.
         21    1    1    2  502  501  0.22061740258E+02  0.22768149465E+02  0.54833014495E+01  0.32174145024E+02  0.00000000000E+00 0. -1.
<scales pt_clust_4="550.00000" pt_clust_5="550.00000" pt_clust_6="31.70345"></scales>
<mgrwt>
<rscale>  0 0.30000000E+03</rscale>
<asrwt>  1 0.31703454E+02</asrwt>
<pdfrwt beam="1">  1        1 0.82066479E+00 0.30000000E+03</pdfrwt>
<pdfrwt beam="2">0</pdfrwt>
<totfact> 0.72717559E-04</totfact>
</mgrwt>
<clustering>
<clus scale="   31.703">  1  6  2 -1</clus>
<clus scale="  464.211">  4  5 -1 -1</clus>
<clus scale="  300.000">  1  4  2 -1</clus>
</clustering>
</event>
<event>
 6    1  0.9480355E-012  0.3000000E+03  0.7818608E-02  0.1093470E+00
          1   -1    0    0  502    0  0.00000000000E+00  0.00000000000E+00  0.23996739079E+03  0.23996739079E+03  0.00000000000E+00 0.  1.
         13   -1    0    0    0    0 -0.00000000000E+00 -0.00000000000E+00 -0.27500000000E+03  0.27500000000E+03  0.00000000000E+00 0.  1.
    9000005    2    1    2  501    0  0.33458641644E+02 -0.10693846173E+02 -0.72583273866E+02  0.46354860568E+03  0.45648125825E+03 0.  0.
         13    1    3    3    0    0  0.19036130265E+03  0.10847585607E+03  0.58654115494E+02  0.22681433412E+03  0.00000000000E+00 0.  1.
          3    1    3    3  501    0 -0.15690266101E+03 -0.11916970224E+03 -0.13123738936E+03  0.23673427156E+03  0.00000000000E+00 0.  1.
         21    1    1    2  502  501 -0.33458641644E+02  0.10693846173E+02  0.37550664661E+02  0.51418785119E+02  0.00000000000E+00 0.  1.
<scales pt_clust_4="550.00000" pt_clust_5="550.00000" pt_clust_6="35.12605"></scales>
<mgrwt>
<rscale>  0 0.30000000E+03</rscale>
<asrwt>  1 0.35126045E+02</asrwt>
<pdfrwt beam="1">  1        1 0.87260869E+00 0.30000000E+03</pdfrwt>
<pdfrwt beam="2">0</pdfrwt>
<totfact> 0.23801502E-04</totfact>
</mgrwt>
<clustering>
<clus scale="   35.126">  1  6  2 -1</clus>
<clus scale="  456.481">  4  5 -1 -1</clus>
<clus scale="  300.000">  1  4  2 -1</clus>
</clustering>
</event>
<event>
 6    1  0.9480355E-012  0.3000000E+03  0.7818608E-02  0.1093470E+00
          1   -1    0    0  502    0  0.00000000000E+00  0.00000000000E+00  0.22914840085E+03  0.22914840085E+03  0.00000000000E+00 0.  1.
         13   -1    0    0    0    0 -0.00000000000E+00 -0.00000000000E+00 -0.27500000000E+03  0.27500000000E+03  0.00000000000E+00 0.  1.
    9000005    2    1    2  501    0  0.22029796271E+02  0.26563410995E+02 -0.61097167483E+02  0.46642103570E+03  0.46111255886E+03 0.  0.
         13    1    3    3    0    0 -0.54347908285E+02  0.18861925192E+03  0.10457101842E+03  0.22240956639E+03  0.00000000000E+00 0.  1.
          1    1    3    3  501    0  0.76377704555E+02 -0.16205584093E+03 -0.16566818590E+03  0.24401146930E+03  0.00000000000E+00 0.  1.
         21    1    1    2  502  501 -0.22029796271E+02 -0.26563410995E+02  0.15245568331E+02  0.37727365150E+02  0.00000000000E+00 0.  1.
<scales pt_clust_4="550.00000" pt_clust_5="550.00000" pt_clust_6="34.50981"></scales>
<mgrwt>
<rscale>  0 0.30000000E+03</rscale>
<asrwt>  1 0.34509806E+02</asrwt>
<pdfrwt beam="1">  1        1 0.83326691E+00 0.30000000E+03</pdfrwt>
<pdfrwt beam="2">0</pdfrwt>
<totfact> 0.55864880E-04</totfact>
</mgrwt>
<clustering>
<clus scale="   34.510">  1  6  2 -1</clus>
<clus scale="  461.113">  4  5 -1 -1</clus>
<clus scale="  300.000">  1  4  2 -1</clus>
</clustering>
</event>
<event>
 6    1  0.9480355E-012  0.3000000E+03  0.7818608E-02  0.1093470E+00
          1   -1    0    0  502    0  0.00000000000E+00  0.00000000000E+00  0.24124985468E+03  0.24124985468E+03  0.00000000000E+00 0.  1.
         13   -1    0    0    0    0 -0.00000000000E+00 -0.00000000000E+00 -0.27500000000E+03  0.27500000000E+03  0.00000000000E+00 0.  1.
    9000005    2    1    2  501    0  0.47918901103E+02 -0.78285743383E+01 -0.57451828308E+02  0.46221951658E+03  0.45605773897E+03 0.  0.
         13    1    3    3    0    0 -0.60173076542E+02 -0.33527046655E+02  0.18397857614E+03  0.19645095692E+03  0.00000000000E+00 0.  1.
          1    1    3    3  501    0  0.10809197764E+03  0.25698472316E+02 -0.24143040445E+03  0.26576855966E+03  0.00000000000E+00 0.  1.
         21    1    1    2  502  501 -0.47918901103E+02  0.78285743383E+01  0.23701682991E+02  0.54030338104E+02  0.00000000000E+00 0.  1.
<scales pt_clust_4="550.00000" pt_clust_5="550.00000" pt_clust_6="48.55417"></scales>
<mgrwt>
<rscale>  0 0.30000000E+03</rscale>
<asrwt>  1 0.48554172E+02</asrwt>
<pdfrwt beam="1">  1        1 0.87727220E+00 0.30000000E+03</pdfrwt>
<pdfrwt beam="2">0</pdfrwt>
<totfact> 0.20024022E-04</totfact>
</mgrwt>
<clustering>
<clus scale="   48.554">  1  6  2 -1</clus>
<clus scale="  456.058">  4  5 -1 -1</clus>
<clus scale="  300.000">  1  4  2 -1</clus>
</clustering>
</event>
<event>
 6    1  0.9480355E-012  0.3000000E+03  0.7818608E-02  0.1093470E+00
          1   -1    0    0  502    0  0.00000000000E+00  0.00000000000E+00  0.24314199205E+03  0.24314199205E+03  0.00000000000E+00 0.  1.
         13   -1    0    0    0    0 -0.00000000000E+00 -0.00000000000E+00 -0.27500000000E+03  0.27500000000E+03  0.00000000000E+00 0.  1.
    9000005    2    1    2  501    0  0.27849538166E+02 -0.32419127561E+02 -0.65452637090E+02  0.46378028020E+03  0.45714494856E+03 0.  0.
         13    1    3    3    0    0  0.58004494901E+00 -0.68104398936E+02  0.19133479921E+03  0.20309493099E+03  0.00000000000E+00 0.  1.
          1    1    3    3  501    0  0.27269493217E+02  0.35685271375E+02 -0.25678743630E+03  0.26068534921E+03  0.00000000000E+00 0.  1.
         21    1    1    2  502  501 -0.27849538166E+02  0.32419127561E+02  0.33594629136E+02  0.54361711845E+02  0.00000000000E+00 0.  1.
<scales pt_clust_4="550.00000" pt_clust_5="550.00000" pt_clust_6="42.73870"></scales>
<mgrwt>
<rscale>  0 0.30000000E+03</rscale>
<asrwt>  1 0.42738702E+02</asrwt>
<pdfrwt beam="1">  1        1 0.88415270E+00 0.30000000E+03</pdfrwt>
<pdfrwt beam="2">0</pdfrwt>
<totfact> 0.16800619E-04</totfact>
</mgrwt>
<clustering>
<clus scale="   42.739">  1  6  2 -1</clus>
<clus scale="  457.145">  4  5 -1 -1</clus>
<clus scale="  300.000">  1  4  2 -1</clus>
</clustering>
</event>
<event>
 6    1  0.9480355E-012  0.3000000E+03  0.7818608E-02  0.1093470E+00
          1   -1    0    0  502    0  0.00000000000E+00  0.00000000000E+00  0.24918419758E+03  0.24918419758E+03  0.00000000000E+00 0.  1.
         13   -1    0    0    0    0 -0.00000000000E+00 -0.00000000000E+00 -0.27500000000E+03  0.27500000000E+03  0.00000000000E+00 0.  1.
    9000005    2    1    2  501    0 -0.31997916770E+02  0.18724585990E+02  0.59284339107E+01  0.47537668444E+03  0.47389172707E+03 0.  0.
         13    1    3    3    0    0  0.20081820608E+03  0.44675006304E+02 -0.86990646560E+02  0.22336333779E+03  0.00000000000E+00 0.  1.
          3    1    3    3  501    0 -0.23281612285E+03 -0.25950420314E+02  0.92919080471E+02  0.25201334665E+03  0.00000000000E+00 0.  1.
         21    1    1    2  502  501  0.31997916770E+02 -0.18724585990E+02 -0.31744236334E+02  0.48807513136E+02  0.00000000000E+00 0.  1.
<scales pt_clust_4="550.00000" pt_clust_5="550.00000" pt_clust_6="37.07396"></scales>
<mgrwt>
<rscale>  0 0.30000000E+03</rscale>
<asrwt>  1 0.37073955E+02</asrwt>
<pdfrwt beam="1">  1        1 0.90612435E+00 0.30000000E+03</pdfrwt>
<pdfrwt beam="2">0</pdfrwt>
<totfact> 0.86940259E-05</totfact>
</mgrwt>
<clustering>
<clus scale="   37.074">  1  6  2 -1</clus>
<clus scale="  473.892">  4  5 -1 -1</clus>
<clus scale="  300.000">  1  4  2 -1</clus>
</clustering>
</event>
<event>
 6    1  0.9480355E-012  0.3000000E+03  0.7818608E-02  0.1093470E+00
          1   -1    0    0  502    0  0.00000000000E+00  0.00000000000E+00  0.22491555919E+03  0.22491555919E+03  0.00000000000E+00 0.  1.
         13   -1    0    0    0    0 -0.00000000000E+00 -0.00000000000E+00 -0.27500000000E+03  0.27500000000E+03  0.00000000000E+00 0.  1.
    9000005    2    1    2  501    0 -0.52440591055E+01  0.35934652560E+02 -0.52484662219E+02  0.46352104761E+03  0.45910600345E+03 0.  0.
         13    1    3    3    0    0  0.86875223554E+02 -0.15410063712E+03  0.99841123372E+02  0.20313188018E+03  0.00000000000E+00 0.  1.
          1    1    3    3  501    0 -0.92119282659E+02  0.19003528968E+03 -0.15232578559E+03  0.26038916743E+03  0.00000000000E+00 0.  1.
         21    1    1    2  502  501  0.52440591055E+01 -0.35934652560E+02  0.24002214137E+01  0.36394511582E+02  0.00000000000E+00 0.  1.
<scales pt_clust_4="550.00000" pt_clust_5="550.00000" pt_clust_6="36.31528"></scales>
<mgrwt>
<rscale>  0 0.30000000E+03</rscale>
<asrwt>  1 0.36315278E+02</asrwt>
<pdfrwt beam="1">  1        1 0.81787476E+00 0.30000000E+03</pdfrwt>
<pdfrwt beam="2">0</pdfrwt>
<totfact> 0.74886272E-04</totfact>
</mgrwt>
<clustering>
<clus scale="   36.315">  1  6  2 -1</clus>
<clus scale="  459.106">  4  5 -1 -1</clus>
<clus scale="  300.000">  1  4  2 -1</clus>
</clustering>
</event>
<event>
 6    1  0.9480355E-012  0.3000000E+03  0.7818608E-02  0.1093470E+00
          1   -1    0    0  502    0  0.00000000000E+00  0.00000000000E+00  0.23764760527E+03  0.23764760527E+03  0.00000000000E+00 0.  1.
         13   -1    0    0    0    0 -0.00000000000E+00 -0.00000000000E+00 -0.27500000000E+03  0.27500000000E+03  0.00000000000E+00 0.  1.
    9000005    2    1    2  501    0  0.28004719616E+02  0.18529249664E+02 -0.41903702837E+02  0.47876085536E+03  0.47573988576E+03 0.  0.
         13    1    3    3    0    0  0.20039678909E+02 -0.22353281251E+03  0.29261278739E+02  0.22632880823E+03  0.00000000000E+00 0.  1.
          3    1    3    3  501    0  0.79650407064E+01  0.24206206217E+03 -0.71164981576E+02  0.25243204713E+03  0.00000000000E+00 0.  1.
         21    1    1    2  502  501 -0.28004719616E+02 -0.18529249664E+02  0.45513081031E+01  0.33886749908E+02  0.00000000000E+00 0.  1.
<scales pt_clust_4="550.00000" pt_clust_5="550.00000" pt_clust_6="33.57972"></scales>
<mgrwt>
<rscale>  0 0.30000000E+03</rscale>
<asrwt>  1 0.33579717E+02</asrwt>
<pdfrwt beam="1">  1        1 0.86417311E+00 0.30000000E+03</pdfrwt>
<pdfrwt beam="2">0</pdfrwt>
<totfact> 0.29390560E-04</totfact>
</mgrwt>
<clustering>
<clus scale="   33.580">  1  6  2 -1</clus>
<clus scale="  475.740">  4  5 -1 -1</clus>
<clus scale="  300.000">  1  4  2 -1</clus>
</clustering>
</event>
<event>
 6    1  0.9480355E-012  0.3000000E+03  0.7818608E-02  0.1093470E+00
          1   -1    0    0  502    0  0.00000000000E+00  0.00000000000E+00  0.23061237384E+03  0.23061237384E+03  0.00000000000E+00 0.  1.
         13   -1    0    0    0    0 -0.00000000000E+00 -0.00000000000E+00 -0.27500000000E+03  0.27500000000E+03  0.00000000000E+00 0.  1.
    9000005    2    1    2  501    0  0.19682774341E+02 -0.36676224282E+02 -0.46996002583E+02  0.46390673081E+03  0.45963928639E+03 0.  0.
         13    1    3    3    0    0  0.13850481292E+03 -0.19182221669E+03  0.55812503792E+02  0.24309335984E+03  0.00000000000E+00 0.  1.
          3    1    3    3  501    0 -0.11882203858E+03  0.15514599241E+03 -0.10280850637E+03  0.22081337096E+03  0.00000000000E+00 0.  1.
         21    1    1    2  502  501 -0.19682774341E+02  0.36676224282E+02  0.26083764230E+01  0.41705643034E+02  0.00000000000E+00 0. -1.
<scales pt_clust_4="550.00000" pt_clust_5="550.00000" pt_clust_6="41.62400"></scales>
<mgrwt>
<rscale>  0 0.30000000E+03</rscale>
<asrwt>  1 0.41623996E+02</asrwt>
<pdfrwt beam="1">  1        1 0.83859045E+00 0.30000000E+03</pdfrwt>
<pdfrwt beam="2">0</pdfrwt>
<totfact> 0.49334599E-04</totfact>
</mgrwt>
<clustering>
<clus scale="   41.624">  1  6  2 -1</clus>
<clus scale="  459.639">  4  5 -1 -1</clus>
<clus scale="  300.000">  1  4  2 -1</clus>
</clustering>
</event>
<event>
 6    1  0.9480355E-012  0.3000000E+03  0.7818608E-02  0.1093470E+00
          1   -1    0    0  502    0  0.00000000000E+00  0.00000000000E+00  0.23450138734E+03  0.23450138734E+03  0.00000000000E+00 0.  1.
         13   -1    0    0    0    0 -0.00000000000E+00 -0.00000000000E+00 -0.27500000000E+03  0.27500000000E+03  0.00000000000E+00 0.  1.
    9000005    2    1    2  501    0  0.10831546539E+02  0.35052784483E+02 -0.51781928954E+02  0.47111736296E+03  0.46682350136E+03 0.  0.
         13    1    3    3    0    0 -0.99188051140E+02 -0.11694048576E+03  0.13650787320E+03  0.20529916255E+03  0.00000000000E+00 0.  1.
          1    1    3    3  501    0  0.11001959768E+03  0.15199327024E+03 -0.18828980216E+03  0.26581820041E+03  0.00000000000E+00 0.  1.
         21    1    1    2  502  501 -0.10831546539E+02 -0.35052784483E+02  0.11283316290E+02  0.38384024372E+02  0.00000000000E+00 0.  1.
<scales pt_clust_4="550.00000" pt_clust_5="550.00000" pt_clust_6="36.68815"></scales>
<mgrwt>
<rscale>  0 0.30000000E+03</rscale>
<asrwt>  1 0.36688147E+02</asrwt>
<pdfrwt beam="1">  1        1 0.85273232E+00 0.30000000E+03</pdfrwt>
<pdfrwt beam="2">0</pdfrwt>
<totfact> 0.37999024E-04</totfact>
</mgrwt>
<clustering>
<clus scale="   36.688">  1  6  2 -1</clus>
<clus scale="  466.824">  4  5 -1 -1</clus>
<clus scale="  300.000">  1  4  2 -1</clus>
</clustering>
</event>
<event>
 6    1  0.9480355E-012  0.3000000E+03  0.7818608E-02  0.1093470E+00
          1   -1    0    0  502    0  0.00000000000E+00  0.00000000000E+00  0.22732682254E+03  0.22732682254E+03  0.00000000000E+00 0.  1.
         13   -1    0    0    0    0 -0.00000000000E+00 -0.00000000000E+00 -0.27500000000E+03  0.27500000000E+03  0.00000000000E+00 0.  1.
    9000005    2    1    2  501    0  0.36597318684E+02  0.51124306168E+01 -0.60190603705E+02  0.46331161215E+03  0.45789653908E+03 0.  0.
         13    1    3    3    0    0  0.11781241864E+03 -0.24335774736E+01  0.17691623909E+03  0.21256773965E+03  0.00000000000E+00 0.  1.
          1    1    3    3  501    0 -0.81215099958E+02  0.75460080904E+01 -0.23710684279E+03  0.25074387251E+03  0.00000000000E+00 0.  1.
         21    1    1    2  502  501 -0.36597318684E+02 -0.51124306168E+01  0.12517426244E+02  0.39015210386E+02  0.00000000000E+00 0.  1.
<scales pt_clust_4="550.00000" pt_clust_5="550.00000" pt_clust_6="36.95268"></scales>
<mgrwt>
<rscale>  0 0.30000000E+03</rscale>
<asrwt>  1 0.36952682E+02</asrwt>
<pdfrwt beam="1">  1        1 0.82664299E+00 0.30000000E+03</pdfrwt>
<pdfrwt beam="2">0</pdfrwt>
<totfact> 0.62523111E-04</totfact>
</mgrwt>
<clustering>
<clus scale="   36.953">  1  6  2 -1</clus>
<clus scale="  457.897">  4  5 -1 -1</clus>
<clus scale="  300.000">  1  4  2 -1</clus>
</clustering>
</event>
<event>
 6    1  0.9480355E-012  0.3000000E+03  0.7818608E-02  0.1093470E+00
          1   -1    0    0  502    0  0.00000000000E+00  0.00000000000E+00  0.22740996884E+03  0.22740996884E+03  0.00000000000E+00 0.  1.
         13   -1    0    0    0    0 -0.00000000000E+00 -0.00000000000E+00 -0.27500000000E+03  0.27500000000E+03  0.00000000000E+00 0.  1.
    9000005    2    1    2  501    0  0.20501865070E+02  0.22441733863E+02 -0.66325069116E+02  0.46670339329E+03  0.46096538333E+03 0.  0.
         13    1    3    3    0    0 -0.16247241192E+03  0.16356216271E+03 -0.24025652578E+02  0.23179106472E+03  0.00000000000E+00 0.  1.
          1    1    3    3  501    0  0.18297427699E+03 -0.14112042884E+03 -0.42299416538E+02  0.23491232857E+03  0.00000000000E+00 0.  1.
         21    1    1    2  502  501 -0.20501865070E+02 -0.22441733863E+02  0.18735037957E+02  0.35706575549E+02  0.00000000000E+00 0. -1.
<scales pt_clust_4="550.00000" pt_clust_5="550.00000" pt_clust_6="30.39668"></scales>
<mgrwt>
<rscale>  0 0.30000000E+03</rscale>
<asrwt>  1 0.30396676E+02</asrwt>
<pdfrwt beam="1">  1        1 0.82694534E+00 0.30000000E+03</pdfrwt>
<pdfrwt beam="2">0</pdfrwt>
<totfact> 0.64472181E-04</totfact>
</mgrwt>
<clustering>
<clus scale="   30.397">  1  6  2 -1</clus>
<clus scale="  460.965">  4  5 -1 -1</clus>
<clus scale="  300.000">  1  4  2 -1</clus>
</clustering>
</event>
<event>
 6    1  0.9480355E-012  0.3000000E+03  0.7818608E-02  0.1093470E+00
          1   -1    0    0  502    0  0.00000000000E+00  0.00000000000E+00  0.23650227760E+03  0.23650227760E+03  0.00000000000E+00 0.  1.
         13   -1    0    0    0    0 -0.00000000000E+00 -0.00000000000E+00 -0.27500000000E+03  0.27500000000E+03  0.00000000000E+00 0.  1.
    9000005    2    1    2  501    0 -0.16482619697E+02  0.34951575736E+02 -0.45716913397E+02  0.47219062389E+03  0.46838089171E+03 0.  0.
         13    1    3    3    0    0  0.13610832817E+03  0.17919044084E+03 -0.11286684984E+03  0.25174117041E+03  0.00000000000E+00 0.  1.
          1    1    3    3  501    0 -0.15259094786E+03 -0.14423886511E+03  0.67149936439E+02  0.22044945348E+03  0.00000000000E+00 0.  1.
         21    1    1    2  502  501  0.16482619697E+02 -0.34951575736E+02  0.72191909937E+01  0.39311653706E+02  0.00000000000E+00 0.  1.
<scales pt_clust_4="550.00000" pt_clust_5="550.00000" pt_clust_6="38.64310"></scales>
<mgrwt>
<rscale>  0 0.30000000E+03</rscale>
<asrwt>  1 0.38643103E+02</asrwt>
<pdfrwt beam="1">  1        1 0.86000828E+00 0.30000000E+03</pdfrwt>
<pdfrwt beam="2">0</pdfrwt>
<totfact> 0.31751608E-04</totfact>
</mgrwt>
<clustering>
<clus scale="   38.643">  1  6  2 -1</clus>
<clus scale="  468.381">  4  5 -1 -1</clus>
<clus scale="  300.000">  1  4  2 -1</clus>
</clustering>
</event>
<event>
 6    1  0.9480355E-012  0.3000000E+03  0.7818608E-02  0.1093470E+00
          1   -1    0    0  502    0  0.00000000000E+00  0.00000000000E+00  0.23180875042E+03  0.23180875042E+03  0.00000000000E+00 0.  1.
         13   -1    0    0    0    0 -0.00000000000E+00 -0.00000000000E+00 -0.27500000000E+03  0.27500000000E+03  0.00000000000E+00 0.  1.
    9000005    2    1    2  501    0  0.75793931263E+01  0.29933930719E+02 -0.54667055832E+02  0.47386665671E+03  0.46968886930E+03 0.  0.
         13    1    3    3    0    0 -0.16090492912E+03  0.43016923149E+02 -0.19339221830E+03  0.25522813715E+03  0.00000000000E+00 0.  1.
          1    1    3    3  501    0  0.16848432225E+03 -0.13082992430E+02  0.13872516247E+03  0.21863851956E+03  0.00000000000E+00 0.  1.
         21    1    1    2  502  501 -0.75793931263E+01 -0.29933930719E+02  0.11475806247E+02  0.32942093702E+02  0.00000000000E+00 0. -1.
<scales pt_clust_4="550.00000" pt_clust_5="550.00000" pt_clust_6="30.87859"></scales>
<mgrwt>
<rscale>  0 0.30000000E+03</rscale>
<asrwt>  1 0.30878591E+02</asrwt>
<pdfrwt beam="1">  1        1 0.84294091E+00 0.30000000E+03</pdfrwt>
<pdfrwt beam="2">0</pdfrwt>
<totfact> 0.48187439E-04</totfact>
</mgrwt>
<clustering>
<clus scale="   30.879">  1  6  2 -1</clus>
<clus scale="  469.689">  4  5 -1 -1</clus>
<clus scale="  300.000">  1  4  2 -1</clus>
</clustering>
</event>
<event>
 6    1  0.9480355E-012  0.3000000E+03  0.7818608E-02  0.1093470E+00
          1   -1    0    0  502    0  0.00000000000E+00  0.00000000000E+00  0.22220358303E+03  0.22220358303E+03  0.00000000000E+00 0.  1.
         13   -1    0    0    0    0 -0.00000000000E+00 -0.00000000000E+00 -0.27500000000E+03  0.27500000000E+03  0.00000000000E+00 0.  1.
    9000005    2    1    2  501    0  0.31384459162E+01  0.30739268162E+02 -0.60463197657E+02  0.46536756607E+03  0.46038725094E+03 0.  0.
         13    1    3    3    0    0  0.65578451892E+02  0.13049064183E+03 -0.22186596652E+03  0.26561786096E+03  0.00000000000E+00 0.  1.
          3    1    3    3  501    0 -0.62440005975E+02 -0.99751373668E+02  0.16140276887E+03  0.19974970511E+03  0.00000000000E+00 0.  1.
         21    1    1    2  502  501 -0.31384459162E+01 -0.30739268162E+02  0.76667806916E+01  0.31836016964E+02  0.00000000000E+00 0. -1.
<scales pt_clust_4="550.00000" pt_clust_5="550.00000" pt_clust_6="30.89907"></scales>
<mgrwt>
<rscale>  0 0.30000000E+03</rscale>
<asrwt>  1 0.30899069E+02</asrwt>
<pdfrwt beam="1">  1        1 0.80801303E+00 0.30000000E+03</pdfrwt>
<pdfrwt beam="2">0</pdfrwt>
<totfact> 0.92520567E-04</totfact>
</mgrwt>
<clustering>
<clus scale="   30.899">  1  6  2 -1</clus>
<clus scale="  460.387">  4  5 -1 -1</clus>
<clus scale="  300.000">  1  4  2 -1</clus>
</clustering>
</event>
<event>
 6    1  0.9480355E-012  0.3000000E+03  0.7818608E-02  0.1093470E+00
          1   -1    0    0  502    0  0.00000000000E+00  0.00000000000E+00  0.24079655263E+03  0.24079655263E+03  0.00000000000E+00 0.  1.
         13   -1    0    0    0    0 -0.00000000000E+00 -0.00000000000E+00 -0.27500000000E+03  0.27500000000E+03  0.00000000000E+00 0.  1.
    9000005    2    1    2  501    0 -0.27484941780E+02  0.34529160823E+02 -0.40958574878E+02  0.47114997696E+03  0.46728686153E+03 0.  0.
         13    1    3    3    0    0 -0.71780976545E+02 -0.17295714338E+03  0.10399322802E+03  0.21419914452E+03  0.00000000000E+00 0.  1.
          1    1    3    3  501    0  0.44296034765E+02  0.20748630420E+03 -0.14495180290E+03  0.25695083244E+03  0.00000000000E+00 0.  1.
         21    1    1    2  502  501  0.27484941780E+02 -0.34529160823E+02  0.67551275101E+01  0.44646575675E+02  0.00000000000E+00 0. -1.
<scales pt_clust_4="550.00000" pt_clust_5="550.00000" pt_clust_6="44.13258"></scales>
<mgrwt>
<rscale>  0 0.30000000E+03</rscale>
<asrwt>  1 0.44132584E+02</asrwt>
<pdfrwt beam="1">  1        1 0.87562383E+00 0.30000000E+03</pdfrwt>
<pdfrwt beam="2">0</pdfrwt>
<totfact> 0.21230689E-04</totfact>
</mgrwt>
<clustering>
<clus scale="   44.133">  1  6  2 -1</clus>
<clus scale="  467.287">  4  5 -1 -1</clus>
<clus scale="  300.000">  1  4  2 -1</clus>
</clustering>
</event>
<event>
 6    1  0.9480355E-012  0.3000000E+03  0.7818608E-02  0.1093470E+00
          1   -1    0    0  502    0  0.00000000000E+00  0.00000000000E+00  0.23606549292E+03  0.23606549292E+03  0.00000000000E+00 0.  1.
         13   -1    0    0    0    0 -0.00000000000E+00 -0.00000000000E+00 -0.27500000000E+03  0.27500000000E+03  0.00000000000E+00 0.  1.
    9000005    2    1    2  501    0 -0.36417227045E+02  0.10402053858E+02 -0.68347979682E+02  0.46311166596E+03  0.45647185200E+03 0.  0.
         13    1    3    3    0    0  0.15766818986E+03 -0.98753020205E+02  0.72457628751E+02  0.19965351251E+03  0.00000000000E+00 0.  1.
          1    1    3    3  501    0 -0.19408541691E+03  0.10915507406E+03 -0.14080560843E+03  0.26345815344E+03  0.00000000000E+00 0.  1.
         21    1    1    2  502  501  0.36417227045E+02 -0.10402053858E+02  0.29413472604E+02  0.47953826966E+02  0.00000000000E+00 0.  1.
<scales pt_clust_4="550.00000" pt_clust_5="550.00000" pt_clust_6="37.87370"></scales>
<mgrwt>
<rscale>  0 0.30000000E+03</rscale>
<asrwt>  1 0.37873700E+02</asrwt>
<pdfrwt beam="1">  1        1 0.85841997E+00 0.30000000E+03</pdfrwt>
<pdfrwt beam="2">0</pdfrwt>
<totfact> 0.33127108E-04</totfact>
</mgrwt>
<clustering>
<clus scale="   37.874">  1  6  2 -1</clus>
<clus scale="  456.472">  4  5 -1 -1</clus>
<clus scale="  300.000">  1  4  2 -1</clus>
</clustering>
</event>
<event>
 6    1  0.9480355E-012  0.3000000E+03  0.7818608E-02  0.1093470E+00
          1   -1    0    0  502    0  0.00000000000E+00  0.00000000000E+00  0.26066133213E+03  0.26066133213E+03  0.00000000000E+00 0.  1.
         13   -1    0    0    0    0 -0.00000000000E+00 -0.00000000000E+00 -0.27500000000E+03  0.27500000000E+03  0.00000000000E+00 0.  1.
    9000005    2    1    2  501    0  0.31866371293E+01 -0.47485071277E+02 -0.57823016305E+02  0.47119525416E+03  0.46520584656E+03 0.  0.
         13    1    3    3    0    0  0.75487855367E+02 -0.88235668529E+02 -0.24242169800E+03  0.26879774770E+03  0.00000000000E+00 0.  1.
          1    1    3    3  501    0 -0.72301218238E+02  0.40750597252E+02  0.18459868170E+03  0.20239750645E+03  0.00000000000E+00 0.  1.
         21    1    1    2  502  501 -0.31866371293E+01  0.47485071277E+02  0.43484348437E+02  0.64466077974E+02  0.00000000000E+00 0. -1.
<scales pt_clust_4="550.00000" pt_clust_5="550.00000" pt_clust_6="47.59188"></scales>
<mgrwt>
<rscale>  0 0.30000000E+03</rscale>
<asrwt>  1 0.47591876E+02</asrwt>
<pdfrwt beam="1">  1        1 0.94785939E+00 0.30000000E+03</pdfrwt>
<pdfrwt beam="2">0</pdfrwt>
<totfact> 0.12903943E-05</totfact>
</mgrwt>
<clustering>
<clus scale="   47.592">  1  6  2 -1</clus>
<clus scale="  465.206">  4  5 -1 -1</clus>
<clus scale="  300.000">  1  4  2 -1</clus>
</clustering>
</event>
<event>
 6    1  0.9480355E-012  0.3000000E+03  0.7818608E-02  0.1093470E+00
          1   -1    0    0  502    0  0.00000000000E+00  0.00000000000E+00  0.24394304352E+03  0.24394304352E+03  0.00000000000E+00 0.  1.
         13   -1    0    0    0    0 -0.00000000000E+00 -0.00000000000E+00 -0.27500000000E+03  0.27500000000E+03  0.00000000000E+00 0.  1.
    9000005    2    1    2  501    0  0.32502481553E+02  0.71796556546E+00 -0.63770615809E+02  0.47282243762E+03  0.46737291245E+03 0.  0.
         13    1    3    3    0    0  0.15560678752E+03 -0.18270398600E+03  0.92417882333E+01  0.24016583744E+03  0.00000000000E+00 0.  1.
          1    1    3    3  501    0 -0.12310430596E+03  0.18342195157E+03 -0.73012404043E+02  0.23265660018E+03  0.00000000000E+00 0.  1.
         21    1    1    2  502  501 -0.32502481553E+02 -0.71796556546E+00  0.32713659325E+02  0.46120605895E+02  0.00000000000E+00 0.  1.
<scales pt_clust_4="550.00000" pt_clust_5="550.00000" pt_clust_6="32.51041"></scales>
<mgrwt>
<rscale>  0 0.30000000E+03</rscale>
<asrwt>  1 0.32510410E+02</asrwt>
<pdfrwt beam="1">  1        1 0.88706561E+00 0.30000000E+03</pdfrwt>
<pdfrwt beam="2">0</pdfrwt>
<totfact> 0.16116346E-04</totfact>
</mgrwt>
<clustering>
<clus scale="   32.510">  1  6  2 -1</clus>
<clus scale="  467.373">  4  5 -1 -1</clus>
<clus scale="  300.000">  1  4  2 -1</clus>
</clustering>
</event>
<event>
 6    1  0.9480355E-012  0.3000000E+03  0.7818608E-02  0.1093470E+00
          1   -1    0    0  502    0  0.00000000000E+00  0.00000000000E+00  0.22356158915E+03  0.22356158915E+03  0.00000000000E+00 0.  1.
         13   -1    0    0    0    0 -0.00000000000E+00 -0.00000000000E+00 -0.27500000000E+03  0.27500000000E+03  0.00000000000E+00 0.  1.
    9000005    2    1    2  501    0 -0.31443974525E+02  0.59507771808E+01 -0.53288794407E+02  0.46650602485E+03  0.46234623426E+03 0.  0.
         13    1    3    3    0    0  0.17702526214E+03 -0.12213857755E+03  0.44187684127E+01  0.21511694745E+03  0.00000000000E+00 0.  1.
          1    1    3    3  501    0 -0.20846923667E+03  0.12808935474E+03 -0.57707562820E+02  0.25138907741E+03  0.00000000000E+00 0.  1.
         21    1    1    2  502  501  0.31443974525E+02 -0.59507771808E+01  0.18503835574E+01  0.32055564296E+02  0.00000000000E+00 0. -1.
<scales pt_clust_4="550.00000" pt_clust_5="550.00000" pt_clust_6="32.00211"></scales>
<mgrwt>
<rscale>  0 0.30000000E+03</rscale>
<asrwt>  1 0.32002114E+02</asrwt>
<pdfrwt beam="1">  1        1 0.81295123E+00 0.30000000E+03</pdfrwt>
<pdfrwt beam="2">0</pdfrwt>
<totfact> 0.84079931E-04</totfact>
</mgrwt>
<clustering>
<clus scale="   32.002">  1  6  2 -1</clus>
<clus scale="  462.346">  4  5 -1 -1</clus>
<clus scale="  300.000">  1  4  2 -1</clus>
</clustering>
</event>
<event>
 6    1  0.9480355E-012  0.3000000E+03  0.7818608E-02  0.1093470E+00
          1   -1    0    0  502    0  0.00000000000E+00  0.00000000000E+00  0.23344836226E+03  0.23344836226E+03  0.00000000000E+00 0.  1.
         13   -1    0    0    0    0 -0.00000000000E+00 -0.00000000000E+00 -0.27500000000E+03  0.27500000000E+03  0.00000000000E+00 0.  1.
    9000005    2    1    2  501    0  0.28030532811E+02 -0.15451908069E+02 -0.37525675169E+02  0.47618878063E+03  0.47362760294E+03 0.  0.
         13    1    3    3    0    0 -0.66762708938E+02  0.21059215929E+03 -0.63063929832E+02  0.22974632990E+03  0.00000000000E+00 0.  1.
          3    1    3    3  501    0  0.94793241748E+02 -0.22604406735E+03  0.25538254663E+02  0.24644245072E+03  0.00000000000E+00 0.  1.
         21    1    1    2  502  501 -0.28030532811E+02  0.15451908069E+02 -0.40259625711E+01  0.32259581635E+02  0.00000000000E+00 0.  1.
<scales pt_clust_4="550.00000" pt_clust_5="550.00000" pt_clust_6="32.00739"></scales>
<mgrwt>
<rscale>  0 0.30000000E+03</rscale>
<asrwt>  1 0.32007394E+02</asrwt>
<pdfrwt beam="1">  1        1 0.84890314E+00 0.30000000E+03</pdfrwt>
<pdfrwt beam="2">0</pdfrwt>
<totfact> 0.42376601E-04</totfact>
</mgrwt>
<clustering>
<clus scale="   32.007">  1  6  2 -1</clus>
<clus scale="  473.628">  4  5 -1 -1</clus>
<clus scale="  300.000">  1  4  2 -1</clus>
</clustering>
</event>
<event>
 6    1  0.9480355E-012  0.3000000E+03  0.7818608E-02  0.1093470E+00
          1   -1    0    0  502    0  0.00000000000E+00  0.00000000000E+00  0.26845406462E+03  0.26845406462E+03  0.00000000000E+00 0.  1.
         13   -1    0    0    0    0 -0.00000000000E+00 -0.00000000000E+00 -0.27500000000E+03  0.27500000000E+03  0.00000000000E+00 0.  1.
    9000005    2    1    2  501    0 -0.19257070181E+02  0.29923563836E+02 -0.63619502846E+02  0.47619600542E+03  0.47058361638E+03 0.  0.
         13    1    3    3    0    0 -0.17877383688E+03 -0.10031285470E+03  0.85329347098E+02  0.22204470506E+03  0.00000000000E+00 0.  1.
          3    1    3    3  501    0  0.15951676670E+03  0.13023641854E+03 -0.14894884994E+03  0.25415130035E+03  0.00000000000E+00 0.  1.
         21    1    1    2  502  501  0.19257070181E+02 -0.29923563836E+02  0.57073567465E+02  0.67258059204E+02  0.00000000000E+00 0. -1.
<scales pt_clust_4="550.00000" pt_clust_5="550.00000" pt_clust_6="35.58447"></scales>
<mgrwt>
<rscale>  0 0.30000000E+03</rscale>
<asrwt>  1 0.35584469E+02</asrwt>
<pdfrwt beam="1">  1        1 0.97619660E+00 0.30000000E+03</pdfrwt>
<pdfrwt beam="2">0</pdfrwt>
<totfact> 0.38090122E-06</totfact>
</mgrwt>
<clustering>
<clus scale="   35.584">  1  6  2 -1</clus>
<clus scale="  470.584">  4  5 -1 -1</clus>
<clus scale="  300.000">  1  4  2 -1</clus>
</clustering>
</event>
<event>
 6    1  0.9480355E-012  0.3000000E+03  0.7818608E-02  0.1093470E+00
          1   -1    0    0  502    0  0.00000000000E+00  0.00000000000E+00  0.24061550587E+03  0.24061550587E+03  0.00000000000E+00 0.  1.
         13   -1    0    0    0    0 -0.00000000000E+00 -0.00000000000E+00 -0.27500000000E+03  0.27500000000E+03  0.00000000000E+00 0.  1.
    9000005    2    1    2  501    0  0.17147784433E+02  0.24970597996E+02 -0.62506221633E+02  0.47428260332E+03  0.46916882121E+03 0.  0.
         13    1    3    3    0    0  0.11336968719E+03 -0.96747925891E+02 -0.21178666480E+03  0.25897188752E+03  0.00000000000E+00 0.  1.
          3    1    3    3  501    0 -0.96221902757E+02  0.12171852389E+03  0.14928044317E+03  0.21531071580E+03  0.00000000000E+00 0.  1.
         21    1    1    2  502  501 -0.17147784433E+02 -0.24970597996E+02  0.28121727505E+02  0.41332902549E+02  0.00000000000E+00 0. -1.
<scales pt_clust_4="550.00000" pt_clust_5="550.00000" pt_clust_6="30.29154"></scales>
<mgrwt>
<rscale>  0 0.30000000E+03</rscale>
<asrwt>  1 0.30291538E+02</asrwt>
<pdfrwt beam="1">  1        1 0.87496548E+00 0.30000000E+03</pdfrwt>
<pdfrwt beam="2">0</pdfrwt>
<totfact> 0.23136839E-04</totfact>
</mgrwt>
<clustering>
<clus scale="   30.292">  1  6  2 -1</clus>
<clus scale="  469.169">  4  5 -1 -1</clus>
<clus scale="  300.000">  1  4  2 -1</clus>
</clustering>
</event>
<event>
 6    1  0.9480355E-012  0.3000000E+03  0.7818608E-02  0.1093470E+00
          1   -1    0    0  502    0  0.00000000000E+00  0.00000000000E+00  0.24137335727E+03  0.24137335727E+03  0.00000000000E+00 0.  1.
         13   -1    0    0    0    0 -0.00000000000E+00 -0.00000000000E+00 -0.27500000000E+03  0.27500000000E+03  0.00000000000E+00 0.  1.
    9000005    2    1    2  501    0  0.27852853767E+02 -0.12336790886E+02 -0.40909484714E+02  0.48505215583E+03  0.48236296506E+03 0.  0.
         13    1    3    3    0    0 -0.22602103826E+03 -0.20775905514E+02 -0.43093935722E+02  0.23102864602E+03  0.00000000000E+00 0.  1.
          1    1    3    3  501    0  0.25387389203E+03  0.84391146285E+01  0.21844510075E+01  0.25402350981E+03  0.00000000000E+00 0.  1.
         21    1    1    2  502  501 -0.27852853767E+02  0.12336790886E+02  0.72828419844E+01  0.31321201440E+02  0.00000000000E+00 0. -1.
<scales pt_clust_4="550.00000" pt_clust_5="550.00000" pt_clust_6="30.46273"></scales>
<mgrwt>
<rscale>  0 0.30000000E+03</rscale>
<asrwt>  1 0.30462729E+02</asrwt>
<pdfrwt beam="1">  1        1 0.87772130E+00 0.30000000E+03</pdfrwt>
<pdfrwt beam="2">0</pdfrwt>
<totfact> 0.21563449E-04</totfact>
</mgrwt>
<clustering>
<clus scale="   30.463">  1  6  2 -1</clus>
<clus scale="  482.363">  4  5 -1 -1</clus>
<clus scale="  300.000">  1  4  2 -1</clus>
</clustering>
</event>
<event>
 6    1  0.9480355E-012  0.3000000E+03  0.7818608E-02  0.1093470E+00
          1   -1    0    0  502    0  0.00000000000E+00  0.00000000000E+00  0.24024545463E+03  0.24024545463E+03  0.00000000000E+00 0.  1.
         13   -1    0    0    0    0 -0.00000000000E+00 -0.00000000000E+00 -0.27500000000E+03  0.27500000000E+03  0.00000000000E+00 0.  1.
    9000005    2    1    2  501    0  0.47089954402E+02 -0.10284364074E+02 -0.35030511725E+02  0.46704474813E+03  0.46322826776E+03 0.  0.
         13    1    3    3    0    0  0.21297956890E+03  0.27146063954E+02 -0.14987434352E+03  0.26183873739E+03  0.00000000000E+00 0.  1.
          1    1    3    3  501    0 -0.16588961450E+03 -0.37430428027E+02  0.11484383179E+03  0.20520601073E+03  0.00000000000E+00 0.  1.
         21    1    1    2  502  501 -0.47089954402E+02  0.10284364074E+02  0.27596635411E+00  0.48200706503E+02  0.00000000000E+00 0. -1.
<scales pt_clust_4="550.00000" pt_clust_5="550.00000" pt_clust_6="48.19992"></scales>
<mgrwt>
<rscale>  0 0.30000000E+03</rscale>
<asrwt>  1 0.48199916E+02</asrwt>
<pdfrwt beam="1">  1        1 0.87361984E+00 0.30000000E+03</pdfrwt>
<pdfrwt beam="2">0</pdfrwt>
<totfact> 0.21939690E-04</totfact>
</mgrwt>
<clustering>
<clus scale="   48.200">  1  6  2 -1</clus>
<clus scale="  463.228">  4  5 -1 -1</clus>
<clus scale="  300.000">  1  4  2 -1</clus>
</clustering>
</event>
<event>
 6    1  0.9480355E-012  0.3000000E+03  0.7818608E-02  0.1093470E+00
          1   -1    0    0  502    0  0.00000000000E+00  0.00000000000E+00  0.23219914713E+03  0.23219914713E+03  0.00000000000E+00 0.  1.
         13   -1    0    0    0    0 -0.00000000000E+00 -0.00000000000E+00 -0.27500000000E+03  0.27500000000E+03  0.00000000000E+00 0.  1.
    9000005    2    1    2  501    0 -0.34887245285E+02 -0.11959290387E+02 -0.54197282608E+02  0.46859832951E+03  0.46399019868E+03 0.  0.
         13    1    3    3    0    0  0.21353095708E+03  0.21749135109E+02 -0.30372179252E+02  0.21677399240E+03  0.00000000000E+00 0.  1.
          3    1    3    3  501    0 -0.24841820236E+03 -0.33708425497E+02 -0.23825103356E+02  0.25182433712E+03  0.00000000000E+00 0.  1.
         21    1    1    2  502  501  0.34887245285E+02  0.11959290387E+02  0.11396429743E+02  0.38600817621E+02  0.00000000000E+00 0. -1.
<scales pt_clust_4="550.00000" pt_clust_5="550.00000" pt_clust_6="36.88014"></scales>
<mgrwt>
<rscale>  0 0.30000000E+03</rscale>
<asrwt>  1 0.36880137E+02</asrwt>
<pdfrwt beam="1">  1        1 0.84436054E+00 0.30000000E+03</pdfrwt>
<pdfrwt beam="2">0</pdfrwt>
<totfact> 0.45320635E-04</totfact>
</mgrwt>
<clustering>
<clus scale="   36.880">  1  6  2 -1</clus>
<clus scale="  463.990">  4  5 -1 -1</clus>
<clus scale="  300.000">  1  4  2 -1</clus>
</clustering>
</event>
<event>
 6    1  0.9480355E-012  0.3000000E+03  0.7818608E-02  0.1093470E+00
          1   -1    0    0  502    0  0.00000000000E+00  0.00000000000E+00  0.24644245852E+03  0.24644245852E+03  0.00000000000E+00 0.  1.
         13   -1    0    0    0    0 -0.00000000000E+00 -0.00000000000E+00 -0.27500000000E+03  0.27500000000E+03  0.00000000000E+00 0.  1.
    9000005    2    1    2  501    0 -0.35611655607E+02  0.17841836443E+02 -0.56667077538E+02  0.47269138510E+03  0.46758899337E+03 0.  0.
         13    1    3    3    0    0  0.18319817052E+03 -0.11067773733E+03 -0.44664543528E+02  0.21864595279E+03  0.00000000000E+00 0.  1.
          3    1    3    3  501    0 -0.21880982613E+03  0.12851957377E+03 -0.12002534010E+02  0.25404543231E+03  0.00000000000E+00 0.  1.
         21    1    1    2  502  501  0.35611655607E+02 -0.17841836443E+02  0.28109536061E+02  0.48751073427E+02  0.00000000000E+00 0. -1.
<scales pt_clust_4="550.00000" pt_clust_5="550.00000" pt_clust_6="39.83116"></scales>
<mgrwt>
<rscale>  0 0.30000000E+03</rscale>
<asrwt>  1 0.39831158E+02</asrwt>
<pdfrwt beam="1">  1        1 0.89615439E+00 0.30000000E+03</pdfrwt>
<pdfrwt beam="2">0</pdfrwt>
<totfact> 0.11951493E-04</totfact>
</mgrwt>
<clustering>
<clus scale="   39.831">  1  6  2 -1</clus>
<clus scale="  467.589">  4  5 -1 -1</clus>
<clus scale="  300.000">  1  4  2 -1</clus>
</clustering>
</event>
<event>
 6    1  0.9480355E-012  0.3000000E+03  0.7818608E-02  0.1093470E+00
          1   -1    0    0  502    0  0.00000000000E+00  0.00000000000E+00  0.23220591349E+03  0.23220591349E+03  0.00000000000E+00 0.  1.
         13   -1    0    0    0    0 -0.00000000000E+00 -0.00000000000E+00 -0.27500000000E+03  0.27500000000E+03  0.00000000000E+00 0.  1.
    9000005    2    1    2  501    0  0.14936763234E+02  0.28810656708E+02 -0.52332348950E+02  0.47338078546E+03  0.46935863949E+03 0.  0.
         13    1    3    3    0    0  0.22853554899E+02  0.22498345103E+03 -0.13160539672E+03  0.26164827279E+03  0.00000000000E+00 0.  1.
          1    1    3    3  501    0 -0.79167916643E+01 -0.19617279432E+03  0.79273047766E+02  0.21173251267E+03  0.00000000000E+00 0.  1.
         21    1    1    2  502  501 -0.14936763234E+02 -0.28810656708E+02  0.95382624409E+01  0.33825128030E+02  0.00000000000E+00 0.  1.
<scales pt_clust_4="550.00000" pt_clust_5="550.00000" pt_clust_6="32.45244"></scales>
<mgrwt>
<rscale>  0 0.30000000E+03</rscale>
<asrwt>  1 0.32452440E+02</asrwt>
<pdfrwt beam="1">  1        1 0.84438514E+00 0.30000000E+03</pdfrwt>
<pdfrwt beam="2">0</pdfrwt>
<totfact> 0.46397569E-04</totfact>
</mgrwt>
<clustering>
<clus scale="   32.452">  1  6  2 -1</clus>
<clus scale="  469.359">  4  5 -1 -1</clus>
<clus scale="  300.000">  1  4  2 -1</clus>
</clustering>
</event>
<event>
 6    1  0.9480355E-012  0.3000000E+03  0.7818608E-02  0.1093470E+00
          1   -1    0    0  502    0  0.00000000000E+00  0.00000000000E+00  0.23979043910E+03  0.23979043910E+03  0.00000000000E+00 0.  1.
         13   -1    0    0    0    0 -0.00000000000E+00 -0.00000000000E+00 -0.27500000000E+03  0.27500000000E+03  0.00000000000E+00 0.  1.
    9000005    2    1    2  501    0 -0.80112851755E+00 -0.52636423711E+02 -0.26940543588E+02  0.46150243337E+03  0.45769800984E+03 0.  0.
         13    1    3    3    0    0 -0.30203573731E+02 -0.24859014303E+03  0.37345379226E+02  0.25318766247E+03  0.00000000000E+00 0.  1.
          1    1    3    3  501    0  0.29402445213E+02  0.19595371932E+03 -0.64285922814E+02  0.20831477089E+03  0.00000000000E+00 0.  1.
         21    1    1    2  502  501  0.80112851755E+00  0.52636423711E+02 -0.82690173090E+01  0.53288005735E+02  0.00000000000E+00 0.  1.
<scales pt_clust_4="550.00000" pt_clust_5="550.00000" pt_clust_6="52.64255"></scales>
<mgrwt>
<rscale>  0 0.30000000E+03</rscale>
<asrwt>  1 0.52642546E+02</asrwt>
<pdfrwt beam="1">  1        1 0.87196523E+00 0.30000000E+03</pdfrwt>
<pdfrwt beam="2">0</pdfrwt>
<totfact> 0.22466384E-04</totfact>
</mgrwt>
<clustering>
<clus scale="   52.643">  1  6  2 -1</clus>
<clus scale="  457.698">  4  5 -1 -1</clus>
<clus scale="  300.000">  1  4  2 -1</clus>
</clustering>
</event>
<event>
 6    1  0.9480355E-012  0.3000000E+03  0.7818608E-02  0.1093470E+00
          1   -1    0    0  502    0  0.00000000000E+00  0.00000000000E+00  0.23010435330E+03  0.23010435330E+03  0.00000000000E+00 0.  1.
         13   -1    0    0    0    0 -0.00000000000E+00 -0.00000000000E+00 -0.27500000000E+03  0.27500000000E+03  0.00000000000E+00 0.  1.
    9000005    2    1    2  501    0  0.29155963635E+02 -0.11177700969E+02 -0.47614964754E+02  0.47376099826E+03  0.47032678787E+03 0.  0.
         13    1    3    3    0    0  0.20528028663E+03  0.90415122178E+02 -0.12430997691E+03  0.25645245321E+03  0.00000000000E+00 0.  1.
          1    1    3    3  501    0 -0.17612432299E+03 -0.10159282315E+03  0.76695012154E+02  0.21730854506E+03  0.00000000000E+00 0.  1.
         21    1    1    2  502  501 -0.29155963635E+02  0.11177700969E+02  0.27193180542E+01  0.31343355039E+02  0.00000000000E+00 0. -1.
<scales pt_clust_4="550.00000" pt_clust_5="550.00000" pt_clust_6="31.22517"></scales>
<mgrwt>
<rscale>  0 0.30000000E+03</rscale>
<asrwt>  1 0.31225170E+02</asrwt>
<pdfrwt beam="1">  1        1 0.83674310E+00 0.30000000E+03</pdfrwt>
<pdfrwt beam="2">0</pdfrwt>
<totfact> 0.53690097E-04</totfact>
</mgrwt>
<clustering>
<clus scale="   31.225">  1  6  2 -1</clus>
<clus scale="  470.327">  4  5 -1 -1</clus>
<clus scale="  300.000">  1  4  2 -1</clus>
</clustering>
</event>
<event>
 6    1  0.9480355E-012  0.3000000E+03  0.7818608E-02  0.1093470E+00
          1   -1    0    0  502    0  0.00000000000E+00  0.00000000000E+00  0.22238692605E+03  0.22238692605E+03  0.00000000000E+00 0.  1.
         13   -1    0    0    0    0 -0.00000000000E+00 -0.00000000000E+00 -0.27500000000E+03  0.27500000000E+03  0.00000000000E+00 0.  1.
    9000005    2    1    2  501    0 -0.28530633864E+02 -0.17589355275E+02 -0.57012559738E+02  0.46358251860E+03  0.45884086250E+03 0.  0.
         13    1    3    3    0    0  0.16174377112E+03 -0.57448610297E+02  0.11285412701E+03  0.20542016528E+03  0.00000000000E+00 0.  1.
          1    1    3    3  501    0 -0.19027440498E+03  0.39859255022E+02 -0.16986668675E+03  0.25816235332E+03  0.00000000000E+00 0.  1.
         21    1    1    2  502  501  0.28530633864E+02  0.17589355275E+02  0.43994857874E+01  0.33804407448E+02  0.00000000000E+00 0. -1.
<scales pt_clust_4="550.00000" pt_clust_5="550.00000" pt_clust_6="33.51690"></scales>
<mgrwt>
<rscale>  0 0.30000000E+03</rscale>
<asrwt>  1 0.33516899E+02</asrwt>
<pdfrwt beam="1">  1        1 0.80867973E+00 0.30000000E+03</pdfrwt>
<pdfrwt beam="2">0</pdfrwt>
<totfact> 0.90027760E-04</totfact>
</mgrwt>
<clustering>
<clus scale="   33.517">  1  6  2 -1</clus>
<clus scale="  458.841">  4  5 -1 -1</clus>
<clus scale="  300.000">  1  4  2 -1</clus>
</clustering>
</event>
<event>
 6    1  0.9480355E-012  0.3000000E+03  0.7818608E-02  0.1093470E+00
          1   -1    0    0  502    0  0.00000000000E+00  0.00000000000E+00  0.22650106579E+03  0.22650106579E+03  0.00000000000E+00 0.  1.
         13   -1    0    0    0    0 -0.00000000000E+00 -0.00000000000E+00 -0.27500000000E+03  0.27500000000E+03  0.00000000000E+00 0.  1.
    9000005    2    1    2  501    0  0.86717440319E+01 -0.30533769402E+02 -0.42269121581E+02  0.46915418365E+03  0.46616677186E+03 0.  0.
         13    1    3    3    0    0  0.21057306614E+02 -0.21462885597E+03  0.98487116946E+02  0.23708367337E+03  0.00000000000E+00 0.  1.
          1    1    3    3  501    0 -0.12385562582E+02  0.18409508656E+03 -0.14075623853E+03  0.23207051028E+03  0.00000000000E+00 0.  1.
         21    1    1    2  502  501 -0.86717440319E+01  0.30533769402E+02 -0.62298126305E+01  0.32346882135E+02  0.00000000000E+00 0.  1.
<scales pt_clust_4="550.00000" pt_clust_5="550.00000" pt_clust_6="31.74132"></scales>
<mgrwt>
<rscale>  0 0.30000000E+03</rscale>
<asrwt>  1 0.31741317E+02</asrwt>
<pdfrwt beam="1">  1        1 0.82364024E+00 0.30000000E+03</pdfrwt>
<pdfrwt beam="2">0</pdfrwt>
<totfact> 0.68420610E-04</totfact>
</mgrwt>
<clustering>
<clus scale="   31.741">  1  6  2 -1</clus>
<clus scale="  466.167">  4  5 -1 -1</clus>
<clus scale="  300.000">  1  4  2 -1</clus>
</clustering>
</event>
<event>
 6    1  0.9480355E-012  0.3000000E+03  0.7818608E-02  0.1093470E+00
          1   -1    0    0  502    0  0.00000000000E+00  0.00000000000E+00  0.22236348555E+03  0.22236348555E+03  0.00000000000E+00 0.  1.
         13   -1    0    0    0    0 -0.00000000000E+00 -0.00000000000E+00 -0.27500000000E+03  0.27500000000E+03  0.00000000000E+00 0.  1.
    9000005    2    1    2  501    0  0.34652450109E+02 -0.66658068088E+01 -0.51450130534E+02  0.46205579821E+03  0.45782444173E+03 0.  0.
         13    1    3    3    0    0  0.16306547480E+03 -0.33315933151E+02 -0.20243189308E+03  0.26206673159E+03  0.00000000000E+00 0.  1.
          3    1    3    3  501    0 -0.12841302469E+03  0.26650126343E+02  0.15098176254E+03  0.19998906661E+03  0.00000000000E+00 0.  1.
         21    1    1    2  502  501 -0.34652450109E+02  0.66658068088E+01 -0.11863839137E+01  0.35307687346E+02  0.00000000000E+00 0.  1.
<scales pt_clust_4="550.00000" pt_clust_5="550.00000" pt_clust_6="35.28775"></scales>
<mgrwt>
<rscale>  0 0.30000000E+03</rscale>
<asrwt>  1 0.35287750E+02</asrwt>
<pdfrwt beam="1">  1        1 0.80859449E+00 0.30000000E+03</pdfrwt>
<pdfrwt beam="2">0</pdfrwt>
<totfact> 0.89297807E-04</totfact>
</mgrwt>
<clustering>
<clus scale="   35.288">  1  6  2 -1</clus>
<clus scale="  457.824">  4  5 -1 -1</clus>
<clus scale="  300.000">  1  4  2 -1</clus>
</clustering>
</event>
<event>
 6    1  0.9480355E-012  0.3000000E+03  0.7818608E-02  0.1093470E+00
          1   -1    0    0  502    0  0.00000000000E+00  0.00000000000E+00  0.23202525310E+03  0.23202525310E+03  0.00000000000E+00 0.  1.
         13   -1    0    0    0    0 -0.00000000000E+00 -0.00000000000E+00 -0.27500000000E+03  0.27500000000E+03  0.00000000000E+00 0.  1.
    9000005    2    1    2  501    0 -0.29345579861E+01  0.39313691304E+02 -0.48345204989E+02  0.46723807207E+03  0.46305504985E+03 0.  0.
         13    1    3    3    0    0 -0.19966369927E+03 -0.65532151552E+02 -0.10827809206E+03  0.23639839448E+03  0.00000000000E+00 0.  1.
          3    1    3    3  501    0  0.19672914128E+03  0.10484584286E+03  0.59932887072E+02  0.23083967758E+03  0.00000000000E+00 0.  1.
         21    1    1    2  502  501  0.29345579861E+01 -0.39313691304E+02  0.53704580875E+01  0.39787181033E+02  0.00000000000E+00 0. -1.
<scales pt_clust_4="550.00000" pt_clust_5="550.00000" pt_clust_6="39.42306"></scales>
<mgrwt>
<rscale>  0 0.30000000E+03</rscale>
<asrwt>  1 0.39423064E+02</asrwt>
<pdfrwt beam="1">  1        1 0.84372819E+00 0.30000000E+03</pdfrwt>
<pdfrwt beam="2">0</pdfrwt>
<totfact> 0.45331312E-04</totfact>
</mgrwt>
<clustering>
<clus scale="   39.423">  1  6  2 -1</clus>
<clus scale="  463.055">  4  5 -1 -1</clus>
<clus scale="  300.000">  1  4  2 -1</clus>
</clustering>
</event>
<event>
 6    1  0.9480355E-012  0.3000000E+03  0.7818608E-02  0.1093470E+00
          1   -1    0    0  502    0  0.00000000000E+00  0.00000000000E+00  0.24454193052E+03  0.24454193052E+03  0.00000000000E+00 0.  1.
         13   -1    0    0    0    0 -0.00000000000E+00 -0.00000000000E+00 -0.27500000000E+03  0.27500000000E+03  0.00000000000E+00 0.  1.
    9000005    2    1    2  501    0 -0.38920263349E+02 -0.20204374047E+02 -0.35632450391E+02  0.47538564164E+03  0.47201571280E+03 0.  0.
         13    1    3    3    0    0  0.94577778936E+02  0.42608578500E+02  0.18374946185E+03  0.21100784810E+03  0.00000000000E+00 0.  1.
          1    1    3    3  501    0 -0.13349804228E+03 -0.62812952546E+02 -0.21938191224E+03  0.26437779354E+03  0.00000000000E+00 0.  1.
         21    1    1    2  502  501  0.38920263349E+02  0.20204374047E+02  0.51743809144E+01  0.44156288880E+02  0.00000000000E+00 0.  1.
<scales pt_clust_4="550.00000" pt_clust_5="550.00000" pt_clust_6="43.85207"></scales>
<mgrwt>
<rscale>  0 0.30000000E+03</rscale>
<asrwt>  1 0.43852065E+02</asrwt>
<pdfrwt beam="1">  1        1 0.88924338E+00 0.30000000E+03</pdfrwt>
<pdfrwt beam="2">0</pdfrwt>
<totfact> 0.14237962E-04</totfact>
</mgrwt>
<clustering>
<clus scale="   43.852">  1  6  2 -1</clus>
<clus scale="  472.016">  4  5 -1 -1</clus>
<clus scale="  300.000">  1  4  2 -1</clus>
</clustering>
</event>
<event>
 6    1  0.9480355E-012  0.3000000E+03  0.7818608E-02  0.1093470E+00
          1   -1    0    0  502    0  0.00000000000E+00  0.00000000000E+00  0.22242869582E+03  0.22242869582E+03  0.00000000000E+00 0.  1.
         13   -1    0    0    0    0 -0.00000000000E+00 -0.00000000000E+00 -0.27500000000E+03  0.27500000000E+03  0.00000000000E+00 0.  1.
    9000005    2    1    2  501    0 -0.34247714059E+00  0.31982510204E+02 -0.67276287367E+02  0.46222592917E+03  0.45618385823E+03 0.  0.
         13    1    3    3    0    0  0.64716327168E+00  0.65233852953E+02 -0.25928028780E+03  0.26736144455E+03  0.00000000000E+00 0.  1.
          1    1    3    3  501    0 -0.98964041226E+00 -0.33251342749E+02  0.19200400043E+03  0.19486448462E+03  0.00000000000E+00 0.  1.
         21    1    1    2  502  501  0.34247714059E+00 -0.31982510204E+02  0.14704983192E+02  0.35202766655E+02  0.00000000000E+00 0. -1.
<scales pt_clust_4="550.00000" pt_clust_5="550.00000" pt_clust_6="31.98434"></scales>
<mgrwt>
<rscale>  0 0.30000000E+03</rscale>
<asrwt>  1 0.31984344E+02</asrwt>
<pdfrwt beam="1">  1        1 0.80883162E+00 0.30000000E+03</pdfrwt>
<pdfrwt beam="2">0</pdfrwt>
<totfact> 0.90583523E-04</totfact>
</mgrwt>
<clustering>
<clus scale="   31.984">  1  6  2 -1</clus>
<clus scale="  456.184">  4  5 -1 -1</clus>
<clus scale="  300.000">  1  4  2 -1</clus>
</clustering>
</event>
<event>
 6    1  0.9480355E-012  0.3000000E+03  0.7818608E-02  0.1093470E+00
          1   -1    0    0  502    0  0.00000000000E+00  0.00000000000E+00  0.24740036585E+03  0.24740036585E+03  0.00000000000E+00 0.  1.
         13   -1    0    0    0    0 -0.00000000000E+00 -0.00000000000E+00 -0.27500000000E+03  0.27500000000E+03  0.00000000000E+00 0.  1.
    9000005    2    1    2  501    0  0.23107360684E+02  0.19134690024E+02 -0.51793443657E+02  0.48385912951E+03  0.48014269746E+03 0.  0.
         13    1    3    3    0    0 -0.77614555701E+01  0.21705819666E+03 -0.14680069007E+03  0.26215442688E+03  0.00000000000E+00 0.  1.
          3    1    3    3  501    0  0.30868816254E+02 -0.19792350664E+03  0.95007246414E+02  0.22170470263E+03  0.00000000000E+00 0.  1.
         21    1    1    2  502  501 -0.23107360684E+02 -0.19134690024E+02  0.24193809506E+02  0.38541236338E+02  0.00000000000E+00 0.  1.
<scales pt_clust_4="550.00000" pt_clust_5="550.00000" pt_clust_6="30.00144"></scales>
<mgrwt>
<rscale>  0 0.30000000E+03</rscale>
<asrwt>  1 0.30001441E+02</asrwt>
<pdfrwt beam="1">  1        1 0.89963769E+00 0.30000000E+03</pdfrwt>
<pdfrwt beam="2">0</pdfrwt>
<totfact> 0.11490476E-04</totfact>
</mgrwt>
<clustering>
<clus scale="   30.001">  1  6  2 -1</clus>
<clus scale="  480.143">  4  5 -1 -1</clus>
<clus scale="  300.000">  1  4  2 -1</clus>
</clustering>
</event>
<event>
 6    1  0.9480355E-012  0.3000000E+03  0.7818608E-02  0.1093470E+00
          1   -1    0    0  502    0  0.00000000000E+00  0.00000000000E+00  0.24362004132E+03  0.24362004132E+03  0.00000000000E+00 0.  1.
         13   -1    0    0    0    0 -0.00000000000E+00 -0.00000000000E+00 -0.27500000000E+03  0.27500000000E+03  0.00000000000E+00 0.  1.
    9000005    2    1    2  501    0  0.28748534447E+02  0.11022428740E+02 -0.22718943782E+02  0.48663589919E+03  0.48512923619E+03 0.  0.
         13    1    3    3    0    0 -0.16549111220E+02 -0.22573651067E+03 -0.77853925400E+02  0.23935763834E+03  0.00000000000E+00 0.  1.
          1    1    3    3  501    0  0.45297645667E+02  0.23675893941E+03  0.55134981618E+02  0.24727826085E+03  0.00000000000E+00 0.  1.
         21    1    1    2  502  501 -0.28748534447E+02 -0.11022428740E+02 -0.86610149026E+01  0.31984142123E+02  0.00000000000E+00 0.  1.
<scales pt_clust_4="550.00000" pt_clust_5="550.00000" pt_clust_6="30.78917"></scales>
<mgrwt>
<rscale>  0 0.30000000E+03</rscale>
<asrwt>  1 0.30789172E+02</asrwt>
<pdfrwt beam="1">  1        1 0.88589106E+00 0.30000000E+03</pdfrwt>
<pdfrwt beam="2">0</pdfrwt>
<totfact> 0.16904005E-04</totfact>
</mgrwt>
<clustering>
<clus scale="   30.789">  1  6  2 -1</clus>
<clus scale="  485.129">  4  5 -1 -1</clus>
<clus scale="  300.000">  1  4  2 -1</clus>
</clustering>
</event>
<event>
 6    1  0.9480355E-012  0.3000000E+03  0.7818608E-02  0.1093470E+00
          1   -1    0    0  502    0  0.00000000000E+00  0.00000000000E+00  0.23957205188E+03  0.23957205188E+03  0.00000000000E+00 0.  1.
         13   -1    0    0    0    0 -0.00000000000E+00 -0.00000000000E+00 -0.27500000000E+03  0.27500000000E+03  0.00000000000E+00 0.  1.
    9000005    2    1    2  501    0  0.28096289738E+02  0.22700449620E+02 -0.56173755847E+02  0.47291751493E+03  0.46817814256E+03 0.  0.
         13    1    3    3    0    0  0.20546671099E+03  0.29257140190E+02 -0.16463518378E+03  0.26490997210E+03  0.00000000000E+00 0.  1.
          1    1    3    3  501    0 -0.17737042126E+03 -0.65566905701E+01  0.10846142793E+03  0.20800754284E+03  0.00000000000E+00 0.  1.
         21    1    1    2  502  501 -0.28096289738E+02 -0.22700449620E+02  0.20745807722E+02  0.41654536944E+02  0.00000000000E+00 0.  1.
<scales pt_clust_4="550.00000" pt_clust_5="550.00000" pt_clust_6="36.12080"></scales>
<mgrwt>
<rscale>  0 0.30000000E+03</rscale>
<asrwt>  1 0.36120796E+02</asrwt>
<pdfrwt beam="1">  1        1 0.87117110E+00 0.30000000E+03</pdfrwt>
<pdfrwt beam="2">0</pdfrwt>
<totfact> 0.24492897E-04</totfact>
</mgrwt>
<clustering>
<clus scale="   36.121">  1  6  2 -1</clus>
<clus scale="  468.178">  4  5 -1 -1</clus>
<clus scale="  300.000">  1  4  2 -1</clus>
</clustering>
</event>
<event>
 6    1  0.9480355E-012  0.3000000E+03  0.7818608E-02  0.1093470E+00
          1   -1    0    0  502    0  0.00000000000E+00  0.00000000000E+00  0.22233764466E+03  0.22233764466E+03  0.00000000000E+00 0.  1.
         13   -1    0    0    0    0 -0.00000000000E+00 -0.00000000000E+00 -0.27500000000E+03  0.27500000000E+03  0.00000000000E+00 0.  1.
    9000005    2    1    2  501    0  0.63583660865E+01  0.29792671036E+02 -0.62738141824E+02  0.46525098793E+03  0.45999388611E+03 0.  0.
         13    1    3    3    0    0  0.20601520842E+03  0.67683525972E+02  0.63572385062E+02  0.22597516220E+03  0.00000000000E+00 0.  1.
          1    1    3    3  501    0 -0.19965684233E+03 -0.37890854936E+02 -0.12631052689E+03  0.23927582573E+03  0.00000000000E+00 0.  1.
         21    1    1    2  502  501 -0.63583660865E+01 -0.29792671036E+02  0.10075786481E+02  0.32086656728E+02  0.00000000000E+00 0. -1.
<scales pt_clust_4="550.00000" pt_clust_5="550.00000" pt_clust_6="30.46362"></scales>
<mgrwt>
<rscale>  0 0.30000000E+03</rscale>
<asrwt>  1 0.30463619E+02</asrwt>
<pdfrwt beam="1">  1        1 0.80850053E+00 0.30000000E+03</pdfrwt>
<pdfrwt beam="2">0</pdfrwt>
<totfact> 0.91972021E-04</totfact>
</mgrwt>
<clustering>
<clus scale="   30.464">  1  6  2 -1</clus>
<clus scale="  459.994">  4  5 -1 -1</clus>
<clus scale="  300.000">  1  4  2 -1</clus>
</clustering>
</event>
<event>
 6    1  0.9480355E-012  0.3000000E+03  0.7818608E-02  0.1093470E+00
          1   -1    0    0  502    0  0.00000000000E+00  0.00000000000E+00  0.23803620078E+03  0.23803620078E+03  0.00000000000E+00 0.  1.
         13   -1    0    0    0    0 -0.00000000000E+00 -0.00000000000E+00 -0.27500000000E+03  0.27500000000E+03  0.00000000000E+00 0.  1.
    9000005    2    1    2  501    0  0.41667370522E+02 -0.22724599638E+01 -0.51201521750E+02  0.46894485715E+03  0.46426969465E+03 0.  0.
         13    1    3    3    0    0 -0.51855388499E+01  0.93747095643E+02 -0.23683164119E+03  0.25476387896E+03  0.00000000000E+00 0.  1.
          1    1    3    3  501    0  0.46852909372E+02 -0.96019555606E+02  0.18563011944E+03  0.21418097819E+03  0.00000000000E+00 0.  1.
         21    1    1    2  502  501 -0.41667370522E+02  0.22724599638E+01  0.14237722531E+02  0.44091343634E+02  0.00000000000E+00 0.  1.
<scales pt_clust_4="550.00000" pt_clust_5="550.00000" pt_clust_6="41.72929"></scales>
<mgrwt>
<rscale>  0 0.30000000E+03</rscale>
<asrwt>  1 0.41729292E+02</asrwt>
<pdfrwt beam="1">  1        1 0.86558618E+00 0.30000000E+03</pdfrwt>
<pdfrwt beam="2">0</pdfrwt>
<totfact> 0.27262379E-04</totfact>
</mgrwt>
<clustering>
<clus scale="   41.729">  1  6  2 -1</clus>
<clus scale="  464.270">  4  5 -1 -1</clus>
<clus scale="  300.000">  1  4  2 -1</clus>
</clustering>
</event>
<event>
 6    1  0.9480355E-012  0.3000000E+03  0.7818608E-02  0.1093470E+00
          1   -1    0    0  502    0  0.00000000000E+00  0.00000000000E+00  0.23051738478E+03  0.23051738478E+03  0.00000000000E+00 0.  1.
         13   -1    0    0    0    0 -0.00000000000E+00 -0.00000000000E+00 -0.27500000000E+03  0.27500000000E+03  0.00000000000E+00 0.  1.
    9000005    2    1    2  501    0  0.27216057671E+02  0.20469918370E+02 -0.23682031709E+02  0.46561255265E+03  0.46376123081E+03 0.  0.
         13    1    3    3    0    0 -0.14262506749E+03 -0.25938949237E+02  0.15675222576E+03  0.21350878025E+03  0.00000000000E+00 0.  1.
          1    1    3    3  501    0  0.16984112516E+03  0.46408867607E+02 -0.18043425747E+03  0.25210377240E+03  0.00000000000E+00 0.  1.
         21    1    1    2  502  501 -0.27216057671E+02 -0.20469918370E+02 -0.20800583509E+02  0.39904832133E+02  0.00000000000E+00 0. -1.
<scales pt_clust_4="550.00000" pt_clust_5="550.00000" pt_clust_6="34.05485"></scales>
<mgrwt>
<rscale>  0 0.30000000E+03</rscale>
<asrwt>  1 0.34054846E+02</asrwt>
<pdfrwt beam="1">  1        1 0.83824504E+00 0.30000000E+03</pdfrwt>
<pdfrwt beam="2">0</pdfrwt>
<totfact> 0.51497807E-04</totfact>
</mgrwt>
<clustering>
<clus scale="   34.055">  1  6  2 -1</clus>
<clus scale="  463.761">  4  5 -1 -1</clus>
<clus scale="  300.000">  1  4  2 -1</clus>
</clustering>
</event>
<event>
 6    1  0.9480355E-012  0.3000000E+03  0.7818608E-02  0.1093470E+00
          1   -1    0    0  502    0  0.00000000000E+00  0.00000000000E+00  0.23679411950E+03  0.23679411950E+03  0.00000000000E+00 0.  1.
         13   -1    0    0    0    0 -0.00000000000E+00 -0.00000000000E+00 -0.27500000000E+03  0.27500000000E+03  0.00000000000E+00 0.  1.
    9000005    2    1    2  501    0  0.42053511034E+01  0.33524619989E+02 -0.30583700115E+02  0.47715768266E+03  0.47497632181E+03 0.  0.
         13    1    3    3    0    0 -0.13709451622E+03  0.14994422564E+03 -0.15521942967E+03  0.25567801730E+03  0.00000000000E+00 0.  1.
          3    1    3    3  501    0  0.14129986733E+03 -0.11641960565E+03  0.12463572956E+03  0.22147966536E+03  0.00000000000E+00 0.  1.
         21    1    1    2  502  501 -0.42053511034E+01 -0.33524619989E+02 -0.76221803848E+01  0.34636436842E+02  0.00000000000E+00 0. -1.
<scales pt_clust_4="550.00000" pt_clust_5="550.00000" pt_clust_6="33.78737"></scales>
<mgrwt>
<rscale>  0 0.30000000E+03</rscale>
<asrwt>  1 0.33787368E+02</asrwt>
<pdfrwt beam="1">  1        1 0.86106953E+00 0.30000000E+03</pdfrwt>
<pdfrwt beam="2">0</pdfrwt>
<totfact> 0.31713192E-04</totfact>
</mgrwt>
<clustering>
<clus scale="   33.787">  1  6  2 -1</clus>
<clus scale="  474.976">  4  5 -1 -1</clus>
<clus scale="  300.000">  1  4  2 -1</clus>
</clustering>
</event>
<event>
 6    1  0.9480355E-012  0.3000000E+03  0.7818608E-02  0.1093470E+00
          1   -1    0    0  502    0  0.00000000000E+00  0.00000000000E+00  0.24350787009E+03  0.24350787009E+03  0.00000000000E+00 0.  1.
         13   -1    0    0    0    0 -0.00000000000E+00 -0.00000000000E+00 -0.27500000000E+03  0.27500000000E+03  0.00000000000E+00 0.  1.
    9000005    2    1    2  501    0  0.17810136786E+02  0.26159221185E+02 -0.29242312862E+02  0.48678142210E+03  0.48487063658E+03 0.  0.
         13    1    3    3    0    0  0.12306351872E+03  0.20124013336E+03 -0.11834869390E+03  0.26391027691E+03  0.00000000000E+00 0.  1.
          1    1    3    3  501    0 -0.10525338193E+03 -0.17508091217E+03  0.89106381036E+02  0.22287114519E+03  0.00000000000E+00 0.  1.
         21    1    1    2  502  501 -0.17810136786E+02 -0.26159221185E+02 -0.22498170485E+01  0.31726447990E+02  0.00000000000E+00 0.  1.
<scales pt_clust_4="550.00000" pt_clust_5="550.00000" pt_clust_6="31.64659"></scales>
<mgrwt>
<rscale>  0 0.30000000E+03</rscale>
<asrwt>  1 0.31646593E+02</asrwt>
<pdfrwt beam="1">  1        1 0.88548316E+00 0.30000000E+03</pdfrwt>
<pdfrwt beam="2">0</pdfrwt>
<totfact> 0.17034410E-04</totfact>
</mgrwt>
<clustering>
<clus scale="   31.647">  1  6  2 -1</clus>
<clus scale="  484.871">  4  5 -1 -1</clus>
<clus scale="  300.000">  1  4  2 -1</clus>
</clustering>
</event>
<event>
 6    1  0.9480355E-012  0.3000000E+03  0.7818608E-02  0.1093470E+00
          1   -1    0    0  502    0  0.00000000000E+00  0.00000000000E+00  0.24583894659E+03  0.24583894659E+03  0.00000000000E+00 0.  1.
         13   -1    0    0    0    0 -0.00000000000E+00 -0.00000000000E+00 -0.27500000000E+03  0.27500000000E+03  0.00000000000E+00 0.  1.
    9000005    2    1    2  501    0  0.36483360378E+02 -0.13912022230E+02 -0.49623542338E+02  0.47675614495E+03  0.47255618274E+03 0.  0.
         13    1    3    3    0    0  0.17146379788E+03 -0.18568762938E+03 -0.53109926190E+02  0.25826419409E+03  0.00000000000E+00 0.  1.
          1    1    3    3  501    0 -0.13498043750E+03  0.17177560715E+03  0.34863838519E+01  0.21849195086E+03  0.00000000000E+00 0.  1.
         21    1    1    2  502  501 -0.36483360378E+02  0.13912022230E+02  0.20462488928E+02  0.44082801637E+02  0.00000000000E+00 0.  1.
<scales pt_clust_4="550.00000" pt_clust_5="550.00000" pt_clust_6="39.04587"></scales>
<mgrwt>
<rscale>  0 0.30000000E+03</rscale>
<asrwt>  1 0.39045870E+02</asrwt>
<pdfrwt beam="1">  1        1 0.89395981E+00 0.30000000E+03</pdfrwt>
<pdfrwt beam="2">0</pdfrwt>
<totfact> 0.12696046E-04</totfact>
</mgrwt>
<clustering>
<clus scale="   39.046">  1  6  2 -1</clus>
<clus scale="  472.556">  4  5 -1 -1</clus>
<clus scale="  300.000">  1  4  2 -1</clus>
</clustering>
</event>
<event>
 6    1  0.9480355E-012  0.3000000E+03  0.7818608E-02  0.1093470E+00
          1   -1    0    0  502    0  0.00000000000E+00  0.00000000000E+00  0.23173999044E+03  0.23173999044E+03  0.00000000000E+00 0.  1.
         13   -1    0    0    0    0 -0.00000000000E+00 -0.00000000000E+00 -0.27500000000E+03  0.27500000000E+03  0.00000000000E+00 0.  1.
    9000005    2    1    2  501    0  0.38024537816E+02 -0.16727441273E+01 -0.48042764502E+02  0.46837935575E+03  0.46435164490E+03 0.  0.
         13    1    3    3    0    0 -0.54756073120E+02 -0.72688413289E+02 -0.23269997710E+03  0.24986218664E+03  0.00000000000E+00 0.  1.
          1    1    3    3  501    0  0.92780610936E+02  0.71015669162E+02  0.18465721260E+03  0.21851716911E+03  0.00000000000E+00 0.  1.
         21    1    1    2  502  501 -0.38024537816E+02  0.16727441273E+01  0.47827549437E+01  0.38360634691E+02  0.00000000000E+00 0.  1.
<scales pt_clust_4="550.00000" pt_clust_5="550.00000" pt_clust_6="38.06131"></scales>
<mgrwt>
<rscale>  0 0.30000000E+03</rscale>
<asrwt>  1 0.38061313E+02</asrwt>
<pdfrwt beam="1">  1        1 0.84269087E+00 0.30000000E+03</pdfrwt>
<pdfrwt beam="2">0</pdfrwt>
<totfact> 0.46556160E-04</totfact>
</mgrwt>
<clustering>
<clus scale="   38.061">  1  6  2 -1</clus>
<clus scale="  464.352">  4  5 -1 -1</clus>
<clus scale="  300.000">  1  4  2 -1</clus>
</clustering>
</event>
<event>
 6    1  0.9480355E-012  0.3000000E+03  0.7818608E-02  0.1093470E+00
          1   -1    0    0  502    0  0.00000000000E+00  0.00000000000E+00  0.24610988331E+03  0.24610988331E+03  0.00000000000E+00 0.  1.
         13   -1    0    0    0    0 -0.00000000000E+00 -0.00000000000E+00 -0.27500000000E+03  0.27500000000E+03  0.00000000000E+00 0.  1.
    9000005    2    1    2  501    0  0.52246464476E+02  0.38414818585E+01 -0.39507224226E+02  0.46765735292E+03  0.46303145567E+03 0.  0.
         13    1    3    3    0    0 -0.18334696606E+03  0.72813034781E+02  0.54700450077E+02  0.20471928888E+03  0.00000000000E+00 0.  1.
          3    1    3    3  501    0  0.23559343054E+03 -0.68971552923E+02 -0.94207674303E+02  0.26293806404E+03  0.00000000000E+00 0.  1.
         21    1    1    2  502  501 -0.52246464476E+02 -0.38414818585E+01  0.10617107541E+02  0.53452530395E+02  0.00000000000E+00 0. -1.
<scales pt_clust_4="550.00000" pt_clust_5="550.00000" pt_clust_6="52.38750"></scales>
<mgrwt>
<rscale>  0 0.30000000E+03</rscale>
<asrwt>  1 0.52387499E+02</asrwt>
<pdfrwt beam="1">  1        1 0.89494503E+00 0.30000000E+03</pdfrwt>
<pdfrwt beam="2">0</pdfrwt>
<totfact> 0.11741436E-04</totfact>
</mgrwt>
<clustering>
<clus scale="   52.387">  1  6  2 -1</clus>
<clus scale="  463.031">  4  5 -1 -1</clus>
<clus scale="  300.000">  1  4  2 -1</clus>
</clustering>
</event>
<event>
 6    1  0.9480355E-012  0.3000000E+03  0.7818608E-02  0.1093470E+00
          1   -1    0    0  502    0  0.00000000000E+00  0.00000000000E+00  0.22536439120E+03  0.22536439120E+03  0.00000000000E+00 0.  1.
         13   -1    0    0    0    0 -0.00000000000E+00 -0.00000000000E+00 -0.27500000000E+03  0.27500000000E+03  0.00000000000E+00 0.  1.
    9000005    2    1    2  501    0 -0.23131487415E+02 -0.30221181411E+02 -0.41707955368E+02  0.46148980818E+03  0.45802282039E+03 0.  0.
         13    1    3    3    0    0  0.29023970798E+02  0.40625069401E+01 -0.24607005466E+03  0.24780913350E+03  0.00000000000E+00 0.  1.
          1    1    3    3  501    0 -0.52155458213E+02 -0.34283688351E+02  0.20436209929E+03  0.21368067469E+03  0.00000000000E+00 0.  1.
         21    1    1    2  502  501  0.23131487415E+02  0.30221181411E+02 -0.79276534297E+01  0.38874583018E+02  0.00000000000E+00 0.  1.
<scales pt_clust_4="550.00000" pt_clust_5="550.00000" pt_clust_6="38.05768"></scales>
<mgrwt>
<rscale>  0 0.30000000E+03</rscale>
<asrwt>  1 0.38057679E+02</asrwt>
<pdfrwt beam="1">  1        1 0.81950688E+00 0.30000000E+03</pdfrwt>
<pdfrwt beam="2">0</pdfrwt>
<totfact> 0.71914205E-04</totfact>
</mgrwt>
<clustering>
<clus scale="   38.058">  1  6  2 -1</clus>
<clus scale="  458.023">  4  5 -1 -1</clus>
<clus scale="  300.000">  1  4  2 -1</clus>
</clustering>
</event>
<event>
 6    1  0.9480355E-012  0.3000000E+03  0.7818608E-02  0.1093470E+00
          1   -1    0    0  502    0  0.00000000000E+00  0.00000000000E+00  0.23860780851E+03  0.23860780851E+03  0.00000000000E+00 0.  1.
         13   -1    0    0    0    0 -0.00000000000E+00 -0.00000000000E+00 -0.27500000000E+03  0.27500000000E+03  0.00000000000E+00 0.  1.
    9000005    2    1    2  501    0  0.90758466753E+01 -0.51635652793E+02 -0.37799634627E+02  0.46116171687E+03  0.45661001423E+03 0.  0.
         13    1    3    3    0    0  0.20893568526E+03 -0.43560869315E+02  0.81273844174E+02  0.22837930654E+03  0.00000000000E+00 0.  1.
          3    1    3    3  501    0 -0.19985983858E+03 -0.80747834779E+01 -0.11907347880E+03  0.23278241033E+03  0.00000000000E+00 0.  1.
         21    1    1    2  502  501 -0.90758466753E+01  0.51635652793E+02  0.14074431410E+01  0.52446091641E+02  0.00000000000E+00 0. -1.
<scales pt_clust_4="550.00000" pt_clust_5="550.00000" pt_clust_6="52.42720"></scales>
<mgrwt>
<rscale>  0 0.30000000E+03</rscale>
<asrwt>  1 0.52427203E+02</asrwt>
<pdfrwt beam="1">  1        1 0.86766476E+00 0.30000000E+03</pdfrwt>
<pdfrwt beam="2">0</pdfrwt>
<totfact> 0.24888101E-04</totfact>
</mgrwt>
<clustering>
<clus scale="   52.427">  1  6  2 -1</clus>
<clus scale="  456.610">  4  5 -1 -1</clus>
<clus scale="  300.000">  1  4  2 -1</clus>
</clustering>
</event>
<event>
 6    1  0.9480355E-012  0.3000000E+03  0.7818608E-02  0.1093470E+00
          1   -1    0    0  502    0  0.00000000000E+00  0.00000000000E+00  0.23212803256E+03  0.23212803256E+03  0.00000000000E+00 0.  1.
         13   -1    0    0    0    0 -0.00000000000E+00 -0.00000000000E+00 -0.27500000000E+03  0.27500000000E+03  0.00000000000E+00 0.  1.
    9000005    2    1    2  501    0  0.28435082690E+02 -0.31546291025E+02 -0.54368744813E+02  0.46312918832E+03  0.45796174759E+03 0.  0.
         13    1    3    3    0    0 -0.15878387693E+03 -0.14554463838E+03 -0.10276466902E+03  0.23865485232E+03  0.00000000000E+00 0.  1.
          3    1    3    3  501    0  0.18721895962E+03  0.11399834736E+03  0.48395924210E+02  0.22447433600E+03  0.00000000000E+00 0.  1.
         21    1    1    2  502  501 -0.28435082690E+02  0.31546291025E+02  0.11496777376E+02  0.43998844247E+02  0.00000000000E+00 0. -1.
<scales pt_clust_4="550.00000" pt_clust_5="550.00000" pt_clust_6="42.47025"></scales>
<mgrwt>
<rscale>  0 0.30000000E+03</rscale>
<asrwt>  1 0.42470253E+02</asrwt>
<pdfrwt beam="1">  1        1 0.84410194E+00 0.30000000E+03</pdfrwt>
<pdfrwt beam="2">0</pdfrwt>
<totfact> 0.44393527E-04</totfact>
</mgrwt>
<clustering>
<clus scale="   42.470">  1  6  2 -1</clus>
<clus scale="  457.962">  4  5 -1 -1</clus>
<clus scale="  300.000">  1  4  2 -1</clus>
</clustering>
</event>
<event>
 6    1  0.9480355E-012  0.3000000E+03  0.7818608E-02  0.1093470E+00
          1   -1    0    0  502    0  0.00000000000E+00  0.00000000000E+00  0.23427427357E+03  0.23427427357E+03  0.00000000000E+00 0.  1.
         13   -1    0    0    0    0 -0.00000000000E+00 -0.00000000000E+00 -0.27500000000E+03  0.27500000000E+03  0.00000000000E+00 0.  1.
    9000005    2    1    2  501    0 -0.28948934775E+02 -0.16836835547E+02 -0.61810765039E+02  0.46970030853E+03  0.46440961371E+03 0.  0.
         13    1    3    3    0    0  0.76426311591E+02 -0.20903257196E+03 -0.10533428215E+03  0.24623344257E+03  0.00000000000E+00 0.  1.
          1    1    3    3  501    0 -0.10537524637E+03  0.19219573641E+03  0.43523517107E+02  0.22346686596E+03  0.00000000000E+00 0.  1.
         21    1    1    2  502  501  0.28948934775E+02  0.16836835547E+02  0.21085038610E+02  0.39573965040E+02  0.00000000000E+00 0. -1.
<scales pt_clust_4="550.00000" pt_clust_5="550.00000" pt_clust_6="33.48910"></scales>
<mgrwt>
<rscale>  0 0.30000000E+03</rscale>
<asrwt>  1 0.33489101E+02</asrwt>
<pdfrwt beam="1">  1        1 0.85190645E+00 0.30000000E+03</pdfrwt>
<pdfrwt beam="2">0</pdfrwt>
<totfact> 0.39364978E-04</totfact>
</mgrwt>
<clustering>
<clus scale="   33.489">  1  6  2 -1</clus>
<clus scale="  464.410">  4  5 -1 -1</clus>
<clus scale="  300.000">  1  4  2 -1</clus>
</clustering>
</event>
<event>
 6    1  0.9480355E-012  0.3000000E+03  0.7818608E-02  0.1093470E+00
          1   -1    0    0  502    0  0.00000000000E+00  0.00000000000E+00  0.22798031359E+03  0.22798031359E+03  0.00000000000E+00 0.  1.
         13   -1    0    0    0    0 -0.00000000000E+00 -0.00000000000E+00 -0.27500000000E+03  0.27500000000E+03  0.00000000000E+00 0.  1.
    9000005    2    1    2  501    0  0.11018908553E+02 -0.33862036609E+02 -0.62394675665E+02  0.46419314866E+03  0.45860018517E+03 0.  0.
         13    1    3    3    0    0 -0.18532789794E+03 -0.12912152489E+03 -0.92133592283E+02  0.24394137979E+03  0.00000000000E+00 0.  1.
          1    1    3    3  501    0  0.19634680650E+03  0.95259488280E+02  0.29738916619E+02  0.22025176887E+03  0.00000000000E+00 0.  1.
         21    1    1    2  502  501 -0.11018908553E+02  0.33862036609E+02  0.15374989255E+02  0.38787164934E+02  0.00000000000E+00 0. -1.
<scales pt_clust_4="550.00000" pt_clust_5="550.00000" pt_clust_6="35.60974"></scales>
<mgrwt>
<rscale>  0 0.30000000E+03</rscale>
<asrwt>  1 0.35609744E+02</asrwt>
<pdfrwt beam="1">  1        1 0.82901932E+00 0.30000000E+03</pdfrwt>
<pdfrwt beam="2">0</pdfrwt>
<totfact> 0.60035834E-04</totfact>
</mgrwt>
<clustering>
<clus scale="   35.610">  1  6  2 -1</clus>
<clus scale="  458.600">  4  5 -1 -1</clus>
<clus scale="  300.000">  1  4  2 -1</clus>
</clustering>
</event>
<event>
 6    1  0.9480355E-012  0.3000000E+03  0.7818608E-02  0.1093470E+00
          1   -1    0    0  502    0  0.00000000000E+00  0.00000000000E+00  0.23826196579E+03  0.23826196579E+03  0.00000000000E+00 0.  1.
         13   -1    0    0    0    0 -0.00000000000E+00 -0.00000000000E+00 -0.27500000000E+03  0.27500000000E+03  0.00000000000E+00 0.  1.
    9000005    2    1    2  501    0 -0.85827518853E+01  0.48070113888E+02 -0.27522268093E+02  0.46356961402E+03  0.46016835215E+03 0.  0.
         13    1    3    3    0    0  0.88317308859E+02  0.15566157353E+03 -0.17962636001E+03  0.25356675990E+03  0.00000000000E+00 0.  1.
          1    1    3    3  501    0 -0.96900060744E+02 -0.10759145964E+03  0.15210409191E+03  0.21000285412E+03  0.00000000000E+00 0.  1.
         21    1    1    2  502  501  0.85827518853E+01 -0.48070113888E+02 -0.92157661191E+01  0.49692351769E+02  0.00000000000E+00 0.  1.
<scales pt_clust_4="550.00000" pt_clust_5="550.00000" pt_clust_6="48.83034"></scales>
<mgrwt>
<rscale>  0 0.30000000E+03</rscale>
<asrwt>  1 0.48830338E+02</asrwt>
<pdfrwt beam="1">  1        1 0.86640715E+00 0.30000000E+03</pdfrwt>
<pdfrwt beam="2">0</pdfrwt>
<totfact> 0.25978759E-04</totfact>
</mgrwt>
<clustering>
<clus scale="   48.830">  1  6  2 -1</clus>
<clus scale="  460.168">  4  5 -1 -1</clus>
<clus scale="  300.000">  1  4  2 -1</clus>
</clustering>
</event>
<event>
 6    1  0.9480355E-012  0.3000000E+03  0.7818608E-02  0.1093470E+00
          1   -1    0    0  502    0  0.00000000000E+00  0.00000000000E+00  0.23625917311E+03  0.23625917311E+03  0.00000000000E+00 0.  1.
         13   -1    0    0    0    0 -0.00000000000E+00 -0.00000000000E+00 -0.27500000000E+03  0.27500000000E+03  0.00000000000E+00 0.  1.
    9000005    2    1    2  501    0 -0.18334188469E+02 -0.27729223750E+02 -0.64603032117E+02  0.46914140993E+03  0.46348145425E+03 0.  0.
         13    1    3    3    0    0 -0.17340647620E+03  0.14158105506E+03  0.19306321912E+02  0.22469476007E+03  0.00000000000E+00 0.  1.
          3    1    3    3  501    0  0.15507228773E+03 -0.16931027881E+03 -0.83909354030E+02  0.24444664985E+03  0.00000000000E+00 0.  1.
         21    1    1    2  502  501  0.18334188469E+02  0.27729223750E+02  0.25862205231E+02  0.42117763189E+02  0.00000000000E+00 0. -1.
<scales pt_clust_4="550.00000" pt_clust_5="550.00000" pt_clust_6="33.24233"></scales>
<mgrwt>
<rscale>  0 0.30000000E+03</rscale>
<asrwt>  1 0.33242327E+02</asrwt>
<pdfrwt beam="1">  1        1 0.85912427E+00 0.30000000E+03</pdfrwt>
<pdfrwt beam="2">0</pdfrwt>
<totfact> 0.33368316E-04</totfact>
</mgrwt>
<clustering>
<clus scale="   33.242">  1  6  2 -1</clus>
<clus scale="  463.481">  4  5 -1 -1</clus>
<clus scale="  300.000">  1  4  2 -1</clus>
</clustering>
</event>
<event>
 6    1  0.9480355E-012  0.3000000E+03  0.7818608E-02  0.1093470E+00
          1   -1    0    0  502    0  0.00000000000E+00  0.00000000000E+00  0.23979877786E+03  0.23979877786E+03  0.00000000000E+00 0.  1.
         13   -1    0    0    0    0 -0.00000000000E+00 -0.00000000000E+00 -0.27500000000E+03  0.27500000000E+03  0.00000000000E+00 0.  1.
    9000005    2    1    2  501    0 -0.31516330421E+02 -0.76164829911E+00 -0.63713361017E+02  0.47229229301E+03  0.46691193867E+03 0.  0.
         13    1    3    3    0    0  0.18646324382E+03  0.11111006213E+03 -0.67311267230E+02  0.22725490951E+03  0.00000000000E+00 0.  1.
          1    1    3    3  501    0 -0.21797957424E+03 -0.11187171043E+03  0.35979062135E+01  0.24503738349E+03  0.00000000000E+00 0.  1.
         21    1    1    2  502  501  0.31516330421E+02  0.76164829911E+00  0.28512138878E+02  0.42506484855E+02  0.00000000000E+00 0.  1.
<scales pt_clust_4="550.00000" pt_clust_5="550.00000" pt_clust_6="31.52553"></scales>
<mgrwt>
<rscale>  0 0.30000000E+03</rscale>
<asrwt>  1 0.31525532E+02</asrwt>
<pdfrwt beam="1">  1        1 0.87199556E+00 0.30000000E+03</pdfrwt>
<pdfrwt beam="2">0</pdfrwt>
<totfact> 0.24646168E-04</totfact>
</mgrwt>
<clustering>
<clus scale="   31.526">  1  6  2 -1</clus>
<clus scale="  466.912">  4  5 -1 -1</clus>
<clus scale="  300.000">  1  4  2 -1</clus>
</clustering>
</event>
<event>
 6    1  0.9480355E-012  0.3000000E+03  0.7818608E-02  0.1093470E+00
          1   -1    0    0  502    0  0.00000000000E+00  0.00000000000E+00  0.22787531780E+03  0.22787531780E+03  0.00000000000E+00 0.  1.
         13   -1    0    0    0    0 -0.00000000000E+00 -0.00000000000E+00 -0.27500000000E+03  0.27500000000E+03  0.00000000000E+00 0.  1.
    9000005    2    1    2  501    0 -0.85891092530E+01 -0.31974798597E+02 -0.52103592863E+02  0.46939472499E+03  0.46531759361E+03 0.  0.
         13    1    3    3    0    0  0.21261323696E+03  0.66122472018E+02 -0.40711906625E+01  0.22269518277E+03  0.00000000000E+00 0.  1.
          1    1    3    3  501    0 -0.22120234621E+03 -0.98097270615E+02 -0.48032402201E+02  0.24669954222E+03  0.00000000000E+00 0.  1.
         21    1    1    2  502  501  0.85891092530E+01  0.31974798597E+02  0.49789106598E+01  0.33480592803E+02  0.00000000000E+00 0. -1.
<scales pt_clust_4="550.00000" pt_clust_5="550.00000" pt_clust_6="33.10832"></scales>
<mgrwt>
<rscale>  0 0.30000000E+03</rscale>
<asrwt>  1 0.33108315E+02</asrwt>
<pdfrwt beam="1">  1        1 0.82863752E+00 0.30000000E+03</pdfrwt>
<pdfrwt beam="2">0</pdfrwt>
<totfact> 0.61319793E-04</totfact>
</mgrwt>
<clustering>
<clus scale="   33.108">  1  6  2 -1</clus>
<clus scale="  465.318">  4  5 -1 -1</clus>
<clus scale="  300.000">  1  4  2 -1</clus>
</clustering>
</event>
<event>
 6    1  0.9480355E-012  0.3000000E+03  0.7818608E-02  0.1093470E+00
          1   -1    0    0  502    0  0.00000000000E+00  0.00000000000E+00  0.22978206373E+03  0.22978206373E+03  0.00000000000E+00 0.  1.
         13   -1    0    0    0    0 -0.00000000000E+00 -0.00000000000E+00 -0.27500000000E+03  0.27500000000E+03  0.00000000000E+00 0.  1.
    9000005    2    1    2  501    0  0.29687327357E+02 -0.10205917340E+02 -0.41094471267E+02  0.47311976568E+03  0.47028508264E+03 0.  0.
         13    1    3    3    0    0  0.22339194946E+03  0.93328138681E+02  0.25917027880E+02  0.24348674889E+03  0.00000000000E+00 0.  1.
          3    1    3    3  501    0 -0.19370462210E+03 -0.10353405602E+03 -0.67011499148E+02  0.22963301679E+03  0.00000000000E+00 0.  1.
         21    1    1    2  502  501 -0.29687327357E+02  0.10205917340E+02 -0.41234650004E+01  0.31662298053E+02  0.00000000000E+00 0.  1.
<scales pt_clust_4="550.00000" pt_clust_5="550.00000" pt_clust_6="31.39266"></scales>
<mgrwt>
<rscale>  0 0.30000000E+03</rscale>
<asrwt>  1 0.31392661E+02</asrwt>
<pdfrwt beam="1">  1        1 0.83557114E+00 0.30000000E+03</pdfrwt>
<pdfrwt beam="2">0</pdfrwt>
<totfact> 0.54695978E-04</totfact>
</mgrwt>
<clustering>
<clus scale="   31.393">  1  6  2 -1</clus>
<clus scale="  470.285">  4  5 -1 -1</clus>
<clus scale="  300.000">  1  4  2 -1</clus>
</clustering>
</event>
<event>
 6    1  0.9480355E-012  0.3000000E+03  0.7818608E-02  0.1093470E+00
          1   -1    0    0  502    0  0.00000000000E+00  0.00000000000E+00  0.23838075640E+03  0.23838075640E+03  0.00000000000E+00 0.  1.
         13   -1    0    0    0    0 -0.00000000000E+00 -0.00000000000E+00 -0.27500000000E+03  0.27500000000E+03  0.00000000000E+00 0.  1.
    9000005    2    1    2  501    0  0.22923710926E+02 -0.40321805989E+02 -0.51697264591E+02  0.46460892767E+03  0.45938818438E+03 0.  0.
         13    1    3    3    0    0 -0.12843255423E+03 -0.20141155681E+03 -0.63187802024E+01  0.23895912451E+03  0.00000000000E+00 0.  1.
          1    1    3    3  501    0  0.15135626515E+03  0.16108975083E+03 -0.45378484389E+02  0.22564980316E+03  0.00000000000E+00 0.  1.
         21    1    1    2  502  501 -0.22923710926E+02  0.40321805989E+02  0.15078020996E+02  0.48771828733E+02  0.00000000000E+00 0. -1.
<scales pt_clust_4="550.00000" pt_clust_5="550.00000" pt_clust_6="46.38259"></scales>
<mgrwt>
<rscale>  0 0.30000000E+03</rscale>
<asrwt>  1 0.46382589E+02</asrwt>
<pdfrwt beam="1">  1        1 0.86683911E+00 0.30000000E+03</pdfrwt>
<pdfrwt beam="2">0</pdfrwt>
<totfact> 0.25941722E-04</totfact>
</mgrwt>
<clustering>
<clus scale="   46.383">  1  6  2 -1</clus>
<clus scale="  459.388">  4  5 -1 -1</clus>
<clus scale="  300.000">  1  4  2 -1</clus>
</clustering>
</event>
<event>
 6    1  0.9480355E-012  0.3000000E+03  0.7818608E-02  0.1093470E+00
          1   -1    0    0  502    0  0.00000000000E+00  0.00000000000E+00  0.23299800295E+03  0.23299800295E+03  0.00000000000E+00 0.  1.
         13   -1    0    0    0    0 -0.00000000000E+00 -0.00000000000E+00 -0.27500000000E+03  0.27500000000E+03  0.00000000000E+00 0.  1.
    9000005    2    1    2  501    0  0.19282959702E+02  0.25623134303E+02 -0.45619357263E+02  0.47572629953E+03  0.47244683168E+03 0.  0.
         13    1    3    3    0    0  0.19487721831E+03 -0.11650111949E+02 -0.16874906235E+03  0.25804864148E+03  0.00000000000E+00 0.  1.
          1    1    3    3  501    0 -0.17559425861E+03  0.37273246252E+02  0.12312970509E+03  0.21767765806E+03  0.00000000000E+00 0.  1.
         21    1    1    2  502  501 -0.19282959702E+02 -0.25623134303E+02  0.36173602094E+01  0.32271703414E+02  0.00000000000E+00 0.  1.
<scales pt_clust_4="550.00000" pt_clust_5="550.00000" pt_clust_6="32.06833"></scales>
<mgrwt>
<rscale>  0 0.30000000E+03</rscale>
<asrwt>  1 0.32068326E+02</asrwt>
<pdfrwt beam="1">  1        1 0.84726547E+00 0.30000000E+03</pdfrwt>
<pdfrwt beam="2">0</pdfrwt>
<totfact> 0.43850047E-04</totfact>
</mgrwt>
<clustering>
<clus scale="   32.068">  1  6  2 -1</clus>
<clus scale="  472.447">  4  5 -1 -1</clus>
<clus scale="  300.000">  1  4  2 -1</clus>
</clustering>
</event>
<event>
 6    1  0.9480355E-012  0.3000000E+03  0.7818608E-02  0.1093470E+00
          1   -1    0    0  502    0  0.00000000000E+00  0.00000000000E+00  0.22525781435E+03  0.22525781435E+03  0.00000000000E+00 0.  1.
         13   -1    0    0    0    0 -0.00000000000E+00 -0.00000000000E+00 -0.27500000000E+03  0.27500000000E+03  0.00000000000E+00 0.  1.
    9000005    2    1    2  501    0 -0.51948324767E+01 -0.37821805399E+02 -0.54594740670E+02  0.46177375871E+03  0.45694304161E+03 0.  0.
         13    1    3    3    0    0  0.18718177768E+03  0.38115573646E+02  0.88244546736E+02  0.21042080429E+03  0.00000000000E+00 0.  1.
          1    1    3    3  501    0 -0.19237661015E+03 -0.75937379045E+02 -0.14283928741E+03  0.25135295442E+03  0.00000000000E+00 0.  1.
         21    1    1    2  502  501  0.51948324767E+01  0.37821805399E+02  0.48525550205E+01  0.38484055637E+02  0.00000000000E+00 0. -1.
<scales pt_clust_4="550.00000" pt_clust_5="550.00000" pt_clust_6="38.17689"></scales>
<mgrwt>
<rscale>  0 0.30000000E+03</rscale>
<asrwt>  1 0.38176894E+02</asrwt>
<pdfrwt beam="1">  1        1 0.81911932E+00 0.30000000E+03</pdfrwt>
<pdfrwt beam="2">0</pdfrwt>
<totfact> 0.72424282E-04</totfact>
</mgrwt>
<clustering>
<clus scale="   38.177">  1  6  2 -1</clus>
<clus scale="  456.943">  4  5 -1 -1</clus>
<clus scale="  300.000">  1  4  2 -1</clus>
</clustering>
</event>
<event>
 6    1  0.9480355E-012  0.3000000E+03  0.7818608E-02  0.1093470E+00
          1   -1    0    0  502    0  0.00000000000E+00  0.00000000000E+00  0.22893919872E+03  0.22893919872E+03  0.00000000000E+00 0.  1.
         13   -1    0    0    0    0 -0.00000000000E+00 -0.00000000000E+00 -0.27500000000E+03  0.27500000000E+03  0.00000000000E+00 0.  1.
    9000005    2    1    2  501    0 -0.21491665277E+02 -0.23297018556E+02 -0.50534224968E+02  0.47192897739E+03  0.46814379100E+03 0.  0.
         13    1    3    3    0    0 -0.18789159584E+03  0.43234044917E+02 -0.16959345213E+03  0.25677689427E+03  0.00000000000E+00 0.  1.
          3    1    3    3  501    0  0.16639993056E+03 -0.66531063473E+02  0.11905922716E+03  0.21515208312E+03  0.00000000000E+00 0.  1.
         21    1    1    2  502  501  0.21491665277E+02  0.23297018556E+02  0.44734236840E+01  0.32010221327E+02  0.00000000000E+00 0.  1.
<scales pt_clust_4="550.00000" pt_clust_5="550.00000" pt_clust_6="31.69610"></scales>
<mgrwt>
<rscale>  0 0.30000000E+03</rscale>
<asrwt>  1 0.31696100E+02</asrwt>
<pdfrwt beam="1">  1        1 0.83250618E+00 0.30000000E+03</pdfrwt>
<pdfrwt beam="2">0</pdfrwt>
<totfact> 0.57527296E-04</totfact>
</mgrwt>
<clustering>
<clus scale="   31.696">  1  6  2 -1</clus>
<clus scale="  468.144">  4  5 -1 -1</clus>
<clus scale="  300.000">  1  4  2 -1</clus>
</clustering>
</event>
<event>
 6    1  0.9480355E-012  0.3000000E+03  0.7818608E-02  0.1093470E+00
          1   -1    0    0  502    0  0.00000000000E+00  0.00000000000E+00  0.25035556221E+03  0.25035556221E+03  0.00000000000E+00 0.  1.
         13   -1    0    0    0    0 -0.00000000000E+00 -0.00000000000E+00 -0.27500000000E+03  0.27500000000E+03  0.00000000000E+00 0.  1.
    9000005    2    1    2  501    0  0.15483629341E+02  0.48029536417E+02 -0.31867753182E+02  0.47437757254E+03  0.47060806250E+03 0.  0.
         13    1    3    3    0    0 -0.17852219617E+03 -0.87425243465E+02 -0.10747925593E+03  0.22597596813E+03  0.00000000000E+00 0.  1.
          1    1    3    3  501    0  0.19400582551E+03  0.13545477988E+03  0.75611502745E+02  0.24840160440E+03  0.00000000000E+00 0.  1.
         21    1    1    2  502  501 -0.15483629341E+02 -0.48029536417E+02  0.72233153921E+01  0.50977989675E+02  0.00000000000E+00 0. -1.
<scales pt_clust_4="550.00000" pt_clust_5="550.00000" pt_clust_6="50.46364"></scales>
<mgrwt>
<rscale>  0 0.30000000E+03</rscale>
<asrwt>  1 0.50463642E+02</asrwt>
<pdfrwt beam="1">  1        1 0.91038386E+00 0.30000000E+03</pdfrwt>
<pdfrwt beam="2">0</pdfrwt>
<totfact> 0.65818859E-05</totfact>
</mgrwt>
<clustering>
<clus scale="   50.464">  1  6  2 -1</clus>
<clus scale="  470.608">  4  5 -1 -1</clus>
<clus scale="  300.000">  1  4  2 -1</clus>
</clustering>
</event>
<event>
 6    1  0.9480355E-012  0.3000000E+03  0.7818608E-02  0.1093470E+00
          1   -1    0    0  502    0  0.00000000000E+00  0.00000000000E+00  0.23846788191E+03  0.23846788191E+03  0.00000000000E+00 0.  1.
         13   -1    0    0    0    0 -0.00000000000E+00 -0.00000000000E+00 -0.27500000000E+03  0.27500000000E+03  0.00000000000E+00 0.  1.
    9000005    2    1    2  501    0  0.39762251186E+02 -0.94703359382E+01 -0.31255707005E+02  0.47225423859E+03  0.46944267250E+03 0.  0.
         13    1    3    3    0    0  0.33472285127E+02 -0.83126459070E+02  0.20551979039E+03  0.22420701664E+03  0.00000000000E+00 0.  1.
          1    1    3    3  501    0  0.62899660593E+01  0.73656123132E+02 -0.23677549740E+03  0.24804722195E+03  0.00000000000E+00 0.  1.
         21    1    1    2  502  501 -0.39762251186E+02  0.94703359382E+01 -0.52764110821E+01  0.41213643324E+02  0.00000000000E+00 0.  1.
<scales pt_clust_4="550.00000" pt_clust_5="550.00000" pt_clust_6="40.87451"></scales>
<mgrwt>
<rscale>  0 0.30000000E+03</rscale>
<asrwt>  1 0.40874510E+02</asrwt>
<pdfrwt beam="1">  1        1 0.86715593E+00 0.30000000E+03</pdfrwt>
<pdfrwt beam="2">0</pdfrwt>
<totfact> 0.26334972E-04</totfact>
</mgrwt>
<clustering>
<clus scale="   40.875">  1  6  2 -1</clus>
<clus scale="  469.443">  4  5 -1 -1</clus>
<clus scale="  300.000">  1  4  2 -1</clus>
</clustering>
</event>
<event>
 6    1  0.9480355E-012  0.3000000E+03  0.7818608E-02  0.1093470E+00
          1   -1    0    0  502    0  0.00000000000E+00  0.00000000000E+00  0.24204501613E+03  0.24204501613E+03  0.00000000000E+00 0.  1.
         13   -1    0    0    0    0 -0.00000000000E+00 -0.00000000000E+00 -0.27500000000E+03  0.27500000000E+03  0.00000000000E+00 0.  1.
    9000005    2    1    2  501    0  0.14699404187E+02  0.26152906675E+02 -0.54636338102E+02  0.48002977424E+03  0.47596576316E+03 0.  0.
         13    1    3    3    0    0  0.11315170377E+03 -0.10396346642E+03  0.15240397249E+03  0.21642246013E+03  0.00000000000E+00 0.  1.
          3    1    3    3  501    0 -0.98452299588E+02  0.13011637310E+03 -0.20704031059E+03  0.26360731411E+03  0.00000000000E+00 0.  1.
         21    1    1    2  502  501 -0.14699404187E+02 -0.26152906675E+02  0.21681354235E+02  0.37015241894E+02  0.00000000000E+00 0.  1.
<scales pt_clust_4="550.00000" pt_clust_5="550.00000" pt_clust_6="30.00078"></scales>
<mgrwt>
<rscale>  0 0.30000000E+03</rscale>
<asrwt>  1 0.30000784E+02</asrwt>
<pdfrwt beam="1">  1        1 0.88016370E+00 0.30000000E+03</pdfrwt>
<pdfrwt beam="2">0</pdfrwt>
<totfact> 0.20229153E-04</totfact>
</mgrwt>
<clustering>
<clus scale="   30.001">  1  6  2 -1</clus>
<clus scale="  475.966">  4  5 -1 -1</clus>
<clus scale="  300.000">  1  4  2 -1</clus>
</clustering>
</event>
<event>
 6    1  0.9480355E-012  0.3000000E+03  0.7818608E-02  0.1093470E+00
          1   -1    0    0  502    0  0.00000000000E+00  0.00000000000E+00  0.23493328442E+03  0.23493328442E+03  0.00000000000E+00 0.  1.
         13   -1    0    0    0    0 -0.00000000000E+00 -0.00000000000E+00 -0.27500000000E+03  0.27500000000E+03  0.00000000000E+00 0.  1.
    9000005    2    1    2  501    0  0.34130220052E+02 -0.40936008924E+01 -0.32391226359E+02  0.47471194679E+03  0.47235644528E+03 0.  0.
         13    1    3    3    0    0  0.98925098192E+02 -0.12164347647E+03  0.17037750879E+03  0.23154223356E+03  0.00000000000E+00 0.  1.
          1    1    3    3  501    0 -0.64794878139E+02  0.11754987558E+03 -0.20276873515E+03  0.24316971324E+03  0.00000000000E+00 0.  1.
         21    1    1    2  502  501 -0.34130220052E+02  0.40936008924E+01 -0.76754892252E+01  0.35221337623E+02  0.00000000000E+00 0. -1.
<scales pt_clust_4="550.00000" pt_clust_5="550.00000" pt_clust_6="34.37486"></scales>
<mgrwt>
<rscale>  0 0.30000000E+03</rscale>
<asrwt>  1 0.34374855E+02</asrwt>
<pdfrwt beam="1">  1        1 0.85430285E+00 0.30000000E+03</pdfrwt>
<pdfrwt beam="2">0</pdfrwt>
<totfact> 0.37139205E-04</totfact>
</mgrwt>
<clustering>
<clus scale="   34.375">  1  6  2 -1</clus>
<clus scale="  472.356">  4  5 -1 -1</clus>
<clus scale="  300.000">  1  4  2 -1</clus>
</clustering>
</event>
<event>
 6    1  0.9480355E-012  0.3000000E+03  0.7818608E-02  0.1093470E+00
          1   -1    0    0  502    0  0.00000000000E+00  0.00000000000E+00  0.24181064632E+03  0.24181064632E+03  0.00000000000E+00 0.  1.
         13   -1    0    0    0    0 -0.00000000000E+00 -0.00000000000E+00 -0.27500000000E+03  0.27500000000E+03  0.00000000000E+00 0.  1.
    9000005    2    1    2  501    0  0.34099788558E+02 -0.14523635708E+02 -0.67514497470E+02  0.46629384644E+03  0.45988913043E+03 0.  0.
         13    1    3    3    0    0  0.60164532991E+02 -0.22939443708E+03 -0.77842274347E+02  0.24960167962E+03  0.00000000000E+00 0.  1.
          1    1    3    3  501    0 -0.26064744433E+02  0.21487080137E+03  0.10327776877E+02  0.21669216682E+03  0.00000000000E+00 0.  1.
         21    1    1    2  502  501 -0.34099788558E+02  0.14523635708E+02  0.34325143787E+02  0.50516799877E+02  0.00000000000E+00 0.  1.
<scales pt_clust_4="550.00000" pt_clust_5="550.00000" pt_clust_6="37.06389"></scales>
<mgrwt>
<rscale>  0 0.30000000E+03</rscale>
<asrwt>  1 0.37063885E+02</asrwt>
<pdfrwt beam="1">  1        1 0.87931144E+00 0.30000000E+03</pdfrwt>
<pdfrwt beam="2">0</pdfrwt>
<totfact> 0.19909295E-04</totfact>
</mgrwt>
<clustering>
<clus scale="   37.064">  1  6  2 -1</clus>
<clus scale="  459.889">  4  5 -1 -1</clus>
<clus scale="  300.000">  1  4  2 -1</clus>
</clustering>
</event>
<event>
 6    1  0.9480355E-012  0.3000000E+03  0.7818608E-02  0.1093470E+00
          1   -1    0    0  502    0  0.00000000000E+00  0.00000000000E+00  0.23779370558E+03  0.23779370558E+03  0.00000000000E+00 0.  1.
         13   -1    0    0    0    0 -0.00000000000E+00 -0.00000000000E+00 -0.27500000000E+03  0.27500000000E+03  0.00000000000E+00 0.  1.
    9000005    2    1    2  501    0  0.24763480753E+02 -0.25120820446E+02 -0.71562213404E+02  0.46355332816E+03  0.45663579806E+03 0.  0.
         13    1    3    3    0    0  0.16845930035E+03  0.39027097194E+02 -0.19713439037E+03  0.26222817937E+03  0.00000000000E+00 0.  1.
          3    1    3    3  501    0 -0.14369581960E+03 -0.64147917640E+02  0.12557217697E+03  0.20132514879E+03  0.00000000000E+00 0.  1.
         21    1    1    2  502  501 -0.24763480753E+02  0.25120820446E+02  0.34355918988E+02  0.49240377419E+02  0.00000000000E+00 0.  1.
<scales pt_clust_4="550.00000" pt_clust_5="550.00000" pt_clust_6="35.27443"></scales>
<mgrwt>
<rscale>  0 0.30000000E+03</rscale>
<asrwt>  1 0.35274433E+02</asrwt>
<pdfrwt beam="1">  1        1 0.86470438E+00 0.30000000E+03</pdfrwt>
<pdfrwt beam="2">0</pdfrwt>
<totfact> 0.28738410E-04</totfact>
</mgrwt>
<clustering>
<clus scale="   35.274">  1  6  2 -1</clus>
<clus scale="  456.636">  4  5 -1 -1</clus>
<clus scale="  300.000">  1  4  2 -1</clus>
</clustering>
</event>
<event>
 6    1  0.9480355E-012  0.3000000E+03  0.7818608E-02  0.1093470E+00
          1   -1    0    0  502    0  0.00000000000E+00  0.00000000000E+00  0.23485462926E+03  0.23485462926E+03  0.00000000000E+00 0.  1.
         13   -1    0    0    0    0 -0.00000000000E+00 -0.00000000000E+00 -0.27500000000E+03  0.27500000000E+03  0.00000000000E+00 0.  1.
    9000005    2    1    2  501    0  0.32644656345E+02  0.47528618570E+01 -0.37943964475E+02  0.47679242314E+03  0.47413395475E+03 0.  0.
         13    1    3    3    0    0  0.25148058617E+03 -0.68618368201E+01 -0.53128873270E+02  0.25712301958E+03  0.00000000000E+00 0.  1.
          3    1    3    3  501    0 -0.21883592982E+03  0.11614698677E+02  0.15184908795E+02  0.21966940356E+03  0.00000000000E+00 0.  1.
         21    1    1    2  502  501 -0.32644656345E+02 -0.47528618570E+01 -0.22014062657E+01  0.33062206116E+02  0.00000000000E+00 0. -1.
<scales pt_clust_4="550.00000" pt_clust_5="550.00000" pt_clust_6="32.98884"></scales>
<mgrwt>
<rscale>  0 0.30000000E+03</rscale>
<asrwt>  1 0.32988836E+02</asrwt>
<pdfrwt beam="1">  1        1 0.85401683E+00 0.30000000E+03</pdfrwt>
<pdfrwt beam="2">0</pdfrwt>
<totfact> 0.37669137E-04</totfact>
</mgrwt>
<clustering>
<clus scale="   32.989">  1  6  2 -1</clus>
<clus scale="  474.134">  4  5 -1 -1</clus>
<clus scale="  300.000">  1  4  2 -1</clus>
</clustering>
</event>
<event>
 6    1  0.9480355E-012  0.3000000E+03  0.7818608E-02  0.1093470E+00
          1   -1    0    0  502    0  0.00000000000E+00  0.00000000000E+00  0.24325117943E+03  0.24325117943E+03  0.00000000000E+00 0.  1.
         13   -1    0    0    0    0 -0.00000000000E+00 -0.00000000000E+00 -0.27500000000E+03  0.27500000000E+03  0.00000000000E+00 0.  1.
    9000005    2    1    2  501    0 -0.34696698373E+02 -0.16872056932E+02 -0.33338230406E+02  0.47963701873E+03  0.47691897105E+03 0.  0.
         13    1    3    3    0    0 -0.90114740880E+02 -0.21596383669E+03 -0.11082496287E+03  0.25892705088E+03  0.00000000000E+00 0.  1.
          1    1    3    3  501    0  0.55418042507E+02  0.19909177975E+03  0.77486732467E+02  0.22070996785E+03  0.00000000000E+00 0.  1.
         21    1    1    2  502  501  0.34696698373E+02  0.16872056932E+02  0.15894098374E+01  0.38614160702E+02  0.00000000000E+00 0. -1.
<scales pt_clust_4="550.00000" pt_clust_5="550.00000" pt_clust_6="38.58144"></scales>
<mgrwt>
<rscale>  0 0.30000000E+03</rscale>
<asrwt>  1 0.38581436E+02</asrwt>
<pdfrwt beam="1">  1        1 0.88454974E+00 0.30000000E+03</pdfrwt>
<pdfrwt beam="2">0</pdfrwt>
<totfact> 0.16904878E-04</totfact>
</mgrwt>
<clustering>
<clus scale="   38.581">  1  6  2 -1</clus>
<clus scale="  476.919">  4  5 -1 -1</clus>
<clus scale="  300.000">  1  4  2 -1</clus>
</clustering>
</event>
<event>
 6    1  0.9480355E-012  0.3000000E+03  0.7818608E-02  0.1093470E+00
          1   -1    0    0  502    0  0.00000000000E+00  0.00000000000E+00  0.23084281484E+03  0.23084281484E+03  0.00000000000E+00 0.  1.
         13   -1    0    0    0    0 -0.00000000000E+00 -0.00000000000E+00 -0.27500000000E+03  0.27500000000E+03  0.00000000000E+00 0.  1.
    9000005    2    1    2  501    0 -0.27009149594E+02  0.15882420965E+02 -0.21530362121E+02  0.46719415926E+03  0.46564480078E+03 0.  0.
         13    1    3    3    0    0 -0.64976888513E+02 -0.20356630669E+03 -0.93358207155E+02  0.23318874780E+03  0.00000000000E+00 0.  1.
          3    1    3    3  501    0  0.37967738920E+02  0.21944872765E+03  0.71827845033E+02  0.23400541145E+03  0.00000000000E+00 0.  1.
         21    1    1    2  502  501  0.27009149594E+02 -0.15882420965E+02 -0.22626823039E+02  0.38648655582E+02  0.00000000000E+00 0. -1.
<scales pt_clust_4="550.00000" pt_clust_5="550.00000" pt_clust_6="31.33283"></scales>
<mgrwt>
<rscale>  0 0.30000000E+03</rscale>
<asrwt>  1 0.31332833E+02</asrwt>
<pdfrwt beam="1">  1        1 0.83942842E+00 0.30000000E+03</pdfrwt>
<pdfrwt beam="2">0</pdfrwt>
<totfact> 0.51265640E-04</totfact>
</mgrwt>
<clustering>
<clus scale="   31.333">  1  6  2 -1</clus>
<clus scale="  465.645">  4  5 -1 -1</clus>
<clus scale="  300.000">  1  4  2 -1</clus>
</clustering>
</event>
<event>
 6    1  0.9480355E-012  0.3000000E+03  0.7818608E-02  0.1093470E+00
          1   -1    0    0  502    0  0.00000000000E+00  0.00000000000E+00  0.25616925166E+03  0.25616925166E+03  0.00000000000E+00 0.  1.
         13   -1    0    0    0    0 -0.00000000000E+00 -0.00000000000E+00 -0.27500000000E+03  0.27500000000E+03  0.00000000000E+00 0.  1.
    9000005    2    1    2  501    0  0.24135229091E+02 -0.35689202989E+02 -0.58733878558E+02  0.47244542094E+03  0.46679629260E+03 0.  0.
         13    1    3    3    0    0 -0.21022336731E+03 -0.11235291541E+02  0.44528159630E+02  0.21518097718E+03  0.00000000000E+00 0.  1.
          1    1    3    3  501    0  0.23435859640E+03 -0.24453911448E+02 -0.10326203819E+03  0.25726444376E+03  0.00000000000E+00 0.  1.
         21    1    1    2  502  501 -0.24135229091E+02  0.35689202989E+02  0.39903130218E+02  0.58723830720E+02  0.00000000000E+00 0. -1.
<scales pt_clust_4="550.00000" pt_clust_5="550.00000" pt_clust_6="43.08397"></scales>
<mgrwt>
<rscale>  0 0.30000000E+03</rscale>
<asrwt>  1 0.43083970E+02</asrwt>
<pdfrwt beam="1">  1        1 0.93152455E+00 0.30000000E+03</pdfrwt>
<pdfrwt beam="2">0</pdfrwt>
<totfact> 0.24015537E-05</totfact>
</mgrwt>
<clustering>
<clus scale="   43.084">  1  6  2 -1</clus>
<clus scale="  466.796">  4  5 -1 -1</clus>
<clus scale="  300.000">  1  4  2 -1</clus>
</clustering>
</event>
<event>
 6    1  0.9480355E-012  0.3000000E+03  0.7818608E-02  0.1093470E+00
          1   -1    0    0  502    0  0.00000000000E+00  0.00000000000E+00  0.24995239603E+03  0.24995239603E+03  0.00000000000E+00 0.  1.
         13   -1    0    0    0    0 -0.00000000000E+00 -0.00000000000E+00 -0.27500000000E+03  0.27500000000E+03  0.00000000000E+00 0.  1.
    9000005    2    1    2  501    0 -0.14865690946E+02 -0.27667344873E+02 -0.58703059482E+02  0.47891805640E+03  0.47426784079E+03 0.  0.
         13    1    3    3    0    0 -0.16762688613E+03 -0.11805598278E+03  0.11117214460E+03  0.23322785802E+03  0.00000000000E+00 0.  1.
          3    1    3    3  501    0  0.15276119518E+03  0.90388637910E+02 -0.16987520408E+03  0.24569019837E+03  0.00000000000E+00 0.  1.
         21    1    1    2  502  501  0.14865690946E+02  0.27667344873E+02  0.33655455507E+02  0.46034339628E+02  0.00000000000E+00 0.  1.
<scales pt_clust_4="550.00000" pt_clust_5="550.00000" pt_clust_6="31.40813"></scales>
<mgrwt>
<rscale>  0 0.30000000E+03</rscale>
<asrwt>  1 0.31408132E+02</asrwt>
<pdfrwt beam="1">  1        1 0.90891780E+00 0.30000000E+03</pdfrwt>
<pdfrwt beam="2">0</pdfrwt>
<totfact> 0.77846281E-05</totfact>
</mgrwt>
<clustering>
<clus scale="   31.408">  1  6  2 -1</clus>
<clus scale="  474.268">  4  5 -1 -1</clus>
<clus scale="  300.000">  1  4  2 -1</clus>
</clustering>
</event>
<event>
 6    1  0.9480355E-012  0.3000000E+03  0.7818608E-02  0.1093470E+00
          1   -1    0    0  502    0  0.00000000000E+00  0.00000000000E+00  0.24773565086E+03  0.24773565086E+03  0.00000000000E+00 0.  1.
         13   -1    0    0    0    0 -0.00000000000E+00 -0.00000000000E+00 -0.27500000000E+03  0.27500000000E+03  0.00000000000E+00 0.  1.
    9000005    2    1    2  501    0  0.26402172751E+02 -0.21027692000E+02 -0.54418810524E+02  0.47941587097E+03  0.47511991312E+03 0.  0.
         13    1    3    3    0    0  0.23261636022E+03  0.53655355925E+02  0.37425860283E+02  0.24164015245E+03  0.00000000000E+00 0.  1.
          3    1    3    3  501    0 -0.20621418747E+03 -0.74683047925E+02 -0.91844670807E+02  0.23777571851E+03  0.00000000000E+00 0.  1.
         21    1    1    2  502  501 -0.26402172751E+02  0.21027692000E+02  0.27154461388E+02  0.43319779894E+02  0.00000000000E+00 0.  1.
<scales pt_clust_4="550.00000" pt_clust_5="550.00000" pt_clust_6="33.75261"></scales>
<mgrwt>
<rscale>  0 0.30000000E+03</rscale>
<asrwt>  1 0.33752608E+02</asrwt>
<pdfrwt beam="1">  1        1 0.90085691E+00 0.30000000E+03</pdfrwt>
<pdfrwt beam="2">0</pdfrwt>
<totfact> 0.10840026E-04</totfact>
</mgrwt>
<clustering>
<clus scale="   33.753">  1  6  2 -1</clus>
<clus scale="  475.120">  4  5 -1 -1</clus>
<clus scale="  300.000">  1  4  2 -1</clus>
</clustering>
</event>
<event>
 6    1  0.9480355E-012  0.3000000E+03  0.7818608E-02  0.1093470E+00
          1   -1    0    0  502    0  0.00000000000E+00  0.00000000000E+00  0.22701203845E+03  0.22701203845E+03  0.00000000000E+00 0.  1.
         13   -1    0    0    0    0 -0.00000000000E+00 -0.00000000000E+00 -0.27500000000E+03  0.27500000000E+03  0.00000000000E+00 0.  1.
    9000005    2    1    2  501    0  0.25855693655E+02  0.24467966355E+02 -0.49054918719E+02  0.46639832383E+03  0.46244330804E+03 0.  0.
         13    1    3    3    0    0  0.13673201432E+03  0.65059841717E+01  0.17117577663E+03  0.21917827921E+03  0.00000000000E+00 0.  1.
          3    1    3    3  501    0 -0.11087632067E+03  0.17961982183E+02 -0.22023069535E+03  0.24722004462E+03  0.00000000000E+00 0.  1.
         21    1    1    2  502  501 -0.25855693655E+02 -0.24467966355E+02  0.10669571736E+01  0.35613714627E+02  0.00000000000E+00 0. -1.
<scales pt_clust_4="550.00000" pt_clust_5="550.00000" pt_clust_6="35.59773"></scales>
<mgrwt>
<rscale>  0 0.30000000E+03</rscale>
<asrwt>  1 0.35597728E+02</asrwt>
<pdfrwt beam="1">  1        1 0.82549832E+00 0.30000000E+03</pdfrwt>
<pdfrwt beam="2">0</pdfrwt>
<totfact> 0.64448214E-04</totfact>
</mgrwt>
<clustering>
<clus scale="   35.598">  1  6  2 -1</clus>
<clus scale="  462.443">  4  5 -1 -1</clus>
<clus scale="  300.000">  1  4  2 -1</clus>
</clustering>
</event>
<event>
 6    1  0.9480355E-012  0.3000000E+03  0.7818608E-02  0.1093470E+00
          1   -1    0    0  502    0  0.00000000000E+00  0.00000000000E+00  0.22751268024E+03  0.22751268024E+03  0.00000000000E+00 0.  1.
         13   -1    0    0    0    0 -0.00000000000E+00 -0.00000000000E+00 -0.27500000000E+03  0.27500000000E+03  0.00000000000E+00 0.  1.
    9000005    2    1    2  501    0  0.13447021770E+02  0.27847074211E+02 -0.70358099860E+02  0.46405030227E+03  0.45764193305E+03 0.  0.
         13    1    3    3    0    0  0.19750130917E+03  0.10344095548E+03  0.54019511609E+02  0.22940119012E+03  0.00000000000E+00 0.  1.
          3    1    3    3  501    0 -0.18405428740E+03 -0.75593881273E+02 -0.12437761147E+03  0.23464911215E+03  0.00000000000E+00 0.  1.
         21    1    1    2  502  501 -0.13447021770E+02 -0.27847074211E+02  0.22870780105E+02  0.38462377971E+02  0.00000000000E+00 0. -1.
<scales pt_clust_4="550.00000" pt_clust_5="550.00000" pt_clust_6="30.92381"></scales>
<mgrwt>
<rscale>  0 0.30000000E+03</rscale>
<asrwt>  1 0.30923809E+02</asrwt>
<pdfrwt beam="1">  1        1 0.82731884E+00 0.30000000E+03</pdfrwt>
<pdfrwt beam="2">0</pdfrwt>
<totfact> 0.63776678E-04</totfact>
</mgrwt>
<clustering>
<clus scale="   30.924">  1  6  2 -1</clus>
<clus scale="  457.642">  4  5 -1 -1</clus>
<clus scale="  300.000">  1  4  2 -1</clus>
</clustering>
</event>
<event>
 6    1  0.9480355E-012  0.3000000E+03  0.7818608E-02  0.1093470E+00
          1   -1    0    0  502    0  0.00000000000E+00  0.00000000000E+00  0.22989669346E+03  0.22989669346E+03  0.00000000000E+00 0.  1.
         13   -1    0    0    0    0 -0.00000000000E+00 -0.00000000000E+00 -0.27500000000E+03  0.27500000000E+03  0.00000000000E+00 0.  1.
    9000005    2    1    2  501    0 -0.31660885458E+02 -0.19419363788E+02 -0.60168389500E+02  0.46481577428E+03  0.45940607915E+03 0.  0.
         13    1    3    3    0    0 -0.20169519224E+03  0.65125320123E+01  0.10401848530E+03  0.22703129505E+03  0.00000000000E+00 0.  1.
          1    1    3    3  501    0  0.17003430679E+03 -0.25931895801E+02 -0.16418687480E+03  0.23778447923E+03  0.00000000000E+00 0.  1.
         21    1    1    2  502  501  0.31660885458E+02  0.19419363788E+02  0.15065082961E+02  0.40080919183E+02  0.00000000000E+00 0.  1.
<scales pt_clust_4="550.00000" pt_clust_5="550.00000" pt_clust_6="37.14194"></scales>
<mgrwt>
<rscale>  0 0.30000000E+03</rscale>
<asrwt>  1 0.37141935E+02</asrwt>
<pdfrwt beam="1">  1        1 0.83598798E+00 0.30000000E+03</pdfrwt>
<pdfrwt beam="2">0</pdfrwt>
<totfact> 0.52626436E-04</totfact>
</mgrwt>
<clustering>
<clus scale="   37.142">  1  6  2 -1</clus>
<clus scale="  459.406">  4  5 -1 -1</clus>
<clus scale="  300.000">  1  4  2 -1</clus>
</clustering>
</event>
<event>
 6    1  0.9480355E-012  0.3000000E+03  0.7818608E-02  0.1093470E+00
          1   -1    0    0  502    0  0.00000000000E+00  0.00000000000E+00  0.22163181342E+03  0.22163181342E+03  0.00000000000E+00 0.  1.
         13   -1    0    0    0    0 -0.00000000000E+00 -0.00000000000E+00 -0.27500000000E+03  0.27500000000E+03  0.00000000000E+00 0.  1.
    9000005    2    1    2  501    0 -0.27379633764E+02  0.13665064031E+02 -0.52548283267E+02  0.46602053182E+03  0.46203618439E+03 0.  0.
         13    1    3    3    0    0 -0.18247704809E+03  0.16084921954E+03  0.93296080387E+01  0.24342840034E+03  0.00000000000E+00 0.  1.
          1    1    3    3  501    0  0.15509741432E+03 -0.14718415551E+03 -0.61877891306E+02  0.22259213148E+03  0.00000000000E+00 0.  1.
         21    1    1    2  502  501  0.27379633764E+02 -0.13665064031E+02 -0.81990331063E+00  0.30611281604E+02  0.00000000000E+00 0.  1.
<scales pt_clust_4="550.00000" pt_clust_5="550.00000" pt_clust_6="30.60030"></scales>
<mgrwt>
<rscale>  0 0.30000000E+03</rscale>
<asrwt>  1 0.30600299E+02</asrwt>
<pdfrwt beam="1">  1        1 0.80593387E+00 0.30000000E+03</pdfrwt>
<pdfrwt beam="2">0</pdfrwt>
<totfact> 0.96162724E-04</totfact>
</mgrwt>
<clustering>
<clus scale="   30.600">  1  6  2 -1</clus>
<clus scale="  462.036">  4  5 -1 -1</clus>
<clus scale="  300.000">  1  4  2 -1</clus>
</clustering>
</event>
<event>
 6    1  0.9480355E-012  0.3000000E+03  0.7818608E-02  0.1093470E+00
          1   -1    0    0  502    0  0.00000000000E+00  0.00000000000E+00  0.25070084615E+03  0.25070084615E+03  0.00000000000E+00 0.  1.
         13   -1    0    0    0    0 -0.00000000000E+00 -0.00000000000E+00 -0.27500000000E+03  0.27500000000E+03  0.00000000000E+00 0.  1.
    9000005    2    1    2  501    0  0.48629784292E+01  0.38281100118E+02 -0.26618385629E+02  0.48704247032E+03  0.48478112407E+03 0.  0.
         13    1    3    3    0    0 -0.25785680661E+02 -0.13492919145E+03  0.17304849949E+03  0.22094472433E+03  0.00000000000E+00 0.  1.
          1    1    3    3  501    0  0.30648659090E+02  0.17321029157E+03 -0.19966688511E+03  0.26609774599E+03  0.00000000000E+00 0.  1.
         21    1    1    2  502  501 -0.48629784292E+01 -0.38281100118E+02  0.23192317746E+01  0.38658375826E+02  0.00000000000E+00 0.  1.
<scales pt_clust_4="550.00000" pt_clust_5="550.00000" pt_clust_6="38.58874"></scales>
<mgrwt>
<rscale>  0 0.30000000E+03</rscale>
<asrwt>  1 0.38588744E+02</asrwt>
<pdfrwt beam="1">  1        1 0.91163944E+00 0.30000000E+03</pdfrwt>
<pdfrwt beam="2">0</pdfrwt>
<totfact> 0.64280879E-05</totfact>
</mgrwt>
<clustering>
<clus scale="   38.589">  1  6  2 -1</clus>
<clus scale="  484.781">  4  5 -1 -1</clus>
<clus scale="  300.000">  1  4  2 -1</clus>
</clustering>
</event>
<event>
 6    1  0.9480355E-012  0.3000000E+03  0.7818608E-02  0.1093470E+00
          1   -1    0    0  502    0  0.00000000000E+00  0.00000000000E+00  0.23431780198E+03  0.23431780198E+03  0.00000000000E+00 0.  1.
         13   -1    0    0    0    0 -0.00000000000E+00 -0.00000000000E+00 -0.27500000000E+03  0.27500000000E+03  0.00000000000E+00 0.  1.
    9000005    2    1    2  501    0  0.29669881034E+02 -0.11438337596E+02 -0.24069413689E+02  0.47344131927E+03  0.47175863396E+03 0.  0.
         13    1    3    3    0    0 -0.20001558581E+03 -0.94150503316E+02 -0.53783264453E+02  0.22751525526E+03  0.00000000000E+00 0.  1.
          3    1    3    3  501    0  0.22968546684E+03  0.82712165720E+02  0.29713850764E+02  0.24592606402E+03  0.00000000000E+00 0.  1.
         21    1    1    2  502  501 -0.29669881034E+02  0.11438337596E+02 -0.16612784336E+02  0.35876482700E+02  0.00000000000E+00 0.  1.
<scales pt_clust_4="550.00000" pt_clust_5="550.00000" pt_clust_6="31.79840"></scales>
<mgrwt>
<rscale>  0 0.30000000E+03</rscale>
<asrwt>  1 0.31798403E+02</asrwt>
<pdfrwt beam="1">  1        1 0.85206473E+00 0.30000000E+03</pdfrwt>
<pdfrwt beam="2">0</pdfrwt>
<totfact> 0.39614816E-04</totfact>
</mgrwt>
<clustering>
<clus scale="   31.798">  1  6  2 -1</clus>
<clus scale="  471.759">  4  5 -1 -1</clus>
<clus scale="  300.000">  1  4  2 -1</clus>
</clustering>
</event>
<event>
 6    1  0.9480355E-012  0.3000000E+03  0.7818608E-02  0.1093470E+00
          1   -1    0    0  502    0  0.00000000000E+00  0.00000000000E+00  0.22975906429E+03  0.22975906429E+03  0.00000000000E+00 0.  1.
         13   -1    0    0    0    0 -0.00000000000E+00 -0.00000000000E+00 -0.27500000000E+03  0.27500000000E+03  0.00000000000E+00 0.  1.
    9000005    2    1    2  501    0  0.26861871439E+02 -0.19283294067E+02 -0.33840959171E+02  0.46978242877E+03  0.46739374653E+03 0.  0.
         13    1    3    3    0    0 -0.17849309070E+03  0.82083362306E+02  0.82301211916E+02  0.21300458042E+03  0.00000000000E+00 0.  1.
          1    1    3    3  501    0  0.20535496214E+03 -0.10136665637E+03 -0.11614217109E+03  0.25677784835E+03  0.00000000000E+00 0.  1.
         21    1    1    2  502  501 -0.26861871439E+02  0.19283294067E+02 -0.11399976537E+02  0.34976635520E+02  0.00000000000E+00 0.  1.
<scales pt_clust_4="550.00000" pt_clust_5="550.00000" pt_clust_6="33.06670"></scales>
<mgrwt>
<rscale>  0 0.30000000E+03</rscale>
<asrwt>  1 0.33066700E+02</asrwt>
<pdfrwt beam="1">  1        1 0.83548751E+00 0.30000000E+03</pdfrwt>
<pdfrwt beam="2">0</pdfrwt>
<totfact> 0.54234748E-04</totfact>
</mgrwt>
<clustering>
<clus scale="   33.067">  1  6  2 -1</clus>
<clus scale="  467.394">  4  5 -1 -1</clus>
<clus scale="  300.000">  1  4  2 -1</clus>
</clustering>
</event>
<event>
 6    1  0.9480355E-012  0.3000000E+03  0.7818608E-02  0.1093470E+00
          1   -1    0    0  502    0  0.00000000000E+00  0.00000000000E+00  0.23764373807E+03  0.23764373807E+03  0.00000000000E+00 0.  1.
         13   -1    0    0    0    0 -0.00000000000E+00 -0.00000000000E+00 -0.27500000000E+03  0.27500000000E+03  0.00000000000E+00 0.  1.
    9000005    2    1    2  501    0  0.32387748656E+02  0.23341992501E+02 -0.66198928841E+02  0.46339219686E+03  0.45689847346E+03 0.  0.
         13    1    3    3    0    0  0.12081097490E+03 -0.38198948978E+02  0.16516978664E+03  0.20817182753E+03  0.00000000000E+00 0.  1.
          3    1    3    3  501    0 -0.88423226241E+02  0.61540941479E+02 -0.23136871548E+03  0.25522036933E+03  0.00000000000E+00 0.  1.
         21    1    1    2  502  501 -0.32387748656E+02 -0.23341992501E+02  0.28842666909E+02  0.49251541208E+02  0.00000000000E+00 0. -1.
<scales pt_clust_4="550.00000" pt_clust_5="550.00000" pt_clust_6="39.92261"></scales>
<mgrwt>
<rscale>  0 0.30000000E+03</rscale>
<asrwt>  1 0.39922611E+02</asrwt>
<pdfrwt beam="1">  1        1 0.86415905E+00 0.30000000E+03</pdfrwt>
<pdfrwt beam="2">0</pdfrwt>
<totfact> 0.28472204E-04</totfact>
</mgrwt>
<clustering>
<clus scale="   39.923">  1  6  2 -1</clus>
<clus scale="  456.898">  4  5 -1 -1</clus>
<clus scale="  300.000">  1  4  2 -1</clus>
</clustering>
</event>
<event>
 6    1  0.9480355E-012  0.3000000E+03  0.7818608E-02  0.1093470E+00
          1   -1    0    0  502    0  0.00000000000E+00  0.00000000000E+00  0.24293100682E+03  0.24293100682E+03  0.00000000000E+00 0.  1.
         13   -1    0    0    0    0 -0.00000000000E+00 -0.00000000000E+00 -0.27500000000E+03  0.27500000000E+03  0.00000000000E+00 0.  1.
    9000005    2    1    2  501    0  0.30123347212E+02 -0.44036672694E+01 -0.48711350564E+02  0.48323552596E+03  0.47980930539E+03 0.  0.
         13    1    3    3    0    0  0.54057490397E+02 -0.47510444842E+02  0.20889934144E+03  0.22094883908E+03  0.00000000000E+00 0.  1.
          1    1    3    3  501    0 -0.23934143185E+02  0.43106777572E+02 -0.25761069200E+03  0.26228668688E+03  0.00000000000E+00 0.  1.
         21    1    1    2  502  501 -0.30123347212E+02  0.44036672694E+01  0.16642357380E+02  0.34695480856E+02  0.00000000000E+00 0. -1.
<scales pt_clust_4="550.00000" pt_clust_5="550.00000" pt_clust_6="30.44353"></scales>
<mgrwt>
<rscale>  0 0.30000000E+03</rscale>
<asrwt>  1 0.30443527E+02</asrwt>
<pdfrwt beam="1">  1        1 0.88338548E+00 0.30000000E+03</pdfrwt>
<pdfrwt beam="2">0</pdfrwt>
<totfact> 0.18326539E-04</totfact>
</mgrwt>
<clustering>
<clus scale="   30.444">  1  6  2 -1</clus>
<clus scale="  479.809">  4  5 -1 -1</clus>
<clus scale="  300.000">  1  4  2 -1</clus>
</clustering>
</event>
<event>
 6    1  0.9480355E-012  0.3000000E+03  0.7818608E-02  0.1093470E+00
          1   -1    0    0  502    0  0.00000000000E+00  0.00000000000E+00  0.23106355217E+03  0.23106355217E+03  0.00000000000E+00 0.  1.
         13   -1    0    0    0    0 -0.00000000000E+00 -0.00000000000E+00 -0.27500000000E+03  0.27500000000E+03  0.00000000000E+00 0.  1.
    9000005    2    1    2  501    0  0.31578909980E+02  0.69630224803E+01 -0.69964928386E+02  0.46455219183E+03  0.45811345373E+03 0.  0.
         13    1    3    3    0    0  0.10573697585E+03  0.77613692661E+02  0.16349838255E+03  0.20960895602E+03  0.00000000000E+00 0.  1.
          1    1    3    3  501    0 -0.74158065866E+02 -0.70650670180E+02 -0.23346331093E+03  0.25494323580E+03  0.00000000000E+00 0.  1.
         21    1    1    2  502  501 -0.31578909980E+02 -0.69630224803E+01  0.26028480560E+02  0.41511360347E+02  0.00000000000E+00 0. -1.
<scales pt_clust_4="550.00000" pt_clust_5="550.00000" pt_clust_6="32.33746"></scales>
<mgrwt>
<rscale>  0 0.30000000E+03</rscale>
<asrwt>  1 0.32337459E+02</asrwt>
<pdfrwt beam="1">  1        1 0.84023110E+00 0.30000000E+03</pdfrwt>
<pdfrwt beam="2">0</pdfrwt>
<totfact> 0.50244431E-04</totfact>
</mgrwt>
<clustering>
<clus scale="   32.337">  1  6  2 -1</clus>
<clus scale="  458.113">  4  5 -1 -1</clus>
<clus scale="  300.000">  1  4  2 -1</clus>
</clustering>
</event>
<event>
 6    1  0.9480355E-012  0.3000000E+03  0.7818608E-02  0.1093470E+00
          1   -1    0    0  502    0  0.00000000000E+00  0.00000000000E+00  0.23255668540E+03  0.23255668540E+03  0.00000000000E+00 0.  1.
         13   -1    0    0    0    0 -0.00000000000E+00 -0.00000000000E+00 -0.27500000000E+03  0.27500000000E+03  0.00000000000E+00 0.  1.
    9000005    2    1    2  501    0  0.21005855417E+02  0.32446717060E+02 -0.48307322557E+02  0.46846164736E+03  0.46435835539E+03 0.  0.
         13    1    3    3    0    0  0.21621420424E+03 -0.78637657831E+02 -0.75679418294E+02  0.24219793083E+03  0.00000000000E+00 0.  1.
          3    1    3    3  501    0 -0.19520834882E+03  0.11108437489E+03  0.27372095737E+02  0.22626371653E+03  0.00000000000E+00 0.  1.
         21    1    1    2  502  501 -0.21005855417E+02 -0.32446717060E+02  0.58640079525E+01  0.39095038036E+02  0.00000000000E+00 0.  1.
<scales pt_clust_4="550.00000" pt_clust_5="550.00000" pt_clust_6="38.65275"></scales>
<mgrwt>
<rscale>  0 0.30000000E+03</rscale>
<asrwt>  1 0.38652754E+02</asrwt>
<pdfrwt beam="1">  1        1 0.84566067E+00 0.30000000E+03</pdfrwt>
<pdfrwt beam="2">0</pdfrwt>
<totfact> 0.43769685E-04</totfact>
</mgrwt>
<clustering>
<clus scale="   38.653">  1  6  2 -1</clus>
<clus scale="  464.358">  4  5 -1 -1</clus>
<clus scale="  300.000">  1  4  2 -1</clus>
</clustering>
</event>
<event>
 6    1  0.9480355E-012  0.3000000E+03  0.7818608E-02  0.1093470E+00
          1   -1    0    0  502    0  0.00000000000E+00  0.00000000000E+00  0.22917717810E+03  0.22917717810E+03  0.00000000000E+00 0.  1.
         13   -1    0    0    0    0 -0.00000000000E+00 -0.00000000000E+00 -0.27500000000E+03  0.27500000000E+03  0.00000000000E+00 0.  1.
    9000005    2    1    2  501    0  0.38430243825E+02 -0.77983677749E-01 -0.53830372110E+02  0.46492147046E+03  0.46019275854E+03 0.  0.
         13    1    3    3    0    0 -0.18112861522E+03  0.78706491605E+02  0.58563295742E+02  0.20599016161E+03  0.00000000000E+00 0.  1.
          3    1    3    3  501    0  0.21955885904E+03 -0.78784475282E+02 -0.11239366785E+03  0.25893130885E+03  0.00000000000E+00 0.  1.
         21    1    1    2  502  501 -0.38430243825E+02  0.77983677749E-01  0.80075502086E+01  0.39255707639E+02  0.00000000000E+00 0. -1.
<scales pt_clust_4="550.00000" pt_clust_5="550.00000" pt_clust_6="38.43032"></scales>
<mgrwt>
<rscale>  0 0.30000000E+03</rscale>
<asrwt>  1 0.38430323E+02</asrwt>
<pdfrwt beam="1">  1        1 0.83337156E+00 0.30000000E+03</pdfrwt>
<pdfrwt beam="2">0</pdfrwt>
<totfact> 0.54660900E-04</totfact>
</mgrwt>
<clustering>
<clus scale="   38.430">  1  6  2 -1</clus>
<clus scale="  460.193">  4  5 -1 -1</clus>
<clus scale="  300.000">  1  4  2 -1</clus>
</clustering>
</event>
<event>
 6    1  0.9480355E-012  0.3000000E+03  0.7818608E-02  0.1093470E+00
          1   -1    0    0  502    0  0.00000000000E+00  0.00000000000E+00  0.23176942181E+03  0.23176942181E+03  0.00000000000E+00 0.  1.
         13   -1    0    0    0    0 -0.00000000000E+00 -0.00000000000E+00 -0.27500000000E+03  0.27500000000E+03  0.00000000000E+00 0.  1.
    9000005    2    1    2  501    0  0.72666161697E+01 -0.35975775641E+02 -0.64819471382E+02  0.46418843482E+03  0.45817276110E+03 0.  0.
         13    1    3    3    0    0  0.54529322760E+02 -0.31643249913E+02  0.19248322632E+03  0.20254514242E+03  0.00000000000E+00 0.  1.
          1    1    3    3  501    0 -0.47262706590E+02 -0.43325257274E+01 -0.25730269770E+03  0.26164329240E+03  0.00000000000E+00 0.  1.
         21    1    1    2  502  501 -0.72666161697E+01  0.35975775641E+02  0.21588893191E+02  0.42580986986E+02  0.00000000000E+00 0.  1.
<scales pt_clust_4="550.00000" pt_clust_5="550.00000" pt_clust_6="36.70232"></scales>
<mgrwt>
<rscale>  0 0.30000000E+03</rscale>
<asrwt>  1 0.36702318E+02</asrwt>
<pdfrwt beam="1">  1        1 0.84279790E+00 0.30000000E+03</pdfrwt>
<pdfrwt beam="2">0</pdfrwt>
<totfact> 0.46773304E-04</totfact>
</mgrwt>
<clustering>
<clus scale="   36.702">  1  6  2 -1</clus>
<clus scale="  458.173">  4  5 -1 -1</clus>
<clus scale="  300.000">  1  4  2 -1</clus>
</clustering>
</event>
<event>
 6    1  0.9480355E-012  0.3000000E+03  0.7818608E-02  0.1093470E+00
          1   -1    0    0  502    0  0.00000000000E+00  0.00000000000E+00  0.25948167457E+03  0.25948167457E+03  0.00000000000E+00 0.  1.
         13   -1    0    0    0    0 -0.00000000000E+00 -0.00000000000E+00 -0.27500000000E+03  0.27500000000E+03  0.00000000000E+00 0.  1.
    9000005    2    1    2  501    0 -0.45010330727E+02 -0.41180938670E+01 -0.12757109709E+02  0.48919908541E+03  0.48693953706E+03 0.  0.
         13    1    3    3    0    0  0.12076117072E+03  0.80721675085E+02  0.17318801988E+03  0.22603835828E+03  0.00000000000E+00 0.  1.
          1    1    3    3  501    0 -0.16577150145E+03 -0.84839768951E+02 -0.18594512959E+03  0.26316072713E+03  0.00000000000E+00 0.  1.
         21    1    1    2  502  501  0.45010330727E+02  0.41180938670E+01 -0.27612157159E+01  0.45282589165E+02  0.00000000000E+00 0.  1.
<scales pt_clust_4="550.00000" pt_clust_5="550.00000" pt_clust_6="45.19835"></scales>
<mgrwt>
<rscale>  0 0.30000000E+03</rscale>
<asrwt>  1 0.45198347E+02</asrwt>
<pdfrwt beam="1">  1        1 0.94356973E+00 0.30000000E+03</pdfrwt>
<pdfrwt beam="2">0</pdfrwt>
<totfact> 0.15795802E-05</totfact>
</mgrwt>
<clustering>
<clus scale="   45.198">  1  6  2 -1</clus>
<clus scale="  486.940">  4  5 -1 -1</clus>
<clus scale="  300.000">  1  4  2 -1</clus>
</clustering>
</event>
<event>
 6    1  0.9480355E-012  0.3000000E+03  0.7818608E-02  0.1093470E+00
          1   -1    0    0  502    0  0.00000000000E+00  0.00000000000E+00  0.24208802487E+03  0.24208802487E+03  0.00000000000E+00 0.  1.
         13   -1    0    0    0    0 -0.00000000000E+00 -0.00000000000E+00 -0.27500000000E+03  0.27500000000E+03  0.00000000000E+00 0.  1.
    9000005    2    1    2  501    0 -0.21240166686E+02 -0.37642071640E+02 -0.56769061164E+02  0.46771970717E+03  0.46224552776E+03 0.  0.
         13    1    3    3    0    0  0.65502887767E+01 -0.76183070370E+02 -0.25378552907E+03  0.26505444961E+03  0.00000000000E+00 0.  1.
          1    1    3    3  501    0 -0.27790455463E+02  0.38540998731E+02  0.19701646790E+03  0.20266525756E+03  0.00000000000E+00 0.  1.
         21    1    1    2  502  501  0.21240166686E+02  0.37642071640E+02  0.23857086035E+02  0.49368317697E+02  0.00000000000E+00 0. -1.
<scales pt_clust_4="550.00000" pt_clust_5="550.00000" pt_clust_6="43.22118"></scales>
<mgrwt>
<rscale>  0 0.30000000E+03</rscale>
<asrwt>  1 0.43221178E+02</asrwt>
<pdfrwt beam="1">  1        1 0.88032009E+00 0.30000000E+03</pdfrwt>
<pdfrwt beam="2">0</pdfrwt>
<totfact> 0.18815875E-04</totfact>
</mgrwt>
<clustering>
<clus scale="   43.221">  1  6  2 -1</clus>
<clus scale="  462.246">  4  5 -1 -1</clus>
<clus scale="  300.000">  1  4  2 -1</clus>
</clustering>
</event>
<event>
 6    1  0.9480355E-012  0.3000000E+03  0.7818608E-02  0.1093470E+00
          1   -1    0    0  502    0  0.00000000000E+00  0.00000000000E+00  0.23460203920E+03  0.23460203920E+03  0.00000000000E+00 0.  1.
         13   -1    0    0    0    0 -0.00000000000E+00 -0.00000000000E+00 -0.27500000000E+03  0.27500000000E+03  0.00000000000E+00 0.  1.
    9000005    2    1    2  501    0  0.78343975087E+01  0.29025475838E+02 -0.69022372309E+02  0.46809043882E+03  0.46199644479E+03 0.  0.
         13    1    3    3    0    0 -0.13848702138E+03  0.12686414271E+03 -0.17989151318E+03  0.26006561155E+03  0.00000000000E+00 0.  1.
          1    1    3    3  501    0  0.14632141889E+03 -0.97838666877E+02  0.11086914087E+03  0.20802482727E+03  0.00000000000E+00 0.  1.
         21    1    1    2  502  501 -0.78343975087E+01 -0.29025475838E+02  0.28624411510E+02  0.41511600382E+02  0.00000000000E+00 0. -1.
<scales pt_clust_4="550.00000" pt_clust_5="550.00000" pt_clust_6="30.06420"></scales>
<mgrwt>
<rscale>  0 0.30000000E+03</rscale>
<asrwt>  1 0.30064199E+02</asrwt>
<pdfrwt beam="1">  1        1 0.85309832E+00 0.30000000E+03</pdfrwt>
<pdfrwt beam="2">0</pdfrwt>
<totfact> 0.39136216E-04</totfact>
</mgrwt>
<clustering>
<clus scale="   30.064">  1  6  2 -1</clus>
<clus scale="  461.996">  4  5 -1 -1</clus>
<clus scale="  300.000">  1  4  2 -1</clus>
</clustering>
</event>
<event>
 6    1  0.9480355E-012  0.3000000E+03  0.7818608E-02  0.1093470E+00
          1   -1    0    0  502    0  0.00000000000E+00  0.00000000000E+00  0.22271948195E+03  0.22271948195E+03  0.00000000000E+00 0.  1.
         13   -1    0    0    0    0 -0.00000000000E+00 -0.00000000000E+00 -0.27500000000E+03  0.27500000000E+03  0.00000000000E+00 0.  1.
    9000005    2    1    2  501    0 -0.29248621849E+02  0.10809165782E+02 -0.65237215261E+02  0.46395269431E+03  0.45828363309E+03 0.  0.
         13    1    3    3    0    0  0.37457256818E+01  0.61768695515E+02 -0.25620250007E+03  0.26356995892E+03  0.00000000000E+00 0.  1.
          1    1    3    3  501    0 -0.32994347531E+02 -0.50959529733E+02  0.19096528480E+03  0.20038273538E+03  0.00000000000E+00 0.  1.
         21    1    1    2  502  501  0.29248621849E+02 -0.10809165782E+02  0.12956697207E+02  0.33766787639E+02  0.00000000000E+00 0.  1.
<scales pt_clust_4="550.00000" pt_clust_5="550.00000" pt_clust_6="31.18205"></scales>
<mgrwt>
<rscale>  0 0.30000000E+03</rscale>
<asrwt>  1 0.31182045E+02</asrwt>
<pdfrwt beam="1">  1        1 0.80988903E+00 0.30000000E+03</pdfrwt>
<pdfrwt beam="2">0</pdfrwt>
<totfact> 0.89317839E-04</totfact>
</mgrwt>
<clustering>
<clus scale="   31.182">  1  6  2 -1</clus>
<clus scale="  458.284">  4  5 -1 -1</clus>
<clus scale="  300.000">  1  4  2 -1</clus>
</clustering>
</event>
<event>
 6    1  0.9480355E-012  0.3000000E+03  0.7818608E-02  0.1093470E+00
          1   -1    0    0  502    0  0.00000000000E+00  0.00000000000E+00  0.25714804681E+03  0.25714804681E+03  0.00000000000E+00 0.  1.
         13   -1    0    0    0    0 -0.00000000000E+00 -0.00000000000E+00 -0.27500000000E+03  0.27500000000E+03  0.00000000000E+00 0.  1.
    9000005    2    1    2  501    0 -0.11764101119E+01  0.51983031092E+02 -0.38246837196E+02  0.47629492912E+03  0.47190085769E+03 0.  0.
         13    1    3    3    0    0  0.17640903307E+02 -0.18852330815E+03  0.82480088826E+02  0.20653136381E+03  0.00000000000E+00 0.  1.
          1    1    3    3  501    0 -0.18817313419E+02  0.24050633924E+03 -0.12072692602E+03  0.26976356531E+03  0.00000000000E+00 0.  1.
         21    1    1    2  502  501  0.11764101119E+01 -0.51983031092E+02  0.20394884011E+02  0.55853117694E+02  0.00000000000E+00 0.  1.
<scales pt_clust_4="550.00000" pt_clust_5="550.00000" pt_clust_6="51.99634"></scales>
<mgrwt>
<rscale>  0 0.30000000E+03</rscale>
<asrwt>  1 0.51996341E+02</asrwt>
<pdfrwt beam="1">  1        1 0.93508381E+00 0.30000000E+03</pdfrwt>
<pdfrwt beam="2">0</pdfrwt>
<totfact> 0.20923457E-05</totfact>
</mgrwt>
<clustering>
<clus scale="   51.996">  1  6  2 -1</clus>
<clus scale="  471.901">  4  5 -1 -1</clus>
<clus scale="  300.000">  1  4  2 -1</clus>
</clustering>
</event>
<event>
 6    1  0.9480355E-012  0.3000000E+03  0.7818608E-02  0.1093470E+00
          1   -1    0    0  502    0  0.00000000000E+00  0.00000000000E+00  0.22618068692E+03  0.22618068692E+03  0.00000000000E+00 0.  1.
         13   -1    0    0    0    0 -0.00000000000E+00 -0.00000000000E+00 -0.27500000000E+03  0.27500000000E+03  0.00000000000E+00 0.  1.
    9000005    2    1    2  501    0  0.23613412630E+02  0.21319059560E+02 -0.65990706657E+02  0.46502889147E+03  0.45922216952E+03 0.  0.
         13    1    3    3    0    0 -0.20499287625E+03 -0.61656400981E+02 -0.42121600075E+01  0.21410589293E+03  0.00000000000E+00 0.  1.
          1    1    3    3  501    0  0.22860628888E+03  0.82975460541E+02 -0.61778546649E+02  0.25092299854E+03  0.00000000000E+00 0.  1.
         21    1    1    2  502  501 -0.23613412630E+02 -0.21319059560E+02  0.17171393572E+02  0.36151795443E+02  0.00000000000E+00 0. -1.
<scales pt_clust_4="550.00000" pt_clust_5="550.00000" pt_clust_6="31.81345"></scales>
<mgrwt>
<rscale>  0 0.30000000E+03</rscale>
<asrwt>  1 0.31813449E+02</asrwt>
<pdfrwt beam="1">  1        1 0.82247523E+00 0.30000000E+03</pdfrwt>
<pdfrwt beam="2">0</pdfrwt>
<totfact> 0.70046081E-04</totfact>
</mgrwt>
<clustering>
<clus scale="   31.813">  1  6  2 -1</clus>
<clus scale="  459.222">  4  5 -1 -1</clus>
<clus scale="  300.000">  1  4  2 -1</clus>
</clustering>
</event>
<event>
 6    1  0.9480355E-012  0.3000000E+03  0.7818608E-02  0.1093470E+00
          1   -1    0    0  502    0  0.00000000000E+00  0.00000000000E+00  0.23587241458E+03  0.23587241458E+03  0.00000000000E+00 0.  1.
         13   -1    0    0    0    0 -0.00000000000E+00 -0.00000000000E+00 -0.27500000000E+03  0.27500000000E+03  0.00000000000E+00 0.  1.
    9000005    2    1    2  501    0 -0.31640753139E+02  0.13469722931E+02 -0.40133091699E+02  0.47646919179E+03  0.47352893785E+03 0.  0.
         13    1    3    3    0    0  0.69043147380E+02 -0.20704566602E+03  0.38494792212E+02  0.22162290731E+03  0.00000000000E+00 0.  1.
          3    1    3    3  501    0 -0.10068390052E+03  0.22051538895E+03 -0.78627883911E+02  0.25484628448E+03  0.00000000000E+00 0.  1.
         21    1    1    2  502  501  0.31640753139E+02 -0.13469722931E+02  0.10055062766E+01  0.34403222783E+02  0.00000000000E+00 0. -1.
<scales pt_clust_4="550.00000" pt_clust_5="550.00000" pt_clust_6="34.38853"></scales>
<mgrwt>
<rscale>  0 0.30000000E+03</rscale>
<asrwt>  1 0.34388526E+02</asrwt>
<pdfrwt beam="1">  1        1 0.85771787E+00 0.30000000E+03</pdfrwt>
<pdfrwt beam="2">0</pdfrwt>
<totfact> 0.34301426E-04</totfact>
</mgrwt>
<clustering>
<clus scale="   34.389">  1  6  2 -1</clus>
<clus scale="  473.529">  4  5 -1 -1</clus>
<clus scale="  300.000">  1  4  2 -1</clus>
</clustering>
</event>
<event>
 6    1  0.9480355E-012  0.3000000E+03  0.7818608E-02  0.1093470E+00
          1   -1    0    0  502    0  0.00000000000E+00  0.00000000000E+00  0.23786894201E+03  0.23786894201E+03  0.00000000000E+00 0.  1.
         13   -1    0    0    0    0 -0.00000000000E+00 -0.00000000000E+00 -0.27500000000E+03  0.27500000000E+03  0.00000000000E+00 0.  1.
    9000005    2    1    2  501    0 -0.38000689677E+02  0.18325370036E+02 -0.56157770796E+02  0.46658841259E+03  0.46127126503E+03 0.  0.
         13    1    3    3    0    0 -0.93180018875E+02 -0.33248112449E+02 -0.24445065828E+03  0.26371211052E+03  0.00000000000E+00 0.  1.
          1    1    3    3  501    0  0.55179329198E+02  0.51573482485E+02  0.18829288748E+03  0.20287630207E+03  0.00000000000E+00 0.  1.
         21    1    1    2  502  501  0.38000689677E+02 -0.18325370036E+02  0.19026712802E+02  0.46280529415E+02  0.00000000000E+00 0. -1.
<scales pt_clust_4="550.00000" pt_clust_5="550.00000" pt_clust_6="42.18852"></scales>
<mgrwt>
<rscale>  0 0.30000000E+03</rscale>
<asrwt>  1 0.42188525E+02</asrwt>
<pdfrwt beam="1">  1        1 0.86497797E+00 0.30000000E+03</pdfrwt>
<pdfrwt beam="2">0</pdfrwt>
<totfact> 0.27620734E-04</totfact>
</mgrwt>
<clustering>
<clus scale="   42.189">  1  6  2 -1</clus>
<clus scale="  461.271">  4  5 -1 -1</clus>
<clus scale="  300.000">  1  4  2 -1</clus>
</clustering>
</event>
<event>
 6    1  0.9480355E-012  0.3000000E+03  0.7818608E-02  0.1093470E+00
          1   -1    0    0  502    0  0.00000000000E+00  0.00000000000E+00  0.23805833769E+03  0.23805833769E+03  0.00000000000E+00 0.  1.
         13   -1    0    0    0    0 -0.00000000000E+00 -0.00000000000E+00 -0.27500000000E+03  0.27500000000E+03  0.00000000000E+00 0.  1.
    9000005    2    1    2  501    0  0.21107524029E+02  0.26655362935E+02 -0.33581126062E+02  0.47889213879E+03  0.47650178659E+03 0.  0.
         13    1    3    3    0    0 -0.22758934096E+03  0.25500405579E+02 -0.15851966576E+02  0.22956145941E+03  0.00000000000E+00 0.  1.
          1    1    3    3  501    0  0.24869686499E+03  0.11549573556E+01 -0.17729159486E+02  0.24933067937E+03  0.00000000000E+00 0.  1.
         21    1    1    2  502  501 -0.21107524029E+02 -0.26655362935E+02 -0.33605362448E+01  0.34166198906E+02  0.00000000000E+00 0. -1.
<scales pt_clust_4="550.00000" pt_clust_5="550.00000" pt_clust_6="34.00055"></scales>
<mgrwt>
<rscale>  0 0.30000000E+03</rscale>
<asrwt>  1 0.34000546E+02</asrwt>
<pdfrwt beam="1">  1        1 0.86566668E+00 0.30000000E+03</pdfrwt>
<pdfrwt beam="2">0</pdfrwt>
<totfact> 0.28256355E-04</totfact>
</mgrwt>
<clustering>
<clus scale="   34.001">  1  6  2 -1</clus>
<clus scale="  476.502">  4  5 -1 -1</clus>
<clus scale="  300.000">  1  4  2 -1</clus>
</clustering>
</event>
<event>
 6    1  0.9480355E-012  0.3000000E+03  0.7818608E-02  0.1093470E+00
          1   -1    0    0  502    0  0.00000000000E+00  0.00000000000E+00  0.23911858447E+03  0.23911858447E+03  0.00000000000E+00 0.  1.
         13   -1    0    0    0    0 -0.00000000000E+00 -0.00000000000E+00 -0.27500000000E+03  0.27500000000E+03  0.00000000000E+00 0.  1.
    9000005    2    1    2  501    0 -0.37508449221E+02  0.31098755128E+01 -0.66799036780E+02  0.46541073713E+03  0.45905172675E+03 0.  0.
         13    1    3    3    0    0 -0.23724549002E+03  0.73861863869E+02 -0.28934659671E+02  0.25015637509E+03  0.00000000000E+00 0.  1.
          1    1    3    3  501    0  0.19973704080E+03 -0.70751988356E+02 -0.37864377109E+02  0.21525436204E+03  0.00000000000E+00 0.  1.
         21    1    1    2  502  501  0.37508449221E+02 -0.31098755128E+01  0.30917621248E+02  0.48707847338E+02  0.00000000000E+00 0. -1.
<scales pt_clust_4="550.00000" pt_clust_5="550.00000" pt_clust_6="37.63715"></scales>
<mgrwt>
<rscale>  0 0.30000000E+03</rscale>
<asrwt>  1 0.37637150E+02</asrwt>
<pdfrwt beam="1">  1        1 0.86952213E+00 0.30000000E+03</pdfrwt>
<pdfrwt beam="2">0</pdfrwt>
<totfact> 0.25268641E-04</totfact>
</mgrwt>
<clustering>
<clus scale="   37.637">  1  6  2 -1</clus>
<clus scale="  459.052">  4  5 -1 -1</clus>
<clus scale="  300.000">  1  4  2 -1</clus>
</clustering>
</event>
<event>
 6    1  0.9480355E-012  0.3000000E+03  0.7818608E-02  0.1093470E+00
          1   -1    0    0  502    0  0.00000000000E+00  0.00000000000E+00  0.23603829951E+03  0.23603829951E+03  0.00000000000E+00 0.  1.
         13   -1    0    0    0    0 -0.00000000000E+00 -0.00000000000E+00 -0.27500000000E+03  0.27500000000E+03  0.00000000000E+00 0.  1.
    9000005    2    1    2  501    0 -0.74058398115E+01  0.29687445882E+02 -0.37515824896E+02  0.48040691916E+03  0.47796148375E+03 0.  0.
         13    1    3    3    0    0 -0.20119001888E+03 -0.24771043817E+02 -0.14781315736E+03  0.25087797391E+03  0.00000000000E+00 0.  1.
          1    1    3    3  501    0  0.19378417907E+03  0.54458489699E+02  0.11029733246E+03  0.22952894524E+03  0.00000000000E+00 0.  1.
         21    1    1    2  502  501  0.74058398115E+01 -0.29687445882E+02 -0.14458755892E+01  0.30631380356E+02  0.00000000000E+00 0.  1.
<scales pt_clust_4="550.00000" pt_clust_5="550.00000" pt_clust_6="30.59724"></scales>
<mgrwt>
<rscale>  0 0.30000000E+03</rscale>
<asrwt>  1 0.30597237E+02</asrwt>
<pdfrwt beam="1">  1        1 0.85832109E+00 0.30000000E+03</pdfrwt>
<pdfrwt beam="2">0</pdfrwt>
<totfact> 0.34565542E-04</totfact>
</mgrwt>
<clustering>
<clus scale="   30.597">  1  6  2 -1</clus>
<clus scale="  477.961">  4  5 -1 -1</clus>
<clus scale="  300.000">  1  4  2 -1</clus>
</clustering>
</event>
<event>
 6    1  0.9480355E-012  0.3000000E+03  0.7818608E-02  0.1093470E+00
          1   -1    0    0  502    0  0.00000000000E+00  0.00000000000E+00  0.22139605133E+03  0.22139605133E+03  0.00000000000E+00 0.  1.
         13   -1    0    0    0    0 -0.00000000000E+00 -0.00000000000E+00 -0.27500000000E+03  0.27500000000E+03  0.00000000000E+00 0.  1.
    9000005    2    1    2  501    0  0.14686713579E+02  0.27483373307E+02 -0.57625780495E+02  0.46497614529E+03  0.46033797340E+03 0.  0.
         13    1    3    3    0    0 -0.80649753324E+02  0.21054185049E+03 -0.11170109938E+03  0.25161357102E+03  0.00000000000E+00 0.  1.
          3    1    3    3  501    0  0.95336466904E+02 -0.18305847718E+03  0.54075318888E+02  0.21336257428E+03  0.00000000000E+00 0.  1.
         21    1    1    2  502  501 -0.14686713579E+02 -0.27483373307E+02  0.40218318253E+01  0.31419906036E+02  0.00000000000E+00 0.  1.
<scales pt_clust_4="550.00000" pt_clust_5="550.00000" pt_clust_6="31.16144"></scales>
<mgrwt>
<rscale>  0 0.30000000E+03</rscale>
<asrwt>  1 0.31161440E+02</asrwt>
<pdfrwt beam="1">  1        1 0.80507655E+00 0.30000000E+03</pdfrwt>
<pdfrwt beam="2">0</pdfrwt>
<totfact> 0.97280979E-04</totfact>
</mgrwt>
<clustering>
<clus scale="   31.161">  1  6  2 -1</clus>
<clus scale="  460.338">  4  5 -1 -1</clus>
<clus scale="  300.000">  1  4  2 -1</clus>
</clustering>
</event>
<event>
 6    1  0.9480355E-012  0.3000000E+03  0.7818608E-02  0.1093470E+00
          1   -1    0    0  502    0  0.00000000000E+00  0.00000000000E+00  0.22789121171E+03  0.22789121171E+03  0.00000000000E+00 0.  1.
         13   -1    0    0    0    0 -0.00000000000E+00 -0.00000000000E+00 -0.27500000000E+03  0.27500000000E+03  0.00000000000E+00 0.  1.
    9000005    2    1    2  501    0  0.54036425678E+01  0.40747947330E+02 -0.50284523312E+02  0.46166403793E+03  0.45707281266E+03 0.  0.
         13    1    3    3    0    0  0.13111175080E+03  0.13718672593E+03  0.12356476147E+03  0.22644809393E+03  0.00000000000E+00 0.  1.
          1    1    3    3  501    0 -0.12570810823E+03 -0.96438778602E+02 -0.17384928478E+03  0.23521594400E+03  0.00000000000E+00 0.  1.
         21    1    1    2  502  501 -0.54036425678E+01 -0.40747947330E+02  0.31757350201E+01  0.41227173775E+02  0.00000000000E+00 0.  1.
<scales pt_clust_4="550.00000" pt_clust_5="550.00000" pt_clust_6="41.10468"></scales>
<mgrwt>
<rscale>  0 0.30000000E+03</rscale>
<asrwt>  1 0.41104678E+02</asrwt>
<pdfrwt beam="1">  1        1 0.82869532E+00 0.30000000E+03</pdfrwt>
<pdfrwt beam="2">0</pdfrwt>
<totfact> 0.58844075E-04</totfact>
</mgrwt>
<clustering>
<clus scale="   41.105">  1  6  2 -1</clus>
<clus scale="  457.073">  4  5 -1 -1</clus>
<clus scale="  300.000">  1  4  2 -1</clus>
</clustering>
</event>
<event>
 6    1  0.9480355E-012  0.3000000E+03  0.7818608E-02  0.1093470E+00
          1   -1    0    0  502    0  0.00000000000E+00  0.00000000000E+00  0.24650784227E+03  0.24650784227E+03  0.00000000000E+00 0.  1.
         13   -1    0    0    0    0 -0.00000000000E+00 -0.00000000000E+00 -0.27500000000E+03  0.27500000000E+03  0.00000000000E+00 0.  1.
    9000005    2    1    2  501    0  0.24551190409E+02  0.40119751831E+02 -0.54480528516E+02  0.46777004502E+03  0.46219945001E+03 0.  0.
         13    1    3    3    0    0 -0.17547910895E+02 -0.17855376137E+03 -0.14168694798E+03  0.22861444859E+03  0.00000000000E+00 0.  1.
          1    1    3    3  501    0  0.42099101304E+02  0.21867351320E+03  0.87206419469E+02  0.23915559643E+03  0.00000000000E+00 0.  1.
         21    1    1    2  502  501 -0.24551190409E+02 -0.40119751831E+02  0.25988370785E+02  0.53737797252E+02  0.00000000000E+00 0.  1.
<scales pt_clust_4="550.00000" pt_clust_5="550.00000" pt_clust_6="47.03568"></scales>
<mgrwt>
<rscale>  0 0.30000000E+03</rscale>
<asrwt>  1 0.47035683E+02</asrwt>
<pdfrwt beam="1">  1        1 0.89639215E+00 0.30000000E+03</pdfrwt>
<pdfrwt beam="2">0</pdfrwt>
<totfact> 0.11528731E-04</totfact>
</mgrwt>
<clustering>
<clus scale="   47.036">  1  6  2 -1</clus>
<clus scale="  462.199">  4  5 -1 -1</clus>
<clus scale="  300.000">  1  4  2 -1</clus>
</clustering>
</event>
<event>
 6    1  0.9480355E-012  0.3000000E+03  0.7818608E-02  0.1093470E+00
          1   -1    0    0  502    0  0.00000000000E+00  0.00000000000E+00  0.24573031971E+03  0.24573031971E+03  0.00000000000E+00 0.  1.
         13   -1    0    0    0    0 -0.00000000000E+00 -0.00000000000E+00 -0.27500000000E+03  0.27500000000E+03  0.00000000000E+00 0.  1.
    9000005    2    1    2  501    0  0.71493875283E+01 -0.31700483935E+02 -0.43157159020E+02  0.48539059010E+03  0.48237480257E+03 0.  0.
         13    1    3    3    0    0  0.23773323042E+03  0.40292447819E+02 -0.77498013233E+01  0.24124806655E+03  0.00000000000E+00 0.  1.
          3    1    3    3  501    0 -0.23058384289E+03 -0.71992931754E+02 -0.35407357697E+02  0.24414252354E+03  0.00000000000E+00 0.  1.
         21    1    1    2  502  501 -0.71493875283E+01  0.31700483935E+02  0.13887478732E+02  0.35339729615E+02  0.00000000000E+00 0. -1.
<scales pt_clust_4="550.00000" pt_clust_5="550.00000" pt_clust_6="32.49668"></scales>
<mgrwt>
<rscale>  0 0.30000000E+03</rscale>
<asrwt>  1 0.32496683E+02</asrwt>
<pdfrwt beam="1">  1        1 0.89356480E+00 0.30000000E+03</pdfrwt>
<pdfrwt beam="2">0</pdfrwt>
<totfact> 0.13276450E-04</totfact>
</mgrwt>
<clustering>
<clus scale="   32.497">  1  6  2 -1</clus>
<clus scale="  482.375">  4  5 -1 -1</clus>
<clus scale="  300.000">  1  4  2 -1</clus>
</clustering>
</event>
<event>
 6    1  0.9480355E-012  0.3000000E+03  0.7818608E-02  0.1093470E+00
          1   -1    0    0  502    0  0.00000000000E+00  0.00000000000E+00  0.22491988172E+03  0.22491988172E+03  0.00000000000E+00 0.  1.
         13   -1    0    0    0    0 -0.00000000000E+00 -0.00000000000E+00 -0.27500000000E+03  0.27500000000E+03  0.00000000000E+00 0.  1.
    9000005    2    1    2  501    0 -0.23462329556E+02 -0.27985173204E+02 -0.55882958803E+02  0.46294254021E+03  0.45810396158E+03 0.  0.
         13    1    3    3    0    0 -0.15401325614E+03  0.16299433595E+03  0.28506876529E+01  0.22426627709E+03  0.00000000000E+00 0.  1.
          1    1    3    3  501    0  0.13055092658E+03 -0.19097950916E+03 -0.58733646456E+02  0.23867626312E+03  0.00000000000E+00 0.  1.
         21    1    1    2  502  501  0.23462329556E+02  0.27985173204E+02  0.58028405250E+01  0.36977341517E+02  0.00000000000E+00 0.  1.
<scales pt_clust_4="550.00000" pt_clust_5="550.00000" pt_clust_6="36.51918"></scales>
<mgrwt>
<rscale>  0 0.30000000E+03</rscale>
<asrwt>  1 0.36519184E+02</asrwt>
<pdfrwt beam="1">  1        1 0.81789048E+00 0.30000000E+03</pdfrwt>
<pdfrwt beam="2">0</pdfrwt>
<totfact> 0.74785860E-04</totfact>
</mgrwt>
<clustering>
<clus scale="   36.519">  1  6  2 -1</clus>
<clus scale="  458.104">  4  5 -1 -1</clus>
<clus scale="  300.000">  1  4  2 -1</clus>
</clustering>
</event>
<event>
 6    1  0.9480355E-012  0.3000000E+03  0.7818608E-02  0.1093470E+00
          1   -1    0    0  502    0  0.00000000000E+00  0.00000000000E+00  0.24733949105E+03  0.24733949105E+03  0.00000000000E+00 0.  1.
         13   -1    0    0    0    0 -0.00000000000E+00 -0.00000000000E+00 -0.27500000000E+03  0.27500000000E+03  0.00000000000E+00 0.  1.
    9000005    2    1    2  501    0 -0.36240841235E+02  0.44133767874E+01 -0.65606856383E+02  0.46968209127E+03  0.46364224440E+03 0.  0.
         13    1    3    3    0    0  0.10147764734E+03  0.14829727579E+03  0.10440076598E+03  0.20782039085E+03  0.00000000000E+00 0.  1.
          1    1    3    3  501    0 -0.13771848858E+03 -0.14388389900E+03 -0.17000762236E+03  0.26186170042E+03  0.00000000000E+00 0.  1.
         21    1    1    2  502  501  0.36240841235E+02 -0.44133767874E+01  0.37946347436E+02  0.52657399782E+02  0.00000000000E+00 0. -1.
<scales pt_clust_4="550.00000" pt_clust_5="550.00000" pt_clust_6="36.50858"></scales>
<mgrwt>
<rscale>  0 0.30000000E+03</rscale>
<asrwt>  1 0.36508581E+02</asrwt>
<pdfrwt beam="1">  1        1 0.89941633E+00 0.30000000E+03</pdfrwt>
<pdfrwt beam="2">0</pdfrwt>
<totfact> 0.11141092E-04</totfact>
</mgrwt>
<clustering>
<clus scale="   36.509">  1  6  2 -1</clus>
<clus scale="  463.642">  4  5 -1 -1</clus>
<clus scale="  300.000">  1  4  2 -1</clus>
</clustering>
</event>
<event>
 6    1  0.9480355E-012  0.3000000E+03  0.7818608E-02  0.1093470E+00
          1   -1    0    0  502    0  0.00000000000E+00  0.00000000000E+00  0.22716024964E+03  0.22716024964E+03  0.00000000000E+00 0.  1.
         13   -1    0    0    0    0 -0.00000000000E+00 -0.00000000000E+00 -0.27500000000E+03  0.27500000000E+03  0.00000000000E+00 0.  1.
    9000005    2    1    2  501    0  0.24584588860E+02 -0.19394048200E+02 -0.65456542766E+02  0.46623139648E+03  0.46055035008E+03 0.  0.
         13    1    3    3    0    0 -0.21774587412E+03 -0.14981003895E+02 -0.15842788644E+02  0.21883484669E+03  0.00000000000E+00 0.  1.
          3    1    3    3  501    0  0.24233046298E+03 -0.44130443045E+01 -0.49613754122E+02  0.24739654979E+03  0.00000000000E+00 0.  1.
         21    1    1    2  502  501 -0.24584588860E+02  0.19394048200E+02  0.17616792406E+02  0.35928853164E+02  0.00000000000E+00 0. -1.
<scales pt_clust_4="550.00000" pt_clust_5="550.00000" pt_clust_6="31.31343"></scales>
<mgrwt>
<rscale>  0 0.30000000E+03</rscale>
<asrwt>  1 0.31313433E+02</asrwt>
<pdfrwt beam="1">  1        1 0.82603727E+00 0.30000000E+03</pdfrwt>
<pdfrwt beam="2">0</pdfrwt>
<totfact> 0.65301975E-04</totfact>
</mgrwt>
<clustering>
<clus scale="   31.313">  1  6  2 -1</clus>
<clus scale="  460.550">  4  5 -1 -1</clus>
<clus scale="  300.000">  1  4  2 -1</clus>
</clustering>
</event>
<event>
 6    1  0.9480355E-012  0.3000000E+03  0.7818608E-02  0.1093470E+00
          1   -1    0    0  502    0  0.00000000000E+00  0.00000000000E+00  0.22828298621E+03  0.22828298621E+03  0.00000000000E+00 0.  1.
         13   -1    0    0    0    0 -0.00000000000E+00 -0.00000000000E+00 -0.27500000000E+03  0.27500000000E+03  0.00000000000E+00 0.  1.
    9000005    2    1    2  501    0 -0.33554347609E+02  0.20203277865E+01 -0.68477105495E+02  0.46323954032E+03  0.45691550835E+03 0.  0.
         13    1    3    3    0    0 -0.19248023873E+03 -0.10844711383E+03  0.62429150463E+02  0.22957965421E+03  0.00000000000E+00 0.  1.
          1    1    3    3  501    0  0.15892589112E+03  0.11046744162E+03 -0.13090625596E+03  0.23365988611E+03  0.00000000000E+00 0.  1.
         21    1    1    2  502  501  0.33554347609E+02 -0.20203277865E+01  0.21760091705E+02  0.40043445891E+02  0.00000000000E+00 0.  1.
<scales pt_clust_4="550.00000" pt_clust_5="550.00000" pt_clust_6="33.61512"></scales>
<mgrwt>
<rscale>  0 0.30000000E+03</rscale>
<asrwt>  1 0.33615115E+02</asrwt>
<pdfrwt beam="1">  1        1 0.83011995E+00 0.30000000E+03</pdfrwt>
<pdfrwt beam="2">0</pdfrwt>
<totfact> 0.59415425E-04</totfact>
</mgrwt>
<clustering>
<clus scale="   33.615">  1  6  2 -1</clus>
<clus scale="  456.916">  4  5 -1 -1</clus>
<clus scale="  300.000">  1  4  2 -1</clus>
</clustering>
</event>
<event>
 6    1  0.9480355E-012  0.3000000E+03  0.7818608E-02  0.1093470E+00
          1   -1    0    0  502    0  0.00000000000E+00  0.00000000000E+00  0.24846842349E+03  0.24846842349E+03  0.00000000000E+00 0.  1.
         13   -1    0    0    0    0 -0.00000000000E+00 -0.00000000000E+00 -0.27500000000E+03  0.27500000000E+03  0.00000000000E+00 0.  1.
    9000005    2    1    2  501    0 -0.47264571493E+02  0.72859840756E+01 -0.58714226757E+02  0.46582513889E+03  0.45962884409E+03 0.  0.
         13    1    3    3    0    0  0.14110948269E+03  0.14032104134E+03  0.58103525604E+02  0.20731111990E+03  0.00000000000E+00 0.  1.
          3    1    3    3  501    0 -0.18837405418E+03 -0.13303505726E+03 -0.11681775236E+03  0.25851401899E+03  0.00000000000E+00 0.  1.
         21    1    1    2  502  501  0.47264571493E+02 -0.72859840756E+01  0.32182650249E+02  0.57643284600E+02  0.00000000000E+00 0.  1.
<scales pt_clust_4="550.00000" pt_clust_5="550.00000" pt_clust_6="47.82285"></scales>
<mgrwt>
<rscale>  0 0.30000000E+03</rscale>
<asrwt>  1 0.47822853E+02</asrwt>
<pdfrwt beam="1">  1        1 0.90352154E+00 0.30000000E+03</pdfrwt>
<pdfrwt beam="2">0</pdfrwt>
<totfact> 0.92839176E-05</totfact>
</mgrwt>
<clustering>
<clus scale="   47.823">  1  6  2 -1</clus>
<clus scale="  459.629">  4  5 -1 -1</clus>
<clus scale="  300.000">  1  4  2 -1</clus>
</clustering>
</event>
<event>
 6    1  0.9480355E-012  0.3000000E+03  0.7818608E-02  0.1093470E+00
          1   -1    0    0  502    0  0.00000000000E+00  0.00000000000E+00  0.24927534569E+03  0.24927534569E+03  0.00000000000E+00 0.  1.
         13   -1    0    0    0    0 -0.00000000000E+00 -0.00000000000E+00 -0.27500000000E+03  0.27500000000E+03  0.00000000000E+00 0.  1.
    9000005    2    1    2  501    0  0.42569002478E+02 -0.50959912608E+00 -0.46851546753E+02  0.47674929760E+03  0.47252771946E+03 0.  0.
         13    1    3    3    0    0 -0.18419271778E+03  0.66193553903E+02  0.76482350042E+02  0.21013827288E+03  0.00000000000E+00 0.  1.
          3    1    3    3  501    0  0.22676172026E+03 -0.66703153029E+02 -0.12333389679E+03  0.26661102471E+03  0.00000000000E+00 0.  1.
         21    1    1    2  502  501 -0.42569002478E+02  0.50959912608E+00  0.21126892444E+02  0.47526048096E+02  0.00000000000E+00 0.  1.
<scales pt_clust_4="550.00000" pt_clust_5="550.00000" pt_clust_6="42.57205"></scales>
<mgrwt>
<rscale>  0 0.30000000E+03</rscale>
<asrwt>  1 0.42572053E+02</asrwt>
<pdfrwt beam="1">  1        1 0.90645580E+00 0.30000000E+03</pdfrwt>
<pdfrwt beam="2">0</pdfrwt>
<totfact> 0.83448686E-05</totfact>
</mgrwt>
<clustering>
<clus scale="   42.572">  1  6  2 -1</clus>
<clus scale="  472.528">  4  5 -1 -1</clus>
<clus scale="  300.000">  1  4  2 -1</clus>
</clustering>
</event>
<event>
 6    1  0.9480355E-012  0.3000000E+03  0.7818608E-02  0.1093470E+00
          1   -1    0    0  502    0  0.00000000000E+00  0.00000000000E+00  0.24744687508E+03  0.24744687508E+03  0.00000000000E+00 0.  1.
         13   -1    0    0    0    0 -0.00000000000E+00 -0.00000000000E+00 -0.27500000000E+03  0.27500000000E+03  0.00000000000E+00 0.  1.
    9000005    2    1    2  501    0  0.49861262020E+02 -0.75286846248E+01 -0.27745030203E+02  0.47202006306E+03  0.46849794737E+03 0.  0.
         13    1    3    3    0    0  0.16332659058E+03 -0.16768171343E+02  0.17471179446E+03  0.23975186732E+03  0.00000000000E+00 0.  1.
          3    1    3    3  501    0 -0.11346532856E+03  0.92394867182E+01 -0.20245682467E+03  0.23226819574E+03  0.00000000000E+00 0.  1.
         21    1    1    2  502  501 -0.49861262020E+02  0.75286846248E+01  0.19190528057E+00  0.50426812016E+02  0.00000000000E+00 0.  1.
<scales pt_clust_4="550.00000" pt_clust_5="550.00000" pt_clust_6="50.42645"></scales>
<mgrwt>
<rscale>  0 0.30000000E+03</rscale>
<asrwt>  1 0.50426447E+02</asrwt>
<pdfrwt beam="1">  1        1 0.89980682E+00 0.30000000E+03</pdfrwt>
<pdfrwt beam="2">0</pdfrwt>
<totfact> 0.10395692E-04</totfact>
</mgrwt>
<clustering>
<clus scale="   50.426">  1  6  2 -1</clus>
<clus scale="  468.498">  4  5 -1 -1</clus>
<clus scale="  300.000">  1  4  2 -1</clus>
</clustering>
</event>
<event>
 6    1  0.9480355E-012  0.3000000E+03  0.7818608E-02  0.1093470E+00
          1   -1    0    0  502    0  0.00000000000E+00  0.00000000000E+00  0.22590713149E+03  0.22590713149E+03  0.00000000000E+00 0.  1.
         13   -1    0    0    0    0 -0.00000000000E+00 -0.00000000000E+00 -0.27500000000E+03  0.27500000000E+03  0.00000000000E+00 0.  1.
    9000005    2    1    2  501    0 -0.34363611506E+02  0.83355876580E+01 -0.59889305761E+02  0.46393548189E+03  0.45869277582E+03 0.  0.
         13    1    3    3    0    0  0.49886763221E+02 -0.17278737982E+03 -0.15980101397E+03  0.24058373144E+03  0.00000000000E+00 0.  1.
          3    1    3    3  501    0 -0.84250374727E+02  0.18112296748E+03  0.99911708206E+02  0.22335175044E+03  0.00000000000E+00 0.  1.
         21    1    1    2  502  501  0.34363611506E+02 -0.83355876580E+01  0.10796437255E+02  0.36971649608E+02  0.00000000000E+00 0.  1.
<scales pt_clust_4="550.00000" pt_clust_5="550.00000" pt_clust_6="35.36014"></scales>
<mgrwt>
<rscale>  0 0.30000000E+03</rscale>
<asrwt>  1 0.35360144E+02</asrwt>
<pdfrwt beam="1">  1        1 0.82148048E+00 0.30000000E+03</pdfrwt>
<pdfrwt beam="2">0</pdfrwt>
<totfact> 0.70071122E-04</totfact>
</mgrwt>
<clustering>
<clus scale="   35.360">  1  6  2 -1</clus>
<clus scale="  458.693">  4  5 -1 -1</clus>
<clus scale="  300.000">  1  4  2 -1</clus>
</clustering>
</event>
<event>
 6    1  0.9480355E-012  0.3000000E+03  0.7818608E-02  0.1093470E+00
          1   -1    0    0  502    0  0.00000000000E+00  0.00000000000E+00  0.23430250121E+03  0.23430250121E+03  0.00000000000E+00 0.  1.
         13   -1    0    0    0    0 -0.00000000000E+00 -0.00000000000E+00 -0.27500000000E+03  0.27500000000E+03  0.00000000000E+00 0.  1.
    9000005    2    1    2  501    0 -0.23946638306E+02 -0.19707571522E+02 -0.42890190857E+02  0.47821170258E+03  0.47527364133E+03 0.  0.
         13    1    3    3    0    0  0.10553315388E+03 -0.23623616153E+02  0.18603088676E+03  0.21518088353E+03  0.00000000000E+00 0.  1.
          3    1    3    3  501    0 -0.12947979218E+03  0.39160446306E+01 -0.22892107762E+03  0.26303081904E+03  0.00000000000E+00 0.  1.
         21    1    1    2  502  501  0.23946638306E+02  0.19707571522E+02  0.21926920698E+01  0.31090798638E+02  0.00000000000E+00 0.  1.
<scales pt_clust_4="550.00000" pt_clust_5="550.00000" pt_clust_6="31.01338"></scales>
<mgrwt>
<rscale>  0 0.30000000E+03</rscale>
<asrwt>  1 0.31013382E+02</asrwt>
<pdfrwt beam="1">  1        1 0.85200910E+00 0.30000000E+03</pdfrwt>
<pdfrwt beam="2">0</pdfrwt>
<totfact> 0.39853194E-04</totfact>
</mgrwt>
<clustering>
<clus scale="   31.013">  1  6  2 -1</clus>
<clus scale="  475.274">  4  5 -1 -1</clus>
<clus scale="  300.000">  1  4  2 -1</clus>
</clustering>
</event>
