<event>
 6    1  0.5267428E-003  0.6324501E+03  0.7818608E-02  0.9840279E-01
          1   -1    0    0  502    0  0.00000000000E+00  0.00000000000E+00  0.99998348991E+02  0.99998348991E+02  0.00000000000E+00 0.  1.
         13   -1    0    0    0    0 -0.00000000000E+00 -0.00000000000E+00 -0.10000000000E+04  0.10000000000E+04  0.00000000000E+00 0.  1.
    9000005    2    1    2  501    0 -0.31993209994E-04  0.20040581603E-05 -0.90000169717E+03  0.10999982928E+04  0.63245014764E+03 0.  0.
         13    1    3    3    0    0 -0.50621173156E+02  0.11793382884E+03  0.52665962529E+02  0.13872488877E+03  0.00000000000E+00 0.  1.
          3    1    3    3  501    0  0.50621141163E+02 -0.11793382683E+03 -0.95266765970E+03  0.96127340402E+03  0.00000000000E+00 0.  1.
         21    1    1    2  502  501  0.31993209988E-04 -0.20040581689E-05  0.46158030582E-04  0.56197380026E-04  0.00000000000E+00 0.  1.
<mgrwt>
<rscale>  1 0.63245015E+03</rscale>
<asrwt>0</asrwt>
<pdfrwt beam="1">  1        1 0.36363113E+00 0.63245015E+03</pdfrwt>
<pdfrwt beam="2">0</pdfrwt>
<totfact> 0.19428762E+00</totfact>
</mgrwt>
</event>
<event>
 6    1  0.5267428E-003  0.6453863E+03  0.7818608E-02  0.9815475E-01
          1   -1    0    0  502    0  0.00000000000E+00  0.00000000000E+00  0.10834471212E+03  0.10834471212E+03  0.00000000000E+00 0.  1.
         13   -1    0    0    0    0 -0.00000000000E+00 -0.00000000000E+00 -0.10000000000E+04  0.10000000000E+04  0.00000000000E+00 0.  1.
    9000005    2    1    2  501    0 -0.53749902524E+01  0.86294059511E+01 -0.88752456775E+03  0.10973711067E+04  0.64530622984E+03 0.  0.
         13    1    3    3    0    0 -0.13371424851E+03 -0.22268466645E+03 -0.12111878413E+03  0.28659679132E+03  0.00000000000E+00 0.  1.
          3    1    3    3  501    0  0.12833925826E+03  0.23131407240E+03 -0.76640578362E+03  0.81077431537E+03  0.00000000000E+00 0.  1.
         21    1    1    2  502  501  0.53749902524E+01 -0.86294059511E+01 -0.41307201309E+01  0.10973605428E+02  0.00000000000E+00 0. -1.
<mgrwt>
<rscale>  1 0.64538631E+03</rscale>
<asrwt>0</asrwt>
<pdfrwt beam="1">  1        1 0.39398160E+00 0.64538631E+03</pdfrwt>
<pdfrwt beam="2">0</pdfrwt>
<totfact> 0.14242140E+00</totfact>
</mgrwt>
</event>
<event>
 6    1  0.5267428E-003  0.6462027E+03  0.7818608E-02  0.9813931E-01
          3   -1    0    0  502    0  0.00000000000E+00  0.00000000000E+00  0.11029948118E+03  0.11029948118E+03  0.00000000000E+00 0.  1.
         13   -1    0    0    0    0 -0.00000000000E+00 -0.00000000000E+00 -0.10000000000E+04  0.10000000000E+04  0.00000000000E+00 0.  1.
    9000005    2    1    2  501    0  0.12765632370E+00  0.65474599620E-02 -0.89560475372E+03  0.11043938628E+04  0.64620268716E+03 0.  0.
         13    1    3    3    0    0  0.29846471479E+03  0.12266870690E+03 -0.41805884502E+03  0.52811172637E+03  0.00000000000E+00 0.  1.
          3    1    3    3  501    0 -0.29833705847E+03 -0.12266215944E+03 -0.47754590870E+03  0.57628213640E+03  0.00000000000E+00 0.  1.
         21    1    1    2  502  501 -0.12765632370E+00 -0.65474599620E-02  0.59042349072E+01  0.59056184134E+01  0.00000000000E+00 0.  1.
<mgrwt>
<rscale>  1 0.64620270E+03</rscale>
<asrwt>0</asrwt>
<pdfrwt beam="1">  1        3 0.40108987E+00 0.64620270E+03</pdfrwt>
<pdfrwt beam="2">0</pdfrwt>
<totfact> 0.58503835E-02</totfact>
</mgrwt>
</event>
<event>
 6    1  0.5267428E-003  0.6526613E+03  0.7818608E-02  0.9801798E-01
          1   -1    0    0  502    0  0.00000000000E+00  0.00000000000E+00  0.10651038144E+03  0.10651038144E+03  0.00000000000E+00 0.  1.
         13   -1    0    0    0    0 -0.00000000000E+00 -0.00000000000E+00 -0.10000000000E+04  0.10000000000E+04  0.00000000000E+00 0.  1.
    9000005    2    1    2  501    0 -0.24188899727E-01 -0.15177012168E-01 -0.89349536087E+03  0.11064812538E+04  0.65266132438E+03 0.  0.
         13    1    3    3    0    0  0.26052536665E+03  0.76588099433E+02 -0.13995071158E+03  0.30549207078E+03  0.00000000000E+00 0.  1.
          3    1    3    3  501    0 -0.26054955555E+03 -0.76603276445E+02 -0.75354464929E+03  0.80098918303E+03  0.00000000000E+00 0.  1.
         21    1    1    2  502  501  0.24188899727E-01  0.15177012168E-01  0.57423131139E-02  0.29127628263E-01  0.00000000000E+00 0.  1.
<mgrwt>
<rscale>  1 0.65266133E+03</rscale>
<asrwt>0</asrwt>
<pdfrwt beam="1">  1        1 0.38731129E+00 0.65266133E+03</pdfrwt>
<pdfrwt beam="2">0</pdfrwt>
<totfact> 0.15225416E+00</totfact>
</mgrwt>
</event>
<event>
 6    1  0.5267428E-003  0.6492895E+03  0.7818608E-02  0.9808113E-01
          1   -1    0    0  502    0  0.00000000000E+00  0.00000000000E+00  0.10539420286E+03  0.10539420286E+03  0.00000000000E+00 0.  1.
         13   -1    0    0    0    0 -0.00000000000E+00 -0.00000000000E+00 -0.10000000000E+04  0.10000000000E+04  0.00000000000E+00 0.  1.
    9000005    2    1    2  501    0 -0.43831386165E-05 -0.49939176563E-05 -0.89460579823E+03  0.11053941961E+04  0.64928945363E+03 0.  0.
         13    1    3    3    0    0 -0.28880042874E+03 -0.12074170244E+03 -0.30075264341E+03  0.43409261554E+03  0.00000000000E+00 0.  1.
          3    1    3    3  501    0  0.28880042435E+03  0.12074169745E+03 -0.59385315482E+03  0.67130158059E+03  0.00000000000E+00 0.  1.
         21    1    1    2  502  501  0.43831386467E-05  0.49939176598E-05  0.10928912280E-05  0.67339089113E-05  0.00000000000E+00 0. -1.
<mgrwt>
<rscale>  1 0.64928945E+03</rscale>
<asrwt>0</asrwt>
<pdfrwt beam="1">  1        1 0.38325245E+00 0.64928945E+03</pdfrwt>
<pdfrwt beam="2">0</pdfrwt>
<totfact> 0.15877991E+00</totfact>
</mgrwt>
</event>
<event>
 6    1  0.5267428E-003  0.6514308E+03  0.7818608E-02  0.9804098E-01
          1   -1    0    0  502    0  0.00000000000E+00  0.00000000000E+00  0.10723662366E+03  0.10723662366E+03  0.00000000000E+00 0.  1.
         13   -1    0    0    0    0 -0.00000000000E+00 -0.00000000000E+00 -0.10000000000E+04  0.10000000000E+04  0.00000000000E+00 0.  1.
    9000005    2    1    2  501    0  0.20770600784E+01 -0.63587440292E+00 -0.89263478026E+03  0.11050606063E+04  0.65142718246E+03 0.  0.
         13    1    3    3    0    0  0.35836971324E+02 -0.24361273856E+03 -0.80938014671E+03  0.84600690115E+03  0.00000000000E+00 0.  1.
          3    1    3    3  501    0 -0.33759911246E+02  0.24297686415E+03 -0.83254633548E+02  0.25905370510E+03  0.00000000000E+00 0.  1.
         21    1    1    2  502  501 -0.20770600784E+01  0.63587440292E+00 -0.12859607984E+00  0.21760174120E+01  0.00000000000E+00 0. -1.
<mgrwt>
<rscale>  1 0.65143080E+03</rscale>
<asrwt>0</asrwt>
<pdfrwt beam="1">  1        1 0.38995218E+00 0.65143080E+03</pdfrwt>
<pdfrwt beam="2">0</pdfrwt>
<totfact> 0.14824011E+00</totfact>
</mgrwt>
</event>
<event>
 6    1  0.5267428E-003  0.6513855E+03  0.7818608E-02  0.9804183E-01
          1   -1    0    0  502    0  0.00000000000E+00  0.00000000000E+00  0.10608954336E+03  0.10608954336E+03  0.00000000000E+00 0.  1.
         13   -1    0    0    0    0 -0.00000000000E+00 -0.00000000000E+00 -0.10000000000E+04  0.10000000000E+04  0.00000000000E+00 0.  1.
    9000005    2    1    2  501    0  0.10243250378E-02  0.15274441065E-01 -0.89391934543E+03  0.11060718411E+04  0.65138553975E+03 0.  0.
         13    1    3    3    0    0  0.10306839814E+03 -0.27250308721E+03 -0.69413369188E+03  0.75279652592E+03  0.00000000000E+00 0.  1.
          1    1    3    3  501    0 -0.10306737381E+03  0.27251836165E+03 -0.19978565355E+03  0.35327531523E+03  0.00000000000E+00 0.  1.
         21    1    1    2  502  501 -0.10243250378E-02 -0.15274441065E-01  0.88887993594E-02  0.17702218665E-01  0.00000000000E+00 0. -1.
<mgrwt>
<rscale>  1 0.65138554E+03</rscale>
<asrwt>0</asrwt>
<pdfrwt beam="1">  1        1 0.38578097E+00 0.65138554E+03</pdfrwt>
<pdfrwt beam="2">0</pdfrwt>
<totfact> 0.15468421E+00</totfact>
</mgrwt>
</event>
<event>
 6    1  0.5267428E-003  0.6575583E+03  0.7818608E-02  0.9792699E-01
          1   -1    0    0  502    0  0.00000000000E+00  0.00000000000E+00  0.10810779078E+03  0.10810779078E+03  0.00000000000E+00 0.  1.
         13   -1    0    0    0    0 -0.00000000000E+00 -0.00000000000E+00 -0.10000000000E+04  0.10000000000E+04  0.00000000000E+00 0.  1.
    9000005    2    1    2  501    0 -0.15221774969E-02 -0.70609050536E-03 -0.89190420368E+03  0.11080956795E+04  0.65755830649E+03 0.  0.
         13    1    3    3    0    0  0.22928842880E+03 -0.19768373260E+03 -0.22985908392E+03  0.38011477237E+03  0.00000000000E+00 0.  1.
          3    1    3    3  501    0 -0.22928995097E+03  0.19768302651E+03 -0.66204511976E+03  0.72798090715E+03  0.00000000000E+00 0.  1.
         21    1    1    2  502  501  0.15221774968E-02  0.70609050535E-03  0.11994459490E-01  0.12111261148E-01  0.00000000000E+00 0.  1.
<mgrwt>
<rscale>  1 0.65755831E+03</rscale>
<asrwt>0</asrwt>
<pdfrwt beam="1">  1        1 0.39312007E+00 0.65755831E+03</pdfrwt>
<pdfrwt beam="2">0</pdfrwt>
<totfact> 0.14335438E+00</totfact>
</mgrwt>
</event>
<event>
 6    1  0.5267428E-003  0.6606650E+03  0.7818608E-02  0.9786970E-01
          1   -1    0    0  502    0  0.00000000000E+00  0.00000000000E+00  0.10912060199E+03  0.10912060199E+03  0.00000000000E+00 0.  1.
         13   -1    0    0    0    0 -0.00000000000E+00 -0.00000000000E+00 -0.10000000000E+04  0.10000000000E+04  0.00000000000E+00 0.  1.
    9000005    2    1    2  501    0  0.32594188804E-03  0.10667922106E-03 -0.89088040628E+03  0.11091195370E+04  0.66066500517E+03 0.  0.
         13    1    3    3    0    0  0.18673973007E+03 -0.24820189274E+03 -0.25666983817E+03  0.40293338429E+03  0.00000000000E+00 0.  1.
          1    1    3    3  501    0 -0.18673940413E+03  0.24820199942E+03 -0.63421056810E+03  0.70618615270E+03  0.00000000000E+00 0.  1.
         21    1    1    2  502  501 -0.32594188804E-03 -0.10667922108E-03  0.10082644524E-02  0.10649956697E-02  0.00000000000E+00 0.  1.
<mgrwt>
<rscale>  1 0.66066501E+03</rscale>
<asrwt>0</asrwt>
<pdfrwt beam="1">  1        1 0.39680303E+00 0.66066501E+03</pdfrwt>
<pdfrwt beam="2">0</pdfrwt>
<totfact> 0.13796933E+00</totfact>
</mgrwt>
</event>
<event>
 6    1  0.5267428E-003  0.6494705E+03  0.7818608E-02  0.9807773E-01
          1   -1    0    0  502    0  0.00000000000E+00  0.00000000000E+00  0.10550442857E+03  0.10550442857E+03  0.00000000000E+00 0.  1.
         13   -1    0    0    0    0 -0.00000000000E+00 -0.00000000000E+00 -0.10000000000E+04  0.10000000000E+04  0.00000000000E+00 0.  1.
    9000005    2    1    2  501    0  0.32565782514E-02 -0.92522117347E-03 -0.89454696170E+03  0.11054529269E+04  0.64947048193E+03 0.  0.
         13    1    3    3    0    0  0.26221797322E+03 -0.19065277218E+03 -0.47899393557E+03  0.57839600218E+03  0.00000000000E+00 0.  1.
          3    1    3    3  501    0 -0.26221471664E+03  0.19065184696E+03 -0.41555302613E+03  0.52705692473E+03  0.00000000000E+00 0.  1.
         21    1    1    2  502  501 -0.32565782513E-02  0.92522117346E-03  0.51390270116E-01  0.51501662097E-01  0.00000000000E+00 0. -1.
<mgrwt>
<rscale>  1 0.64947048E+03</rscale>
<asrwt>0</asrwt>
<pdfrwt beam="1">  1        1 0.38365328E+00 0.64947048E+03</pdfrwt>
<pdfrwt beam="2">0</pdfrwt>
<totfact> 0.15812826E+00</totfact>
</mgrwt>
</event>
<event>
 6    1  0.5267428E-003  0.6421334E+03  0.7818608E-02  0.9821653E-01
          1   -1    0    0  502    0  0.00000000000E+00  0.00000000000E+00  0.10308385338E+03  0.10308385338E+03  0.00000000000E+00 0.  1.
         13   -1    0    0    0    0 -0.00000000000E+00 -0.00000000000E+00 -0.10000000000E+04  0.10000000000E+04  0.00000000000E+00 0.  1.
    9000005    2    1    2  501    0  0.32593578965E-05 -0.11550745285E-05 -0.89691616035E+03  0.11030838392E+04  0.64213344224E+03 0.  0.
         13    1    3    3    0    0  0.10167193990E+03 -0.29603225381E+03 -0.57127551732E+03  0.65140463258E+03  0.00000000000E+00 0.  1.
          1    1    3    3  501    0 -0.10167193664E+03  0.29603225266E+03 -0.32564064303E+03  0.45167920664E+03  0.00000000000E+00 0.  1.
         21    1    1    2  502  501 -0.32593578869E-05  0.11550745100E-05  0.13729675816E-04  0.14158446559E-04  0.00000000000E+00 0. -1.
<mgrwt>
<rscale>  1 0.64213344E+03</rscale>
<asrwt>0</asrwt>
<pdfrwt beam="1">  1        1 0.37485117E+00 0.64213344E+03</pdfrwt>
<pdfrwt beam="2">0</pdfrwt>
<totfact> 0.17314834E+00</totfact>
</mgrwt>
</event>
<event>
 6    1  0.5267428E-003  0.6513414E+03  0.7818608E-02  0.9804265E-01
          1   -1    0    0  502    0  0.00000000000E+00  0.00000000000E+00  0.10606977006E+03  0.10606977006E+03  0.00000000000E+00 0.  1.
         13   -1    0    0    0    0 -0.00000000000E+00 -0.00000000000E+00 -0.10000000000E+04  0.10000000000E+04  0.00000000000E+00 0.  1.
    9000005    2    1    2  501    0 -0.66913002115E-04  0.38753999343E-03 -0.89393859245E+03  0.11060613983E+04  0.65134139262E+03 0.  0.
         13    1    3    3    0    0  0.31257615661E+03  0.87735062457E+02 -0.49059902300E+03  0.58829303602E+03  0.00000000000E+00 0.  1.
          1    1    3    3  501    0 -0.31257622352E+03 -0.87734674917E+02 -0.40333956946E+03  0.51776836229E+03  0.00000000000E+00 0.  1.
         21    1    1    2  502  501  0.66913002122E-04 -0.38753999343E-03  0.83625113483E-02  0.83717537378E-02  0.00000000000E+00 0.  1.
<mgrwt>
<rscale>  1 0.65134139E+03</rscale>
<asrwt>0</asrwt>
<pdfrwt beam="1">  1        1 0.38570907E+00 0.65134139E+03</pdfrwt>
<pdfrwt beam="2">0</pdfrwt>
<totfact> 0.15479884E+00</totfact>
</mgrwt>
</event>
<event>
 6    1  0.5267428E-003  0.6544926E+03  0.7818608E-02  0.9798385E-01
          1   -1    0    0  502    0  0.00000000000E+00  0.00000000000E+00  0.10709278307E+03  0.10709278307E+03  0.00000000000E+00 0.  1.
         13   -1    0    0    0    0 -0.00000000000E+00 -0.00000000000E+00 -0.10000000000E+04  0.10000000000E+04  0.00000000000E+00 0.  1.
    9000005    2    1    2  501    0 -0.25714796215E-03 -0.47374368606E-03 -0.89290982877E+03  0.11070901162E+04  0.65449259970E+03 0.  0.
         13    1    3    3    0    0  0.16463974666E+03  0.25382859645E+03 -0.65741942905E+03  0.72369572905E+03  0.00000000000E+00 0.  1.
          3    1    3    3  501    0 -0.16464000381E+03 -0.25382907020E+03 -0.23549039972E+03  0.38339438714E+03  0.00000000000E+00 0.  1.
         21    1    1    2  502  501  0.25714796215E-03  0.47374368608E-03  0.26118352826E-02  0.26668786432E-02  0.00000000000E+00 0.  1.
<mgrwt>
<rscale>  1 0.65449260E+03</rscale>
<asrwt>0</asrwt>
<pdfrwt beam="1">  1        1 0.38942912E+00 0.65449260E+03</pdfrwt>
<pdfrwt beam="2">0</pdfrwt>
<totfact> 0.14894909E+00</totfact>
</mgrwt>
</event>
<event>
 6    1  0.5267428E-003  0.6479324E+03  0.7818608E-02  0.9810667E-01
          1   -1    0    0  502    0  0.00000000000E+00  0.00000000000E+00  0.10497836785E+03  0.10497836785E+03  0.00000000000E+00 0.  1.
         13   -1    0    0    0    0 -0.00000000000E+00 -0.00000000000E+00 -0.10000000000E+04  0.10000000000E+04  0.00000000000E+00 0.  1.
    9000005    2    1    2  501    0 -0.66901788621E-01 -0.14055517981E-01 -0.89497050863E+03  0.11048930038E+04  0.64793235282E+03 0.  0.
         13    1    3    3    0    0  0.24716502463E+03  0.19737808327E+03 -0.56664303715E+03  0.64894760089E+03  0.00000000000E+00 0.  1.
          1    1    3    3  501    0 -0.24723192642E+03 -0.19739213879E+03 -0.32832747148E+03  0.45594540290E+03  0.00000000000E+00 0.  1.
         21    1    1    2  502  501  0.66901788621E-01  0.14055517981E-01 -0.51123521630E-01  0.85364051979E-01  0.00000000000E+00 0.  1.
<mgrwt>
<rscale>  1 0.64793236E+03</rscale>
<asrwt>0</asrwt>
<pdfrwt beam="1">  1        1 0.38174032E+00 0.64793236E+03</pdfrwt>
<pdfrwt beam="2">0</pdfrwt>
<totfact> 0.16128137E+00</totfact>
</mgrwt>
</event>
<event>
 6    1  0.5267428E-003  0.6222681E+03  0.7818608E-02  0.9860254E-01
          1   -1    0    0  502    0  0.00000000000E+00  0.00000000000E+00  0.96810997978E+02  0.96810997978E+02  0.00000000000E+00 0.  1.
         13   -1    0    0    0    0 -0.00000000000E+00 -0.00000000000E+00 -0.10000000000E+04  0.10000000000E+04  0.00000000000E+00 0.  1.
    9000005    2    1    2  501    0 -0.87769126650E-02  0.19820848319E-02 -0.90319209026E+03  0.10968014848E+04  0.62226806534E+03 0.  0.
         13    1    3    3    0    0  0.16197013505E+03  0.16770116666E+03 -0.81472613385E+03  0.84742945378E+03  0.00000000000E+00 0.  1.
          3    1    3    3  501    0 -0.16197891196E+03 -0.16769918457E+03 -0.88465956403E+02  0.24937203105E+03  0.00000000000E+00 0.  1.
         21    1    1    2  502  501  0.87769126649E-02 -0.19820848319E-02  0.30882341136E-02  0.95131512208E-02  0.00000000000E+00 0.  1.
<mgrwt>
<rscale>  1 0.62226807E+03</rscale>
<asrwt>0</asrwt>
<pdfrwt beam="1">  1        1 0.35204074E+00 0.62226807E+03</pdfrwt>
<pdfrwt beam="2">0</pdfrwt>
<totfact> 0.21872116E+00</totfact>
</mgrwt>
</event>
<event>
 6    1  0.5267428E-003  0.6421919E+03  0.7818608E-02  0.9821542E-01
          1   -1    0    0  502    0  0.00000000000E+00  0.00000000000E+00  0.10311016400E+03  0.10311016400E+03  0.00000000000E+00 0.  1.
         13   -1    0    0    0    0 -0.00000000000E+00 -0.00000000000E+00 -0.10000000000E+04  0.10000000000E+04  0.00000000000E+00 0.  1.
    9000005    2    1    2  501    0  0.24186243344E-03  0.19612691133E-03 -0.89689739675E+03  0.11031025968E+04  0.64219187074E+03 0.  0.
         13    1    3    3    0    0 -0.13999619739E+02 -0.12851603887E+03  0.56425783403E+02  0.14105399899E+03  0.00000000000E+00 0.  1.
          1    1    3    3  501    0  0.13999861601E+02  0.12851623500E+03 -0.95332318016E+03  0.96204859784E+03  0.00000000000E+00 0.  1.
         21    1    1    2  502  501 -0.24186243344E-03 -0.19612691134E-03  0.75607556367E-02  0.75671651892E-02  0.00000000000E+00 0. -1.
<mgrwt>
<rscale>  1 0.64219187E+03</rscale>
<asrwt>0</asrwt>
<pdfrwt beam="1">  1        1 0.37494684E+00 0.64219187E+03</pdfrwt>
<pdfrwt beam="2">0</pdfrwt>
<totfact> 0.17297867E+00</totfact>
</mgrwt>
</event>
<event>
 6    1  0.5267428E-003  0.6515553E+03  0.7818608E-02  0.9803865E-01
          1   -1    0    0  502    0  0.00000000000E+00  0.00000000000E+00  0.10613271248E+03  0.10613271248E+03  0.00000000000E+00 0.  1.
         13   -1    0    0    0    0 -0.00000000000E+00 -0.00000000000E+00 -0.10000000000E+04  0.10000000000E+04  0.00000000000E+00 0.  1.
    9000005    2    1    2  501    0 -0.15398786522E-03 -0.15173262653E-03 -0.89386893089E+03  0.11061310550E+04  0.65155525102E+03 0.  0.
         13    1    3    3    0    0  0.11144175481E+03 -0.30544305253E+03 -0.41229326494E+03  0.52507186115E+03  0.00000000000E+00 0.  1.
          3    1    3    3  501    0 -0.11144190879E+03  0.30544290079E+03 -0.48157566594E+03  0.58105919381E+03  0.00000000000E+00 0.  1.
         21    1    1    2  502  501  0.15398786522E-03  0.15173262652E-03  0.16433709721E-02  0.16575292469E-02  0.00000000000E+00 0. -1.
<mgrwt>
<rscale>  1 0.65155525E+03</rscale>
<asrwt>0</asrwt>
<pdfrwt beam="1">  1        1 0.38593795E+00 0.65155525E+03</pdfrwt>
<pdfrwt beam="2">0</pdfrwt>
<totfact> 0.15443215E+00</totfact>
</mgrwt>
</event>
<event>
 6    1  0.5267428E-003  0.5578271E+03  0.7818608E-02  0.9996983E-01
          1   -1    0    0  502    0  0.00000000000E+00  0.00000000000E+00  0.77803927509E+02  0.77803927509E+02  0.00000000000E+00 0.  1.
         13   -1    0    0    0    0 -0.00000000000E+00 -0.00000000000E+00 -0.10000000000E+04  0.10000000000E+04  0.00000000000E+00 0.  1.
    9000005    2    1    2  501    0 -0.13191502138E-02  0.14352266383E-03 -0.92220719003E+03  0.10777927311E+04  0.55782709669E+03 0.  0.
         13    1    3    3    0    0 -0.16164796948E+03 -0.37056649473E+02 -0.27817642281E+02  0.16815790951E+03  0.00000000000E+00 0.  1.
          3    1    3    3  501    0  0.16164665033E+03  0.37056792995E+02 -0.89438954775E+03  0.90963482156E+03  0.00000000000E+00 0.  1.
         21    1    1    2  502  501  0.13191502138E-02 -0.14352266382E-03  0.11117535548E-01  0.11196443753E-01  0.00000000000E+00 0.  1.
<mgrwt>
<rscale>  1 0.55782710E+03</rscale>
<asrwt>0</asrwt>
<pdfrwt beam="1">  1        1 0.28292397E+00 0.55782710E+03</pdfrwt>
<pdfrwt beam="2">0</pdfrwt>
<totfact> 0.44044987E+00</totfact>
</mgrwt>
</event>
<event>
 6    1  0.5267428E-003  0.6585737E+03  0.7818608E-02  0.9790823E-01
          1   -1    0    0  502    0  0.00000000000E+00  0.00000000000E+00  0.12227999193E+03  0.12227999193E+03  0.00000000000E+00 0.  1.
         13   -1    0    0    0    0 -0.00000000000E+00 -0.00000000000E+00 -0.10000000000E+04  0.10000000000E+04  0.00000000000E+00 0.  1.
    9000005    2    1    2  501    0  0.59865745522E-01  0.10709584342E+01 -0.89154715253E+03  0.11084113056E+04  0.65857281048E+03 0.  0.
         13    1    3    3    0    0 -0.30901412824E+03 -0.10690309285E+02 -0.25533070205E+03  0.40099598699E+03  0.00000000000E+00 0.  1.
          1    1    3    3  501    0  0.30907399399E+03  0.11761267719E+02 -0.63621645048E+03  0.70741531864E+03  0.00000000000E+00 0.  1.
         21    1    1    2  502  501 -0.59865745522E-01 -0.10709584342E+01  0.13827144463E+02  0.13868686306E+02  0.00000000000E+00 0. -1.
<mgrwt>
<rscale>  1 0.65857368E+03</rscale>
<asrwt>0</asrwt>
<pdfrwt beam="1">  1        1 0.44465545E+00 0.65857368E+03</pdfrwt>
<pdfrwt beam="2">0</pdfrwt>
<totfact> 0.83922449E-01</totfact>
</mgrwt>
</event>
<event>
 6    1  0.5267428E-003  0.6027247E+03  0.7818608E-02  0.9899769E-01
          1   -1    0    0  502    0  0.00000000000E+00  0.00000000000E+00  0.93999556611E+02  0.93999556611E+02  0.00000000000E+00 0.  1.
         13   -1    0    0    0    0 -0.00000000000E+00 -0.00000000000E+00 -0.10000000000E+04  0.10000000000E+04  0.00000000000E+00 0.  1.
    9000005    2    1    2  501    0 -0.12078190521E+01 -0.18131014766E+01 -0.90876930354E+03  0.10904763833E+04  0.60272078881E+03 0.  0.
         13    1    3    3    0    0  0.19176885969E+03  0.73472178373E+02 -0.55930196862E+02  0.21284182733E+03  0.00000000000E+00 0.  1.
          3    1    3    3  501    0 -0.19297667874E+03 -0.75285279849E+02 -0.85283910668E+03  0.87763455594E+03  0.00000000000E+00 0.  1.
         21    1    1    2  502  501  0.12078190521E+01  0.18131014766E+01  0.27688601509E+01  0.35231733370E+01  0.00000000000E+00 0.  1.
<mgrwt>
<rscale>  1 0.60272473E+03</rscale>
<asrwt>0</asrwt>
<pdfrwt beam="1">  1        1 0.34181729E+00 0.60272473E+03</pdfrwt>
<pdfrwt beam="2">0</pdfrwt>
<totfact> 0.24316880E+00</totfact>
</mgrwt>
</event>
<event>
 6    1  0.5267428E-003  0.6451365E+03  0.7818608E-02  0.9815948E-01
          1   -1    0    0  502    0  0.00000000000E+00  0.00000000000E+00  0.10405274712E+03  0.10405274712E+03  0.00000000000E+00 0.  1.
         13   -1    0    0    0    0 -0.00000000000E+00 -0.00000000000E+00 -0.10000000000E+04  0.10000000000E+04  0.00000000000E+00 0.  1.
    9000005    2    1    2  501    0  0.13557795725E-02  0.74054563230E-02 -0.89593450760E+03  0.11040379444E+04  0.64513652870E+03 0.  0.
         13    1    3    3    0    0 -0.12995050927E+03  0.23670425867E+03 -0.14600153212E+03  0.30697310683E+03  0.00000000000E+00 0.  1.
          3    1    3    3  501    0  0.12995186505E+03 -0.23669685322E+03 -0.74993297548E+03  0.79706483756E+03  0.00000000000E+00 0.  1.
         21    1    1    2  502  501 -0.13557795725E-02 -0.74054563230E-02 -0.12745277908E-01  0.14802737265E-01  0.00000000000E+00 0.  1.
<mgrwt>
<rscale>  1 0.64513653E+03</rscale>
<asrwt>0</asrwt>
<pdfrwt beam="1">  1        1 0.37837442E+00 0.64513653E+03</pdfrwt>
<pdfrwt beam="2">0</pdfrwt>
<totfact> 0.16697791E+00</totfact>
</mgrwt>
</event>
<event>
 6    1  0.5267428E-003  0.6541294E+03  0.7818608E-02  0.9799061E-01
          1   -1    0    0  502    0  0.00000000000E+00  0.00000000000E+00  0.10697136138E+03  0.10697136138E+03  0.00000000000E+00 0.  1.
         13   -1    0    0    0    0 -0.00000000000E+00 -0.00000000000E+00 -0.10000000000E+04  0.10000000000E+04  0.00000000000E+00 0.  1.
    9000005    2    1    2  501    0  0.40831087517E-04  0.60886509345E-05 -0.89302865850E+03  0.11069713156E+04  0.65412942800E+03 0.  0.
         13    1    3    3    0    0 -0.29101003247E+03 -0.10405724049E+03 -0.62764827763E+03  0.69961211304E+03  0.00000000000E+00 0.  1.
          1    1    3    3  501    0  0.29101007330E+03  0.10405724658E+03 -0.26538038087E+03  0.40735920252E+03  0.00000000000E+00 0.  1.
         21    1    1    2  502  501 -0.40831087501E-04 -0.60886509364E-05  0.19887120712E-04  0.45822995831E-04  0.00000000000E+00 0.  1.
<mgrwt>
<rscale>  1 0.65412943E+03</rscale>
<asrwt>0</asrwt>
<pdfrwt beam="1">  1        1 0.38898759E+00 0.65412943E+03</pdfrwt>
<pdfrwt beam="2">0</pdfrwt>
<totfact> 0.14963196E+00</totfact>
</mgrwt>
</event>
<event>
 6    1  0.5267428E-003  0.6350305E+03  0.7818608E-02  0.9835281E-01
          1   -1    0    0  502    0  0.00000000000E+00  0.00000000000E+00  0.10081594728E+03  0.10081594728E+03  0.00000000000E+00 0.  1.
         13   -1    0    0    0    0 -0.00000000000E+00 -0.00000000000E+00 -0.10000000000E+04  0.10000000000E+04  0.00000000000E+00 0.  1.
    9000005    2    1    2  501    0 -0.53756994589E-05  0.59935198351E-05 -0.89918404845E+03  0.11008159382E+04  0.63503053214E+03 0.  0.
         13    1    3    3    0    0  0.25449295800E+03 -0.18886883084E+03 -0.41589631739E+03  0.52288416284E+03  0.00000000000E+00 0.  1.
          1    1    3    3  501    0 -0.25449296338E+03  0.18886883684E+03 -0.48328773106E+03  0.57793177533E+03  0.00000000000E+00 0.  1.
         21    1    1    2  502  501  0.53756994835E-05 -0.59935198527E-05 -0.42719389920E-05  0.91142683696E-05  0.00000000000E+00 0. -1.
<mgrwt>
<rscale>  1 0.63503053E+03</rscale>
<asrwt>0</asrwt>
<pdfrwt beam="1">  1        1 0.36660422E+00 0.63503053E+03</pdfrwt>
<pdfrwt beam="2">0</pdfrwt>
<totfact> 0.18845691E+00</totfact>
</mgrwt>
</event>
<event>
 6    1  0.5267428E-003  0.6507318E+03  0.7818608E-02  0.9805407E-01
          3   -1    0    0  502    0  0.00000000000E+00  0.00000000000E+00  0.10586298515E+03  0.10586298515E+03  0.00000000000E+00 0.  1.
         13   -1    0    0    0    0 -0.00000000000E+00 -0.00000000000E+00 -0.10000000000E+04  0.10000000000E+04  0.00000000000E+00 0.  1.
    9000005    2    1    2  501    0  0.18730407874E-05  0.72915601947E-05 -0.89413703223E+03  0.11058629662E+04  0.65073179394E+03 0.  0.
         13    1    3    3    0    0 -0.28176544592E+03  0.15672814998E+03 -0.52129009779E+03  0.61294277511E+03  0.00000000000E+00 0.  1.
          1    1    3    3  501    0  0.28176544779E+03 -0.15672814269E+03 -0.37284693444E+03  0.49292019110E+03  0.00000000000E+00 0.  1.
         21    1    1    2  502  501 -0.18730408180E-05 -0.72915601942E-05  0.17371618553E-04  0.18932729944E-04  0.00000000000E+00 0. -1.
<mgrwt>
<rscale>  1 0.65073179E+03</rscale>
<asrwt>0</asrwt>
<pdfrwt beam="1">  1        3 0.38495712E+00 0.65073179E+03</pdfrwt>
<pdfrwt beam="2">0</pdfrwt>
<totfact> 0.71058128E-02</totfact>
</mgrwt>
</event>
<event>
 6    1  0.5267428E-003  0.6461585E+03  0.7818608E-02  0.9814014E-01
          1   -1    0    0  502    0  0.00000000000E+00  0.00000000000E+00  0.10438024606E+03  0.10438024606E+03  0.00000000000E+00 0.  1.
         13   -1    0    0    0    0 -0.00000000000E+00 -0.00000000000E+00 -0.10000000000E+04  0.10000000000E+04  0.00000000000E+00 0.  1.
    9000005    2    1    2  501    0 -0.35755115022E-04 -0.19789235267E-04 -0.89561977922E+03  0.11043801980E+04  0.64615851988E+03 0.  0.
         13    1    3    3    0    0  0.19419561336E+03 -0.22460646561E+03 -0.66548445971E+03  0.72871775521E+03  0.00000000000E+00 0.  1.
          3    1    3    3  501    0 -0.19419564912E+03  0.22460644582E+03 -0.23013531951E+03  0.37566244280E+03  0.00000000000E+00 0.  1.
         21    1    1    2  502  501  0.35755115026E-04  0.19789235283E-04  0.25280701131E-04  0.48053677625E-04  0.00000000000E+00 0.  1.
<mgrwt>
<rscale>  1 0.64615852E+03</rscale>
<asrwt>0</asrwt>
<pdfrwt beam="1">  1        1 0.37956533E+00 0.64615852E+03</pdfrwt>
<pdfrwt beam="2">0</pdfrwt>
<totfact> 0.16493984E+00</totfact>
</mgrwt>
</event>
<event>
 6    1  0.5267428E-003  0.6531994E+03  0.7818608E-02  0.9800794E-01
          1   -1    0    0  502    0  0.00000000000E+00  0.00000000000E+00  0.10667772293E+03  0.10667772293E+03  0.00000000000E+00 0.  1.
         13   -1    0    0    0    0 -0.00000000000E+00 -0.00000000000E+00 -0.10000000000E+04  0.10000000000E+04  0.00000000000E+00 0.  1.
    9000005    2    1    2  501    0 -0.49263743557E-03 -0.60431211232E-03 -0.89333260887E+03  0.11066673618E+04  0.65319943317E+03 0.  0.
         13    1    3    3    0    0 -0.32212641655E+03 -0.50732726002E+02 -0.47736570354E+03  0.57811525896E+03  0.00000000000E+00 0.  1.
          1    1    3    3  501    0  0.32212592392E+03  0.50732121690E+02 -0.41596690533E+03  0.52855210279E+03  0.00000000000E+00 0.  1.
         21    1    1    2  502  501  0.49263743554E-03  0.60431211232E-03  0.10331799856E-01  0.10361176238E-01  0.00000000000E+00 0. -1.
<mgrwt>
<rscale>  1 0.65319943E+03</rscale>
<asrwt>0</asrwt>
<pdfrwt beam="1">  1        1 0.38791981E+00 0.65319943E+03</pdfrwt>
<pdfrwt beam="2">0</pdfrwt>
<totfact> 0.15129713E+00</totfact>
</mgrwt>
</event>
<event>
 6    1  0.5267428E-003  0.6524136E+03  0.7818608E-02  0.9802261E-01
          1   -1    0    0  502    0  0.00000000000E+00  0.00000000000E+00  0.10651415180E+03  0.10651415180E+03  0.00000000000E+00 0.  1.
         13   -1    0    0    0    0 -0.00000000000E+00 -0.00000000000E+00 -0.10000000000E+04  0.10000000000E+04  0.00000000000E+00 0.  1.
    9000005    2    1    2  501    0  0.63238684427E-02  0.13105317061E-01 -0.89358854732E+03  0.11064104269E+04  0.65241362699E+03 0.  0.
         13    1    3    3    0    0  0.25791412707E+03 -0.19936136339E+03 -0.42635337365E+03  0.53669530404E+03  0.00000000000E+00 0.  1.
          3    1    3    3  501    0 -0.25790780320E+03  0.19937446871E+03 -0.46723517368E+03  0.56971512289E+03  0.00000000000E+00 0.  1.
         21    1    1    2  502  501 -0.63238684427E-02 -0.13105317061E-01  0.10269912415E+00  0.10372488009E+00  0.00000000000E+00 0. -1.
<mgrwt>
<rscale>  1 0.65241363E+03</rscale>
<asrwt>0</asrwt>
<pdfrwt beam="1">  1        1 0.38732501E+00 0.65241363E+03</pdfrwt>
<pdfrwt beam="2">0</pdfrwt>
<totfact> 0.15223985E+00</totfact>
</mgrwt>
</event>
<event>
 6    1  0.5267428E-003  0.6507288E+03  0.7818608E-02  0.9805413E-01
          1   -1    0    0  502    0  0.00000000000E+00  0.00000000000E+00  0.10734776534E+03  0.10734776534E+03  0.00000000000E+00 0.  1.
         13   -1    0    0    0    0 -0.00000000000E+00 -0.00000000000E+00 -0.10000000000E+04  0.10000000000E+04  0.00000000000E+00 0.  1.
    9000005    2    1    2  501    0  0.15726833567E+00 -0.58462640851E-02 -0.89413339293E+03  0.11058582697E+04  0.65072879413E+03 0.  0.
         13    1    3    3    0    0  0.18286207030E+03  0.25568258607E+03 -0.30415981675E+03  0.43740749388E+03  0.00000000000E+00 0.  1.
          3    1    3    3  501    0 -0.18270480196E+03 -0.25568843234E+03 -0.58997357618E+03  0.66845077581E+03  0.00000000000E+00 0.  1.
         21    1    1    2  502  501 -0.15726833567E+00  0.58462640851E-02  0.14811582698E+01  0.14894956624E+01  0.00000000000E+00 0. -1.
<mgrwt>
<rscale>  1 0.65072881E+03</rscale>
<asrwt>0</asrwt>
<pdfrwt beam="1">  1        1 0.39035633E+00 0.65072881E+03</pdfrwt>
<pdfrwt beam="2">0</pdfrwt>
<totfact> 0.14764893E+00</totfact>
</mgrwt>
</event>
<event>
 6    1  0.5267428E-003  0.6247967E+03  0.7818608E-02  0.9855256E-01
          1   -1    0    0  502    0  0.00000000000E+00  0.00000000000E+00  0.97592775717E+02  0.97592775717E+02  0.00000000000E+00 0.  1.
         13   -1    0    0    0    0 -0.00000000000E+00 -0.00000000000E+00 -0.10000000000E+04  0.10000000000E+04  0.00000000000E+00 0.  1.
    9000005    2    1    2  501    0 -0.33764314651E-04 -0.25512265154E-04 -0.90240727597E+03  0.10975927089E+04  0.62479665727E+03 0.  0.
         13    1    3    3    0    0  0.78544773365E+02 -0.29418841221E+03 -0.57388028368E+03  0.64965735838E+03  0.00000000000E+00 0.  1.
          1    1    3    3  501    0 -0.78544807129E+02  0.29418838669E+03 -0.32852699229E+03  0.44793535054E+03  0.00000000000E+00 0.  1.
         21    1    1    2  502  501  0.33764314650E-04  0.25512265126E-04  0.51690409327E-04  0.66804214179E-04  0.00000000000E+00 0. -1.
<mgrwt>
<rscale>  1 0.62479666E+03</rscale>
<asrwt>0</asrwt>
<pdfrwt beam="1">  1        1 0.35488357E+00 0.62479666E+03</pdfrwt>
<pdfrwt beam="2">0</pdfrwt>
<totfact> 0.21246689E+00</totfact>
</mgrwt>
</event>
<event>
 6    1  0.5267428E-003  0.6591277E+03  0.7818608E-02  0.9789801E-01
          1   -1    0    0  502    0  0.00000000000E+00  0.00000000000E+00  0.10958169005E+03  0.10958169005E+03  0.00000000000E+00 0.  1.
         13   -1    0    0    0    0 -0.00000000000E+00 -0.00000000000E+00 -0.10000000000E+04  0.10000000000E+04  0.00000000000E+00 0.  1.
    9000005    2    1    2  501    0 -0.26531140081E-01  0.84019914419E-01 -0.89138543329E+03  0.11086105614E+04  0.65912774063E+03 0.  0.
         13    1    3    3    0    0 -0.17696559667E+03 -0.26150303606E+03 -0.60428090126E+03  0.68180354055E+03  0.00000000000E+00 0.  1.
          1    1    3    3  501    0  0.17693906553E+03  0.26158705598E+03 -0.28710453203E+03  0.42680702088E+03  0.00000000000E+00 0.  1.
         21    1    1    2  502  501  0.26531140081E-01 -0.84019914419E-01  0.96712333232E+00  0.97112861524E+00  0.00000000000E+00 0.  1.
<mgrwt>
<rscale>  1 0.65912775E+03</rscale>
<asrwt>0</asrwt>
<pdfrwt beam="1">  1        1 0.39847971E+00 0.65912775E+03</pdfrwt>
<pdfrwt beam="2">0</pdfrwt>
<totfact> 0.13565655E+00</totfact>
</mgrwt>
</event>
<event>
 6    1  0.5267428E-003  0.6388392E+03  0.7818608E-02  0.9827950E-01
          3   -1    0    0  502    0  0.00000000000E+00  0.00000000000E+00  0.10202901002E+03  0.10202901002E+03  0.00000000000E+00 0.  1.
         13   -1    0    0    0    0 -0.00000000000E+00 -0.00000000000E+00 -0.10000000000E+04  0.10000000000E+04  0.00000000000E+00 0.  1.
    9000005    2    1    2  501    0 -0.11139539201E-03  0.73174676857E-04 -0.89797109869E+03  0.11020288380E+04  0.63883915485E+03 0.  0.
         13    1    3    3    0    0 -0.82471533280E+02  0.13767110206E+03  0.27434088045E+02  0.16281128748E+03  0.00000000000E+00 0.  1.
          1    1    3    3  501    0  0.82471421884E+02 -0.13767102889E+03 -0.92540518673E+03  0.93921755055E+03  0.00000000000E+00 0.  1.
         21    1    1    2  502  501  0.11139539201E-03 -0.73174676851E-04  0.10870882980E-03  0.17199150087E-03  0.00000000000E+00 0.  1.
<mgrwt>
<rscale>  1 0.63883915E+03</rscale>
<asrwt>0</asrwt>
<pdfrwt beam="1">  1        3 0.37101536E+00 0.63883915E+03</pdfrwt>
<pdfrwt beam="2">0</pdfrwt>
<totfact> 0.84361848E-02</totfact>
</mgrwt>
</event>
<event>
 6    1  0.5267428E-003  0.6558964E+03  0.7818608E-02  0.9795777E-01
          1   -1    0    0  502    0  0.00000000000E+00  0.00000000000E+00  0.10755053165E+03  0.10755053165E+03  0.00000000000E+00 0.  1.
         13   -1    0    0    0    0 -0.00000000000E+00 -0.00000000000E+00 -0.10000000000E+04  0.10000000000E+04  0.00000000000E+00 0.  1.
    9000005    2    1    2  501    0  0.70230845705E-03 -0.42242962719E-03 -0.89244955476E+03  0.11075497075E+04  0.65589644525E+03 0.  0.
         13    1    3    3    0    0  0.28735937277E+03  0.49058832935E+02 -0.19255178960E+03  0.34936853018E+03  0.00000000000E+00 0.  1.
          1    1    3    3  501    0 -0.28735867046E+03 -0.49059255364E+02 -0.69989776516E+03  0.75818117736E+03  0.00000000000E+00 0.  1.
         21    1    1    2  502  501 -0.70230845706E-03  0.42242962718E-03  0.86402858234E-04  0.82410521943E-03  0.00000000000E+00 0.  1.
<mgrwt>
<rscale>  1 0.65589645E+03</rscale>
<asrwt>0</asrwt>
<pdfrwt beam="1">  1        1 0.39109367E+00 0.65589645E+03</pdfrwt>
<pdfrwt beam="2">0</pdfrwt>
<totfact> 0.14640026E+00</totfact>
</mgrwt>
</event>
<event>
 6    1  0.5267428E-003  0.6417266E+03  0.7818608E-02  0.9822429E-01
          1   -1    0    0  502    0  0.00000000000E+00  0.00000000000E+00  0.10348805046E+03  0.10348805046E+03  0.00000000000E+00 0.  1.
         13   -1    0    0    0    0 -0.00000000000E+00 -0.00000000000E+00 -0.10000000000E+04  0.10000000000E+04  0.00000000000E+00 0.  1.
    9000005    2    1    2  501    0 -0.53277305608E-01 -0.61000882348E+00 -0.89684641740E+03  0.11027903270E+04  0.64172629216E+03 0.  0.
         13    1    3    3    0    0  0.30190020322E+03 -0.89988823118E+02 -0.55374412122E+03  0.63708262633E+03  0.00000000000E+00 0.  1.
          3    1    3    3  501    0 -0.30195348053E+03  0.89378814294E+02 -0.34310229618E+03  0.46570770070E+03  0.00000000000E+00 0.  1.
         21    1    1    2  502  501  0.53277305608E-01  0.61000882348E+00  0.33446786097E+00  0.69772343091E+00  0.00000000000E+00 0. -1.
<mgrwt>
<rscale>  1 0.64172658E+03</rscale>
<asrwt>0</asrwt>
<pdfrwt beam="1">  1        1 0.37632098E+00 0.64172658E+03</pdfrwt>
<pdfrwt beam="2">0</pdfrwt>
<totfact> 0.17060011E+00</totfact>
</mgrwt>
</event>
<event>
 6    1  0.5267428E-003  0.6714686E+03  0.7818608E-02  0.9767308E-01
          1   -1    0    0  502    0  0.00000000000E+00  0.00000000000E+00  0.11280787328E+03  0.11280787328E+03  0.00000000000E+00 0.  1.
         13   -1    0    0    0    0 -0.00000000000E+00 -0.00000000000E+00 -0.10000000000E+04  0.10000000000E+04  0.00000000000E+00 0.  1.
    9000005    2    1    2  501    0 -0.64076413886E-02 -0.30318953643E-03 -0.88728236604E+03  0.11127174062E+04  0.67146856145E+03 0.  0.
         13    1    3    3    0    0  0.16275885267E+03 -0.40524661446E+02 -0.92559000874E+03  0.94066442294E+03  0.00000000000E+00 0.  1.
          1    1    3    3  501    0 -0.16276526031E+03  0.40524358256E+02  0.38307642693E+02  0.17205298330E+03  0.00000000000E+00 0.  1.
         21    1    1    2  502  501  0.64076413886E-02  0.30318953643E-03  0.90239320037E-01  0.90467036388E-01  0.00000000000E+00 0. -1.
<mgrwt>
<rscale>  1 0.67146856E+03</rscale>
<asrwt>0</asrwt>
<pdfrwt beam="1">  1        1 0.41021131E+00 0.67146856E+03</pdfrwt>
<pdfrwt beam="2">0</pdfrwt>
<totfact> 0.11994615E+00</totfact>
</mgrwt>
</event>
<event>
 6    1  0.5267428E-003  0.6418508E+03  0.7818608E-02  0.9822192E-01
          1   -1    0    0  502    0  0.00000000000E+00  0.00000000000E+00  0.10300175022E+03  0.10300175022E+03  0.00000000000E+00 0.  1.
         13   -1    0    0    0    0 -0.00000000000E+00 -0.00000000000E+00 -0.10000000000E+04  0.10000000000E+04  0.00000000000E+00 0.  1.
    9000005    2    1    2  501    0 -0.77963154916E-03  0.75058778492E-04 -0.89700685209E+03  0.11029931123E+04  0.64185084960E+03 0.  0.
         13    1    3    3    0    0  0.29897598281E+03  0.70248386250E+02 -0.60852649858E+03  0.68163478018E+03  0.00000000000E+00 0.  1.
          1    1    3    3  501    0 -0.29897676245E+03 -0.70248311191E+02 -0.28848035351E+03  0.42135833215E+03  0.00000000000E+00 0.  1.
         21    1    1    2  502  501  0.77963154913E-03 -0.75058778488E-04  0.86023082928E-02  0.86378913595E-02  0.00000000000E+00 0.  1.
<mgrwt>
<rscale>  1 0.64185085E+03</rscale>
<asrwt>0</asrwt>
<pdfrwt beam="1">  1        1 0.37455261E+00 0.64185085E+03</pdfrwt>
<pdfrwt beam="2">0</pdfrwt>
<totfact> 0.17368199E+00</totfact>
</mgrwt>
</event>
<event>
 6    1  0.5267428E-003  0.6512990E+03  0.7818608E-02  0.9804345E-01
          1   -1    0    0  502    0  0.00000000000E+00  0.00000000000E+00  0.10604763756E+03  0.10604763756E+03  0.00000000000E+00 0.  1.
         13   -1    0    0    0    0 -0.00000000000E+00 -0.00000000000E+00 -0.10000000000E+04  0.10000000000E+04  0.00000000000E+00 0.  1.
    9000005    2    1    2  501    0 -0.63616933517E-05 -0.52316664494E-05 -0.89395239000E+03  0.11060476088E+04  0.65129903835E+03 0.  0.
         13    1    3    3    0    0  0.79858548614E+02 -0.24670483417E+03 -0.78151625147E+03  0.82341260271E+03  0.00000000000E+00 0.  1.
          3    1    3    3  501    0 -0.79858554976E+02  0.24670482894E+03 -0.11243613853E+03  0.28263500609E+03  0.00000000000E+00 0.  1.
         21    1    1    2  502  501  0.63616933519E-05  0.52316664407E-05  0.27552770006E-04  0.28757548766E-04  0.00000000000E+00 0. -1.
<mgrwt>
<rscale>  1 0.65129904E+03</rscale>
<asrwt>0</asrwt>
<pdfrwt beam="1">  1        1 0.38562859E+00 0.65129904E+03</pdfrwt>
<pdfrwt beam="2">0</pdfrwt>
<totfact> 0.15492704E+00</totfact>
</mgrwt>
</event>
<event>
 6    1  0.5267428E-003  0.6106113E+03  0.7818608E-02  0.9883632E-01
          1   -1    0    0  502    0  0.00000000000E+00  0.00000000000E+00  0.93211569206E+02  0.93211569206E+02  0.00000000000E+00 0.  1.
         13   -1    0    0    0    0 -0.00000000000E+00 -0.00000000000E+00 -0.10000000000E+04  0.10000000000E+04  0.00000000000E+00 0.  1.
    9000005    2    1    2  501    0  0.71612633121E-05  0.49379955996E-04 -0.90678843624E+03  0.10932115190E+04  0.61061129797E+03 0.  0.
         13    1    3    3    0    0  0.45806448006E+02 -0.73777899919E+02 -0.97742169769E+03  0.98127192169E+03  0.00000000000E+00 0.  1.
          1    1    3    3  501    0 -0.45806440845E+02  0.73777949299E+02  0.70633261448E+02  0.11193959732E+03  0.00000000000E+00 0.  1.
         21    1    1    2  502  501 -0.71612633080E-05 -0.49379955993E-04  0.54430096624E-05  0.50192530323E-04  0.00000000000E+00 0.  1.
<mgrwt>
<rscale>  1 0.61061130E+03</rscale>
<asrwt>0</asrwt>
<pdfrwt beam="1">  1        1 0.33895188E+00 0.61061130E+03</pdfrwt>
<pdfrwt beam="2">0</pdfrwt>
<totfact> 0.24988545E+00</totfact>
</mgrwt>
</event>
<event>
 6    1  0.5267428E-003  0.6577358E+03  0.7818608E-02  0.9792371E-01
          1   -1    0    0  502    0  0.00000000000E+00  0.00000000000E+00  0.10818695344E+03  0.10818695344E+03  0.00000000000E+00 0.  1.
         13   -1    0    0    0    0 -0.00000000000E+00 -0.00000000000E+00 -0.10000000000E+04  0.10000000000E+04  0.00000000000E+00 0.  1.
    9000005    2    1    2  501    0 -0.40129020160E-02 -0.92700610522E-01 -0.89173994867E+03  0.11080688314E+04  0.65773580604E+03 0.  0.
         13    1    3    3    0    0 -0.72406902492E+02  0.24697031147E+03 -0.79064399453E+03  0.83147761267E+03  0.00000000000E+00 0.  1.
          3    1    3    3  501    0  0.72402889590E+02 -0.24706301208E+03 -0.10109595413E+03  0.27659121877E+03  0.00000000000E+00 0.  1.
         21    1    1    2  502  501  0.40129020160E-02  0.92700610522E-01 -0.73097889824E-01  0.11812200502E+00  0.00000000000E+00 0.  1.
<mgrwt>
<rscale>  1 0.65773581E+03</rscale>
<asrwt>0</asrwt>
<pdfrwt beam="1">  1        1 0.39340793E+00 0.65773581E+03</pdfrwt>
<pdfrwt beam="2">0</pdfrwt>
<totfact> 0.14292814E+00</totfact>
</mgrwt>
</event>
<event>
 6    1  0.5267428E-003  0.6089545E+03  0.7818608E-02  0.9887000E-01
          1   -1    0    0  502    0  0.00000000000E+00  0.00000000000E+00  0.92732438683E+02  0.92732438683E+02  0.00000000000E+00 0.  1.
         13   -1    0    0    0    0 -0.00000000000E+00 -0.00000000000E+00 -0.10000000000E+04  0.10000000000E+04  0.00000000000E+00 0.  1.
    9000005    2    1    2  501    0  0.35954052152E-03 -0.19860421544E-03 -0.90729359388E+03  0.10927064029E+04  0.60895452818E+03 0.  0.
         13    1    3    3    0    0  0.27475248302E+03  0.75762784661E+02 -0.64588686124E+03  0.70597362839E+03  0.00000000000E+00 0.  1.
          1    1    3    3  501    0 -0.27475212348E+03 -0.75762983265E+02 -0.26140673264E+03  0.38673277449E+03  0.00000000000E+00 0.  1.
         21    1    1    2  502  501 -0.35954052152E-03  0.19860421545E-03  0.26032564136E-01  0.26035804357E-01  0.00000000000E+00 0.  1.
<mgrwt>
<rscale>  1 0.60895453E+03</rscale>
<asrwt>0</asrwt>
<pdfrwt beam="1">  1        1 0.33720958E+00 0.60895453E+03</pdfrwt>
<pdfrwt beam="2">0</pdfrwt>
<totfact> 0.25435000E+00</totfact>
</mgrwt>
</event>
<event>
 6    1  0.7087218E-003  0.6619425E+03  0.7818608E-02  0.9784624E-01
          1   -1    0    0  502    0  0.00000000000E+00  0.00000000000E+00  0.10954196808E+03  0.10954196808E+03  0.00000000000E+00 0.  1.
         13   -1    0    0    0    0 -0.00000000000E+00 -0.00000000000E+00 -0.10000000000E+04  0.10000000000E+04  0.00000000000E+00 0.  1.
    9000005    2    1    2  501    0  0.31874416706E-05 -0.52213833470E-05 -0.89045803369E+03  0.11095419617E+04  0.66194248621E+03 0.  0.
         13    1    3    3    0    0  0.58441610344E+02  0.97391147272E+02 -0.96631011384E+03  0.97296232892E+03  0.00000000000E+00 0.  1.
          1    1    3    3  501    0 -0.58441607157E+02 -0.97391152493E+02  0.75852080152E+02  0.13657963280E+03  0.00000000000E+00 0.  1.
         21    1    1    2  502  501 -0.31874416696E-05  0.52213833421E-05  0.17710402954E-05  0.63686114758E-05  0.00000000000E+00 0.  1.
<mgrwt>
<rscale>  1 0.66194249E+03</rscale>
<asrwt>0</asrwt>
<pdfrwt beam="1">  1        1 0.39833527E+00 0.66194249E+03</pdfrwt>
<pdfrwt beam="2">0</pdfrwt>
<totfact> 0.13578619E+00</totfact>
</mgrwt>
</event>
<event>
 6    1  0.5267428E-003  0.6422687E+03  0.7818608E-02  0.9821395E-01
          1   -1    0    0  502    0  0.00000000000E+00  0.00000000000E+00  0.11562440144E+03  0.11562440144E+03  0.00000000000E+00 0.  1.
         13   -1    0    0    0    0 -0.00000000000E+00 -0.00000000000E+00 -0.10000000000E+04  0.10000000000E+04  0.00000000000E+00 0.  1.
    9000005    2    1    2  501    0  0.21160473582E+02 -0.17368252097E+02 -0.87743485741E+03  0.10873826644E+04  0.64168505361E+03 0.  0.
         13    1    3    3    0    0 -0.11847876495E+03  0.27849769623E+03 -0.31582975086E+03  0.43743184163E+03  0.00000000000E+00 0.  1.
          3    1    3    3  501    0  0.13963923853E+03 -0.29586594833E+03 -0.56160510656E+03  0.64995082277E+03  0.00000000000E+00 0.  1.
         21    1    1    2  502  501 -0.21160473582E+02  0.17368252097E+02 -0.69407411474E+01  0.28241737036E+02  0.00000000000E+00 0.  1.
<mgrwt>
<rscale>  1 0.64226874E+03</rscale>
<asrwt>0</asrwt>
<pdfrwt beam="1">  1        1 0.42045326E+00 0.64226874E+03</pdfrwt>
<pdfrwt beam="2">0</pdfrwt>
<totfact> 0.10848747E+00</totfact>
</mgrwt>
</event>
<event>
 6    1  0.5267428E-003  0.6547392E+03  0.7818608E-02  0.9797927E-01
          1   -1    0    0  502    0  0.00000000000E+00  0.00000000000E+00  0.10802768580E+03  0.10802768580E+03  0.00000000000E+00 0.  1.
         13   -1    0    0    0    0 -0.00000000000E+00 -0.00000000000E+00 -0.10000000000E+04  0.10000000000E+04  0.00000000000E+00 0.  1.
    9000005    2    1    2  501    0 -0.39423685880E-01 -0.23020626777E-01 -0.89282847961E+03  0.11071703041E+04  0.65473917415E+03 0.  0.
         13    1    3    3    0    0  0.13649062013E+03  0.31719964549E+02 -0.94669149641E+03  0.95700607883E+03  0.00000000000E+00 0.  1.
          3    1    3    3  501    0 -0.13653004381E+03 -0.31742985176E+02  0.53863016796E+02  0.15016422527E+03  0.00000000000E+00 0.  1.
         21    1    1    2  502  501  0.39423685880E-01  0.23020626777E-01  0.85616541212E+00  0.85738170565E+00  0.00000000000E+00 0.  1.
<mgrwt>
<rscale>  1 0.65473918E+03</rscale>
<asrwt>0</asrwt>
<pdfrwt beam="1">  1        1 0.39282878E+00 0.65473918E+03</pdfrwt>
<pdfrwt beam="2">0</pdfrwt>
<totfact> 0.14385757E+00</totfact>
</mgrwt>
</event>
<event>
 6    1  0.5267428E-003  0.6474604E+03  0.7818608E-02  0.9811556E-01
          1   -1    0    0  502    0  0.00000000000E+00  0.00000000000E+00  0.10590837055E+03  0.10590837055E+03  0.00000000000E+00 0.  1.
         13   -1    0    0    0    0 -0.00000000000E+00 -0.00000000000E+00 -0.10000000000E+04  0.10000000000E+04  0.00000000000E+00 0.  1.
    9000005    2    1    2  501    0 -0.21653319322E+01  0.16161453459E-01 -0.89387961834E+03  0.11037326242E+04  0.64745675119E+03 0.  0.
         13    1    3    3    0    0 -0.29570304287E+03  0.13183300351E+03 -0.49082214041E+03  0.58798520721E+03  0.00000000000E+00 0.  1.
          3    1    3    3  501    0  0.29353771094E+03 -0.13181684206E+03 -0.40305747793E+03  0.51574741697E+03  0.00000000000E+00 0.  1.
         21    1    1    2  502  501  0.21653319322E+01 -0.16161453459E-01 -0.21201110612E+00  0.21757463727E+01  0.00000000000E+00 0. -1.
<mgrwt>
<rscale>  1 0.64746037E+03</rscale>
<asrwt>0</asrwt>
<pdfrwt beam="1">  1        1 0.38512216E+00 0.64746037E+03</pdfrwt>
<pdfrwt beam="2">0</pdfrwt>
<totfact> 0.15583897E+00</totfact>
</mgrwt>
</event>
<event>
 6    1  0.5267428E-003  0.6634485E+03  0.7818608E-02  0.9781866E-01
          1   -1    0    0  502    0  0.00000000000E+00  0.00000000000E+00  0.11006141432E+03  0.11006141432E+03  0.00000000000E+00 0.  1.
         13   -1    0    0    0    0 -0.00000000000E+00 -0.00000000000E+00 -0.10000000000E+04  0.10000000000E+04  0.00000000000E+00 0.  1.
    9000005    2    1    2  501    0  0.75242073248E-03 -0.45932222450E-01 -0.88992464996E+03  0.11100134087E+04  0.66344847787E+03 0.  0.
         13    1    3    3    0    0 -0.17175458174E+03 -0.24290258580E+03 -0.19937143808E+03  0.35812047255E+03  0.00000000000E+00 0.  1.
          3    1    3    3  501    0  0.17175533416E+03  0.24285665358E+03 -0.69055321188E+03  0.75189293615E+03  0.00000000000E+00 0.  1.
         21    1    1    2  502  501 -0.75242073250E-03  0.45932222450E-01 -0.13935720181E-01  0.48005619391E-01  0.00000000000E+00 0. -1.
<mgrwt>
<rscale>  1 0.66344848E+03</rscale>
<asrwt>0</asrwt>
<pdfrwt beam="1">  1        1 0.40022417E+00 0.66344848E+03</pdfrwt>
<pdfrwt beam="2">0</pdfrwt>
<totfact> 0.13314153E+00</totfact>
</mgrwt>
</event>
<event>
 6    1  0.5267428E-003  0.6398666E+03  0.7818608E-02  0.9825982E-01
          1   -1    0    0  502    0  0.00000000000E+00  0.00000000000E+00  0.10317154402E+03  0.10317154402E+03  0.00000000000E+00 0.  1.
         13   -1    0    0    0    0 -0.00000000000E+00 -0.00000000000E+00 -0.10000000000E+04  0.10000000000E+04  0.00000000000E+00 0.  1.
    9000005    2    1    2  501    0  0.32799610270E+00  0.32518550533E+00 -0.89756987703E+03  0.11022980269E+04  0.63986642555E+03 0.  0.
         13    1    3    3    0    0  0.25011071630E+03  0.13716622091E+03 -0.69938159428E+03  0.75531752064E+03  0.00000000000E+00 0.  1.
          3    1    3    3  501    0 -0.24978272019E+03 -0.13684103540E+03 -0.19818828275E+03  0.34698050622E+03  0.00000000000E+00 0.  1.
         21    1    1    2  502  501 -0.32799610270E+00 -0.32518550533E+00  0.74142105018E+00  0.87351716062E+00  0.00000000000E+00 0.  1.
<mgrwt>
<rscale>  1 0.63986659E+03</rscale>
<asrwt>0</asrwt>
<pdfrwt beam="1">  1        1 0.37517004E+00 0.63986659E+03</pdfrwt>
<pdfrwt beam="2">0</pdfrwt>
<totfact> 0.17266136E+00</totfact>
</mgrwt>
</event>
<event>
 6    1  0.5267428E-003  0.5806478E+03  0.7818608E-02  0.9946390E-01
          1   -1    0    0  502    0  0.00000000000E+00  0.00000000000E+00  0.84294025816E+02  0.84294025816E+02  0.00000000000E+00 0.  1.
         13   -1    0    0    0    0 -0.00000000000E+00 -0.00000000000E+00 -0.10000000000E+04  0.10000000000E+04  0.00000000000E+00 0.  1.
    9000005    2    1    2  501    0  0.50554764867E-02  0.17899409754E-01 -0.91569083325E+03  0.10842700426E+04  0.58064776142E+03 0.  0.
         13    1    3    3    0    0  0.22143512589E+03  0.52397210499E+02 -0.79454864134E+03  0.82649048760E+03  0.00000000000E+00 0.  1.
          3    1    3    3  501    0 -0.22143007041E+03 -0.52379311089E+02 -0.12114219191E+03  0.25777955500E+03  0.00000000000E+00 0.  1.
         21    1    1    2  502  501 -0.50554764866E-02 -0.17899409754E-01 -0.15140935436E-01  0.23983215755E-01  0.00000000000E+00 0.  1.
<mgrwt>
<rscale>  1 0.58064776E+03</rscale>
<asrwt>0</asrwt>
<pdfrwt beam="1">  1        1 0.30652438E+00 0.58064776E+03</pdfrwt>
<pdfrwt beam="2">0</pdfrwt>
<totfact> 0.34701428E+00</totfact>
</mgrwt>
</event>
<event>
 6    1  0.5267428E-003  0.6772929E+03  0.7818608E-02  0.9756872E-01
          1   -1    0    0  502    0  0.00000000000E+00  0.00000000000E+00  0.11560979187E+03  0.11560979187E+03  0.00000000000E+00 0.  1.
         13   -1    0    0    0    0 -0.00000000000E+00 -0.00000000000E+00 -0.10000000000E+04  0.10000000000E+04  0.00000000000E+00 0.  1.
    9000005    2    1    2  501    0 -0.15025258274E-01 -0.15661514619E-01 -0.88531844705E+03  0.11146812993E+04  0.67729288034E+03 0.  0.
         13    1    3    3    0    0 -0.59788847714E+02 -0.30410213885E+03 -0.66733246111E+03  0.73578898525E+03  0.00000000000E+00 0.  1.
          3    1    3    3  501    0  0.59773822455E+02  0.30408647734E+03 -0.21798598594E+03  0.37889231401E+03  0.00000000000E+00 0.  1.
         21    1    1    2  502  501  0.15025258274E-01  0.15661514619E-01  0.92823891395E+00  0.92849260783E+00  0.00000000000E+00 0.  1.
<mgrwt>
<rscale>  1 0.67729288E+03</rscale>
<asrwt>0</asrwt>
<pdfrwt beam="1">  1        1 0.42040013E+00 0.67729288E+03</pdfrwt>
<pdfrwt beam="2">0</pdfrwt>
<totfact> 0.10780738E+00</totfact>
</mgrwt>
</event>
<event>
 6    1  0.5267428E-003  0.6274462E+03  0.7818608E-02  0.9850045E-01
          1   -1    0    0  502    0  0.00000000000E+00  0.00000000000E+00  0.10737466092E+03  0.10737466092E+03  0.00000000000E+00 0.  1.
         13   -1    0    0    0    0 -0.00000000000E+00 -0.00000000000E+00 -0.10000000000E+04  0.10000000000E+04  0.00000000000E+00 0.  1.
    9000005    2    1    2  501    0 -0.75422158856E+00  0.19089070696E+01 -0.90144843675E+03  0.10983159729E+04  0.62744280966E+03 0.  0.
         13    1    3    3    0    0  0.10703019272E+03  0.73979642614E+02  0.49025191708E+02  0.13903927178E+03  0.00000000000E+00 0.  1.
          3    1    3    3  501    0 -0.10778441431E+03 -0.72070735544E+02 -0.95047362846E+03  0.95927670111E+03  0.00000000000E+00 0.  1.
         21    1    1    2  502  501  0.75422158856E+00 -0.19089070696E+01  0.88230976737E+01  0.90586880377E+01  0.00000000000E+00 0.  1.
<mgrwt>
<rscale>  1 0.62744617E+03</rscale>
<asrwt>0</asrwt>
<pdfrwt beam="1">  1        1 0.39045414E+00 0.62744617E+03</pdfrwt>
<pdfrwt beam="2">0</pdfrwt>
<totfact> 0.14815408E+00</totfact>
</mgrwt>
</event>
<event>
 6    1  0.5267428E-003  0.5296323E+03  0.7818608E-02  0.1006321E+00
          1   -1    0    0  502    0  0.00000000000E+00  0.00000000000E+00  0.72605070658E+02  0.72605070658E+02  0.00000000000E+00 0.  1.
         13   -1    0    0    0    0 -0.00000000000E+00 -0.00000000000E+00 -0.10000000000E+04  0.10000000000E+04  0.00000000000E+00 0.  1.
    9000005    2    1    2  501    0 -0.40229447864E+01 -0.23747153032E+01 -0.92734629113E+03  0.10679332698E+04  0.52961165181E+03 0.  0.
         13    1    3    3    0    0  0.11456926835E+03 -0.19179890424E+02 -0.94030878523E+03  0.94745691038E+03  0.00000000000E+00 0.  1.
          1    1    3    3  501    0 -0.11859221313E+03  0.16805175121E+02  0.12962494105E+02  0.12047635942E+03  0.00000000000E+00 0.  1.
         21    1    1    2  502  501  0.40229447864E+01  0.23747153032E+01 -0.48638212294E-01  0.46718008521E+01  0.00000000000E+00 0. -1.
<mgrwt>
<rscale>  1 0.52963225E+03</rscale>
<asrwt>0</asrwt>
<pdfrwt beam="1">  1        1 0.26401900E+00 0.52963225E+03</pdfrwt>
<pdfrwt beam="2">0</pdfrwt>
<totfact> 0.53418572E+00</totfact>
</mgrwt>
</event>
<event>
 6    1  0.5267428E-003  0.6443251E+03  0.7818608E-02  0.9817486E-01
          1   -1    0    0  502    0  0.00000000000E+00  0.00000000000E+00  0.10378880290E+03  0.10378880290E+03  0.00000000000E+00 0.  1.
         13   -1    0    0    0    0 -0.00000000000E+00 -0.00000000000E+00 -0.10000000000E+04  0.10000000000E+04  0.00000000000E+00 0.  1.
    9000005    2    1    2  501    0 -0.27873338695E-05 -0.34017830910E-04 -0.89621128861E+03  0.11037887052E+04  0.64432509805E+03 0.  0.
         13    1    3    3    0    0 -0.26480232990E+03  0.30467507615E+02 -0.75807683145E+03  0.80357266337E+03  0.00000000000E+00 0.  1.
          1    1    3    3  501    0  0.26480232711E+03 -0.30467541633E+02 -0.13813445716E+03  0.30021604186E+03  0.00000000000E+00 0.  1.
         21    1    1    2  502  501  0.27873338623E-05  0.34017830908E-04  0.91508039523E-04  0.97666285621E-04  0.00000000000E+00 0. -1.
<mgrwt>
<rscale>  1 0.64432510E+03</rscale>
<asrwt>0</asrwt>
<pdfrwt beam="1">  1        1 0.37741462E+00 0.64432510E+03</pdfrwt>
<pdfrwt beam="2">0</pdfrwt>
<totfact> 0.16863753E+00</totfact>
</mgrwt>
</event>
<event>
 6    1  0.5267428E-003  0.6512191E+03  0.7818608E-02  0.9804494E-01
          1   -1    0    0  502    0  0.00000000000E+00  0.00000000000E+00  0.10602161578E+03  0.10602161578E+03  0.00000000000E+00 0.  1.
         13   -1    0    0    0    0 -0.00000000000E+00 -0.00000000000E+00 -0.10000000000E+04  0.10000000000E+04  0.00000000000E+00 0.  1.
    9000005    2    1    2  501    0 -0.40853416124E-04 -0.37303257862E-04 -0.89397837022E+03  0.11060215587E+04  0.65121913509E+03 0.  0.
         13    1    3    3    0    0  0.23359479473E+03 -0.58237945006E+02 -0.74645761752E+02  0.25205193138E+03  0.00000000000E+00 0.  1.
          1    1    3    3  501    0 -0.23359483558E+03  0.58237907703E+02 -0.81933260847E+03  0.85396962733E+03  0.00000000000E+00 0.  1.
         21    1    1    2  502  501  0.40853416114E-04  0.37303257862E-04 -0.13999416510E-04  0.57065912049E-04  0.00000000000E+00 0.  1.
<mgrwt>
<rscale>  1 0.65121914E+03</rscale>
<asrwt>0</asrwt>
<pdfrwt beam="1">  1        1 0.38553396E+00 0.65121914E+03</pdfrwt>
<pdfrwt beam="2">0</pdfrwt>
<totfact> 0.15507875E+00</totfact>
</mgrwt>
</event>
<event>
 6    1  0.5267428E-003  0.6595125E+03  0.7818608E-02  0.9789092E-01
          1   -1    0    0  502    0  0.00000000000E+00  0.00000000000E+00  0.10877625407E+03  0.10877625407E+03  0.00000000000E+00 0.  1.
         13   -1    0    0    0    0 -0.00000000000E+00 -0.00000000000E+00 -0.10000000000E+04  0.10000000000E+04  0.00000000000E+00 0.  1.
    9000005    2    1    2  501    0 -0.29931703835E-01 -0.22139226699E-01 -0.89125017120E+03  0.11087305994E+04  0.65951245100E+03 0.  0.
         13    1    3    3    0    0 -0.27518732297E+03  0.17096494453E+03 -0.34218561465E+03  0.47121976810E+03  0.00000000000E+00 0.  1.
          3    1    3    3  501    0  0.27515739126E+03 -0.17098708375E+03 -0.54906455655E+03  0.63751083131E+03  0.00000000000E+00 0.  1.
         21    1    1    2  502  501  0.29931703835E-01  0.22139226699E-01  0.26425269139E-01  0.45654650391E-01  0.00000000000E+00 0. -1.
<mgrwt>
<rscale>  1 0.65951245E+03</rscale>
<asrwt>0</asrwt>
<pdfrwt beam="1">  1        1 0.39555085E+00 0.65951245E+03</pdfrwt>
<pdfrwt beam="2">0</pdfrwt>
<totfact> 0.13978086E+00</totfact>
</mgrwt>
</event>
<event>
 6    1  0.5267428E-003  0.6318434E+03  0.7818608E-02  0.9841458E-01
          1   -1    0    0  502    0  0.00000000000E+00  0.00000000000E+00  0.10017797414E+03  0.10017797414E+03  0.00000000000E+00 0.  1.
         13   -1    0    0    0    0 -0.00000000000E+00 -0.00000000000E+00 -0.10000000000E+04  0.10000000000E+04  0.00000000000E+00 0.  1.
    9000005    2    1    2  501    0  0.44075144361E-02  0.26199537315E-01 -0.90019295210E+03  0.10998060977E+04  0.63184341474E+03 0.  0.
         13    1    3    3    0    0 -0.24499682757E+03  0.17789553362E+03 -0.29306299630E+03  0.42137416414E+03  0.00000000000E+00 0.  1.
          3    1    3    3  501    0  0.24500123509E+03 -0.17786933409E+03 -0.60712995580E+03  0.67843193352E+03  0.00000000000E+00 0.  1.
         21    1    1    2  502  501 -0.44075144360E-02 -0.26199537315E-01  0.37092623686E+00  0.37187647833E+00  0.00000000000E+00 0. -1.
<mgrwt>
<rscale>  1 0.63184342E+03</rscale>
<asrwt>0</asrwt>
<pdfrwt beam="1">  1        1 0.36428431E+00 0.63184342E+03</pdfrwt>
<pdfrwt beam="2">0</pdfrwt>
<totfact> 0.19303306E+00</totfact>
</mgrwt>
</event>
<event>
 6    1  0.5267428E-003  0.6601667E+03  0.7818608E-02  0.9787887E-01
          1   -1    0    0  502    0  0.00000000000E+00  0.00000000000E+00  0.10896986741E+03  0.10896986741E+03  0.00000000000E+00 0.  1.
         13   -1    0    0    0    0 -0.00000000000E+00 -0.00000000000E+00 -0.10000000000E+04  0.10000000000E+04  0.00000000000E+00 0.  1.
    9000005    2    1    2  501    0  0.11285154628E-01 -0.26579089080E-02 -0.89104242220E+03  0.11089529720E+04  0.66016671825E+03 0.  0.
         13    1    3    3    0    0 -0.27148285560E+03  0.17612329523E+03 -0.55475490648E+03  0.64224244820E+03  0.00000000000E+00 0.  1.
          3    1    3    3  501    0  0.27149414075E+03 -0.17612595314E+03 -0.33628751572E+03  0.46671052384E+03  0.00000000000E+00 0.  1.
         21    1    1    2  502  501 -0.11285154628E-01  0.26579089080E-02  0.12289615518E-01  0.16895379378E-01  0.00000000000E+00 0. -1.
<mgrwt>
<rscale>  1 0.66016672E+03</rscale>
<asrwt>0</asrwt>
<pdfrwt beam="1">  1        1 0.39625490E+00 0.66016672E+03</pdfrwt>
<pdfrwt beam="2">0</pdfrwt>
<totfact> 0.13875939E+00</totfact>
</mgrwt>
</event>
<event>
 6    1  0.5267428E-003  0.5571278E+03  0.7818608E-02  0.9998575E-01
          1   -1    0    0  502    0  0.00000000000E+00  0.00000000000E+00  0.77597853422E+02  0.77597853422E+02  0.00000000000E+00 0.  1.
         13   -1    0    0    0    0 -0.00000000000E+00 -0.00000000000E+00 -0.10000000000E+04  0.10000000000E+04  0.00000000000E+00 0.  1.
    9000005    2    1    2  501    0  0.54041816213E-05 -0.19875455308E-05 -0.92240215946E+03  0.10775978393E+04  0.55712777666E+03 0.  0.
         13    1    3    3    0    0  0.21341170701E+03 -0.12378390964E+03 -0.71138571165E+03  0.75295195312E+03  0.00000000000E+00 0.  1.
          3    1    3    3  501    0 -0.21341170160E+03  0.12378390765E+03 -0.21101644781E+03  0.32464588619E+03  0.00000000000E+00 0.  1.
         21    1    1    2  502  501 -0.54041816143E-05  0.19875455349E-05  0.12880148814E-04  0.14108640957E-04  0.00000000000E+00 0. -1.
<mgrwt>
<rscale>  1 0.55712778E+03</rscale>
<asrwt>0</asrwt>
<pdfrwt beam="1">  1        1 0.28217461E+00 0.55712778E+03</pdfrwt>
<pdfrwt beam="2">0</pdfrwt>
<totfact> 0.44379588E+00</totfact>
</mgrwt>
</event>
<event>
 6    1  0.5267428E-003  0.6384950E+03  0.7818608E-02  0.9828610E-01
          1   -1    0    0  502    0  0.00000000000E+00  0.00000000000E+00  0.10192023391E+03  0.10192023391E+03  0.00000000000E+00 0.  1.
         13   -1    0    0    0    0 -0.00000000000E+00 -0.00000000000E+00 -0.10000000000E+04  0.10000000000E+04  0.00000000000E+00 0.  1.
    9000005    2    1    2  501    0  0.43297786860E-03 -0.45637112581E-03 -0.89808095195E+03  0.11019188915E+04  0.63849498606E+03 0.  0.
         13    1    3    3    0    0 -0.21983970592E+03 -0.19573085569E+03 -0.23571727527E+03  0.37709773008E+03  0.00000000000E+00 0.  1.
          1    1    3    3  501    0  0.21984013889E+03  0.19573039932E+03 -0.66236367668E+03  0.72482116144E+03  0.00000000000E+00 0.  1.
         21    1    1    2  502  501 -0.43297786858E-03  0.45637112580E-03  0.11858651107E-02  0.13423935711E-02  0.00000000000E+00 0. -1.
<mgrwt>
<rscale>  1 0.63849499E+03</rscale>
<asrwt>0</asrwt>
<pdfrwt beam="1">  1        1 0.37061981E+00 0.63849499E+03</pdfrwt>
<pdfrwt beam="2">0</pdfrwt>
<totfact> 0.18084779E+00</totfact>
</mgrwt>
</event>
<event>
 6    1  0.5267428E-003  0.6506095E+03  0.7818608E-02  0.9805636E-01
          1   -1    0    0  502    0  0.00000000000E+00  0.00000000000E+00  0.10599227188E+03  0.10599227188E+03  0.00000000000E+00 0.  1.
         13   -1    0    0    0    0 -0.00000000000E+00 -0.00000000000E+00 -0.10000000000E+04  0.10000000000E+04  0.00000000000E+00 0.  1.
    9000005    2    1    2  501    0 -0.52426689362E-01 -0.24530298403E-01 -0.89417131100E+03  0.11058187506E+04  0.65060953906E+03 0.  0.
         13    1    3    3    0    0  0.30055803193E+03 -0.77422705668E+02 -0.28156854936E+03  0.41905877141E+03  0.00000000000E+00 0.  1.
          3    1    3    3  501    0 -0.30061045862E+03  0.77398175370E+02 -0.61260276164E+03  0.68675997914E+03  0.00000000000E+00 0.  1.
         21    1    1    2  502  501  0.52426689362E-01  0.24530298403E-01  0.16358287324E+00  0.17352132352E+00  0.00000000000E+00 0. -1.
<mgrwt>
<rscale>  1 0.65060954E+03</rscale>
<asrwt>0</asrwt>
<pdfrwt beam="1">  1        1 0.38542726E+00 0.65060954E+03</pdfrwt>
<pdfrwt beam="2">0</pdfrwt>
<totfact> 0.15526490E+00</totfact>
</mgrwt>
</event>
<event>
 6    1  0.5267428E-003  0.6542278E+03  0.7818608E-02  0.9798878E-01
          1   -1    0    0  502    0  0.00000000000E+00  0.00000000000E+00  0.10700362679E+03  0.10700362679E+03  0.00000000000E+00 0.  1.
         13   -1    0    0    0    0 -0.00000000000E+00 -0.00000000000E+00 -0.10000000000E+04  0.10000000000E+04  0.00000000000E+00 0.  1.
    9000005    2    1    2  501    0 -0.18964900477E-04 -0.50324469981E-04 -0.89299648237E+03  0.11070035051E+04  0.65422782178E+03 0.  0.
         13    1    3    3    0    0  0.21395087790E+03 -0.17057065478E+03 -0.74982007358E+03  0.79818510959E+03  0.00000000000E+00 0.  1.
          1    1    3    3  501    0 -0.21395089686E+03  0.17057060446E+03 -0.14317640879E+03  0.30881839551E+03  0.00000000000E+00 0.  1.
         21    1    1    2  502  501  0.18964900480E-04  0.50324469969E-04  0.10916101110E-03  0.12168954791E-03  0.00000000000E+00 0. -1.
<mgrwt>
<rscale>  1 0.65422782E+03</rscale>
<asrwt>0</asrwt>
<pdfrwt beam="1">  1        1 0.38910492E+00 0.65422782E+03</pdfrwt>
<pdfrwt beam="2">0</pdfrwt>
<totfact> 0.14945016E+00</totfact>
</mgrwt>
</event>
<event>
 6    1  0.5267428E-003  0.6686521E+03  0.7818608E-02  0.9772396E-01
          1   -1    0    0  502    0  0.00000000000E+00  0.00000000000E+00  0.11177504801E+03  0.11177504801E+03  0.00000000000E+00 0.  1.
         13   -1    0    0    0    0 -0.00000000000E+00 -0.00000000000E+00 -0.10000000000E+04  0.10000000000E+04  0.00000000000E+00 0.  1.
    9000005    2    1    2  501    0 -0.11602180204E-02 -0.55496158041E-03 -0.88822567248E+03  0.11117735738E+04  0.66865210253E+03 0.  0.
         13    1    3    3    0    0  0.15134949667E+03 -0.28415695509E+03 -0.29426552956E+03  0.43616974580E+03  0.00000000000E+00 0.  1.
          3    1    3    3  501    0 -0.15135065688E+03  0.28415640013E+03 -0.59396014292E+03  0.67560382803E+03  0.00000000000E+00 0.  1.
         21    1    1    2  502  501  0.11602180204E-02  0.55496158039E-03  0.72048292257E-03  0.14741722600E-02  0.00000000000E+00 0. -1.
<mgrwt>
<rscale>  1 0.66865210E+03</rscale>
<asrwt>0</asrwt>
<pdfrwt beam="1">  1        1 0.40645558E+00 0.66865210E+03</pdfrwt>
<pdfrwt beam="2">0</pdfrwt>
<totfact> 0.12475200E+00</totfact>
</mgrwt>
</event>
<event>
 6    1  0.5267428E-003  0.6457432E+03  0.7818608E-02  0.9814800E-01
          1   -1    0    0  502    0  0.00000000000E+00  0.00000000000E+00  0.10424607123E+03  0.10424607123E+03  0.00000000000E+00 0.  1.
         13   -1    0    0    0    0 -0.00000000000E+00 -0.00000000000E+00 -0.10000000000E+04  0.10000000000E+04  0.00000000000E+00 0.  1.
    9000005    2    1    2  501    0  0.16407755339E-04  0.71856808859E-05 -0.89575394017E+03  0.11042460500E+04  0.64574315141E+03 0.  0.
         13    1    3    3    0    0  0.18891983319E+03 -0.14880874798E+03 -0.81627556254E+03  0.85096447684E+03  0.00000000000E+00 0.  1.
          1    1    3    3  501    0 -0.18891981679E+03  0.14880875516E+03 -0.79478377635E+02  0.25328157315E+03  0.00000000000E+00 0.  1.
         21    1    1    2  502  501 -0.16407755357E-04 -0.71856808772E-05  0.11401524171E-04  0.21233068524E-04  0.00000000000E+00 0. -1.
<mgrwt>
<rscale>  1 0.64574315E+03</rscale>
<asrwt>0</asrwt>
<pdfrwt beam="1">  1        1 0.37907742E+00 0.64574315E+03</pdfrwt>
<pdfrwt beam="2">0</pdfrwt>
<totfact> 0.16577184E+00</totfact>
</mgrwt>
</event>
<event>
 6    1  0.5267428E-003  0.6539107E+03  0.7818608E-02  0.9799469E-01
          1   -1    0    0  502    0  0.00000000000E+00  0.00000000000E+00  0.10701746216E+03  0.10701746216E+03  0.00000000000E+00 0.  1.
         13   -1    0    0    0    0 -0.00000000000E+00 -0.00000000000E+00 -0.10000000000E+04  0.10000000000E+04  0.00000000000E+00 0.  1.
    9000005    2    1    2  501    0  0.19190645258E+00  0.32823589859E-01 -0.89300335683E+03  0.11068216589E+04  0.65391066015E+03 0.  0.
         13    1    3    3    0    0 -0.16991989927E+03 -0.11077405872E+03 -0.12508042421E+02  0.20322429820E+03  0.00000000000E+00 0.  1.
          1    1    3    3  501    0  0.17011180573E+03  0.11080688231E+03 -0.88049531441E+03  0.90359736072E+03  0.00000000000E+00 0.  1.
         21    1    1    2  502  501 -0.19190645258E+00 -0.32823589859E-01  0.20818982743E-01  0.19580322938E+00  0.00000000000E+00 0. -1.
<mgrwt>
<rscale>  1 0.65391069E+03</rscale>
<asrwt>0</asrwt>
<pdfrwt beam="1">  1        1 0.38915523E+00 0.65391069E+03</pdfrwt>
<pdfrwt beam="2">0</pdfrwt>
<totfact> 0.14938221E+00</totfact>
</mgrwt>
</event>
<event>
 6    1  0.5267428E-003  0.6503307E+03  0.7818608E-02  0.9806159E-01
          1   -1    0    0  502    0  0.00000000000E+00  0.00000000000E+00  0.10574036041E+03  0.10574036041E+03  0.00000000000E+00 0.  1.
         13   -1    0    0    0    0 -0.00000000000E+00 -0.00000000000E+00 -0.10000000000E+04  0.10000000000E+04  0.00000000000E+00 0.  1.
    9000005    2    1    2  501    0 -0.16634759925E-02  0.84878057630E-02 -0.89426475683E+03  0.11057303107E+04  0.65033073484E+03 0.  0.
         13    1    3    3    0    0 -0.23319510388E+03  0.75561578724E+02 -0.81038567186E+03  0.84664895075E+03  0.00000000000E+00 0.  1.
          1    1    3    3  501    0  0.23319344040E+03 -0.75553090918E+02 -0.83879084975E+02  0.25908135998E+03  0.00000000000E+00 0.  1.
         21    1    1    2  502  501  0.16634759925E-02 -0.84878057630E-02  0.51172386717E-02  0.10049683113E-01  0.00000000000E+00 0.  1.
<mgrwt>
<rscale>  1 0.65033073E+03</rscale>
<asrwt>0</asrwt>
<pdfrwt beam="1">  1        1 0.38451121E+00 0.65033073E+03</pdfrwt>
<pdfrwt beam="2">0</pdfrwt>
<totfact> 0.15672832E+00</totfact>
</mgrwt>
</event>
<event>
 6    1  0.5267428E-003  0.6431015E+03  0.7818608E-02  0.9819811E-01
          1   -1    0    0  502    0  0.00000000000E+00  0.00000000000E+00  0.12958410820E+03  0.12958410820E+03  0.00000000000E+00 0.  1.
         13   -1    0    0    0    0 -0.00000000000E+00 -0.00000000000E+00 -0.10000000000E+04  0.10000000000E+04  0.00000000000E+00 0.  1.
    9000005    2    1    2  501    0 -0.25910032226E+02  0.42658310440E+01 -0.88913697107E+03  0.10973349858E+04  0.64256516458E+03 0.  0.
         13    1    3    3    0    0 -0.48478124007E+02  0.32041392630E+03 -0.49364472491E+03  0.59050853262E+03  0.00000000000E+00 0.  1.
          1    1    3    3  501    0  0.22568091781E+02 -0.31614809525E+03 -0.39549224616E+03  0.50682645321E+03  0.00000000000E+00 0.  1.
         21    1    1    2  502  501  0.25910032226E+02 -0.42658310440E+01  0.18721079275E+02  0.32249122370E+02  0.00000000000E+00 0.  1.
<mgrwt>
<rscale>  1 0.64310148E+03</rscale>
<asrwt>0</asrwt>
<pdfrwt beam="1">  1        1 0.47121593E+00 0.64310148E+03</pdfrwt>
<pdfrwt beam="2">0</pdfrwt>
<totfact> 0.63418189E-01</totfact>
</mgrwt>
</event>
<event>
 6    1  0.5267428E-003  0.5609938E+03  0.7818608E-02  0.9989808E-01
          1   -1    0    0  502    0  0.00000000000E+00  0.00000000000E+00  0.78692213268E+02  0.78692213268E+02  0.00000000000E+00 0.  1.
         13   -1    0    0    0    0 -0.00000000000E+00 -0.00000000000E+00 -0.10000000000E+04  0.10000000000E+04  0.00000000000E+00 0.  1.
    9000005    2    1    2  501    0  0.10469314073E-02  0.53836654442E-03 -0.92132145059E+03  0.10786784988E+04  0.56099383993E+03 0.  0.
         13    1    3    3    0    0  0.15029350572E+03 -0.17530072253E+03 -0.76686391141E+03  0.80087373525E+03  0.00000000000E+00 0.  1.
          1    1    3    3  501    0 -0.15029245879E+03  0.17530126089E+03 -0.15445753917E+03  0.27780476355E+03  0.00000000000E+00 0.  1.
         21    1    1    2  502  501 -0.10469314073E-02 -0.53836654441E-03  0.13663855169E-01  0.13714475636E-01  0.00000000000E+00 0.  1.
<mgrwt>
<rscale>  1 0.56099384E+03</rscale>
<asrwt>0</asrwt>
<pdfrwt beam="1">  1        1 0.28615411E+00 0.56099384E+03</pdfrwt>
<pdfrwt beam="2">0</pdfrwt>
<totfact> 0.42630465E+00</totfact>
</mgrwt>
</event>
<event>
 6    1  0.5267428E-003  0.6445243E+03  0.7818608E-02  0.9817109E-01
          1   -1    0    0  502    0  0.00000000000E+00  0.00000000000E+00  0.10421401209E+03  0.10421401209E+03  0.00000000000E+00 0.  1.
         13   -1    0    0    0    0 -0.00000000000E+00 -0.00000000000E+00 -0.10000000000E+04  0.10000000000E+04  0.00000000000E+00 0.  1.
    9000005    2    1    2  501    0 -0.11435730681E+00  0.10910489422E+01 -0.89461503265E+03  0.11026094556E+04  0.64452335210E+03 0.  0.
         13    1    3    3    0    0 -0.39330537660E+02 -0.19499979112E+03 -0.87988741304E+03  0.90209404684E+03  0.00000000000E+00 0.  1.
          3    1    3    3  501    0  0.39216180353E+02  0.19609084006E+03 -0.14727619615E+02  0.20051540873E+03  0.00000000000E+00 0.  1.
         21    1    1    2  502  501  0.11435730681E+00 -0.10910489422E+01 -0.11709552610E+01  0.16045565154E+01  0.00000000000E+00 0. -1.
<mgrwt>
<rscale>  1 0.64452429E+03</rscale>
<asrwt>0</asrwt>
<pdfrwt beam="1">  1        1 0.37896084E+00 0.64452429E+03</pdfrwt>
<pdfrwt beam="2">0</pdfrwt>
<totfact> 0.16600537E+00</totfact>
</mgrwt>
</event>
<event>
 6    1  0.5267428E-003  0.6515973E+03  0.7818608E-02  0.9803786E-01
          1   -1    0    0  502    0  0.00000000000E+00  0.00000000000E+00  0.10645967978E+03  0.10645967978E+03  0.00000000000E+00 0.  1.
         13   -1    0    0    0    0 -0.00000000000E+00 -0.00000000000E+00 -0.10000000000E+04  0.10000000000E+04  0.00000000000E+00 0.  1.
    9000005    2    1    2  501    0 -0.62139648421E-01 -0.67842481969E-01 -0.89384777723E+03  0.11061387534E+04  0.65159733303E+03 0.  0.
         13    1    3    3    0    0  0.70727090031E+02 -0.16700103188E+03  0.12538625029E+02  0.18179351757E+03  0.00000000000E+00 0.  1.
          1    1    3    3  501    0 -0.70789229679E+02  0.16693318940E+03 -0.90638640226E+03  0.92434523581E+03  0.00000000000E+00 0.  1.
         21    1    1    2  502  501  0.62139648421E-01  0.67842481969E-01  0.30745701294E+00  0.32092639821E+00  0.00000000000E+00 0.  1.
<mgrwt>
<rscale>  1 0.65159734E+03</rscale>
<asrwt>0</asrwt>
<pdfrwt beam="1">  1        1 0.38712692E+00 0.65159734E+03</pdfrwt>
<pdfrwt beam="2">0</pdfrwt>
<totfact> 0.15257069E+00</totfact>
</mgrwt>
</event>
<event>
 6    1  0.5267428E-003  0.6641413E+03  0.7818608E-02  0.9780600E-01
          1   -1    0    0  502    0  0.00000000000E+00  0.00000000000E+00  0.11045525400E+03  0.11045525400E+03  0.00000000000E+00 0.  1.
         13   -1    0    0    0    0 -0.00000000000E+00 -0.00000000000E+00 -0.10000000000E+04  0.10000000000E+04  0.00000000000E+00 0.  1.
    9000005    2    1    2  501    0  0.23162007287E-01  0.11435034865E+00 -0.88970834644E+03  0.11102543123E+04  0.66414131218E+03 0.  0.
         13    1    3    3    0    0 -0.10917509523E+02 -0.22014059573E+03 -0.85992825378E+03  0.88772612643E+03  0.00000000000E+00 0.  1.
          1    1    3    3  501    0  0.10940671531E+02  0.22025494608E+03 -0.29780092659E+02  0.22252818582E+03  0.00000000000E+00 0.  1.
         21    1    1    2  502  501 -0.23162007287E-01 -0.11435034865E+00  0.16360044362E+00  0.20094174771E+00  0.00000000000E+00 0. -1.
<mgrwt>
<rscale>  1 0.66414132E+03</rscale>
<asrwt>0</asrwt>
<pdfrwt beam="1">  1        1 0.40165632E+00 0.66414132E+03</pdfrwt>
<pdfrwt beam="2">0</pdfrwt>
<totfact> 0.13117992E+00</totfact>
</mgrwt>
</event>
<event>
 6    1  0.5267428E-003  0.6568080E+03  0.7818608E-02  0.9794088E-01
          1   -1    0    0  502    0  0.00000000000E+00  0.00000000000E+00  0.10788652415E+03  0.10788652415E+03  0.00000000000E+00 0.  1.
         13   -1    0    0    0    0 -0.00000000000E+00 -0.00000000000E+00 -0.10000000000E+04  0.10000000000E+04  0.00000000000E+00 0.  1.
    9000005    2    1    2  501    0  0.19661495427E-01  0.26453444654E-01 -0.89214255982E+03  0.11078425669E+04  0.65680804274E+03 0.  0.
         13    1    3    3    0    0 -0.39847343893E+02 -0.25891543510E+03 -0.78007690505E+03  0.82288820088E+03  0.00000000000E+00 0.  1.
          3    1    3    3  501    0  0.39867005388E+02  0.25894188854E+03 -0.11206565476E+03  0.28495436606E+03  0.00000000000E+00 0.  1.
         21    1    1    2  502  501 -0.19661495427E-01 -0.26453444654E-01  0.29083968706E-01  0.43957210696E-01  0.00000000000E+00 0. -1.
<mgrwt>
<rscale>  1 0.65680804E+03</rscale>
<asrwt>0</asrwt>
<pdfrwt beam="1">  1        1 0.39231546E+00 0.65680804E+03</pdfrwt>
<pdfrwt beam="2">0</pdfrwt>
<totfact> 0.14455895E+00</totfact>
</mgrwt>
</event>
<event>
 6    1  0.5267428E-003  0.6463893E+03  0.7818608E-02  0.9813578E-01
          1   -1    0    0  502    0  0.00000000000E+00  0.00000000000E+00  0.10445477248E+03  0.10445477248E+03  0.00000000000E+00 0.  1.
         13   -1    0    0    0    0 -0.00000000000E+00 -0.00000000000E+00 -0.10000000000E+04  0.10000000000E+04  0.00000000000E+00 0.  1.
    9000005    2    1    2  501    0  0.26301918155E-05  0.55829552252E-05 -0.89554522616E+03  0.11044547662E+04  0.64638926228E+03 0.  0.
         13    1    3    3    0    0  0.77424199067E+02 -0.31215938624E+03 -0.50225637244E+03  0.59640544320E+03  0.00000000000E+00 0.  1.
          1    1    3    3  501    0 -0.77424196437E+02  0.31215939182E+03 -0.39328885372E+03  0.50804932296E+03  0.00000000000E+00 0.  1.
         21    1    1    2  502  501 -0.26301918067E-05 -0.55829552223E-05 -0.13602862970E-05  0.63196263152E-05  0.00000000000E+00 0.  1.
<mgrwt>
<rscale>  1 0.64638926E+03</rscale>
<asrwt>0</asrwt>
<pdfrwt beam="1">  1        1 0.37983634E+00 0.64638926E+03</pdfrwt>
<pdfrwt beam="2">0</pdfrwt>
<totfact> 0.16447943E+00</totfact>
</mgrwt>
</event>
<event>
 6    1  0.5267428E-003  0.6497532E+03  0.7818608E-02  0.9807242E-01
          1   -1    0    0  502    0  0.00000000000E+00  0.00000000000E+00  0.10554501264E+03  0.10554501264E+03  0.00000000000E+00 0.  1.
         13   -1    0    0    0    0 -0.00000000000E+00 -0.00000000000E+00 -0.10000000000E+04  0.10000000000E+04  0.00000000000E+00 0.  1.
    9000005    2    1    2  501    0 -0.26854868736E-04  0.12274449219E-04 -0.89445520729E+03  0.11055447907E+04  0.64975315811E+03 0.  0.
         13    1    3    3    0    0 -0.30374942321E+03  0.10944243909E+03 -0.38579858452E+03  0.50307246733E+03  0.00000000000E+00 0.  1.
          1    1    3    3  501    0  0.30374939635E+03 -0.10944242682E+03 -0.50865662277E+03  0.60247232340E+03  0.00000000000E+00 0.  1.
         21    1    1    2  502  501  0.26854868764E-04 -0.12274449222E-04  0.21993624565E-03  0.22190943700E-03  0.00000000000E+00 0.  1.
<mgrwt>
<rscale>  1 0.64975316E+03</rscale>
<asrwt>0</asrwt>
<pdfrwt beam="1">  1        1 0.38380086E+00 0.64975316E+03</pdfrwt>
<pdfrwt beam="2">0</pdfrwt>
<totfact> 0.15788268E+00</totfact>
</mgrwt>
</event>
<event>
 6    1  0.5267428E-003  0.6451746E+03  0.7818608E-02  0.9815876E-01
          3   -1    0    0  502    0  0.00000000000E+00  0.00000000000E+00  0.10406259647E+03  0.10406259647E+03  0.00000000000E+00 0.  1.
         13   -1    0    0    0    0 -0.00000000000E+00 -0.00000000000E+00 -0.10000000000E+04  0.10000000000E+04  0.00000000000E+00 0.  1.
    9000005    2    1    2  501    0  0.23660743409E-05  0.98864578035E-05 -0.89593741705E+03  0.11040625796E+04  0.64517464635E+03 0.  0.
         13    1    3    3    0    0  0.83886501903E+02 -0.31125748961E+03 -0.46853292306E+03  0.56871897280E+03  0.00000000000E+00 0.  1.
          3    1    3    3  501    0 -0.83886499537E+02  0.31125749950E+03 -0.42740449400E+03  0.53534360675E+03  0.00000000000E+00 0.  1.
         21    1    1    2  502  501 -0.23660743410E-05 -0.98864578024E-05  0.13525358507E-04  0.16919683165E-04  0.00000000000E+00 0. -1.
<mgrwt>
<rscale>  1 0.64517465E+03</rscale>
<asrwt>0</asrwt>
<pdfrwt beam="1">  1        3 0.37841024E+00 0.64517465E+03</pdfrwt>
<pdfrwt beam="2">0</pdfrwt>
<totfact> 0.77014612E-02</totfact>
</mgrwt>
</event>
<event>
 6    1  0.5267428E-003  0.6962601E+03  0.7818608E-02  0.9723649E-01
          1   -1    0    0  502    0  0.00000000000E+00  0.00000000000E+00  0.12152672407E+03  0.12152672407E+03  0.00000000000E+00 0.  1.
         13   -1    0    0    0    0 -0.00000000000E+00 -0.00000000000E+00 -0.10000000000E+04  0.10000000000E+04  0.00000000000E+00 0.  1.
    9000005    2    1    2  501    0  0.20369694778E-02 -0.10336848510E-01 -0.87880538858E+03  0.11211944444E+04  0.69626005984E+03 0.  0.
         13    1    3    3    0    0 -0.13652352741E+03  0.17635206127E+02 -0.95430931947E+03  0.96418667863E+03  0.00000000000E+00 0.  1.
          3    1    3    3  501    0  0.13652556438E+03 -0.17645542976E+02  0.75503930887E+02  0.15700776572E+03  0.00000000000E+00 0.  1.
         21    1    1    2  502  501 -0.20369694778E-02  0.10336848510E-01  0.33211265056E+00  0.33227972003E+00  0.00000000000E+00 0. -1.
<mgrwt>
<rscale>  1 0.69626006E+03</rscale>
<asrwt>0</asrwt>
<pdfrwt beam="1">  1        1 0.44191629E+00 0.69626006E+03</pdfrwt>
<pdfrwt beam="2">0</pdfrwt>
<totfact> 0.85740019E-01</totfact>
</mgrwt>
</event>
<event>
 6    1  0.5267428E-003  0.6508927E+03  0.7818608E-02  0.9805106E-01
          1   -1    0    0  502    0  0.00000000000E+00  0.00000000000E+00  0.10596733681E+03  0.10596733681E+03  0.00000000000E+00 0.  1.
         13   -1    0    0    0    0 -0.00000000000E+00 -0.00000000000E+00 -0.10000000000E+04  0.10000000000E+04  0.00000000000E+00 0.  1.
    9000005    2    1    2  501    0  0.95967626173E-01  0.62833079164E-02 -0.89403002278E+03  0.11058711275E+04  0.65089266372E+03 0.  0.
         13    1    3    3    0    0 -0.17006998376E+03  0.67806238569E+02 -0.90406778064E+03  0.92242074855E+03  0.00000000000E+00 0.  1.
          3    1    3    3  501    0  0.17016595138E+03 -0.67799955261E+02  0.10037757858E+02  0.18345037892E+03  0.00000000000E+00 0.  1.
         21    1    1    2  502  501 -0.95967626173E-01 -0.62833079164E-02 -0.26404083425E-02  0.96209339401E-01  0.00000000000E+00 0. -1.
<mgrwt>
<rscale>  1 0.65089267E+03</rscale>
<asrwt>0</asrwt>
<pdfrwt beam="1">  1        1 0.38533658E+00 0.65089267E+03</pdfrwt>
<pdfrwt beam="2">0</pdfrwt>
<totfact> 0.15540026E+00</totfact>
</mgrwt>
</event>
<event>
 6    1  0.5267428E-003  0.6319585E+03  0.7818608E-02  0.9841234E-01
          1   -1    0    0  502    0  0.00000000000E+00  0.00000000000E+00  0.99853821984E+02  0.99853821984E+02  0.00000000000E+00 0.  1.
         13   -1    0    0    0    0 -0.00000000000E+00 -0.00000000000E+00 -0.10000000000E+04  0.10000000000E+04  0.00000000000E+00 0.  1.
    9000005    2    1    2  501    0  0.39979889868E-02 -0.13820176566E-01 -0.90015168477E+03  0.10998384173E+04  0.63195845455E+03 0.  0.
         13    1    3    3    0    0  0.29332768310E+03  0.14031587699E+02 -0.65308128764E+03  0.71606786228E+03  0.00000000000E+00 0.  1.
          3    1    3    3  501    0 -0.29332368511E+03 -0.14045407876E+02 -0.24707039713E+03  0.38377055498E+03  0.00000000000E+00 0.  1.
         21    1    1    2  502  501 -0.39979889868E-02  0.13820176566E-01  0.55067566282E-02  0.15404725405E-01  0.00000000000E+00 0.  1.
<mgrwt>
<rscale>  1 0.63195845E+03</rscale>
<asrwt>0</asrwt>
<pdfrwt beam="1">  1        1 0.36310557E+00 0.63195845E+03</pdfrwt>
<pdfrwt beam="2">0</pdfrwt>
<totfact> 0.19533740E+00</totfact>
</mgrwt>
</event>
<event>
 6    1  0.5267428E-003  0.7223215E+03  0.7818608E-02  0.9679803E-01
          1   -1    0    0  502    0  0.00000000000E+00  0.00000000000E+00  0.13043711964E+03  0.13043711964E+03  0.00000000000E+00 0.  1.
         13   -1    0    0    0    0 -0.00000000000E+00 -0.00000000000E+00 -0.10000000000E+04  0.10000000000E+04  0.00000000000E+00 0.  1.
    9000005    2    1    2  501    0 -0.66897508191E-05 -0.43459926928E-05 -0.86956290294E+03  0.11304370957E+04  0.72232152477E+03 0.  0.
         13    1    3    3    0    0 -0.37140388689E+02  0.28610178420E+03 -0.77480010214E+03  0.82677012384E+03  0.00000000000E+00 0.  1.
          3    1    3    3  501    0  0.37140381999E+02 -0.28610178854E+03 -0.94762800800E+02  0.30366697186E+03  0.00000000000E+00 0.  1.
         21    1    1    2  502  501  0.66897508188E-05  0.43459927172E-05  0.22574457728E-04  0.23942567958E-04  0.00000000000E+00 0.  1.
<mgrwt>
<rscale>  1 0.72232152E+03</rscale>
<asrwt>0</asrwt>
<pdfrwt beam="1">  1        1 0.47431780E+00 0.72232152E+03</pdfrwt>
<pdfrwt beam="2">0</pdfrwt>
<totfact> 0.60324957E-01</totfact>
</mgrwt>
</event>
<event>
 6    1  0.5267428E-003  0.6533595E+03  0.7818608E-02  0.9800496E-01
          1   -1    0    0  502    0  0.00000000000E+00  0.00000000000E+00  0.10682885622E+03  0.10682885622E+03  0.00000000000E+00 0.  1.
         13   -1    0    0    0    0 -0.00000000000E+00 -0.00000000000E+00 -0.10000000000E+04  0.10000000000E+04  0.00000000000E+00 0.  1.
    9000005    2    1    2  501    0  0.32676007837E-02  0.66116482522E-02 -0.89328020633E+03  0.11067195446E+04  0.65335949011E+03 0.  0.
         13    1    3    3    0    0 -0.99067137976E+02 -0.14472784115E+03  0.20206741256E+02  0.17654675931E+03  0.00000000000E+00 0.  1.
          1    1    3    3  501    0  0.99070405577E+02  0.14473445279E+03 -0.91348694759E+03  0.93017278529E+03  0.00000000000E+00 0.  1.
         21    1    1    2  502  501 -0.32676007837E-02 -0.66116482522E-02  0.10906255390E+00  0.10931162688E+00  0.00000000000E+00 0. -1.
<mgrwt>
<rscale>  1 0.65335949E+03</rscale>
<asrwt>0</asrwt>
<pdfrwt beam="1">  1        1 0.38846939E+00 0.65335949E+03</pdfrwt>
<pdfrwt beam="2">0</pdfrwt>
<totfact> 0.15044677E+00</totfact>
</mgrwt>
</event>
<event>
 6    1  0.5267428E-003  0.6373225E+03  0.7818608E-02  0.9830863E-01
          3   -1    0    0  502    0  0.00000000000E+00  0.00000000000E+00  0.10154507569E+03  0.10154507569E+03  0.00000000000E+00 0.  1.
         13   -1    0    0    0    0 -0.00000000000E+00 -0.00000000000E+00 -0.10000000000E+04  0.10000000000E+04  0.00000000000E+00 0.  1.
    9000005    2    1    2  501    0  0.15888633243E-04 -0.10241283775E-04 -0.89845499988E+03  0.11015449978E+04  0.63732252068E+03 0.  0.
         13    1    3    3    0    0 -0.11849406155E+03 -0.15869313173E+03 -0.17749207885E+02  0.19884513337E+03  0.00000000000E+00 0.  1.
          3    1    3    3  501    0  0.11849407744E+03  0.15869312149E+03 -0.88070579199E+03  0.90269986443E+03  0.00000000000E+00 0.  1.
         21    1    1    2  502  501 -0.15888633247E-04  0.10241283774E-04  0.75563973370E-04  0.77892532577E-04  0.00000000000E+00 0. -1.
<mgrwt>
<rscale>  1 0.63732252E+03</rscale>
<asrwt>0</asrwt>
<pdfrwt beam="1">  1        3 0.36925560E+00 0.63732252E+03</pdfrwt>
<pdfrwt beam="2">0</pdfrwt>
<totfact> 0.86213598E-02</totfact>
</mgrwt>
</event>
<event>
 6    1  0.5267428E-003  0.6519078E+03  0.7818608E-02  0.9803206E-01
          1   -1    0    0  502    0  0.00000000000E+00  0.00000000000E+00  0.10665534296E+03  0.10665534296E+03  0.00000000000E+00 0.  1.
         13   -1    0    0    0    0 -0.00000000000E+00 -0.00000000000E+00 -0.10000000000E+04  0.10000000000E+04  0.00000000000E+00 0.  1.
    9000005    2    1    2  501    0 -0.35759080136E-01 -0.33357596212E-01 -0.89375243050E+03  0.11062446477E+04  0.65190782405E+03 0.  0.
         13    1    3    3    0    0  0.24555812964E+03 -0.17915545276E+03 -0.24718163841E+03  0.39178340145E+03  0.00000000000E+00 0.  1.
          1    1    3    3  501    0 -0.24559388872E+03  0.17912209516E+03 -0.64657079208E+03  0.71446124620E+03  0.00000000000E+00 0.  1.
         21    1    1    2  502  501  0.35759080136E-01  0.33357596212E-01  0.40777345481E+00  0.41069530249E+00  0.00000000000E+00 0. -1.
<mgrwt>
<rscale>  1 0.65190783E+03</rscale>
<asrwt>0</asrwt>
<pdfrwt beam="1">  1        1 0.38783843E+00 0.65190783E+03</pdfrwt>
<pdfrwt beam="2">0</pdfrwt>
<totfact> 0.15145899E+00</totfact>
</mgrwt>
</event>
<event>
 6    1  0.5267428E-003  0.6323213E+03  0.7818608E-02  0.9840529E-01
          1   -1    0    0  502    0  0.00000000000E+00  0.00000000000E+00  0.99976997006E+02  0.99976997006E+02  0.00000000000E+00 0.  1.
         13   -1    0    0    0    0 -0.00000000000E+00 -0.00000000000E+00 -0.10000000000E+04  0.10000000000E+04  0.00000000000E+00 0.  1.
    9000005    2    1    2  501    0  0.37212733521E-02  0.85799578723E-02 -0.90004118427E+03  0.10999565514E+04  0.63232134356E+03 0.  0.
         13    1    3    3    0    0  0.23025866071E+03 -0.20061758626E+03 -0.59230344736E+03  0.66640066064E+03  0.00000000000E+00 0.  1.
          3    1    3    3  501    0 -0.23025493943E+03  0.20062616622E+03 -0.30773773691E+03  0.43355589077E+03  0.00000000000E+00 0.  1.
         21    1    1    2  502  501 -0.37212733521E-02 -0.85799578723E-02  0.18181276526E-01  0.20445595334E-01  0.00000000000E+00 0. -1.
<mgrwt>
<rscale>  1 0.63232134E+03</rscale>
<asrwt>0</asrwt>
<pdfrwt beam="1">  1        1 0.36355348E+00 0.63232134E+03</pdfrwt>
<pdfrwt beam="2">0</pdfrwt>
<totfact> 0.19444435E+00</totfact>
</mgrwt>
</event>
<event>
 6    1  0.5267428E-003  0.6544044E+03  0.7818608E-02  0.9798550E-01
          1   -1    0    0  502    0  0.00000000000E+00  0.00000000000E+00  0.10707115800E+03  0.10707115800E+03  0.00000000000E+00 0.  1.
         13   -1    0    0    0    0 -0.00000000000E+00 -0.00000000000E+00 -0.10000000000E+04  0.10000000000E+04  0.00000000000E+00 0.  1.
    9000005    2    1    2  501    0 -0.98749029803E-02 -0.51833183544E-02 -0.89293509776E+03  0.11070583707E+04  0.65440442175E+03 0.  0.
         13    1    3    3    0    0 -0.24330189108E+03 -0.20829217244E+03 -0.33320227069E+03  0.46217441783E+03  0.00000000000E+00 0.  1.
          3    1    3    3  501    0  0.24329201618E+03  0.20828698912E+03 -0.55973282707E+03  0.64488395287E+03  0.00000000000E+00 0.  1.
         21    1    1    2  502  501  0.98749029803E-02  0.51833183544E-02  0.62557524205E-02  0.12787295898E-01  0.00000000000E+00 0. -1.
<mgrwt>
<rscale>  1 0.65440442E+03</rscale>
<asrwt>0</asrwt>
<pdfrwt beam="1">  1        1 0.38935049E+00 0.65440442E+03</pdfrwt>
<pdfrwt beam="2">0</pdfrwt>
<totfact> 0.14907114E+00</totfact>
</mgrwt>
</event>
<event>
 6    1  0.5267428E-003  0.6369917E+03  0.7818608E-02  0.9831499E-01
          1   -1    0    0  502    0  0.00000000000E+00  0.00000000000E+00  0.10846866004E+03  0.10846866004E+03  0.00000000000E+00 0.  1.
         13   -1    0    0    0    0 -0.00000000000E+00 -0.00000000000E+00 -0.10000000000E+04  0.10000000000E+04  0.00000000000E+00 0.  1.
    9000005    2    1    2  501    0  0.55499758911E-01 -0.36759169533E+00 -0.89855496528E+03  0.11014352031E+04  0.63699163479E+03 0.  0.
         13    1    3    3    0    0 -0.84123696051E+02 -0.30273846784E+03 -0.54131681376E+03  0.62590036668E+03  0.00000000000E+00 0.  1.
          1    1    3    3  501    0  0.84179195810E+02  0.30237087615E+03 -0.35723815152E+03  0.47553483642E+03  0.00000000000E+00 0.  1.
         21    1    1    2  502  501 -0.55499758911E-01  0.36759169533E+00  0.70236253204E+01  0.70334569394E+01  0.00000000000E+00 0. -1.
<mgrwt>
<rscale>  1 0.63699174E+03</rscale>
<asrwt>0</asrwt>
<pdfrwt beam="1">  1        1 0.39443232E+00 0.63699174E+03</pdfrwt>
<pdfrwt beam="2">0</pdfrwt>
<totfact> 0.14199315E+00</totfact>
</mgrwt>
</event>
<event>
 6    1  0.5267428E-003  0.6549752E+03  0.7818608E-02  0.9797488E-01
          1   -1    0    0  502    0  0.00000000000E+00  0.00000000000E+00  0.12612239121E+03  0.12612239121E+03  0.00000000000E+00 0.  1.
         13   -1    0    0    0    0 -0.00000000000E+00 -0.00000000000E+00 -0.10000000000E+04  0.10000000000E+04  0.00000000000E+00 0.  1.
    9000005    2    1    2  501    0  0.52014832487E+02  0.39724761724E+00 -0.83472530539E+03  0.10610178333E+04  0.65290643007E+03 0.  0.
         13    1    3    3    0    0 -0.26138415799E+03 -0.14547249438E+03 -0.29535004864E+03  0.42037551773E+03  0.00000000000E+00 0.  1.
          1    1    3    3  501    0  0.31339899048E+03  0.14586974200E+03 -0.53937525674E+03  0.64064231553E+03  0.00000000000E+00 0.  1.
         21    1    1    2  502  501 -0.52014832487E+02 -0.39724761724E+00 -0.39152303406E+02  0.65104557953E+02  0.00000000000E+00 0.  1.
<mgrwt>
<rscale>  1 0.65497520E+03</rscale>
<asrwt>0</asrwt>
<pdfrwt beam="1">  1        1 0.45862784E+00 0.65497520E+03</pdfrwt>
<pdfrwt beam="2">0</pdfrwt>
<totfact> 0.72403982E-01</totfact>
</mgrwt>
</event>
<event>
 6    1  0.5267428E-003  0.6588254E+03  0.7818608E-02  0.9790359E-01
          1   -1    0    0  502    0  0.00000000000E+00  0.00000000000E+00  0.10851272104E+03  0.10851272104E+03  0.00000000000E+00 0.  1.
         13   -1    0    0    0    0 -0.00000000000E+00 -0.00000000000E+00 -0.10000000000E+04  0.10000000000E+04  0.00000000000E+00 0.  1.
    9000005    2    1    2  501    0 -0.18637625772E-05 -0.44736085130E-05 -0.89148728731E+03  0.11085127114E+04  0.65882535461E+03 0.  0.
         13    1    3    3    0    0  0.31374527074E+03  0.49089066106E+02 -0.29841753890E+03  0.43577386205E+03  0.00000000000E+00 0.  1.
          1    1    3    3  501    0 -0.31374527260E+03 -0.49089070579E+02 -0.59306974841E+03  0.67273884934E+03  0.00000000000E+00 0.  1.
         21    1    1    2  502  501  0.18637625828E-05  0.44736085161E-05  0.83425417633E-05  0.96480457707E-05  0.00000000000E+00 0.  1.
<mgrwt>
<rscale>  1 0.65882535E+03</rscale>
<asrwt>0</asrwt>
<pdfrwt beam="1">  1        1 0.39459254E+00 0.65882535E+03</pdfrwt>
<pdfrwt beam="2">0</pdfrwt>
<totfact> 0.14117729E+00</totfact>
</mgrwt>
</event>
<event>
 6    1  0.5267428E-003  0.6020197E+03  0.7818608E-02  0.9901225E-01
          1   -1    0    0  502    0  0.00000000000E+00  0.00000000000E+00  0.90622931828E+02  0.90622931828E+02  0.00000000000E+00 0.  1.
         13   -1    0    0    0    0 -0.00000000000E+00 -0.00000000000E+00 -0.10000000000E+04  0.10000000000E+04  0.00000000000E+00 0.  1.
    9000005    2    1    2  501    0 -0.24946685119E-03 -0.13959142503E-02 -0.90939304612E+03  0.10906068911E+04  0.60201966623E+03 0.  0.
         13    1    3    3    0    0 -0.22200346841E+03  0.20321961785E+03 -0.46337231724E+03  0.55253747154E+03  0.00000000000E+00 0.  1.
          3    1    3    3  501    0  0.22200321894E+03 -0.20322101376E+03 -0.44602072888E+03  0.53806941954E+03  0.00000000000E+00 0.  1.
         21    1    1    2  502  501  0.24946685120E-03  0.13959142503E-02  0.15977948053E-01  0.16040749181E-01  0.00000000000E+00 0.  1.
<mgrwt>
<rscale>  1 0.60201967E+03</rscale>
<asrwt>0</asrwt>
<pdfrwt beam="1">  1        1 0.32953863E+00 0.60201967E+03</pdfrwt>
<pdfrwt beam="2">0</pdfrwt>
<totfact> 0.27492909E+00</totfact>
</mgrwt>
</event>
<event>
 6    1  0.5267428E-003  0.6270559E+03  0.7818608E-02  0.9850811E-01
          1   -1    0    0  502    0  0.00000000000E+00  0.00000000000E+00  0.98362929769E+02  0.98362929769E+02  0.00000000000E+00 0.  1.
         13   -1    0    0    0    0 -0.00000000000E+00 -0.00000000000E+00 -0.10000000000E+04  0.10000000000E+04  0.00000000000E+00 0.  1.
    9000005    2    1    2  501    0  0.60768109284E-02 -0.22950783034E-03 -0.90170005816E+03  0.10982996490E+04  0.62705591778E+03 0.  0.
         13    1    3    3    0    0 -0.75263761898E+01  0.98700124316E+02  0.70212276379E+02  0.12135948514E+03  0.00000000000E+00 0.  1.
          1    1    3    3  501    0  0.75324530007E+01 -0.98700353824E+02 -0.97191233454E+03  0.97694016384E+03  0.00000000000E+00 0.  1.
         21    1    1    2  502  501 -0.60768109284E-02  0.22950783034E-03  0.62987925997E-01  0.63280795873E-01  0.00000000000E+00 0.  1.
<mgrwt>
<rscale>  1 0.62705592E+03</rscale>
<asrwt>0</asrwt>
<pdfrwt beam="1">  1        1 0.35768414E+00 0.62705592E+03</pdfrwt>
<pdfrwt beam="2">0</pdfrwt>
<totfact> 0.20648284E+00</totfact>
</mgrwt>
</event>
<event>
 6    1  0.5267428E-003  0.6289093E+03  0.7818608E-02  0.9847180E-01
          1   -1    0    0  502    0  0.00000000000E+00  0.00000000000E+00  0.98882263500E+02  0.98882263500E+02  0.00000000000E+00 0.  1.
         13   -1    0    0    0    0 -0.00000000000E+00 -0.00000000000E+00 -0.10000000000E+04  0.10000000000E+04  0.00000000000E+00 0.  1.
    9000005    2    1    2  501    0 -0.17081971926E-04  0.54284519422E-04 -0.90111828535E+03  0.10988817117E+04  0.62890925590E+03 0.  0.
         13    1    3    3    0    0 -0.28835331766E+02  0.27894445621E+03 -0.20197652644E+03  0.34559514354E+03  0.00000000000E+00 0.  1.
          1    1    3    3  501    0  0.28835314684E+02 -0.27894440192E+03 -0.69914175891E+03  0.75328656817E+03  0.00000000000E+00 0.  1.
         21    1    1    2  502  501  0.17081971928E-04 -0.54284519407E-04  0.54884485840E-03  0.55178735161E-03  0.00000000000E+00 0.  1.
<mgrwt>
<rscale>  1 0.62890926E+03</rscale>
<asrwt>0</asrwt>
<pdfrwt beam="1">  1        1 0.35957263E+00 0.62890926E+03</pdfrwt>
<pdfrwt beam="2">0</pdfrwt>
<totfact> 0.20252756E+00</totfact>
</mgrwt>
</event>
<event>
 6    1  0.5267428E-003  0.6534745E+03  0.7818608E-02  0.9800281E-01
          1   -1    0    0  502    0  0.00000000000E+00  0.00000000000E+00  0.10681160027E+03  0.10681160027E+03  0.00000000000E+00 0.  1.
         13   -1    0    0    0    0 -0.00000000000E+00 -0.00000000000E+00 -0.10000000000E+04  0.10000000000E+04  0.00000000000E+00 0.  1.
    9000005    2    1    2  501    0  0.15681159445E-02 -0.43318771958E-03 -0.89324277065E+03  0.11067572050E+04  0.65347445516E+03 0.  0.
         13    1    3    3    0    0 -0.19852683328E+03  0.13342216782E+02 -0.88555391287E+03  0.90763244261E+03  0.00000000000E+00 0.  1.
          3    1    3    3  501    0  0.19852840140E+03 -0.13342649970E+02 -0.76888577777E+01  0.19912476241E+03  0.00000000000E+00 0.  1.
         21    1    1    2  502  501 -0.15681159444E-02  0.43318771959E-03  0.54370919211E-01  0.54395252505E-01  0.00000000000E+00 0.  1.
<mgrwt>
<rscale>  1 0.65347446E+03</rscale>
<asrwt>0</asrwt>
<pdfrwt beam="1">  1        1 0.38840664E+00 0.65347446E+03</pdfrwt>
<pdfrwt beam="2">0</pdfrwt>
<totfact> 0.15053992E+00</totfact>
</mgrwt>
</event>
<event>
 6    1  0.5267428E-003  0.6516868E+03  0.7818608E-02  0.9803619E-01
          1   -1    0    0  502    0  0.00000000000E+00  0.00000000000E+00  0.10617892269E+03  0.10617892269E+03  0.00000000000E+00 0.  1.
         13   -1    0    0    0    0 -0.00000000000E+00 -0.00000000000E+00 -0.10000000000E+04  0.10000000000E+04  0.00000000000E+00 0.  1.
    9000005    2    1    2  501    0  0.56658318129E-02 -0.10377597473E-01 -0.89381657590E+03  0.11061662713E+04  0.65168684823E+03 0.  0.
         13    1    3    3    0    0  0.24881065092E+03  0.20695708292E+03 -0.38260222590E+03  0.50112118040E+03  0.00000000000E+00 0.  1.
          1    1    3    3  501    0 -0.24880498508E+03 -0.20696746052E+03 -0.51121435000E+03  0.60504509085E+03  0.00000000000E+00 0.  1.
         21    1    1    2  502  501 -0.56658318129E-02  0.10377597473E-01 -0.45014072334E-02  0.12651436540E-01  0.00000000000E+00 0. -1.
<mgrwt>
<rscale>  1 0.65168685E+03</rscale>
<asrwt>0</asrwt>
<pdfrwt beam="1">  1        1 0.38610599E+00 0.65168685E+03</pdfrwt>
<pdfrwt beam="2">0</pdfrwt>
<totfact> 0.15416419E+00</totfact>
</mgrwt>
</event>
<event>
 6    1  0.5267428E-003  0.6503310E+03  0.7818608E-02  0.9806158E-01
          1   -1    0    0  502    0  0.00000000000E+00  0.00000000000E+00  0.10802532704E+03  0.10802532704E+03  0.00000000000E+00 0.  1.
         13   -1    0    0    0    0 -0.00000000000E+00 -0.00000000000E+00 -0.10000000000E+04  0.10000000000E+04  0.00000000000E+00 0.  1.
    9000005    2    1    2  501    0 -0.44603828477E+00 -0.25740841928E+00 -0.89423539382E+03  0.11057066921E+04  0.65033074981E+03 0.  0.
         13    1    3    3    0    0 -0.31621364928E+03 -0.31901628844E+02 -0.56611986754E+03  0.64923069116E+03  0.00000000000E+00 0.  1.
          3    1    3    3  501    0  0.31576761099E+03  0.31644220424E+02 -0.32811552628E+03  0.45647600093E+03  0.00000000000E+00 0.  1.
         21    1    1    2  502  501  0.44603828477E+00  0.25740841928E+00  0.22607208567E+01  0.23186349513E+01  0.00000000000E+00 0.  1.
<mgrwt>
<rscale>  1 0.65033095E+03</rscale>
<asrwt>0</asrwt>
<pdfrwt beam="1">  1        1 0.39282020E+00 0.65033095E+03</pdfrwt>
<pdfrwt beam="2">0</pdfrwt>
<totfact> 0.14398884E+00</totfact>
</mgrwt>
</event>
<event>
 6    1  0.5267428E-003  0.6161189E+03  0.7818608E-02  0.9872518E-01
          1   -1    0    0  502    0  0.00000000000E+00  0.00000000000E+00  0.94900907596E+02  0.94900907596E+02  0.00000000000E+00 0.  1.
         13   -1    0    0    0    0 -0.00000000000E+00 -0.00000000000E+00 -0.10000000000E+04  0.10000000000E+04  0.00000000000E+00 0.  1.
    9000005    2    1    2  501    0  0.43251839159E-03 -0.34903058986E-03 -0.90509907331E+03  0.10949003515E+04  0.61611885799E+03 0.  0.
         13    1    3    3    0    0 -0.25415272040E+03 -0.15883412873E+03 -0.57919356382E+03  0.65214037608E+03  0.00000000000E+00 0.  1.
          3    1    3    3  501    0  0.25415315292E+03  0.15883377970E+03 -0.32590550949E+03  0.44275997541E+03  0.00000000000E+00 0.  1.
         21    1    1    2  502  501 -0.43251839158E-03  0.34903058987E-03 -0.19091495587E-04  0.55611059775E-03  0.00000000000E+00 0.  1.
<mgrwt>
<rscale>  1 0.61611886E+03</rscale>
<asrwt>0</asrwt>
<pdfrwt beam="1">  1        1 0.34509494E+00 0.61611886E+03</pdfrwt>
<pdfrwt beam="2">0</pdfrwt>
<totfact> 0.23475691E+00</totfact>
</mgrwt>
</event>
<event>
 6    1  0.5267428E-003  0.6509694E+03  0.7818608E-02  0.9804962E-01
          1   -1    0    0  502    0  0.00000000000E+00  0.00000000000E+00  0.10594346667E+03  0.10594346667E+03  0.00000000000E+00 0.  1.
         13   -1    0    0    0    0 -0.00000000000E+00 -0.00000000000E+00 -0.10000000000E+04  0.10000000000E+04  0.00000000000E+00 0.  1.
    9000005    2    1    2  501    0  0.27965146665E-02 -0.27243487478E-02 -0.89405834759E+03  0.11059391615E+04  0.65096935422E+03 0.  0.
         13    1    3    3    0    0  0.15501146881E+03 -0.16577776571E+03 -0.84339230555E+03  0.87339647591E+03  0.00000000000E+00 0.  1.
          3    1    3    3  501    0 -0.15500867230E+03  0.16577504136E+03 -0.50666042032E+02  0.23254268563E+03  0.00000000000E+00 0.  1.
         21    1    1    2  502  501 -0.27965146665E-02  0.27243487477E-02  0.18142523686E-02  0.43051227667E-02  0.00000000000E+00 0.  1.
<mgrwt>
<rscale>  1 0.65096935E+03</rscale>
<asrwt>0</asrwt>
<pdfrwt beam="1">  1        1 0.38524978E+00 0.65096935E+03</pdfrwt>
<pdfrwt beam="2">0</pdfrwt>
<totfact> 0.15553552E+00</totfact>
</mgrwt>
</event>
<event>
 6    1  0.5267428E-003  0.6496571E+03  0.7818608E-02  0.9807423E-01
          1   -1    0    0  502    0  0.00000000000E+00  0.00000000000E+00  0.10551570222E+03  0.10551570222E+03  0.00000000000E+00 0.  1.
         13   -1    0    0    0    0 -0.00000000000E+00 -0.00000000000E+00 -0.10000000000E+04  0.10000000000E+04  0.00000000000E+00 0.  1.
    9000005    2    1    2  501    0  0.10930098537E-03  0.93345004501E-04 -0.89448642413E+03  0.11055135710E+04  0.64965705779E+03 0.  0.
         13    1    3    3    0    0  0.42553357950E+02  0.93221224699E+02  0.77286988889E+02  0.12835210812E+03  0.00000000000E+00 0.  1.
          1    1    3    3  501    0 -0.42553248649E+02 -0.93221131354E+02 -0.97177341302E+03  0.97716146289E+03  0.00000000000E+00 0.  1.
         21    1    1    2  502  501 -0.10930098537E-03 -0.93345004498E-04  0.21263543299E-02  0.21312068720E-02  0.00000000000E+00 0. -1.
<mgrwt>
<rscale>  1 0.64965706E+03</rscale>
<asrwt>0</asrwt>
<pdfrwt beam="1">  1        1 0.38369427E+00 0.64965706E+03</pdfrwt>
<pdfrwt beam="2">0</pdfrwt>
<totfact> 0.15805686E+00</totfact>
</mgrwt>
</event>
<event>
 6    1  0.5267428E-003  0.6506359E+03  0.7818608E-02  0.9805587E-01
          1   -1    0    0  502    0  0.00000000000E+00  0.00000000000E+00  0.10702757809E+03  0.10702757809E+03  0.00000000000E+00 0.  1.
         13   -1    0    0    0    0 -0.00000000000E+00 -0.00000000000E+00 -0.10000000000E+04  0.10000000000E+04  0.00000000000E+00 0.  1.
    9000005    2    1    2  501    0 -0.16589236112E-01  0.29498962758E-02 -0.89416817999E+03  0.11058317013E+04  0.65063585608E+03 0.  0.
         13    1    3    3    0    0  0.22406639459E+02  0.22576718002E+03 -0.50818122156E+02  0.23249808301E+03  0.00000000000E+00 0.  1.
          3    1    3    3  501    0 -0.22423228695E+02 -0.22576423012E+03 -0.84335005783E+03  0.87333361829E+03  0.00000000000E+00 0.  1.
         21    1    1    2  502  501  0.16589236112E-01 -0.29498962758E-02  0.11957580809E+01  0.11958767883E+01  0.00000000000E+00 0.  1.
<mgrwt>
<rscale>  1 0.65063586E+03</rscale>
<asrwt>0</asrwt>
<pdfrwt beam="1">  1        1 0.38919201E+00 0.65063586E+03</pdfrwt>
<pdfrwt beam="2">0</pdfrwt>
<totfact> 0.14941699E+00</totfact>
</mgrwt>
</event>
<event>
 6    1  0.5267428E-003  0.6504756E+03  0.7818608E-02  0.9805887E-01
          1   -1    0    0  502    0  0.00000000000E+00  0.00000000000E+00  0.10589350655E+03  0.10589350655E+03  0.00000000000E+00 0.  1.
         13   -1    0    0    0    0 -0.00000000000E+00 -0.00000000000E+00 -0.10000000000E+04  0.10000000000E+04  0.00000000000E+00 0.  1.
    9000005    2    1    2  501    0  0.95353487854E-02 -0.20194887644E-01 -0.89421916422E+03  0.11057786438E+04  0.65047559128E+03 0.  0.
         13    1    3    3    0    0 -0.59909006853E+02  0.17439177158E+03  0.83280059465E+01  0.18458313785E+03  0.00000000000E+00 0.  1.
          3    1    3    3  501    0  0.59918542202E+02 -0.17441196646E+03 -0.90254717017E+03  0.92119550592E+03  0.00000000000E+00 0.  1.
         21    1    1    2  502  501 -0.95353487854E-02  0.20194887644E-01  0.11267076622E+00  0.11486277867E+00  0.00000000000E+00 0.  1.
<mgrwt>
<rscale>  1 0.65047559E+03</rscale>
<asrwt>0</asrwt>
<pdfrwt beam="1">  1        1 0.38506811E+00 0.65047559E+03</pdfrwt>
<pdfrwt beam="2">0</pdfrwt>
<totfact> 0.15583781E+00</totfact>
</mgrwt>
</event>
<event>
 6    1  0.5267428E-003  0.6279162E+03  0.7818608E-02  0.9849124E-01
          1   -1    0    0  502    0  0.00000000000E+00  0.00000000000E+00  0.98569873023E+02  0.98569873023E+02  0.00000000000E+00 0.  1.
         13   -1    0    0    0    0 -0.00000000000E+00 -0.00000000000E+00 -0.10000000000E+04  0.10000000000E+04  0.00000000000E+00 0.  1.
    9000005    2    1    2  501    0  0.20086635317E-04  0.47750018837E-05 -0.90143030077E+03  0.10985696980E+04  0.62791623187E+03 0.  0.
         13    1    3    3    0    0 -0.10331451968E+03  0.11089934331E+03 -0.93175227302E+03  0.94399939227E+03  0.00000000000E+00 0.  1.
          1    1    3    3  501    0  0.10331453977E+03 -0.11089933853E+03  0.30321972257E+02  0.15457030574E+03  0.00000000000E+00 0.  1.
         21    1    1    2  502  501 -0.20086635313E-04 -0.47750018814E-05  0.17378973497E-03  0.17501184401E-03  0.00000000000E+00 0. -1.
<mgrwt>
<rscale>  1 0.62791623E+03</rscale>
<asrwt>0</asrwt>
<pdfrwt beam="1">  1        1 0.35843666E+00 0.62791623E+03</pdfrwt>
<pdfrwt beam="2">0</pdfrwt>
<totfact> 0.20489343E+00</totfact>
</mgrwt>
</event>
<event>
 6    1  0.5267428E-003  0.6572452E+03  0.7818608E-02  0.9793278E-01
          1   -1    0    0  502    0  0.00000000000E+00  0.00000000000E+00  0.10800122753E+03  0.10800122753E+03  0.00000000000E+00 0.  1.
         13   -1    0    0    0    0 -0.00000000000E+00 -0.00000000000E+00 -0.10000000000E+04  0.10000000000E+04  0.00000000000E+00 0.  1.
    9000005    2    1    2  501    0  0.44141954278E-03  0.28185117810E-03 -0.89200716795E+03  0.11079928157E+04  0.65724522975E+03 0.  0.
         13    1    3    3    0    0 -0.68759851453E+02  0.28842462980E+03 -0.68486738466E+03  0.74629754041E+03  0.00000000000E+00 0.  1.
          3    1    3    3  501    0  0.68760292872E+02 -0.28842434795E+03 -0.20713978329E+03  0.36169527532E+03  0.00000000000E+00 0.  1.
         21    1    1    2  502  501 -0.44141954279E-03 -0.28185117811E-03  0.83954787726E-02  0.84117985663E-02  0.00000000000E+00 0. -1.
<mgrwt>
<rscale>  1 0.65724523E+03</rscale>
<asrwt>0</asrwt>
<pdfrwt beam="1">  1        1 0.39273256E+00 0.65724523E+03</pdfrwt>
<pdfrwt beam="2">0</pdfrwt>
<totfact> 0.14393202E+00</totfact>
</mgrwt>
</event>
<event>
 6    1  0.5267428E-003  0.6554019E+03  0.7818608E-02  0.9796695E-01
          1   -1    0    0  502    0  0.00000000000E+00  0.00000000000E+00  0.11688932263E+03  0.11688932263E+03  0.00000000000E+00 0.  1.
         13   -1    0    0    0    0 -0.00000000000E+00 -0.00000000000E+00 -0.10000000000E+04  0.10000000000E+04  0.00000000000E+00 0.  1.
    9000005    2    1    2  501    0  0.12373854641E+00  0.56819682855E-01 -0.89261155587E+03  0.11073874685E+04  0.65540185929E+03 0.  0.
         13    1    3    3    0    0  0.28115875320E+03 -0.23412747755E+02 -0.16454117491E+03  0.32660710265E+03  0.00000000000E+00 0.  1.
          3    1    3    3  501    0 -0.28103501465E+03  0.23469567437E+02 -0.72807038096E+03  0.78078036584E+03  0.00000000000E+00 0.  1.
         21    1    1    2  502  501 -0.12373854641E+00 -0.56819682855E-01  0.95008785000E+01  0.95018541336E+01  0.00000000000E+00 0. -1.
<mgrwt>
<rscale>  1 0.65540187E+03</rscale>
<asrwt>0</asrwt>
<pdfrwt beam="1">  1        1 0.42505298E+00 0.65540187E+03</pdfrwt>
<pdfrwt beam="2">0</pdfrwt>
<totfact> 0.10314884E+00</totfact>
</mgrwt>
</event>
<event>
 6    1  0.5267428E-003  0.4969491E+03  0.7818608E-02  0.1014578E+00
          1   -1    0    0  502    0  0.00000000000E+00  0.00000000000E+00  0.61743791682E+02  0.61743791682E+02  0.00000000000E+00 0.  1.
         13   -1    0    0    0    0 -0.00000000000E+00 -0.00000000000E+00 -0.10000000000E+04  0.10000000000E+04  0.00000000000E+00 0.  1.
    9000005    2    1    2  501    0  0.23259260101E-03 -0.19263801375E-02 -0.93826014722E+03  0.10617394008E+04  0.49694914359E+03 0.  0.
         13    1    3    3    0    0 -0.15029237179E+03 -0.17274161060E+03 -0.67530713162E+03  0.71306884876E+03  0.00000000000E+00 0.  1.
          1    1    3    3  501    0  0.15029260438E+03  0.17273968422E+03 -0.26295301560E+03  0.34867055202E+03  0.00000000000E+00 0.  1.
         21    1    1    2  502  501 -0.23259260103E-03  0.19263801375E-02  0.39389018874E-02  0.43908982943E-02  0.00000000000E+00 0.  1.
<mgrwt>
<rscale>  1 0.49694914E+03</rscale>
<asrwt>0</asrwt>
<pdfrwt beam="1">  1        1 0.22452335E+00 0.49694914E+03</pdfrwt>
<pdfrwt beam="2">0</pdfrwt>
<totfact> 0.79895847E+00</totfact>
</mgrwt>
</event>
<event>
 6    1  0.5267428E-003  0.6353772E+03  0.7818608E-02  0.9834611E-01
          1   -1    0    0  502    0  0.00000000000E+00  0.00000000000E+00  0.10946565213E+03  0.10946565213E+03  0.00000000000E+00 0.  1.
         13   -1    0    0    0    0 -0.00000000000E+00 -0.00000000000E+00 -0.10000000000E+04  0.10000000000E+04  0.00000000000E+00 0.  1.
    9000005    2    1    2  501    0  0.21013360576E+02 -0.15599944253E+02 -0.85028527000E+03  0.10614561963E+04  0.63483800818E+03 0.  0.
         13    1    3    3    0    0 -0.23936101005E+03 -0.45553483649E+02 -0.73644959563E+03  0.77571052585E+03  0.00000000000E+00 0.  1.
          1    1    3    3  501    0  0.26037437063E+03  0.29953539396E+02 -0.11383567437E+03  0.28574567042E+03  0.00000000000E+00 0.  1.
         21    1    1    2  502  501 -0.21013360576E+02  0.15599944253E+02 -0.40249077871E+02  0.48009455869E+02  0.00000000000E+00 0.  1.
<mgrwt>
<rscale>  1 0.63537722E+03</rscale>
<asrwt>0</asrwt>
<pdfrwt beam="1">  1        1 0.39805776E+00 0.63537722E+03</pdfrwt>
<pdfrwt beam="2">0</pdfrwt>
<totfact> 0.13686219E+00</totfact>
</mgrwt>
</event>
<event>
 6    1  0.5267428E-003  0.6512665E+03  0.7818608E-02  0.9804406E-01
          1   -1    0    0  502    0  0.00000000000E+00  0.00000000000E+00  0.10603728994E+03  0.10603728994E+03  0.00000000000E+00 0.  1.
         13   -1    0    0    0    0 -0.00000000000E+00 -0.00000000000E+00 -0.10000000000E+04  0.10000000000E+04  0.00000000000E+00 0.  1.
    9000005    2    1    2  501    0 -0.25115185672E-04  0.52805410292E-04 -0.89396299018E+03  0.11060370038E+04  0.65126647841E+03 0.  0.
         13    1    3    3    0    0 -0.38169613804E+02 -0.21913852310E+03 -0.85086805795E+03  0.87946294053E+03  0.00000000000E+00 0.  1.
          1    1    3    3  501    0  0.38169588689E+02  0.21913857591E+03 -0.43094932234E+02  0.22657406325E+03  0.00000000000E+00 0.  1.
         21    1    1    2  502  501  0.25115185674E-04 -0.52805410310E-04  0.28012351295E-03  0.28616143419E-03  0.00000000000E+00 0.  1.
<mgrwt>
<rscale>  1 0.65126648E+03</rscale>
<asrwt>0</asrwt>
<pdfrwt beam="1">  1        1 0.38559096E+00 0.65126648E+03</pdfrwt>
<pdfrwt beam="2">0</pdfrwt>
<totfact> 0.15498737E+00</totfact>
</mgrwt>
</event>
<event>
 6    1  0.5267428E-003  0.6460700E+03  0.7818608E-02  0.9814182E-01
          1   -1    0    0  502    0  0.00000000000E+00  0.00000000000E+00  0.10483433867E+03  0.10483433867E+03  0.00000000000E+00 0.  1.
         13   -1    0    0    0    0 -0.00000000000E+00 -0.00000000000E+00 -0.10000000000E+04  0.10000000000E+04  0.00000000000E+00 0.  1.
    9000005    2    1    2  501    0  0.54487271685E-02 -0.91913111810E-02 -0.89564833870E+03  0.11043515430E+04  0.64606995278E+03 0.  0.
         13    1    3    3    0    0 -0.25818631245E+03 -0.15664258536E+03 -0.25177465857E+03  0.39317623299E+03  0.00000000000E+00 0.  1.
          1    1    3    3  501    0  0.25819176118E+03  0.15663339405E+03 -0.64387368013E+03  0.71117531006E+03  0.00000000000E+00 0.  1.
         21    1    1    2  502  501 -0.54487271685E-02  0.91913111810E-02  0.48267737435E+00  0.48279562606E+00  0.00000000000E+00 0. -1.
<mgrwt>
<rscale>  1 0.64606995E+03</rscale>
<asrwt>0</asrwt>
<pdfrwt beam="1">  1        1 0.38121658E+00 0.64606995E+03</pdfrwt>
<pdfrwt beam="2">0</pdfrwt>
<totfact> 0.16219807E+00</totfact>
</mgrwt>
</event>
<event>
 6    1  0.5267428E-003  0.6524812E+03  0.7818608E-02  0.9802134E-01
          1   -1    0    0  502    0  0.00000000000E+00  0.00000000000E+00  0.10794948755E+03  0.10794948755E+03  0.00000000000E+00 0.  1.
         13   -1    0    0    0    0 -0.00000000000E+00 -0.00000000000E+00 -0.10000000000E+04  0.10000000000E+04  0.00000000000E+00 0.  1.
    9000005    2    1    2  501    0  0.23073825126E-01  0.14280512896E-01 -0.89356692580E+03  0.11064328314E+04  0.65248123258E+03 0.  0.
         13    1    3    3    0    0  0.30595594181E+03 -0.28065203458E+02 -0.26070760372E+03  0.40294559014E+03  0.00000000000E+00 0.  1.
          1    1    3    3  501    0 -0.30593286798E+03  0.28079483971E+02 -0.63285932207E+03  0.70348724130E+03  0.00000000000E+00 0.  1.
         21    1    1    2  502  501 -0.23073825126E-01 -0.14280512896E-01  0.15164133489E+01  0.15166561176E+01  0.00000000000E+00 0.  1.
<mgrwt>
<rscale>  1 0.65248123E+03</rscale>
<asrwt>0</asrwt>
<pdfrwt beam="1">  1        1 0.39254442E+00 0.65248123E+03</pdfrwt>
<pdfrwt beam="2">0</pdfrwt>
<totfact> 0.14433728E+00</totfact>
</mgrwt>
</event>
<event>
 6    1  0.5267428E-003  0.6377120E+03  0.7818608E-02  0.9830114E-01
          1   -1    0    0  502    0  0.00000000000E+00  0.00000000000E+00  0.10167193927E+03  0.10167193927E+03  0.00000000000E+00 0.  1.
         13   -1    0    0    0    0 -0.00000000000E+00 -0.00000000000E+00 -0.10000000000E+04  0.10000000000E+04  0.00000000000E+00 0.  1.
    9000005    2    1    2  501    0 -0.45279554513E-04 -0.12162533341E-03 -0.89833085755E+03  0.11016691394E+04  0.63771197507E+03 0.  0.
         13    1    3    3    0    0 -0.28667312589E+03 -0.49139620789E+02 -0.22343965533E+03  0.36677167695E+03  0.00000000000E+00 0.  1.
          1    1    3    3  501    0  0.28667308061E+03  0.49139499164E+02 -0.67489120222E+03  0.73489746248E+03  0.00000000000E+00 0.  1.
         21    1    1    2  502  501  0.45279554500E-04  0.12162533341E-03  0.27968263181E-02  0.27998357832E-02  0.00000000000E+00 0.  1.
<mgrwt>
<rscale>  1 0.63771198E+03</rscale>
<asrwt>0</asrwt>
<pdfrwt beam="1">  1        1 0.36971692E+00 0.63771198E+03</pdfrwt>
<pdfrwt beam="2">0</pdfrwt>
<totfact> 0.18253276E+00</totfact>
</mgrwt>
</event>
<event>
 6    1  0.5267428E-003  0.6579049E+03  0.7818608E-02  0.9792058E-01
          1   -1    0    0  502    0  0.00000000000E+00  0.00000000000E+00  0.10821246349E+03  0.10821246349E+03  0.00000000000E+00 0.  1.
         13   -1    0    0    0    0 -0.00000000000E+00 -0.00000000000E+00 -0.10000000000E+04  0.10000000000E+04  0.00000000000E+00 0.  1.
    9000005    2    1    2  501    0 -0.43470883516E-03  0.10832952605E-02 -0.89179015563E+03  0.11082095960E+04  0.65790487691E+03 0.  0.
         13    1    3    3    0    0  0.75156476170E+02  0.14880434171E+03 -0.92357536050E+03  0.93850022618E+03  0.00000000000E+00 0.  1.
          3    1    3    3  501    0 -0.75156910879E+02 -0.14880325841E+03  0.31785204866E+02  0.16970936985E+03  0.00000000000E+00 0.  1.
         21    1    1    2  502  501  0.43470883516E-03 -0.10832952605E-02  0.26191265179E-02  0.28674595219E-02  0.00000000000E+00 0.  1.
<mgrwt>
<rscale>  1 0.65790488E+03</rscale>
<asrwt>0</asrwt>
<pdfrwt beam="1">  1        1 0.39350070E+00 0.65790488E+03</pdfrwt>
<pdfrwt beam="2">0</pdfrwt>
<totfact> 0.14278808E+00</totfact>
</mgrwt>
</event>
<event>
 6    1  0.5267428E-003  0.6576620E+03  0.7818608E-02  0.9792507E-01
          1   -1    0    0  502    0  0.00000000000E+00  0.00000000000E+00  0.10910344940E+03  0.10910344940E+03  0.00000000000E+00 0.  1.
         13   -1    0    0    0    0 -0.00000000000E+00 -0.00000000000E+00 -0.10000000000E+04  0.10000000000E+04  0.00000000000E+00 0.  1.
    9000005    2    1    2  501    0  0.14704317116E+00  0.36633178977E-01 -0.89186362952E+03  0.11081245698E+04  0.65766199946E+03 0.  0.
         13    1    3    3    0    0  0.13326342163E+03 -0.27057054472E+03 -0.22515353681E+03  0.37637969439E+03  0.00000000000E+00 0.  1.
          3    1    3    3  501    0 -0.13311637846E+03  0.27060717790E+03 -0.66671009270E+03  0.73174487538E+03  0.00000000000E+00 0.  1.
         21    1    1    2  502  501 -0.14704317116E+00 -0.36633178977E-01  0.96707891743E+00  0.97887962310E+00  0.00000000000E+00 0. -1.
<mgrwt>
<rscale>  1 0.65766202E+03</rscale>
<asrwt>0</asrwt>
<pdfrwt beam="1">  1        1 0.39674065E+00 0.65766202E+03</pdfrwt>
<pdfrwt beam="2">0</pdfrwt>
<totfact> 0.13813502E+00</totfact>
</mgrwt>
</event>
<event>
 6    1  0.5267428E-003  0.6405059E+03  0.7818608E-02  0.9824759E-01
          1   -1    0    0  502    0  0.00000000000E+00  0.00000000000E+00  0.11696317927E+03  0.11696317927E+03  0.00000000000E+00 0.  1.
         13   -1    0    0    0    0 -0.00000000000E+00 -0.00000000000E+00 -0.10000000000E+04  0.10000000000E+04  0.00000000000E+00 0.  1.
    9000005    2    1    2  501    0 -0.12762411810E-01  0.23815413763E+00 -0.89743695596E+03  0.11025610692E+04  0.64050586607E+03 0.  0.
         13    1    3    3    0    0  0.14821637104E+03 -0.15932012300E+03 -0.85296069559E+03  0.88028003638E+03  0.00000000000E+00 0.  1.
          1    1    3    3  501    0 -0.14822913345E+03  0.15955827713E+03 -0.44476260373E+02  0.22228103280E+03  0.00000000000E+00 0.  1.
         21    1    1    2  502  501  0.12762411810E-01 -0.23815413763E+00  0.14400135234E+02  0.14402110089E+02  0.00000000000E+00 0. -1.
<mgrwt>
<rscale>  1 0.64050591E+03</rscale>
<asrwt>0</asrwt>
<pdfrwt beam="1">  1        1 0.42532155E+00 0.64050591E+03</pdfrwt>
<pdfrwt beam="2">0</pdfrwt>
<totfact> 0.10316773E+00</totfact>
</mgrwt>
</event>
<event>
 6    1  0.5267428E-003  0.6486915E+03  0.7818608E-02  0.9809238E-01
          1   -1    0    0  502    0  0.00000000000E+00  0.00000000000E+00  0.10520029236E+03  0.10520029236E+03  0.00000000000E+00 0.  1.
         13   -1    0    0    0    0 -0.00000000000E+00 -0.00000000000E+00 -0.10000000000E+04  0.10000000000E+04  0.00000000000E+00 0.  1.
    9000005    2    1    2  501    0 -0.12859356389E-05 -0.14095327806E-04 -0.89479983665E+03  0.11052001626E+04  0.64869149193E+03 0.  0.
         13    1    3    3    0    0  0.17556712447E+03  0.30148966149E+02  0.14395942739E+02  0.17871770624E+03  0.00000000000E+00 0.  1.
          1    1    3    3  501    0 -0.17556712576E+03 -0.30148980244E+02 -0.90919577939E+03  0.92648245634E+03  0.00000000000E+00 0.  1.
         21    1    1    2  502  501  0.12859356259E-05  0.14095327807E-04  0.12900978318E-03  0.12978388210E-03  0.00000000000E+00 0. -1.
<mgrwt>
<rscale>  1 0.64869149E+03</rscale>
<asrwt>0</asrwt>
<pdfrwt beam="1">  1        1 0.38254732E+00 0.64869149E+03</pdfrwt>
<pdfrwt beam="2">0</pdfrwt>
<totfact> 0.15994073E+00</totfact>
</mgrwt>
</event>
<event>
 6    1  0.5267428E-003  0.6332230E+03  0.7818608E-02  0.9838779E-01
          1   -1    0    0  502    0  0.00000000000E+00  0.00000000000E+00  0.10057169530E+03  0.10057169530E+03  0.00000000000E+00 0.  1.
         13   -1    0    0    0    0 -0.00000000000E+00 -0.00000000000E+00 -0.10000000000E+04  0.10000000000E+04  0.00000000000E+00 0.  1.
    9000005    2    1    2  501    0  0.16522079262E-01  0.12796784628E-01 -0.89975678887E+03  0.11002425470E+04  0.63322301184E+03 0.  0.
         13    1    3    3    0    0 -0.19348906877E+03 -0.25040252641E+03 -0.46697665122E+03  0.56409807459E+03  0.00000000000E+00 0.  1.
          3    1    3    3  501    0  0.19350559085E+03  0.25041532320E+03 -0.43278013765E+03  0.53614447244E+03  0.00000000000E+00 0.  1.
         21    1    1    2  502  501 -0.16522079262E-01 -0.12796784628E-01  0.32848416967E+00  0.32914827437E+00  0.00000000000E+00 0.  1.
<mgrwt>
<rscale>  1 0.63322301E+03</rscale>
<asrwt>0</asrwt>
<pdfrwt beam="1">  1        1 0.36571603E+00 0.63322301E+03</pdfrwt>
<pdfrwt beam="2">0</pdfrwt>
<totfact> 0.19021679E+00</totfact>
</mgrwt>
</event>
