<event>
 6    1  0.1950139E-004  0.3000000E+03  0.7818608E-02  0.1093470E+00
          1   -1    0    0  502    0  0.00000000000E+00  0.00000000000E+00  0.30634575293E+02  0.30634575293E+02  0.00000000000E+00 0.  1.
         13   -1    0    0    0    0 -0.00000000000E+00 -0.00000000000E+00 -0.10000000000E+04  0.10000000000E+04  0.00000000000E+00 0.  1.
    9000005    2    1    2  501    0 -0.18271403849E+02  0.64865902769E+01 -0.91141289563E+03  0.96952470966E+03  0.33004359751E+03 0.  0.
         13    1    3    3    0    0 -0.77770219403E+02 -0.12190498960E+03 -0.70230075421E+03  0.71703234438E+03  0.00000000000E+00 0.  1.
          1    1    3    3  501    0  0.59498815554E+02  0.12839157987E+03 -0.20911214142E+03  0.25249236528E+03  0.00000000000E+00 0.  1.
         21    1    1    2  502  501  0.18271403849E+02 -0.64865902769E+01 -0.57952529074E+02  0.61109865636E+02  0.00000000000E+00 0.  1.
<mgrwt>
<rscale>  1 0.30000000E+03</rscale>
<asrwt>0</asrwt>
<pdfrwt beam="1">  1        1 0.11139869E+00 0.30000000E+03</pdfrwt>
<pdfrwt beam="2">0</pdfrwt>
<totfact> 0.29147003E+01</totfact>
</mgrwt>
</event>
<event>
 6    1  0.1950139E-004  0.3000000E+03  0.7818608E-02  0.1093470E+00
          3   -1    0    0  502    0  0.00000000000E+00  0.00000000000E+00  0.30395689398E+02  0.30395689398E+02  0.00000000000E+00 0.  1.
         13   -1    0    0    0    0 -0.00000000000E+00 -0.00000000000E+00 -0.10000000000E+04  0.10000000000E+04  0.00000000000E+00 0.  1.
    9000005    2    1    2  501    0 -0.16430913246E+02 -0.14939842828E+02 -0.95104218934E+03  0.10014521900E+04  0.31294099933E+03 0.  0.
         13    1    3    3    0    0  0.10109599888E+03 -0.47584944521E+01 -0.10001789405E+03  0.14229063001E+03  0.00000000000E+00 0.  1.
          1    1    3    3  501    0 -0.11752691212E+03 -0.10181348376E+02 -0.85102429529E+03  0.85916155995E+03  0.00000000000E+00 0.  1.
         21    1    1    2  502  501  0.16430913246E+02  0.14939842828E+02 -0.18562121261E+02  0.28943499435E+02  0.00000000000E+00 0.  1.
<mgrwt>
<rscale>  1 0.30000000E+03</rscale>
<asrwt>0</asrwt>
<pdfrwt beam="1">  1        3 0.11053001E+00 0.30000000E+03</pdfrwt>
<pdfrwt beam="2">0</pdfrwt>
<totfact> 0.29719827E+00</totfact>
</mgrwt>
</event>
<event>
 6    1  0.1950139E-004  0.3000000E+03  0.7818608E-02  0.1093470E+00
          1   -1    0    0  502    0  0.00000000000E+00  0.00000000000E+00  0.29155523847E+02  0.29155523847E+02  0.00000000000E+00 0.  1.
         13   -1    0    0    0    0 -0.00000000000E+00 -0.00000000000E+00 -0.10000000000E+04  0.10000000000E+04  0.00000000000E+00 0.  1.
    9000005    2    1    2  501    0  0.97181300273E+01 -0.98534155878E+01 -0.93010669862E+03  0.98613113113E+03  0.32736005426E+03 0.  0.
         13    1    3    3    0    0  0.16820358414E+03  0.39783417783E+01 -0.45647511110E+03  0.48649542647E+03  0.00000000000E+00 0.  1.
          3    1    3    3  501    0 -0.15848545412E+03 -0.13831757366E+02 -0.47363158752E+03  0.49963570466E+03  0.00000000000E+00 0.  1.
         21    1    1    2  502  501 -0.97181300273E+01  0.98534155878E+01 -0.40737777536E+02  0.43024392715E+02  0.00000000000E+00 0.  1.
<mgrwt>
<rscale>  1 0.30000000E+03</rscale>
<asrwt>0</asrwt>
<pdfrwt beam="1">  1        1 0.10602031E+00 0.30000000E+03</pdfrwt>
<pdfrwt beam="2">0</pdfrwt>
<totfact> 0.31397773E+01</totfact>
</mgrwt>
</event>
<event>
 6    1  0.1950139E-004  0.3000000E+03  0.7818608E-02  0.1093470E+00
          1   -1    0    0  502    0  0.00000000000E+00  0.00000000000E+00  0.37355700417E+02  0.37355700417E+02  0.00000000000E+00 0.  1.
         13   -1    0    0    0    0 -0.00000000000E+00 -0.00000000000E+00 -0.10000000000E+04  0.10000000000E+04  0.00000000000E+00 0.  1.
    9000005    2    1    2  501    0 -0.41354168943E+02  0.40853154391E+02 -0.78898941982E+03  0.85422961058E+03  0.32221852134E+03 0.  0.
         13    1    3    3    0    0  0.10788357918E+03  0.86590516776E+02 -0.18867940280E+03  0.23395875981E+03  0.00000000000E+00 0.  1.
          3    1    3    3  501    0 -0.14923774812E+03 -0.45737362385E+02 -0.60031001702E+03  0.62027085077E+03  0.00000000000E+00 0.  1.
         21    1    1    2  502  501  0.41354168943E+02 -0.40853154391E+02 -0.17365487976E+03  0.18312608983E+03  0.00000000000E+00 0.  1.
<mgrwt>
<rscale>  1 0.30000000E+03</rscale>
<asrwt>0</asrwt>
<pdfrwt beam="1">  1        1 0.13583920E+00 0.30000000E+03</pdfrwt>
<pdfrwt beam="2">0</pdfrwt>
<totfact> 0.21282187E+01</totfact>
</mgrwt>
</event>
<event>
 6    1  0.1950139E-004  0.3000000E+03  0.7818608E-02  0.1093470E+00
          1   -1    0    0  502    0  0.00000000000E+00  0.00000000000E+00  0.40293196908E+02  0.40293196908E+02  0.00000000000E+00 0.  1.
         13   -1    0    0    0    0 -0.00000000000E+00 -0.00000000000E+00 -0.10000000000E+04  0.10000000000E+04  0.00000000000E+00 0.  1.
    9000005    2    1    2  501    0 -0.42115568676E+01 -0.31828023419E+02 -0.96234981894E+03  0.10080791345E+04  0.29845536861E+03 0.  0.
         13    1    3    3    0    0 -0.12614832789E+03  0.62320564215E+02 -0.55542330913E+03  0.57296797963E+03  0.00000000000E+00 0.  1.
          3    1    3    3  501    0  0.12193677102E+03 -0.94148587634E+02 -0.40692650981E+03  0.43511115484E+03  0.00000000000E+00 0.  1.
         21    1    1    2  502  501  0.42115568676E+01  0.31828023419E+02  0.26430158505E+01  0.32214062438E+02  0.00000000000E+00 0.  1.
<mgrwt>
<rscale>  1 0.30000000E+03</rscale>
<asrwt>0</asrwt>
<pdfrwt beam="1">  1        1 0.14652103E+00 0.30000000E+03</pdfrwt>
<pdfrwt beam="2">0</pdfrwt>
<totfact> 0.18715655E+01</totfact>
</mgrwt>
</event>
<event>
 6    1  0.1950139E-004  0.3000000E+03  0.7818608E-02  0.1093470E+00
          1   -1    0    0  502    0  0.00000000000E+00  0.00000000000E+00  0.34647230548E+02  0.34647230548E+02  0.00000000000E+00 0.  1.
         13   -1    0    0    0    0 -0.00000000000E+00 -0.00000000000E+00 -0.10000000000E+04  0.10000000000E+04  0.00000000000E+00 0.  1.
    9000005    2    1    2  501    0 -0.13695465450E+02 -0.40525769418E+01 -0.96749728483E+03  0.10202046511E+04  0.32336132251E+03 0.  0.
         13    1    3    3    0    0 -0.11049868298E+03 -0.11767595223E+03 -0.64411480082E+03  0.66403423504E+03  0.00000000000E+00 0.  1.
          1    1    3    3  501    0  0.96803217533E+02  0.11362337529E+03 -0.32338248401E+03  0.35617041609E+03  0.00000000000E+00 0.  1.
         21    1    1    2  502  501  0.13695465450E+02  0.40525769418E+01  0.21445153778E+01  0.14442579409E+02  0.00000000000E+00 0.  1.
<mgrwt>
<rscale>  1 0.30000000E+03</rscale>
<asrwt>0</asrwt>
<pdfrwt beam="1">  1        1 0.12599019E+00 0.30000000E+03</pdfrwt>
<pdfrwt beam="2">0</pdfrwt>
<totfact> 0.24068335E+01</totfact>
</mgrwt>
</event>
<event>
 6    1  0.1950139E-004  0.3000000E+03  0.7818608E-02  0.1093470E+00
          1   -1    0    0  502    0  0.00000000000E+00  0.00000000000E+00  0.33584309878E+02  0.33584309878E+02  0.00000000000E+00 0.  1.
         13   -1    0    0    0    0 -0.00000000000E+00 -0.00000000000E+00 -0.10000000000E+04  0.10000000000E+04  0.00000000000E+00 0.  1.
    9000005    2    1    2  501    0  0.14854616671E+02 -0.24759289649E+01 -0.96042834719E+03  0.10173781957E+04  0.33527450422E+03 0.  0.
         13    1    3    3    0    0 -0.84313199948E+02 -0.97586542046E+02 -0.77998168671E+03  0.79057148980E+03  0.00000000000E+00 0.  1.
          3    1    3    3  501    0  0.99167816619E+02  0.95110613081E+02 -0.18044666048E+03  0.22680670593E+03  0.00000000000E+00 0.  1.
         21    1    1    2  502  501 -0.14854616671E+02  0.24759289649E+01 -0.59873429293E+01  0.16206114156E+02  0.00000000000E+00 0. -1.
<mgrwt>
<rscale>  1 0.30000000E+03</rscale>
<asrwt>0</asrwt>
<pdfrwt beam="1">  1        1 0.12212502E+00 0.30000000E+03</pdfrwt>
<pdfrwt beam="2">0</pdfrwt>
<totfact> 0.25289858E+01</totfact>
</mgrwt>
</event>
<event>
 6    1  0.1950139E-004  0.3000000E+03  0.7818608E-02  0.1093470E+00
          1   -1    0    0  502    0  0.00000000000E+00  0.00000000000E+00  0.41309920248E+02  0.41309920248E+02  0.00000000000E+00 0.  1.
         13   -1    0    0    0    0 -0.00000000000E+00 -0.00000000000E+00 -0.10000000000E+04  0.10000000000E+04  0.00000000000E+00 0.  1.
    9000005    2    1    2  501    0 -0.53172488980E+01  0.10045104161E+02 -0.96966480188E+03  0.10255104969E+04  0.33360571628E+03 0.  0.
         13    1    3    3    0    0 -0.37657473043E+02 -0.41050831080E+02 -0.96307184559E+03  0.96468162405E+03  0.00000000000E+00 0.  1.
          1    1    3    3  501    0  0.32340224145E+02  0.51095935241E+02 -0.65929562884E+01  0.60828872820E+02  0.00000000000E+00 0.  1.
         21    1    1    2  502  501  0.53172488980E+01 -0.10045104161E+02  0.10974722124E+02  0.15799423381E+02  0.00000000000E+00 0. -1.
<mgrwt>
<rscale>  1 0.30000000E+03</rscale>
<asrwt>0</asrwt>
<pdfrwt beam="1">  1        1 0.15021821E+00 0.30000000E+03</pdfrwt>
<pdfrwt beam="2">0</pdfrwt>
<totfact> 0.17919130E+01</totfact>
</mgrwt>
</event>
<event>
 6    1  0.1950139E-004  0.3000000E+03  0.7818608E-02  0.1093470E+00
          3   -1    0    0  502    0  0.00000000000E+00  0.00000000000E+00  0.39732498393E+02  0.39732498393E+02  0.00000000000E+00 0.  1.
         13   -1    0    0    0    0 -0.00000000000E+00 -0.00000000000E+00 -0.10000000000E+04  0.10000000000E+04  0.00000000000E+00 0.  1.
    9000005    2    1    2  501    0  0.37896083257E+02 -0.18297353812E+02 -0.93080057589E+03  0.98835929532E+03  0.32968693981E+03 0.  0.
         13    1    3    3    0    0  0.59160495538E+02 -0.11984944225E+03 -0.83974633469E+03  0.85031627038E+03  0.00000000000E+00 0.  1.
          3    1    3    3  501    0 -0.21264412281E+02  0.10155208843E+03 -0.91054241201E+02  0.13804302494E+03  0.00000000000E+00 0.  1.
         21    1    1    2  502  501 -0.37896083257E+02  0.18297353812E+02 -0.29466925714E+02  0.51373203071E+02  0.00000000000E+00 0.  1.
<mgrwt>
<rscale>  1 0.30000000E+03</rscale>
<asrwt>0</asrwt>
<pdfrwt beam="1">  1        3 0.14448212E+00 0.30000000E+03</pdfrwt>
<pdfrwt beam="2">0</pdfrwt>
<totfact> 0.11733172E+00</totfact>
</mgrwt>
</event>
<event>
 6    1  0.1950139E-004  0.3000000E+03  0.7818608E-02  0.1093470E+00
          1   -1    0    0  502    0  0.00000000000E+00  0.00000000000E+00  0.37103381640E+02  0.37103381640E+02  0.00000000000E+00 0.  1.
         13   -1    0    0    0    0 -0.00000000000E+00 -0.00000000000E+00 -0.10000000000E+04  0.10000000000E+04  0.00000000000E+00 0.  1.
    9000005    2    1    2  501    0 -0.22316341480E+02  0.36941229739E+01 -0.96166982056E+03  0.10144501109E+04  0.32216225435E+03 0.  0.
         13    1    3    3    0    0 -0.17022790867E+03  0.46189589613E+01 -0.42719077139E+03  0.45988132255E+03  0.00000000000E+00 0.  1.
          3    1    3    3  501    0  0.14791156719E+03 -0.92483598738E+00 -0.53447904917E+03  0.55456878836E+03  0.00000000000E+00 0.  1.
         21    1    1    2  502  501  0.22316341480E+02 -0.36941229739E+01 -0.12267978025E+01  0.22653270723E+02  0.00000000000E+00 0.  1.
<mgrwt>
<rscale>  1 0.30000000E+03</rscale>
<asrwt>0</asrwt>
<pdfrwt beam="1">  1        1 0.13492167E+00 0.30000000E+03</pdfrwt>
<pdfrwt beam="2">0</pdfrwt>
<totfact> 0.21523229E+01</totfact>
</mgrwt>
</event>
<event>
 6    1  0.1950139E-004  0.3000000E+03  0.7818608E-02  0.1093470E+00
          1   -1    0    0  502    0  0.00000000000E+00  0.00000000000E+00  0.30011675173E+02  0.30011675173E+02  0.00000000000E+00 0.  1.
         13   -1    0    0    0    0 -0.00000000000E+00 -0.00000000000E+00 -0.10000000000E+04  0.10000000000E+04  0.00000000000E+00 0.  1.
    9000005    2    1    2  501    0 -0.19402649407E+02  0.27082123295E+01 -0.90169057836E+03  0.95895972664E+03  0.32584361432E+03 0.  0.
         13    1    3    3    0    0 -0.17086889863E+03  0.13249218886E+02 -0.41054398082E+03  0.44487985176E+03  0.00000000000E+00 0.  1.
          3    1    3    3  501    0  0.15146624922E+03 -0.10541006556E+02 -0.49114659754E+03  0.51407987487E+03  0.00000000000E+00 0.  1.
         21    1    1    2  502  501  0.19402649407E+02 -0.27082123295E+01 -0.68297746467E+02  0.71051948534E+02  0.00000000000E+00 0. -1.
<mgrwt>
<rscale>  1 0.30000000E+03</rscale>
<asrwt>0</asrwt>
<pdfrwt beam="1">  1        1 0.10913359E+00 0.30000000E+03</pdfrwt>
<pdfrwt beam="2">0</pdfrwt>
<totfact> 0.30065920E+01</totfact>
</mgrwt>
</event>
<event>
 6    1  0.1950139E-004  0.3000000E+03  0.7818608E-02  0.1093470E+00
          1   -1    0    0  502    0  0.00000000000E+00  0.00000000000E+00  0.29536152084E+02  0.29536152084E+02  0.00000000000E+00 0.  1.
         13   -1    0    0    0    0 -0.00000000000E+00 -0.00000000000E+00 -0.10000000000E+04  0.10000000000E+04  0.00000000000E+00 0.  1.
    9000005    2    1    2  501    0  0.58910815149E+01  0.21650543125E+02 -0.94957410581E+03  0.99887946955E+03  0.30913712393E+03 0.  0.
         13    1    3    3    0    0  0.79099305527E+02  0.10239981239E+03 -0.18031308277E+03  0.22193519219E+03  0.00000000000E+00 0.  1.
          3    1    3    3  501    0 -0.73208224012E+02 -0.80749269268E+02 -0.76926102304E+03  0.77694427736E+03  0.00000000000E+00 0.  1.
         21    1    1    2  502  501 -0.58910815149E+01 -0.21650543125E+02 -0.20889742103E+02  0.30656682536E+02  0.00000000000E+00 0. -1.
<mgrwt>
<rscale>  1 0.30000000E+03</rscale>
<asrwt>0</asrwt>
<pdfrwt beam="1">  1        1 0.10740442E+00 0.30000000E+03</pdfrwt>
<pdfrwt beam="2">0</pdfrwt>
<totfact> 0.30795427E+01</totfact>
</mgrwt>
</event>
<event>
 6    1  0.1950139E-004  0.3000000E+03  0.7818608E-02  0.1093470E+00
          1   -1    0    0  502    0  0.00000000000E+00  0.00000000000E+00  0.39435706174E+02  0.39435706174E+02  0.00000000000E+00 0.  1.
         13   -1    0    0    0    0 -0.00000000000E+00 -0.00000000000E+00 -0.10000000000E+04  0.10000000000E+04  0.00000000000E+00 0.  1.
    9000005    2    1    2  501    0  0.30209653211E+02  0.15827969304E+02 -0.95483650326E+03  0.10048531189E+04  0.31121358390E+03 0.  0.
         13    1    3    3    0    0  0.12875158680E+03 -0.31933173463E+02 -0.82229547805E+03  0.83292649849E+03  0.00000000000E+00 0.  1.
          3    1    3    3  501    0 -0.98541933588E+02  0.47761142767E+02 -0.13254102521E+03  0.17192662039E+03  0.00000000000E+00 0.  1.
         21    1    1    2  502  501 -0.30209653211E+02 -0.15827969304E+02 -0.57277905687E+01  0.34582587297E+02  0.00000000000E+00 0. -1.
<mgrwt>
<rscale>  1 0.30000000E+03</rscale>
<asrwt>0</asrwt>
<pdfrwt beam="1">  1        1 0.14340287E+00 0.30000000E+03</pdfrwt>
<pdfrwt beam="2">0</pdfrwt>
<totfact> 0.19422216E+01</totfact>
</mgrwt>
</event>
<event>
 6    1  0.1950139E-004  0.3000000E+03  0.7818608E-02  0.1093470E+00
          1   -1    0    0  502    0  0.00000000000E+00  0.00000000000E+00  0.29525947440E+02  0.29525947440E+02  0.00000000000E+00 0.  1.
         13   -1    0    0    0    0 -0.00000000000E+00 -0.00000000000E+00 -0.10000000000E+04  0.10000000000E+04  0.00000000000E+00 0.  1.
    9000005    2    1    2  501    0  0.46473111997E+00  0.10600245417E+02 -0.96052180971E+03  0.10149784970E+04  0.32782102003E+03 0.  0.
         13    1    3    3    0    0 -0.42769530513E+02  0.57649885481E+02 -0.94693596397E+03  0.94965281124E+03  0.00000000000E+00 0.  1.
          3    1    3    3  501    0  0.43234261633E+02 -0.47049640064E+02 -0.13585845736E+02  0.65325685710E+02  0.00000000000E+00 0.  1.
         21    1    1    2  502  501 -0.46473111997E+00 -0.10600245417E+02 -0.99522428536E+01  0.14547450489E+02  0.00000000000E+00 0. -1.
<mgrwt>
<rscale>  1 0.30000000E+03</rscale>
<asrwt>0</asrwt>
<pdfrwt beam="1">  1        1 0.10736731E+00 0.30000000E+03</pdfrwt>
<pdfrwt beam="2">0</pdfrwt>
<totfact> 0.30811358E+01</totfact>
</mgrwt>
</event>
<event>
 6    1  0.1950139E-004  0.3000000E+03  0.7818608E-02  0.1093470E+00
          1   -1    0    0  502    0  0.00000000000E+00  0.00000000000E+00  0.37951469091E+02  0.37951469091E+02  0.00000000000E+00 0.  1.
         13   -1    0    0    0    0 -0.00000000000E+00 -0.00000000000E+00 -0.10000000000E+04  0.10000000000E+04  0.00000000000E+00 0.  1.
    9000005    2    1    2  501    0 -0.10261004453E+02  0.13302449552E+02 -0.94475923155E+03  0.10138441414E+04  0.36746114633E+03 0.  0.
         13    1    3    3    0    0 -0.87464683866E+02  0.16928626237E+03 -0.42616883303E+03  0.46682735973E+03  0.00000000000E+00 0.  1.
          1    1    3    3  501    0  0.77203679413E+02 -0.15598381282E+03 -0.51859039852E+03  0.54701678166E+03  0.00000000000E+00 0.  1.
         21    1    1    2  502  501  0.10261004453E+02 -0.13302449552E+02 -0.17289299361E+02  0.24107327700E+02  0.00000000000E+00 0.  1.
<mgrwt>
<rscale>  1 0.30000000E+03</rscale>
<asrwt>0</asrwt>
<pdfrwt beam="1">  1        1 0.13800563E+00 0.30000000E+03</pdfrwt>
<pdfrwt beam="2">0</pdfrwt>
<totfact> 0.20727003E+01</totfact>
</mgrwt>
</event>
<event>
 6    1  0.1950139E-004  0.3000000E+03  0.7818608E-02  0.1093470E+00
          1   -1    0    0  502    0  0.00000000000E+00  0.00000000000E+00  0.40591431360E+02  0.40591431360E+02  0.00000000000E+00 0.  1.
         13   -1    0    0    0    0 -0.00000000000E+00 -0.00000000000E+00 -0.10000000000E+04  0.10000000000E+04  0.00000000000E+00 0.  1.
    9000005    2    1    2  501    0 -0.93015504700E+01  0.78821292943E+01 -0.97202568539E+03  0.10230461061E+04  0.31881147306E+03 0.  0.
         13    1    3    3    0    0  0.10579206978E+03 -0.41184764966E+02 -0.81208472901E+03  0.81998155710E+03  0.00000000000E+00 0.  1.
          1    1    3    3  501    0 -0.11509362025E+03  0.49066894260E+02 -0.15994095637E+03  0.20306454900E+03  0.00000000000E+00 0.  1.
         21    1    1    2  502  501  0.93015504700E+01 -0.78821292943E+01  0.12617116749E+02  0.17545325258E+02  0.00000000000E+00 0.  1.
<mgrwt>
<rscale>  1 0.30000000E+03</rscale>
<asrwt>0</asrwt>
<pdfrwt beam="1">  1        1 0.14760552E+00 0.30000000E+03</pdfrwt>
<pdfrwt beam="2">0</pdfrwt>
<totfact> 0.18477506E+01</totfact>
</mgrwt>
</event>
<event>
 6    1  0.1950139E-004  0.3000000E+03  0.7818608E-02  0.1093470E+00
          1   -1    0    0  502    0  0.00000000000E+00  0.00000000000E+00  0.91995705547E+01  0.91995705547E+01  0.00000000000E+00 0.  1.
         13   -1    0    0    0    0 -0.00000000000E+00 -0.00000000000E+00 -0.10000000000E+04  0.10000000000E+04  0.00000000000E+00 0.  1.
    9000005    2    1    2  501    0  0.42489838993E+01  0.77174458731E+01 -0.91157481977E+03  0.92948564414E+03  0.18137612247E+03 0.  0.
         13    1    3    3    0    0 -0.48337594511E+02  0.79228764253E+02 -0.45999406705E+03  0.46926353134E+03  0.00000000000E+00 0.  1.
          1    1    3    3  501    0  0.52586578410E+02 -0.71511318380E+02 -0.45158075272E+03  0.46022211280E+03  0.00000000000E+00 0.  1.
         21    1    1    2  502  501 -0.42489838993E+01 -0.77174458731E+01 -0.79225609678E+02  0.79713926411E+02  0.00000000000E+00 0. -1.
<mgrwt>
<rscale>  1 0.30000000E+03</rscale>
<asrwt>0</asrwt>
<pdfrwt beam="1">  1        1 0.33453054E-01 0.30000000E+03</pdfrwt>
<pdfrwt beam="2">0</pdfrwt>
<totfact> 0.14929473E+02</totfact>
</mgrwt>
</event>
<event>
 6    1  0.1950139E-004  0.3000000E+03  0.7818608E-02  0.1093470E+00
          1   -1    0    0  502    0  0.00000000000E+00  0.00000000000E+00  0.54305785507E+02  0.54305785507E+02  0.00000000000E+00 0.  1.
         13   -1    0    0    0    0 -0.00000000000E+00 -0.00000000000E+00 -0.10000000000E+04  0.10000000000E+04  0.00000000000E+00 0.  1.
    9000005    2    1    2  501    0  0.10304104993E+02  0.66012871295E+01 -0.97004887734E+03  0.10270495720E+04  0.33717391266E+03 0.  0.
         13    1    3    3    0    0 -0.92117956577E+02 -0.59824413234E+01 -0.89427022101E+03  0.89902209968E+03  0.00000000000E+00 0.  1.
          1    1    3    3  501    0  0.10242206157E+03  0.12583728453E+02 -0.75778656332E+02  0.12802747234E+03  0.00000000000E+00 0.  1.
         21    1    1    2  502  501 -0.10304104993E+02 -0.66012871295E+01  0.24354662847E+02  0.27256213491E+02  0.00000000000E+00 0.  1.
<mgrwt>
<rscale>  1 0.30000000E+03</rscale>
<asrwt>0</asrwt>
<pdfrwt beam="1">  1        1 0.19747600E+00 0.30000000E+03</pdfrwt>
<pdfrwt beam="2">0</pdfrwt>
<totfact> 0.10530558E+01</totfact>
</mgrwt>
</event>
<event>
 6    1  0.1950139E-004  0.3000000E+03  0.7818608E-02  0.1093470E+00
          1   -1    0    0  502    0  0.00000000000E+00  0.00000000000E+00  0.28075002419E+02  0.28075002419E+02  0.00000000000E+00 0.  1.
         13   -1    0    0    0    0 -0.00000000000E+00 -0.00000000000E+00 -0.10000000000E+04  0.10000000000E+04  0.00000000000E+00 0.  1.
    9000005    2    1    2  501    0 -0.14121881776E+02  0.30740766330E+01 -0.94433202671E+03  0.99692617365E+03  0.31920203876E+03 0.  0.
         13    1    3    3    0    0 -0.91146910225E+02  0.20138841208E+02 -0.90309477061E+03  0.90790610576E+03  0.00000000000E+00 0.  1.
          1    1    3    3  501    0  0.77025028449E+02 -0.17064764575E+02 -0.41237256103E+02  0.89020067898E+02  0.00000000000E+00 0.  1.
         21    1    1    2  502  501  0.14121881776E+02 -0.30740766330E+01 -0.27592970870E+02  0.31148828766E+02  0.00000000000E+00 0.  1.
<mgrwt>
<rscale>  1 0.30000000E+03</rscale>
<asrwt>0</asrwt>
<pdfrwt beam="1">  1        1 0.10209113E+00 0.30000000E+03</pdfrwt>
<pdfrwt beam="2">0</pdfrwt>
<totfact> 0.33203533E+01</totfact>
</mgrwt>
</event>
<event>
 6    1  0.1950139E-004  0.3000000E+03  0.7818608E-02  0.1093470E+00
          1   -1    0    0  502    0  0.00000000000E+00  0.00000000000E+00  0.35334908769E+02  0.35334908769E+02  0.00000000000E+00 0.  1.
         13   -1    0    0    0    0 -0.00000000000E+00 -0.00000000000E+00 -0.10000000000E+04  0.10000000000E+04  0.00000000000E+00 0.  1.
    9000005    2    1    2  501    0 -0.11283143518E+02 -0.16848775361E+02 -0.96101934535E+03  0.10147319473E+04  0.32513312990E+03 0.  0.
         13    1    3    3    0    0 -0.14293743474E+03 -0.90664290873E+02 -0.41387286123E+03  0.44714859852E+03  0.00000000000E+00 0.  1.
          3    1    3    3  501    0  0.13165429122E+03  0.73815515512E+02 -0.54714648411E+03  0.56758334877E+03  0.00000000000E+00 0.  1.
         21    1    1    2  502  501  0.11283143518E+02  0.16848775361E+02 -0.36457458860E+01  0.20602961483E+02  0.00000000000E+00 0.  1.
<mgrwt>
<rscale>  1 0.30000000E+03</rscale>
<asrwt>0</asrwt>
<pdfrwt beam="1">  1        1 0.12849085E+00 0.30000000E+03</pdfrwt>
<pdfrwt beam="2">0</pdfrwt>
<totfact> 0.23318043E+01</totfact>
</mgrwt>
</event>
<event>
 6    1  0.1950139E-004  0.3000000E+03  0.7818608E-02  0.1093470E+00
          1   -1    0    0  502    0  0.00000000000E+00  0.00000000000E+00  0.58686447933E+02  0.58686447933E+02  0.00000000000E+00 0.  1.
         13   -1    0    0    0    0 -0.00000000000E+00 -0.00000000000E+00 -0.10000000000E+04  0.10000000000E+04  0.00000000000E+00 0.  1.
    9000005    2    1    2  501    0  0.18242435466E+02  0.77418128765E+01 -0.97718836477E+03  0.10177020081E+04  0.28359752292E+03 0.  0.
         13    1    3    3    0    0 -0.90439984879E+02 -0.85607149465E+02 -0.28784968263E+03  0.31363261102E+03  0.00000000000E+00 0.  1.
          1    1    3    3  501    0  0.10868242034E+03  0.93348962342E+02 -0.68933868214E+03  0.70406939712E+03  0.00000000000E+00 0.  1.
         21    1    1    2  502  501 -0.18242435466E+02 -0.77418128765E+01  0.35874812708E+02  0.40984439793E+02  0.00000000000E+00 0.  1.
<mgrwt>
<rscale>  1 0.30000000E+03</rscale>
<asrwt>0</asrwt>
<pdfrwt beam="1">  1        1 0.21340572E+00 0.30000000E+03</pdfrwt>
<pdfrwt beam="2">0</pdfrwt>
<totfact> 0.88523961E+00</totfact>
</mgrwt>
</event>
<event>
 6    1  0.1950139E-004  0.3000000E+03  0.7818608E-02  0.1093470E+00
          1   -1    0    0  502    0  0.00000000000E+00  0.00000000000E+00  0.59009809851E+02  0.59009809851E+02  0.00000000000E+00 0.  1.
         13   -1    0    0    0    0 -0.00000000000E+00 -0.00000000000E+00 -0.10000000000E+04  0.10000000000E+04  0.00000000000E+00 0.  1.
    9000005    2    1    2  501    0  0.13582313374E+03 -0.16719473978E+02 -0.72463679742E+03  0.80300931178E+03  0.31780182844E+03 0.  0.
         13    1    3    3    0    0 -0.54571141883E+02  0.49942710539E+02 -0.30261844818E+02  0.79925359643E+02  0.00000000000E+00 0.  1.
          1    1    3    3  501    0  0.19039427562E+03 -0.66662184517E+02 -0.69437495261E+03  0.72308395214E+03  0.00000000000E+00 0.  1.
         21    1    1    2  502  501 -0.13582313374E+03  0.16719473978E+02 -0.21635339272E+03  0.25600049807E+03  0.00000000000E+00 0.  1.
<mgrwt>
<rscale>  1 0.30000000E+03</rscale>
<asrwt>0</asrwt>
<pdfrwt beam="1">  1        1 0.21458158E+00 0.30000000E+03</pdfrwt>
<pdfrwt beam="2">0</pdfrwt>
<totfact> 0.87404251E+00</totfact>
</mgrwt>
</event>
<event>
 6    1  0.1950139E-004  0.3000000E+03  0.7818608E-02  0.1093470E+00
          1   -1    0    0  502    0  0.00000000000E+00  0.00000000000E+00  0.27238620017E+02  0.27238620017E+02  0.00000000000E+00 0.  1.
         13   -1    0    0    0    0 -0.00000000000E+00 -0.00000000000E+00 -0.10000000000E+04  0.10000000000E+04  0.00000000000E+00 0.  1.
    9000005    2    1    2  501    0 -0.57702107599E+01 -0.99229857907E+01 -0.95126057561E+03  0.10028655700E+04  0.31734981924E+03 0.  0.
         13    1    3    3    0    0 -0.68564282988E+02 -0.14796021760E+03 -0.55938893427E+03  0.58267423719E+03  0.00000000000E+00 0.  1.
          1    1    3    3  501    0  0.62794072228E+02  0.13803723181E+03 -0.39187164133E+03  0.42019133279E+03  0.00000000000E+00 0.  1.
         21    1    1    2  502  501  0.57702107599E+01  0.99229857907E+01 -0.21500804376E+02  0.24373050035E+02  0.00000000000E+00 0.  1.
<mgrwt>
<rscale>  1 0.30000000E+03</rscale>
<asrwt>0</asrwt>
<pdfrwt beam="1">  1        1 0.99049736E-01 0.30000000E+03</pdfrwt>
<pdfrwt beam="2">0</pdfrwt>
<totfact> 0.34707408E+01</totfact>
</mgrwt>
</event>
<event>
 6    1  0.1950139E-004  0.3000000E+03  0.7818608E-02  0.1093470E+00
          3   -1    0    0  502    0  0.00000000000E+00  0.00000000000E+00  0.23016000567E+02  0.23016000567E+02  0.00000000000E+00 0.  1.
         13   -1    0    0    0    0 -0.00000000000E+00 -0.00000000000E+00 -0.10000000000E+04  0.10000000000E+04  0.00000000000E+00 0.  1.
    9000005    2    1    2  501    0  0.55629842718E+01  0.15427736170E+02 -0.96203773824E+03  0.10008269816E+04  0.27544341623E+03 0.  0.
         13    1    3    3    0    0  0.51672239114E+02 -0.14600798766E+02 -0.20178534290E+02  0.57361806682E+02  0.00000000000E+00 0.  1.
          1    1    3    3  501    0 -0.46109254843E+02  0.30028534937E+02 -0.94185920395E+03  0.94346517496E+03  0.00000000000E+00 0.  1.
         21    1    1    2  502  501 -0.55629842718E+01 -0.15427736170E+02 -0.14946261193E+02  0.22189018929E+02  0.00000000000E+00 0.  1.
<mgrwt>
<rscale>  1 0.30000000E+03</rscale>
<asrwt>0</asrwt>
<pdfrwt beam="1">  1        3 0.83694724E-01 0.30000000E+03</pdfrwt>
<pdfrwt beam="2">0</pdfrwt>
<totfact> 0.60501919E+00</totfact>
</mgrwt>
</event>
<event>
 6    1  0.1950139E-004  0.3000000E+03  0.7818608E-02  0.1093470E+00
          1   -1    0    0  502    0  0.00000000000E+00  0.00000000000E+00  0.36204446240E+02  0.36204446240E+02  0.00000000000E+00 0.  1.
         13   -1    0    0    0    0 -0.00000000000E+00 -0.00000000000E+00 -0.10000000000E+04  0.10000000000E+04  0.00000000000E+00 0.  1.
    9000005    2    1    2  501    0  0.11884338271E+02 -0.37184176705E+01 -0.97246057118E+03  0.10210338611E+04  0.31092687070E+03 0.  0.
         13    1    3    3    0    0 -0.99127243907E+02  0.73688565937E+02 -0.18773258170E+03  0.22472146642E+03  0.00000000000E+00 0.  1.
          3    1    3    3  501    0  0.11101158218E+03 -0.77406983608E+02 -0.78472798947E+03  0.79631239470E+03  0.00000000000E+00 0.  1.
         21    1    1    2  502  501 -0.11884338271E+02  0.37184176705E+01  0.86650174186E+01  0.15170585123E+02  0.00000000000E+00 0. -1.
<mgrwt>
<rscale>  1 0.30000000E+03</rscale>
<asrwt>0</asrwt>
<pdfrwt beam="1">  1        1 0.13165281E+00 0.30000000E+03</pdfrwt>
<pdfrwt beam="2">0</pdfrwt>
<totfact> 0.22412004E+01</totfact>
</mgrwt>
</event>
<event>
 6    1  0.1950139E-004  0.3000000E+03  0.7818608E-02  0.1093470E+00
          1   -1    0    0  502    0  0.00000000000E+00  0.00000000000E+00  0.37551041845E+02  0.37551041845E+02  0.00000000000E+00 0.  1.
         13   -1    0    0    0    0 -0.00000000000E+00 -0.00000000000E+00 -0.10000000000E+04  0.10000000000E+04  0.00000000000E+00 0.  1.
    9000005    2    1    2  501    0 -0.14640766737E+02  0.10864496730E+02 -0.96696877170E+03  0.10187675902E+04  0.32019745178E+03 0.  0.
         13    1    3    3    0    0 -0.16290512002E+03  0.38902692883E+02 -0.56962996487E+03  0.59374219533E+03  0.00000000000E+00 0.  1.
          1    1    3    3  501    0  0.14826435328E+03 -0.28038196154E+02 -0.39733880684E+03  0.42502539491E+03  0.00000000000E+00 0.  1.
         21    1    1    2  502  501  0.14640766737E+02 -0.10864496730E+02  0.45198135484E+01  0.18783451609E+02  0.00000000000E+00 0.  1.
<mgrwt>
<rscale>  1 0.30000000E+03</rscale>
<asrwt>0</asrwt>
<pdfrwt beam="1">  1        1 0.13654953E+00 0.30000000E+03</pdfrwt>
<pdfrwt beam="2">0</pdfrwt>
<totfact> 0.21098048E+01</totfact>
</mgrwt>
</event>
<event>
 6    1  0.1950139E-004  0.3000000E+03  0.7818608E-02  0.1093470E+00
          1   -1    0    0  502    0  0.00000000000E+00  0.00000000000E+00  0.48223849638E+02  0.48223849638E+02  0.00000000000E+00 0.  1.
         13   -1    0    0    0    0 -0.00000000000E+00 -0.00000000000E+00 -0.10000000000E+04  0.10000000000E+04  0.00000000000E+00 0.  1.
    9000005    2    1    2  501    0 -0.45278508558E+02 -0.59262256500E+02 -0.88293290584E+03  0.94672729453E+03  0.33340650205E+03 0.  0.
         13    1    3    3    0    0 -0.16853418372E+02  0.13305709034E+03 -0.23868545183E+03  0.27378636181E+03  0.00000000000E+00 0.  1.
          1    1    3    3  501    0 -0.28425090187E+02 -0.19231934684E+03 -0.64424745401E+03  0.67294093271E+03  0.00000000000E+00 0.  1.
         21    1    1    2  502  501  0.45278508558E+02  0.59262256500E+02 -0.68843244526E+02  0.10149655511E+03  0.00000000000E+00 0.  1.
<mgrwt>
<rscale>  1 0.30000000E+03</rscale>
<asrwt>0</asrwt>
<pdfrwt beam="1">  1        1 0.17535982E+00 0.30000000E+03</pdfrwt>
<pdfrwt beam="2">0</pdfrwt>
<totfact> 0.13453575E+01</totfact>
</mgrwt>
</event>
<event>
 6    1  0.1950139E-004  0.3000000E+03  0.7818608E-02  0.1093470E+00
          1   -1    0    0  502    0  0.00000000000E+00  0.00000000000E+00  0.63786524138E+02  0.63786524138E+02  0.00000000000E+00 0.  1.
         13   -1    0    0    0    0 -0.00000000000E+00 -0.00000000000E+00 -0.10000000000E+04  0.10000000000E+04  0.00000000000E+00 0.  1.
    9000005    2    1    2  501    0  0.20131796764E+02  0.15199935399E+02 -0.96754805915E+03  0.10235598739E+04  0.33300036257E+03 0.  0.
         13    1    3    3    0    0  0.64278717355E+02  0.80278163310E+02 -0.74339886896E+02  0.12689663429E+03  0.00000000000E+00 0.  1.
          3    1    3    3  501    0 -0.44146920591E+02 -0.65078227911E+02 -0.89320817226E+03  0.89666323964E+03  0.00000000000E+00 0.  1.
         21    1    1    2  502  501 -0.20131796764E+02 -0.15199935399E+02  0.31334583289E+02  0.40226650208E+02  0.00000000000E+00 0.  1.
<mgrwt>
<rscale>  1 0.30000000E+03</rscale>
<asrwt>0</asrwt>
<pdfrwt beam="1">  1        1 0.23195149E+00 0.30000000E+03</pdfrwt>
<pdfrwt beam="2">0</pdfrwt>
<totfact> 0.72463926E+00</totfact>
</mgrwt>
</event>
<event>
 6    1  0.1950139E-004  0.3000000E+03  0.7818608E-02  0.1093470E+00
          1   -1    0    0  502    0  0.00000000000E+00  0.00000000000E+00  0.49267621098E+02  0.49267621098E+02  0.00000000000E+00 0.  1.
         13   -1    0    0    0    0 -0.00000000000E+00 -0.00000000000E+00 -0.10000000000E+04  0.10000000000E+04  0.00000000000E+00 0.  1.
    9000005    2    1    2  501    0 -0.40230869059E+02  0.91780847205E+01 -0.95367856135E+03  0.10078980664E+04  0.32350108781E+03 0.  0.
         13    1    3    3    0    0 -0.10255306374E+03  0.13062321595E+03 -0.32970278288E+03  0.36916592539E+03  0.00000000000E+00 0.  1.
          3    1    3    3  501    0  0.62322194677E+02 -0.12144513123E+03 -0.62397577847E+03  0.63873214102E+03  0.00000000000E+00 0.  1.
         21    1    1    2  502  501  0.40230869059E+02 -0.91780847205E+01  0.29461824507E+01  0.41369554692E+02  0.00000000000E+00 0. -1.
<mgrwt>
<rscale>  1 0.30000000E+03</rscale>
<asrwt>0</asrwt>
<pdfrwt beam="1">  1        1 0.17915536E+00 0.30000000E+03</pdfrwt>
<pdfrwt beam="2">0</pdfrwt>
<totfact> 0.12895239E+01</totfact>
</mgrwt>
</event>
<event>
 6    1  0.1950139E-004  0.3000000E+03  0.7818608E-02  0.1093470E+00
          1   -1    0    0  502    0  0.00000000000E+00  0.00000000000E+00  0.36474527702E+02  0.36474527702E+02  0.00000000000E+00 0.  1.
         13   -1    0    0    0    0 -0.00000000000E+00 -0.00000000000E+00 -0.10000000000E+04  0.10000000000E+04  0.00000000000E+00 0.  1.
    9000005    2    1    2  501    0  0.91866993644E+01  0.12788788247E+02 -0.96813940260E+03  0.10200660877E+04  0.32092518114E+03 0.  0.
         13    1    3    3    0    0 -0.37947007989E+02  0.13480987352E+03 -0.77006682613E+03  0.78269827783E+03  0.00000000000E+00 0.  1.
          1    1    3    3  501    0  0.47133707353E+02 -0.12202108527E+03 -0.19807257647E+03  0.23736780988E+03  0.00000000000E+00 0.  1.
         21    1    1    2  502  501 -0.91866993644E+01 -0.12788788247E+02  0.46139303012E+01  0.16408439989E+02  0.00000000000E+00 0.  1.
<mgrwt>
<rscale>  1 0.30000000E+03</rscale>
<asrwt>0</asrwt>
<pdfrwt beam="1">  1        1 0.13263493E+00 0.30000000E+03</pdfrwt>
<pdfrwt beam="2">0</pdfrwt>
<totfact> 0.22139967E+01</totfact>
</mgrwt>
</event>
<event>
 6    1  0.1950139E-004  0.3000000E+03  0.7818608E-02  0.1093470E+00
          1   -1    0    0  502    0  0.00000000000E+00  0.00000000000E+00  0.45168934345E+02  0.45168934345E+02  0.00000000000E+00 0.  1.
         13   -1    0    0    0    0 -0.00000000000E+00 -0.00000000000E+00 -0.10000000000E+04  0.10000000000E+04  0.00000000000E+00 0.  1.
    9000005    2    1    2  501    0 -0.17863917307E+01  0.12923217851E+02 -0.96860308566E+03  0.10261987132E+04  0.33870586160E+03 0.  0.
         13    1    3    3    0    0 -0.38589659448E+02 -0.18920722665E+02  0.11815385713E+02  0.44573073734E+02  0.00000000000E+00 0.  1.
          3    1    3    3  501    0  0.36803267717E+02  0.31843940516E+02 -0.98041847137E+03  0.98162563947E+03  0.00000000000E+00 0.  1.
         21    1    1    2  502  501  0.17863917307E+01 -0.12923217851E+02  0.13772020004E+02  0.18970221138E+02  0.00000000000E+00 0. -1.
<mgrwt>
<rscale>  1 0.30000000E+03</rscale>
<asrwt>0</asrwt>
<pdfrwt beam="1">  1        1 0.16425102E+00 0.30000000E+03</pdfrwt>
<pdfrwt beam="2">0</pdfrwt>
<totfact> 0.15246325E+01</totfact>
</mgrwt>
</event>
<event>
 6    1  0.1950139E-004  0.3000000E+03  0.7818608E-02  0.1093470E+00
          1   -1    0    0  502    0  0.00000000000E+00  0.00000000000E+00  0.29569422610E+02  0.29569422610E+02  0.00000000000E+00 0.  1.
         13   -1    0    0    0    0 -0.00000000000E+00 -0.00000000000E+00 -0.10000000000E+04  0.10000000000E+04  0.00000000000E+00 0.  1.
    9000005    2    1    2  501    0  0.28326286129E+01 -0.12531177802E+02 -0.96356113628E+03  0.10150008460E+04  0.31876574458E+03 0.  0.
         13    1    3    3    0    0  0.85157600462E+01 -0.68453806261E+02 -0.22931480631E+02  0.72693153492E+02  0.00000000000E+00 0.  1.
          3    1    3    3  501    0 -0.56831314333E+01  0.55922628459E+02 -0.94062965565E+03  0.94230769255E+03  0.00000000000E+00 0.  1.
         21    1    1    2  502  501 -0.28326286129E+01  0.12531177802E+02 -0.68694411094E+01  0.14568576565E+02  0.00000000000E+00 0. -1.
<mgrwt>
<rscale>  1 0.30000000E+03</rscale>
<asrwt>0</asrwt>
<pdfrwt beam="1">  1        1 0.10752540E+00 0.30000000E+03</pdfrwt>
<pdfrwt beam="2">0</pdfrwt>
<totfact> 0.30743567E+01</totfact>
</mgrwt>
</event>
<event>
 6    1  0.1950139E-004  0.3000000E+03  0.7818608E-02  0.1093470E+00
          1   -1    0    0  502    0  0.00000000000E+00  0.00000000000E+00  0.28547916284E+02  0.28547916284E+02  0.00000000000E+00 0.  1.
         13   -1    0    0    0    0 -0.00000000000E+00 -0.00000000000E+00 -0.10000000000E+04  0.10000000000E+04  0.00000000000E+00 0.  1.
    9000005    2    1    2  501    0 -0.86098352249E+01 -0.15174265623E+02 -0.94561596858E+03  0.99737272670E+03  0.31663608188E+03 0.  0.
         13    1    3    3    0    0  0.47292911114E+02 -0.15259686078E+03 -0.37142687594E+03  0.40432702795E+03  0.00000000000E+00 0.  1.
          3    1    3    3  501    0 -0.55902746338E+02  0.13742259516E+03 -0.57418909264E+03  0.59304569875E+03  0.00000000000E+00 0.  1.
         21    1    1    2  502  501  0.86098352249E+01  0.15174265623E+02 -0.25836115139E+02  0.31175189579E+02  0.00000000000E+00 0. -1.
<mgrwt>
<rscale>  1 0.30000000E+03</rscale>
<asrwt>0</asrwt>
<pdfrwt beam="1">  1        1 0.10381082E+00 0.30000000E+03</pdfrwt>
<pdfrwt beam="2">0</pdfrwt>
<totfact> 0.32395115E+01</totfact>
</mgrwt>
</event>
<event>
 6    1  0.1950139E-004  0.3000000E+03  0.7818608E-02  0.1093470E+00
          1   -1    0    0  502    0  0.00000000000E+00  0.00000000000E+00  0.26381152360E+02  0.26381152360E+02  0.00000000000E+00 0.  1.
         13   -1    0    0    0    0 -0.00000000000E+00 -0.00000000000E+00 -0.10000000000E+04  0.10000000000E+04  0.00000000000E+00 0.  1.
    9000005    2    1    2  501    0 -0.11006667870E+02 -0.74514244621E+01 -0.97704762937E+03  0.10126542806E+04  0.26583820548E+03 0.  0.
         13    1    3    3    0    0  0.87239439992E+02 -0.97863851487E+02 -0.42955231235E+03  0.44911384120E+03  0.00000000000E+00 0.  1.
          3    1    3    3  501    0 -0.98246107862E+02  0.90412427025E+02 -0.54749531703E+03  0.56354043940E+03  0.00000000000E+00 0.  1.
         21    1    1    2  502  501  0.11006667870E+02  0.74514244621E+01  0.34287817332E+01  0.13726871759E+02  0.00000000000E+00 0.  1.
<mgrwt>
<rscale>  1 0.30000000E+03</rscale>
<asrwt>0</asrwt>
<pdfrwt beam="1">  1        1 0.95931665E-01 0.30000000E+03</pdfrwt>
<pdfrwt beam="2">0</pdfrwt>
<totfact> 0.36355934E+01</totfact>
</mgrwt>
</event>
<event>
 6    1  0.1950139E-004  0.3000000E+03  0.7818608E-02  0.1093470E+00
          3   -1    0    0  502    0  0.00000000000E+00  0.00000000000E+00  0.32739119667E+02  0.32739119667E+02  0.00000000000E+00 0.  1.
         13   -1    0    0    0    0 -0.00000000000E+00 -0.00000000000E+00 -0.10000000000E+04  0.10000000000E+04  0.00000000000E+00 0.  1.
    9000005    2    1    2  501    0  0.21555462622E+02 -0.39319684043E+01 -0.95516423396E+03  0.10077105920E+04  0.32040884043E+03 0.  0.
         13    1    3    3    0    0  0.98115923402E+02  0.13015121994E+02 -0.91363130873E+03  0.91897676582E+03  0.00000000000E+00 0.  1.
          3    1    3    3  501    0 -0.76560460781E+02 -0.16947090398E+02 -0.41532925227E+02  0.88733826165E+02  0.00000000000E+00 0.  1.
         21    1    1    2  502  501 -0.21555462622E+02  0.39319684043E+01 -0.12096646377E+02  0.25028527682E+02  0.00000000000E+00 0.  1.
<mgrwt>
<rscale>  1 0.30000000E+03</rscale>
<asrwt>0</asrwt>
<pdfrwt beam="1">  1        3 0.11905160E+00 0.30000000E+03</pdfrwt>
<pdfrwt beam="2">0</pdfrwt>
<totfact> 0.23722540E+00</totfact>
</mgrwt>
</event>
<event>
 6    1  0.1950139E-004  0.3000000E+03  0.7818608E-02  0.1093470E+00
          1   -1    0    0  502    0  0.00000000000E+00  0.00000000000E+00  0.28942568202E+02  0.28942568202E+02  0.00000000000E+00 0.  1.
         13   -1    0    0    0    0 -0.00000000000E+00 -0.00000000000E+00 -0.10000000000E+04  0.10000000000E+04  0.00000000000E+00 0.  1.
    9000005    2    1    2  501    0 -0.79892128527E+01  0.67249050273E+01 -0.95888078732E+03  0.10129012921E+04  0.32620179535E+03 0.  0.
         13    1    3    3    0    0  0.25755238360E+02  0.58798636565E+02 -0.13638955237E+02  0.65624942399E+02  0.00000000000E+00 0.  1.
          1    1    3    3  501    0 -0.33744451212E+02 -0.52073731538E+02 -0.94524183208E+03  0.94727634966E+03  0.00000000000E+00 0.  1.
         21    1    1    2  502  501  0.79892128527E+01 -0.67249050273E+01 -0.12176644481E+02  0.16041276148E+02  0.00000000000E+00 0. -1.
<mgrwt>
<rscale>  1 0.30000000E+03</rscale>
<asrwt>0</asrwt>
<pdfrwt beam="1">  1        1 0.10524592E+00 0.30000000E+03</pdfrwt>
<pdfrwt beam="2">0</pdfrwt>
<totfact> 0.31742203E+01</totfact>
</mgrwt>
</event>
<event>
 6    1  0.1950139E-004  0.3000000E+03  0.7818608E-02  0.1093470E+00
          1   -1    0    0  502    0  0.00000000000E+00  0.00000000000E+00  0.31835020840E+02  0.31835020840E+02  0.00000000000E+00 0.  1.
         13   -1    0    0    0    0 -0.00000000000E+00 -0.00000000000E+00 -0.10000000000E+04  0.10000000000E+04  0.00000000000E+00 0.  1.
    9000005    2    1    2  501    0 -0.11926216749E+02 -0.12068168970E+02 -0.93971570794E+03  0.99871046226E+03  0.33774117358E+03 0.  0.
         13    1    3    3    0    0 -0.87567507782E+02  0.14128743735E+03 -0.50060555809E+03  0.52748093156E+03  0.00000000000E+00 0.  1.
          3    1    3    3  501    0  0.75641291032E+02 -0.15335560632E+03 -0.43911014986E+03  0.47122953070E+03  0.00000000000E+00 0.  1.
         21    1    1    2  502  501  0.11926216749E+02  0.12068168970E+02 -0.28449271219E+02  0.33124558580E+02  0.00000000000E+00 0.  1.
<mgrwt>
<rscale>  1 0.30000000E+03</rscale>
<asrwt>0</asrwt>
<pdfrwt beam="1">  1        1 0.11576396E+00 0.30000000E+03</pdfrwt>
<pdfrwt beam="2">0</pdfrwt>
<totfact> 0.27485127E+01</totfact>
</mgrwt>
</event>
<event>
 6    1  0.1950139E-004  0.3000000E+03  0.7818608E-02  0.1093470E+00
          1   -1    0    0  502    0  0.00000000000E+00  0.00000000000E+00  0.53330829101E+02  0.53330829101E+02  0.00000000000E+00 0.  1.
         13   -1    0    0    0    0 -0.00000000000E+00 -0.00000000000E+00 -0.10000000000E+04  0.10000000000E+04  0.00000000000E+00 0.  1.
    9000005    2    1    2  501    0 -0.61177685689E+02 -0.13355861506E+02 -0.87987429013E+03  0.96177404694E+03  0.38328770221E+03 0.  0.
         13    1    3    3    0    0 -0.14278263665E+03 -0.16198947310E+03 -0.43411063465E+03  0.48484999107E+03  0.00000000000E+00 0.  1.
          1    1    3    3  501    0  0.81604950965E+02  0.14863361159E+03 -0.44576365549E+03  0.47692405587E+03  0.00000000000E+00 0.  1.
         21    1    1    2  502  501  0.61177685689E+02  0.13355861506E+02 -0.66794880766E+02  0.91556782159E+02  0.00000000000E+00 0.  1.
<mgrwt>
<rscale>  1 0.30000000E+03</rscale>
<asrwt>0</asrwt>
<pdfrwt beam="1">  1        1 0.19393070E+00 0.30000000E+03</pdfrwt>
<pdfrwt beam="2">0</pdfrwt>
<totfact> 0.10948771E+01</totfact>
</mgrwt>
</event>
<event>
 6    1  0.1950139E-004  0.3000000E+03  0.7818608E-02  0.1093470E+00
          1   -1    0    0  502    0  0.00000000000E+00  0.00000000000E+00  0.31538782057E+02  0.31538782057E+02  0.00000000000E+00 0.  1.
         13   -1    0    0    0    0 -0.00000000000E+00 -0.00000000000E+00 -0.10000000000E+04  0.10000000000E+04  0.00000000000E+00 0.  1.
    9000005    2    1    2  501    0  0.10774243322E+02 -0.44022374198E+01 -0.96480796813E+03  0.10193400015E+04  0.32873113517E+03 0.  0.
         13    1    3    3    0    0  0.13519145695E+03  0.55658714028E+02 -0.23647671821E+03  0.27802133144E+03  0.00000000000E+00 0.  1.
          1    1    3    3  501    0 -0.12441721363E+03 -0.60060951448E+02 -0.72833124992E+03  0.74131867004E+03  0.00000000000E+00 0.  1.
         21    1    1    2  502  501 -0.10774243322E+02  0.44022374198E+01 -0.36532498106E+01  0.12198780580E+02  0.00000000000E+00 0.  1.
<mgrwt>
<rscale>  1 0.30000000E+03</rscale>
<asrwt>0</asrwt>
<pdfrwt beam="1">  1        1 0.11468672E+00 0.30000000E+03</pdfrwt>
<pdfrwt beam="2">0</pdfrwt>
<totfact> 0.27882525E+01</totfact>
</mgrwt>
</event>
<event>
 6    1  0.1950139E-004  0.3000000E+03  0.7818608E-02  0.1093470E+00
          1   -1    0    0  502    0  0.00000000000E+00  0.00000000000E+00  0.32553741503E+02  0.32553741503E+02  0.00000000000E+00 0.  1.
         13   -1    0    0    0    0 -0.00000000000E+00 -0.00000000000E+00 -0.10000000000E+04  0.10000000000E+04  0.00000000000E+00 0.  1.
    9000005    2    1    2  501    0  0.85736207926E+00 -0.10461577765E+02 -0.97073586299E+03  0.10215536880E+04  0.31801516019E+03 0.  0.
         13    1    3    3    0    0 -0.68960980023E+02 -0.14591803771E+03 -0.58356549458E+03  0.60547202822E+03  0.00000000000E+00 0.  1.
          3    1    3    3  501    0  0.69818342103E+02  0.13545645995E+03 -0.38717036842E+03  0.41608165979E+03  0.00000000000E+00 0.  1.
         21    1    1    2  502  501 -0.85736207926E+00  0.10461577765E+02  0.32896044969E+01  0.11000053491E+02  0.00000000000E+00 0.  1.
<mgrwt>
<rscale>  1 0.30000000E+03</rscale>
<asrwt>0</asrwt>
<pdfrwt beam="1">  1        1 0.11837749E+00 0.30000000E+03</pdfrwt>
<pdfrwt beam="2">0</pdfrwt>
<totfact> 0.26553062E+01</totfact>
</mgrwt>
</event>
<event>
 6    1  0.1950139E-004  0.3000000E+03  0.7818608E-02  0.1093470E+00
          1   -1    0    0  502    0  0.00000000000E+00  0.00000000000E+00  0.35053617775E+02  0.35053617775E+02  0.00000000000E+00 0.  1.
         13   -1    0    0    0    0 -0.00000000000E+00 -0.00000000000E+00 -0.10000000000E+04  0.10000000000E+04  0.00000000000E+00 0.  1.
    9000005    2    1    2  501    0 -0.21423779635E+02 -0.36691158893E+02 -0.79810896749E+03  0.86289107124E+03  0.32526582568E+03 0.  0.
         13    1    3    3    0    0 -0.13877176115E+03  0.13022998341E+02 -0.66166184086E+03  0.67618310525E+03  0.00000000000E+00 0.  1.
          3    1    3    3  501    0  0.11734798152E+03 -0.49714157235E+02 -0.13644712663E+03  0.18670796598E+03  0.00000000000E+00 0.  1.
         21    1    1    2  502  501  0.21423779635E+02  0.36691158893E+02 -0.16683741474E+03  0.17216254654E+03  0.00000000000E+00 0.  1.
<mgrwt>
<rscale>  1 0.30000000E+03</rscale>
<asrwt>0</asrwt>
<pdfrwt beam="1">  1        1 0.12746797E+00 0.30000000E+03</pdfrwt>
<pdfrwt beam="2">0</pdfrwt>
<totfact> 0.23621268E+01</totfact>
</mgrwt>
</event>
<event>
 6    1  0.1950139E-004  0.3000000E+03  0.7818608E-02  0.1093470E+00
          1   -1    0    0  502    0  0.00000000000E+00  0.00000000000E+00  0.36952664966E+02  0.36952664966E+02  0.00000000000E+00 0.  1.
         13   -1    0    0    0    0 -0.00000000000E+00 -0.00000000000E+00 -0.10000000000E+04  0.10000000000E+04  0.00000000000E+00 0.  1.
    9000005    2    1    2  501    0 -0.29951018831E+02 -0.33490103055E+02 -0.90218463453E+03  0.96130268913E+03  0.32885725598E+03 0.  0.
         13    1    3    3    0    0 -0.10762187734E+01 -0.47322904407E+02 -0.92228500479E+03  0.92349891477E+03  0.00000000000E+00 0.  1.
          1    1    3    3  501    0 -0.28874800058E+02  0.13832801352E+02  0.20100370253E+02  0.37803774361E+02  0.00000000000E+00 0.  1.
         21    1    1    2  502  501  0.29951018831E+02  0.33490103055E+02 -0.60862700501E+02  0.75649975836E+02  0.00000000000E+00 0.  1.
<mgrwt>
<rscale>  1 0.30000000E+03</rscale>
<asrwt>0</asrwt>
<pdfrwt beam="1">  1        1 0.13437361E+00 0.30000000E+03</pdfrwt>
<pdfrwt beam="2">0</pdfrwt>
<totfact> 0.21668946E+01</totfact>
</mgrwt>
</event>
<event>
 6    1  0.1950139E-004  0.3000000E+03  0.7818608E-02  0.1093470E+00
          1   -1    0    0  502    0  0.00000000000E+00  0.00000000000E+00  0.31487255314E+02  0.31487255314E+02  0.00000000000E+00 0.  1.
         13   -1    0    0    0    0 -0.00000000000E+00 -0.00000000000E+00 -0.10000000000E+04  0.10000000000E+04  0.00000000000E+00 0.  1.
    9000005    2    1    2  501    0 -0.12699752897E+02  0.12183945538E+02 -0.95746679465E+03  0.10107087745E+04  0.32323340136E+03 0.  0.
         13    1    3    3    0    0  0.11806475256E+03 -0.83453330207E+02 -0.61628429716E+03  0.63301664990E+03  0.00000000000E+00 0.  1.
          1    1    3    3  501    0 -0.13076450546E+03  0.95637275745E+02 -0.34118249748E+03  0.37769212460E+03  0.00000000000E+00 0.  1.
         21    1    1    2  502  501  0.12699752897E+02 -0.12183945538E+02 -0.11045950039E+02  0.20778480810E+02  0.00000000000E+00 0.  1.
<mgrwt>
<rscale>  1 0.30000000E+03</rscale>
<asrwt>0</asrwt>
<pdfrwt beam="1">  1        1 0.11449935E+00 0.30000000E+03</pdfrwt>
<pdfrwt beam="2">0</pdfrwt>
<totfact> 0.27952468E+01</totfact>
</mgrwt>
</event>
<event>
 6    1  0.1950139E-004  0.3000000E+03  0.7818608E-02  0.1093470E+00
          1   -1    0    0  502    0  0.00000000000E+00  0.00000000000E+00  0.35426587819E+02  0.35426587819E+02  0.00000000000E+00 0.  1.
         13   -1    0    0    0    0 -0.00000000000E+00 -0.00000000000E+00 -0.10000000000E+04  0.10000000000E+04  0.00000000000E+00 0.  1.
    9000005    2    1    2  501    0 -0.15102563075E+02  0.91523266806E+01 -0.96577372645E+03  0.10177264960E+04  0.32052531494E+03 0.  0.
         13    1    3    3    0    0 -0.18059661242E+02  0.14513326776E+03 -0.73866182330E+03  0.75300139839E+03  0.00000000000E+00 0.  1.
          1    1    3    3  501    0  0.29570981674E+01 -0.13598094108E+03 -0.22711190315E+03  0.26472509764E+03  0.00000000000E+00 0.  1.
         21    1    1    2  502  501  0.15102563075E+02 -0.91523266806E+01  0.12003142684E+01  0.17700091792E+02  0.00000000000E+00 0. -1.
<mgrwt>
<rscale>  1 0.30000000E+03</rscale>
<asrwt>0</asrwt>
<pdfrwt beam="1">  1        1 0.12882423E+00 0.30000000E+03</pdfrwt>
<pdfrwt beam="2">0</pdfrwt>
<totfact> 0.23220299E+01</totfact>
</mgrwt>
</event>
<event>
 6    1  0.1950139E-004  0.3000000E+03  0.7818608E-02  0.1093470E+00
          1   -1    0    0  502    0  0.00000000000E+00  0.00000000000E+00  0.26729081860E+02  0.26729081860E+02  0.00000000000E+00 0.  1.
         13   -1    0    0    0    0 -0.00000000000E+00 -0.00000000000E+00 -0.10000000000E+04  0.10000000000E+04  0.00000000000E+00 0.  1.
    9000005    2    1    2  501    0 -0.14751581438E+02  0.82887574767E+01 -0.95125447445E+03  0.99896153879E+03  0.30455339132E+03 0.  0.
         13    1    3    3    0    0  0.40776693015E+02 -0.12581874139E+03 -0.24987108774E+03  0.28271656278E+03  0.00000000000E+00 0.  1.
          3    1    3    3  501    0 -0.55528274453E+02  0.13410749887E+03 -0.70138338671E+03  0.71624497602E+03  0.00000000000E+00 0.  1.
         21    1    1    2  502  501  0.14751581438E+02 -0.82887574767E+01 -0.22016443688E+02  0.27767543069E+02  0.00000000000E+00 0.  1.
<mgrwt>
<rscale>  1 0.30000000E+03</rscale>
<asrwt>0</asrwt>
<pdfrwt beam="1">  1        1 0.97196866E-01 0.30000000E+03</pdfrwt>
<pdfrwt beam="2">0</pdfrwt>
<totfact> 0.35673316E+01</totfact>
</mgrwt>
</event>
<event>
 6    1  0.1950139E-004  0.3000000E+03  0.7818608E-02  0.1093470E+00
          1   -1    0    0  502    0  0.00000000000E+00  0.00000000000E+00  0.88066358429E+02  0.88066358429E+02  0.00000000000E+00 0.  1.
         13   -1    0    0    0    0 -0.00000000000E+00 -0.00000000000E+00 -0.10000000000E+04  0.10000000000E+04  0.00000000000E+00 0.  1.
    9000005    2    1    2  501    0 -0.53590992140E+02  0.47578570464E+02 -0.95118823547E+03  0.10063556618E+04  0.32071318007E+03 0.  0.
         13    1    3    3    0    0  0.13035418328E+03 -0.14053447895E+02 -0.31349360899E+03  0.33980576125E+03  0.00000000000E+00 0.  1.
          3    1    3    3  501    0 -0.18394517542E+03  0.61632018360E+02 -0.63769462648E+03  0.66654990053E+03  0.00000000000E+00 0.  1.
         21    1    1    2  502  501  0.53590992140E+02 -0.47578570464E+02  0.39254593901E+02  0.81710696657E+02  0.00000000000E+00 0.  1.
<mgrwt>
<rscale>  1 0.30000000E+03</rscale>
<asrwt>0</asrwt>
<pdfrwt beam="1">  1        1 0.32024198E+00 0.30000000E+03</pdfrwt>
<pdfrwt beam="2">0</pdfrwt>
<totfact> 0.27770067E+00</totfact>
</mgrwt>
</event>
<event>
 6    1  0.1950139E-004  0.3000000E+03  0.7818608E-02  0.1093470E+00
          3   -1    0    0  502    0  0.00000000000E+00  0.00000000000E+00  0.34055627794E+02  0.34055627794E+02  0.00000000000E+00 0.  1.
         13   -1    0    0    0    0 -0.00000000000E+00 -0.00000000000E+00 -0.10000000000E+04  0.10000000000E+04  0.00000000000E+00 0.  1.
    9000005    2    1    2  501    0 -0.19321138836E+02 -0.27417093541E+02 -0.92714282784E+03  0.98276661075E+03  0.32420885948E+03 0.  0.
         13    1    3    3    0    0  0.12478400772E+03 -0.50664474736E+02 -0.69948414104E+03  0.71233138436E+03  0.00000000000E+00 0.  1.
          1    1    3    3  501    0 -0.14410514655E+03  0.23247381195E+02 -0.22765868681E+03  0.27043522639E+03  0.00000000000E+00 0.  1.
         21    1    1    2  502  501  0.19321138836E+02  0.27417093541E+02 -0.38801544365E+02  0.51289017043E+02  0.00000000000E+00 0. -1.
<mgrwt>
<rscale>  1 0.30000000E+03</rscale>
<asrwt>0</asrwt>
<pdfrwt beam="1">  1        3 0.12383891E+00 0.30000000E+03</pdfrwt>
<pdfrwt beam="2">0</pdfrwt>
<totfact> 0.20873255E+00</totfact>
</mgrwt>
</event>
<event>
 6    1  0.1950139E-004  0.3000000E+03  0.7818608E-02  0.1093470E+00
          1   -1    0    0  502    0  0.00000000000E+00  0.00000000000E+00  0.77967333934E+02  0.77967333934E+02  0.00000000000E+00 0.  1.
         13   -1    0    0    0    0 -0.00000000000E+00 -0.00000000000E+00 -0.10000000000E+04  0.10000000000E+04  0.00000000000E+00 0.  1.
    9000005    2    1    2  501    0 -0.60371009042E+02  0.17942706885E+02 -0.94464401385E+03  0.10110504264E+04  0.35482961037E+03 0.  0.
         13    1    3    3    0    0  0.33690087958E+02 -0.74074826993E+02 -0.29598177407E+02  0.86591882567E+02  0.00000000000E+00 0.  1.
          3    1    3    3  501    0 -0.94061097000E+02  0.92017533879E+02 -0.91504583644E+03  0.92445854385E+03  0.00000000000E+00 0.  1.
         21    1    1    2  502  501  0.60371009042E+02 -0.17942706885E+02  0.22611347781E+02  0.66916907517E+02  0.00000000000E+00 0.  1.
<mgrwt>
<rscale>  1 0.30000000E+03</rscale>
<asrwt>0</asrwt>
<pdfrwt beam="1">  1        1 0.28351818E+00 0.30000000E+03</pdfrwt>
<pdfrwt beam="2">0</pdfrwt>
<totfact> 0.41571531E+00</totfact>
</mgrwt>
</event>
<event>
 6    1  0.1950139E-004  0.3000000E+03  0.7818608E-02  0.1093470E+00
          1   -1    0    0  502    0  0.00000000000E+00  0.00000000000E+00  0.28181742267E+02  0.28181742267E+02  0.00000000000E+00 0.  1.
         13   -1    0    0    0    0 -0.00000000000E+00 -0.00000000000E+00 -0.10000000000E+04  0.10000000000E+04  0.00000000000E+00 0.  1.
    9000005    2    1    2  501    0 -0.65857658872E+01  0.12879070066E+02 -0.95381874945E+03  0.10050900759E+04  0.31658586682E+03 0.  0.
         13    1    3    3    0    0  0.11393106912E+03 -0.99214581803E+02 -0.41206321137E+03  0.43888485041E+03  0.00000000000E+00 0.  1.
          1    1    3    3  501    0 -0.12051683501E+03  0.11209365187E+03 -0.54175553808E+03  0.56620522547E+03  0.00000000000E+00 0.  1.
         21    1    1    2  502  501  0.65857658872E+01 -0.12879070066E+02 -0.17999508279E+02  0.23091666383E+02  0.00000000000E+00 0.  1.
<mgrwt>
<rscale>  1 0.30000000E+03</rscale>
<asrwt>0</asrwt>
<pdfrwt beam="1">  1        1 0.10247928E+00 0.30000000E+03</pdfrwt>
<pdfrwt beam="2">0</pdfrwt>
<totfact> 0.33018516E+01</totfact>
</mgrwt>
</event>
<event>
 6    1  0.1950139E-004  0.3000000E+03  0.7818608E-02  0.1093470E+00
          3   -1    0    0  502    0  0.00000000000E+00  0.00000000000E+00  0.30342799633E+02  0.30342799633E+02  0.00000000000E+00 0.  1.
         13   -1    0    0    0    0 -0.00000000000E+00 -0.00000000000E+00 -0.10000000000E+04  0.10000000000E+04  0.00000000000E+00 0.  1.
    9000005    2    1    2  501    0  0.28567110856E+01 -0.15391153926E+02 -0.95859712366E+03  0.10111758042E+04  0.32143897256E+03 0.  0.
         13    1    3    3    0    0 -0.12121866943E+02  0.14416273972E+03 -0.29584388323E+03  0.32932269649E+03  0.00000000000E+00 0.  1.
          3    1    3    3  501    0  0.14978578029E+02 -0.15955389365E+03 -0.66275324044E+03  0.68185310770E+03  0.00000000000E+00 0.  1.
         21    1    1    2  502  501 -0.28567110856E+01  0.15391153926E+02 -0.11060076705E+02  0.19166995438E+02  0.00000000000E+00 0. -1.
<mgrwt>
<rscale>  1 0.30000000E+03</rscale>
<asrwt>0</asrwt>
<pdfrwt beam="1">  1        3 0.11033769E+00 0.30000000E+03</pdfrwt>
<pdfrwt beam="2">0</pdfrwt>
<totfact> 0.29870265E+00</totfact>
</mgrwt>
</event>
<event>
 6    1  0.1950139E-004  0.3000000E+03  0.7818608E-02  0.1093470E+00
          1   -1    0    0  502    0  0.00000000000E+00  0.00000000000E+00  0.36888827980E+02  0.36888827980E+02  0.00000000000E+00 0.  1.
         13   -1    0    0    0    0 -0.00000000000E+00 -0.00000000000E+00 -0.10000000000E+04  0.10000000000E+04  0.00000000000E+00 0.  1.
    9000005    2    1    2  501    0  0.63384965827E+02 -0.32724956630E+02 -0.88551588464E+03  0.93148671556E+03  0.28007238820E+03 0.  0.
         13    1    3    3    0    0 -0.20838873405E+01 -0.28149922399E+02  0.12646010419E+02  0.30930281231E+02  0.00000000000E+00 0.  1.
          1    1    3    3  501    0  0.65468853167E+02 -0.45750342303E+01 -0.89816189506E+03  0.90055643433E+03  0.00000000000E+00 0.  1.
         21    1    1    2  502  501 -0.63384965827E+02  0.32724956630E+02 -0.77595287381E+02  0.10540211242E+03  0.00000000000E+00 0.  1.
<mgrwt>
<rscale>  1 0.30000000E+03</rscale>
<asrwt>0</asrwt>
<pdfrwt beam="1">  1        1 0.13414148E+00 0.30000000E+03</pdfrwt>
<pdfrwt beam="2">0</pdfrwt>
<totfact> 0.21731061E+01</totfact>
</mgrwt>
</event>
<event>
 6    1  0.1950139E-004  0.3000000E+03  0.7818608E-02  0.1093470E+00
          1   -1    0    0  502    0  0.00000000000E+00  0.00000000000E+00  0.30671126399E+02  0.30671126399E+02  0.00000000000E+00 0.  1.
         13   -1    0    0    0    0 -0.00000000000E+00 -0.00000000000E+00 -0.10000000000E+04  0.10000000000E+04  0.00000000000E+00 0.  1.
    9000005    2    1    2  501    0 -0.14125353243E+02  0.30861571688E+01 -0.95490586750E+03  0.10102487594E+04  0.32946667516E+03 0.  0.
         13    1    3    3    0    0 -0.15515660085E+03 -0.27471410772E+02 -0.29182634351E+03  0.33164870565E+03  0.00000000000E+00 0.  1.
          3    1    3    3  501    0  0.14103124761E+03  0.30557567941E+02 -0.66307952399E+03  0.67860005371E+03  0.00000000000E+00 0.  1.
         21    1    1    2  502  501  0.14125353243E+02 -0.30861571688E+01 -0.14423006105E+02  0.20422367038E+02  0.00000000000E+00 0.  1.
<mgrwt>
<rscale>  1 0.30000000E+03</rscale>
<asrwt>0</asrwt>
<pdfrwt beam="1">  1        1 0.11153160E+00 0.30000000E+03</pdfrwt>
<pdfrwt beam="2">0</pdfrwt>
<totfact> 0.29094324E+01</totfact>
</mgrwt>
</event>
<event>
 6    1  0.1950139E-004  0.3000000E+03  0.7818608E-02  0.1093470E+00
          1   -1    0    0  502    0  0.00000000000E+00  0.00000000000E+00  0.35097998017E+02  0.35097998017E+02  0.00000000000E+00 0.  1.
         13   -1    0    0    0    0 -0.00000000000E+00 -0.00000000000E+00 -0.10000000000E+04  0.10000000000E+04  0.00000000000E+00 0.  1.
    9000005    2    1    2  501    0 -0.10372436651E+02  0.14918805691E+01 -0.96983321282E+03  0.10235165478E+04  0.32695542464E+03 0.  0.
         13    1    3    3    0    0  0.44726953920E+02  0.66398069524E+02 -0.92276744328E+03  0.92623374934E+03  0.00000000000E+00 0.  1.
          1    1    3    3  501    0 -0.55099390572E+02 -0.64906188955E+02 -0.47065769545E+02  0.97282798422E+02  0.00000000000E+00 0.  1.
         21    1    1    2  502  501  0.10372436651E+02 -0.14918805691E+01  0.49312108381E+01  0.11581450257E+02  0.00000000000E+00 0. -1.
<mgrwt>
<rscale>  1 0.30000000E+03</rscale>
<asrwt>0</asrwt>
<pdfrwt beam="1">  1        1 0.12762935E+00 0.30000000E+03</pdfrwt>
<pdfrwt beam="2">0</pdfrwt>
<totfact> 0.23573092E+01</totfact>
</mgrwt>
</event>
<event>
 6    1  0.1950139E-004  0.3000000E+03  0.7818608E-02  0.1093470E+00
          1   -1    0    0  502    0  0.00000000000E+00  0.00000000000E+00  0.45118159834E+02  0.45118159834E+02  0.00000000000E+00 0.  1.
         13   -1    0    0    0    0 -0.00000000000E+00 -0.00000000000E+00 -0.10000000000E+04  0.10000000000E+04  0.00000000000E+00 0.  1.
    9000005    2    1    2  501    0  0.27576708489E+01 -0.10194381806E+02 -0.97381940704E+03  0.10234349496E+04  0.31461616020E+03 0.  0.
         13    1    3    3    0    0  0.44457119242E+00  0.71452125193E+02 -0.32361031706E+02  0.78440042142E+02  0.00000000000E+00 0.  1.
          3    1    3    3  501    0  0.23130996564E+01 -0.81646507000E+02 -0.94145837534E+03  0.94499490741E+03  0.00000000000E+00 0.  1.
         21    1    1    2  502  501 -0.27576708489E+01  0.10194381806E+02  0.18937566878E+02  0.21683210283E+02  0.00000000000E+00 0.  1.
<mgrwt>
<rscale>  1 0.30000000E+03</rscale>
<asrwt>0</asrwt>
<pdfrwt beam="1">  1        1 0.16406638E+00 0.30000000E+03</pdfrwt>
<pdfrwt beam="2">0</pdfrwt>
<totfact> 0.15278323E+01</totfact>
</mgrwt>
</event>
<event>
 6    1  0.1950139E-004  0.3000000E+03  0.7818608E-02  0.1093470E+00
          1   -1    0    0  502    0  0.00000000000E+00  0.00000000000E+00  0.28016835322E+02  0.28016835322E+02  0.00000000000E+00 0.  1.
         13   -1    0    0    0    0 -0.00000000000E+00 -0.00000000000E+00 -0.10000000000E+04  0.10000000000E+04  0.00000000000E+00 0.  1.
    9000005    2    1    2  501    0  0.41344379934E+01  0.11511416816E+02 -0.95779849836E+03  0.10092868846E+04  0.31801327915E+03 0.  0.
         13    1    3    3    0    0  0.50338124402E+02 -0.58596555405E+01 -0.95858073636E+03  0.95991941873E+03  0.00000000000E+00 0.  1.
          1    1    3    3  501    0 -0.46203686408E+02  0.17371072357E+02  0.78223799943E+00  0.49367465894E+02  0.00000000000E+00 0.  1.
         21    1    1    2  502  501 -0.41344379934E+01 -0.11511416816E+02 -0.14184666315E+02  0.18729950697E+02  0.00000000000E+00 0.  1.
<mgrwt>
<rscale>  1 0.30000000E+03</rscale>
<asrwt>0</asrwt>
<pdfrwt beam="1">  1        1 0.10187962E+00 0.30000000E+03</pdfrwt>
<pdfrwt beam="2">0</pdfrwt>
<totfact> 0.33304995E+01</totfact>
</mgrwt>
</event>
<event>
 6    1  0.1950139E-004  0.3000000E+03  0.7818608E-02  0.1093470E+00
          3   -1    0    0  502    0  0.00000000000E+00  0.00000000000E+00  0.36229446686E+02  0.36229446686E+02  0.00000000000E+00 0.  1.
         13   -1    0    0    0    0 -0.00000000000E+00 -0.00000000000E+00 -0.10000000000E+04  0.10000000000E+04  0.00000000000E+00 0.  1.
    9000005    2    1    2  501    0  0.18743011952E+02 -0.22743302223E+02 -0.92565990441E+03  0.98805289790E+03  0.34428725234E+03 0.  0.
         13    1    3    3    0    0 -0.10449395694E+03 -0.40495640846E+02 -0.91567501727E+02  0.14471866271E+03  0.00000000000E+00 0.  1.
          3    1    3    3  501    0  0.12323696889E+03  0.17752338623E+02 -0.83409240268E+03  0.84333423518E+03  0.00000000000E+00 0.  1.
         21    1    1    2  502  501 -0.18743011952E+02  0.22743302223E+02 -0.38110648908E+02  0.48176548789E+02  0.00000000000E+00 0.  1.
<mgrwt>
<rscale>  1 0.30000000E+03</rscale>
<asrwt>0</asrwt>
<pdfrwt beam="1">  1        3 0.13174372E+00 0.30000000E+03</pdfrwt>
<pdfrwt beam="2">0</pdfrwt>
<totfact> 0.16877916E+00</totfact>
</mgrwt>
</event>
<event>
 6    1  0.1950139E-004  0.3000000E+03  0.7818608E-02  0.1093470E+00
          1   -1    0    0  502    0  0.00000000000E+00  0.00000000000E+00  0.32405415954E+02  0.32405415954E+02  0.00000000000E+00 0.  1.
         13   -1    0    0    0    0 -0.00000000000E+00 -0.00000000000E+00 -0.10000000000E+04  0.10000000000E+04  0.00000000000E+00 0.  1.
    9000005    2    1    2  501    0  0.45796743710E+01 -0.99597528724E+01 -0.96906632551E+03  0.10213448501E+04  0.32239043013E+03 0.  0.
         13    1    3    3    0    0  0.26552262096E+02 -0.96109002418E+02 -0.79976959648E+02  0.12782126992E+03  0.00000000000E+00 0.  1.
          3    1    3    3  501    0 -0.21972587725E+02  0.86149249546E+02 -0.88908936586E+03  0.89352358016E+03  0.00000000000E+00 0.  1.
         21    1    1    2  502  501 -0.45796743710E+01  0.99597528724E+01  0.14717414667E+01  0.11060565879E+02  0.00000000000E+00 0.  1.
<mgrwt>
<rscale>  1 0.30000000E+03</rscale>
<asrwt>0</asrwt>
<pdfrwt beam="1">  1        1 0.11783812E+00 0.30000000E+03</pdfrwt>
<pdfrwt beam="2">0</pdfrwt>
<totfact> 0.26741821E+01</totfact>
</mgrwt>
</event>
<event>
 6    1  0.1950139E-004  0.3000000E+03  0.7818608E-02  0.1093470E+00
          3   -1    0    0  502    0  0.00000000000E+00  0.00000000000E+00  0.35669690862E+02  0.35669690862E+02  0.00000000000E+00 0.  1.
         13   -1    0    0    0    0 -0.00000000000E+00 -0.00000000000E+00 -0.10000000000E+04  0.10000000000E+04  0.00000000000E+00 0.  1.
    9000005    2    1    2  501    0  0.16264538291E+02  0.13229931861E+02 -0.96272906017E+03  0.10146427962E+04  0.31970798266E+03 0.  0.
         13    1    3    3    0    0  0.78930882323E+02 -0.36035759481E+02 -0.92022344239E+03  0.92430506007E+03  0.00000000000E+00 0.  1.
          1    1    3    3  501    0 -0.62666344031E+02  0.49265691342E+02 -0.42505617785E+02  0.90337736085E+02  0.00000000000E+00 0.  1.
         21    1    1    2  502  501 -0.16264538291E+02 -0.13229931861E+02 -0.16012489644E+01  0.21026894709E+02  0.00000000000E+00 0.  1.
<mgrwt>
<rscale>  1 0.30000000E+03</rscale>
<asrwt>0</asrwt>
<pdfrwt beam="1">  1        3 0.12970824E+00 0.30000000E+03</pdfrwt>
<pdfrwt beam="2">0</pdfrwt>
<totfact> 0.17833811E+00</totfact>
</mgrwt>
</event>
<event>
 6    1  0.1950139E-004  0.3000000E+03  0.7818608E-02  0.1093470E+00
          1   -1    0    0  502    0  0.00000000000E+00  0.00000000000E+00  0.30544159261E+02  0.30544159261E+02  0.00000000000E+00 0.  1.
         13   -1    0    0    0    0 -0.00000000000E+00 -0.00000000000E+00 -0.10000000000E+04  0.10000000000E+04  0.00000000000E+00 0.  1.
    9000005    2    1    2  501    0 -0.16607273762E+02  0.30898955319E+01 -0.94551837060E+03  0.10012465233E+04  0.32894416287E+03 0.  0.
         13    1    3    3    0    0  0.40175489344E+02  0.15655017002E+03 -0.54890509931E+03  0.57220523742E+03  0.00000000000E+00 0.  1.
          1    1    3    3  501    0 -0.56782763106E+02 -0.15346027449E+03 -0.39661327128E+03  0.42904128588E+03  0.00000000000E+00 0.  1.
         21    1    1    2  502  501  0.16607273762E+02 -0.30898955319E+01 -0.23937470144E+02  0.29297635964E+02  0.00000000000E+00 0.  1.
<mgrwt>
<rscale>  1 0.30000000E+03</rscale>
<asrwt>0</asrwt>
<pdfrwt beam="1">  1        1 0.11106990E+00 0.30000000E+03</pdfrwt>
<pdfrwt beam="2">0</pdfrwt>
<totfact> 0.29277897E+01</totfact>
</mgrwt>
</event>
<event>
 6    1  0.1950139E-004  0.3000000E+03  0.7818608E-02  0.1093470E+00
          1   -1    0    0  502    0  0.00000000000E+00  0.00000000000E+00  0.31244702114E+02  0.31244702114E+02  0.00000000000E+00 0.  1.
         13   -1    0    0    0    0 -0.00000000000E+00 -0.00000000000E+00 -0.10000000000E+04  0.10000000000E+04  0.00000000000E+00 0.  1.
    9000005    2    1    2  501    0 -0.30318315614E+01  0.11805829700E+02 -0.96833191479E+03  0.10190484375E+04  0.31724509631E+03 0.  0.
         13    1    3    3    0    0 -0.15103361036E+03  0.43407129451E+02 -0.61317357547E+03  0.63299065080E+03  0.00000000000E+00 0.  1.
          1    1    3    3  501    0  0.14800177880E+03 -0.31601299751E+02 -0.35515833932E+03  0.38605778669E+03  0.00000000000E+00 0.  1.
         21    1    1    2  502  501  0.30318315614E+01 -0.11805829700E+02 -0.42338309514E+00  0.12196264623E+02  0.00000000000E+00 0. -1.
<mgrwt>
<rscale>  1 0.30000000E+03</rscale>
<asrwt>0</asrwt>
<pdfrwt beam="1">  1        1 0.11361734E+00 0.30000000E+03</pdfrwt>
<pdfrwt beam="2">0</pdfrwt>
<totfact> 0.28285067E+01</totfact>
</mgrwt>
</event>
<event>
 6    1  0.1950139E-004  0.3000000E+03  0.7818608E-02  0.1093470E+00
          1   -1    0    0  502    0  0.00000000000E+00  0.00000000000E+00  0.69528727039E+02  0.69528727039E+02  0.00000000000E+00 0.  1.
         13   -1    0    0    0    0 -0.00000000000E+00 -0.00000000000E+00 -0.10000000000E+04  0.10000000000E+04  0.00000000000E+00 0.  1.
    9000005    2    1    2  501    0  0.13210985486E+03 -0.46529032109E+02 -0.82140631639E+03  0.89200934970E+03  0.31836202469E+03 0.  0.
         13    1    3    3    0    0  0.13198001188E+03 -0.14611271332E+03 -0.28476376578E+03  0.34620521491E+03  0.00000000000E+00 0.  1.
          1    1    3    3  501    0  0.12984297793E+00  0.99583681215E+02 -0.53664255061E+03  0.54580413479E+03  0.00000000000E+00 0.  1.
         21    1    1    2  502  501 -0.13210985486E+03  0.46529032109E+02 -0.10906495657E+03  0.17751937734E+03  0.00000000000E+00 0. -1.
<mgrwt>
<rscale>  1 0.30000000E+03</rscale>
<asrwt>0</asrwt>
<pdfrwt beam="1">  1        1 0.25283227E+00 0.30000000E+03</pdfrwt>
<pdfrwt beam="2">0</pdfrwt>
<totfact> 0.57876515E+00</totfact>
</mgrwt>
</event>
<event>
 6    1  0.1950139E-004  0.3000000E+03  0.7818608E-02  0.1093470E+00
          1   -1    0    0  502    0  0.00000000000E+00  0.00000000000E+00  0.40330075978E+02  0.40330075978E+02  0.00000000000E+00 0.  1.
         13   -1    0    0    0    0 -0.00000000000E+00 -0.00000000000E+00 -0.10000000000E+04  0.10000000000E+04  0.00000000000E+00 0.  1.
    9000005    2    1    2  501    0 -0.12764328726E+02  0.69082750451E+01 -0.96492592006E+03  0.10248938249E+04  0.34512993036E+03 0.  0.
         13    1    3    3    0    0 -0.13136971367E+03 -0.11546112632E+03 -0.50230396283E+03  0.53188207757E+03  0.00000000000E+00 0.  1.
          3    1    3    3  501    0  0.11860538494E+03  0.12236940137E+03 -0.46262195723E+03  0.49301174737E+03  0.00000000000E+00 0.  1.
         21    1    1    2  502  501  0.12764328726E+02 -0.69082750451E+01  0.52559960397E+01  0.15436251044E+02  0.00000000000E+00 0. -1.
<mgrwt>
<rscale>  1 0.30000000E+03</rscale>
<asrwt>0</asrwt>
<pdfrwt beam="1">  1        1 0.14665513E+00 0.30000000E+03</pdfrwt>
<pdfrwt beam="2">0</pdfrwt>
<totfact> 0.18685998E+01</totfact>
</mgrwt>
</event>
<event>
 6    1  0.1950139E-004  0.3000000E+03  0.7818608E-02  0.1093470E+00
          1   -1    0    0  502    0  0.00000000000E+00  0.00000000000E+00  0.31581363812E+02  0.31581363812E+02  0.00000000000E+00 0.  1.
         13   -1    0    0    0    0 -0.00000000000E+00 -0.00000000000E+00 -0.10000000000E+04  0.10000000000E+04  0.00000000000E+00 0.  1.
    9000005    2    1    2  501    0  0.24896128876E+02  0.16166438197E+02 -0.89262853010E+03  0.95018534955E+03  0.32432288663E+03 0.  0.
         13    1    3    3    0    0  0.13320140506E+03 -0.99913001648E+02 -0.48075926447E+03  0.50877764552E+03  0.00000000000E+00 0.  1.
          3    1    3    3  501    0 -0.10830527619E+03  0.11607943984E+03 -0.41186926563E+03  0.44140770403E+03  0.00000000000E+00 0.  1.
         21    1    1    2  502  501 -0.24896128876E+02 -0.16166438197E+02 -0.75790106084E+02  0.81396014259E+02  0.00000000000E+00 0.  1.
<mgrwt>
<rscale>  1 0.30000000E+03</rscale>
<asrwt>0</asrwt>
<pdfrwt beam="1">  1        1 0.11484157E+00 0.30000000E+03</pdfrwt>
<pdfrwt beam="2">0</pdfrwt>
<totfact> 0.27824909E+01</totfact>
</mgrwt>
</event>
<event>
 6    1  0.1950139E-004  0.3000000E+03  0.7818608E-02  0.1093470E+00
          1   -1    0    0  502    0  0.00000000000E+00  0.00000000000E+00  0.30191436449E+02  0.30191436449E+02  0.00000000000E+00 0.  1.
         13   -1    0    0    0    0 -0.00000000000E+00 -0.00000000000E+00 -0.10000000000E+04  0.10000000000E+04  0.00000000000E+00 0.  1.
    9000005    2    1    2  501    0 -0.17941638283E+02 -0.25457094404E+01 -0.94795380629E+03  0.10018010607E+04  0.32351284877E+03 0.  0.
         13    1    3    3    0    0  0.53435021331E+02 -0.15035224708E+03 -0.48941805002E+03  0.51477288914E+03  0.00000000000E+00 0.  1.
          1    1    3    3  501    0 -0.71376659613E+02  0.14780653764E+03 -0.45853575627E+03  0.48702817155E+03  0.00000000000E+00 0.  1.
         21    1    1    2  502  501  0.17941638283E+02  0.25457094404E+01 -0.21854757265E+02  0.28390375762E+02  0.00000000000E+00 0. -1.
<mgrwt>
<rscale>  1 0.30000000E+03</rscale>
<asrwt>0</asrwt>
<pdfrwt beam="1">  1        1 0.10978727E+00 0.30000000E+03</pdfrwt>
<pdfrwt beam="2">0</pdfrwt>
<totfact> 0.29796560E+01</totfact>
</mgrwt>
</event>
<event>
 6    1  0.1950139E-004  0.3000000E+03  0.7818608E-02  0.1093470E+00
          1   -1    0    0  502    0  0.00000000000E+00  0.00000000000E+00  0.50109313525E+02  0.50109313525E+02  0.00000000000E+00 0.  1.
         13   -1    0    0    0    0 -0.00000000000E+00 -0.00000000000E+00 -0.10000000000E+04  0.10000000000E+04  0.00000000000E+00 0.  1.
    9000005    2    1    2  501    0  0.52063754916E+01 -0.90940175723E+02 -0.86289623255E+03  0.92415195201E+03  0.31807184777E+03 0.  0.
         13    1    3    3    0    0 -0.60876742436E+02  0.10012914604E+03 -0.44118730162E+03  0.45648445622E+03  0.00000000000E+00 0.  1.
          1    1    3    3  501    0  0.66083117927E+02 -0.19106932176E+03 -0.42170893093E+03  0.46766749579E+03  0.00000000000E+00 0.  1.
         21    1    1    2  502  501 -0.52063754916E+01  0.90940175723E+02 -0.86994453921E+02  0.12595736151E+03  0.00000000000E+00 0.  1.
<mgrwt>
<rscale>  1 0.30000000E+03</rscale>
<asrwt>0</asrwt>
<pdfrwt beam="1">  1        1 0.18221607E+00 0.30000000E+03</pdfrwt>
<pdfrwt beam="2">0</pdfrwt>
<totfact> 0.12463386E+01</totfact>
</mgrwt>
</event>
<event>
 6    1  0.1950139E-004  0.3000000E+03  0.7818608E-02  0.1093470E+00
          1   -1    0    0  502    0  0.00000000000E+00  0.00000000000E+00  0.34029143603E+02  0.34029143603E+02  0.00000000000E+00 0.  1.
         13   -1    0    0    0    0 -0.00000000000E+00 -0.00000000000E+00 -0.10000000000E+04  0.10000000000E+04  0.00000000000E+00 0.  1.
    9000005    2    1    2  501    0 -0.11585612485E+02 -0.70652576370E+01 -0.96987929790E+03  0.10199075220E+04  0.31521636478E+03 0.  0.
         13    1    3    3    0    0 -0.11292675864E+03 -0.85836373063E+02 -0.23964220238E+03  0.27847570975E+03  0.00000000000E+00 0.  1.
          3    1    3    3  501    0  0.10134114615E+03  0.78771115426E+02 -0.73023709552E+03  0.74143181224E+03  0.00000000000E+00 0.  1.
         21    1    1    2  502  501  0.11585612485E+02  0.70652576370E+01  0.39084415027E+01  0.14121621617E+02  0.00000000000E+00 0.  1.
<mgrwt>
<rscale>  1 0.30000000E+03</rscale>
<asrwt>0</asrwt>
<pdfrwt beam="1">  1        1 0.12374260E+00 0.30000000E+03</pdfrwt>
<pdfrwt beam="2">0</pdfrwt>
<totfact> 0.24769159E+01</totfact>
</mgrwt>
</event>
<event>
 6    1  0.1950139E-004  0.3000000E+03  0.7818608E-02  0.1093470E+00
          1   -1    0    0  502    0  0.00000000000E+00  0.00000000000E+00  0.30999103382E+02  0.30999103382E+02  0.00000000000E+00 0.  1.
         13   -1    0    0    0    0 -0.00000000000E+00 -0.00000000000E+00 -0.10000000000E+04  0.10000000000E+04  0.00000000000E+00 0.  1.
    9000005    2    1    2  501    0 -0.81849954730E+01  0.14629300855E+02 -0.94848099341E+03  0.10045023673E+04  0.33034497195E+03 0.  0.
         13    1    3    3    0    0  0.14342772873E+03  0.50528861761E+01 -0.68929217109E+03  0.70407438681E+03  0.00000000000E+00 0.  1.
          3    1    3    3  501    0 -0.15161272421E+03  0.95764146791E+01 -0.25918882231E+03  0.30042798051E+03  0.00000000000E+00 0.  1.
         21    1    1    2  502  501  0.81849954730E+01 -0.14629300855E+02 -0.20519903211E+02  0.26496736067E+02  0.00000000000E+00 0.  1.
<mgrwt>
<rscale>  1 0.30000000E+03</rscale>
<asrwt>0</asrwt>
<pdfrwt beam="1">  1        1 0.11272425E+00 0.30000000E+03</pdfrwt>
<pdfrwt beam="2">0</pdfrwt>
<totfact> 0.28627597E+01</totfact>
</mgrwt>
</event>
<event>
 6    1  0.1950139E-004  0.3000000E+03  0.7818608E-02  0.1093470E+00
          3   -1    0    0  502    0  0.00000000000E+00  0.00000000000E+00  0.30196479392E+02  0.30196479392E+02  0.00000000000E+00 0.  1.
         13   -1    0    0    0    0 -0.00000000000E+00 -0.00000000000E+00 -0.10000000000E+04  0.10000000000E+04  0.00000000000E+00 0.  1.
    9000005    2    1    2  501    0 -0.67044762359E+01  0.10958988539E+02 -0.95796465828E+03  0.10127262735E+04  0.32825777853E+03 0.  0.
         13    1    3    3    0    0 -0.67911815606E+02  0.14671868425E+02 -0.94807096720E+03  0.95061340053E+03  0.00000000000E+00 0.  1.
          3    1    3    3  501    0  0.61207339370E+02 -0.37128798865E+01 -0.98936910812E+01  0.62112873006E+02  0.00000000000E+00 0.  1.
         21    1    1    2  502  501  0.67044762359E+01 -0.10958988539E+02 -0.11838862326E+02  0.17470205853E+02  0.00000000000E+00 0. -1.
<mgrwt>
<rscale>  1 0.30000000E+03</rscale>
<asrwt>0</asrwt>
<pdfrwt beam="1">  1        3 0.10980561E+00 0.30000000E+03</pdfrwt>
<pdfrwt beam="2">0</pdfrwt>
<totfact> 0.30290342E+00</totfact>
</mgrwt>
</event>
<event>
 6    1  0.1950139E-004  0.3000000E+03  0.7818608E-02  0.1093470E+00
          1   -1    0    0  502    0  0.00000000000E+00  0.00000000000E+00  0.31500958301E+02  0.31500958301E+02  0.00000000000E+00 0.  1.
         13   -1    0    0    0    0 -0.00000000000E+00 -0.00000000000E+00 -0.10000000000E+04  0.10000000000E+04  0.00000000000E+00 0.  1.
    9000005    2    1    2  501    0  0.13576628439E+02  0.10051085417E+02 -0.95475422192E+03  0.10097232351E+04  0.32817683958E+03 0.  0.
         13    1    3    3    0    0 -0.38484111495E+02 -0.13764359754E+03 -0.25177629512E+03  0.28951353952E+03  0.00000000000E+00 0.  1.
          3    1    3    3  501    0  0.52060739934E+02  0.14769468295E+03 -0.70297792680E+03  0.72020969556E+03  0.00000000000E+00 0.  1.
         21    1    1    2  502  501 -0.13576628439E+02 -0.10051085417E+02 -0.13744819780E+02  0.21777723219E+02  0.00000000000E+00 0. -1.
<mgrwt>
<rscale>  1 0.30000000E+03</rscale>
<asrwt>0</asrwt>
<pdfrwt beam="1">  1        1 0.11454918E+00 0.30000000E+03</pdfrwt>
<pdfrwt beam="2">0</pdfrwt>
<totfact> 0.27933843E+01</totfact>
</mgrwt>
</event>
<event>
 6    1  0.1950139E-004  0.3000000E+03  0.7818608E-02  0.1093470E+00
          1   -1    0    0  502    0  0.00000000000E+00  0.00000000000E+00  0.74891447365E+02  0.74891447365E+02  0.00000000000E+00 0.  1.
         13   -1    0    0    0    0 -0.00000000000E+00 -0.00000000000E+00 -0.10000000000E+04  0.10000000000E+04  0.00000000000E+00 0.  1.
    9000005    2    1    2  501    0 -0.64727144573E+01  0.17303032193E+02 -0.97265448828E+03  0.10238825565E+04  0.31927643963E+03 0.  0.
         13    1    3    3    0    0  0.40595595858E+02 -0.11050653205E+03 -0.15332058395E+03  0.19330519262E+03  0.00000000000E+00 0.  1.
          3    1    3    3  501    0 -0.47068310315E+02  0.12780956425E+03 -0.81933390432E+03  0.83057736384E+03  0.00000000000E+00 0.  1.
         21    1    1    2  502  501  0.64727144573E+01 -0.17303032193E+02  0.47545935642E+02  0.51008890907E+02  0.00000000000E+00 0.  1.
<mgrwt>
<rscale>  1 0.30000000E+03</rscale>
<asrwt>0</asrwt>
<pdfrwt beam="1">  1        1 0.27233311E+00 0.30000000E+03</pdfrwt>
<pdfrwt beam="2">0</pdfrwt>
<totfact> 0.46887888E+00</totfact>
</mgrwt>
</event>
<event>
 6    1  0.1950139E-004  0.3000000E+03  0.7818608E-02  0.1093470E+00
          1   -1    0    0  502    0  0.00000000000E+00  0.00000000000E+00  0.30853040320E+02  0.30853040320E+02  0.00000000000E+00 0.  1.
         13   -1    0    0    0    0 -0.00000000000E+00 -0.00000000000E+00 -0.10000000000E+04  0.10000000000E+04  0.00000000000E+00 0.  1.
    9000005    2    1    2  501    0  0.24823519814E+02  0.50005850916E+00 -0.86779936037E+03  0.92650845215E+03  0.32361354244E+03 0.  0.
         13    1    3    3    0    0 -0.18301326411E+02 -0.14081928681E+02  0.24141072900E+02  0.33407045133E+02  0.00000000000E+00 0.  1.
          3    1    3    3  501    0  0.43124846225E+02  0.14581987190E+02 -0.89194043327E+03  0.89310140702E+03  0.00000000000E+00 0.  1.
         21    1    1    2  502  501 -0.24823519814E+02 -0.50005850916E+00 -0.10134759931E+03  0.10434458817E+03  0.00000000000E+00 0.  1.
<mgrwt>
<rscale>  1 0.30000000E+03</rscale>
<asrwt>0</asrwt>
<pdfrwt beam="1">  1        1 0.11219311E+00 0.30000000E+03</pdfrwt>
<pdfrwt beam="2">0</pdfrwt>
<totfact> 0.28834126E+01</totfact>
</mgrwt>
</event>
<event>
 6    1  0.1950139E-004  0.3000000E+03  0.7818608E-02  0.1093470E+00
          1   -1    0    0  502    0  0.00000000000E+00  0.00000000000E+00  0.18586374560E+02  0.18586374560E+02  0.00000000000E+00 0.  1.
         13   -1    0    0    0    0 -0.00000000000E+00 -0.00000000000E+00 -0.10000000000E+04  0.10000000000E+04  0.00000000000E+00 0.  1.
    9000005    2    1    2  501    0  0.50270236151E+01 -0.11389854325E+02 -0.95872947476E+03  0.99271031535E+03  0.25720918469E+03 0.  0.
         13    1    3    3    0    0  0.49766788407E+02  0.10810317445E+03 -0.32120680345E+03  0.34254465422E+03  0.00000000000E+00 0.  1.
          3    1    3    3  501    0 -0.44739764791E+02 -0.11949302877E+03 -0.63752267131E+03  0.65016566113E+03  0.00000000000E+00 0.  1.
         21    1    1    2  502  501 -0.50270236151E+01  0.11389854325E+02 -0.22684150681E+02  0.25876059207E+02  0.00000000000E+00 0. -1.
<mgrwt>
<rscale>  1 0.30000000E+03</rscale>
<asrwt>0</asrwt>
<pdfrwt beam="1">  1        1 0.67586959E-01 0.30000000E+03</pdfrwt>
<pdfrwt beam="2">0</pdfrwt>
<totfact> 0.59126680E+01</totfact>
</mgrwt>
</event>
<event>
 6    1  0.1950139E-004  0.3000000E+03  0.7818608E-02  0.1093470E+00
          3   -1    0    0  502    0  0.00000000000E+00  0.00000000000E+00  0.33577350163E+02  0.33577350163E+02  0.00000000000E+00 0.  1.
         13   -1    0    0    0    0 -0.00000000000E+00 -0.00000000000E+00 -0.10000000000E+04  0.10000000000E+04  0.00000000000E+00 0.  1.
    9000005    2    1    2  501    0 -0.12920370058E+02 -0.26622542741E+01 -0.96828803857E+03  0.10202543161E+04  0.32119016238E+03 0.  0.
         13    1    3    3    0    0  0.99455972889E+02  0.11947386967E+03 -0.47630022145E+03  0.50102634365E+03  0.00000000000E+00 0.  1.
          1    1    3    3  501    0 -0.11237634295E+03 -0.12213612394E+03 -0.49198781713E+03  0.51922797250E+03  0.00000000000E+00 0.  1.
         21    1    1    2  502  501  0.12920370058E+02  0.26622542741E+01  0.18653887379E+01  0.13323034016E+02  0.00000000000E+00 0. -1.
<mgrwt>
<rscale>  1 0.30000000E+03</rscale>
<asrwt>0</asrwt>
<pdfrwt beam="1">  1        3 0.12209971E+00 0.30000000E+03</pdfrwt>
<pdfrwt beam="2">0</pdfrwt>
<totfact> 0.21867779E+00</totfact>
</mgrwt>
</event>
<event>
 6    1  0.1950139E-004  0.3000000E+03  0.7818608E-02  0.1093470E+00
          1   -1    0    0  502    0  0.00000000000E+00  0.00000000000E+00  0.29447060165E+02  0.29447060165E+02  0.00000000000E+00 0.  1.
         13   -1    0    0    0    0 -0.00000000000E+00 -0.00000000000E+00 -0.10000000000E+04  0.10000000000E+04  0.00000000000E+00 0.  1.
    9000005    2    1    2  501    0  0.54681632314E+01 -0.11583013483E+02 -0.97206569396E+03  0.10165491752E+04  0.29714717784E+03 0.  0.
         13    1    3    3    0    0  0.98334360670E+02 -0.76289109649E+02 -0.19533360341E+03  0.23161366834E+03  0.00000000000E+00 0.  1.
          1    1    3    3  501    0 -0.92866197439E+02  0.64706096166E+02 -0.77673209055E+03  0.78493550690E+03  0.00000000000E+00 0.  1.
         21    1    1    2  502  501 -0.54681632314E+01  0.11583013483E+02  0.15127541255E+01  0.12897884924E+02  0.00000000000E+00 0. -1.
<mgrwt>
<rscale>  1 0.30000000E+03</rscale>
<asrwt>0</asrwt>
<pdfrwt beam="1">  1        1 0.10708044E+00 0.30000000E+03</pdfrwt>
<pdfrwt beam="2">0</pdfrwt>
<totfact> 0.30934917E+01</totfact>
</mgrwt>
</event>
<event>
 6    1  0.1950139E-004  0.3000000E+03  0.7818608E-02  0.1093470E+00
          1   -1    0    0  502    0  0.00000000000E+00  0.00000000000E+00  0.26104997335E+02  0.26104997335E+02  0.00000000000E+00 0.  1.
         13   -1    0    0    0    0 -0.00000000000E+00 -0.00000000000E+00 -0.10000000000E+04  0.10000000000E+04  0.00000000000E+00 0.  1.
    9000005    2    1    2  501    0  0.89422178734E+01  0.11152486752E+02 -0.95111460832E+03  0.99921099079E+03  0.30593996919E+03 0.  0.
         13    1    3    3    0    0 -0.12399942690E+03  0.80497948196E+02 -0.35552608534E+03  0.38503840704E+03  0.00000000000E+00 0.  1.
          3    1    3    3  501    0  0.13294164477E+03 -0.69345461445E+02 -0.59558852297E+03  0.61417258375E+03  0.00000000000E+00 0.  1.
         21    1    1    2  502  501 -0.89422178734E+01 -0.11152486752E+02 -0.22780394349E+02  0.26894006543E+02  0.00000000000E+00 0.  1.
<mgrwt>
<rscale>  1 0.30000000E+03</rscale>
<asrwt>0</asrwt>
<pdfrwt beam="1">  1        1 0.94927463E-01 0.30000000E+03</pdfrwt>
<pdfrwt beam="2">0</pdfrwt>
<totfact> 0.36911656E+01</totfact>
</mgrwt>
</event>
<event>
 6    1  0.1950139E-004  0.3000000E+03  0.7818608E-02  0.1093470E+00
          1   -1    0    0  502    0  0.00000000000E+00  0.00000000000E+00  0.32298965081E+02  0.32298965081E+02  0.00000000000E+00 0.  1.
         13   -1    0    0    0    0 -0.00000000000E+00 -0.00000000000E+00 -0.10000000000E+04  0.10000000000E+04  0.00000000000E+00 0.  1.
    9000005    2    1    2  501    0 -0.52002820026E+01 -0.40103921428E+02 -0.88300916168E+03  0.93844758874E+03  0.31518776907E+03 0.  0.
         13    1    3    3    0    0  0.14220264542E+03  0.97250991319E+01 -0.58673927456E+03  0.60380389717E+03  0.00000000000E+00 0.  1.
          1    1    3    3  501    0 -0.14740292742E+03 -0.49829020560E+02 -0.29626988711E+03  0.33464369158E+03  0.00000000000E+00 0.  1.
         21    1    1    2  502  501  0.52002820026E+01  0.40103921428E+02 -0.84691873243E+02  0.93851376336E+02  0.00000000000E+00 0. -1.
<mgrwt>
<rscale>  1 0.30000000E+03</rscale>
<asrwt>0</asrwt>
<pdfrwt beam="1">  1        1 0.11745103E+00 0.30000000E+03</pdfrwt>
<pdfrwt beam="2">0</pdfrwt>
<totfact> 0.26878422E+01</totfact>
</mgrwt>
</event>
<event>
 6    1  0.1950139E-004  0.3000000E+03  0.7818608E-02  0.1093470E+00
          1   -1    0    0  502    0  0.00000000000E+00  0.00000000000E+00  0.27145718518E+02  0.27145718518E+02  0.00000000000E+00 0.  1.
         13   -1    0    0    0    0 -0.00000000000E+00 -0.00000000000E+00 -0.10000000000E+04  0.10000000000E+04  0.00000000000E+00 0.  1.
    9000005    2    1    2  501    0  0.82687037576E+01  0.48389645183E+02 -0.79399163763E+03  0.84166856470E+03  0.27490602568E+03 0.  0.
         13    1    3    3    0    0  0.21820098665E+02 -0.64423253868E+02 -0.39472297480E+02  0.78641812117E+02  0.00000000000E+00 0.  1.
          3    1    3    3  501    0 -0.13551394907E+02  0.11281289905E+03 -0.75451934015E+03  0.76302675259E+03  0.00000000000E+00 0.  1.
         21    1    1    2  502  501 -0.82687037576E+01 -0.48389645183E+02 -0.17886264385E+03  0.18547715381E+03  0.00000000000E+00 0.  1.
<mgrwt>
<rscale>  1 0.30000000E+03</rscale>
<asrwt>0</asrwt>
<pdfrwt beam="1">  1        1 0.98711912E-01 0.30000000E+03</pdfrwt>
<pdfrwt beam="2">0</pdfrwt>
<totfact> 0.34880612E+01</totfact>
</mgrwt>
</event>
<event>
 6    1  0.1950139E-004  0.3000000E+03  0.7818608E-02  0.1093470E+00
          3   -1    0    0  502    0  0.00000000000E+00  0.00000000000E+00  0.19872561527E+02  0.19872561527E+02  0.00000000000E+00 0.  1.
         13   -1    0    0    0    0 -0.00000000000E+00 -0.00000000000E+00 -0.10000000000E+04  0.10000000000E+04  0.00000000000E+00 0.  1.
    9000005    2    1    2  501    0  0.87742674223E+01 -0.87831838178E+01 -0.96772239934E+03  0.10023221461E+04  0.26078518024E+03 0.  0.
         13    1    3    3    0    0 -0.70637751279E+01  0.91970738587E+02 -0.80507458853E+03  0.81034166052E+03  0.00000000000E+00 0.  1.
          1    1    3    3  501    0  0.15838042550E+02 -0.10075392240E+03 -0.16264781081E+03  0.19198048555E+03  0.00000000000E+00 0.  1.
         21    1    1    2  502  501 -0.87742674223E+01  0.87831838178E+01 -0.12405039130E+02  0.17550415453E+02  0.00000000000E+00 0. -1.
<mgrwt>
<rscale>  1 0.30000000E+03</rscale>
<asrwt>0</asrwt>
<pdfrwt beam="1">  1        3 0.72264012E-01 0.30000000E+03</pdfrwt>
<pdfrwt beam="2">0</pdfrwt>
<totfact> 0.83431829E+00</totfact>
</mgrwt>
</event>
<event>
 6    1  0.1950139E-004  0.3000000E+03  0.7818608E-02  0.1093470E+00
          1   -1    0    0  502    0  0.00000000000E+00  0.00000000000E+00  0.38261148521E+02  0.38261148521E+02  0.00000000000E+00 0.  1.
         13   -1    0    0    0    0 -0.00000000000E+00 -0.00000000000E+00 -0.10000000000E+04  0.10000000000E+04  0.00000000000E+00 0.  1.
    9000005    2    1    2  501    0  0.10390628156E+02  0.19745611220E+02 -0.96675422221E+03  0.10153917747E+04  0.30969158146E+03 0.  0.
         13    1    3    3    0    0 -0.14736463132E+03  0.83748896711E+01 -0.55538914527E+03  0.57466823127E+03  0.00000000000E+00 0.  1.
          3    1    3    3  501    0  0.15775525948E+03  0.11370721548E+02 -0.41136507694E+03  0.44072354342E+03  0.00000000000E+00 0.  1.
         21    1    1    2  502  501 -0.10390628156E+02 -0.19745611220E+02  0.50153707309E+01  0.22869373832E+02  0.00000000000E+00 0.  1.
<mgrwt>
<rscale>  1 0.30000000E+03</rscale>
<asrwt>0</asrwt>
<pdfrwt beam="1">  1        1 0.13913174E+00 0.30000000E+03</pdfrwt>
<pdfrwt beam="2">0</pdfrwt>
<totfact> 0.20445759E+01</totfact>
</mgrwt>
</event>
<event>
 6    1  0.1950139E-004  0.3000000E+03  0.7818608E-02  0.1093470E+00
          1   -1    0    0  502    0  0.00000000000E+00  0.00000000000E+00  0.32570557157E+02  0.32570557157E+02  0.00000000000E+00 0.  1.
         13   -1    0    0    0    0 -0.00000000000E+00 -0.00000000000E+00 -0.10000000000E+04  0.10000000000E+04  0.00000000000E+00 0.  1.
    9000005    2    1    2  501    0  0.10001993409E+02  0.91995985763E+01 -0.96677129243E+03  0.10189652035E+04  0.32164993642E+03 0.  0.
         13    1    3    3    0    0  0.10314561091E+03 -0.71201944634E+02 -0.81016660276E+03  0.81980403646E+03  0.00000000000E+00 0.  1.
          3    1    3    3  501    0 -0.93143617498E+02  0.80401543210E+02 -0.15660468967E+03  0.19916116704E+03  0.00000000000E+00 0.  1.
         21    1    1    2  502  501 -0.10001993409E+02 -0.91995985763E+01 -0.65815041549E+00  0.13605353656E+02  0.00000000000E+00 0. -1.
<mgrwt>
<rscale>  1 0.30000000E+03</rscale>
<asrwt>0</asrwt>
<pdfrwt beam="1">  1        1 0.11843864E+00 0.30000000E+03</pdfrwt>
<pdfrwt beam="2">0</pdfrwt>
<totfact> 0.26531778E+01</totfact>
</mgrwt>
</event>
<event>
 6    1  0.1950139E-004  0.3000000E+03  0.7818608E-02  0.1093470E+00
          1   -1    0    0  502    0  0.00000000000E+00  0.00000000000E+00  0.33305658809E+02  0.33305658809E+02  0.00000000000E+00 0.  1.
         13   -1    0    0    0    0 -0.00000000000E+00 -0.00000000000E+00 -0.10000000000E+04  0.10000000000E+04  0.00000000000E+00 0.  1.
    9000005    2    1    2  501    0  0.11332372278E+02 -0.13237188985E+00 -0.88907316743E+03  0.95486149523E+03  0.34811052533E+03 0.  0.
         13    1    3    3    0    0  0.72931512541E+02  0.67734882084E+02 -0.51088851574E+02  0.11187980393E+03  0.00000000000E+00 0.  1.
          1    1    3    3  501    0 -0.61599140263E+02 -0.67867253974E+02 -0.83798431586E+03  0.84298169130E+03  0.00000000000E+00 0.  1.
         21    1    1    2  502  501 -0.11332372278E+02  0.13237188985E+00 -0.77621173761E+02  0.78444163581E+02  0.00000000000E+00 0. -1.
<mgrwt>
<rscale>  1 0.30000000E+03</rscale>
<asrwt>0</asrwt>
<pdfrwt beam="1">  1        1 0.12111174E+00 0.30000000E+03</pdfrwt>
<pdfrwt beam="2">0</pdfrwt>
<totfact> 0.25623362E+01</totfact>
</mgrwt>
</event>
<event>
 6    1  0.1950139E-004  0.3000000E+03  0.7818608E-02  0.1093470E+00
          1   -1    0    0  502    0  0.00000000000E+00  0.00000000000E+00  0.54562748705E+02  0.54562748705E+02  0.00000000000E+00 0.  1.
         13   -1    0    0    0    0 -0.00000000000E+00 -0.00000000000E+00 -0.10000000000E+04  0.10000000000E+04  0.00000000000E+00 0.  1.
    9000005    2    1    2  501    0  0.28425678865E+01 -0.67733804839E+02 -0.92672858762E+03  0.98423521067E+03  0.32449518685E+03 0.  0.
         13    1    3    3    0    0  0.88687240767E+02  0.10551799849E+03 -0.40679534872E+03  0.42951359748E+03  0.00000000000E+00 0.  1.
          3    1    3    3  501    0 -0.85844672881E+02 -0.17325180333E+03 -0.51993323890E+03  0.55472161318E+03  0.00000000000E+00 0.  1.
         21    1    1    2  502  501 -0.28425678865E+01  0.67733804839E+02 -0.18708663670E+02  0.70327538038E+02  0.00000000000E+00 0.  1.
<mgrwt>
<rscale>  1 0.30000000E+03</rscale>
<asrwt>0</asrwt>
<pdfrwt beam="1">  1        1 0.19841041E+00 0.30000000E+03</pdfrwt>
<pdfrwt beam="2">0</pdfrwt>
<totfact> 0.10423287E+01</totfact>
</mgrwt>
</event>
<event>
 6    1  0.1950139E-004  0.3000000E+03  0.7818608E-02  0.1093470E+00
          1   -1    0    0  502    0  0.00000000000E+00  0.00000000000E+00  0.29960886770E+02  0.29960886770E+02  0.00000000000E+00 0.  1.
         13   -1    0    0    0    0 -0.00000000000E+00 -0.00000000000E+00 -0.10000000000E+04  0.10000000000E+04  0.00000000000E+00 0.  1.
    9000005    2    1    2  501    0 -0.77180534001E+01  0.67709230829E+01 -0.96737737707E+03  0.10193543517E+04  0.32118357809E+03 0.  0.
         13    1    3    3    0    0 -0.13544318084E+03  0.14396189420E+02 -0.20376688261E+03  0.24509803744E+03  0.00000000000E+00 0.  1.
          3    1    3    3  501    0  0.12772512744E+03 -0.76252663370E+01 -0.76361049446E+03  0.77425631422E+03  0.00000000000E+00 0.  1.
         21    1    1    2  502  501  0.77180534001E+01 -0.67709230829E+01 -0.26617361613E+01  0.10606535112E+02  0.00000000000E+00 0.  1.
<mgrwt>
<rscale>  1 0.30000000E+03</rscale>
<asrwt>0</asrwt>
<pdfrwt beam="1">  1        1 0.10894891E+00 0.30000000E+03</pdfrwt>
<pdfrwt beam="2">0</pdfrwt>
<totfact> 0.30142651E+01</totfact>
</mgrwt>
</event>
<event>
 6    1  0.1950139E-004  0.3000000E+03  0.7818608E-02  0.1093470E+00
          1   -1    0    0  502    0  0.00000000000E+00  0.00000000000E+00  0.30377135184E+02  0.30377135184E+02  0.00000000000E+00 0.  1.
         13   -1    0    0    0    0 -0.00000000000E+00 -0.00000000000E+00 -0.10000000000E+04  0.10000000000E+04  0.00000000000E+00 0.  1.
    9000005    2    1    2  501    0  0.97618860279E+01 -0.16881539896E+01 -0.96651221532E+03  0.10199934738E+04  0.32579545734E+03 0.  0.
         13    1    3    3    0    0  0.10231773258E+03 -0.11705527467E+03 -0.68012156908E+03  0.69766482243E+03  0.00000000000E+00 0.  1.
          1    1    3    3  501    0 -0.92555846551E+02  0.11536712068E+03 -0.28639064624E+03  0.32232865140E+03  0.00000000000E+00 0.  1.
         21    1    1    2  502  501 -0.97618860279E+01  0.16881539896E+01 -0.31106494976E+01  0.10383661349E+02  0.00000000000E+00 0. -1.
<mgrwt>
<rscale>  1 0.30000000E+03</rscale>
<asrwt>0</asrwt>
<pdfrwt beam="1">  1        1 0.11046254E+00 0.30000000E+03</pdfrwt>
<pdfrwt beam="2">0</pdfrwt>
<totfact> 0.29521889E+01</totfact>
</mgrwt>
</event>
<event>
 6    1  0.1950139E-004  0.3000000E+03  0.7818608E-02  0.1093470E+00
          1   -1    0    0  502    0  0.00000000000E+00  0.00000000000E+00  0.38116369076E+02  0.38116369076E+02  0.00000000000E+00 0.  1.
         13   -1    0    0    0    0 -0.00000000000E+00 -0.00000000000E+00 -0.10000000000E+04  0.10000000000E+04  0.00000000000E+00 0.  1.
    9000005    2    1    2  501    0  0.11268894133E+02  0.21880668022E+02 -0.95823648011E+03  0.10132355870E+04  0.32836481438E+03 0.  0.
         13    1    3    3    0    0  0.91257894998E+02  0.21070331569E+02 -0.59530929730E+02  0.11097699702E+03  0.00000000000E+00 0.  1.
          1    1    3    3  501    0 -0.79989000865E+02  0.81033645337E+00 -0.89870555038E+03  0.90225858998E+03  0.00000000000E+00 0.  1.
         21    1    1    2  502  501 -0.11268894133E+02 -0.21880668022E+02 -0.36471508146E+01  0.24880782085E+02  0.00000000000E+00 0.  1.
<mgrwt>
<rscale>  1 0.30000000E+03</rscale>
<asrwt>0</asrwt>
<pdfrwt beam="1">  1        1 0.13860527E+00 0.30000000E+03</pdfrwt>
<pdfrwt beam="2">0</pdfrwt>
<totfact> 0.20576633E+01</totfact>
</mgrwt>
</event>
<event>
 6    1  0.1950139E-004  0.3000000E+03  0.7818608E-02  0.1093470E+00
          1   -1    0    0  502    0  0.00000000000E+00  0.00000000000E+00  0.46470878494E+02  0.46470878494E+02  0.00000000000E+00 0.  1.
         13   -1    0    0    0    0 -0.00000000000E+00 -0.00000000000E+00 -0.10000000000E+04  0.10000000000E+04  0.00000000000E+00 0.  1.
    9000005    2    1    2  501    0  0.10200810705E+02 -0.76720481584E+01 -0.95328258847E+03  0.10337046089E+04  0.39954299897E+03 0.  0.
         13    1    3    3    0    0 -0.13391212665E+03 -0.10062108432E+03 -0.74651756983E+03  0.76507878178E+03  0.00000000000E+00 0.  1.
          1    1    3    3  501    0  0.14411293735E+03  0.92949036160E+02 -0.20676501864E+03  0.26862582707E+03  0.00000000000E+00 0.  1.
         21    1    1    2  502  501 -0.10200810705E+02  0.76720481584E+01 -0.24653303664E+00  0.12766269640E+02  0.00000000000E+00 0. -1.
<mgrwt>
<rscale>  1 0.30000000E+03</rscale>
<asrwt>0</asrwt>
<pdfrwt beam="1">  1        1 0.16898537E+00 0.30000000E+03</pdfrwt>
<pdfrwt beam="2">0</pdfrwt>
<totfact> 0.14451383E+01</totfact>
</mgrwt>
</event>
<event>
 6    1  0.1950139E-004  0.3000000E+03  0.7818608E-02  0.1093470E+00
          1   -1    0    0  502    0  0.00000000000E+00  0.00000000000E+00  0.32262404668E+02  0.32262404668E+02  0.00000000000E+00 0.  1.
         13   -1    0    0    0    0 -0.00000000000E+00 -0.00000000000E+00 -0.10000000000E+04  0.10000000000E+04  0.00000000000E+00 0.  1.
    9000005    2    1    2  501    0 -0.29995246550E+01 -0.95944370606E+01 -0.96851167608E+03  0.10221802634E+04  0.32670563800E+03 0.  0.
         13    1    3    3    0    0 -0.10655184793E+03  0.11230046076E+03 -0.61475666246E+03  0.63394829744E+03  0.00000000000E+00 0.  1.
          3    1    3    3  501    0  0.10355232327E+03 -0.12189489782E+03 -0.35375501362E+03  0.38823196601E+03  0.00000000000E+00 0.  1.
         21    1    1    2  502  501  0.29995246550E+01  0.95944370606E+01  0.77408074702E+00  0.10082141224E+02  0.00000000000E+00 0. -1.
<mgrwt>
<rscale>  1 0.30000000E+03</rscale>
<asrwt>0</asrwt>
<pdfrwt beam="1">  1        1 0.11731808E+00 0.30000000E+03</pdfrwt>
<pdfrwt beam="2">0</pdfrwt>
<totfact> 0.26925558E+01</totfact>
</mgrwt>
</event>
<event>
 6    1  0.1950139E-004  0.3000000E+03  0.7818608E-02  0.1093470E+00
          1   -1    0    0  502    0  0.00000000000E+00  0.00000000000E+00  0.50804826802E+02  0.50804826802E+02  0.00000000000E+00 0.  1.
         13   -1    0    0    0    0 -0.00000000000E+00 -0.00000000000E+00 -0.10000000000E+04  0.10000000000E+04  0.00000000000E+00 0.  1.
    9000005    2    1    2  501    0 -0.55484697347E+02  0.90481157230E+02 -0.77877423929E+03  0.85003459453E+03  0.32373462073E+03 0.  0.
         13    1    3    3    0    0 -0.13800867180E+03 -0.29683786248E+02 -0.61406685280E+03  0.63008382011E+03  0.00000000000E+00 0.  1.
          3    1    3    3  501    0  0.82523974458E+02  0.12016494348E+03 -0.16470738649E+03  0.21995077441E+03  0.00000000000E+00 0.  1.
         21    1    1    2  502  501  0.55484697347E+02 -0.90481157230E+02 -0.17042093391E+03  0.20077023227E+03  0.00000000000E+00 0.  1.
<mgrwt>
<rscale>  1 0.30000000E+03</rscale>
<asrwt>0</asrwt>
<pdfrwt beam="1">  1        1 0.18474521E+00 0.30000000E+03</pdfrwt>
<pdfrwt beam="2">0</pdfrwt>
<totfact> 0.12118527E+01</totfact>
</mgrwt>
</event>
<event>
 6    1  0.1950139E-004  0.3000000E+03  0.7818608E-02  0.1093470E+00
          1   -1    0    0  502    0  0.00000000000E+00  0.00000000000E+00  0.29087178377E+02  0.29087178377E+02  0.00000000000E+00 0.  1.
         13   -1    0    0    0    0 -0.00000000000E+00 -0.00000000000E+00 -0.10000000000E+04  0.10000000000E+04  0.00000000000E+00 0.  1.
    9000005    2    1    2  501    0  0.18614345518E+02  0.84313613252E+01 -0.93816874513E+03  0.99048981761E+03  0.31700457841E+03 0.  0.
         13    1    3    3    0    0  0.92035291748E+02 -0.12556881305E+03 -0.59142593014E+03  0.61157391424E+03  0.00000000000E+00 0.  1.
          1    1    3    3  501    0 -0.73420946230E+02  0.13400017438E+03 -0.34674281499E+03  0.37891590337E+03  0.00000000000E+00 0.  1.
         21    1    1    2  502  501 -0.18614345518E+02 -0.84313613252E+01 -0.32744076495E+02  0.38597360770E+02  0.00000000000E+00 0.  1.
<mgrwt>
<rscale>  1 0.30000000E+03</rscale>
<asrwt>0</asrwt>
<pdfrwt beam="1">  1        1 0.10577178E+00 0.30000000E+03</pdfrwt>
<pdfrwt beam="2">0</pdfrwt>
<totfact> 0.31507723E+01</totfact>
</mgrwt>
</event>
<event>
 6    1  0.1950139E-004  0.3000000E+03  0.7818608E-02  0.1093470E+00
          1   -1    0    0  502    0  0.00000000000E+00  0.00000000000E+00  0.34810623963E+02  0.34810623963E+02  0.00000000000E+00 0.  1.
         13   -1    0    0    0    0 -0.00000000000E+00 -0.00000000000E+00 -0.10000000000E+04  0.10000000000E+04  0.00000000000E+00 0.  1.
    9000005    2    1    2  501    0 -0.28910816142E+02  0.30223685157E+02 -0.90379973272E+03  0.96052741764E+03  0.32250528173E+03 0.  0.
         13    1    3    3    0    0  0.14719776725E+03  0.49842841935E+01 -0.41407140749E+03  0.43948510359E+03  0.00000000000E+00 0.  1.
          3    1    3    3  501    0 -0.17610858339E+03  0.25239400964E+02 -0.48972832522E+03  0.52104231405E+03  0.00000000000E+00 0.  1.
         21    1    1    2  502  501  0.28910816142E+02 -0.30223685157E+02 -0.61389643321E+02  0.74283206323E+02  0.00000000000E+00 0.  1.
<mgrwt>
<rscale>  1 0.30000000E+03</rscale>
<asrwt>0</asrwt>
<pdfrwt beam="1">  1        1 0.12658435E+00 0.30000000E+03</pdfrwt>
<pdfrwt beam="2">0</pdfrwt>
<totfact> 0.23887297E+01</totfact>
</mgrwt>
</event>
<event>
 6    1  0.1950139E-004  0.3000000E+03  0.7818608E-02  0.1093470E+00
          1   -1    0    0  502    0  0.00000000000E+00  0.00000000000E+00  0.63672190912E+02  0.63672190912E+02  0.00000000000E+00 0.  1.
         13   -1    0    0    0    0 -0.00000000000E+00 -0.00000000000E+00 -0.10000000000E+04  0.10000000000E+04  0.00000000000E+00 0.  1.
    9000005    2    1    2  501    0  0.22134510300E+01 -0.31602087961E+02 -0.96345712545E+03  0.10219637849E+04  0.33934754113E+03 0.  0.
         13    1    3    3    0    0  0.66950688349E+02 -0.31212647747E+02 -0.20327423991E+02  0.76614804156E+02  0.00000000000E+00 0.  1.
          3    1    3    3  501    0 -0.64737237319E+02 -0.38944021385E+00 -0.94312970146E+03  0.94534898071E+03  0.00000000000E+00 0.  1.
         21    1    1    2  502  501 -0.22134510300E+01  0.31602087961E+02  0.27129316358E+02  0.41708406047E+02  0.00000000000E+00 0.  1.
<mgrwt>
<rscale>  1 0.30000000E+03</rscale>
<asrwt>0</asrwt>
<pdfrwt beam="1">  1        1 0.23153573E+00 0.30000000E+03</pdfrwt>
<pdfrwt beam="2">0</pdfrwt>
<totfact> 0.72789320E+00</totfact>
</mgrwt>
</event>
<event>
 6    1  0.1950139E-004  0.3000000E+03  0.7818608E-02  0.1093470E+00
          1   -1    0    0  502    0  0.00000000000E+00  0.00000000000E+00  0.31832940949E+02  0.31832940949E+02  0.00000000000E+00 0.  1.
         13   -1    0    0    0    0 -0.00000000000E+00 -0.00000000000E+00 -0.10000000000E+04  0.10000000000E+04  0.00000000000E+00 0.  1.
    9000005    2    1    2  501    0  0.73929174319E+01  0.17830684293E+02 -0.95033047761E+03  0.10055511570E+04  0.32807396135E+03 0.  0.
         13    1    3    3    0    0  0.89962896147E+02  0.65639504356E+02 -0.99351439040E+02  0.14923999348E+03  0.00000000000E+00 0.  1.
          1    1    3    3  501    0 -0.82569978715E+02 -0.47808820063E+02 -0.85097903857E+03  0.85631116351E+03  0.00000000000E+00 0.  1.
         21    1    1    2  502  501 -0.73929174319E+01 -0.17830684293E+02 -0.17836581437E+02  0.26281783955E+02  0.00000000000E+00 0. -1.
<mgrwt>
<rscale>  1 0.30000000E+03</rscale>
<asrwt>0</asrwt>
<pdfrwt beam="1">  1        1 0.11575639E+00 0.30000000E+03</pdfrwt>
<pdfrwt beam="2">0</pdfrwt>
<totfact> 0.27487890E+01</totfact>
</mgrwt>
</event>
<event>
 6    1  0.1950139E-004  0.3000000E+03  0.7818608E-02  0.1093470E+00
          1   -1    0    0  502    0  0.00000000000E+00  0.00000000000E+00  0.30675064689E+02  0.30675064689E+02  0.00000000000E+00 0.  1.
         13   -1    0    0    0    0 -0.00000000000E+00 -0.00000000000E+00 -0.10000000000E+04  0.10000000000E+04  0.00000000000E+00 0.  1.
    9000005    2    1    2  501    0 -0.78395881712E+01 -0.79198100545E+01 -0.96788714290E+03  0.10194389719E+04  0.31988453154E+03 0.  0.
         13    1    3    3    0    0  0.44605974253E+02 -0.11575781098E+03 -0.81863892298E+03  0.82798505419E+03  0.00000000000E+00 0.  1.
          1    1    3    3  501    0 -0.52445562424E+02  0.10783800092E+03 -0.14924821991E+03  0.19145391771E+03  0.00000000000E+00 0.  1.
         21    1    1    2  502  501  0.78395881712E+01  0.79198100545E+01 -0.14377924122E+01  0.11236092782E+02  0.00000000000E+00 0.  1.
<mgrwt>
<rscale>  1 0.30000000E+03</rscale>
<asrwt>0</asrwt>
<pdfrwt beam="1">  1        1 0.11154592E+00 0.30000000E+03</pdfrwt>
<pdfrwt beam="2">0</pdfrwt>
<totfact> 0.29088656E+01</totfact>
</mgrwt>
</event>
<event>
 6    1  0.1950139E-004  0.3000000E+03  0.7818608E-02  0.1093470E+00
          1   -1    0    0  502    0  0.00000000000E+00  0.00000000000E+00  0.30240082750E+02  0.30240082750E+02  0.00000000000E+00 0.  1.
         13   -1    0    0    0    0 -0.00000000000E+00 -0.00000000000E+00 -0.10000000000E+04  0.10000000000E+04  0.00000000000E+00 0.  1.
    9000005    2    1    2  501    0  0.23012819335E+01 -0.10727012592E+02 -0.97245882981E+03  0.10189419047E+04  0.30404944470E+03 0.  0.
         13    1    3    3    0    0  0.15029110341E+03 -0.15066077333E+02 -0.39759483553E+03  0.42531876950E+03  0.00000000000E+00 0.  1.
          3    1    3    3  501    0 -0.14798982148E+03  0.43390647410E+01 -0.57486399428E+03  0.59362313522E+03  0.00000000000E+00 0.  1.
         21    1    1    2  502  501 -0.23012819335E+01  0.10727012592E+02  0.26989125640E+01  0.11298178026E+02  0.00000000000E+00 0.  1.
<mgrwt>
<rscale>  1 0.30000000E+03</rscale>
<asrwt>0</asrwt>
<pdfrwt beam="1">  1        1 0.10996417E+00 0.30000000E+03</pdfrwt>
<pdfrwt beam="2">0</pdfrwt>
<totfact> 0.29724256E+01</totfact>
</mgrwt>
</event>
<event>
 6    1  0.1950139E-004  0.3000000E+03  0.7818608E-02  0.1093470E+00
          1   -1    0    0  502    0  0.00000000000E+00  0.00000000000E+00  0.34556242990E+02  0.34556242990E+02  0.00000000000E+00 0.  1.
         13   -1    0    0    0    0 -0.00000000000E+00 -0.00000000000E+00 -0.10000000000E+04  0.10000000000E+04  0.00000000000E+00 0.  1.
    9000005    2    1    2  501    0  0.44951043327E+01  0.97009817541E+01 -0.97388588449E+03  0.10209333018E+04  0.30616462196E+03 0.  0.
         13    1    3    3    0    0  0.47146333027E+02  0.14647855485E+03 -0.62737313677E+03  0.64596888198E+03  0.00000000000E+00 0.  1.
          3    1    3    3  501    0 -0.42651228694E+02 -0.13677757309E+03 -0.34651274772E+03  0.37496441983E+03  0.00000000000E+00 0.  1.
         21    1    1    2  502  501 -0.44951043327E+01 -0.97009817541E+01  0.84421274763E+01  0.13622941176E+02  0.00000000000E+00 0.  1.
<mgrwt>
<rscale>  1 0.30000000E+03</rscale>
<asrwt>0</asrwt>
<pdfrwt beam="1">  1        1 0.12565933E+00 0.30000000E+03</pdfrwt>
<pdfrwt beam="2">0</pdfrwt>
<totfact> 0.24169907E+01</totfact>
</mgrwt>
</event>
<event>
 6    1  0.1950139E-004  0.3000000E+03  0.7818608E-02  0.1093470E+00
          1   -1    0    0  502    0  0.00000000000E+00  0.00000000000E+00  0.34762706982E+02  0.34762706982E+02  0.00000000000E+00 0.  1.
         13   -1    0    0    0    0 -0.00000000000E+00 -0.00000000000E+00 -0.10000000000E+04  0.10000000000E+04  0.00000000000E+00 0.  1.
    9000005    2    1    2  501    0 -0.24962979586E+01  0.15039939912E+02 -0.96503724890E+03  0.10195156970E+04  0.32845537497E+03 0.  0.
         13    1    3    3    0    0 -0.10705356864E+03  0.87901925433E+02 -0.79523952628E+03  0.80721318077E+03  0.00000000000E+00 0.  1.
          3    1    3    3  501    0  0.10455727068E+03 -0.72861985521E+02 -0.16979772262E+03  0.21230251622E+03  0.00000000000E+00 0.  1.
         21    1    1    2  502  501  0.24962979586E+01 -0.15039939912E+02 -0.20004411891E+00  0.15247009992E+02  0.00000000000E+00 0.  1.
<mgrwt>
<rscale>  1 0.30000000E+03</rscale>
<asrwt>0</asrwt>
<pdfrwt beam="1">  1        1 0.12641011E+00 0.30000000E+03</pdfrwt>
<pdfrwt beam="2">0</pdfrwt>
<totfact> 0.23940208E+01</totfact>
</mgrwt>
</event>
<event>
 6    1  0.1950139E-004  0.3000000E+03  0.7818608E-02  0.1093470E+00
          1   -1    0    0  502    0  0.00000000000E+00  0.00000000000E+00  0.32343293665E+02  0.32343293665E+02  0.00000000000E+00 0.  1.
         13   -1    0    0    0    0 -0.00000000000E+00 -0.00000000000E+00 -0.10000000000E+04  0.10000000000E+04  0.00000000000E+00 0.  1.
    9000005    2    1    2  501    0 -0.22159344073E+02  0.60017342453E+01 -0.95133058940E+03  0.10041723967E+04  0.32063258498E+03 0.  0.
         13    1    3    3    0    0 -0.16600345189E+03  0.13217061676E+02 -0.37851709330E+03  0.41352995862E+03  0.00000000000E+00 0.  1.
          3    1    3    3  501    0  0.14384410781E+03 -0.72153274306E+01 -0.57281349610E+03  0.59064243804E+03  0.00000000000E+00 0.  1.
         21    1    1    2  502  501  0.22159344073E+02 -0.60017342453E+01 -0.16326116938E+02  0.28170897003E+02  0.00000000000E+00 0. -1.
<mgrwt>
<rscale>  1 0.30000000E+03</rscale>
<asrwt>0</asrwt>
<pdfrwt beam="1">  1        1 0.11761222E+00 0.30000000E+03</pdfrwt>
<pdfrwt beam="2">0</pdfrwt>
<totfact> 0.26821422E+01</totfact>
</mgrwt>
</event>
<event>
 6    1  0.1950139E-004  0.3000000E+03  0.7818608E-02  0.1093470E+00
          1   -1    0    0  502    0  0.00000000000E+00  0.00000000000E+00  0.35154054398E+02  0.35154054398E+02  0.00000000000E+00 0.  1.
         13   -1    0    0    0    0 -0.00000000000E+00 -0.00000000000E+00 -0.10000000000E+04  0.10000000000E+04  0.00000000000E+00 0.  1.
    9000005    2    1    2  501    0  0.38977392145E+01 -0.17886489587E+02 -0.96246128883E+03  0.10166931371E+04  0.32710561533E+03 0.  0.
         13    1    3    3    0    0  0.13587997928E+03  0.15181198076E+01 -0.77374936383E+03  0.78559133872E+03  0.00000000000E+00 0.  1.
          1    1    3    3  501    0 -0.13198224007E+03 -0.19404609394E+02 -0.18871192501E+03  0.23110179835E+03  0.00000000000E+00 0.  1.
         21    1    1    2  502  501 -0.38977392145E+01  0.17886489587E+02 -0.23846567700E+01  0.18460917329E+02  0.00000000000E+00 0. -1.
<mgrwt>
<rscale>  1 0.30000000E+03</rscale>
<asrwt>0</asrwt>
<pdfrwt beam="1">  1        1 0.12783319E+00 0.30000000E+03</pdfrwt>
<pdfrwt beam="2">0</pdfrwt>
<totfact> 0.23512421E+01</totfact>
</mgrwt>
</event>
<event>
 6    1  0.1950139E-004  0.3000000E+03  0.7818608E-02  0.1093470E+00
          1   -1    0    0  502    0  0.00000000000E+00  0.00000000000E+00  0.28732668102E+02  0.28732668102E+02  0.00000000000E+00 0.  1.
         13   -1    0    0    0    0 -0.00000000000E+00 -0.00000000000E+00 -0.10000000000E+04  0.10000000000E+04  0.00000000000E+00 0.  1.
    9000005    2    1    2  501    0 -0.19295213905E+02  0.37880204833E+01 -0.96090622521E+03  0.10065064019E+04  0.29887741464E+03 0.  0.
         13    1    3    3    0    0 -0.10457354986E+03  0.10840934062E+03 -0.35294667149E+03  0.38374414051E+03  0.00000000000E+00 0.  1.
          3    1    3    3  501    0  0.85278335952E+02 -0.10462132014E+03 -0.60795955372E+03  0.62276226136E+03  0.00000000000E+00 0.  1.
         21    1    1    2  502  501  0.19295213905E+02 -0.37880204833E+01 -0.10361106689E+02  0.22226266232E+02  0.00000000000E+00 0.  1.
<mgrwt>
<rscale>  1 0.30000000E+03</rscale>
<asrwt>0</asrwt>
<pdfrwt beam="1">  1        1 0.10448265E+00 0.30000000E+03</pdfrwt>
<pdfrwt beam="2">0</pdfrwt>
<totfact> 0.32087062E+01</totfact>
</mgrwt>
</event>
<event>
 6    1  0.1950139E-004  0.3000000E+03  0.7818608E-02  0.1093470E+00
          1   -1    0    0  502    0  0.00000000000E+00  0.00000000000E+00  0.28927448025E+02  0.28927448025E+02  0.00000000000E+00 0.  1.
         13   -1    0    0    0    0 -0.00000000000E+00 -0.00000000000E+00 -0.10000000000E+04  0.10000000000E+04  0.00000000000E+00 0.  1.
    9000005    2    1    2  501    0 -0.11778655253E+02  0.45347675064E+01 -0.93649750503E+03  0.99212072707E+03  0.32728681508E+03 0.  0.
         13    1    3    3    0    0  0.15424386085E+03 -0.26609136103E+02 -0.39473672619E+03  0.42463666556E+03  0.00000000000E+00 0.  1.
          1    1    3    3  501    0 -0.16602251610E+03  0.31143903609E+02 -0.54176077884E+03  0.56748406151E+03  0.00000000000E+00 0.  1.
         21    1    1    2  502  501  0.11778655253E+02 -0.45347675064E+01 -0.34575046946E+02  0.36806720952E+02  0.00000000000E+00 0.  1.
<mgrwt>
<rscale>  1 0.30000000E+03</rscale>
<asrwt>0</asrwt>
<pdfrwt beam="1">  1        1 0.10519094E+00 0.30000000E+03</pdfrwt>
<pdfrwt beam="2">0</pdfrwt>
<totfact> 0.31766865E+01</totfact>
</mgrwt>
</event>
<event>
 6    1  0.1950139E-004  0.3000000E+03  0.7818608E-02  0.1093470E+00
          1   -1    0    0  502    0  0.00000000000E+00  0.00000000000E+00  0.37343413953E+02  0.37343413953E+02  0.00000000000E+00 0.  1.
         13   -1    0    0    0    0 -0.00000000000E+00 -0.00000000000E+00 -0.10000000000E+04  0.10000000000E+04  0.00000000000E+00 0.  1.
    9000005    2    1    2  501    0 -0.66514582133E+01  0.10254250523E+02 -0.96975105539E+03  0.10232110735E+04  0.32618154463E+03 0.  0.
         13    1    3    3    0    0 -0.23912069549E+02 -0.88326690330E+02 -0.63335001619E+02  0.11128662869E+03  0.00000000000E+00 0.  1.
          3    1    3    3  501    0  0.17260611336E+02  0.98580940853E+02 -0.90641605377E+03  0.91192444486E+03  0.00000000000E+00 0.  1.
         21    1    1    2  502  501  0.66514582133E+01 -0.10254250523E+02  0.70944693387E+01  0.14132340406E+02  0.00000000000E+00 0.  1.
<mgrwt>
<rscale>  1 0.30000000E+03</rscale>
<asrwt>0</asrwt>
<pdfrwt beam="1">  1        1 0.13579452E+00 0.30000000E+03</pdfrwt>
<pdfrwt beam="2">0</pdfrwt>
<totfact> 0.21293841E+01</totfact>
</mgrwt>
</event>
<event>
 6    1  0.1950139E-004  0.3000000E+03  0.7818608E-02  0.1093470E+00
          1   -1    0    0  502    0  0.00000000000E+00  0.00000000000E+00  0.27791649461E+02  0.27791649461E+02  0.00000000000E+00 0.  1.
         13   -1    0    0    0    0 -0.00000000000E+00 -0.00000000000E+00 -0.10000000000E+04  0.10000000000E+04  0.00000000000E+00 0.  1.
    9000005    2    1    2  501    0  0.14867540503E+02  0.25716407284E+01 -0.93517588152E+03  0.98780339045E+03  0.31776398745E+03 0.  0.
         13    1    3    3    0    0  0.79929351440E+02 -0.14085414712E+02 -0.40671720743E+02  0.90781545467E+02  0.00000000000E+00 0.  1.
          3    1    3    3  501    0 -0.65061810937E+02  0.16657055440E+02 -0.89450416078E+03  0.89702184499E+03  0.00000000000E+00 0.  1.
         21    1    1    2  502  501 -0.14867540503E+02 -0.25716407284E+01 -0.37032469020E+02  0.39988259006E+02  0.00000000000E+00 0. -1.
<mgrwt>
<rscale>  1 0.30000000E+03</rscale>
<asrwt>0</asrwt>
<pdfrwt beam="1">  1        1 0.10106076E+00 0.30000000E+03</pdfrwt>
<pdfrwt beam="2">0</pdfrwt>
<totfact> 0.33702106E+01</totfact>
</mgrwt>
</event>
<event>
 6    1  0.1950139E-004  0.3000000E+03  0.7818608E-02  0.1093470E+00
          1   -1    0    0  502    0  0.00000000000E+00  0.00000000000E+00  0.25077476573E+02  0.25077476573E+02  0.00000000000E+00 0.  1.
         13   -1    0    0    0    0 -0.00000000000E+00 -0.00000000000E+00 -0.10000000000E+04  0.10000000000E+04  0.00000000000E+00 0.  1.
    9000005    2    1    2  501    0  0.17957530720E+02 -0.99860812183E+01 -0.93516546077E+03  0.98032461343E+03  0.29339344568E+03 0.  0.
         13    1    3    3    0    0  0.84092874646E+02  0.13085697532E+02 -0.89608178906E+03  0.90011411484E+03  0.00000000000E+00 0.  1.
          1    1    3    3  501    0 -0.66135343926E+02 -0.23071778751E+02 -0.39083671704E+02  0.80210498595E+02  0.00000000000E+00 0.  1.
         21    1    1    2  502  501 -0.17957530720E+02  0.99860812183E+01 -0.39757062661E+02  0.44752863139E+02  0.00000000000E+00 0.  1.
<mgrwt>
<rscale>  1 0.30000000E+03</rscale>
<asrwt>0</asrwt>
<pdfrwt beam="1">  1        1 0.91191016E-01 0.30000000E+03</pdfrwt>
<pdfrwt beam="2">0</pdfrwt>
<totfact> 0.39094995E+01</totfact>
</mgrwt>
</event>
<event>
 6    1  0.1950139E-004  0.3000000E+03  0.7818608E-02  0.1093470E+00
          1   -1    0    0  502    0  0.00000000000E+00  0.00000000000E+00  0.37301964713E+02  0.37301964713E+02  0.00000000000E+00 0.  1.
         13   -1    0    0    0    0 -0.00000000000E+00 -0.00000000000E+00 -0.10000000000E+04  0.10000000000E+04  0.00000000000E+00 0.  1.
    9000005    2    1    2  501    0  0.11249775980E+02 -0.72203133311E+01 -0.96202009582E+03  0.10239172725E+04  0.35035014735E+03 0.  0.
         13    1    3    3    0    0  0.17590072115E+03 -0.37971377701E+02 -0.42946316551E+03  0.46564095584E+03  0.00000000000E+00 0.  1.
          1    1    3    3  501    0 -0.16465094517E+03  0.30751064369E+02 -0.53255693030E+03  0.55827631664E+03  0.00000000000E+00 0.  1.
         21    1    1    2  502  501 -0.11249775980E+02  0.72203133311E+01 -0.67793947030E+00  0.13384692231E+02  0.00000000000E+00 0.  1.
<mgrwt>
<rscale>  1 0.30000000E+03</rscale>
<asrwt>0</asrwt>
<pdfrwt beam="1">  1        1 0.13564379E+00 0.30000000E+03</pdfrwt>
<pdfrwt beam="2">0</pdfrwt>
<totfact> 0.21333218E+01</totfact>
</mgrwt>
</event>
<event>
 6    1  0.1950139E-004  0.3000000E+03  0.7818608E-02  0.1093470E+00
          1   -1    0    0  502    0  0.00000000000E+00  0.00000000000E+00  0.37088304851E+02  0.37088304851E+02  0.00000000000E+00 0.  1.
         13   -1    0    0    0    0 -0.00000000000E+00 -0.00000000000E+00 -0.10000000000E+04  0.10000000000E+04  0.00000000000E+00 0.  1.
    9000005    2    1    2  501    0  0.22966083155E+02  0.70429240534E+01 -0.96225386863E+03  0.10130575643E+04  0.31587351454E+03 0.  0.
         13    1    3    3    0    0  0.96286581111E+02  0.54386372392E+02 -0.89773892299E+03  0.90452427113E+03  0.00000000000E+00 0.  1.
          3    1    3    3  501    0 -0.73320497957E+02 -0.47343448338E+02 -0.64514945633E+02  0.10853329319E+03  0.00000000000E+00 0.  1.
         21    1    1    2  502  501 -0.22966083155E+02 -0.70429240534E+01 -0.65782652269E+00  0.24030740530E+02  0.00000000000E+00 0. -1.
<mgrwt>
<rscale>  1 0.30000000E+03</rscale>
<asrwt>0</asrwt>
<pdfrwt beam="1">  1        1 0.13486685E+00 0.30000000E+03</pdfrwt>
<pdfrwt beam="2">0</pdfrwt>
<totfact> 0.21537747E+01</totfact>
</mgrwt>
</event>
<event>
 6    1  0.1950139E-004  0.3000000E+03  0.7818608E-02  0.1093470E+00
          1   -1    0    0  502    0  0.00000000000E+00  0.00000000000E+00  0.34971323096E+02  0.34971323096E+02  0.00000000000E+00 0.  1.
         13   -1    0    0    0    0 -0.00000000000E+00 -0.00000000000E+00 -0.10000000000E+04  0.10000000000E+04  0.00000000000E+00 0.  1.
    9000005    2    1    2  501    0  0.11595472436E+02  0.16212035585E+01 -0.96881259795E+03  0.10226667979E+04  0.32728037869E+03 0.  0.
         13    1    3    3    0    0  0.10308214212E+03 -0.45062654255E+02 -0.10867539948E+03  0.15641903108E+03  0.00000000000E+00 0.  1.
          1    1    3    3  501    0 -0.91486669682E+02  0.46683857813E+02 -0.86013719847E+03  0.86624776681E+03  0.00000000000E+00 0.  1.
         21    1    1    2  502  501 -0.11595472436E+02 -0.16212035585E+01  0.37839210477E+01  0.12304525204E+02  0.00000000000E+00 0.  1.
<mgrwt>
<rscale>  1 0.30000000E+03</rscale>
<asrwt>0</asrwt>
<pdfrwt beam="1">  1        1 0.12716872E+00 0.30000000E+03</pdfrwt>
<pdfrwt beam="2">0</pdfrwt>
<totfact> 0.23710937E+01</totfact>
</mgrwt>
</event>
<event>
 6    1  0.1950139E-004  0.3000000E+03  0.7818608E-02  0.1093470E+00
          1   -1    0    0  502    0  0.00000000000E+00  0.00000000000E+00  0.32020982046E+02  0.32020982046E+02  0.00000000000E+00 0.  1.
         13   -1    0    0    0    0 -0.00000000000E+00 -0.00000000000E+00 -0.10000000000E+04  0.10000000000E+04  0.00000000000E+00 0.  1.
    9000005    2    1    2  501    0 -0.17121319540E+02  0.44872347636E+00 -0.94497460775E+03  0.10033409572E+04  0.33678290662E+03 0.  0.
         13    1    3    3    0    0  0.11763113068E+03  0.24912641873E+02 -0.13056582721E+03  0.17749692353E+03  0.00000000000E+00 0.  1.
          1    1    3    3  501    0 -0.13475245021E+03 -0.24463918397E+02 -0.81440878054E+03  0.82584403368E+03  0.00000000000E+00 0.  1.
         21    1    1    2  502  501  0.17121319540E+02 -0.44872347636E+00 -0.23004410200E+02  0.28680024829E+02  0.00000000000E+00 0.  1.
<mgrwt>
<rscale>  1 0.30000000E+03</rscale>
<asrwt>0</asrwt>
<pdfrwt beam="1">  1        1 0.11644018E+00 0.30000000E+03</pdfrwt>
<pdfrwt beam="2">0</pdfrwt>
<totfact> 0.27239691E+01</totfact>
</mgrwt>
</event>
<event>
 6    1  0.1950139E-004  0.3000000E+03  0.7818608E-02  0.1093470E+00
          1   -1    0    0  502    0  0.00000000000E+00  0.00000000000E+00  0.30023166325E+02  0.30023166325E+02  0.00000000000E+00 0.  1.
         13   -1    0    0    0    0 -0.00000000000E+00 -0.00000000000E+00 -0.10000000000E+04  0.10000000000E+04  0.00000000000E+00 0.  1.
    9000005    2    1    2  501    0  0.16963973407E+02  0.34500434591E+01 -0.94400095792E+03  0.99880738001E+03  0.32585072446E+03 0.  0.
         13    1    3    3    0    0 -0.21604532952E+02  0.11283321638E+03 -0.82380404215E+03  0.83177592561E+03  0.00000000000E+00 0.  1.
          3    1    3    3  501    0  0.38568506359E+02 -0.10938317292E+03 -0.12019691577E+03  0.16703145440E+03  0.00000000000E+00 0.  1.
         21    1    1    2  502  501 -0.16963973407E+02 -0.34500434591E+01 -0.25975875757E+02  0.31215786311E+02  0.00000000000E+00 0.  1.
<mgrwt>
<rscale>  1 0.30000000E+03</rscale>
<asrwt>0</asrwt>
<pdfrwt beam="1">  1        1 0.10917538E+00 0.30000000E+03</pdfrwt>
<pdfrwt beam="2">0</pdfrwt>
<totfact> 0.30048597E+01</totfact>
</mgrwt>
</event>
<event>
 6    1  0.1950139E-004  0.3000000E+03  0.7818608E-02  0.1093470E+00
          1   -1    0    0  502    0  0.00000000000E+00  0.00000000000E+00  0.25968857216E+02  0.25968857216E+02  0.00000000000E+00 0.  1.
         13   -1    0    0    0    0 -0.00000000000E+00 -0.00000000000E+00 -0.10000000000E+04  0.10000000000E+04  0.00000000000E+00 0.  1.
    9000005    2    1    2  501    0  0.69894314401E+01  0.65281763620E+01 -0.95409626510E+03  0.10038584844E+04  0.31199471847E+03 0.  0.
         13    1    3    3    0    0  0.14561030816E+02 -0.43492187714E+02 -0.95212590993E+03  0.95322995252E+03  0.00000000000E+00 0.  1.
          1    1    3    3  501    0 -0.75715993761E+01  0.50020364076E+02 -0.19703551649E+01  0.50628531865E+02  0.00000000000E+00 0.  1.
         21    1    1    2  502  501 -0.69894314401E+01 -0.65281763620E+01 -0.19934877687E+02  0.22110372835E+02  0.00000000000E+00 0.  1.
<mgrwt>
<rscale>  1 0.30000000E+03</rscale>
<asrwt>0</asrwt>
<pdfrwt beam="1">  1        1 0.94432407E-01 0.30000000E+03</pdfrwt>
<pdfrwt beam="2">0</pdfrwt>
<totfact> 0.37190291E+01</totfact>
</mgrwt>
</event>
<event>
 6    1  0.1950139E-004  0.3000000E+03  0.7818608E-02  0.1093470E+00
          1   -1    0    0  502    0  0.00000000000E+00  0.00000000000E+00  0.38640848667E+02  0.38640848667E+02  0.00000000000E+00 0.  1.
         13   -1    0    0    0    0 -0.00000000000E+00 -0.00000000000E+00 -0.10000000000E+04  0.10000000000E+04  0.00000000000E+00 0.  1.
    9000005    2    1    2  501    0 -0.96531914641E+01  0.25070767499E+02 -0.95441724550E+03  0.10108934606E+04  0.33207165293E+03 0.  0.
         13    1    3    3    0    0  0.12067371574E+03 -0.27102438412E+02 -0.76604670041E+03  0.77596664558E+03  0.00000000000E+00 0.  1.
          1    1    3    3  501    0 -0.13032690720E+03  0.52173205911E+02 -0.18837054508E+03  0.23492681501E+03  0.00000000000E+00 0.  1.
         21    1    1    2  502  501  0.96531914641E+01 -0.25070767499E+02 -0.69419058363E+01  0.27747388076E+02  0.00000000000E+00 0. -1.
<mgrwt>
<rscale>  1 0.30000000E+03</rscale>
<asrwt>0</asrwt>
<pdfrwt beam="1">  1        1 0.14051247E+00 0.30000000E+03</pdfrwt>
<pdfrwt beam="2">0</pdfrwt>
<totfact> 0.20107535E+01</totfact>
</mgrwt>
</event>
<event>
 6    1  0.1950139E-004  0.3000000E+03  0.7818608E-02  0.1093470E+00
          1   -1    0    0  502    0  0.00000000000E+00  0.00000000000E+00  0.50563713288E+02  0.50563713288E+02  0.00000000000E+00 0.  1.
         13   -1    0    0    0    0 -0.00000000000E+00 -0.00000000000E+00 -0.10000000000E+04  0.10000000000E+04  0.00000000000E+00 0.  1.
    9000005    2    1    2  501    0 -0.12306549900E+02 -0.15830825494E+02 -0.97202762433E+03  0.10203571785E+04  0.30965949544E+03 0.  0.
         13    1    3    3    0    0 -0.18122596971E+02 -0.16033169488E+03 -0.42697809014E+03  0.45644821214E+03  0.00000000000E+00 0.  1.
          1    1    3    3  501    0  0.58160470712E+01  0.14450086939E+03 -0.54504953420E+03  0.56390896640E+03  0.00000000000E+00 0.  1.
         21    1    1    2  502  501  0.12306549900E+02  0.15830825494E+02  0.22591337622E+02  0.30206534753E+02  0.00000000000E+00 0.  1.
<mgrwt>
<rscale>  1 0.30000000E+03</rscale>
<asrwt>0</asrwt>
<pdfrwt beam="1">  1        1 0.18386844E+00 0.30000000E+03</pdfrwt>
<pdfrwt beam="2">0</pdfrwt>
<totfact> 0.12236870E+01</totfact>
</mgrwt>
</event>
<event>
 6    1  0.1950139E-004  0.3000000E+03  0.7818608E-02  0.1093470E+00
          1   -1    0    0  502    0  0.00000000000E+00  0.00000000000E+00  0.30440710996E+02  0.30440710996E+02  0.00000000000E+00 0.  1.
         13   -1    0    0    0    0 -0.00000000000E+00 -0.00000000000E+00 -0.10000000000E+04  0.10000000000E+04  0.00000000000E+00 0.  1.
    9000005    2    1    2  501    0  0.11195207869E+02 -0.83814919512E+01 -0.96272495879E+03  0.10148750386E+04  0.32083705473E+03 0.  0.
         13    1    3    3    0    0 -0.54796394752E+02  0.13281896976E+03 -0.64716741758E+03  0.66292472422E+03  0.00000000000E+00 0.  1.
          3    1    3    3  501    0  0.65991602621E+02 -0.14120046171E+03 -0.31555754120E+03  0.35195031441E+03  0.00000000000E+00 0.  1.
         21    1    1    2  502  501 -0.11195207869E+02  0.83814919512E+01 -0.68343302186E+01  0.15565672362E+02  0.00000000000E+00 0. -1.
<mgrwt>
<rscale>  1 0.30000000E+03</rscale>
<asrwt>0</asrwt>
<pdfrwt beam="1">  1        1 0.11069373E+00 0.30000000E+03</pdfrwt>
<pdfrwt beam="2">0</pdfrwt>
<totfact> 0.29428678E+01</totfact>
</mgrwt>
</event>
<event>
 6    1  0.1950139E-004  0.3000000E+03  0.7818608E-02  0.1093470E+00
          1   -1    0    0  502    0  0.00000000000E+00  0.00000000000E+00  0.58789887916E+02  0.58789887916E+02  0.00000000000E+00 0.  1.
         13   -1    0    0    0    0 -0.00000000000E+00 -0.00000000000E+00 -0.10000000000E+04  0.10000000000E+04  0.00000000000E+00 0.  1.
    9000005    2    1    2  501    0 -0.22217509064E+02 -0.75159355642E+02 -0.91867531669E+03  0.97724012732E+03  0.32386939113E+03 0.  0.
         13    1    3    3    0    0  0.10310936533E+03 -0.68996180856E+02 -0.78168166615E+03  0.79146588138E+03  0.00000000000E+00 0.  1.
          3    1    3    3  501    0 -0.12532687439E+03 -0.61631747866E+01 -0.13699365053E+03  0.18577424594E+03  0.00000000000E+00 0.  1.
         21    1    1    2  502  501  0.22217509064E+02  0.75159355642E+02 -0.22534795398E+02  0.81549760596E+02  0.00000000000E+00 0. -1.
<mgrwt>
<rscale>  1 0.30000000E+03</rscale>
<asrwt>0</asrwt>
<pdfrwt beam="1">  1        1 0.21378186E+00 0.30000000E+03</pdfrwt>
<pdfrwt beam="2">0</pdfrwt>
<totfact> 0.88164148E+00</totfact>
</mgrwt>
</event>
<event>
 6    1  0.1950139E-004  0.3000000E+03  0.7818608E-02  0.1093470E+00
          1   -1    0    0  502    0  0.00000000000E+00  0.00000000000E+00  0.47897487555E+02  0.47897487555E+02  0.00000000000E+00 0.  1.
         13   -1    0    0    0    0 -0.00000000000E+00 -0.00000000000E+00 -0.10000000000E+04  0.10000000000E+04  0.00000000000E+00 0.  1.
    9000005    2    1    2  501    0  0.94478948828E+01 -0.75605778423E+01 -0.97660613729E+03  0.10205688819E+04  0.29606565206E+03 0.  0.
         13    1    3    3    0    0  0.13451816381E+03  0.29328566053E+02 -0.71649538987E+03  0.72960327911E+03  0.00000000000E+00 0.  1.
          1    1    3    3  501    0 -0.12507026892E+03 -0.36889143895E+02 -0.26011074742E+03  0.29096560283E+03  0.00000000000E+00 0.  1.
         21    1    1    2  502  501 -0.94478948828E+01  0.75605778423E+01  0.24503624841E+02  0.27328605624E+02  0.00000000000E+00 0.  1.
<mgrwt>
<rscale>  1 0.30000000E+03</rscale>
<asrwt>0</asrwt>
<pdfrwt beam="1">  1        1 0.17417305E+00 0.30000000E+03</pdfrwt>
<pdfrwt beam="2">0</pdfrwt>
<totfact> 0.13633475E+01</totfact>
</mgrwt>
</event>
<event>
 6    1  0.1950139E-004  0.3000000E+03  0.7818608E-02  0.1093470E+00
          1   -1    0    0  502    0  0.00000000000E+00  0.00000000000E+00  0.79451753175E+02  0.79451753175E+02  0.00000000000E+00 0.  1.
         13   -1    0    0    0    0 -0.00000000000E+00 -0.00000000000E+00 -0.10000000000E+04  0.10000000000E+04  0.00000000000E+00 0.  1.
    9000005    2    1    2  501    0  0.13494727794E+03  0.65353404011E+01 -0.86963212087E+03  0.93507055503E+03  0.31598012394E+03 0.  0.
         13    1    3    3    0    0  0.21154416371E+03 -0.80311708131E+02 -0.53159732207E+03  0.57775134487E+03  0.00000000000E+00 0.  1.
          1    1    3    3  501    0 -0.76596885770E+02  0.86847048532E+02 -0.33803479880E+03  0.35731921016E+03  0.00000000000E+00 0.  1.
         21    1    1    2  502  501 -0.13494727794E+03 -0.65353404011E+01 -0.50916125952E+02  0.14438119815E+03  0.00000000000E+00 0.  1.
<mgrwt>
<rscale>  1 0.30000000E+03</rscale>
<asrwt>0</asrwt>
<pdfrwt beam="1">  1        1 0.28891608E+00 0.30000000E+03</pdfrwt>
<pdfrwt beam="2">0</pdfrwt>
<totfact> 0.39205748E+00</totfact>
</mgrwt>
</event>
<event>
 6    1  0.1950139E-004  0.3000000E+03  0.7818608E-02  0.1093470E+00
          1   -1    0    0  502    0  0.00000000000E+00  0.00000000000E+00  0.26674423875E+02  0.26674423875E+02  0.00000000000E+00 0.  1.
         13   -1    0    0    0    0 -0.00000000000E+00 -0.00000000000E+00 -0.10000000000E+04  0.10000000000E+04  0.00000000000E+00 0.  1.
    9000005    2    1    2  501    0  0.24222110289E+01  0.82689934825E+01 -0.95033339488E+03  0.10021207325E+04  0.31786499935E+03 0.  0.
         13    1    3    3    0    0 -0.98116531931E+02 -0.82666590227E+02 -0.18661166906E+03  0.22646088847E+03  0.00000000000E+00 0.  1.
          1    1    3    3  501    0  0.10053874296E+03  0.90935583709E+02 -0.76372172582E+03  0.77565984407E+03  0.00000000000E+00 0.  1.
         21    1    1    2  502  501 -0.24222110289E+01 -0.82689934825E+01 -0.22992181246E+02  0.24553691330E+02  0.00000000000E+00 0. -1.
<mgrwt>
<rscale>  1 0.30000000E+03</rscale>
<asrwt>0</asrwt>
<pdfrwt beam="1">  1        1 0.96998110E-01 0.30000000E+03</pdfrwt>
<pdfrwt beam="2">0</pdfrwt>
<totfact> 0.35779286E+01</totfact>
</mgrwt>
</event>
<event>
 6    1  0.1950139E-004  0.3000000E+03  0.7818608E-02  0.1093470E+00
          1   -1    0    0  502    0  0.00000000000E+00  0.00000000000E+00  0.43392935480E+02  0.43392935480E+02  0.00000000000E+00 0.  1.
         13   -1    0    0    0    0 -0.00000000000E+00 -0.00000000000E+00 -0.10000000000E+04  0.10000000000E+04  0.00000000000E+00 0.  1.
    9000005    2    1    2  501    0  0.20831676902E+02  0.35250328324E+01 -0.96244341381E+03  0.10214738207E+04  0.34156266920E+03 0.  0.
         13    1    3    3    0    0 -0.77493209525E+02 -0.10937764033E+03 -0.17776942559E+03  0.22264463704E+03  0.00000000000E+00 0.  1.
          1    1    3    3  501    0  0.98324886427E+02  0.11290267316E+03 -0.78467398823E+03  0.79882918368E+03  0.00000000000E+00 0.  1.
         21    1    1    2  502  501 -0.20831676902E+02 -0.35250328324E+01  0.58363492947E+01  0.21919114766E+02  0.00000000000E+00 0.  1.
<mgrwt>
<rscale>  1 0.30000000E+03</rscale>
<asrwt>0</asrwt>
<pdfrwt beam="1">  1        1 0.15779283E+00 0.30000000E+03</pdfrwt>
<pdfrwt beam="2">0</pdfrwt>
<totfact> 0.16413117E+01</totfact>
</mgrwt>
</event>
<event>
 6    1  0.1950139E-004  0.3000000E+03  0.7818608E-02  0.1093470E+00
          1   -1    0    0  502    0  0.00000000000E+00  0.00000000000E+00  0.27294956986E+02  0.27294956986E+02  0.00000000000E+00 0.  1.
         13   -1    0    0    0    0 -0.00000000000E+00 -0.00000000000E+00 -0.10000000000E+04  0.10000000000E+04  0.00000000000E+00 0.  1.
    9000005    2    1    2  501    0  0.52726166516E+01  0.83501562010E+01 -0.95525367406E+03  0.10072431273E+04  0.31926730198E+03 0.  0.
         13    1    3    3    0    0  0.12569250148E+03  0.83074105591E+02 -0.69256368603E+03  0.70876256331E+03  0.00000000000E+00 0.  1.
          1    1    3    3  501    0 -0.12041988482E+03 -0.74723949390E+02 -0.26268998803E+03  0.29848056400E+03  0.00000000000E+00 0.  1.
         21    1    1    2  502  501 -0.52726166516E+01 -0.83501562010E+01 -0.17451368953E+02  0.20051829674E+02  0.00000000000E+00 0.  1.
<mgrwt>
<rscale>  1 0.30000000E+03</rscale>
<asrwt>0</asrwt>
<pdfrwt beam="1">  1        1 0.99254598E-01 0.30000000E+03</pdfrwt>
<pdfrwt beam="2">0</pdfrwt>
<totfact> 0.34602992E+01</totfact>
</mgrwt>
</event>
<event>
 6    1  0.1950139E-004  0.3000000E+03  0.7818608E-02  0.1093470E+00
          1   -1    0    0  502    0  0.00000000000E+00  0.00000000000E+00  0.36431470921E+02  0.36431470921E+02  0.00000000000E+00 0.  1.
         13   -1    0    0    0    0 -0.00000000000E+00 -0.00000000000E+00 -0.10000000000E+04  0.10000000000E+04  0.00000000000E+00 0.  1.
    9000005    2    1    2  501    0 -0.14645944264E+02  0.10348239312E+02 -0.96792496155E+03  0.10179769798E+04  0.31476469049E+03 0.  0.
         13    1    3    3    0    0  0.53732996356E+02  0.15001880193E+03 -0.51589599599E+03  0.53994588109E+03  0.00000000000E+00 0.  1.
          3    1    3    3  501    0 -0.68378940620E+02 -0.13967056262E+03 -0.45202896556E+03  0.47803109867E+03  0.00000000000E+00 0.  1.
         21    1    1    2  502  501  0.14645944264E+02 -0.10348239312E+02  0.43564324739E+01  0.18454491165E+02  0.00000000000E+00 0.  1.
<mgrwt>
<rscale>  1 0.30000000E+03</rscale>
<asrwt>0</asrwt>
<pdfrwt beam="1">  1        1 0.13247836E+00 0.30000000E+03</pdfrwt>
<pdfrwt beam="2">0</pdfrwt>
<totfact> 0.22183044E+01</totfact>
</mgrwt>
</event>
<event>
 6    1  0.1950139E-004  0.3000000E+03  0.7818608E-02  0.1093470E+00
          1   -1    0    0  502    0  0.00000000000E+00  0.00000000000E+00  0.34527157997E+02  0.34527157997E+02  0.00000000000E+00 0.  1.
         13   -1    0    0    0    0 -0.00000000000E+00 -0.00000000000E+00 -0.10000000000E+04  0.10000000000E+04  0.00000000000E+00 0.  1.
    9000005    2    1    2  501    0 -0.18228856281E+02 -0.35045126823E+02 -0.89515391099E+03  0.95387231205E+03  0.32712598678E+03 0.  0.
         13    1    3    3    0    0  0.92240351345E+02 -0.47230433854E+02 -0.80253955036E+03  0.80920252483E+03  0.00000000000E+00 0.  1.
          3    1    3    3  501    0 -0.11046920763E+03  0.12185307031E+02 -0.92614360628E+02  0.14466978722E+03  0.00000000000E+00 0.  1.
         21    1    1    2  502  501  0.18228856281E+02  0.35045126823E+02 -0.70318931016E+02  0.80654845946E+02  0.00000000000E+00 0.  1.
<mgrwt>
<rscale>  1 0.30000000E+03</rscale>
<asrwt>0</asrwt>
<pdfrwt beam="1">  1        1 0.12555357E+00 0.30000000E+03</pdfrwt>
<pdfrwt beam="2">0</pdfrwt>
<totfact> 0.24202490E+01</totfact>
</mgrwt>
</event>
<event>
 6    1  0.1950139E-004  0.3000000E+03  0.7818608E-02  0.1093470E+00
          1   -1    0    0  502    0  0.00000000000E+00  0.00000000000E+00  0.10801207184E+03  0.10801207184E+03  0.00000000000E+00 0.  1.
         13   -1    0    0    0    0 -0.00000000000E+00 -0.00000000000E+00 -0.10000000000E+04  0.10000000000E+04  0.00000000000E+00 0.  1.
    9000005    2    1    2  501    0  0.27330642521E+02 -0.12927114539E+02 -0.93538359460E+03  0.10551229598E+04  0.48726575588E+03 0.  0.
         13    1    3    3    0    0  0.13539459010E+03 -0.10827205290E+03 -0.85854028808E+02  0.19345657583E+03  0.00000000000E+00 0.  1.
          3    1    3    3  501    0 -0.10806394758E+03  0.95344938364E+02 -0.84952956579E+03  0.86166638393E+03  0.00000000000E+00 0.  1.
         21    1    1    2  502  501 -0.27330642521E+02  0.12927114539E+02  0.43395666445E+02  0.52889112085E+02  0.00000000000E+00 0.  1.
<mgrwt>
<rscale>  1 0.30000000E+03</rscale>
<asrwt>0</asrwt>
<pdfrwt beam="1">  1        1 0.39277200E+00 0.30000000E+03</pdfrwt>
<pdfrwt beam="2">0</pdfrwt>
<totfact> 0.11570424E+00</totfact>
</mgrwt>
</event>
<event>
 6    1  0.1950139E-004  0.3000000E+03  0.7818608E-02  0.1093470E+00
          1   -1    0    0  502    0  0.00000000000E+00  0.00000000000E+00  0.53041126324E+02  0.53041126324E+02  0.00000000000E+00 0.  1.
         13   -1    0    0    0    0 -0.00000000000E+00 -0.00000000000E+00 -0.10000000000E+04  0.10000000000E+04  0.00000000000E+00 0.  1.
    9000005    2    1    2  501    0  0.54741020304E+02 -0.19450091539E+02 -0.93773799746E+03  0.99422012733E+03  0.32518644550E+03 0.  0.
         13    1    3    3    0    0 -0.10686760929E+03 -0.44235711568E+02 -0.14851560839E+03  0.18824019239E+03  0.00000000000E+00 0.  1.
          3    1    3    3  501    0  0.16160862960E+03  0.24785620029E+02 -0.78922238907E+03  0.80597993494E+03  0.00000000000E+00 0.  1.
         21    1    1    2  502  501 -0.54741020304E+02  0.19450091539E+02 -0.92208762171E+01  0.58820998997E+02  0.00000000000E+00 0. -1.
<mgrwt>
<rscale>  1 0.30000000E+03</rscale>
<asrwt>0</asrwt>
<pdfrwt beam="1">  1        1 0.19287723E+00 0.30000000E+03</pdfrwt>
<pdfrwt beam="2">0</pdfrwt>
<totfact> 0.11076580E+01</totfact>
</mgrwt>
</event>
<event>
 6    1  0.1950139E-004  0.3000000E+03  0.7818608E-02  0.1093470E+00
          1   -1    0    0  502    0  0.00000000000E+00  0.00000000000E+00  0.36052378769E+02  0.36052378769E+02  0.00000000000E+00 0.  1.
         13   -1    0    0    0    0 -0.00000000000E+00 -0.00000000000E+00 -0.10000000000E+04  0.10000000000E+04  0.00000000000E+00 0.  1.
    9000005    2    1    2  501    0  0.12493730910E+02 -0.26808437178E+01 -0.96985987511E+03  0.10219727843E+04  0.32192687712E+03 0.  0.
         13    1    3    3    0    0 -0.13766586307E+03  0.70581247323E+02 -0.49166762773E+03  0.51543249654E+03  0.00000000000E+00 0.  1.
          3    1    3    3  501    0  0.15015959398E+03 -0.73262091041E+02 -0.47819224738E+03  0.50654028774E+03  0.00000000000E+00 0.  1.
         21    1    1    2  502  501 -0.12493730910E+02  0.26808437178E+01  0.59122538827E+01  0.14079594492E+02  0.00000000000E+00 0.  1.
<mgrwt>
<rscale>  1 0.30000000E+03</rscale>
<asrwt>0</asrwt>
<pdfrwt beam="1">  1        1 0.13109984E+00 0.30000000E+03</pdfrwt>
<pdfrwt beam="2">0</pdfrwt>
<totfact> 0.22567104E+01</totfact>
</mgrwt>
</event>
<event>
 6    1  0.1950139E-004  0.3000000E+03  0.7818608E-02  0.1093470E+00
          1   -1    0    0  502    0  0.00000000000E+00  0.00000000000E+00  0.53852920616E+02  0.53852920616E+02  0.00000000000E+00 0.  1.
         13   -1    0    0    0    0 -0.00000000000E+00 -0.00000000000E+00 -0.10000000000E+04  0.10000000000E+04  0.00000000000E+00 0.  1.
    9000005    2    1    2  501    0 -0.55206908315E+01  0.19730910905E+02 -0.97149141481E+03  0.10212627041E+04  0.31426446651E+03 0.  0.
         13    1    3    3    0    0 -0.12887259023E+03  0.23964029408E+02 -0.79596394264E+03  0.80668520329E+03  0.00000000000E+00 0.  1.
          3    1    3    3  501    0  0.12335189940E+03 -0.42331185032E+01 -0.17552747217E+03  0.21457750084E+03  0.00000000000E+00 0.  1.
         21    1    1    2  502  501  0.55206908315E+01 -0.19730910905E+02  0.25344335431E+02  0.32590216490E+02  0.00000000000E+00 0.  1.
<mgrwt>
<rscale>  1 0.30000000E+03</rscale>
<asrwt>0</asrwt>
<pdfrwt beam="1">  1        1 0.19582922E+00 0.30000000E+03</pdfrwt>
<pdfrwt beam="2">0</pdfrwt>
<totfact> 0.10722544E+01</totfact>
</mgrwt>
</event>
<event>
 6    1  0.1950139E-004  0.3000000E+03  0.7818608E-02  0.1093470E+00
          3   -1    0    0  502    0  0.00000000000E+00  0.00000000000E+00  0.32180928347E+02  0.32180928347E+02  0.00000000000E+00 0.  1.
         13   -1    0    0    0    0 -0.00000000000E+00 -0.00000000000E+00 -0.10000000000E+04  0.10000000000E+04  0.00000000000E+00 0.  1.
    9000005    2    1    2  501    0  0.10888703585E+02 -0.77509107062E+00 -0.96457919128E+03  0.10207940299E+04  0.33389859321E+03 0.  0.
         13    1    3    3    0    0  0.11851216302E+03  0.39538319297E+02 -0.13755161317E+03  0.18581942246E+03  0.00000000000E+00 0.  1.
          1    1    3    3  501    0 -0.10762345944E+03 -0.40313410368E+02 -0.82702757811E+03  0.83497460742E+03  0.00000000000E+00 0.  1.
         21    1    1    2  502  501 -0.10888703585E+02  0.77509107062E+00 -0.32398803687E+01  0.11386898468E+02  0.00000000000E+00 0.  1.
<mgrwt>
<rscale>  1 0.30000000E+03</rscale>
<asrwt>0</asrwt>
<pdfrwt beam="1">  1        3 0.11702180E+00 0.30000000E+03</pdfrwt>
<pdfrwt beam="2">0</pdfrwt>
<totfact> 0.25039559E+00</totfact>
</mgrwt>
</event>
<event>
 6    1  0.1950139E-004  0.3000000E+03  0.7818608E-02  0.1093470E+00
          1   -1    0    0  502    0  0.00000000000E+00  0.00000000000E+00  0.24539948140E+02  0.24539948140E+02  0.00000000000E+00 0.  1.
         13   -1    0    0    0    0 -0.00000000000E+00 -0.00000000000E+00 -0.10000000000E+04  0.10000000000E+04  0.00000000000E+00 0.  1.
    9000005    2    1    2  501    0  0.25024412978E+01  0.12054879003E+02 -0.95498076165E+03  0.10006446840E+04  0.29857988244E+03 0.  0.
         13    1    3    3    0    0 -0.10300297468E+03  0.10193875163E+03 -0.32899044114E+03  0.35949385564E+03  0.00000000000E+00 0.  1.
          1    1    3    3  501    0  0.10550541598E+03 -0.89883872624E+02 -0.62599032051E+03  0.64115082838E+03  0.00000000000E+00 0.  1.
         21    1    1    2  502  501 -0.25024412978E+01 -0.12054879003E+02 -0.20479290210E+02  0.23895264128E+02  0.00000000000E+00 0. -1.
<mgrwt>
<rscale>  1 0.30000000E+03</rscale>
<asrwt>0</asrwt>
<pdfrwt beam="1">  1        1 0.89236363E-01 0.30000000E+03</pdfrwt>
<pdfrwt beam="2">0</pdfrwt>
<totfact> 0.40315411E+01</totfact>
</mgrwt>
</event>
<event>
 6    1  0.1950139E-004  0.3000000E+03  0.7818608E-02  0.1093470E+00
          1   -1    0    0  502    0  0.00000000000E+00  0.00000000000E+00  0.45619863529E+02  0.45619863529E+02  0.00000000000E+00 0.  1.
         13   -1    0    0    0    0 -0.00000000000E+00 -0.00000000000E+00 -0.10000000000E+04  0.10000000000E+04  0.00000000000E+00 0.  1.
    9000005    2    1    2  501    0 -0.18255224372E+01  0.16493381399E+02 -0.96917144277E+03  0.10233904482E+04  0.32826720806E+03 0.  0.
         13    1    3    3    0    0  0.21153049261E+02 -0.33855368115E+02  0.11197099349E+02  0.41460975351E+02  0.00000000000E+00 0.  1.
          3    1    3    3  501    0 -0.22978571698E+02  0.50348749514E+02 -0.98036854212E+03  0.98192947288E+03  0.00000000000E+00 0.  1.
         21    1    1    2  502  501  0.18255224372E+01 -0.16493381399E+02  0.14791306303E+02  0.22229415294E+02  0.00000000000E+00 0.  1.
<mgrwt>
<rscale>  1 0.30000000E+03</rscale>
<asrwt>0</asrwt>
<pdfrwt beam="1">  1        1 0.16589076E+00 0.30000000E+03</pdfrwt>
<pdfrwt beam="2">0</pdfrwt>
<totfact> 0.14965493E+01</totfact>
</mgrwt>
</event>
<event>
 6    1  0.1950139E-004  0.3000000E+03  0.7818608E-02  0.1093470E+00
          1   -1    0    0  502    0  0.00000000000E+00  0.00000000000E+00  0.41063495582E+02  0.41063495582E+02  0.00000000000E+00 0.  1.
         13   -1    0    0    0    0 -0.00000000000E+00 -0.00000000000E+00 -0.10000000000E+04  0.10000000000E+04  0.00000000000E+00 0.  1.
    9000005    2    1    2  501    0 -0.27937846987E+02 -0.19611168018E+02 -0.95006999983E+03  0.10057968526E+04  0.32837354167E+03 0.  0.
         13    1    3    3    0    0  0.98440312906E+02  0.61564793019E+02 -0.73109867349E+03  0.74026075765E+03  0.00000000000E+00 0.  1.
          1    1    3    3  501    0 -0.12637815989E+03 -0.81175961037E+02 -0.21897132634E+03  0.26553609492E+03  0.00000000000E+00 0.  1.
         21    1    1    2  502  501  0.27937846987E+02  0.19611168018E+02 -0.88665045906E+01  0.35266643006E+02  0.00000000000E+00 0.  1.
<mgrwt>
<rscale>  1 0.30000000E+03</rscale>
<asrwt>0</asrwt>
<pdfrwt beam="1">  1        1 0.14932212E+00 0.30000000E+03</pdfrwt>
<pdfrwt beam="2">0</pdfrwt>
<totfact> 0.18108243E+01</totfact>
</mgrwt>
</event>
<event>
 6    1  0.1950139E-004  0.3000000E+03  0.7818608E-02  0.1093470E+00
          1   -1    0    0  502    0  0.00000000000E+00  0.00000000000E+00  0.62604368575E+02  0.62604368575E+02  0.00000000000E+00 0.  1.
         13   -1    0    0    0    0 -0.00000000000E+00 -0.00000000000E+00 -0.10000000000E+04  0.10000000000E+04  0.00000000000E+00 0.  1.
    9000005    2    1    2  501    0  0.91773470742E+02  0.19218393042E+02 -0.89976987642E+03  0.96157262107E+03  0.32595146652E+03 0.  0.
         13    1    3    3    0    0  0.15497601006E+03  0.69384166384E+02 -0.84993969234E+03  0.86673479615E+03  0.00000000000E+00 0.  1.
          3    1    3    3  501    0 -0.63202539319E+02 -0.50165773342E+02 -0.49830184077E+02  0.94837824925E+02  0.00000000000E+00 0.  1.
         21    1    1    2  502  501 -0.91773470742E+02 -0.19218393042E+02 -0.37625755006E+02  0.10103174750E+03  0.00000000000E+00 0.  1.
<mgrwt>
<rscale>  1 0.30000000E+03</rscale>
<asrwt>0</asrwt>
<pdfrwt beam="1">  1        1 0.22765273E+00 0.30000000E+03</pdfrwt>
<pdfrwt beam="2">0</pdfrwt>
<totfact> 0.75900914E+00</totfact>
</mgrwt>
</event>
<event>
 6    1  0.1950139E-004  0.3000000E+03  0.7818608E-02  0.1093470E+00
          1   -1    0    0  502    0  0.00000000000E+00  0.00000000000E+00  0.53514702474E+02  0.53514702474E+02  0.00000000000E+00 0.  1.
         13   -1    0    0    0    0 -0.00000000000E+00 -0.00000000000E+00 -0.10000000000E+04  0.10000000000E+04  0.00000000000E+00 0.  1.
    9000005    2    1    2  501    0  0.14062313531E+01  0.12141780521E+02 -0.97545085304E+03  0.10220758137E+04  0.30493475030E+03 0.  0.
         13    1    3    3    0    0 -0.29339563603E+02 -0.10686464677E+03 -0.80124799311E+03  0.80887527419E+03  0.00000000000E+00 0.  1.
          1    1    3    3  501    0  0.30745794956E+02  0.11900642729E+03 -0.17420285993E+03  0.21320053952E+03  0.00000000000E+00 0.  1.
         21    1    1    2  502  501 -0.14062313531E+01 -0.12141780521E+02  0.28965555514E+02  0.31438888770E+02  0.00000000000E+00 0. -1.
<mgrwt>
<rscale>  1 0.30000000E+03</rscale>
<asrwt>0</asrwt>
<pdfrwt beam="1">  1        1 0.19459933E+00 0.30000000E+03</pdfrwt>
<pdfrwt beam="2">0</pdfrwt>
<totfact> 0.10868496E+01</totfact>
</mgrwt>
</event>
<event>
 6    1  0.1950139E-004  0.3000000E+03  0.7818608E-02  0.1093470E+00
          1   -1    0    0  502    0  0.00000000000E+00  0.00000000000E+00  0.28027571563E+02  0.28027571563E+02  0.00000000000E+00 0.  1.
         13   -1    0    0    0    0 -0.00000000000E+00 -0.00000000000E+00 -0.10000000000E+04  0.10000000000E+04  0.00000000000E+00 0.  1.
    9000005    2    1    2  501    0  0.22147196988E+01 -0.14715269017E+02 -0.93202697275E+03  0.98540030851E+03  0.31955914311E+03 0.  0.
         13    1    3    3    0    0 -0.74210165544E+02 -0.92746001548E+02 -0.82138611739E+03  0.82993019184E+03  0.00000000000E+00 0.  1.
          1    1    3    3  501    0  0.76424885243E+02  0.78030732532E+02 -0.11064085536E+03  0.15547011667E+03  0.00000000000E+00 0.  1.
         21    1    1    2  502  501 -0.22147196988E+01  0.14715269017E+02 -0.39945455686E+02  0.42627263054E+02  0.00000000000E+00 0.  1.
<mgrwt>
<rscale>  1 0.30000000E+03</rscale>
<asrwt>0</asrwt>
<pdfrwt beam="1">  1        1 0.10191866E+00 0.30000000E+03</pdfrwt>
<pdfrwt beam="2">0</pdfrwt>
<totfact> 0.33286234E+01</totfact>
</mgrwt>
</event>
<event>
 6    1  0.1950139E-004  0.3000000E+03  0.7818608E-02  0.1093470E+00
          3   -1    0    0  502    0  0.00000000000E+00  0.00000000000E+00  0.17761627210E+02  0.17761627210E+02  0.00000000000E+00 0.  1.
         13   -1    0    0    0    0 -0.00000000000E+00 -0.00000000000E+00 -0.10000000000E+04  0.10000000000E+04  0.00000000000E+00 0.  1.
    9000005    2    1    2  501    0 -0.17543530170E+02 -0.67720374566E+01 -0.96030487905E+03  0.98887020825E+03  0.23521307804E+03 0.  0.
         13    1    3    3    0    0 -0.88407495458E+02 -0.85128212552E+02 -0.38976009003E+03  0.40862651114E+03  0.00000000000E+00 0.  1.
          1    1    3    3  501    0  0.70863965288E+02  0.78356175096E+02 -0.57054478903E+03  0.58024369711E+03  0.00000000000E+00 0.  1.
         21    1    1    2  502  501  0.17543530170E+02  0.67720374566E+01 -0.21933493737E+02  0.28891418962E+02  0.00000000000E+00 0. -1.
<mgrwt>
<rscale>  1 0.30000000E+03</rscale>
<asrwt>0</asrwt>
<pdfrwt beam="1">  1        3 0.64587872E-01 0.30000000E+03</pdfrwt>
<pdfrwt beam="2">0</pdfrwt>
<totfact> 0.10527967E+01</totfact>
</mgrwt>
</event>
<event>
 6    1  0.1950139E-004  0.3000000E+03  0.7818608E-02  0.1093470E+00
          1   -1    0    0  502    0  0.00000000000E+00  0.00000000000E+00  0.29165863214E+02  0.29165863214E+02  0.00000000000E+00 0.  1.
         13   -1    0    0    0    0 -0.00000000000E+00 -0.00000000000E+00 -0.10000000000E+04  0.10000000000E+04  0.00000000000E+00 0.  1.
    9000005    2    1    2  501    0  0.95610673485E+01 -0.73996986472E+01 -0.95005333280E+03  0.10051239963E+04  0.32791270681E+03 0.  0.
         13    1    3    3    0    0  0.85095095927E+02  0.11088582798E+03 -0.73606105344E+03  0.74921473329E+03  0.00000000000E+00 0.  1.
          1    1    3    3  501    0 -0.75534028578E+02 -0.11828552662E+03 -0.21399227936E+03  0.25590926304E+03  0.00000000000E+00 0.  1.
         21    1    1    2  502  501 -0.95610673485E+01  0.73996986472E+01 -0.20780803986E+02  0.24041866883E+02  0.00000000000E+00 0.  1.
<mgrwt>
<rscale>  1 0.30000000E+03</rscale>
<asrwt>0</asrwt>
<pdfrwt beam="1">  1        1 0.10605791E+00 0.30000000E+03</pdfrwt>
<pdfrwt beam="2">0</pdfrwt>
<totfact> 0.31381187E+01</totfact>
</mgrwt>
</event>
<event>
 6    1  0.1950139E-004  0.3000000E+03  0.7818608E-02  0.1093470E+00
          1   -1    0    0  502    0  0.00000000000E+00  0.00000000000E+00  0.31190875391E+02  0.31190875391E+02  0.00000000000E+00 0.  1.
         13   -1    0    0    0    0 -0.00000000000E+00 -0.00000000000E+00 -0.10000000000E+04  0.10000000000E+04  0.00000000000E+00 0.  1.
    9000005    2    1    2  501    0 -0.47341337619E+01 -0.15108439510E+02 -0.95721294412E+03  0.10115656781E+04  0.32673815777E+03 0.  0.
         13    1    3    3    0    0  0.12870289023E+03  0.26735149522E+02 -0.75093355283E+03  0.76235188918E+03  0.00000000000E+00 0.  1.
          3    1    3    3  501    0 -0.13343702399E+03 -0.41843589031E+02 -0.20627939129E+03  0.24921378892E+03  0.00000000000E+00 0.  1.
         21    1    1    2  502  501  0.47341337619E+01  0.15108439510E+02 -0.11596180485E+02  0.19625197292E+02  0.00000000000E+00 0.  1.
<mgrwt>
<rscale>  1 0.30000000E+03</rscale>
<asrwt>0</asrwt>
<pdfrwt beam="1">  1        1 0.11342160E+00 0.30000000E+03</pdfrwt>
<pdfrwt beam="2">0</pdfrwt>
<totfact> 0.28359636E+01</totfact>
</mgrwt>
</event>
<event>
 6    1  0.1950139E-004  0.3000000E+03  0.7818608E-02  0.1093470E+00
          1   -1    0    0  502    0  0.00000000000E+00  0.00000000000E+00  0.30370612046E+02  0.30370612046E+02  0.00000000000E+00 0.  1.
         13   -1    0    0    0    0 -0.00000000000E+00 -0.00000000000E+00 -0.10000000000E+04  0.10000000000E+04  0.00000000000E+00 0.  1.
    9000005    2    1    2  501    0 -0.95889843528E+01 -0.62055964595E+01 -0.96554123761E+03  0.10182392056E+04  0.32312650822E+03 0.  0.
         13    1    3    3    0    0  0.90623719118E+02  0.11556844435E+03 -0.63831283590E+03  0.65499007647E+03  0.00000000000E+00 0.  1.
          3    1    3    3  501    0 -0.10021270347E+03 -0.12177404081E+03 -0.32722840171E+03  0.36324912917E+03  0.00000000000E+00 0.  1.
         21    1    1    2  502  501  0.95889843528E+01  0.62055964595E+01 -0.40881503428E+01  0.12131406413E+02  0.00000000000E+00 0.  1.
<mgrwt>
<rscale>  1 0.30000000E+03</rscale>
<asrwt>0</asrwt>
<pdfrwt beam="1">  1        1 0.11043882E+00 0.30000000E+03</pdfrwt>
<pdfrwt beam="2">0</pdfrwt>
<totfact> 0.29531477E+01</totfact>
</mgrwt>
</event>
<event>
 6    1  0.1950139E-004  0.3000000E+03  0.7818608E-02  0.1093470E+00
          1   -1    0    0  502    0  0.00000000000E+00  0.00000000000E+00  0.46961574877E+02  0.46961574877E+02  0.00000000000E+00 0.  1.
         13   -1    0    0    0    0 -0.00000000000E+00 -0.00000000000E+00 -0.10000000000E+04  0.10000000000E+04  0.00000000000E+00 0.  1.
    9000005    2    1    2  501    0 -0.17842185432E+02  0.21826905895E+02 -0.96321845736E+03  0.10169884126E+04  0.32508595375E+03 0.  0.
         13    1    3    3    0    0 -0.15868938608E+03  0.54872976679E+02 -0.66001869511E+03  0.68104188030E+03  0.00000000000E+00 0.  1.
          1    1    3    3  501    0  0.14084720065E+03 -0.33046070784E+02 -0.30319976224E+03  0.33594653228E+03  0.00000000000E+00 0.  1.
         21    1    1    2  502  501  0.17842185432E+02 -0.21826905895E+02  0.10180032234E+02  0.29973162299E+02  0.00000000000E+00 0.  1.
<mgrwt>
<rscale>  1 0.30000000E+03</rscale>
<asrwt>0</asrwt>
<pdfrwt beam="1">  1        1 0.17076972E+00 0.30000000E+03</pdfrwt>
<pdfrwt beam="2">0</pdfrwt>
<totfact> 0.14164033E+01</totfact>
</mgrwt>
</event>
<event>
 6    1  0.1950139E-004  0.3000000E+03  0.7818608E-02  0.1093470E+00
          3   -1    0    0  502    0  0.00000000000E+00  0.00000000000E+00  0.30006604791E+02  0.30006604791E+02  0.00000000000E+00 0.  1.
         13   -1    0    0    0    0 -0.00000000000E+00 -0.00000000000E+00 -0.10000000000E+04  0.10000000000E+04  0.00000000000E+00 0.  1.
    9000005    2    1    2  501    0  0.30974182690E+01  0.79369780916E+01 -0.95444658262E+03  0.10122782940E+04  0.33714459190E+03 0.  0.
         13    1    3    3    0    0 -0.81832873205E+02 -0.38755099601E+01 -0.91365797146E+03  0.91732356752E+03  0.00000000000E+00 0.  1.
          1    1    3    3  501    0  0.84930291474E+02  0.11812488052E+02 -0.40788611156E+02  0.94954726496E+02  0.00000000000E+00 0.  1.
         21    1    1    2  502  501 -0.30974182690E+01 -0.79369780916E+01 -0.15546812593E+02  0.17728310776E+02  0.00000000000E+00 0. -1.
<mgrwt>
<rscale>  1 0.30000000E+03</rscale>
<asrwt>0</asrwt>
<pdfrwt beam="1">  1        3 0.10911516E+00 0.30000000E+03</pdfrwt>
<pdfrwt beam="2">0</pdfrwt>
<totfact> 0.30844100E+00</totfact>
</mgrwt>
</event>
<event>
 6    1  0.1950139E-004  0.3000000E+03  0.7818608E-02  0.1093470E+00
          1   -1    0    0  502    0  0.00000000000E+00  0.00000000000E+00  0.46597477813E+02  0.46597477813E+02  0.00000000000E+00 0.  1.
         13   -1    0    0    0    0 -0.00000000000E+00 -0.00000000000E+00 -0.10000000000E+04  0.10000000000E+04  0.00000000000E+00 0.  1.
    9000005    2    1    2  501    0 -0.93626342560E+01 -0.68105457412E+01 -0.97209502389E+03  0.10246099342E+04  0.32360892967E+03 0.  0.
         13    1    3    3    0    0 -0.12268180715E+03  0.51086960863E+02 -0.18783368782E+03  0.23009171575E+03  0.00000000000E+00 0.  1.
          1    1    3    3  501    0  0.11331917289E+03 -0.57897506604E+02 -0.78426133607E+03  0.79451821847E+03  0.00000000000E+00 0.  1.
         21    1    1    2  502  501  0.93626342560E+01  0.68105457412E+01  0.18692501706E+02  0.21987543599E+02  0.00000000000E+00 0.  1.
<mgrwt>
<rscale>  1 0.30000000E+03</rscale>
<asrwt>0</asrwt>
<pdfrwt beam="1">  1        1 0.16944573E+00 0.30000000E+03</pdfrwt>
<pdfrwt beam="2">0</pdfrwt>
<totfact> 0.14376624E+01</totfact>
</mgrwt>
</event>
<event>
 6    1  0.1950139E-004  0.3000000E+03  0.7818608E-02  0.1093470E+00
          1   -1    0    0  502    0  0.00000000000E+00  0.00000000000E+00  0.40154454863E+02  0.40154454863E+02  0.00000000000E+00 0.  1.
         13   -1    0    0    0    0 -0.00000000000E+00 -0.00000000000E+00 -0.10000000000E+04  0.10000000000E+04  0.00000000000E+00 0.  1.
    9000005    2    1    2  501    0 -0.59020528677E+02  0.30402605803E+02 -0.82964241307E+03  0.89400180574E+03  0.32638160773E+03 0.  0.
         13    1    3    3    0    0 -0.11426324639E+03 -0.94052907541E+02 -0.66041986051E+03  0.67679866360E+03  0.00000000000E+00 0.  1.
          1    1    3    3  501    0  0.55242717717E+02  0.12445551334E+03 -0.16922255256E+03  0.21720314214E+03  0.00000000000E+00 0.  1.
         21    1    1    2  502  501  0.59020528677E+02 -0.30402605803E+02 -0.13020313207E+03  0.14615264912E+03  0.00000000000E+00 0.  1.
<mgrwt>
<rscale>  1 0.30000000E+03</rscale>
<asrwt>0</asrwt>
<pdfrwt beam="1">  1        1 0.14601651E+00 0.30000000E+03</pdfrwt>
<pdfrwt beam="2">0</pdfrwt>
<totfact> 0.18827756E+01</totfact>
</mgrwt>
</event>
<event>
 6    1  0.1950139E-004  0.3000000E+03  0.7818608E-02  0.1093470E+00
          1   -1    0    0  502    0  0.00000000000E+00  0.00000000000E+00  0.51407550030E+02  0.51407550030E+02  0.00000000000E+00 0.  1.
         13   -1    0    0    0    0 -0.00000000000E+00 -0.00000000000E+00 -0.10000000000E+04  0.10000000000E+04  0.00000000000E+00 0.  1.
    9000005    2    1    2  501    0 -0.14917201478E+01  0.49625849591E+02 -0.94966913428E+03  0.10017476122E+04  0.31489976778E+03 0.  0.
         13    1    3    3    0    0  0.99864119750E+01  0.67611737960E+02 -0.96992356412E+03  0.97232854312E+03  0.00000000000E+00 0.  1.
          1    1    3    3  501    0 -0.11478132123E+02 -0.17985888369E+02  0.20254429833E+02  0.29419069076E+02  0.00000000000E+00 0.  1.
         21    1    1    2  502  501  0.14917201478E+01 -0.49625849591E+02  0.10766843137E+01  0.49659937835E+02  0.00000000000E+00 0.  1.
<mgrwt>
<rscale>  1 0.30000000E+03</rscale>
<asrwt>0</asrwt>
<pdfrwt beam="1">  1        1 0.18693694E+00 0.30000000E+03</pdfrwt>
<pdfrwt beam="2">0</pdfrwt>
<totfact> 0.11827995E+01</totfact>
</mgrwt>
</event>
<event>
 6    1  0.1950139E-004  0.3000000E+03  0.7818608E-02  0.1093470E+00
          3   -1    0    0  502    0  0.00000000000E+00  0.00000000000E+00  0.27943031764E+02  0.27943031764E+02  0.00000000000E+00 0.  1.
         13   -1    0    0    0    0 -0.00000000000E+00 -0.00000000000E+00 -0.10000000000E+04  0.10000000000E+04  0.00000000000E+00 0.  1.
    9000005    2    1    2  501    0  0.11449883843E+02  0.70295248140E+01 -0.95991403582E+03  0.10098332315E+04  0.31328530950E+03 0.  0.
         13    1    3    3    0    0  0.12145083938E+03  0.49581974700E+02 -0.80241426107E+03  0.81306661779E+03  0.00000000000E+00 0.  1.
          1    1    3    3  501    0 -0.11000095554E+03 -0.42552449886E+02 -0.15749977475E+03  0.19676661367E+03  0.00000000000E+00 0.  1.
         21    1    1    2  502  501 -0.11449883843E+02 -0.70295248140E+01 -0.12142932416E+02  0.18109800297E+02  0.00000000000E+00 0.  1.
<mgrwt>
<rscale>  1 0.30000000E+03</rscale>
<asrwt>0</asrwt>
<pdfrwt beam="1">  1        3 0.10161124E+00 0.30000000E+03</pdfrwt>
<pdfrwt beam="2">0</pdfrwt>
<totfact> 0.37549571E+00</totfact>
</mgrwt>
</event>
<event>
 6    1  0.1950139E-004  0.3000000E+03  0.7818608E-02  0.1093470E+00
          1   -1    0    0  502    0  0.00000000000E+00  0.00000000000E+00  0.32826449568E+02  0.32826449568E+02  0.00000000000E+00 0.  1.
         13   -1    0    0    0    0 -0.00000000000E+00 -0.00000000000E+00 -0.10000000000E+04  0.10000000000E+04  0.00000000000E+00 0.  1.
    9000005    2    1    2  501    0 -0.34180833078E+01 -0.11752156969E+02 -0.96617572043E+03  0.10205467040E+04  0.32843607563E+03 0.  0.
         13    1    3    3    0    0  0.39983890575E+02  0.12515975366E+03 -0.74724398404E+03  0.75870761637E+03  0.00000000000E+00 0.  1.
          3    1    3    3  501    0 -0.43401973883E+02 -0.13691191063E+03 -0.21893173638E+03  0.26183908762E+03  0.00000000000E+00 0.  1.
         21    1    1    2  502  501  0.34180833078E+01  0.11752156969E+02 -0.99783000329E+00  0.12279745586E+02  0.00000000000E+00 0.  1.
<mgrwt>
<rscale>  1 0.30000000E+03</rscale>
<asrwt>0</asrwt>
<pdfrwt beam="1">  1        1 0.11936916E+00 0.30000000E+03</pdfrwt>
<pdfrwt beam="2">0</pdfrwt>
<totfact> 0.26210711E+01</totfact>
</mgrwt>
</event>
<event>
 6    1  0.1950139E-004  0.3000000E+03  0.7818608E-02  0.1093470E+00
          1   -1    0    0  502    0  0.00000000000E+00  0.00000000000E+00  0.33490339161E+02  0.33490339161E+02  0.00000000000E+00 0.  1.
         13   -1    0    0    0    0 -0.00000000000E+00 -0.00000000000E+00 -0.10000000000E+04  0.10000000000E+04  0.00000000000E+00 0.  1.
    9000005    2    1    2  501    0  0.29040629799E+02 -0.11217421808E+02 -0.92286566833E+03  0.97988076154E+03  0.32789644144E+03 0.  0.
         13    1    3    3    0    0 -0.32635950677E+02  0.82659004920E+02 -0.82828764545E+03  0.83304143953E+03  0.00000000000E+00 0.  1.
          1    1    3    3  501    0  0.61676580476E+02 -0.93876426728E+02 -0.94578022882E+02  0.14683932200E+03  0.00000000000E+00 0.  1.
         21    1    1    2  502  501 -0.29040629799E+02  0.11217421808E+02 -0.43643992505E+02  0.53609577623E+02  0.00000000000E+00 0. -1.
<mgrwt>
<rscale>  1 0.30000000E+03</rscale>
<asrwt>0</asrwt>
<pdfrwt beam="1">  1        1 0.12178331E+00 0.30000000E+03</pdfrwt>
<pdfrwt beam="2">0</pdfrwt>
<totfact> 0.25401683E+01</totfact>
</mgrwt>
</event>
<event>
 6    1  0.1950139E-004  0.3000000E+03  0.7818608E-02  0.1093470E+00
          1   -1    0    0  502    0  0.00000000000E+00  0.00000000000E+00  0.42429276671E+02  0.42429276671E+02  0.00000000000E+00 0.  1.
         13   -1    0    0    0    0 -0.00000000000E+00 -0.00000000000E+00 -0.10000000000E+04  0.10000000000E+04  0.00000000000E+00 0.  1.
    9000005    2    1    2  501    0 -0.52998115498E+01  0.24215605948E+02 -0.96229781120E+03  0.10171938069E+04  0.32871215343E+03 0.  0.
         13    1    3    3    0    0  0.50200843990E+02  0.15757572050E+03 -0.68320124007E+03  0.70293254788E+03  0.00000000000E+00 0.  1.
          1    1    3    3  501    0 -0.55500655540E+02 -0.13336011455E+03 -0.27909657113E+03  0.31426125904E+03  0.00000000000E+00 0.  1.
         21    1    1    2  502  501  0.52998115498E+01 -0.24215605948E+02  0.47270878739E+01  0.25235469753E+02  0.00000000000E+00 0.  1.
<mgrwt>
<rscale>  1 0.30000000E+03</rscale>
<asrwt>0</asrwt>
<pdfrwt beam="1">  1        1 0.15428860E+00 0.30000000E+03</pdfrwt>
<pdfrwt beam="2">0</pdfrwt>
<totfact> 0.17090026E+01</totfact>
</mgrwt>
</event>
<event>
 6    1  0.1950139E-004  0.3000000E+03  0.7818608E-02  0.1093470E+00
          1   -1    0    0  502    0  0.00000000000E+00  0.00000000000E+00  0.31157734203E+02  0.31157734203E+02  0.00000000000E+00 0.  1.
         13   -1    0    0    0    0 -0.00000000000E+00 -0.00000000000E+00 -0.10000000000E+04  0.10000000000E+04  0.00000000000E+00 0.  1.
    9000005    2    1    2  501    0 -0.53603978692E+01 -0.15876650572E+02 -0.89909630070E+03  0.95942697688E+03  0.33443260029E+03 0.  0.
         13    1    3    3    0    0 -0.37877935406E+02  0.63231890279E+02 -0.20265784552E+02  0.76444175464E+02  0.00000000000E+00 0.  1.
          3    1    3    3  501    0  0.32517537537E+02 -0.79108540851E+02 -0.87883051615E+03  0.88298280142E+03  0.00000000000E+00 0.  1.
         21    1    1    2  502  501  0.53603978692E+01  0.15876650572E+02 -0.69745965096E+02  0.71730757321E+02  0.00000000000E+00 0. -1.
<mgrwt>
<rscale>  1 0.30000000E+03</rscale>
<asrwt>0</asrwt>
<pdfrwt beam="1">  1        1 0.11330109E+00 0.30000000E+03</pdfrwt>
<pdfrwt beam="2">0</pdfrwt>
<totfact> 0.28405687E+01</totfact>
</mgrwt>
</event>
<event>
 6    1  0.1950139E-004  0.3000000E+03  0.7818608E-02  0.1093470E+00
          1   -1    0    0  502    0  0.00000000000E+00  0.00000000000E+00  0.20252782512E+02  0.20252782512E+02  0.00000000000E+00 0.  1.
         13   -1    0    0    0    0 -0.00000000000E+00 -0.00000000000E+00 -0.10000000000E+04  0.10000000000E+04  0.00000000000E+00 0.  1.
    9000005    2    1    2  501    0  0.11044045690E+02  0.52122438267E+01 -0.94844154684E+03  0.98664945759E+03  0.27163697459E+03 0.  0.
         13    1    3    3    0    0 -0.55987462618E+02 -0.11642725600E+03 -0.37503083085E+03  0.39665857610E+03  0.00000000000E+00 0.  1.
          1    1    3    3  501    0  0.67031508308E+02  0.12163949983E+03 -0.57341071599E+03  0.58999088149E+03  0.00000000000E+00 0.  1.
         21    1    1    2  502  501 -0.11044045690E+02 -0.52122438267E+01 -0.31305670649E+02  0.33603324920E+02  0.00000000000E+00 0.  1.
<mgrwt>
<rscale>  1 0.30000000E+03</rscale>
<asrwt>0</asrwt>
<pdfrwt beam="1">  1        1 0.73646637E-01 0.30000000E+03</pdfrwt>
<pdfrwt beam="2">0</pdfrwt>
<totfact> 0.52618820E+01</totfact>
</mgrwt>
</event>
<event>
 6    1  0.1950139E-004  0.3000000E+03  0.7818608E-02  0.1093470E+00
          1   -1    0    0  502    0  0.00000000000E+00  0.00000000000E+00  0.32215915365E+02  0.32215915365E+02  0.00000000000E+00 0.  1.
         13   -1    0    0    0    0 -0.00000000000E+00 -0.00000000000E+00 -0.10000000000E+04  0.10000000000E+04  0.00000000000E+00 0.  1.
    9000005    2    1    2  501    0  0.15235694164E+02  0.28716018989E+02 -0.84980988524E+03  0.90984497173E+03  0.32339495266E+03 0.  0.
         13    1    3    3    0    0  0.86123392606E+02 -0.72335333669E-01 -0.82489714525E+03  0.82938081978E+03  0.00000000000E+00 0.  1.
          3    1    3    3  501    0 -0.70887698442E+02  0.28788354323E+02 -0.24912739997E+02  0.80464151951E+02  0.00000000000E+00 0.  1.
         21    1    1    2  502  501 -0.15235694164E+02 -0.28716018989E+02 -0.11797419939E+03  0.12237094363E+03  0.00000000000E+00 0.  1.
<mgrwt>
<rscale>  1 0.30000000E+03</rscale>
<asrwt>0</asrwt>
<pdfrwt beam="1">  1        1 0.11714903E+00 0.30000000E+03</pdfrwt>
<pdfrwt beam="2">0</pdfrwt>
<totfact> 0.26985659E+01</totfact>
</mgrwt>
</event>
<event>
 6    1  0.1950139E-004  0.3000000E+03  0.7818608E-02  0.1093470E+00
          1   -1    0    0  502    0  0.00000000000E+00  0.00000000000E+00  0.35456952650E+02  0.35456952650E+02  0.00000000000E+00 0.  1.
         13   -1    0    0    0    0 -0.00000000000E+00 -0.00000000000E+00 -0.10000000000E+04  0.10000000000E+04  0.00000000000E+00 0.  1.
    9000005    2    1    2  501    0  0.41088413825E+02 -0.68511657317E+01 -0.79355570654E+03  0.85946869469E+03  0.32744553982E+03 0.  0.
         13    1    3    3    0    0 -0.11367145505E+03  0.92181240078E+02 -0.35199950419E+03  0.38121153139E+03  0.00000000000E+00 0.  1.
          3    1    3    3  501    0  0.15475986887E+03 -0.99032405810E+02 -0.44155620235E+03  0.47825716330E+03  0.00000000000E+00 0.  1.
         21    1    1    2  502  501 -0.41088413825E+02  0.68511657317E+01 -0.17098734081E+03  0.17598825796E+03  0.00000000000E+00 0. -1.
<mgrwt>
<rscale>  1 0.30000000E+03</rscale>
<asrwt>0</asrwt>
<pdfrwt beam="1">  1        1 0.12893465E+00 0.30000000E+03</pdfrwt>
<pdfrwt beam="2">0</pdfrwt>
<totfact> 0.23188043E+01</totfact>
</mgrwt>
</event>
<event>
 6    1  0.1950139E-004  0.3000000E+03  0.7818608E-02  0.1093470E+00
          1   -1    0    0  502    0  0.00000000000E+00  0.00000000000E+00  0.35798121330E+02  0.35798121330E+02  0.00000000000E+00 0.  1.
         13   -1    0    0    0    0 -0.00000000000E+00 -0.00000000000E+00 -0.10000000000E+04  0.10000000000E+04  0.00000000000E+00 0.  1.
    9000005    2    1    2  501    0  0.20042843276E+02  0.81471253996E+01 -0.95743651770E+03  0.10131296117E+04  0.33057349182E+03 0.  0.
         13    1    3    3    0    0 -0.96685396716E+02 -0.95361336063E+02 -0.21364323824E+03  0.25315071321E+03  0.00000000000E+00 0.  1.
          3    1    3    3  501    0  0.11672823999E+03  0.10350846146E+03 -0.74379327946E+03  0.75997889851E+03  0.00000000000E+00 0.  1.
         21    1    1    2  502  501 -0.20042843276E+02 -0.81471253996E+01 -0.67653609666E+01  0.22668509609E+02  0.00000000000E+00 0.  1.
<mgrwt>
<rscale>  1 0.30000000E+03</rscale>
<asrwt>0</asrwt>
<pdfrwt beam="1">  1        1 0.13017526E+00 0.30000000E+03</pdfrwt>
<pdfrwt beam="2">0</pdfrwt>
<totfact> 0.22829577E+01</totfact>
</mgrwt>
</event>
<event>
 6    1  0.1950139E-004  0.3000000E+03  0.7818608E-02  0.1093470E+00
          1   -1    0    0  502    0  0.00000000000E+00  0.00000000000E+00  0.38656140551E+02  0.38656140551E+02  0.00000000000E+00 0.  1.
         13   -1    0    0    0    0 -0.00000000000E+00 -0.00000000000E+00 -0.10000000000E+04  0.10000000000E+04  0.00000000000E+00 0.  1.
    9000005    2    1    2  501    0  0.61005889910E+02  0.51757798262E+01 -0.77461424711E+03  0.84214544001E+03  0.32470479364E+03 0.  0.
         13    1    3    3    0    0  0.32320495931E+02 -0.89984730803E+02 -0.72459981422E+03  0.73088080903E+03  0.00000000000E+00 0.  1.
          1    1    3    3  501    0  0.28685393979E+02  0.95160510630E+02 -0.50014432881E+02  0.11126463098E+03  0.00000000000E+00 0.  1.
         21    1    1    2  502  501 -0.61005889910E+02 -0.51757798262E+01 -0.18672961234E+03  0.19651070054E+03  0.00000000000E+00 0. -1.
<mgrwt>
<rscale>  1 0.30000000E+03</rscale>
<asrwt>0</asrwt>
<pdfrwt beam="1">  1        1 0.14056808E+00 0.30000000E+03</pdfrwt>
<pdfrwt beam="2">0</pdfrwt>
<totfact> 0.20094063E+01</totfact>
</mgrwt>
</event>
<event>
 6    1  0.1950139E-004  0.3000000E+03  0.7818608E-02  0.1093470E+00
          1   -1    0    0  502    0  0.00000000000E+00  0.00000000000E+00  0.44289411029E+02  0.44289411029E+02  0.00000000000E+00 0.  1.
         13   -1    0    0    0    0 -0.00000000000E+00 -0.00000000000E+00 -0.10000000000E+04  0.10000000000E+04  0.00000000000E+00 0.  1.
    9000005    2    1    2  501    0 -0.11751621129E+02 -0.95477375126E+01 -0.97041918194E+03  0.10231801098E+04  0.32396741895E+03 0.  0.
         13    1    3    3    0    0 -0.86238559316E+02  0.13442165442E+03 -0.41804891838E+03  0.44751666834E+03  0.00000000000E+00 0.  1.
          1    1    3    3  501    0  0.74486938187E+02 -0.14396939193E+03 -0.55237026356E+03  0.57566344147E+03  0.00000000000E+00 0.  1.
         21    1    1    2  502  501  0.11751621129E+02  0.95477375126E+01  0.14708592969E+02  0.21109301218E+02  0.00000000000E+00 0. -1.
<mgrwt>
<rscale>  1 0.30000000E+03</rscale>
<asrwt>0</asrwt>
<pdfrwt beam="1">  1        1 0.16105274E+00 0.30000000E+03</pdfrwt>
<pdfrwt beam="2">0</pdfrwt>
<totfact> 0.15811679E+01</totfact>
</mgrwt>
</event>
<event>
 6    1  0.1950139E-004  0.3000000E+03  0.7818608E-02  0.1093470E+00
          1   -1    0    0  502    0  0.00000000000E+00  0.00000000000E+00  0.33280914809E+02  0.33280914809E+02  0.00000000000E+00 0.  1.
         13   -1    0    0    0    0 -0.00000000000E+00 -0.00000000000E+00 -0.10000000000E+04  0.10000000000E+04  0.00000000000E+00 0.  1.
    9000005    2    1    2  501    0 -0.20371446881E+02 -0.99326190189E+01 -0.95028062709E+03  0.10052831350E+04  0.32718077351E+03 0.  0.
         13    1    3    3    0    0 -0.33484330540E+02 -0.12023506706E+02  0.15930085246E+02  0.38981184194E+02  0.00000000000E+00 0.  1.
          3    1    3    3  501    0  0.13112883659E+02  0.20908876872E+01 -0.96621071234E+03  0.96630195082E+03  0.00000000000E+00 0.  1.
         21    1    1    2  502  501  0.20371446881E+02  0.99326190189E+01 -0.16438458102E+02  0.27997779794E+02  0.00000000000E+00 0. -1.
<mgrwt>
<rscale>  1 0.30000000E+03</rscale>
<asrwt>0</asrwt>
<pdfrwt beam="1">  1        1 0.12102176E+00 0.30000000E+03</pdfrwt>
<pdfrwt beam="2">0</pdfrwt>
<totfact> 0.25653257E+01</totfact>
</mgrwt>
</event>
<event>
 6    1  0.1950139E-004  0.3000000E+03  0.7818608E-02  0.1093470E+00
          1   -1    0    0  502    0  0.00000000000E+00  0.00000000000E+00  0.64651440267E+02  0.64651440267E+02  0.00000000000E+00 0.  1.
         13   -1    0    0    0    0 -0.00000000000E+00 -0.00000000000E+00 -0.10000000000E+04  0.10000000000E+04  0.00000000000E+00 0.  1.
    9000005    2    1    2  501    0 -0.96933813786E+01  0.17576008655E+02 -0.97157606446E+03  0.10232351413E+04  0.32038606027E+03 0.  0.
         13    1    3    3    0    0 -0.64855081741E+02 -0.37772946641E+02 -0.33977700329E+02  0.82386050064E+02  0.00000000000E+00 0.  1.
          1    1    3    3  501    0  0.55161700362E+02  0.55348955296E+02 -0.93759836413E+03  0.94084909122E+03  0.00000000000E+00 0.  1.
         21    1    1    2  502  501  0.96933813786E+01 -0.17576008655E+02  0.36227504723E+02  0.41416298980E+02  0.00000000000E+00 0. -1.
<mgrwt>
<rscale>  1 0.30000000E+03</rscale>
<asrwt>0</asrwt>
<pdfrwt beam="1">  1        1 0.23509664E+00 0.30000000E+03</pdfrwt>
<pdfrwt beam="2">0</pdfrwt>
<totfact> 0.70049199E+00</totfact>
</mgrwt>
</event>
<event>
 6    1  0.1950139E-004  0.3000000E+03  0.7818608E-02  0.1093470E+00
          1   -1    0    0  502    0  0.00000000000E+00  0.00000000000E+00  0.39469763837E+02  0.39469763837E+02  0.00000000000E+00 0.  1.
         13   -1    0    0    0    0 -0.00000000000E+00 -0.00000000000E+00 -0.10000000000E+04  0.10000000000E+04  0.00000000000E+00 0.  1.
    9000005    2    1    2  501    0 -0.52238877209E+02 -0.26981394359E+02 -0.89008773138E+03  0.94771442386E+03  0.32007743393E+03 0.  0.
         13    1    3    3    0    0  0.11967112090E+03 -0.81568000401E+02 -0.41450535235E+03  0.43907767308E+03  0.00000000000E+00 0.  1.
          3    1    3    3  501    0 -0.17190999811E+03  0.54586606042E+02 -0.47558237903E+03  0.50863675079E+03  0.00000000000E+00 0.  1.
         21    1    1    2  502  501  0.52238877209E+02  0.26981394359E+02 -0.70442504784E+02  0.91755339974E+02  0.00000000000E+00 0.  1.
<mgrwt>
<rscale>  1 0.30000000E+03</rscale>
<asrwt>0</asrwt>
<pdfrwt beam="1">  1        1 0.14352672E+00 0.30000000E+03</pdfrwt>
<pdfrwt beam="2">0</pdfrwt>
<totfact> 0.19393517E+01</totfact>
</mgrwt>
</event>
<event>
 6    1  0.1950139E-004  0.3000000E+03  0.7818608E-02  0.1093470E+00
          1   -1    0    0  502    0  0.00000000000E+00  0.00000000000E+00  0.30248515704E+02  0.30248515704E+02  0.00000000000E+00 0.  1.
         13   -1    0    0    0    0 -0.00000000000E+00 -0.00000000000E+00 -0.10000000000E+04  0.10000000000E+04  0.00000000000E+00 0.  1.
    9000005    2    1    2  501    0  0.98561589679E+01 -0.36930686722E+01 -0.95788356651E+03  0.10143856629E+04  0.33365635544E+03 0.  0.
         13    1    3    3    0    0  0.16518932565E+03 -0.22977630978E+00 -0.63394148325E+03  0.65511019706E+03  0.00000000000E+00 0.  1.
          1    1    3    3  501    0 -0.15533316668E+03 -0.34632923624E+01 -0.32394208327E+03  0.35927546587E+03  0.00000000000E+00 0.  1.
         21    1    1    2  502  501 -0.98561589679E+01  0.36930686722E+01 -0.11867917782E+02  0.15862852779E+02  0.00000000000E+00 0.  1.
<mgrwt>
<rscale>  1 0.30000000E+03</rscale>
<asrwt>0</asrwt>
<pdfrwt beam="1">  1        1 0.10999483E+00 0.30000000E+03</pdfrwt>
<pdfrwt beam="2">0</pdfrwt>
<totfact> 0.29711748E+01</totfact>
</mgrwt>
</event>
<event>
 6    1  0.1950139E-004  0.3000000E+03  0.7818608E-02  0.1093470E+00
          1   -1    0    0  502    0  0.00000000000E+00  0.00000000000E+00  0.22868308733E+02  0.22868308733E+02  0.00000000000E+00 0.  1.
         13   -1    0    0    0    0 -0.00000000000E+00 -0.00000000000E+00 -0.10000000000E+04  0.10000000000E+04  0.00000000000E+00 0.  1.
    9000005    2    1    2  501    0 -0.14320115209E+02 -0.14192702613E+02 -0.95646935168E+03  0.99399910742E+03  0.26980382938E+03 0.  0.
         13    1    3    3    0    0  0.10138117457E+03  0.70184902079E+02 -0.35814426589E+03  0.37877615848E+03  0.00000000000E+00 0.  1.
          3    1    3    3  501    0 -0.11570128978E+03 -0.84377604692E+02 -0.59832508579E+03  0.61522294895E+03  0.00000000000E+00 0.  1.
         21    1    1    2  502  501  0.14320115209E+02  0.14192702613E+02 -0.20662339586E+02  0.28869201309E+02  0.00000000000E+00 0. -1.
<mgrwt>
<rscale>  1 0.30000000E+03</rscale>
<asrwt>0</asrwt>
<pdfrwt beam="1">  1        1 0.83157662E-01 0.30000000E+03</pdfrwt>
<pdfrwt beam="2">0</pdfrwt>
<totfact> 0.44509769E+01</totfact>
</mgrwt>
</event>
<event>
 6    1  0.1950139E-004  0.3000000E+03  0.7818608E-02  0.1093470E+00
          1   -1    0    0  502    0  0.00000000000E+00  0.00000000000E+00  0.40372550498E+02  0.40372550498E+02  0.00000000000E+00 0.  1.
         13   -1    0    0    0    0 -0.00000000000E+00 -0.00000000000E+00 -0.10000000000E+04  0.10000000000E+04  0.00000000000E+00 0.  1.
    9000005    2    1    2  501    0  0.10745905682E+02  0.40739541381E+01 -0.95927497292E+03  0.10288749059E+04  0.37181047154E+03 0.  0.
         13    1    3    3    0    0 -0.16544201518E+03  0.72335479172E+02 -0.52812065353E+03  0.55813520461E+03  0.00000000000E+00 0.  1.
          1    1    3    3  501    0  0.17618792086E+03 -0.68261525034E+02 -0.43115431939E+03  0.47073970131E+03  0.00000000000E+00 0.  1.
         21    1    1    2  502  501 -0.10745905682E+02 -0.40739541381E+01 -0.35247657789E+00  0.11497644584E+02  0.00000000000E+00 0.  1.
<mgrwt>
<rscale>  1 0.30000000E+03</rscale>
<asrwt>0</asrwt>
<pdfrwt beam="1">  1        1 0.14680958E+00 0.30000000E+03</pdfrwt>
<pdfrwt beam="2">0</pdfrwt>
<totfact> 0.18651915E+01</totfact>
</mgrwt>
</event>
<event>
 6    1  0.1950139E-004  0.3000000E+03  0.7818608E-02  0.1093470E+00
          1   -1    0    0  502    0  0.00000000000E+00  0.00000000000E+00  0.30123246990E+02  0.30123246990E+02  0.00000000000E+00 0.  1.
         13   -1    0    0    0    0 -0.00000000000E+00 -0.00000000000E+00 -0.10000000000E+04  0.10000000000E+04  0.00000000000E+00 0.  1.
    9000005    2    1    2  501    0 -0.30602093127E+01 -0.84703036357E+01 -0.95245037065E+03  0.10105071891E+04  0.33746401254E+03 0.  0.
         13    1    3    3    0    0 -0.90876809789E+02  0.13659502066E+03 -0.54555409284E+03  0.56968944386E+03  0.00000000000E+00 0.  1.
          3    1    3    3  501    0  0.87816600477E+02 -0.14506532429E+03 -0.40689627781E+03  0.44081774525E+03  0.00000000000E+00 0.  1.
         21    1    1    2  502  501  0.30602093127E+01  0.84703036357E+01 -0.17426382359E+02  0.19616057883E+02  0.00000000000E+00 0.  1.
<mgrwt>
<rscale>  1 0.30000000E+03</rscale>
<asrwt>0</asrwt>
<pdfrwt beam="1">  1        1 0.10953931E+00 0.30000000E+03</pdfrwt>
<pdfrwt beam="2">0</pdfrwt>
<totfact> 0.29898331E+01</totfact>
</mgrwt>
</event>
<event>
 6    1  0.1950139E-004  0.3000000E+03  0.7818608E-02  0.1093470E+00
          1   -1    0    0  502    0  0.00000000000E+00  0.00000000000E+00  0.45772287567E+02  0.45772287567E+02  0.00000000000E+00 0.  1.
         13   -1    0    0    0    0 -0.00000000000E+00 -0.00000000000E+00 -0.10000000000E+04  0.10000000000E+04  0.00000000000E+00 0.  1.
    9000005    2    1    2  501    0 -0.16527820142E+02 -0.86109807679E+02 -0.71841889785E+03  0.79418956787E+03  0.32699126762E+03 0.  0.
         13    1    3    3    0    0 -0.14439800117E+03  0.38796984147E+02 -0.23242320342E+03  0.27636304783E+03  0.00000000000E+00 0.  1.
          1    1    3    3  501    0  0.12787018103E+03 -0.12490679183E+03 -0.48599569443E+03  0.51782652003E+03  0.00000000000E+00 0.  1.
         21    1    1    2  502  501  0.16527820142E+02  0.86109807679E+02 -0.23580881458E+03  0.25158271970E+03  0.00000000000E+00 0.  1.
<mgrwt>
<rscale>  1 0.30000000E+03</rscale>
<asrwt>0</asrwt>
<pdfrwt beam="1">  1        1 0.16644503E+00 0.30000000E+03</pdfrwt>
<pdfrwt beam="2">0</pdfrwt>
<totfact> 0.14871904E+01</totfact>
</mgrwt>
</event>
<event>
 6    1  0.1950139E-004  0.3000000E+03  0.7818608E-02  0.1093470E+00
          1   -1    0    0  502    0  0.00000000000E+00  0.00000000000E+00  0.31413781441E+02  0.31413781441E+02  0.00000000000E+00 0.  1.
         13   -1    0    0    0    0 -0.00000000000E+00 -0.00000000000E+00 -0.10000000000E+04  0.10000000000E+04  0.00000000000E+00 0.  1.
    9000005    2    1    2  501    0  0.12330836191E+02 -0.10764752287E+01 -0.96831468459E+03  0.10190330686E+04  0.31724100960E+03 0.  0.
         13    1    3    3    0    0 -0.12024157022E+03 -0.95083874614E+02 -0.41801698940E+03  0.44523834274E+03  0.00000000000E+00 0.  1.
          3    1    3    3  501    0  0.13257240641E+03  0.94007399385E+02 -0.55029769519E+03  0.57379472585E+03  0.00000000000E+00 0.  1.
         21    1    1    2  502  501 -0.12330836191E+02  0.10764752287E+01 -0.27153397289E+00  0.12380712854E+02  0.00000000000E+00 0. -1.
<mgrwt>
<rscale>  1 0.30000000E+03</rscale>
<asrwt>0</asrwt>
<pdfrwt beam="1">  1        1 0.11423217E+00 0.30000000E+03</pdfrwt>
<pdfrwt beam="2">0</pdfrwt>
<totfact> 0.28052632E+01</totfact>
</mgrwt>
</event>
<event>
 6    1  0.1950139E-004  0.3000000E+03  0.7818608E-02  0.1093470E+00
          1   -1    0    0  502    0  0.00000000000E+00  0.00000000000E+00  0.33521867827E+02  0.33521867827E+02  0.00000000000E+00 0.  1.
         13   -1    0    0    0    0 -0.00000000000E+00 -0.00000000000E+00 -0.10000000000E+04  0.10000000000E+04  0.00000000000E+00 0.  1.
    9000005    2    1    2  501    0  0.34997101603E+02  0.85704614429E+01 -0.85065966198E+03  0.91222814183E+03  0.32747530027E+03 0.  0.
         13    1    3    3    0    0  0.13613029668E+03  0.10708326320E+03 -0.32905522776E+03  0.37185430729E+03  0.00000000000E+00 0.  1.
          1    1    3    3  501    0 -0.10113319508E+03 -0.98512801754E+02 -0.52160443422E+03  0.54037383454E+03  0.00000000000E+00 0.  1.
         21    1    1    2  502  501 -0.34997101603E+02 -0.85704614429E+01 -0.11581847019E+03  0.12129372600E+03  0.00000000000E+00 0. -1.
<mgrwt>
<rscale>  1 0.30000000E+03</rscale>
<asrwt>0</asrwt>
<pdfrwt beam="1">  1        1 0.12189796E+00 0.30000000E+03</pdfrwt>
<pdfrwt beam="2">0</pdfrwt>
<totfact> 0.25364092E+01</totfact>
</mgrwt>
</event>
<event>
 6    1  0.1950139E-004  0.3000000E+03  0.7818608E-02  0.1093470E+00
          1   -1    0    0  502    0  0.00000000000E+00  0.00000000000E+00  0.44872005302E+02  0.44872005302E+02  0.00000000000E+00 0.  1.
         13   -1    0    0    0    0 -0.00000000000E+00 -0.00000000000E+00 -0.10000000000E+04  0.10000000000E+04  0.00000000000E+00 0.  1.
    9000005    2    1    2  501    0  0.40497255183E+02 -0.77298051768E+00 -0.94864814931E+03  0.10038523323E+04  0.32579989060E+03 0.  0.
         13    1    3    3    0    0  0.18195110113E+03  0.12631035348E+02 -0.45598889877E+03  0.49111263683E+03  0.00000000000E+00 0.  1.
          1    1    3    3  501    0 -0.14145384594E+03 -0.13404015866E+02 -0.49265925054E+03  0.51273969547E+03  0.00000000000E+00 0.  1.
         21    1    1    2  502  501 -0.40497255183E+02  0.77298051768E+00 -0.64798453888E+01  0.41019672994E+02  0.00000000000E+00 0.  1.
<mgrwt>
<rscale>  1 0.30000000E+03</rscale>
<asrwt>0</asrwt>
<pdfrwt beam="1">  1        1 0.16317127E+00 0.30000000E+03</pdfrwt>
<pdfrwt beam="2">0</pdfrwt>
<totfact> 0.15434545E+01</totfact>
</mgrwt>
</event>
<event>
 6    1  0.1950139E-004  0.3000000E+03  0.7818608E-02  0.1093470E+00
          3   -1    0    0  502    0  0.00000000000E+00  0.00000000000E+00  0.36039845403E+02  0.36039845403E+02  0.00000000000E+00 0.  1.
         13   -1    0    0    0    0 -0.00000000000E+00 -0.00000000000E+00 -0.10000000000E+04  0.10000000000E+04  0.00000000000E+00 0.  1.
    9000005    2    1    2  501    0  0.29779737617E+02  0.30141518561E+02 -0.93352559112E+03  0.98387082617E+03  0.30779283519E+03 0.  0.
         13    1    3    3    0    0  0.48128442138E+02 -0.84377819021E+01 -0.93946907812E+03  0.94073890737E+03  0.00000000000E+00 0.  1.
          1    1    3    3  501    0 -0.18348704521E+02  0.38579300463E+02  0.59434869912E+01  0.43131918801E+02  0.00000000000E+00 0.  1.
         21    1    1    2  502  501 -0.29779737617E+02 -0.30141518561E+02 -0.30434563473E+02  0.52169019230E+02  0.00000000000E+00 0. -1.
<mgrwt>
<rscale>  1 0.30000000E+03</rscale>
<asrwt>0</asrwt>
<pdfrwt beam="1">  1        3 0.13105426E+00 0.30000000E+03</pdfrwt>
<pdfrwt beam="2">0</pdfrwt>
<totfact> 0.17196755E+00</totfact>
</mgrwt>
</event>
<event>
 6    1  0.1950139E-004  0.3000000E+03  0.7818608E-02  0.1093470E+00
          1   -1    0    0  502    0  0.00000000000E+00  0.00000000000E+00  0.35091733880E+02  0.35091733880E+02  0.00000000000E+00 0.  1.
         13   -1    0    0    0    0 -0.00000000000E+00 -0.00000000000E+00 -0.10000000000E+04  0.10000000000E+04  0.00000000000E+00 0.  1.
    9000005    2    1    2  501    0  0.55704632659E+01 -0.10977723376E+02 -0.96834125147E+03  0.10223118333E+04  0.32754414154E+03 0.  0.
         13    1    3    3    0    0  0.34995076133E+00 -0.16914268735E+03 -0.52487370813E+03  0.55145424165E+03  0.00000000000E+00 0.  1.
          1    1    3    3  501    0  0.52205125046E+01  0.15816496398E+03 -0.44346754333E+03  0.47085759160E+03  0.00000000000E+00 0.  1.
         21    1    1    2  502  501 -0.55704632659E+01  0.10977723376E+02  0.34329853474E+01  0.12779900622E+02  0.00000000000E+00 0. -1.
<mgrwt>
<rscale>  1 0.30000000E+03</rscale>
<asrwt>0</asrwt>
<pdfrwt beam="1">  1        1 0.12760657E+00 0.30000000E+03</pdfrwt>
<pdfrwt beam="2">0</pdfrwt>
<totfact> 0.23579884E+01</totfact>
</mgrwt>
</event>
<event>
 6    1  0.1950139E-004  0.3000000E+03  0.7818608E-02  0.1093470E+00
          1   -1    0    0  502    0  0.00000000000E+00  0.00000000000E+00  0.52098497488E+02  0.52098497488E+02  0.00000000000E+00 0.  1.
         13   -1    0    0    0    0 -0.00000000000E+00 -0.00000000000E+00 -0.10000000000E+04  0.10000000000E+04  0.00000000000E+00 0.  1.
    9000005    2    1    2  501    0 -0.68468653597E+01 -0.11555496094E+02 -0.97176748488E+03  0.10247124761E+04  0.32484335437E+03 0.  0.
         13    1    3    3    0    0 -0.26664152148E+02 -0.22035456276E+02 -0.99313826079E+03  0.99374048090E+03  0.00000000000E+00 0.  1.
          1    1    3    3  501    0  0.19817286789E+02  0.10479960182E+02  0.21370775912E+02  0.30971995160E+02  0.00000000000E+00 0.  1.
         21    1    1    2  502  501  0.68468653597E+01  0.11555496094E+02  0.23865982365E+02  0.27386021425E+02  0.00000000000E+00 0.  1.
<mgrwt>
<rscale>  1 0.30000000E+03</rscale>
<asrwt>0</asrwt>
<pdfrwt beam="1">  1        1 0.18944948E+00 0.30000000E+03</pdfrwt>
<pdfrwt beam="2">0</pdfrwt>
<totfact> 0.11503774E+01</totfact>
</mgrwt>
</event>
<event>
 6    1  0.1950139E-004  0.3000000E+03  0.7818608E-02  0.1093470E+00
          1   -1    0    0  502    0  0.00000000000E+00  0.00000000000E+00  0.39442931113E+02  0.39442931113E+02  0.00000000000E+00 0.  1.
         13   -1    0    0    0    0 -0.00000000000E+00 -0.00000000000E+00 -0.10000000000E+04  0.10000000000E+04  0.00000000000E+00 0.  1.
    9000005    2    1    2  501    0  0.21733322983E+02  0.32261053919E+02 -0.85741069602E+03  0.92920551839E+03  0.35602904493E+03 0.  0.
         13    1    3    3    0    0  0.60731602105E+02 -0.43738139005E+02 -0.77283344969E+01  0.75240145216E+02  0.00000000000E+00 0.  1.
          1    1    3    3  501    0 -0.38998279123E+02  0.75999192925E+02 -0.84968236152E+03  0.85396537317E+03  0.00000000000E+00 0.  1.
         21    1    1    2  502  501 -0.21733322983E+02 -0.32261053919E+02 -0.10314637287E+03  0.11023741272E+03  0.00000000000E+00 0. -1.
<mgrwt>
<rscale>  1 0.30000000E+03</rscale>
<asrwt>0</asrwt>
<pdfrwt beam="1">  1        1 0.14342914E+00 0.30000000E+03</pdfrwt>
<pdfrwt beam="2">0</pdfrwt>
<totfact> 0.19416123E+01</totfact>
</mgrwt>
</event>
<event>
 6    1  0.1950139E-004  0.3000000E+03  0.7818608E-02  0.1093470E+00
          1   -1    0    0  502    0  0.00000000000E+00  0.00000000000E+00  0.36118854344E+02  0.36118854344E+02  0.00000000000E+00 0.  1.
         13   -1    0    0    0    0 -0.00000000000E+00 -0.00000000000E+00 -0.10000000000E+04  0.10000000000E+04  0.00000000000E+00 0.  1.
    9000005    2    1    2  501    0 -0.64847489850E+01  0.93741425339E+01 -0.96643038671E+03  0.10244387367E+04  0.33964261573E+03 0.  0.
         13    1    3    3    0    0  0.28420097820E+02 -0.33526401860E+02 -0.96810962156E+03  0.96910678511E+03  0.00000000000E+00 0.  1.
          3    1    3    3  501    0 -0.34904846805E+02  0.42900544394E+02  0.16792348482E+01  0.55331951615E+02  0.00000000000E+00 0.  1.
         21    1    1    2  502  501  0.64847489850E+01 -0.93741425339E+01  0.25492410585E+01  0.11680117620E+02  0.00000000000E+00 0.  1.
<mgrwt>
<rscale>  1 0.30000000E+03</rscale>
<asrwt>0</asrwt>
<pdfrwt beam="1">  1        1 0.13134157E+00 0.30000000E+03</pdfrwt>
<pdfrwt beam="2">0</pdfrwt>
<totfact> 0.22499131E+01</totfact>
</mgrwt>
</event>
<event>
 6    1  0.1950139E-004  0.3000000E+03  0.7818608E-02  0.1093470E+00
          1   -1    0    0  502    0  0.00000000000E+00  0.00000000000E+00  0.33545719134E+02  0.33545719134E+02  0.00000000000E+00 0.  1.
         13   -1    0    0    0    0 -0.00000000000E+00 -0.00000000000E+00 -0.10000000000E+04  0.10000000000E+04  0.00000000000E+00 0.  1.
    9000005    2    1    2  501    0  0.32435969188E+02 -0.20392870164E+02 -0.91305750155E+03  0.96782527108E+03  0.31865936823E+03 0.  0.
         13    1    3    3    0    0 -0.82819604248E+02 -0.11265640414E+03 -0.23140393500E+03  0.27036703456E+03  0.00000000000E+00 0.  1.
          3    1    3    3  501    0  0.11525557344E+03  0.92263533972E+02 -0.68165356655E+03  0.69745823653E+03  0.00000000000E+00 0.  1.
         21    1    1    2  502  501 -0.32435969188E+02  0.20392870164E+02 -0.53396779316E+02  0.65720448051E+02  0.00000000000E+00 0. -1.
<mgrwt>
<rscale>  1 0.30000000E+03</rscale>
<asrwt>0</asrwt>
<pdfrwt beam="1">  1        1 0.12198469E+00 0.30000000E+03</pdfrwt>
<pdfrwt beam="2">0</pdfrwt>
<totfact> 0.25335702E+01</totfact>
</mgrwt>
</event>
<event>
 6    1  0.1950139E-004  0.3000000E+03  0.7818608E-02  0.1093470E+00
          1   -1    0    0  502    0  0.00000000000E+00  0.00000000000E+00  0.26538393084E+02  0.26538393084E+02  0.00000000000E+00 0.  1.
         13   -1    0    0    0    0 -0.00000000000E+00 -0.00000000000E+00 -0.10000000000E+04  0.10000000000E+04  0.00000000000E+00 0.  1.
    9000005    2    1    2  501    0  0.10807491916E+01  0.18995572651E+02 -0.97646967266E+03  0.10072757801E+04  0.24647408743E+03 0.  0.
         13    1    3    3    0    0  0.78765501682E+01  0.16995931422E+02  0.96902975714E+01  0.21090367339E+02  0.00000000000E+00 0.  1.
          1    1    3    3  501    0 -0.67958009766E+01  0.19996412291E+01 -0.98615997023E+03  0.98618541277E+03  0.00000000000E+00 0.  1.
         21    1    1    2  502  501 -0.10807491916E+01 -0.18995572651E+02  0.30080657425E+01  0.19262612976E+02  0.00000000000E+00 0.  1.
<mgrwt>
<rscale>  1 0.30000000E+03</rscale>
<asrwt>0</asrwt>
<pdfrwt beam="1">  1        1 0.96503451E-01 0.30000000E+03</pdfrwt>
<pdfrwt beam="2">0</pdfrwt>
<totfact> 0.36045055E+01</totfact>
</mgrwt>
</event>
<event>
 6    1  0.1950139E-004  0.3000000E+03  0.7818608E-02  0.1093470E+00
          1   -1    0    0  502    0  0.00000000000E+00  0.00000000000E+00  0.39114957507E+02  0.39114957507E+02  0.00000000000E+00 0.  1.
         13   -1    0    0    0    0 -0.00000000000E+00 -0.00000000000E+00 -0.10000000000E+04  0.10000000000E+04  0.00000000000E+00 0.  1.
    9000005    2    1    2  501    0 -0.15620135949E+02  0.17473893317E+02 -0.96210172803E+03  0.10156457028E+04  0.32457223057E+03 0.  0.
         13    1    3    3    0    0 -0.89277891549E+02  0.14841603213E+03 -0.57059527240E+03  0.59630262904E+03  0.00000000000E+00 0.  1.
          3    1    3    3  501    0  0.73657755601E+02 -0.13094213881E+03 -0.39150645563E+03  0.41934307372E+03  0.00000000000E+00 0.  1.
         21    1    1    2  502  501  0.15620135949E+02 -0.17473893317E+02  0.12166855382E+01  0.23469254747E+02  0.00000000000E+00 0.  1.
<mgrwt>
<rscale>  1 0.30000000E+03</rscale>
<asrwt>0</asrwt>
<pdfrwt beam="1">  1        1 0.14223651E+00 0.30000000E+03</pdfrwt>
<pdfrwt beam="2">0</pdfrwt>
<totfact> 0.19695142E+01</totfact>
</mgrwt>
</event>
<event>
 6    1  0.1950139E-004  0.3000000E+03  0.7818608E-02  0.1093470E+00
          1   -1    0    0  502    0  0.00000000000E+00  0.00000000000E+00  0.30213469223E+02  0.30213469223E+02  0.00000000000E+00 0.  1.
         13   -1    0    0    0    0 -0.00000000000E+00 -0.00000000000E+00 -0.10000000000E+04  0.10000000000E+04  0.00000000000E+00 0.  1.
    9000005    2    1    2  501    0  0.17153245200E+01 -0.20693998530E+02 -0.95148350345E+03  0.10025334273E+04  0.31515271145E+03 0.  0.
         13    1    3    3    0    0 -0.13432806150E+03  0.39291545352E+02 -0.26030819184E+03  0.29554730312E+03  0.00000000000E+00 0.  1.
          3    1    3    3  501    0  0.13604338602E+03 -0.59985543882E+02 -0.69117531161E+03  0.70698612415E+03  0.00000000000E+00 0.  1.
         21    1    1    2  502  501 -0.17153245200E+01  0.20693998530E+02 -0.18303027326E+02  0.27680041956E+02  0.00000000000E+00 0.  1.
<mgrwt>
<rscale>  1 0.30000000E+03</rscale>
<asrwt>0</asrwt>
<pdfrwt beam="1">  1        1 0.10986739E+00 0.30000000E+03</pdfrwt>
<pdfrwt beam="2">0</pdfrwt>
<totfact> 0.29763781E+01</totfact>
</mgrwt>
</event>
<event>
 6    1  0.1950139E-004  0.3000000E+03  0.7818608E-02  0.1093470E+00
          1   -1    0    0  502    0  0.00000000000E+00  0.00000000000E+00  0.31285955083E+02  0.31285955083E+02  0.00000000000E+00 0.  1.
         13   -1    0    0    0    0 -0.00000000000E+00 -0.00000000000E+00 -0.10000000000E+04  0.10000000000E+04  0.00000000000E+00 0.  1.
    9000005    2    1    2  501    0  0.71712120973E+01 -0.28043472253E+02 -0.90386485746E+03  0.96026990244E+03  0.32296863991E+03 0.  0.
         13    1    3    3    0    0 -0.13604857273E+03 -0.70360408059E+02 -0.28401008405E+03  0.32267867764E+03  0.00000000000E+00 0.  1.
          1    1    3    3  501    0  0.14321978482E+03  0.42316935806E+02 -0.61985477341E+03  0.63759122480E+03  0.00000000000E+00 0.  1.
         21    1    1    2  502  501 -0.71712120973E+01  0.28043472253E+02 -0.64849187457E+02  0.71016052641E+02  0.00000000000E+00 0.  1.
<mgrwt>
<rscale>  1 0.30000000E+03</rscale>
<asrwt>0</asrwt>
<pdfrwt beam="1">  1        1 0.11376735E+00 0.30000000E+03</pdfrwt>
<pdfrwt beam="2">0</pdfrwt>
<totfact> 0.28228105E+01</totfact>
</mgrwt>
</event>
<event>
 6    1  0.1950139E-004  0.3000000E+03  0.7818608E-02  0.1093470E+00
          3   -1    0    0  502    0  0.00000000000E+00  0.00000000000E+00  0.34226602297E+02  0.34226602297E+02  0.00000000000E+00 0.  1.
         13   -1    0    0    0    0 -0.00000000000E+00 -0.00000000000E+00 -0.10000000000E+04  0.10000000000E+04  0.00000000000E+00 0.  1.
    9000005    2    1    2  501    0 -0.84562561271E+01  0.60809319767E+01 -0.96966676960E+03  0.10231070544E+04  0.32616853716E+03 0.  0.
         13    1    3    3    0    0 -0.12678398819E+03  0.14805358733E+01 -0.83161611125E+03  0.84122632397E+03  0.00000000000E+00 0.  1.
          1    1    3    3  501    0  0.11832773206E+03  0.46003961034E+01 -0.13805065835E+03  0.18188073040E+03  0.00000000000E+00 0.  1.
         21    1    1    2  502  501  0.84562561271E+01 -0.60809319767E+01  0.38933718972E+01  0.11119547928E+02  0.00000000000E+00 0.  1.
<mgrwt>
<rscale>  1 0.30000000E+03</rscale>
<asrwt>0</asrwt>
<pdfrwt beam="1">  1        3 0.12446063E+00 0.30000000E+03</pdfrwt>
<pdfrwt beam="2">0</pdfrwt>
<totfact> 0.20528643E+00</totfact>
</mgrwt>
</event>
<event>
 6    1  0.1950139E-004  0.3000000E+03  0.7818608E-02  0.1093470E+00
          1   -1    0    0  502    0  0.00000000000E+00  0.00000000000E+00  0.27635956607E+02  0.27635956607E+02  0.00000000000E+00 0.  1.
         13   -1    0    0    0    0 -0.00000000000E+00 -0.00000000000E+00 -0.10000000000E+04  0.10000000000E+04  0.00000000000E+00 0.  1.
    9000005    2    1    2  501    0  0.38633007249E+01  0.80272460455E+01 -0.94550102161E+03  0.99933430099E+03  0.32344628842E+03 0.  0.
         13    1    3    3    0    0  0.67203516344E+02 -0.13707271780E+03 -0.32681724624E+03  0.36071422902E+03  0.00000000000E+00 0.  1.
          1    1    3    3  501    0 -0.63340215619E+02  0.14509996384E+03 -0.61868377536E+03  0.63862007197E+03  0.00000000000E+00 0.  1.
         21    1    1    2  502  501 -0.38633007249E+01 -0.80272460455E+01 -0.26863021784E+02  0.28301655622E+02  0.00000000000E+00 0. -1.
<mgrwt>
<rscale>  1 0.30000000E+03</rscale>
<asrwt>0</asrwt>
<pdfrwt beam="1">  1        1 0.10049460E+00 0.30000000E+03</pdfrwt>
<pdfrwt beam="2">0</pdfrwt>
<totfact> 0.33980745E+01</totfact>
</mgrwt>
</event>
<event>
 6    1  0.1950139E-004  0.3000000E+03  0.7818608E-02  0.1093470E+00
          1   -1    0    0  502    0  0.00000000000E+00  0.00000000000E+00  0.28176318809E+02  0.28176318809E+02  0.00000000000E+00 0.  1.
         13   -1    0    0    0    0 -0.00000000000E+00 -0.00000000000E+00 -0.10000000000E+04  0.10000000000E+04  0.00000000000E+00 0.  1.
    9000005    2    1    2  501    0 -0.50595588473E+01 -0.62192142675E+01 -0.94632048179E+03  0.10014426146E+04  0.32756766979E+03 0.  0.
         13    1    3    3    0    0 -0.85721145136E+02 -0.13969184140E+03 -0.37566884652E+03  0.40986462097E+03  0.00000000000E+00 0.  1.
          1    1    3    3  501    0  0.80661586289E+02  0.13347262713E+03 -0.57065163527E+03  0.59157799362E+03  0.00000000000E+00 0.  1.
         21    1    1    2  502  501  0.50595588473E+01  0.62192142675E+01 -0.25503199402E+02  0.26733704225E+02  0.00000000000E+00 0.  1.
<mgrwt>
<rscale>  1 0.30000000E+03</rscale>
<asrwt>0</asrwt>
<pdfrwt beam="1">  1        1 0.10245956E+00 0.30000000E+03</pdfrwt>
<pdfrwt beam="2">0</pdfrwt>
<totfact> 0.33027881E+01</totfact>
</mgrwt>
</event>
<event>
 6    1  0.1950139E-004  0.3000000E+03  0.7818608E-02  0.1093470E+00
          1   -1    0    0  502    0  0.00000000000E+00  0.00000000000E+00  0.25387485260E+02  0.25387485260E+02  0.00000000000E+00 0.  1.
         13   -1    0    0    0    0 -0.00000000000E+00 -0.00000000000E+00 -0.10000000000E+04  0.10000000000E+04  0.00000000000E+00 0.  1.
    9000005    2    1    2  501    0 -0.11085299320E+02  0.46817281942E+01 -0.92575830041E+03  0.97507310662E+03  0.30593190425E+03 0.  0.
         13    1    3    3    0    0 -0.32378902599E+02  0.14530157538E+03 -0.62351379623E+03  0.64103852867E+03  0.00000000000E+00 0.  1.
          1    1    3    3  501    0  0.21293603279E+02 -0.14061984719E+03 -0.30224450418E+03  0.33403457795E+03  0.00000000000E+00 0.  1.
         21    1    1    2  502  501  0.11085299320E+02 -0.46817281942E+01 -0.48854214330E+02  0.50314378638E+02  0.00000000000E+00 0. -1.
<mgrwt>
<rscale>  1 0.30000000E+03</rscale>
<asrwt>0</asrwt>
<pdfrwt beam="1">  1        1 0.92318323E-01 0.30000000E+03</pdfrwt>
<pdfrwt beam="2">0</pdfrwt>
<totfact> 0.38416297E+01</totfact>
</mgrwt>
</event>
<event>
 6    1  0.1950139E-004  0.3000000E+03  0.7818608E-02  0.1093470E+00
          1   -1    0    0  502    0  0.00000000000E+00  0.00000000000E+00  0.32181248983E+02  0.32181248983E+02  0.00000000000E+00 0.  1.
         13   -1    0    0    0    0 -0.00000000000E+00 -0.00000000000E+00 -0.10000000000E+04  0.10000000000E+04  0.00000000000E+00 0.  1.
    9000005    2    1    2  501    0 -0.18565954989E+02  0.14617651617E+02 -0.94552795851E+03  0.99969663949E+03  0.32374662972E+03 0.  0.
         13    1    3    3    0    0  0.11725158016E+03 -0.85974817424E+02 -0.56343997403E+03  0.58189707562E+03  0.00000000000E+00 0.  1.
          1    1    3    3  501    0 -0.13581753515E+03  0.10059246904E+03 -0.38208798449E+03  0.41779956387E+03  0.00000000000E+00 0.  1.
         21    1    1    2  502  501  0.18565954989E+02 -0.14617651617E+02 -0.22290792503E+02  0.32484609492E+02  0.00000000000E+00 0. -1.
<mgrwt>
<rscale>  1 0.30000000E+03</rscale>
<asrwt>0</asrwt>
<pdfrwt beam="1">  1        1 0.11702297E+00 0.30000000E+03</pdfrwt>
<pdfrwt beam="2">0</pdfrwt>
<totfact> 0.27030596E+01</totfact>
</mgrwt>
</event>
<event>
 6    1  0.1950139E-004  0.3000000E+03  0.7818608E-02  0.1093470E+00
          1   -1    0    0  502    0  0.00000000000E+00  0.00000000000E+00  0.31769966433E+02  0.31769966433E+02  0.00000000000E+00 0.  1.
         13   -1    0    0    0    0 -0.00000000000E+00 -0.00000000000E+00 -0.10000000000E+04  0.10000000000E+04  0.00000000000E+00 0.  1.
    9000005    2    1    2  501    0 -0.27260403847E+02 -0.20423727169E+02 -0.92642802720E+03  0.97784718844E+03  0.31105622663E+03 0.  0.
         13    1    3    3    0    0 -0.14697771197E+03 -0.87622831070E+02 -0.59482110500E+03  0.61894454945E+03  0.00000000000E+00 0.  1.
          3    1    3    3  501    0  0.11971730812E+03  0.67199103900E+02 -0.33160692220E+03  0.35890263899E+03  0.00000000000E+00 0.  1.
         21    1    1    2  502  501  0.27260403847E+02  0.20423727169E+02 -0.41802006370E+02  0.53922777988E+02  0.00000000000E+00 0.  1.
<mgrwt>
<rscale>  1 0.30000000E+03</rscale>
<asrwt>0</asrwt>
<pdfrwt beam="1">  1        1 0.11552739E+00 0.30000000E+03</pdfrwt>
<pdfrwt beam="2">0</pdfrwt>
<totfact> 0.27571714E+01</totfact>
</mgrwt>
</event>
<event>
 6    1  0.1950139E-004  0.3000000E+03  0.7818608E-02  0.1093470E+00
          3   -1    0    0  502    0  0.00000000000E+00  0.00000000000E+00  0.37539557144E+02  0.37539557144E+02  0.00000000000E+00 0.  1.
         13   -1    0    0    0    0 -0.00000000000E+00 -0.00000000000E+00 -0.10000000000E+04  0.10000000000E+04  0.00000000000E+00 0.  1.
    9000005    2    1    2  501    0  0.67646857319E+00  0.51189905035E+02 -0.85311339834E+03  0.91680165866E+03  0.33181613417E+03 0.  0.
         13    1    3    3    0    0  0.52611873602E+02 -0.13334111085E+03 -0.39445754243E+03  0.41969585876E+03  0.00000000000E+00 0.  1.
          3    1    3    3  501    0 -0.51935405029E+02  0.18453101589E+03 -0.45865585592E+03  0.49710579989E+03  0.00000000000E+00 0.  1.
         21    1    1    2  502  501 -0.67646857319E+00 -0.51189905035E+02 -0.10934704451E+03  0.12073789849E+03  0.00000000000E+00 0.  1.
<mgrwt>
<rscale>  1 0.30000000E+03</rscale>
<asrwt>0</asrwt>
<pdfrwt beam="1">  1        3 0.13650777E+00 0.30000000E+03</pdfrwt>
<pdfrwt beam="2">0</pdfrwt>
<totfact> 0.14797198E+00</totfact>
</mgrwt>
</event>
<event>
 6    1  0.1950139E-004  0.3000000E+03  0.7818608E-02  0.1093470E+00
          1   -1    0    0  502    0  0.00000000000E+00  0.00000000000E+00  0.51664495678E+02  0.51664495678E+02  0.00000000000E+00 0.  1.
         13   -1    0    0    0    0 -0.00000000000E+00 -0.00000000000E+00 -0.10000000000E+04  0.10000000000E+04  0.00000000000E+00 0.  1.
    9000005    2    1    2  501    0 -0.64805783656E+01 -0.17421017861E+02 -0.96837433358E+03  0.10243323820E+04  0.33341039150E+03 0.  0.
         13    1    3    3    0    0  0.10053527975E+03 -0.11934882564E+03 -0.28268186257E+03  0.32289397654E+03  0.00000000000E+00 0.  1.
          3    1    3    3  501    0 -0.10701585812E+03  0.10192780778E+03 -0.68569247100E+03  0.70143840548E+03  0.00000000000E+00 0.  1.
         21    1    1    2  502  501  0.64805783656E+01  0.17421017861E+02  0.20038829255E+02  0.27332113661E+02  0.00000000000E+00 0.  1.
<mgrwt>
<rscale>  1 0.30000000E+03</rscale>
<asrwt>0</asrwt>
<pdfrwt beam="1">  1        1 0.18787129E+00 0.30000000E+03</pdfrwt>
<pdfrwt beam="2">0</pdfrwt>
<totfact> 0.11706326E+01</totfact>
</mgrwt>
</event>
<event>
 6    1  0.1950139E-004  0.3000000E+03  0.7818608E-02  0.1093470E+00
          1   -1    0    0  502    0  0.00000000000E+00  0.00000000000E+00  0.30659893990E+02  0.30659893990E+02  0.00000000000E+00 0.  1.
         13   -1    0    0    0    0 -0.00000000000E+00 -0.00000000000E+00 -0.10000000000E+04  0.10000000000E+04  0.00000000000E+00 0.  1.
    9000005    2    1    2  501    0 -0.76020287611E+01 -0.12623219403E+02 -0.95665310621E+03  0.10112151910E+04  0.32734364273E+03 0.  0.
         13    1    3    3    0    0  0.11817679716E+03 -0.80536719393E+02 -0.72530506579E+03  0.73926947523E+03  0.00000000000E+00 0.  1.
          1    1    3    3  501    0 -0.12577882592E+03  0.67913499990E+02 -0.23134804042E+03  0.27194571579E+03  0.00000000000E+00 0.  1.
         21    1    1    2  502  501  0.76020287611E+01  0.12623219403E+02 -0.12686999805E+02  0.19444702966E+02  0.00000000000E+00 0.  1.
<mgrwt>
<rscale>  1 0.30000000E+03</rscale>
<asrwt>0</asrwt>
<pdfrwt beam="1">  1        1 0.11149076E+00 0.30000000E+03</pdfrwt>
<pdfrwt beam="2">0</pdfrwt>
<totfact> 0.29110498E+01</totfact>
</mgrwt>
</event>
<event>
 6    1  0.1950139E-004  0.3000000E+03  0.7818608E-02  0.1093470E+00
          1   -1    0    0  502    0  0.00000000000E+00  0.00000000000E+00  0.31926969418E+02  0.31926969418E+02  0.00000000000E+00 0.  1.
         13   -1    0    0    0    0 -0.00000000000E+00 -0.00000000000E+00 -0.10000000000E+04  0.10000000000E+04  0.00000000000E+00 0.  1.
    9000005    2    1    2  501    0 -0.76932323313E+01  0.10397474503E+02 -0.92696233189E+03  0.98882960469E+03  0.34403129082E+03 0.  0.
         13    1    3    3    0    0 -0.99377911524E+02 -0.12403886002E+03 -0.28250712591E+03  0.32414793580E+03  0.00000000000E+00 0.  1.
          1    1    3    3  501    0  0.91684679193E+02  0.13443633453E+03 -0.64445520598E+03  0.66468166889E+03  0.00000000000E+00 0.  1.
         21    1    1    2  502  501  0.76932323313E+01 -0.10397474503E+02 -0.41110698693E+02  0.43097364731E+02  0.00000000000E+00 0.  1.
<mgrwt>
<rscale>  1 0.30000000E+03</rscale>
<asrwt>0</asrwt>
<pdfrwt beam="1">  1        1 0.11609832E+00 0.30000000E+03</pdfrwt>
<pdfrwt beam="2">0</pdfrwt>
<totfact> 0.27363389E+01</totfact>
</mgrwt>
</event>
<event>
 6    1  0.1950139E-004  0.3000000E+03  0.7818608E-02  0.1093470E+00
          1   -1    0    0  502    0  0.00000000000E+00  0.00000000000E+00  0.30882938129E+02  0.30882938129E+02  0.00000000000E+00 0.  1.
         13   -1    0    0    0    0 -0.00000000000E+00 -0.00000000000E+00 -0.10000000000E+04  0.10000000000E+04  0.00000000000E+00 0.  1.
    9000005    2    1    2  501    0 -0.88465549910E+01  0.55967578437E+01 -0.96908839187E+03  0.10204146023E+04  0.31938075089E+03 0.  0.
         13    1    3    3    0    0  0.45440151534E+02 -0.13644834059E+03 -0.28031526774E+03  0.31505492592E+03  0.00000000000E+00 0.  1.
          1    1    3    3  501    0 -0.54286706525E+02  0.14204509843E+03 -0.68877312413E+03  0.70535967635E+03  0.00000000000E+00 0.  1.
         21    1    1    2  502  501  0.88465549910E+01 -0.55967578437E+01 -0.28669998082E-01  0.10468335853E+02  0.00000000000E+00 0. -1.
<mgrwt>
<rscale>  1 0.30000000E+03</rscale>
<asrwt>0</asrwt>
<pdfrwt beam="1">  1        1 0.11230183E+00 0.30000000E+03</pdfrwt>
<pdfrwt beam="2">0</pdfrwt>
<totfact> 0.28791678E+01</totfact>
</mgrwt>
</event>
<event>
 6    1  0.1950139E-004  0.3000000E+03  0.7818608E-02  0.1093470E+00
          1   -1    0    0  502    0  0.00000000000E+00  0.00000000000E+00  0.41836245760E+02  0.41836245760E+02  0.00000000000E+00 0.  1.
         13   -1    0    0    0    0 -0.00000000000E+00 -0.00000000000E+00 -0.10000000000E+04  0.10000000000E+04  0.00000000000E+00 0.  1.
    9000005    2    1    2  501    0 -0.30929234550E+02  0.99760644330E+01 -0.95331556494E+03  0.10089783038E+04  0.32889285753E+03 0.  0.
         13    1    3    3    0    0 -0.52052095392E+02 -0.11442138782E+03 -0.14952472697E+03  0.19534410306E+03  0.00000000000E+00 0.  1.
          3    1    3    3  501    0  0.21122860842E+02  0.12439745225E+03 -0.80379083798E+03  0.81363420073E+03  0.00000000000E+00 0.  1.
         21    1    1    2  502  501  0.30929234550E+02 -0.99760644330E+01 -0.48481892977E+01  0.32857941976E+02  0.00000000000E+00 0.  1.
<mgrwt>
<rscale>  1 0.30000000E+03</rscale>
<asrwt>0</asrwt>
<pdfrwt beam="1">  1        1 0.15213212E+00 0.30000000E+03</pdfrwt>
<pdfrwt beam="2">0</pdfrwt>
<totfact> 0.17523303E+01</totfact>
</mgrwt>
</event>
<event>
 6    1  0.1950139E-004  0.3000000E+03  0.7818608E-02  0.1093470E+00
          1   -1    0    0  502    0  0.00000000000E+00  0.00000000000E+00  0.40465254121E+02  0.40465254121E+02  0.00000000000E+00 0.  1.
         13   -1    0    0    0    0 -0.00000000000E+00 -0.00000000000E+00 -0.10000000000E+04  0.10000000000E+04  0.00000000000E+00 0.  1.
    9000005    2    1    2  501    0  0.15396676692E+02 -0.27723966570E+01 -0.97117347556E+03  0.10209664371E+04  0.31456287484E+03 0.  0.
         13    1    3    3    0    0 -0.11114437855E+03 -0.91335193658E+02 -0.63375221143E+03  0.64987464635E+03  0.00000000000E+00 0.  1.
          1    1    3    3  501    0  0.12654105524E+03  0.88562797001E+02 -0.33742126414E+03  0.37109179075E+03  0.00000000000E+00 0.  1.
         21    1    1    2  502  501 -0.15396676692E+02  0.27723966570E+01  0.11638729682E+02  0.19498817015E+02  0.00000000000E+00 0.  1.
<mgrwt>
<rscale>  1 0.30000000E+03</rscale>
<asrwt>0</asrwt>
<pdfrwt beam="1">  1        1 0.14714669E+00 0.30000000E+03</pdfrwt>
<pdfrwt beam="2">0</pdfrwt>
<totfact> 0.18577796E+01</totfact>
</mgrwt>
</event>
<event>
 6    1  0.1950139E-004  0.3000000E+03  0.7818608E-02  0.1093470E+00
          1   -1    0    0  502    0  0.00000000000E+00  0.00000000000E+00  0.91325689650E+02  0.91325689650E+02  0.00000000000E+00 0.  1.
         13   -1    0    0    0    0 -0.00000000000E+00 -0.00000000000E+00 -0.10000000000E+04  0.10000000000E+04  0.00000000000E+00 0.  1.
    9000005    2    1    2  501    0  0.12182608092E+02  0.68992281403E+01 -0.97329988018E+03  0.10252009623E+04  0.32175820283E+03 0.  0.
         13    1    3    3    0    0  0.72947008815E+02 -0.10029239705E+03 -0.15906896953E+03  0.20169969774E+03  0.00000000000E+00 0.  1.
          3    1    3    3  501    0 -0.60764400724E+02  0.10719162519E+03 -0.81423091065E+03  0.82350126458E+03  0.00000000000E+00 0.  1.
         21    1    1    2  502  501 -0.12182608092E+02 -0.68992281403E+01  0.64625569830E+02  0.66124727331E+02  0.00000000000E+00 0.  1.
<mgrwt>
<rscale>  1 0.30000000E+03</rscale>
<asrwt>0</asrwt>
<pdfrwt beam="1">  1        1 0.33209412E+00 0.30000000E+03</pdfrwt>
<pdfrwt beam="2">0</pdfrwt>
<totfact> 0.24272726E+00</totfact>
</mgrwt>
</event>
<event>
 6    1  0.1950139E-004  0.3000000E+03  0.7818608E-02  0.1093470E+00
          1   -1    0    0  502    0  0.00000000000E+00  0.00000000000E+00  0.29470450313E+02  0.29470450313E+02  0.00000000000E+00 0.  1.
         13   -1    0    0    0    0 -0.00000000000E+00 -0.00000000000E+00 -0.10000000000E+04  0.10000000000E+04  0.00000000000E+00 0.  1.
    9000005    2    1    2  501    0  0.13133472383E+02  0.28652282690E+01 -0.93864349658E+03  0.99486672201E+03  0.32943509718E+03 0.  0.
         13    1    3    3    0    0  0.12774100050E+03  0.37665275739E+02 -0.80275381444E+03  0.81372607357E+03  0.00000000000E+00 0.  1.
          3    1    3    3  501    0 -0.11460752812E+03 -0.34800047470E+02 -0.13588968214E+03  0.18114064844E+03  0.00000000000E+00 0.  1.
         21    1    1    2  502  501 -0.13133472383E+02 -0.28652282690E+01 -0.31886053108E+02  0.34603728306E+02  0.00000000000E+00 0. -1.
<mgrwt>
<rscale>  1 0.30000000E+03</rscale>
<asrwt>0</asrwt>
<pdfrwt beam="1">  1        1 0.10716550E+00 0.30000000E+03</pdfrwt>
<pdfrwt beam="2">0</pdfrwt>
<totfact> 0.30898208E+01</totfact>
</mgrwt>
</event>
<event>
 6    1  0.1950139E-004  0.3000000E+03  0.7818608E-02  0.1093470E+00
          1   -1    0    0  502    0  0.00000000000E+00  0.00000000000E+00  0.37051773741E+02  0.37051773741E+02  0.00000000000E+00 0.  1.
         13   -1    0    0    0    0 -0.00000000000E+00 -0.00000000000E+00 -0.10000000000E+04  0.10000000000E+04  0.00000000000E+00 0.  1.
    9000005    2    1    2  501    0  0.23537312999E+02 -0.15412552088E+02 -0.92564904164E+03  0.99033153147E+03  0.35091144475E+03 0.  0.
         13    1    3    3    0    0 -0.66032755072E+02 -0.16483481005E+03 -0.44834548038E+03  0.48222868965E+03  0.00000000000E+00 0.  1.
          1    1    3    3  501    0  0.89570068071E+02  0.14942225796E+03 -0.47730356126E+03  0.50810284181E+03  0.00000000000E+00 0.  1.
         21    1    1    2  502  501 -0.23537312999E+02  0.15412552088E+02 -0.37299184617E+02  0.46720242274E+02  0.00000000000E+00 0. -1.
<mgrwt>
<rscale>  1 0.30000000E+03</rscale>
<asrwt>0</asrwt>
<pdfrwt beam="1">  1        1 0.13473401E+00 0.30000000E+03</pdfrwt>
<pdfrwt beam="2">0</pdfrwt>
<totfact> 0.21572978E+01</totfact>
</mgrwt>
</event>
<event>
 6    1  0.1950139E-004  0.3000000E+03  0.7818608E-02  0.1093470E+00
          1   -1    0    0  502    0  0.00000000000E+00  0.00000000000E+00  0.44386862925E+02  0.44386862925E+02  0.00000000000E+00 0.  1.
         13   -1    0    0    0    0 -0.00000000000E+00 -0.00000000000E+00 -0.10000000000E+04  0.10000000000E+04  0.00000000000E+00 0.  1.
    9000005    2    1    2  501    0  0.39672522431E+02  0.38282753290E+02 -0.92455151617E+03  0.98110730439E+03  0.32363028047E+03 0.  0.
         13    1    3    3    0    0 -0.53112536344E+02  0.11070067356E+02 -0.28298159535E+01  0.54327670357E+02  0.00000000000E+00 0.  1.
          1    1    3    3  501    0  0.92785058774E+02  0.27212685933E+02 -0.92172170021E+03  0.92677963403E+03  0.00000000000E+00 0.  1.
         21    1    1    2  502  501 -0.39672522431E+02 -0.38282753290E+02 -0.31061620910E+02  0.63279558540E+02  0.00000000000E+00 0.  1.
<mgrwt>
<rscale>  1 0.30000000E+03</rscale>
<asrwt>0</asrwt>
<pdfrwt beam="1">  1        1 0.16140711E+00 0.30000000E+03</pdfrwt>
<pdfrwt beam="2">0</pdfrwt>
<totfact> 0.15747859E+01</totfact>
</mgrwt>
</event>
<event>
 6    1  0.1950139E-004  0.3000000E+03  0.7818608E-02  0.1093470E+00
          1   -1    0    0  502    0  0.00000000000E+00  0.00000000000E+00  0.31644778215E+02  0.31644778215E+02  0.00000000000E+00 0.  1.
         13   -1    0    0    0    0 -0.00000000000E+00 -0.00000000000E+00 -0.10000000000E+04  0.10000000000E+04  0.00000000000E+00 0.  1.
    9000005    2    1    2  501    0  0.15360691785E+02 -0.17292046599E+02 -0.90037229235E+03  0.95983499878E+03  0.33178003907E+03 0.  0.
         13    1    3    3    0    0 -0.11433196449E+03  0.67547468061E+01 -0.11091780733E+03  0.15943708694E+03  0.00000000000E+00 0.  1.
          1    1    3    3  501    0  0.12969265628E+03 -0.24046793406E+02 -0.78945448501E+03  0.80039791184E+03  0.00000000000E+00 0.  1.
         21    1    1    2  502  501 -0.15360691785E+02  0.17292046599E+02 -0.67982929438E+02  0.71809779436E+02  0.00000000000E+00 0. -1.
<mgrwt>
<rscale>  1 0.30000000E+03</rscale>
<asrwt>0</asrwt>
<pdfrwt beam="1">  1        1 0.11507216E+00 0.30000000E+03</pdfrwt>
<pdfrwt beam="2">0</pdfrwt>
<totfact> 0.27739414E+01</totfact>
</mgrwt>
</event>
<event>
 6    1  0.1950139E-004  0.3000000E+03  0.7818608E-02  0.1093470E+00
          1   -1    0    0  502    0  0.00000000000E+00  0.00000000000E+00  0.27798561157E+02  0.27798561157E+02  0.00000000000E+00 0.  1.
         13   -1    0    0    0    0 -0.00000000000E+00 -0.00000000000E+00 -0.10000000000E+04  0.10000000000E+04  0.00000000000E+00 0.  1.
    9000005    2    1    2  501    0  0.22809527649E+01 -0.12641198815E+02 -0.94287566476E+03  0.99578288252E+03  0.32000629255E+03 0.  0.
         13    1    3    3    0    0 -0.72450746750E+02 -0.14742248654E+03 -0.54023978671E+03  0.56466054173E+03  0.00000000000E+00 0.  1.
          3    1    3    3  501    0  0.74731699515E+02  0.13478128773E+03 -0.40263587806E+03  0.43112234079E+03  0.00000000000E+00 0.  1.
         21    1    1    2  502  501 -0.22809527649E+01  0.12641198815E+02 -0.29325774078E+02  0.32015678633E+02  0.00000000000E+00 0.  1.
<mgrwt>
<rscale>  1 0.30000000E+03</rscale>
<asrwt>0</asrwt>
<pdfrwt beam="1">  1        1 0.10108589E+00 0.30000000E+03</pdfrwt>
<pdfrwt beam="2">0</pdfrwt>
<totfact> 0.33689815E+01</totfact>
</mgrwt>
</event>
<event>
 6    1  0.1950139E-004  0.3000000E+03  0.7818608E-02  0.1093470E+00
          1   -1    0    0  502    0  0.00000000000E+00  0.00000000000E+00  0.40733142158E+02  0.40733142158E+02  0.00000000000E+00 0.  1.
         13   -1    0    0    0    0 -0.00000000000E+00 -0.00000000000E+00 -0.10000000000E+04  0.10000000000E+04  0.00000000000E+00 0.  1.
    9000005    2    1    2  501    0  0.59832182890E+01  0.12930954331E+02 -0.97011414215E+03  0.10228258236E+04  0.32380273029E+03 0.  0.
         13    1    3    3    0    0 -0.13461078520E+01 -0.14171711084E+03 -0.26088428953E+03  0.29689419670E+03  0.00000000000E+00 0.  1.
          3    1    3    3  501    0  0.73293261410E+01  0.15464806517E+03 -0.70922985262E+03  0.72593162690E+03  0.00000000000E+00 0.  1.
         21    1    1    2  502  501 -0.59832182890E+01 -0.12930954331E+02  0.10847284309E+02  0.17907318557E+02  0.00000000000E+00 0.  1.
<mgrwt>
<rscale>  1 0.30000000E+03</rscale>
<asrwt>0</asrwt>
<pdfrwt beam="1">  1        1 0.14812083E+00 0.30000000E+03</pdfrwt>
<pdfrwt beam="2">0</pdfrwt>
<totfact> 0.18365675E+01</totfact>
</mgrwt>
</event>
<event>
 6    1  0.1950139E-004  0.3000000E+03  0.7818608E-02  0.1093470E+00
          1   -1    0    0  502    0  0.00000000000E+00  0.00000000000E+00  0.42864061833E+02  0.42864061833E+02  0.00000000000E+00 0.  1.
         13   -1    0    0    0    0 -0.00000000000E+00 -0.00000000000E+00 -0.10000000000E+04  0.10000000000E+04  0.00000000000E+00 0.  1.
    9000005    2    1    2  501    0 -0.30814549772E+02 -0.14141188432E+02 -0.95045327059E+03  0.10083073297E+04  0.33492199377E+03 0.  0.
         13    1    3    3    0    0  0.12973719968E+03 -0.77163180583E+02 -0.58556497221E+03  0.60470838766E+03  0.00000000000E+00 0.  1.
          1    1    3    3  501    0 -0.16055174945E+03  0.63021992151E+02 -0.36488829838E+03  0.40359894207E+03  0.00000000000E+00 0.  1.
         21    1    1    2  502  501  0.30814549772E+02  0.14141188432E+02 -0.66826675730E+01  0.34556732106E+02  0.00000000000E+00 0.  1.
<mgrwt>
<rscale>  1 0.30000000E+03</rscale>
<asrwt>0</asrwt>
<pdfrwt beam="1">  1        1 0.15586964E+00 0.30000000E+03</pdfrwt>
<pdfrwt beam="2">0</pdfrwt>
<totfact> 0.16780569E+01</totfact>
</mgrwt>
</event>
<event>
 6    1  0.1950139E-004  0.3000000E+03  0.7818608E-02  0.1093470E+00
          1   -1    0    0  502    0  0.00000000000E+00  0.00000000000E+00  0.27328391492E+02  0.27328391492E+02  0.00000000000E+00 0.  1.
         13   -1    0    0    0    0 -0.00000000000E+00 -0.00000000000E+00 -0.10000000000E+04  0.10000000000E+04  0.00000000000E+00 0.  1.
    9000005    2    1    2  501    0  0.12274447507E+02  0.10990170406E+01 -0.96557264088E+03  0.10131063930E+04  0.30643460770E+03 0.  0.
         13    1    3    3    0    0  0.17877987731E+02  0.87549142984E+02 -0.90008059086E+03  0.90450513814E+03  0.00000000000E+00 0.  1.
          1    1    3    3  501    0 -0.56035402243E+01 -0.86450125943E+02 -0.65492050026E+02  0.10860125485E+03  0.00000000000E+00 0.  1.
         21    1    1    2  502  501 -0.12274447507E+02 -0.10990170406E+01 -0.70989676244E+01  0.14221998502E+02  0.00000000000E+00 0.  1.
<mgrwt>
<rscale>  1 0.30000000E+03</rscale>
<asrwt>0</asrwt>
<pdfrwt beam="1">  1        1 0.99376179E-01 0.30000000E+03</pdfrwt>
<pdfrwt beam="2">0</pdfrwt>
<totfact> 0.34541243E+01</totfact>
</mgrwt>
</event>
<event>
 6    1  0.1950139E-004  0.3000000E+03  0.7818608E-02  0.1093470E+00
          1   -1    0    0  502    0  0.00000000000E+00  0.00000000000E+00  0.30459578845E+02  0.30459578845E+02  0.00000000000E+00 0.  1.
         13   -1    0    0    0    0 -0.00000000000E+00 -0.00000000000E+00 -0.10000000000E+04  0.10000000000E+04  0.00000000000E+00 0.  1.
    9000005    2    1    2  501    0 -0.41593356181E+01  0.89304124949E+01 -0.95672220716E+03  0.10142929790E+04  0.33671325080E+03 0.  0.
         13    1    3    3    0    0  0.11855192742E+03  0.33304709639E+02 -0.81909601165E+03  0.82830069388E+03  0.00000000000E+00 0.  1.
          1    1    3    3  501    0 -0.12271126304E+03 -0.24374297144E+02 -0.13762619551E+03  0.18599228513E+03  0.00000000000E+00 0.  1.
         21    1    1    2  502  501  0.41593356181E+01 -0.89304124949E+01 -0.12818213996E+02  0.16166599833E+02  0.00000000000E+00 0. -1.
<mgrwt>
<rscale>  1 0.30000000E+03</rscale>
<asrwt>0</asrwt>
<pdfrwt beam="1">  1        1 0.11076234E+00 0.30000000E+03</pdfrwt>
<pdfrwt beam="2">0</pdfrwt>
<totfact> 0.29401095E+01</totfact>
</mgrwt>
</event>
<event>
 6    1  0.1950139E-004  0.3000000E+03  0.7818608E-02  0.1093470E+00
          1   -1    0    0  502    0  0.00000000000E+00  0.00000000000E+00  0.30268583696E+02  0.30268583696E+02  0.00000000000E+00 0.  1.
         13   -1    0    0    0    0 -0.00000000000E+00 -0.00000000000E+00 -0.10000000000E+04  0.10000000000E+04  0.00000000000E+00 0.  1.
    9000005    2    1    2  501    0  0.96765382991E+01 -0.54217534837E+01 -0.96105498607E+03  0.10161862811E+04  0.32997703084E+03 0.  0.
         13    1    3    3    0    0  0.16963690767E+03 -0.11975637278E+02 -0.49113085135E+03  0.51973994409E+03  0.00000000000E+00 0.  1.
          1    1    3    3  501    0 -0.15996036937E+03  0.65538837941E+01 -0.46992413471E+03  0.49644633703E+03  0.00000000000E+00 0.  1.
         21    1    1    2  502  501 -0.96765382991E+01  0.54217534837E+01 -0.86764302380E+01  0.14082302580E+02  0.00000000000E+00 0.  1.
<mgrwt>
<rscale>  1 0.30000000E+03</rscale>
<asrwt>0</asrwt>
<pdfrwt beam="1">  1        1 0.11006781E+00 0.30000000E+03</pdfrwt>
<pdfrwt beam="2">0</pdfrwt>
<totfact> 0.29682011E+01</totfact>
</mgrwt>
</event>
<event>
 6    1  0.1950139E-004  0.3000000E+03  0.7818608E-02  0.1093470E+00
          3   -1    0    0  502    0  0.00000000000E+00  0.00000000000E+00  0.35254539307E+02  0.35254539307E+02  0.00000000000E+00 0.  1.
         13   -1    0    0    0    0 -0.00000000000E+00 -0.00000000000E+00 -0.10000000000E+04  0.10000000000E+04  0.00000000000E+00 0.  1.
    9000005    2    1    2  501    0  0.38491745441E+02 -0.26787823673E+02 -0.86131896301E+03  0.92169291556E+03  0.32472799786E+03 0.  0.
         13    1    3    3    0    0  0.19299543122E+01  0.10738923063E+03 -0.70219628345E+03  0.71036314099E+03  0.00000000000E+00 0.  1.
          3    1    3    3  501    0  0.36561791129E+02 -0.13417705431E+03 -0.15912267956E+03  0.21132977458E+03  0.00000000000E+00 0.  1.
         21    1    1    2  502  501 -0.38491745441E+02  0.26787823673E+02 -0.10342649768E+03  0.11356162375E+03  0.00000000000E+00 0. -1.
<mgrwt>
<rscale>  1 0.30000000E+03</rscale>
<asrwt>0</asrwt>
<pdfrwt beam="1">  1        3 0.12819860E+00 0.30000000E+03</pdfrwt>
<pdfrwt beam="2">0</pdfrwt>
<totfact> 0.18572816E+00</totfact>
</mgrwt>
</event>
<event>
 6    1  0.1950139E-004  0.3000000E+03  0.7818608E-02  0.1093470E+00
          1   -1    0    0  502    0  0.00000000000E+00  0.00000000000E+00  0.36392744872E+02  0.36392744872E+02  0.00000000000E+00 0.  1.
         13   -1    0    0    0    0 -0.00000000000E+00 -0.00000000000E+00 -0.10000000000E+04  0.10000000000E+04  0.00000000000E+00 0.  1.
    9000005    2    1    2  501    0  0.21065992146E+02 -0.25809040408E+02 -0.93641269238E+03  0.99338778196E+03  0.32991009731E+03 0.  0.
         13    1    3    3    0    0  0.19828430113E+02 -0.90837092812E+02 -0.51887652997E+02  0.10647475102E+03  0.00000000000E+00 0.  1.
          3    1    3    3  501    0  0.12375620330E+01  0.65028052404E+02 -0.88452503938E+03  0.88691303094E+03  0.00000000000E+00 0.  1.
         21    1    1    2  502  501 -0.21065992146E+02  0.25809040408E+02 -0.27194562746E+02  0.43004962909E+02  0.00000000000E+00 0. -1.
<mgrwt>
<rscale>  1 0.30000000E+03</rscale>
<asrwt>0</asrwt>
<pdfrwt beam="1">  1        1 0.13233753E+00 0.30000000E+03</pdfrwt>
<pdfrwt beam="2">0</pdfrwt>
<totfact> 0.22221882E+01</totfact>
</mgrwt>
</event>
<event>
 6    1  0.1950139E-004  0.3000000E+03  0.7818608E-02  0.1093470E+00
          3   -1    0    0  502    0  0.00000000000E+00  0.00000000000E+00  0.42057949226E+02  0.42057949226E+02  0.00000000000E+00 0.  1.
         13   -1    0    0    0    0 -0.00000000000E+00 -0.00000000000E+00 -0.10000000000E+04  0.10000000000E+04  0.00000000000E+00 0.  1.
    9000005    2    1    2  501    0 -0.31101776099E+02  0.40517009188E+02 -0.90313075242E+03  0.96713647743E+03  0.34219710911E+03 0.  0.
         13    1    3    3    0    0  0.54353655353E+02  0.59777005725E+02 -0.86959099077E+03  0.87333619041E+03  0.00000000000E+00 0.  1.
          1    1    3    3  501    0 -0.85455431452E+02 -0.19259996537E+02 -0.33539761656E+02  0.93800287010E+02  0.00000000000E+00 0.  1.
         21    1    1    2  502  501  0.31101776099E+02 -0.40517009188E+02 -0.54811298349E+02  0.74921471801E+02  0.00000000000E+00 0.  1.
<mgrwt>
<rscale>  1 0.30000000E+03</rscale>
<asrwt>0</asrwt>
<pdfrwt beam="1">  1        3 0.15293832E+00 0.30000000E+03</pdfrwt>
<pdfrwt beam="2">0</pdfrwt>
<totfact> 0.90039267E-01</totfact>
</mgrwt>
</event>
<event>
 6    1  0.1950139E-004  0.3000000E+03  0.7818608E-02  0.1093470E+00
          1   -1    0    0  502    0  0.00000000000E+00  0.00000000000E+00  0.26979190587E+02  0.26979190587E+02  0.00000000000E+00 0.  1.
         13   -1    0    0    0    0 -0.00000000000E+00 -0.00000000000E+00 -0.10000000000E+04  0.10000000000E+04  0.00000000000E+00 0.  1.
    9000005    2    1    2  501    0 -0.68777095315E+01 -0.56168462742E+01 -0.95370755384E+03  0.10057223401E+04  0.31912454518E+03 0.  0.
         13    1    3    3    0    0 -0.58095228571E+02  0.12765255992E+03 -0.24086246943E+03  0.27872021961E+03  0.00000000000E+00 0.  1.
          1    1    3    3  501    0  0.51217519039E+02 -0.13326940619E+03 -0.71284508441E+03  0.72700212052E+03  0.00000000000E+00 0.  1.
         21    1    1    2  502  501  0.68777095315E+01  0.56168462742E+01 -0.19313255572E+02  0.21256850455E+02  0.00000000000E+00 0.  1.
<mgrwt>
<rscale>  1 0.30000000E+03</rscale>
<asrwt>0</asrwt>
<pdfrwt beam="1">  1        1 0.98106354E-01 0.30000000E+03</pdfrwt>
<pdfrwt beam="2">0</pdfrwt>
<totfact> 0.35194296E+01</totfact>
</mgrwt>
</event>
<event>
 6    1  0.1950139E-004  0.3000000E+03  0.7818608E-02  0.1093470E+00
          1   -1    0    0  502    0  0.00000000000E+00  0.00000000000E+00  0.45315496077E+02  0.45315496077E+02  0.00000000000E+00 0.  1.
         13   -1    0    0    0    0 -0.00000000000E+00 -0.00000000000E+00 -0.10000000000E+04  0.10000000000E+04  0.00000000000E+00 0.  1.
    9000005    2    1    2  501    0 -0.15638331936E+02  0.15609950358E+02 -0.95672276410E+03  0.10231258030E+04  0.36191122304E+03 0.  0.
         13    1    3    3    0    0 -0.11394910003E+03  0.11481922803E+03 -0.78637053776E+03  0.80283651834E+03  0.00000000000E+00 0.  1.
          1    1    3    3  501    0  0.98310768098E+02 -0.99209277674E+02 -0.17035222635E+03  0.22028928463E+03  0.00000000000E+00 0.  1.
         21    1    1    2  502  501  0.15638331936E+02 -0.15609950358E+02  0.20382601789E+01  0.22189693113E+02  0.00000000000E+00 0.  1.
<mgrwt>
<rscale>  1 0.30000000E+03</rscale>
<asrwt>0</asrwt>
<pdfrwt beam="1">  1        1 0.16478397E+00 0.30000000E+03</pdfrwt>
<pdfrwt beam="2">0</pdfrwt>
<totfact> 0.15154393E+01</totfact>
</mgrwt>
</event>
<event>
 6    1  0.1950139E-004  0.3000000E+03  0.7818608E-02  0.1093470E+00
          1   -1    0    0  502    0  0.00000000000E+00  0.00000000000E+00  0.32860499184E+02  0.32860499184E+02  0.00000000000E+00 0.  1.
         13   -1    0    0    0    0 -0.00000000000E+00 -0.00000000000E+00 -0.10000000000E+04  0.10000000000E+04  0.00000000000E+00 0.  1.
    9000005    2    1    2  501    0 -0.26508717791E+01 -0.12398894368E+02 -0.96669709703E+03  0.10201736783E+04  0.32571505463E+03 0.  0.
         13    1    3    3    0    0 -0.38937724428E+02 -0.38338254942E+02 -0.97351800252E+03  0.97505039326E+03  0.00000000000E+00 0.  1.
          3    1    3    3  501    0  0.36286852649E+02  0.25939360573E+02  0.68209054865E+01  0.45123285051E+02  0.00000000000E+00 0.  1.
         21    1    1    2  502  501  0.26508717791E+01  0.12398894368E+02 -0.44240378724E+00  0.12686820873E+02  0.00000000000E+00 0.  1.
<mgrwt>
<rscale>  1 0.30000000E+03</rscale>
<asrwt>0</asrwt>
<pdfrwt beam="1">  1        1 0.11949298E+00 0.30000000E+03</pdfrwt>
<pdfrwt beam="2">0</pdfrwt>
<totfact> 0.26168385E+01</totfact>
</mgrwt>
</event>
<event>
 6    1  0.1950139E-004  0.3000000E+03  0.7818608E-02  0.1093470E+00
          1   -1    0    0  502    0  0.00000000000E+00  0.00000000000E+00  0.46031508045E+02  0.46031508045E+02  0.00000000000E+00 0.  1.
         13   -1    0    0    0    0 -0.00000000000E+00 -0.00000000000E+00 -0.10000000000E+04  0.10000000000E+04  0.00000000000E+00 0.  1.
    9000005    2    1    2  501    0 -0.89573068942E+01  0.17484391127E+02 -0.97090765718E+03  0.10200917201E+04  0.31231314634E+03 0.  0.
         13    1    3    3    0    0 -0.15145558129E+03  0.54482537101E+01 -0.67005812430E+03  0.68698352710E+03  0.00000000000E+00 0.  1.
          3    1    3    3  501    0  0.14249827440E+03  0.12036137417E+02 -0.30084953288E+03  0.33310819300E+03  0.00000000000E+00 0.  1.
         21    1    1    2  502  501  0.89573068942E+01 -0.17484391127E+02  0.16939165224E+02  0.25939787940E+02  0.00000000000E+00 0.  1.
<mgrwt>
<rscale>  1 0.30000000E+03</rscale>
<asrwt>0</asrwt>
<pdfrwt beam="1">  1        1 0.16738765E+00 0.30000000E+03</pdfrwt>
<pdfrwt beam="2">0</pdfrwt>
<totfact> 0.14714267E+01</totfact>
</mgrwt>
</event>
<event>
 6    1  0.1950139E-004  0.3000000E+03  0.7818608E-02  0.1093470E+00
          1   -1    0    0  502    0  0.00000000000E+00  0.00000000000E+00  0.47916662352E+02  0.47916662352E+02  0.00000000000E+00 0.  1.
         13   -1    0    0    0    0 -0.00000000000E+00 -0.00000000000E+00 -0.10000000000E+04  0.10000000000E+04  0.00000000000E+00 0.  1.
    9000005    2    1    2  501    0  0.53054215259E+02  0.54401737655E+02 -0.88802832624E+03  0.94853183804E+03  0.32456746719E+03 0.  0.
         13    1    3    3    0    0 -0.50139896385E+02  0.32264466004E+02 -0.56800570653E+01  0.59893806226E+02  0.00000000000E+00 0.  1.
          3    1    3    3  501    0  0.10319411164E+03  0.22137271651E+02 -0.88234826917E+03  0.88863803182E+03  0.00000000000E+00 0.  1.
         21    1    1    2  502  501 -0.53054215259E+02 -0.54401737655E+02 -0.64055011408E+02  0.99384824310E+02  0.00000000000E+00 0.  1.
<mgrwt>
<rscale>  1 0.30000000E+03</rscale>
<asrwt>0</asrwt>
<pdfrwt beam="1">  1        1 0.17424278E+00 0.30000000E+03</pdfrwt>
<pdfrwt beam="2">0</pdfrwt>
<totfact> 0.13622834E+01</totfact>
</mgrwt>
</event>
<event>
 6    1  0.1950139E-004  0.3000000E+03  0.7818608E-02  0.1093470E+00
          1   -1    0    0  502    0  0.00000000000E+00  0.00000000000E+00  0.74246431267E+02  0.74246431267E+02  0.00000000000E+00 0.  1.
         13   -1    0    0    0    0 -0.00000000000E+00 -0.00000000000E+00 -0.10000000000E+04  0.10000000000E+04  0.00000000000E+00 0.  1.
    9000005    2    1    2  501    0  0.12701935962E+02 -0.45901827281E+01 -0.97250409008E+03  0.10255841235E+04  0.32538620147E+03 0.  0.
         13    1    3    3    0    0 -0.14844141665E+03 -0.43675890952E+02 -0.56045903500E+03  0.58142649367E+03  0.00000000000E+00 0.  1.
          1    1    3    3  501    0  0.16114335262E+03  0.39085708224E+02 -0.41204505509E+03  0.44415762979E+03  0.00000000000E+00 0.  1.
         21    1    1    2  502  501 -0.12701935962E+02  0.45901827281E+01  0.46750521352E+02  0.48662307809E+02  0.00000000000E+00 0.  1.
<mgrwt>
<rscale>  1 0.30000000E+03</rscale>
<asrwt>0</asrwt>
<pdfrwt beam="1">  1        1 0.26998759E+00 0.30000000E+03</pdfrwt>
<pdfrwt beam="2">0</pdfrwt>
<totfact> 0.48087772E+00</totfact>
</mgrwt>
</event>
<event>
 6    1  0.1950139E-004  0.3000000E+03  0.7818608E-02  0.1093470E+00
          1   -1    0    0  502    0  0.00000000000E+00  0.00000000000E+00  0.33565077992E+02  0.33565077992E+02  0.00000000000E+00 0.  1.
         13   -1    0    0    0    0 -0.00000000000E+00 -0.00000000000E+00 -0.10000000000E+04  0.10000000000E+04  0.00000000000E+00 0.  1.
    9000005    2    1    2  501    0  0.39575818236E+02  0.37162172341E+02 -0.85568138797E+03  0.91022158305E+03  0.30555755611E+03 0.  0.
         13    1    3    3    0    0  0.15466441558E+03 -0.51312954389E+02 -0.39790985222E+03  0.42998412905E+03  0.00000000000E+00 0.  1.
          3    1    3    3  501    0 -0.11508859735E+03  0.88475126730E+02 -0.45777153574E+03  0.48023745400E+03  0.00000000000E+00 0.  1.
         21    1    1    2  502  501 -0.39575818236E+02 -0.37162172341E+02 -0.11075353404E+03  0.12334349494E+03  0.00000000000E+00 0.  1.
<mgrwt>
<rscale>  1 0.30000000E+03</rscale>
<asrwt>0</asrwt>
<pdfrwt beam="1">  1        1 0.12205509E+00 0.30000000E+03</pdfrwt>
<pdfrwt beam="2">0</pdfrwt>
<totfact> 0.25312691E+01</totfact>
</mgrwt>
</event>
<event>
 6    1  0.1950139E-004  0.3000000E+03  0.7818608E-02  0.1093470E+00
          1   -1    0    0  502    0  0.00000000000E+00  0.00000000000E+00  0.87031489552E+02  0.87031489552E+02  0.00000000000E+00 0.  1.
         13   -1    0    0    0    0 -0.00000000000E+00 -0.00000000000E+00 -0.10000000000E+04  0.10000000000E+04  0.00000000000E+00 0.  1.
    9000005    2    1    2  501    0  0.29852956706E+02 -0.91926822085E+01 -0.96999312141E+03  0.10220121795E+04  0.32038497926E+03 0.  0.
         13    1    3    3    0    0  0.23769263797E+02  0.10756870256E+03 -0.83992266623E+03  0.84711633730E+03  0.00000000000E+00 0.  1.
          3    1    3    3  501    0  0.60836929086E+01 -0.11676138477E+03 -0.13007045518E+03  0.17489584216E+03  0.00000000000E+00 0.  1.
         21    1    1    2  502  501 -0.29852956706E+02  0.91926822085E+01  0.57024610963E+02  0.65019310099E+02  0.00000000000E+00 0.  1.
<mgrwt>
<rscale>  1 0.30000000E+03</rscale>
<asrwt>0</asrwt>
<pdfrwt beam="1">  1        1 0.31647881E+00 0.30000000E+03</pdfrwt>
<pdfrwt beam="2">0</pdfrwt>
<totfact> 0.28965558E+00</totfact>
</mgrwt>
</event>
<event>
 6    1  0.1950139E-004  0.3000000E+03  0.7818608E-02  0.1093470E+00
          1   -1    0    0  502    0  0.00000000000E+00  0.00000000000E+00  0.30287959873E+02  0.30287959873E+02  0.00000000000E+00 0.  1.
         13   -1    0    0    0    0 -0.00000000000E+00 -0.00000000000E+00 -0.10000000000E+04  0.10000000000E+04  0.00000000000E+00 0.  1.
    9000005    2    1    2  501    0 -0.30649898174E+01 -0.10409953968E+02 -0.96372391326E+03  0.10178936480E+04  0.32745371624E+03 0.  0.
         13    1    3    3    0    0  0.13567522889E+03  0.69888123675E+02 -0.32029952937E+03  0.35480122052E+03  0.00000000000E+00 0.  1.
          1    1    3    3  501    0 -0.13874021871E+03 -0.80298077643E+02 -0.64342438389E+03  0.66309242745E+03  0.00000000000E+00 0.  1.
         21    1    1    2  502  501  0.30649898174E+01  0.10409953968E+02 -0.59881268628E+01  0.12394311902E+02  0.00000000000E+00 0. -1.
<mgrwt>
<rscale>  1 0.30000000E+03</rscale>
<asrwt>0</asrwt>
<pdfrwt beam="1">  1        1 0.11013827E+00 0.30000000E+03</pdfrwt>
<pdfrwt beam="2">0</pdfrwt>
<totfact> 0.29653340E+01</totfact>
</mgrwt>
</event>
<event>
 6    1  0.1950139E-004  0.3000000E+03  0.7818608E-02  0.1093470E+00
          1   -1    0    0  502    0  0.00000000000E+00  0.00000000000E+00  0.28889909747E+02  0.28889909747E+02  0.00000000000E+00 0.  1.
         13   -1    0    0    0    0 -0.00000000000E+00 -0.00000000000E+00 -0.10000000000E+04  0.10000000000E+04  0.00000000000E+00 0.  1.
    9000005    2    1    2  501    0  0.54740583159E+01  0.14014361857E+02 -0.93686830938E+03  0.99148847649E+03  0.32419253882E+03 0.  0.
         13    1    3    3    0    0 -0.88696025405E+02 -0.36747187148E+02 -0.71940822608E+02  0.11997009062E+03  0.00000000000E+00 0.  1.
          3    1    3    3  501    0  0.94170083721E+02  0.50761549005E+02 -0.86492748677E+03  0.87151838587E+03  0.00000000000E+00 0.  1.
         21    1    1    2  502  501 -0.54740583159E+01 -0.14014361857E+02 -0.34241780871E+02  0.37401433260E+02  0.00000000000E+00 0.  1.
<mgrwt>
<rscale>  1 0.30000000E+03</rscale>
<asrwt>0</asrwt>
<pdfrwt beam="1">  1        1 0.10505444E+00 0.30000000E+03</pdfrwt>
<pdfrwt beam="2">0</pdfrwt>
<totfact> 0.31828213E+01</totfact>
</mgrwt>
</event>
<event>
 6    1  0.1950139E-004  0.3000000E+03  0.7818608E-02  0.1093470E+00
          1   -1    0    0  502    0  0.00000000000E+00  0.00000000000E+00  0.44544849919E+02  0.44544849919E+02  0.00000000000E+00 0.  1.
         13   -1    0    0    0    0 -0.00000000000E+00 -0.00000000000E+00 -0.10000000000E+04  0.10000000000E+04  0.00000000000E+00 0.  1.
    9000005    2    1    2  501    0  0.65526007054E+01  0.14942894943E+02 -0.97231645708E+03  0.10210814666E+04  0.31135484891E+03 0.  0.
         13    1    3    3    0    0 -0.83593837639E+02 -0.85654552624E+02 -0.76049499380E+03  0.76985535503E+03  0.00000000000E+00 0.  1.
          3    1    3    3  501    0  0.90146438345E+02  0.10059744757E+03 -0.21182146328E+03  0.25122611152E+03  0.00000000000E+00 0.  1.
         21    1    1    2  502  501 -0.65526007054E+01 -0.14942894943E+02  0.16861307000E+02  0.23463383367E+02  0.00000000000E+00 0.  1.
<mgrwt>
<rscale>  1 0.30000000E+03</rscale>
<asrwt>0</asrwt>
<pdfrwt beam="1">  1        1 0.16198161E+00 0.30000000E+03</pdfrwt>
<pdfrwt beam="2">0</pdfrwt>
<totfact> 0.15645029E+01</totfact>
</mgrwt>
</event>
<event>
 6    1  0.1950139E-004  0.3000000E+03  0.7818608E-02  0.1093470E+00
          1   -1    0    0  502    0  0.00000000000E+00  0.00000000000E+00  0.60320198606E+02  0.60320198606E+02  0.00000000000E+00 0.  1.
         13   -1    0    0    0    0 -0.00000000000E+00 -0.00000000000E+00 -0.10000000000E+04  0.10000000000E+04  0.00000000000E+00 0.  1.
    9000005    2    1    2  501    0 -0.10597709870E+03  0.94347435585E+02 -0.63732761596E+03  0.72633003694E+03  0.31817644233E+03 0.  0.
         13    1    3    3    0    0 -0.14676901190E+03 -0.28625222505E+02 -0.11630391667E+03  0.18943903307E+03  0.00000000000E+00 0.  1.
          3    1    3    3  501    0  0.40791913201E+02  0.12297265809E+03 -0.52102369928E+03  0.53689100387E+03  0.00000000000E+00 0.  1.
         21    1    1    2  502  501  0.10597709870E+03 -0.94347435585E+02 -0.30235218544E+03  0.33399016166E+03  0.00000000000E+00 0. -1.
<mgrwt>
<rscale>  1 0.30000000E+03</rscale>
<asrwt>0</asrwt>
<pdfrwt beam="1">  1        1 0.21934664E+00 0.30000000E+03</pdfrwt>
<pdfrwt beam="2">0</pdfrwt>
<totfact> 0.83016253E+00</totfact>
</mgrwt>
</event>
<event>
 6    1  0.1950139E-004  0.3000000E+03  0.7818608E-02  0.1093470E+00
          1   -1    0    0  502    0  0.00000000000E+00  0.00000000000E+00  0.33996183545E+02  0.33996183545E+02  0.00000000000E+00 0.  1.
         13   -1    0    0    0    0 -0.00000000000E+00 -0.00000000000E+00 -0.10000000000E+04  0.10000000000E+04  0.00000000000E+00 0.  1.
    9000005    2    1    2  501    0  0.10420934926E+02  0.84857266872E+01 -0.96875123574E+03  0.10202793415E+04  0.31985992958E+03 0.  0.
         13    1    3    3    0    0  0.13917170442E+03 -0.75784785596E+02 -0.60303954418E+03  0.62351326280E+03  0.00000000000E+00 0.  1.
          1    1    3    3  501    0 -0.12875076949E+03  0.84270512283E+02 -0.36571169157E+03  0.39676607873E+03  0.00000000000E+00 0.  1.
         21    1    1    2  502  501 -0.10420934926E+02 -0.84857266872E+01  0.27474192880E+01  0.13716842016E+02  0.00000000000E+00 0.  1.
<mgrwt>
<rscale>  1 0.30000000E+03</rscale>
<asrwt>0</asrwt>
<pdfrwt beam="1">  1        1 0.12362275E+00 0.30000000E+03</pdfrwt>
<pdfrwt beam="2">0</pdfrwt>
<totfact> 0.24807259E+01</totfact>
</mgrwt>
</event>
<event>
 6    1  0.1950139E-004  0.3000000E+03  0.7818608E-02  0.1093470E+00
          1   -1    0    0  502    0  0.00000000000E+00  0.00000000000E+00  0.36243089700E+02  0.36243089700E+02  0.00000000000E+00 0.  1.
         13   -1    0    0    0    0 -0.00000000000E+00 -0.00000000000E+00 -0.10000000000E+04  0.10000000000E+04  0.00000000000E+00 0.  1.
    9000005    2    1    2  501    0  0.12438666675E+02  0.10551607333E+02 -0.96702079812E+03  0.10196084929E+04  0.32280984809E+03 0.  0.
         13    1    3    3    0    0 -0.98796413548E+02  0.11112031133E+03 -0.28677501344E+03  0.32302997268E+03  0.00000000000E+00 0.  1.
          3    1    3    3  501    0  0.11123508022E+03 -0.10056870400E+03 -0.68024578468E+03  0.69657852025E+03  0.00000000000E+00 0.  1.
         21    1    1    2  502  501 -0.12438666675E+02 -0.10551607333E+02  0.32638878165E+01  0.16634596768E+02  0.00000000000E+00 0.  1.
<mgrwt>
<rscale>  1 0.30000000E+03</rscale>
<asrwt>0</asrwt>
<pdfrwt beam="1">  1        1 0.13179333E+00 0.30000000E+03</pdfrwt>
<pdfrwt beam="2">0</pdfrwt>
<totfact> 0.22372813E+01</totfact>
</mgrwt>
</event>
<event>
 6    1  0.1950139E-004  0.3000000E+03  0.7818608E-02  0.1093470E+00
          1   -1    0    0  502    0  0.00000000000E+00  0.00000000000E+00  0.65599159813E+02  0.65599159813E+02  0.00000000000E+00 0.  1.
         13   -1    0    0    0    0 -0.00000000000E+00 -0.00000000000E+00 -0.10000000000E+04  0.10000000000E+04  0.00000000000E+00 0.  1.
    9000005    2    1    2  501    0 -0.54986420173E+02 -0.23151111198E+02 -0.94671921351E+03  0.10046793545E+04  0.33097410147E+03 0.  0.
         13    1    3    3    0    0  0.12886819816E+03 -0.69822827500E+02 -0.40373576283E+03  0.42951694486E+03  0.00000000000E+00 0.  1.
          1    1    3    3  501    0 -0.18385461834E+03  0.46671716302E+02 -0.54298345069E+03  0.57516240968E+03  0.00000000000E+00 0.  1.
         21    1    1    2  502  501  0.54986420173E+02  0.23151111198E+02  0.12318373327E+02  0.60919805273E+02  0.00000000000E+00 0.  1.
<mgrwt>
<rscale>  1 0.30000000E+03</rscale>
<asrwt>0</asrwt>
<pdfrwt beam="1">  1        1 0.23854290E+00 0.30000000E+03</pdfrwt>
<pdfrwt beam="2">0</pdfrwt>
<totfact> 0.67491863E+00</totfact>
</mgrwt>
</event>
<event>
 6    1  0.1950139E-004  0.3000000E+03  0.7818608E-02  0.1093470E+00
          1   -1    0    0  502    0  0.00000000000E+00  0.00000000000E+00  0.40651952976E+02  0.40651952976E+02  0.00000000000E+00 0.  1.
         13   -1    0    0    0    0 -0.00000000000E+00 -0.00000000000E+00 -0.10000000000E+04  0.10000000000E+04  0.00000000000E+00 0.  1.
    9000005    2    1    2  501    0  0.27411745108E+02  0.67606871523E+00 -0.95874412689E+03  0.10132252222E+04  0.32662392644E+03 0.  0.
         13    1    3    3    0    0  0.97381188700E+02  0.11940646657E+03 -0.27038273831E+03  0.31120383248E+03  0.00000000000E+00 0.  1.
          3    1    3    3  501    0 -0.69969443592E+02 -0.11873039786E+03 -0.68836138857E+03  0.70202138977E+03  0.00000000000E+00 0.  1.
         21    1    1    2  502  501 -0.27411745108E+02 -0.67606871523E+00 -0.60392013520E+00  0.27426730726E+02  0.00000000000E+00 0. -1.
<mgrwt>
<rscale>  1 0.30000000E+03</rscale>
<asrwt>0</asrwt>
<pdfrwt beam="1">  1        1 0.14782560E+00 0.30000000E+03</pdfrwt>
<pdfrwt beam="2">0</pdfrwt>
<totfact> 0.18429641E+01</totfact>
</mgrwt>
</event>
<event>
 6    1  0.1950139E-004  0.3000000E+03  0.7818608E-02  0.1093470E+00
          1   -1    0    0  502    0  0.00000000000E+00  0.00000000000E+00  0.32917841004E+02  0.32917841004E+02  0.00000000000E+00 0.  1.
         13   -1    0    0    0    0 -0.00000000000E+00 -0.00000000000E+00 -0.10000000000E+04  0.10000000000E+04  0.00000000000E+00 0.  1.
    9000005    2    1    2  501    0 -0.11750659380E+02 -0.20022263139E+02 -0.95626918425E+03  0.10073075025E+04  0.31571931008E+03 0.  0.
         13    1    3    3    0    0  0.49087956500E+02 -0.13683014629E+03 -0.73960069340E+03  0.75375148562E+03  0.00000000000E+00 0.  1.
          1    1    3    3  501    0 -0.60838615880E+02  0.11680788315E+03 -0.21666849086E+03  0.25355601685E+03  0.00000000000E+00 0.  1.
         21    1    1    2  502  501  0.11750659380E+02  0.20022263139E+02 -0.10812974741E+02  0.25610338534E+02  0.00000000000E+00 0.  1.
<mgrwt>
<rscale>  1 0.30000000E+03</rscale>
<asrwt>0</asrwt>
<pdfrwt beam="1">  1        1 0.11970149E+00 0.30000000E+03</pdfrwt>
<pdfrwt beam="2">0</pdfrwt>
<totfact> 0.26097314E+01</totfact>
</mgrwt>
</event>
<event>
 6    1  0.1950139E-004  0.3000000E+03  0.7818608E-02  0.1093470E+00
          1   -1    0    0  502    0  0.00000000000E+00  0.00000000000E+00  0.33452255685E+02  0.33452255685E+02  0.00000000000E+00 0.  1.
         13   -1    0    0    0    0 -0.00000000000E+00 -0.00000000000E+00 -0.10000000000E+04  0.10000000000E+04  0.00000000000E+00 0.  1.
    9000005    2    1    2  501    0 -0.61443264879E+01 -0.10399837527E+02 -0.96661014768E+03  0.10213727995E+04  0.32972914415E+03 0.  0.
         13    1    3    3    0    0  0.14384949818E+03  0.68323146311E+02 -0.42319088840E+03  0.45216286720E+03  0.00000000000E+00 0.  1.
          1    1    3    3  501    0 -0.14999382467E+03 -0.78722983838E+02 -0.54341925928E+03  0.56920993226E+03  0.00000000000E+00 0.  1.
         21    1    1    2  502  501  0.61443264879E+01  0.10399837527E+02  0.62403366912E-01  0.12079456227E+02  0.00000000000E+00 0. -1.
<mgrwt>
<rscale>  1 0.30000000E+03</rscale>
<asrwt>0</asrwt>
<pdfrwt beam="1">  1        1 0.12164482E+00 0.30000000E+03</pdfrwt>
<pdfrwt beam="2">0</pdfrwt>
<totfact> 0.25447188E+01</totfact>
</mgrwt>
</event>
<event>
 6    1  0.1950139E-004  0.3000000E+03  0.7818608E-02  0.1093470E+00
          1   -1    0    0  502    0  0.00000000000E+00  0.00000000000E+00  0.28525756673E+02  0.28525756673E+02  0.00000000000E+00 0.  1.
         13   -1    0    0    0    0 -0.00000000000E+00 -0.00000000000E+00 -0.10000000000E+04  0.10000000000E+04  0.00000000000E+00 0.  1.
    9000005    2    1    2  501    0  0.61897898898E+01 -0.89549557450E+01 -0.96386835258E+03  0.10152459108E+04  0.31869037269E+03 0.  0.
         13    1    3    3    0    0 -0.11395088394E+03 -0.68523822289E+02 -0.20313632133E+03  0.24278526153E+03  0.00000000000E+00 0.  1.
          1    1    3    3  501    0  0.12014067383E+03  0.59568866544E+02 -0.76073203125E+03  0.77246064931E+03  0.00000000000E+00 0.  1.
         21    1    1    2  502  501 -0.61897898898E+01  0.89549557450E+01 -0.76058907478E+01  0.13279845833E+02  0.00000000000E+00 0.  1.
<mgrwt>
<rscale>  1 0.30000000E+03</rscale>
<asrwt>0</asrwt>
<pdfrwt beam="1">  1        1 0.10373024E+00 0.30000000E+03</pdfrwt>
<pdfrwt beam="2">0</pdfrwt>
<totfact> 0.32432352E+01</totfact>
</mgrwt>
</event>
<event>
 6    1  0.1950139E-004  0.3000000E+03  0.7818608E-02  0.1093470E+00
          3   -1    0    0  502    0  0.00000000000E+00  0.00000000000E+00  0.32168772427E+02  0.32168772427E+02  0.00000000000E+00 0.  1.
         13   -1    0    0    0    0 -0.00000000000E+00 -0.00000000000E+00 -0.10000000000E+04  0.10000000000E+04  0.00000000000E+00 0.  1.
    9000005    2    1    2  501    0  0.12211951470E+02 -0.37883477512E+01 -0.96907104017E+03  0.10193227430E+04  0.31584282502E+03 0.  0.
         13    1    3    3    0    0 -0.80287940245E+02 -0.13294017111E+03 -0.42277088792E+03  0.45039367904E+03  0.00000000000E+00 0.  1.
          3    1    3    3  501    0  0.92499891715E+02  0.12915182336E+03 -0.54630015225E+03  0.56892906394E+03  0.00000000000E+00 0.  1.
         21    1    1    2  502  501 -0.12211951470E+02  0.37883477512E+01  0.12398125971E+01  0.12846029451E+02  0.00000000000E+00 0.  1.
<mgrwt>
<rscale>  1 0.30000000E+03</rscale>
<asrwt>0</asrwt>
<pdfrwt beam="1">  1        3 0.11697760E+00 0.30000000E+03</pdfrwt>
<pdfrwt beam="2">0</pdfrwt>
<totfact> 0.25068989E+00</totfact>
</mgrwt>
</event>
<event>
 6    1  0.1950139E-004  0.3000000E+03  0.7818608E-02  0.1093470E+00
          1   -1    0    0  502    0  0.00000000000E+00  0.00000000000E+00  0.31502129721E+02  0.31502129721E+02  0.00000000000E+00 0.  1.
         13   -1    0    0    0    0 -0.00000000000E+00 -0.00000000000E+00 -0.10000000000E+04  0.10000000000E+04  0.00000000000E+00 0.  1.
    9000005    2    1    2  501    0  0.71232112668E+01 -0.76072503056E+01 -0.96673765129E+03  0.10209328929E+04  0.32804523316E+03 0.  0.
         13    1    3    3    0    0 -0.15660102472E+03 -0.16823142443E+02 -0.37123175282E+03  0.40326159421E+03  0.00000000000E+00 0.  1.
          3    1    3    3  501    0  0.16372423598E+03  0.92158921378E+01 -0.59550589847E+03  0.61767129869E+03  0.00000000000E+00 0.  1.
         21    1    1    2  502  501 -0.71232112668E+01  0.76072503056E+01 -0.17602189871E+01  0.10569236815E+02  0.00000000000E+00 0. -1.
<mgrwt>
<rscale>  1 0.30000000E+03</rscale>
<asrwt>0</asrwt>
<pdfrwt beam="1">  1        1 0.11455344E+00 0.30000000E+03</pdfrwt>
<pdfrwt beam="2">0</pdfrwt>
<totfact> 0.27932252E+01</totfact>
</mgrwt>
</event>
<event>
 6    1  0.1950139E-004  0.3000000E+03  0.7818608E-02  0.1093470E+00
          1   -1    0    0  502    0  0.00000000000E+00  0.00000000000E+00  0.43254059201E+02  0.43254059201E+02  0.00000000000E+00 0.  1.
         13   -1    0    0    0    0 -0.00000000000E+00 -0.00000000000E+00 -0.10000000000E+04  0.10000000000E+04  0.00000000000E+00 0.  1.
    9000005    2    1    2  501    0 -0.33788888729E+02  0.47375408136E+02 -0.91385702573E+03  0.97096590434E+03  0.32288388875E+03 0.  0.
         13    1    3    3    0    0  0.11907650868E+03 -0.51618162754E+02 -0.53629711770E+03  0.55177735374E+03  0.00000000000E+00 0.  1.
          1    1    3    3  501    0 -0.15286539741E+03  0.98993570890E+02 -0.37755990803E+03  0.41918855060E+03  0.00000000000E+00 0.  1.
         21    1    1    2  502  501  0.33788888729E+02 -0.47375408136E+02 -0.42888915070E+02  0.72288154863E+02  0.00000000000E+00 0.  1.
<mgrwt>
<rscale>  1 0.30000000E+03</rscale>
<asrwt>0</asrwt>
<pdfrwt beam="1">  1        1 0.15728782E+00 0.30000000E+03</pdfrwt>
<pdfrwt beam="2">0</pdfrwt>
<totfact> 0.16508673E+01</totfact>
</mgrwt>
</event>
<event>
 6    1  0.1950139E-004  0.3000000E+03  0.7818608E-02  0.1093470E+00
          1   -1    0    0  502    0  0.00000000000E+00  0.00000000000E+00  0.51817822475E+02  0.51817822475E+02  0.00000000000E+00 0.  1.
         13   -1    0    0    0    0 -0.00000000000E+00 -0.00000000000E+00 -0.10000000000E+04  0.10000000000E+04  0.00000000000E+00 0.  1.
    9000005    2    1    2  501    0  0.85022953285E+01  0.54679232850E+01 -0.96160617336E+03  0.10350133327E+04  0.38270612630E+03 0.  0.
         13    1    3    3    0    0  0.10924393525E+03  0.13371653181E+03 -0.24278610099E+03  0.29792522401E+03  0.00000000000E+00 0.  1.
          1    1    3    3  501    0 -0.10074163992E+03 -0.12824860852E+03 -0.71882007237E+03  0.73708810874E+03  0.00000000000E+00 0.  1.
         21    1    1    2  502  501 -0.85022953285E+01 -0.54679232850E+01  0.13423995835E+02  0.16804489730E+02  0.00000000000E+00 0.  1.
<mgrwt>
<rscale>  1 0.30000000E+03</rscale>
<asrwt>0</asrwt>
<pdfrwt beam="1">  1        1 0.18842884E+00 0.30000000E+03</pdfrwt>
<pdfrwt beam="2">0</pdfrwt>
<totfact> 0.11634344E+01</totfact>
</mgrwt>
</event>
<event>
 6    1  0.1950139E-004  0.3000000E+03  0.7818608E-02  0.1093470E+00
          1   -1    0    0  502    0  0.00000000000E+00  0.00000000000E+00  0.33099292415E+02  0.33099292415E+02  0.00000000000E+00 0.  1.
         13   -1    0    0    0    0 -0.00000000000E+00 -0.00000000000E+00 -0.10000000000E+04  0.10000000000E+04  0.00000000000E+00 0.  1.
    9000005    2    1    2  501    0  0.80293250439E+01 -0.10008001418E+02 -0.97094434764E+03  0.10196463679E+04  0.31109670396E+03 0.  0.
         13    1    3    3    0    0  0.14824884375E+03  0.12960763939E+02 -0.67698289096E+03  0.69314611427E+03  0.00000000000E+00 0.  1.
          3    1    3    3  501    0 -0.14021951871E+03 -0.22968765357E+02 -0.29396145668E+03  0.32650025363E+03  0.00000000000E+00 0.  1.
         21    1    1    2  502  501 -0.80293250439E+01  0.10008001418E+02  0.40436400535E+01  0.13452924512E+02  0.00000000000E+00 0. -1.
<mgrwt>
<rscale>  1 0.30000000E+03</rscale>
<asrwt>0</asrwt>
<pdfrwt beam="1">  1        1 0.12036132E+00 0.30000000E+03</pdfrwt>
<pdfrwt beam="2">0</pdfrwt>
<totfact> 0.25874118E+01</totfact>
</mgrwt>
</event>
<event>
 6    1  0.1950139E-004  0.3000000E+03  0.7818608E-02  0.1093470E+00
          1   -1    0    0  502    0  0.00000000000E+00  0.00000000000E+00  0.30851294361E+02  0.30851294361E+02  0.00000000000E+00 0.  1.
         13   -1    0    0    0    0 -0.00000000000E+00 -0.00000000000E+00 -0.10000000000E+04  0.10000000000E+04  0.00000000000E+00 0.  1.
    9000005    2    1    2  501    0  0.83952972901E+01  0.85735552618E+01 -0.96303804119E+03  0.10173855197E+04  0.32785216197E+03 0.  0.
         13    1    3    3    0    0  0.12083465357E+03 -0.83569144504E+02 -0.25252645546E+03  0.29215479822E+03  0.00000000000E+00 0.  1.
          3    1    3    3  501    0 -0.11243935628E+03  0.92142699765E+02 -0.71051158573E+03  0.72523072151E+03  0.00000000000E+00 0.  1.
         21    1    1    2  502  501 -0.83952972901E+01 -0.85735552618E+01 -0.61106644449E+01  0.13465774630E+02  0.00000000000E+00 0.  1.
<mgrwt>
<rscale>  1 0.30000000E+03</rscale>
<asrwt>0</asrwt>
<pdfrwt beam="1">  1        1 0.11218676E+00 0.30000000E+03</pdfrwt>
<pdfrwt beam="2">0</pdfrwt>
<totfact> 0.28836608E+01</totfact>
</mgrwt>
</event>
<event>
 6    1  0.1950139E-004  0.3000000E+03  0.7818608E-02  0.1093470E+00
          1   -1    0    0  502    0  0.00000000000E+00  0.00000000000E+00  0.86942221992E+02  0.86942221992E+02  0.00000000000E+00 0.  1.
         13   -1    0    0    0    0 -0.00000000000E+00 -0.00000000000E+00 -0.10000000000E+04  0.10000000000E+04  0.00000000000E+00 0.  1.
    9000005    2    1    2  501    0 -0.12915652700E+03 -0.36509693245E+02 -0.87590401308E+03  0.94767712078E+03  0.33596088902E+03 0.  0.
         13    1    3    3    0    0 -0.40213808009E+02 -0.14261614270E+03 -0.73628889203E+03  0.75105116140E+03  0.00000000000E+00 0.  1.
          3    1    3    3  501    0 -0.88942718991E+02  0.10610644945E+03 -0.13961512105E+03  0.19662595938E+03  0.00000000000E+00 0.  1.
         21    1    1    2  502  501  0.12915652700E+03  0.36509693245E+02 -0.37153764926E+02  0.13926510121E+03  0.00000000000E+00 0.  1.
<mgrwt>
<rscale>  1 0.30000000E+03</rscale>
<asrwt>0</asrwt>
<pdfrwt beam="1">  1        1 0.31615420E+00 0.30000000E+03</pdfrwt>
<pdfrwt beam="2">0</pdfrwt>
<totfact> 0.29070732E+00</totfact>
</mgrwt>
</event>
<event>
 6    1  0.1950139E-004  0.3000000E+03  0.7818608E-02  0.1093470E+00
          1   -1    0    0  502    0  0.00000000000E+00  0.00000000000E+00  0.47223633946E+02  0.47223633946E+02  0.00000000000E+00 0.  1.
         13   -1    0    0    0    0 -0.00000000000E+00 -0.00000000000E+00 -0.10000000000E+04  0.10000000000E+04  0.00000000000E+00 0.  1.
    9000005    2    1    2  501    0 -0.18440338323E+02 -0.16750281093E+02 -0.96664184785E+03  0.10187127662E+04  0.32055985403E+03 0.  0.
         13    1    3    3    0    0  0.95189071367E+02 -0.12831867408E+03 -0.42057989944E+03  0.44990453792E+03  0.00000000000E+00 0.  1.
          3    1    3    3  501    0 -0.11362940969E+03  0.11156839299E+03 -0.54606194841E+03  0.56880822828E+03  0.00000000000E+00 0.  1.
         21    1    1    2  502  501  0.18440338323E+02  0.16750281093E+02  0.13865481795E+02  0.28510867745E+02  0.00000000000E+00 0. -1.
<mgrwt>
<rscale>  1 0.30000000E+03</rscale>
<asrwt>0</asrwt>
<pdfrwt beam="1">  1        1 0.17172267E+00 0.30000000E+03</pdfrwt>
<pdfrwt beam="2">0</pdfrwt>
<totfact> 0.14013203E+01</totfact>
</mgrwt>
</event>
<event>
 6    1  0.1950139E-004  0.3000000E+03  0.7818608E-02  0.1093470E+00
          1   -1    0    0  502    0  0.00000000000E+00  0.00000000000E+00  0.48216126688E+02  0.48216126688E+02  0.00000000000E+00 0.  1.
         13   -1    0    0    0    0 -0.00000000000E+00 -0.00000000000E+00 -0.10000000000E+04  0.10000000000E+04  0.00000000000E+00 0.  1.
    9000005    2    1    2  501    0  0.24855564895E+02 -0.56549115460E+02 -0.92254848251E+03  0.97987646294E+03  0.32441729067E+03 0.  0.
         13    1    3    3    0    0  0.15472650680E+03 -0.10276664545E+03 -0.43002873645E+03  0.46842927907E+03  0.00000000000E+00 0.  1.
          3    1    3    3  501    0 -0.12987094190E+03  0.46217529989E+02 -0.49251974606E+03  0.51144718387E+03  0.00000000000E+00 0.  1.
         21    1    1    2  502  501 -0.24855564895E+02  0.56549115460E+02 -0.29235390805E+02  0.68339663747E+02  0.00000000000E+00 0. -1.
<mgrwt>
<rscale>  1 0.30000000E+03</rscale>
<asrwt>0</asrwt>
<pdfrwt beam="1">  1        1 0.17533174E+00 0.30000000E+03</pdfrwt>
<pdfrwt beam="2">0</pdfrwt>
<totfact> 0.13457802E+01</totfact>
</mgrwt>
</event>
<event>
 6    1  0.1950139E-004  0.3000000E+03  0.7818608E-02  0.1093470E+00
          1   -1    0    0  502    0  0.00000000000E+00  0.00000000000E+00  0.17827753929E+03  0.17827753929E+03  0.00000000000E+00 0.  1.
         13   -1    0    0    0    0 -0.00000000000E+00 -0.00000000000E+00 -0.10000000000E+04  0.10000000000E+04  0.00000000000E+00 0.  1.
    9000005    2    1    2  501    0  0.22838099273E+02 -0.59329332125E+01 -0.97182312606E+03  0.10263335094E+04  0.32918612626E+03 0.  0.
         13    1    3    3    0    0 -0.10168090666E+03 -0.55086076346E+02 -0.13025027981E+03  0.17417984377E+03  0.00000000000E+00 0.  1.
          3    1    3    3  501    0  0.12451900593E+03  0.49153143134E+02 -0.84157284626E+03  0.85215366564E+03  0.00000000000E+00 0.  1.
         21    1    1    2  502  501 -0.22838099273E+02  0.59329332125E+01  0.15010066536E+03  0.15194402988E+03  0.00000000000E+00 0.  1.
<mgrwt>
<rscale>  1 0.30000000E+03</rscale>
<asrwt>0</asrwt>
<pdfrwt beam="1">  1        1 0.64828333E+00 0.30000000E+03</pdfrwt>
<pdfrwt beam="2">0</pdfrwt>
<totfact> 0.36710680E-02</totfact>
</mgrwt>
</event>
<event>
 6    1  0.1950139E-004  0.3000000E+03  0.7818608E-02  0.1093470E+00
          1   -1    0    0  502    0  0.00000000000E+00  0.00000000000E+00  0.40478552773E+02  0.40478552773E+02  0.00000000000E+00 0.  1.
         13   -1    0    0    0    0 -0.00000000000E+00 -0.00000000000E+00 -0.10000000000E+04  0.10000000000E+04  0.00000000000E+00 0.  1.
    9000005    2    1    2  501    0  0.16388651978E+02 -0.16367168537E+01 -0.95597179678E+03  0.10236302064E+04  0.36560286726E+03 0.  0.
         13    1    3    3    0    0 -0.12671724521E+03 -0.11734751247E+03 -0.34937897003E+03  0.38973499153E+03  0.00000000000E+00 0.  1.
          1    1    3    3  501    0  0.14310589719E+03  0.11571079562E+03 -0.60659282675E+03  0.63389521492E+03  0.00000000000E+00 0.  1.
         21    1    1    2  502  501 -0.16388651978E+02  0.16367168537E+01 -0.35496504431E+01  0.16848346327E+02  0.00000000000E+00 0.  1.
<mgrwt>
<rscale>  1 0.30000000E+03</rscale>
<asrwt>0</asrwt>
<pdfrwt beam="1">  1        1 0.14719505E+00 0.30000000E+03</pdfrwt>
<pdfrwt beam="2">0</pdfrwt>
<totfact> 0.18567193E+01</totfact>
</mgrwt>
</event>
<event>
 6    1  0.1950139E-004  0.3000000E+03  0.7818608E-02  0.1093470E+00
          1   -1    0    0  502    0  0.00000000000E+00  0.00000000000E+00  0.30323192005E+02  0.30323192005E+02  0.00000000000E+00 0.  1.
         13   -1    0    0    0    0 -0.00000000000E+00 -0.00000000000E+00 -0.10000000000E+04  0.10000000000E+04  0.00000000000E+00 0.  1.
    9000005    2    1    2  501    0 -0.13540313658E+02  0.13838754384E+01 -0.94980747475E+03  0.10062390560E+04  0.33196015341E+03 0.  0.
         13    1    3    3    0    0  0.61507200608E+02 -0.11602273676E+03 -0.17386334893E+03  0.21788270990E+03  0.00000000000E+00 0.  1.
          1    1    3    3  501    0 -0.75047514265E+02  0.11740661220E+03 -0.77594412582E+03  0.78835634607E+03  0.00000000000E+00 0.  1.
         21    1    1    2  502  501  0.13540313658E+02 -0.13838754384E+01 -0.19869333241E+02  0.24084136036E+02  0.00000000000E+00 0. -1.
<mgrwt>
<rscale>  1 0.30000000E+03</rscale>
<asrwt>0</asrwt>
<pdfrwt beam="1">  1        1 0.11026639E+00 0.30000000E+03</pdfrwt>
<pdfrwt beam="2">0</pdfrwt>
<totfact> 0.29601306E+01</totfact>
</mgrwt>
</event>
<event>
 6    1  0.1950139E-004  0.3000000E+03  0.7818608E-02  0.1093470E+00
          1   -1    0    0  502    0  0.00000000000E+00  0.00000000000E+00  0.54941083821E+02  0.54941083821E+02  0.00000000000E+00 0.  1.
         13   -1    0    0    0    0 -0.00000000000E+00 -0.00000000000E+00 -0.10000000000E+04  0.10000000000E+04  0.00000000000E+00 0.  1.
    9000005    2    1    2  501    0 -0.28213823200E+02  0.48050825981E+02 -0.94735976208E+03  0.99917195626E+03  0.31264864893E+03 0.  0.
         13    1    3    3    0    0 -0.15906943390E+03  0.65909322145E+02 -0.38896260930E+03  0.42536929248E+03  0.00000000000E+00 0.  1.
          3    1    3    3  501    0  0.13085561070E+03 -0.17858496164E+02 -0.55839715278E+03  0.57380266379E+03  0.00000000000E+00 0.  1.
         21    1    1    2  502  501  0.28213823200E+02 -0.48050825981E+02  0.23008458987E+01  0.55769127561E+02  0.00000000000E+00 0.  1.
<mgrwt>
<rscale>  1 0.30000000E+03</rscale>
<asrwt>0</asrwt>
<pdfrwt beam="1">  1        1 0.19978618E+00 0.30000000E+03</pdfrwt>
<pdfrwt beam="2">0</pdfrwt>
<totfact> 0.10267421E+01</totfact>
</mgrwt>
</event>
<event>
 6    1  0.1950139E-004  0.3000000E+03  0.7818608E-02  0.1093470E+00
          1   -1    0    0  502    0  0.00000000000E+00  0.00000000000E+00  0.47045116471E+02  0.47045116471E+02  0.00000000000E+00 0.  1.
         13   -1    0    0    0    0 -0.00000000000E+00 -0.00000000000E+00 -0.10000000000E+04  0.10000000000E+04  0.00000000000E+00 0.  1.
    9000005    2    1    2  501    0 -0.58301339197E+01  0.88777395490E+01 -0.96810722689E+03  0.10285411107E+04  0.34720657956E+03 0.  0.
         13    1    3    3    0    0  0.44884313351E+00 -0.50188006342E+02  0.78307424575E+01  0.50797224021E+02  0.00000000000E+00 0.  1.
          1    1    3    3  501    0 -0.62789770532E+01  0.59065745891E+02 -0.97593796935E+03  0.97774388666E+03  0.00000000000E+00 0.  1.
         21    1    1    2  502  501  0.58301339197E+01 -0.88777395490E+01  0.15152343359E+02  0.18504005790E+02  0.00000000000E+00 0.  1.
<mgrwt>
<rscale>  1 0.30000000E+03</rscale>
<asrwt>0</asrwt>
<pdfrwt beam="1">  1        1 0.17107351E+00 0.30000000E+03</pdfrwt>
<pdfrwt beam="2">0</pdfrwt>
<totfact> 0.14115754E+01</totfact>
</mgrwt>
</event>
<event>
 6    1  0.1950139E-004  0.3000000E+03  0.7818608E-02  0.1093470E+00
          1   -1    0    0  502    0  0.00000000000E+00  0.00000000000E+00  0.34068646598E+02  0.34068646598E+02  0.00000000000E+00 0.  1.
         13   -1    0    0    0    0 -0.00000000000E+00 -0.00000000000E+00 -0.10000000000E+04  0.10000000000E+04  0.00000000000E+00 0.  1.
    9000005    2    1    2  501    0  0.18113211936E+02 -0.26129567314E+02 -0.93080135504E+03  0.98668764282E+03  0.32580745726E+03 0.  0.
         13    1    3    3    0    0 -0.10195885109E+03 -0.64839886964E+02 -0.13594345793E+03  0.18188029583E+03  0.00000000000E+00 0.  1.
          1    1    3    3  501    0  0.12007206302E+03  0.38710319650E+02 -0.79485789711E+03  0.80480734698E+03  0.00000000000E+00 0.  1.
         21    1    1    2  502  501 -0.18113211936E+02  0.26129567314E+02 -0.35129998360E+02  0.47381003782E+02  0.00000000000E+00 0.  1.
<mgrwt>
<rscale>  1 0.30000000E+03</rscale>
<asrwt>0</asrwt>
<pdfrwt beam="1">  1        1 0.12388625E+00 0.30000000E+03</pdfrwt>
<pdfrwt beam="2">0</pdfrwt>
<totfact> 0.24723595E+01</totfact>
</mgrwt>
</event>
<event>
 6    1  0.1950139E-004  0.3000000E+03  0.7818608E-02  0.1093470E+00
          1   -1    0    0  502    0  0.00000000000E+00  0.00000000000E+00  0.26763921573E+02  0.26763921573E+02  0.00000000000E+00 0.  1.
         13   -1    0    0    0    0 -0.00000000000E+00 -0.00000000000E+00 -0.10000000000E+04  0.10000000000E+04  0.00000000000E+00 0.  1.
    9000005    2    1    2  501    0 -0.90764261244E+01  0.13721810206E+01 -0.95877230167E+03  0.10096330947E+04  0.31627582113E+03 0.  0.
         13    1    3    3    0    0 -0.14711955701E+03  0.59162241814E+02 -0.60660105387E+03  0.62698418917E+03  0.00000000000E+00 0.  1.
          1    1    3    3  501    0  0.13804313089E+03 -0.57790060794E+02 -0.35217124780E+03  0.38264890551E+03  0.00000000000E+00 0.  1.
         21    1    1    2  502  501  0.90764261244E+01 -0.13721810206E+01 -0.14463776755E+02  0.17130826891E+02  0.00000000000E+00 0. -1.
<mgrwt>
<rscale>  1 0.30000000E+03</rscale>
<asrwt>0</asrwt>
<pdfrwt beam="1">  1        1 0.97323556E-01 0.30000000E+03</pdfrwt>
<pdfrwt beam="2">0</pdfrwt>
<totfact> 0.35606013E+01</totfact>
</mgrwt>
</event>
<event>
 6    1  0.1950139E-004  0.3000000E+03  0.7818608E-02  0.1093470E+00
          1   -1    0    0  502    0  0.00000000000E+00  0.00000000000E+00  0.75615937224E+02  0.75615937224E+02  0.00000000000E+00 0.  1.
         13   -1    0    0    0    0 -0.00000000000E+00 -0.00000000000E+00 -0.10000000000E+04  0.10000000000E+04  0.00000000000E+00 0.  1.
    9000005    2    1    2  501    0  0.18801974027E+02 -0.16695981481E+02 -0.96863253728E+03  0.10247219541E+04  0.33342738469E+03 0.  0.
         13    1    3    3    0    0 -0.74691470628E+02  0.60018058324E+02 -0.84975578252E+03  0.85514084983E+03  0.00000000000E+00 0.  1.
          3    1    3    3  501    0  0.93493444655E+02 -0.76714039805E+02 -0.11887675476E+03  0.16958110425E+03  0.00000000000E+00 0.  1.
         21    1    1    2  502  501 -0.18801974027E+02  0.16695981481E+02  0.44248474504E+02  0.50893983150E+02  0.00000000000E+00 0. -1.
<mgrwt>
<rscale>  1 0.30000000E+03</rscale>
<asrwt>0</asrwt>
<pdfrwt beam="1">  1        1 0.27496762E+00 0.30000000E+03</pdfrwt>
<pdfrwt beam="2">0</pdfrwt>
<totfact> 0.45579055E+00</totfact>
</mgrwt>
</event>
<event>
 6    1  0.1950139E-004  0.3000000E+03  0.7818608E-02  0.1093470E+00
          1   -1    0    0  502    0  0.00000000000E+00  0.00000000000E+00  0.32081197769E+02  0.32081197769E+02  0.00000000000E+00 0.  1.
         13   -1    0    0    0    0 -0.00000000000E+00 -0.00000000000E+00 -0.10000000000E+04  0.10000000000E+04  0.00000000000E+00 0.  1.
    9000005    2    1    2  501    0 -0.14674540041E+02  0.38322508503E+02 -0.95550767616E+03  0.98920937913E+03  0.25269808025E+03 0.  0.
         13    1    3    3    0    0  0.10658285638E+03 -0.25141840558E+02 -0.29495887807E+03  0.31463114464E+03  0.00000000000E+00 0.  1.
          1    1    3    3  501    0 -0.12125739642E+03  0.63464349061E+02 -0.66054879809E+03  0.67457823449E+03  0.00000000000E+00 0.  1.
         21    1    1    2  502  501  0.14674540041E+02 -0.38322508503E+02 -0.12411126068E+02  0.42871818642E+02  0.00000000000E+00 0.  1.
<mgrwt>
<rscale>  1 0.30000000E+03</rscale>
<asrwt>0</asrwt>
<pdfrwt beam="1">  1        1 0.11665915E+00 0.30000000E+03</pdfrwt>
<pdfrwt beam="2">0</pdfrwt>
<totfact> 0.27160869E+01</totfact>
</mgrwt>
</event>
<event>
 6    1  0.1950139E-004  0.3000000E+03  0.7818608E-02  0.1093470E+00
          1   -1    0    0  502    0  0.00000000000E+00  0.00000000000E+00  0.40077278099E+02  0.40077278099E+02  0.00000000000E+00 0.  1.
         13   -1    0    0    0    0 -0.00000000000E+00 -0.00000000000E+00 -0.10000000000E+04  0.10000000000E+04  0.00000000000E+00 0.  1.
    9000005    2    1    2  501    0 -0.63898599493E+01  0.31907428415E+02 -0.95151708048E+03  0.10064682152E+04  0.32639638410E+03 0.  0.
         13    1    3    3    0    0  0.14616371715E+03 -0.11644192949E+02 -0.64351238116E+03  0.66000576070E+03  0.00000000000E+00 0.  1.
          1    1    3    3  501    0 -0.15255357710E+03  0.43551621365E+02 -0.30800469932E+03  0.34646245455E+03  0.00000000000E+00 0.  1.
         21    1    1    2  502  501  0.63898599493E+01 -0.31907428415E+02 -0.84056414197E+01  0.33609062854E+02  0.00000000000E+00 0. -1.
<mgrwt>
<rscale>  1 0.30000000E+03</rscale>
<asrwt>0</asrwt>
<pdfrwt beam="1">  1        1 0.14573586E+00 0.30000000E+03</pdfrwt>
<pdfrwt beam="2">0</pdfrwt>
<totfact> 0.18890479E+01</totfact>
</mgrwt>
</event>
<event>
 6    1  0.1950139E-004  0.3000000E+03  0.7818608E-02  0.1093470E+00
          1   -1    0    0  502    0  0.00000000000E+00  0.00000000000E+00  0.30403652464E+02  0.30403652464E+02  0.00000000000E+00 0.  1.
         13   -1    0    0    0    0 -0.00000000000E+00 -0.00000000000E+00 -0.10000000000E+04  0.10000000000E+04  0.00000000000E+00 0.  1.
    9000005    2    1    2  501    0 -0.18287298280E+02  0.10162958675E+02 -0.93838662788E+03  0.99283028945E+03  0.32358122512E+03 0.  0.
         13    1    3    3    0    0  0.11334019848E+02 -0.11660405818E+03 -0.77556774663E+03  0.78436617469E+03  0.00000000000E+00 0.  1.
          1    1    3    3  501    0 -0.29621318128E+02  0.12676701685E+03 -0.16281888126E+03  0.20846411476E+03  0.00000000000E+00 0.  1.
         21    1    1    2  502  501  0.18287298280E+02 -0.10162958675E+02 -0.31209719653E+02  0.37573363015E+02  0.00000000000E+00 0.  1.
<mgrwt>
<rscale>  1 0.30000000E+03</rscale>
<asrwt>0</asrwt>
<pdfrwt beam="1">  1        1 0.11055897E+00 0.30000000E+03</pdfrwt>
<pdfrwt beam="2">0</pdfrwt>
<totfact> 0.29482960E+01</totfact>
</mgrwt>
</event>
<event>
 6    1  0.1950139E-004  0.3000000E+03  0.7818608E-02  0.1093470E+00
          1   -1    0    0  502    0  0.00000000000E+00  0.00000000000E+00  0.61259722228E+02  0.61259722228E+02  0.00000000000E+00 0.  1.
         13   -1    0    0    0    0 -0.00000000000E+00 -0.00000000000E+00 -0.10000000000E+04  0.10000000000E+04  0.00000000000E+00 0.  1.
    9000005    2    1    2  501    0 -0.38381000866E+02 -0.30645171364E+01 -0.96147952681E+03  0.10165432159E+04  0.32777238563E+03 0.  0.
         13    1    3    3    0    0 -0.25954369397E+02  0.13314447457E+03 -0.19249477150E+03  0.23548952727E+03  0.00000000000E+00 0.  1.
          1    1    3    3  501    0 -0.12426631470E+02 -0.13620899171E+03 -0.76898475531E+03  0.78105368861E+03  0.00000000000E+00 0.  1.
         21    1    1    2  502  501  0.38381000866E+02  0.30645171364E+01  0.22739249040E+02  0.44716506345E+02  0.00000000000E+00 0.  1.
<mgrwt>
<rscale>  1 0.30000000E+03</rscale>
<asrwt>0</asrwt>
<pdfrwt beam="1">  1        1 0.22276310E+00 0.30000000E+03</pdfrwt>
<pdfrwt beam="2">0</pdfrwt>
<totfact> 0.80011297E+00</totfact>
</mgrwt>
</event>
<event>
 6    1  0.1950139E-004  0.3000000E+03  0.7818608E-02  0.1093470E+00
          1   -1    0    0  502    0  0.00000000000E+00  0.00000000000E+00  0.56935917005E+02  0.56935917005E+02  0.00000000000E+00 0.  1.
         13   -1    0    0    0    0 -0.00000000000E+00 -0.00000000000E+00 -0.10000000000E+04  0.10000000000E+04  0.00000000000E+00 0.  1.
    9000005    2    1    2  501    0 -0.20501594630E+02 -0.21343893283E+02 -0.96364199165E+03  0.10208897315E+04  0.33575895921E+03 0.  0.
         13    1    3    3    0    0  0.58986824898E+02 -0.13862809798E+03 -0.74693285648E+03  0.76197499116E+03  0.00000000000E+00 0.  1.
          1    1    3    3  501    0 -0.79488419528E+02  0.11728420470E+03 -0.21670913518E+03  0.25891474037E+03  0.00000000000E+00 0.  1.
         21    1    1    2  502  501  0.20501594630E+02  0.21343893283E+02  0.20577908659E+02  0.36046185480E+02  0.00000000000E+00 0. -1.
<mgrwt>
<rscale>  1 0.30000000E+03</rscale>
<asrwt>0</asrwt>
<pdfrwt beam="1">  1        1 0.20704013E+00 0.30000000E+03</pdfrwt>
<pdfrwt beam="2">0</pdfrwt>
<totfact> 0.94855640E+00</totfact>
</mgrwt>
</event>
<event>
 6    1  0.1950139E-004  0.3000000E+03  0.7818608E-02  0.1093470E+00
          1   -1    0    0  502    0  0.00000000000E+00  0.00000000000E+00  0.29930452957E+02  0.29930452957E+02  0.00000000000E+00 0.  1.
         13   -1    0    0    0    0 -0.00000000000E+00 -0.00000000000E+00 -0.10000000000E+04  0.10000000000E+04  0.00000000000E+00 0.  1.
    9000005    2    1    2  501    0 -0.63747697023E+01 -0.16745341688E+02 -0.93803545918E+03  0.99322586275E+03  0.32598473522E+03 0.  0.
         13    1    3    3    0    0  0.35909624541E+02  0.70903246071E+02 -0.38268137164E+02  0.88211233752E+02  0.00000000000E+00 0.  1.
          3    1    3    3  501    0 -0.42284394244E+02 -0.87648587758E+02 -0.89976732202E+03  0.90501462900E+03  0.00000000000E+00 0.  1.
         21    1    1    2  502  501  0.63747697023E+01  0.16745341688E+02 -0.32034087860E+02  0.36704590204E+02  0.00000000000E+00 0.  1.
<mgrwt>
<rscale>  1 0.30000000E+03</rscale>
<asrwt>0</asrwt>
<pdfrwt beam="1">  1        1 0.10883824E+00 0.30000000E+03</pdfrwt>
<pdfrwt beam="2">0</pdfrwt>
<totfact> 0.30188764E+01</totfact>
</mgrwt>
</event>
<event>
 6    1  0.1950139E-004  0.3000000E+03  0.7818608E-02  0.1093470E+00
          1   -1    0    0  502    0  0.00000000000E+00  0.00000000000E+00  0.46923774148E+02  0.46923774148E+02  0.00000000000E+00 0.  1.
         13   -1    0    0    0    0 -0.00000000000E+00 -0.00000000000E+00 -0.10000000000E+04  0.10000000000E+04  0.00000000000E+00 0.  1.
    9000005    2    1    2  501    0  0.21049676125E+02  0.29714314970E+02 -0.95875597379E+03  0.10100688028E+04  0.31575297253E+03 0.  0.
         13    1    3    3    0    0  0.11589722245E+03  0.13300182679E+03 -0.49013386998E+03  0.52091540830E+03  0.00000000000E+00 0.  1.
          1    1    3    3  501    0 -0.94847546321E+02 -0.10328751182E+03 -0.46862210381E+03  0.48915339446E+03  0.00000000000E+00 0.  1.
         21    1    1    2  502  501 -0.21049676125E+02 -0.29714314970E+02  0.56797479372E+01  0.36854971384E+02  0.00000000000E+00 0.  1.
<mgrwt>
<rscale>  1 0.30000000E+03</rscale>
<asrwt>0</asrwt>
<pdfrwt beam="1">  1        1 0.17063227E+00 0.30000000E+03</pdfrwt>
<pdfrwt beam="2">0</pdfrwt>
<totfact> 0.14185940E+01</totfact>
</mgrwt>
</event>
<event>
 6    1  0.1950139E-004  0.3000000E+03  0.7818608E-02  0.1093470E+00
          1   -1    0    0  502    0  0.00000000000E+00  0.00000000000E+00  0.34906902854E+02  0.34906902854E+02  0.00000000000E+00 0.  1.
         13   -1    0    0    0    0 -0.00000000000E+00 -0.00000000000E+00 -0.10000000000E+04  0.10000000000E+04  0.00000000000E+00 0.  1.
    9000005    2    1    2  501    0 -0.17455478099E+02  0.40548579293E+02 -0.80100129628E+03  0.86498044785E+03  0.32347985644E+03 0.  0.
         13    1    3    3    0    0  0.99100366127E+02  0.12887021553E+03 -0.55962852724E+03  0.58276281927E+03  0.00000000000E+00 0.  1.
          3    1    3    3  501    0 -0.11655584423E+03 -0.88321636234E+02 -0.24137276904E+03  0.28221762858E+03  0.00000000000E+00 0.  1.
         21    1    1    2  502  501  0.17455478099E+02 -0.40548579293E+02 -0.16409180087E+03  0.16992645501E+03  0.00000000000E+00 0. -1.
<mgrwt>
<rscale>  1 0.30000000E+03</rscale>
<asrwt>0</asrwt>
<pdfrwt beam="1">  1        1 0.12693446E+00 0.30000000E+03</pdfrwt>
<pdfrwt beam="2">0</pdfrwt>
<totfact> 0.23781435E+01</totfact>
</mgrwt>
</event>
<event>
 6    1  0.1950139E-004  0.3000000E+03  0.7818608E-02  0.1093470E+00
          1   -1    0    0  502    0  0.00000000000E+00  0.00000000000E+00  0.31386016190E+02  0.31386016190E+02  0.00000000000E+00 0.  1.
         13   -1    0    0    0    0 -0.00000000000E+00 -0.00000000000E+00 -0.10000000000E+04  0.10000000000E+04  0.00000000000E+00 0.  1.
    9000005    2    1    2  501    0  0.42722000059E+01 -0.32760217267E+02 -0.89540838778E+03  0.95107074480E+03  0.31888539819E+03 0.  0.
         13    1    3    3    0    0 -0.98534280297E+02 -0.12717581678E+03 -0.31010285449E+03  0.34935150369E+03  0.00000000000E+00 0.  1.
          3    1    3    3  501    0  0.10280648030E+03  0.94415599511E+02 -0.58530553330E+03  0.60171924112E+03  0.00000000000E+00 0.  1.
         21    1    1    2  502  501 -0.42722000059E+01  0.32760217267E+02 -0.73205596026E+02  0.80315271386E+02  0.00000000000E+00 0.  1.
<mgrwt>
<rscale>  1 0.30000000E+03</rscale>
<asrwt>0</asrwt>
<pdfrwt beam="1">  1        1 0.11413121E+00 0.30000000E+03</pdfrwt>
<pdfrwt beam="2">0</pdfrwt>
<totfact> 0.28090615E+01</totfact>
</mgrwt>
</event>
<event>
 6    1  0.1950139E-004  0.3000000E+03  0.7818608E-02  0.1093470E+00
          1   -1    0    0  502    0  0.00000000000E+00  0.00000000000E+00  0.30596844407E+02  0.30596844407E+02  0.00000000000E+00 0.  1.
         13   -1    0    0    0    0 -0.00000000000E+00 -0.00000000000E+00 -0.10000000000E+04  0.10000000000E+04  0.00000000000E+00 0.  1.
    9000005    2    1    2  501    0 -0.10493548882E+02 -0.10729238295E+02 -0.94513175540E+03  0.10020603416E+04  0.33260436273E+03 0.  0.
         13    1    3    3    0    0  0.13833574841E+03 -0.10916295136E+02 -0.71255056166E+03  0.72593680696E+03  0.00000000000E+00 0.  1.
          3    1    3    3  501    0 -0.14882929729E+03  0.18705684088E+00 -0.23258119374E+03  0.27612353468E+03  0.00000000000E+00 0.  1.
         21    1    1    2  502  501  0.10493548882E+02  0.10729238295E+02 -0.24271400195E+02  0.28536502763E+02  0.00000000000E+00 0.  1.
<mgrwt>
<rscale>  1 0.30000000E+03</rscale>
<asrwt>0</asrwt>
<pdfrwt beam="1">  1        1 0.11126149E+00 0.30000000E+03</pdfrwt>
<pdfrwt beam="2">0</pdfrwt>
<totfact> 0.29201525E+01</totfact>
</mgrwt>
</event>
<event>
 6    1  0.1950139E-004  0.3000000E+03  0.7818608E-02  0.1093470E+00
          3   -1    0    0  502    0  0.00000000000E+00  0.00000000000E+00  0.30913061408E+02  0.30913061408E+02  0.00000000000E+00 0.  1.
         13   -1    0    0    0    0 -0.00000000000E+00 -0.00000000000E+00 -0.10000000000E+04  0.10000000000E+04  0.00000000000E+00 0.  1.
    9000005    2    1    2  501    0 -0.96004844930E+00 -0.14642777253E+02 -0.97246822282E+03  0.10158543197E+04  0.29334318099E+03 0.  0.
         13    1    3    3    0    0 -0.12387241508E+03 -0.30244111302E+01 -0.21302292559E+03  0.24643921991E+03  0.00000000000E+00 0.  1.
          1    1    3    3  501    0  0.12291236663E+03 -0.11618366122E+02 -0.75944529723E+03  0.76941509979E+03  0.00000000000E+00 0.  1.
         21    1    1    2  502  501  0.96004844930E+00  0.14642777253E+02  0.33812842332E+01  0.15058741706E+02  0.00000000000E+00 0.  1.
<mgrwt>
<rscale>  1 0.30000000E+03</rscale>
<asrwt>0</asrwt>
<pdfrwt beam="1">  1        3 0.11241137E+00 0.30000000E+03</pdfrwt>
<pdfrwt beam="2">0</pdfrwt>
<totfact> 0.28286583E+00</totfact>
</mgrwt>
</event>
<event>
 6    1  0.1950139E-004  0.3000000E+03  0.7818608E-02  0.1093470E+00
          1   -1    0    0  502    0  0.00000000000E+00  0.00000000000E+00  0.30258797342E+02  0.30258797342E+02  0.00000000000E+00 0.  1.
         13   -1    0    0    0    0 -0.00000000000E+00 -0.00000000000E+00 -0.10000000000E+04  0.10000000000E+04  0.00000000000E+00 0.  1.
    9000005    2    1    2  501    0 -0.13229592830E+02 -0.24678201741E+01 -0.86271616727E+03  0.92239095940E+03  0.32610548055E+03 0.  0.
         13    1    3    3    0    0  0.15343091661E+03 -0.26945626425E+02 -0.46760141263E+03  0.49286731891E+03  0.00000000000E+00 0.  1.
          1    1    3    3  501    0 -0.16666050944E+03  0.24477806251E+02 -0.39511475464E+03  0.42952364049E+03  0.00000000000E+00 0.  1.
         21    1    1    2  502  501  0.13229592830E+02  0.24678201741E+01 -0.10702503539E+03  0.10786783794E+03  0.00000000000E+00 0. -1.
<mgrwt>
<rscale>  1 0.30000000E+03</rscale>
<asrwt>0</asrwt>
<pdfrwt beam="1">  1        1 0.11003222E+00 0.30000000E+03</pdfrwt>
<pdfrwt beam="2">0</pdfrwt>
<totfact> 0.29696507E+01</totfact>
</mgrwt>
</event>
<event>
 6    1  0.1950139E-004  0.3000000E+03  0.7818608E-02  0.1093470E+00
          1   -1    0    0  502    0  0.00000000000E+00  0.00000000000E+00  0.50991721217E+02  0.50991721217E+02  0.00000000000E+00 0.  1.
         13   -1    0    0    0    0 -0.00000000000E+00 -0.00000000000E+00 -0.10000000000E+04  0.10000000000E+04  0.00000000000E+00 0.  1.
    9000005    2    1    2  501    0 -0.10043855204E+02  0.14434703702E+02 -0.97052461213E+03  0.10232033730E+04  0.32360142147E+03 0.  0.
         13    1    3    3    0    0  0.13915971672E+03  0.59438307917E+02 -0.31574381870E+03  0.35013211543E+03  0.00000000000E+00 0.  1.
          3    1    3    3  501    0 -0.14920357192E+03 -0.45003604215E+02 -0.65478079343E+03  0.67307125753E+03  0.00000000000E+00 0.  1.
         21    1    1    2  502  501  0.10043855204E+02 -0.14434703702E+02  0.21516333348E+02  0.27788348261E+02  0.00000000000E+00 0.  1.
<mgrwt>
<rscale>  1 0.30000000E+03</rscale>
<asrwt>0</asrwt>
<pdfrwt beam="1">  1        1 0.18542483E+00 0.30000000E+03</pdfrwt>
<pdfrwt beam="2">0</pdfrwt>
<totfact> 0.12027661E+01</totfact>
</mgrwt>
</event>
<event>
 6    1  0.1950139E-004  0.3000000E+03  0.7818608E-02  0.1093470E+00
          1   -1    0    0  502    0  0.00000000000E+00  0.00000000000E+00  0.32211097939E+02  0.32211097939E+02  0.00000000000E+00 0.  1.
         13   -1    0    0    0    0 -0.00000000000E+00 -0.00000000000E+00 -0.10000000000E+04  0.10000000000E+04  0.00000000000E+00 0.  1.
    9000005    2    1    2  501    0  0.26856452416E+01 -0.12677277526E+02 -0.96935375182E+03  0.10191583277E+04  0.31443453171E+03 0.  0.
         13    1    3    3    0    0  0.92269145747E+02 -0.30780867145E+02 -0.82315262148E+02  0.12742393583E+03  0.00000000000E+00 0.  1.
          3    1    3    3  501    0 -0.89583500506E+02  0.18103589619E+02 -0.88703848967E+03  0.89173439189E+03  0.00000000000E+00 0.  1.
         21    1    1    2  502  501 -0.26856452416E+01  0.12677277526E+02  0.15648497546E+01  0.13052770226E+02  0.00000000000E+00 0. -1.
<mgrwt>
<rscale>  1 0.30000000E+03</rscale>
<asrwt>0</asrwt>
<pdfrwt beam="1">  1        1 0.11713151E+00 0.30000000E+03</pdfrwt>
<pdfrwt beam="2">0</pdfrwt>
<totfact> 0.26991898E+01</totfact>
</mgrwt>
</event>
<event>
 6    1  0.1950139E-004  0.3000000E+03  0.7818608E-02  0.1093470E+00
          1   -1    0    0  502    0  0.00000000000E+00  0.00000000000E+00  0.29280946503E+02  0.29280946503E+02  0.00000000000E+00 0.  1.
         13   -1    0    0    0    0 -0.00000000000E+00 -0.00000000000E+00 -0.10000000000E+04  0.10000000000E+04  0.00000000000E+00 0.  1.
    9000005    2    1    2  501    0 -0.14283043343E+02 -0.24162843466E+00 -0.96212190434E+03  0.10126083737E+04  0.31542526198E+03 0.  0.
         13    1    3    3    0    0 -0.14911427199E+03 -0.47198503181E+02 -0.66244479810E+03  0.68065841312E+03  0.00000000000E+00 0.  1.
          1    1    3    3  501    0  0.13483122865E+03  0.46956874746E+02 -0.29967710624E+03  0.33194996055E+03  0.00000000000E+00 0.  1.
         21    1    1    2  502  501  0.14283043343E+02  0.24162843466E+00 -0.85971491573E+01  0.16672572839E+02  0.00000000000E+00 0.  1.
<mgrwt>
<rscale>  1 0.30000000E+03</rscale>
<asrwt>0</asrwt>
<pdfrwt beam="1">  1        1 0.10647639E+00 0.30000000E+03</pdfrwt>
<pdfrwt beam="2">0</pdfrwt>
<totfact> 0.31197433E+01</totfact>
</mgrwt>
</event>
<event>
 6    1  0.1950139E-004  0.3000000E+03  0.7818608E-02  0.1093470E+00
          1   -1    0    0  502    0  0.00000000000E+00  0.00000000000E+00  0.47947567456E+02  0.47947567456E+02  0.00000000000E+00 0.  1.
         13   -1    0    0    0    0 -0.00000000000E+00 -0.00000000000E+00 -0.10000000000E+04  0.10000000000E+04  0.00000000000E+00 0.  1.
    9000005    2    1    2  501    0  0.12033271843E+02 -0.14541100642E+02 -0.96944582815E+03  0.10222809851E+04  0.32384711753E+03 0.  0.
         13    1    3    3    0    0  0.16552109582E+03 -0.10329719885E+02 -0.41341133238E+03  0.44543559132E+03  0.00000000000E+00 0.  1.
          3    1    3    3  501    0 -0.15348782397E+03 -0.42113807568E+01 -0.55603449577E+03  0.57684539378E+03  0.00000000000E+00 0.  1.
         21    1    1    2  502  501 -0.12033271843E+02  0.14541100642E+02  0.17393395609E+02  0.25666582357E+02  0.00000000000E+00 0.  1.
<mgrwt>
<rscale>  1 0.30000000E+03</rscale>
<asrwt>0</asrwt>
<pdfrwt beam="1">  1        1 0.17435516E+00 0.30000000E+03</pdfrwt>
<pdfrwt beam="2">0</pdfrwt>
<totfact> 0.13605702E+01</totfact>
</mgrwt>
</event>
<event>
 6    1  0.1950139E-004  0.3000000E+03  0.7818608E-02  0.1093470E+00
          1   -1    0    0  502    0  0.00000000000E+00  0.00000000000E+00  0.43607637645E+02  0.43607637645E+02  0.00000000000E+00 0.  1.
         13   -1    0    0    0    0 -0.00000000000E+00 -0.00000000000E+00 -0.10000000000E+04  0.10000000000E+04  0.00000000000E+00 0.  1.
    9000005    2    1    2  501    0  0.54545735389E+02  0.13940985698E+02 -0.91915703673E+03  0.97610906132E+03  0.32368140678E+03 0.  0.
         13    1    3    3    0    0  0.70375514916E+02 -0.80985450493E+02 -0.86249651720E+02  0.13766030188E+03  0.00000000000E+00 0.  1.
          3    1    3    3  501    0 -0.15829779528E+02  0.94926436191E+02 -0.83290738501E+03  0.83844875944E+03  0.00000000000E+00 0.  1.
         21    1    1    2  502  501 -0.54545735389E+02 -0.13940985698E+02 -0.37235325626E+02  0.67498576324E+02  0.00000000000E+00 0.  1.
<mgrwt>
<rscale>  1 0.30000000E+03</rscale>
<asrwt>0</asrwt>
<pdfrwt beam="1">  1        1 0.15857356E+00 0.30000000E+03</pdfrwt>
<pdfrwt beam="2">0</pdfrwt>
<totfact> 0.16266669E+01</totfact>
</mgrwt>
</event>
<event>
 6    1  0.1950139E-004  0.3000000E+03  0.7818608E-02  0.1093470E+00
          1   -1    0    0  502    0  0.00000000000E+00  0.00000000000E+00  0.37943382704E+02  0.37943382704E+02  0.00000000000E+00 0.  1.
         13   -1    0    0    0    0 -0.00000000000E+00 -0.00000000000E+00 -0.10000000000E+04  0.10000000000E+04  0.00000000000E+00 0.  1.
    9000005    2    1    2  501    0 -0.20786206464E+02  0.57823266485E+01 -0.95983093503E+03  0.10162534002E+04  0.33321171624E+03 0.  0.
         13    1    3    3    0    0 -0.14014413395E+02  0.13673061259E+03 -0.78909839197E+03  0.80097936079E+03  0.00000000000E+00 0.  1.
          1    1    3    3  501    0 -0.67717930691E+01 -0.13094828594E+03 -0.17073254306E+03  0.21527403938E+03  0.00000000000E+00 0.  1.
         21    1    1    2  502  501  0.20786206464E+02 -0.57823266485E+01 -0.22256822665E+01  0.21689982531E+02  0.00000000000E+00 0. -1.
<mgrwt>
<rscale>  1 0.30000000E+03</rscale>
<asrwt>0</asrwt>
<pdfrwt beam="1">  1        1 0.13797623E+00 0.30000000E+03</pdfrwt>
<pdfrwt beam="2">0</pdfrwt>
<totfact> 0.20734413E+01</totfact>
</mgrwt>
</event>
<event>
 6    1  0.1950139E-004  0.3000000E+03  0.7818608E-02  0.1093470E+00
          1   -1    0    0  502    0  0.00000000000E+00  0.00000000000E+00  0.30114686093E+02  0.30114686093E+02  0.00000000000E+00 0.  1.
         13   -1    0    0    0    0 -0.00000000000E+00 -0.00000000000E+00 -0.10000000000E+04  0.10000000000E+04  0.00000000000E+00 0.  1.
    9000005    2    1    2  501    0  0.95798785147E+01 -0.56608004828E+01 -0.96277668779E+03  0.10169104709E+04  0.32717600229E+03 0.  0.
         13    1    3    3    0    0 -0.27758483552E+02  0.11006433433E+03 -0.82654491328E+03  0.83430281359E+03  0.00000000000E+00 0.  1.
          1    1    3    3  501    0  0.37338362067E+02 -0.11572513481E+03 -0.13623177451E+03  0.18260765728E+03  0.00000000000E+00 0.  1.
         21    1    1    2  502  501 -0.95798785147E+01  0.56608004828E+01 -0.71086261158E+01  0.13204215225E+02  0.00000000000E+00 0. -1.
<mgrwt>
<rscale>  1 0.30000000E+03</rscale>
<asrwt>0</asrwt>
<pdfrwt beam="1">  1        1 0.10950818E+00 0.30000000E+03</pdfrwt>
<pdfrwt beam="2">0</pdfrwt>
<totfact> 0.29911143E+01</totfact>
</mgrwt>
</event>
<event>
 6    1  0.1950139E-004  0.3000000E+03  0.7818608E-02  0.1093470E+00
          1   -1    0    0  502    0  0.00000000000E+00  0.00000000000E+00  0.33116084029E+02  0.33116084029E+02  0.00000000000E+00 0.  1.
         13   -1    0    0    0    0 -0.00000000000E+00 -0.00000000000E+00 -0.10000000000E+04  0.10000000000E+04  0.00000000000E+00 0.  1.
    9000005    2    1    2  501    0  0.62731865507E+01  0.20527072641E+02 -0.95864553334E+03  0.10101251178E+04  0.31763309241E+03 0.  0.
         13    1    3    3    0    0  0.10990514925E+03  0.37870902899E+02 -0.85384466183E+03  0.86172156388E+03  0.00000000000E+00 0.  1.
          3    1    3    3  501    0 -0.10363196270E+03 -0.17343830258E+02 -0.10480087150E+03  0.14840355390E+03  0.00000000000E+00 0.  1.
         21    1    1    2  502  501 -0.62731865507E+01 -0.20527072641E+02 -0.82383826328E+01  0.22990966250E+02  0.00000000000E+00 0. -1.
<mgrwt>
<rscale>  1 0.30000000E+03</rscale>
<asrwt>0</asrwt>
<pdfrwt beam="1">  1        1 0.12042238E+00 0.30000000E+03</pdfrwt>
<pdfrwt beam="2">0</pdfrwt>
<totfact> 0.25853592E+01</totfact>
</mgrwt>
</event>
<event>
 6    1  0.1950139E-004  0.3000000E+03  0.7818608E-02  0.1093470E+00
          1   -1    0    0  502    0  0.00000000000E+00  0.00000000000E+00  0.65574851988E+02  0.65574851988E+02  0.00000000000E+00 0.  1.
         13   -1    0    0    0    0 -0.00000000000E+00 -0.00000000000E+00 -0.10000000000E+04  0.10000000000E+04  0.00000000000E+00 0.  1.
    9000005    2    1    2  501    0  0.38433878291E+02  0.76034618473E+01 -0.96268110299E+03  0.10172698354E+04  0.32641696707E+03 0.  0.
         13    1    3    3    0    0  0.12507808702E+03  0.41080980202E+02 -0.88903509453E+03  0.89872997841E+03  0.00000000000E+00 0.  1.
          3    1    3    3  501    0 -0.86644208726E+02 -0.33477518355E+02 -0.73646008464E+02  0.11853985703E+03  0.00000000000E+00 0.  1.
         21    1    1    2  502  501 -0.38433878291E+02 -0.76034618473E+01  0.28255954979E+02  0.48305016555E+02  0.00000000000E+00 0.  1.
<mgrwt>
<rscale>  1 0.30000000E+03</rscale>
<asrwt>0</asrwt>
<pdfrwt beam="1">  1        1 0.23845451E+00 0.30000000E+03</pdfrwt>
<pdfrwt beam="2">0</pdfrwt>
<totfact> 0.67556303E+00</totfact>
</mgrwt>
</event>
<event>
 6    1  0.1950139E-004  0.3000000E+03  0.7818608E-02  0.1093470E+00
          1   -1    0    0  502    0  0.00000000000E+00  0.00000000000E+00  0.31609554577E+02  0.31609554577E+02  0.00000000000E+00 0.  1.
         13   -1    0    0    0    0 -0.00000000000E+00 -0.00000000000E+00 -0.10000000000E+04  0.10000000000E+04  0.00000000000E+00 0.  1.
    9000005    2    1    2  501    0  0.22183534979E+02 -0.15582220637E+02 -0.96128096474E+03  0.10035835035E+04  0.28702585333E+03 0.  0.
         13    1    3    3    0    0  0.27363713961E+02 -0.11771104377E+03 -0.18747957234E+03  0.22305437165E+03  0.00000000000E+00 0.  1.
          3    1    3    3  501    0 -0.51801789816E+01  0.10212882313E+03 -0.77380139240E+03  0.78052913184E+03  0.00000000000E+00 0.  1.
         21    1    1    2  502  501 -0.22183534979E+02  0.15582220637E+02 -0.71094806873E+01  0.28026051092E+02  0.00000000000E+00 0.  1.
<mgrwt>
<rscale>  1 0.30000000E+03</rscale>
<asrwt>0</asrwt>
<pdfrwt beam="1">  1        1 0.11494408E+00 0.30000000E+03</pdfrwt>
<pdfrwt beam="2">0</pdfrwt>
<totfact> 0.27786857E+01</totfact>
</mgrwt>
</event>
<event>
 6    1  0.1950139E-004  0.3000000E+03  0.7818608E-02  0.1093470E+00
          1   -1    0    0  502    0  0.00000000000E+00  0.00000000000E+00  0.47704217077E+02  0.47704217077E+02  0.00000000000E+00 0.  1.
         13   -1    0    0    0    0 -0.00000000000E+00 -0.00000000000E+00 -0.10000000000E+04  0.10000000000E+04  0.00000000000E+00 0.  1.
    9000005    2    1    2  501    0 -0.48950547156E+02 -0.33703433605E+02 -0.87861237131E+03  0.95303995428E+03  0.36440825723E+03 0.  0.
         13    1    3    3    0    0 -0.25377377484E+01 -0.45088688277E+02 -0.89968046104E+03  0.90081316703E+03  0.00000000000E+00 0.  1.
          1    1    3    3  501    0 -0.46412809407E+02  0.11385254672E+02  0.21068089733E+02  0.52226787246E+02  0.00000000000E+00 0.  1.
         21    1    1    2  502  501  0.48950547156E+02  0.33703433605E+02 -0.73683411617E+02  0.94664262798E+02  0.00000000000E+00 0.  1.
<mgrwt>
<rscale>  1 0.30000000E+03</rscale>
<asrwt>0</asrwt>
<pdfrwt beam="1">  1        1 0.17347025E+00 0.30000000E+03</pdfrwt>
<pdfrwt beam="2">0</pdfrwt>
<totfact> 0.13741229E+01</totfact>
</mgrwt>
</event>
<event>
 6    1  0.1950139E-004  0.3000000E+03  0.7818608E-02  0.1093470E+00
          1   -1    0    0  502    0  0.00000000000E+00  0.00000000000E+00  0.38555051310E+02  0.38555051310E+02  0.00000000000E+00 0.  1.
         13   -1    0    0    0    0 -0.00000000000E+00 -0.00000000000E+00 -0.10000000000E+04  0.10000000000E+04  0.00000000000E+00 0.  1.
    9000005    2    1    2  501    0 -0.14492996924E+02  0.54691327777E+00 -0.96657186608E+03  0.10231722247E+04  0.33527583112E+03 0.  0.
         13    1    3    3    0    0  0.16024147720E+03  0.72484991362E+01 -0.44013195661E+03  0.46845064946E+03  0.00000000000E+00 0.  1.
          3    1    3    3  501    0 -0.17473447412E+03 -0.67015858584E+01 -0.52643990947E+03  0.55472157519E+03  0.00000000000E+00 0.  1.
         21    1    1    2  502  501  0.14492996924E+02 -0.54691327777E+00  0.51269173890E+01  0.15382826655E+02  0.00000000000E+00 0. -1.
<mgrwt>
<rscale>  1 0.30000000E+03</rscale>
<asrwt>0</asrwt>
<pdfrwt beam="1">  1        1 0.14020048E+00 0.30000000E+03</pdfrwt>
<pdfrwt beam="2">0</pdfrwt>
<totfact> 0.20183333E+01</totfact>
</mgrwt>
</event>
<event>
 6    1  0.1950139E-004  0.3000000E+03  0.7818608E-02  0.1093470E+00
          1   -1    0    0  502    0  0.00000000000E+00  0.00000000000E+00  0.58951565304E+02  0.58951565304E+02  0.00000000000E+00 0.  1.
         13   -1    0    0    0    0 -0.00000000000E+00 -0.00000000000E+00 -0.10000000000E+04  0.10000000000E+04  0.00000000000E+00 0.  1.
    9000005    2    1    2  501    0 -0.37071623369E+02  0.13484695986E+02 -0.95982747019E+03  0.10152618130E+04  0.32852950259E+03 0.  0.
         13    1    3    3    0    0 -0.12678660728E+03  0.11409773635E+03 -0.33344270060E+03  0.37453594195E+03  0.00000000000E+00 0.  1.
          1    1    3    3  501    0  0.89714983913E+02 -0.10061304037E+03 -0.62638476959E+03  0.64072587103E+03  0.00000000000E+00 0.  1.
         21    1    1    2  502  501  0.37071623369E+02 -0.13484695986E+02  0.18779035489E+02  0.43689752333E+02  0.00000000000E+00 0.  1.
<mgrwt>
<rscale>  1 0.30000000E+03</rscale>
<asrwt>0</asrwt>
<pdfrwt beam="1">  1        1 0.21436978E+00 0.30000000E+03</pdfrwt>
<pdfrwt beam="2">0</pdfrwt>
<totfact> 0.87604832E+00</totfact>
</mgrwt>
</event>
<event>
 6    1  0.1950139E-004  0.3000000E+03  0.7818608E-02  0.1093470E+00
          1   -1    0    0  502    0  0.00000000000E+00  0.00000000000E+00  0.32057041431E+02  0.32057041431E+02  0.00000000000E+00 0.  1.
         13   -1    0    0    0    0 -0.00000000000E+00 -0.00000000000E+00 -0.10000000000E+04  0.10000000000E+04  0.00000000000E+00 0.  1.
    9000005    2    1    2  501    0  0.35659000474E+01  0.16998166666E+02 -0.96004179295E+03  0.10129761156E+04  0.32270530397E+03 0.  0.
         13    1    3    3    0    0 -0.11022079249E+03  0.10151771590E+03 -0.70919165887E+03  0.72484983186E+03  0.00000000000E+00 0.  1.
          1    1    3    3  501    0  0.11378669254E+03 -0.84519549229E+02 -0.25085013408E+03  0.28812628372E+03  0.00000000000E+00 0.  1.
         21    1    1    2  502  501 -0.35659000474E+01 -0.16998166666E+02 -0.79011656144E+01  0.19080925848E+02  0.00000000000E+00 0. -1.
<mgrwt>
<rscale>  1 0.30000000E+03</rscale>
<asrwt>0</asrwt>
<pdfrwt beam="1">  1        1 0.11657131E+00 0.30000000E+03</pdfrwt>
<pdfrwt beam="2">0</pdfrwt>
<totfact> 0.27192451E+01</totfact>
</mgrwt>
</event>
<event>
 6    1  0.1950139E-004  0.3000000E+03  0.7818608E-02  0.1093470E+00
          1   -1    0    0  502    0  0.00000000000E+00  0.00000000000E+00  0.48474660293E+02  0.48474660293E+02  0.00000000000E+00 0.  1.
         13   -1    0    0    0    0 -0.00000000000E+00 -0.00000000000E+00 -0.10000000000E+04  0.10000000000E+04  0.00000000000E+00 0.  1.
    9000005    2    1    2  501    0 -0.41920778716E+02  0.80274101550E+01 -0.94700668671E+03  0.10055536954E+04  0.33540241303E+03 0.  0.
         13    1    3    3    0    0  0.23364604047E+02 -0.13384041140E+03 -0.70186335455E+03  0.71489252961E+03  0.00000000000E+00 0.  1.
          3    1    3    3  501    0 -0.65285382762E+02  0.14186782155E+03 -0.24514333217E+03  0.29066116579E+03  0.00000000000E+00 0.  1.
         21    1    1    2  502  501  0.41920778716E+02 -0.80274101550E+01 -0.45186529951E+01  0.42920964887E+02  0.00000000000E+00 0.  1.
<mgrwt>
<rscale>  1 0.30000000E+03</rscale>
<asrwt>0</asrwt>
<pdfrwt beam="1">  1        1 0.17627186E+00 0.30000000E+03</pdfrwt>
<pdfrwt beam="2">0</pdfrwt>
<totfact> 0.13317060E+01</totfact>
</mgrwt>
</event>
<event>
 6    1  0.1950139E-004  0.3000000E+03  0.7818608E-02  0.1093470E+00
          1   -1    0    0  502    0  0.00000000000E+00  0.00000000000E+00  0.64943856456E+02  0.64943856456E+02  0.00000000000E+00 0.  1.
         13   -1    0    0    0    0 -0.00000000000E+00 -0.00000000000E+00 -0.10000000000E+04  0.10000000000E+04  0.00000000000E+00 0.  1.
    9000005    2    1    2  501    0  0.94343109952E+01 -0.66230536153E+01 -0.97461377207E+03  0.10237409799E+04  0.31311454474E+03 0.  0.
         13    1    3    3    0    0 -0.86520701249E+01 -0.15433130620E+03 -0.36808804271E+03  0.39922652414E+03  0.00000000000E+00 0.  1.
          1    1    3    3  501    0  0.18086381120E+02  0.14770825258E+03 -0.60652572936E+03  0.62451445575E+03  0.00000000000E+00 0.  1.
         21    1    1    2  502  501 -0.94343109952E+01  0.66230536153E+01  0.39557628525E+02  0.41202876570E+02  0.00000000000E+00 0.  1.
<mgrwt>
<rscale>  1 0.30000000E+03</rscale>
<asrwt>0</asrwt>
<pdfrwt beam="1">  1        1 0.23615998E+00 0.30000000E+03</pdfrwt>
<pdfrwt beam="2">0</pdfrwt>
<totfact> 0.69250351E+00</totfact>
</mgrwt>
</event>
<event>
 6    1  0.1950139E-004  0.3000000E+03  0.7818608E-02  0.1093470E+00
          1   -1    0    0  502    0  0.00000000000E+00  0.00000000000E+00  0.41014708903E+02  0.41014708903E+02  0.00000000000E+00 0.  1.
         13   -1    0    0    0    0 -0.00000000000E+00 -0.00000000000E+00 -0.10000000000E+04  0.10000000000E+04  0.00000000000E+00 0.  1.
    9000005    2    1    2  501    0  0.51544884196E+02 -0.49471061685E+02 -0.75224960140E+03  0.82228220920E+03  0.32429046815E+03 0.  0.
         13    1    3    3    0    0  0.17594467697E+03 -0.56491437774E+02 -0.29279057451E+03  0.34622843964E+03  0.00000000000E+00 0.  1.
          1    1    3    3  501    0 -0.12439979277E+03  0.70203760888E+01 -0.45945902689E+03  0.47605376956E+03  0.00000000000E+00 0.  1.
         21    1    1    2  502  501 -0.51544884196E+02  0.49471061685E+02 -0.20673568970E+03  0.21873249970E+03  0.00000000000E+00 0.  1.
<mgrwt>
<rscale>  1 0.30000000E+03</rscale>
<asrwt>0</asrwt>
<pdfrwt beam="1">  1        1 0.14914471E+00 0.30000000E+03</pdfrwt>
<pdfrwt beam="2">0</pdfrwt>
<totfact> 0.18145977E+01</totfact>
</mgrwt>
</event>
<event>
 6    1  0.1950139E-004  0.3000000E+03  0.7818608E-02  0.1093470E+00
          1   -1    0    0  502    0  0.00000000000E+00  0.00000000000E+00  0.36923084860E+02  0.36923084860E+02  0.00000000000E+00 0.  1.
         13   -1    0    0    0    0 -0.00000000000E+00 -0.00000000000E+00 -0.10000000000E+04  0.10000000000E+04  0.00000000000E+00 0.  1.
    9000005    2    1    2  501    0 -0.13383297395E+02  0.41188598145E+01 -0.96865989042E+03  0.10218483620E+04  0.32507847364E+03 0.  0.
         13    1    3    3    0    0 -0.42986340132E+02 -0.13091810317E+03 -0.75425835943E+03  0.76674183918E+03  0.00000000000E+00 0.  1.
          1    1    3    3  501    0  0.29603042737E+02  0.13503696298E+03 -0.21440153099E+03  0.25510652286E+03  0.00000000000E+00 0.  1.
         21    1    1    2  502  501  0.13383297395E+02 -0.41188598145E+01  0.55829752812E+01  0.15074722828E+02  0.00000000000E+00 0. -1.
<mgrwt>
<rscale>  1 0.30000000E+03</rscale>
<asrwt>0</asrwt>
<pdfrwt beam="1">  1        1 0.13426605E+00 0.30000000E+03</pdfrwt>
<pdfrwt beam="2">0</pdfrwt>
<totfact> 0.21697699E+01</totfact>
</mgrwt>
</event>
<event>
 6    1  0.1950139E-004  0.3000000E+03  0.7818608E-02  0.1093470E+00
          1   -1    0    0  502    0  0.00000000000E+00  0.00000000000E+00  0.43558823953E+02  0.43558823953E+02  0.00000000000E+00 0.  1.
         13   -1    0    0    0    0 -0.00000000000E+00 -0.00000000000E+00 -0.10000000000E+04  0.10000000000E+04  0.00000000000E+00 0.  1.
    9000005    2    1    2  501    0 -0.29767595216E+01 -0.12874709441E+02 -0.97095851054E+03  0.10239279238E+04  0.32479739023E+03 0.  0.
         13    1    3    3    0    0 -0.24066228181E+02 -0.40472700906E+02  0.49994809980E+01  0.47352060860E+02  0.00000000000E+00 0.  1.
          1    1    3    3  501    0  0.21089468659E+02  0.27597991464E+02 -0.97595799153E+03  0.97657586293E+03  0.00000000000E+00 0.  1.
         21    1    1    2  502  501  0.29767595216E+01  0.12874709441E+02  0.14517334490E+02  0.19630900161E+02  0.00000000000E+00 0. -1.
<mgrwt>
<rscale>  1 0.30000000E+03</rscale>
<asrwt>0</asrwt>
<pdfrwt beam="1">  1        1 0.15839606E+00 0.30000000E+03</pdfrwt>
<pdfrwt beam="2">0</pdfrwt>
<totfact> 0.16299829E+01</totfact>
</mgrwt>
</event>
<event>
 6    1  0.1950139E-004  0.3000000E+03  0.7818608E-02  0.1093470E+00
          1   -1    0    0  502    0  0.00000000000E+00  0.00000000000E+00  0.29604350493E+02  0.29604350493E+02  0.00000000000E+00 0.  1.
         13   -1    0    0    0    0 -0.00000000000E+00 -0.00000000000E+00 -0.10000000000E+04  0.10000000000E+04  0.00000000000E+00 0.  1.
    9000005    2    1    2  501    0 -0.11706985892E+02 -0.57694088183E+01 -0.94523355053E+03  0.10012587896E+04  0.32997327033E+03 0.  0.
         13    1    3    3    0    0  0.10975315676E+02  0.16040953664E+03 -0.51386359593E+03  0.53843056397E+03  0.00000000000E+00 0.  1.
          1    1    3    3  501    0 -0.22682301568E+02 -0.16617894545E+03 -0.43136995460E+03  0.46282822564E+03  0.00000000000E+00 0.  1.
         21    1    1    2  502  501  0.11706985892E+02  0.57694088183E+01 -0.25162098975E+02  0.28345560880E+02  0.00000000000E+00 0.  1.
<mgrwt>
<rscale>  1 0.30000000E+03</rscale>
<asrwt>0</asrwt>
<pdfrwt beam="1">  1        1 0.10765241E+00 0.30000000E+03</pdfrwt>
<pdfrwt beam="2">0</pdfrwt>
<totfact> 0.30689258E+01</totfact>
</mgrwt>
</event>
<event>
 6    1  0.1950139E-004  0.3000000E+03  0.7818608E-02  0.1093470E+00
          1   -1    0    0  502    0  0.00000000000E+00  0.00000000000E+00  0.36944518475E+02  0.36944518475E+02  0.00000000000E+00 0.  1.
         13   -1    0    0    0    0 -0.00000000000E+00 -0.00000000000E+00 -0.10000000000E+04  0.10000000000E+04  0.00000000000E+00 0.  1.
    9000005    2    1    2  501    0 -0.15734058139E+01  0.22840960492E+02 -0.96637088614E+03  0.10138106258E+04  0.30563885608E+03 0.  0.
         13    1    3    3    0    0 -0.71282378324E+02 -0.69769112614E+02 -0.10555879464E+03  0.14522935536E+03  0.00000000000E+00 0.  1.
          3    1    3    3  501    0  0.69708972510E+02  0.92610073106E+02 -0.86081209151E+03  0.86858127045E+03  0.00000000000E+00 0.  1.
         21    1    1    2  502  501  0.15734058139E+01 -0.22840960492E+02  0.33154046161E+01  0.23133892664E+02  0.00000000000E+00 0. -1.
<mgrwt>
<rscale>  1 0.30000000E+03</rscale>
<asrwt>0</asrwt>
<pdfrwt beam="1">  1        1 0.13434399E+00 0.30000000E+03</pdfrwt>
<pdfrwt beam="2">0</pdfrwt>
<totfact> 0.21676860E+01</totfact>
</mgrwt>
</event>
<event>
 6    1  0.1950139E-004  0.3000000E+03  0.7818608E-02  0.1093470E+00
          1   -1    0    0  502    0  0.00000000000E+00  0.00000000000E+00  0.62592863752E+02  0.62592863752E+02  0.00000000000E+00 0.  1.
         13   -1    0    0    0    0 -0.00000000000E+00 -0.00000000000E+00 -0.10000000000E+04  0.10000000000E+04  0.00000000000E+00 0.  1.
    9000005    2    1    2  501    0  0.12685504059E+02 -0.47021517540E+02 -0.96023712601E+03  0.10088048209E+04  0.30538481184E+03 0.  0.
         13    1    3    3    0    0 -0.12399028799E+03 -0.31353828912E+01 -0.20153933085E+03  0.23664641138E+03  0.00000000000E+00 0.  1.
          3    1    3    3  501    0  0.13667579205E+03 -0.43886134648E+02 -0.75869779516E+03  0.77215840948E+03  0.00000000000E+00 0.  1.
         21    1    1    2  502  501 -0.12685504059E+02  0.47021517540E+02  0.22829989764E+02  0.53788042887E+02  0.00000000000E+00 0.  1.
<mgrwt>
<rscale>  1 0.30000000E+03</rscale>
<asrwt>0</asrwt>
<pdfrwt beam="1">  1        1 0.22761089E+00 0.30000000E+03</pdfrwt>
<pdfrwt beam="2">0</pdfrwt>
<totfact> 0.75935163E+00</totfact>
</mgrwt>
</event>
<event>
 6    1  0.1950139E-004  0.3000000E+03  0.7818608E-02  0.1093470E+00
          3   -1    0    0  502    0  0.00000000000E+00  0.00000000000E+00  0.31763467191E+02  0.31763467191E+02  0.00000000000E+00 0.  1.
         13   -1    0    0    0    0 -0.00000000000E+00 -0.00000000000E+00 -0.10000000000E+04  0.10000000000E+04  0.00000000000E+00 0.  1.
    9000005    2    1    2  501    0  0.15868432808E+02  0.40296833978E+02 -0.80146530701E+03  0.85946058346E+03  0.30732753568E+03 0.  0.
         13    1    3    3    0    0 -0.27189848304E+02  0.13558046855E+03 -0.16877686390E+03  0.21819024059E+03  0.00000000000E+00 0.  1.
          3    1    3    3  501    0  0.43058281112E+02 -0.95283634573E+02 -0.63268844311E+03  0.64127034286E+03  0.00000000000E+00 0.  1.
         21    1    1    2  502  501 -0.15868432808E+02 -0.40296833978E+02 -0.16677122580E+03  0.17230288374E+03  0.00000000000E+00 0.  1.
<mgrwt>
<rscale>  1 0.30000000E+03</rscale>
<asrwt>0</asrwt>
<pdfrwt beam="1">  1        3 0.11550376E+00 0.30000000E+03</pdfrwt>
<pdfrwt beam="2">0</pdfrwt>
<totfact> 0.26068816E+00</totfact>
</mgrwt>
</event>
<event>
 6    1  0.1950139E-004  0.3000000E+03  0.7818608E-02  0.1093470E+00
          3   -1    0    0  502    0  0.00000000000E+00  0.00000000000E+00  0.36422543255E+02  0.36422543255E+02  0.00000000000E+00 0.  1.
         13   -1    0    0    0    0 -0.00000000000E+00 -0.00000000000E+00 -0.10000000000E+04  0.10000000000E+04  0.00000000000E+00 0.  1.
    9000005    2    1    2  501    0 -0.25947091007E+01  0.13583186289E+02 -0.96611693627E+03  0.10223625140E+04  0.33414359204E+03 0.  0.
         13    1    3    3    0    0  0.29208656341E+02  0.17073591152E+03 -0.46468881819E+03  0.49592297269E+03  0.00000000000E+00 0.  1.
          3    1    3    3  501    0 -0.31803365441E+02 -0.15715272523E+03 -0.50142811808E+03  0.52643954136E+03  0.00000000000E+00 0.  1.
         21    1    1    2  502  501  0.25947091007E+01 -0.13583186289E+02  0.25394795296E+01  0.14060029209E+02  0.00000000000E+00 0.  1.
<mgrwt>
<rscale>  1 0.30000000E+03</rscale>
<asrwt>0</asrwt>
<pdfrwt beam="1">  1        3 0.13244589E+00 0.30000000E+03</pdfrwt>
<pdfrwt beam="2">0</pdfrwt>
<totfact> 0.16558149E+00</totfact>
</mgrwt>
</event>
<event>
 6    1  0.1950139E-004  0.3000000E+03  0.7818608E-02  0.1093470E+00
          1   -1    0    0  502    0  0.00000000000E+00  0.00000000000E+00  0.29043916450E+02  0.29043916450E+02  0.00000000000E+00 0.  1.
         13   -1    0    0    0    0 -0.00000000000E+00 -0.00000000000E+00 -0.10000000000E+04  0.10000000000E+04  0.00000000000E+00 0.  1.
    9000005    2    1    2  501    0 -0.14526449643E+02 -0.59886931197E+01 -0.95077826605E+03  0.10034699746E+04  0.32050865273E+03 0.  0.
         13    1    3    3    0    0  0.36680361583E+01  0.14899017161E+03 -0.30998603712E+03  0.34395184102E+03  0.00000000000E+00 0.  1.
          1    1    3    3  501    0 -0.18194485801E+02 -0.15497886473E+03 -0.64079222892E+03  0.65951813355E+03  0.00000000000E+00 0.  1.
         21    1    1    2  502  501  0.14526449643E+02  0.59886931197E+01 -0.20177817504E+02  0.25573941889E+02  0.00000000000E+00 0.  1.
<mgrwt>
<rscale>  1 0.30000000E+03</rscale>
<asrwt>0</asrwt>
<pdfrwt beam="1">  1        1 0.10561446E+00 0.30000000E+03</pdfrwt>
<pdfrwt beam="2">0</pdfrwt>
<totfact> 0.31577608E+01</totfact>
</mgrwt>
</event>
<event>
 6    1  0.1950139E-004  0.3000000E+03  0.7818608E-02  0.1093470E+00
          1   -1    0    0  502    0  0.00000000000E+00  0.00000000000E+00  0.45739683833E+02  0.45739683833E+02  0.00000000000E+00 0.  1.
         13   -1    0    0    0    0 -0.00000000000E+00 -0.00000000000E+00 -0.10000000000E+04  0.10000000000E+04  0.00000000000E+00 0.  1.
    9000005    2    1    2  501    0  0.18400881749E+02  0.17286029955E+02 -0.96376397870E+03  0.10187634187E+04  0.32924230787E+03 0.  0.
         13    1    3    3    0    0  0.13100169527E+03 -0.60807367746E+02 -0.75739628878E+03  0.77104352561E+03  0.00000000000E+00 0.  1.
          1    1    3    3  501    0 -0.11260081352E+03  0.78093397702E+02 -0.20636768993E+03  0.24771989306E+03  0.00000000000E+00 0.  1.
         21    1    1    2  502  501 -0.18400881749E+02 -0.17286029955E+02  0.95036625344E+01  0.26976265166E+02  0.00000000000E+00 0.  1.
<mgrwt>
<rscale>  1 0.30000000E+03</rscale>
<asrwt>0</asrwt>
<pdfrwt beam="1">  1        1 0.16632647E+00 0.30000000E+03</pdfrwt>
<pdfrwt beam="2">0</pdfrwt>
<totfact> 0.14891867E+01</totfact>
</mgrwt>
</event>
<event>
 6    1  0.1950139E-004  0.3000000E+03  0.7818608E-02  0.1093470E+00
          1   -1    0    0  502    0  0.00000000000E+00  0.00000000000E+00  0.30629381519E+02  0.30629381519E+02  0.00000000000E+00 0.  1.
         13   -1    0    0    0    0 -0.00000000000E+00 -0.00000000000E+00 -0.10000000000E+04  0.10000000000E+04  0.00000000000E+00 0.  1.
    9000005    2    1    2  501    0 -0.21939745083E+02 -0.12967685061E+02 -0.94508364365E+03  0.99542468842E+03  0.31150875356E+03 0.  0.
         13    1    3    3    0    0  0.85012506586E+02  0.10972695179E+03 -0.56795356616E+03  0.58466946520E+03  0.00000000000E+00 0.  1.
          3    1    3    3  501    0 -0.10695225167E+03 -0.12269463685E+03 -0.37713007749E+03  0.41075522321E+03  0.00000000000E+00 0.  1.
         21    1    1    2  502  501  0.21939745083E+02  0.12967685061E+02 -0.24286974830E+02  0.35204693104E+02  0.00000000000E+00 0. -1.
<mgrwt>
<rscale>  1 0.30000000E+03</rscale>
<asrwt>0</asrwt>
<pdfrwt beam="1">  1        1 0.11137980E+00 0.30000000E+03</pdfrwt>
<pdfrwt beam="2">0</pdfrwt>
<totfact> 0.29154500E+01</totfact>
</mgrwt>
</event>
<event>
 6    1  0.1950139E-004  0.3000000E+03  0.7818608E-02  0.1093470E+00
          1   -1    0    0  502    0  0.00000000000E+00  0.00000000000E+00  0.33262978437E+02  0.33262978437E+02  0.00000000000E+00 0.  1.
         13   -1    0    0    0    0 -0.00000000000E+00 -0.00000000000E+00 -0.10000000000E+04  0.10000000000E+04  0.00000000000E+00 0.  1.
    9000005    2    1    2  501    0  0.55552621571E+00  0.10770265248E+02 -0.96951291792E+03  0.10221268739E+04  0.32353012408E+03 0.  0.
         13    1    3    3    0    0  0.98413650253E+02 -0.42483538103E+02 -0.10359236333E+03  0.14906869325E+03  0.00000000000E+00 0.  1.
          3    1    3    3  501    0 -0.97858124037E+02  0.53253803351E+02 -0.86592055458E+03  0.87305818069E+03  0.00000000000E+00 0.  1.
         21    1    1    2  502  501 -0.55552621571E+00 -0.10770265248E+02  0.27758963552E+01  0.11136104501E+02  0.00000000000E+00 0.  1.
<mgrwt>
<rscale>  1 0.30000000E+03</rscale>
<asrwt>0</asrwt>
<pdfrwt beam="1">  1        1 0.12095654E+00 0.30000000E+03</pdfrwt>
<pdfrwt beam="2">0</pdfrwt>
<totfact> 0.25674957E+01</totfact>
</mgrwt>
</event>
<event>
 6    1  0.1950139E-004  0.3000000E+03  0.7818608E-02  0.1093470E+00
          1   -1    0    0  502    0  0.00000000000E+00  0.00000000000E+00  0.30602333104E+02  0.30602333104E+02  0.00000000000E+00 0.  1.
         13   -1    0    0    0    0 -0.00000000000E+00 -0.00000000000E+00 -0.10000000000E+04  0.10000000000E+04  0.00000000000E+00 0.  1.
    9000005    2    1    2  501    0 -0.88004581156E+01  0.14892896571E+02 -0.96403585166E+03  0.10124916872E+04  0.30899036714E+03 0.  0.
         13    1    3    3    0    0 -0.16535110712E+02  0.38515851328E+02 -0.98132086314E+03  0.98221561642E+03  0.00000000000E+00 0.  1.
          3    1    3    3  501    0  0.77346525968E+01 -0.23622954757E+02  0.17285011479E+02  0.30276070816E+02  0.00000000000E+00 0.  1.
         21    1    1    2  502  501  0.88004581156E+01 -0.14892896571E+02 -0.53618152318E+01  0.18110645872E+02  0.00000000000E+00 0.  1.
<mgrwt>
<rscale>  1 0.30000000E+03</rscale>
<asrwt>0</asrwt>
<pdfrwt beam="1">  1        1 0.11128145E+00 0.30000000E+03</pdfrwt>
<pdfrwt beam="2">0</pdfrwt>
<totfact> 0.29193585E+01</totfact>
</mgrwt>
</event>
<event>
 6    1  0.1950139E-004  0.3000000E+03  0.7818608E-02  0.1093470E+00
          3   -1    0    0  502    0  0.00000000000E+00  0.00000000000E+00  0.21553235744E+02  0.21553235744E+02  0.00000000000E+00 0.  1.
         13   -1    0    0    0    0 -0.00000000000E+00 -0.00000000000E+00 -0.10000000000E+04  0.10000000000E+04  0.00000000000E+00 0.  1.
    9000005    2    1    2  501    0 -0.99781610226E+01 -0.12718183803E+01 -0.93043751493E+03  0.97250153607E+03  0.28274385451E+03 0.  0.
         13    1    3    3    0    0 -0.67039244960E+02 -0.11289608856E+03 -0.67861006045E+03  0.69119563172E+03  0.00000000000E+00 0.  1.
          3    1    3    3  501    0  0.57061083937E+02  0.11162427017E+03 -0.25182745448E+03  0.28130590435E+03  0.00000000000E+00 0.  1.
         21    1    1    2  502  501  0.99781610226E+01  0.12718183803E+01 -0.48009249329E+02  0.49051699670E+02  0.00000000000E+00 0. -1.
<mgrwt>
<rscale>  1 0.30000000E+03</rscale>
<asrwt>0</asrwt>
<pdfrwt beam="1">  1        3 0.78375568E-01 0.30000000E+03</pdfrwt>
<pdfrwt beam="2">0</pdfrwt>
<totfact> 0.70061111E+00</totfact>
</mgrwt>
</event>
<event>
 6    1  0.1950139E-004  0.3000000E+03  0.7818608E-02  0.1093470E+00
          1   -1    0    0  502    0  0.00000000000E+00  0.00000000000E+00  0.32320376873E+02  0.32320376873E+02  0.00000000000E+00 0.  1.
         13   -1    0    0    0    0 -0.00000000000E+00 -0.00000000000E+00 -0.10000000000E+04  0.10000000000E+04  0.00000000000E+00 0.  1.
    9000005    2    1    2  501    0  0.12829409292E+02 -0.53464757212E+01 -0.96068322662E+03  0.10167599106E+04  0.33270899511E+03 0.  0.
         13    1    3    3    0    0  0.82000637033E+01  0.16117738770E+03 -0.56092536872E+03  0.58368027260E+03  0.00000000000E+00 0.  1.
          3    1    3    3  501    0  0.46293455889E+01 -0.16652386342E+03 -0.39975785789E+03  0.43307963803E+03  0.00000000000E+00 0.  1.
         21    1    1    2  502  501 -0.12829409292E+02  0.53464757212E+01 -0.69963965076E+01  0.15560466237E+02  0.00000000000E+00 0. -1.
<mgrwt>
<rscale>  1 0.30000000E+03</rscale>
<asrwt>0</asrwt>
<pdfrwt beam="1">  1        1 0.11752889E+00 0.30000000E+03</pdfrwt>
<pdfrwt beam="2">0</pdfrwt>
<totfact> 0.26850869E+01</totfact>
</mgrwt>
</event>
<event>
 6    1  0.1950139E-004  0.3000000E+03  0.7818608E-02  0.1093470E+00
          1   -1    0    0  502    0  0.00000000000E+00  0.00000000000E+00  0.26849159424E+02  0.26849159424E+02  0.00000000000E+00 0.  1.
         13   -1    0    0    0    0 -0.00000000000E+00 -0.00000000000E+00 -0.10000000000E+04  0.10000000000E+04  0.00000000000E+00 0.  1.
    9000005    2    1    2  501    0  0.79263527260E+00  0.98166786635E+01 -0.96514998314E+03  0.10141602205E+04  0.31130285493E+03 0.  0.
         13    1    3    3    0    0  0.14652200903E+03 -0.15704233336E+02 -0.32054725901E+03  0.35279720426E+03  0.00000000000E+00 0.  1.
          3    1    3    3  501    0 -0.14572937376E+03  0.25520912000E+02 -0.64460272413E+03  0.66136301627E+03  0.00000000000E+00 0.  1.
         21    1    1    2  502  501 -0.79263527260E+00 -0.98166786635E+01 -0.80008574344E+01  0.12688938897E+02  0.00000000000E+00 0. -1.
<mgrwt>
<rscale>  1 0.30000000E+03</rscale>
<asrwt>0</asrwt>
<pdfrwt beam="1">  1        1 0.97633513E-01 0.30000000E+03</pdfrwt>
<pdfrwt beam="2">0</pdfrwt>
<totfact> 0.35442141E+01</totfact>
</mgrwt>
</event>
<event>
 6    1  0.1950139E-004  0.3000000E+03  0.7818608E-02  0.1093470E+00
          1   -1    0    0  502    0  0.00000000000E+00  0.00000000000E+00  0.30106616799E+02  0.30106616799E+02  0.00000000000E+00 0.  1.
         13   -1    0    0    0    0 -0.00000000000E+00 -0.00000000000E+00 -0.10000000000E+04  0.10000000000E+04  0.00000000000E+00 0.  1.
    9000005    2    1    2  501    0  0.32310427671E+01 -0.12615839944E+02 -0.95884077695E+03  0.10130256578E+04  0.32661253619E+03 0.  0.
         13    1    3    3    0    0  0.12629451668E+03  0.63988099574E+02 -0.71880391093E+03  0.73261438984E+03  0.00000000000E+00 0.  1.
          1    1    3    3  501    0 -0.12306347391E+03 -0.76603939518E+02 -0.24003686602E+03  0.28041126798E+03  0.00000000000E+00 0.  1.
         21    1    1    2  502  501 -0.32310427671E+01  0.12615839944E+02 -0.11052606253E+02  0.17080958985E+02  0.00000000000E+00 0. -1.
<mgrwt>
<rscale>  1 0.30000000E+03</rscale>
<asrwt>0</asrwt>
<pdfrwt beam="1">  1        1 0.10947884E+00 0.30000000E+03</pdfrwt>
<pdfrwt beam="2">0</pdfrwt>
<totfact> 0.29923226E+01</totfact>
</mgrwt>
</event>
<event>
 6    1  0.1950139E-004  0.3000000E+03  0.7818608E-02  0.1093470E+00
          1   -1    0    0  502    0  0.00000000000E+00  0.00000000000E+00  0.27740811723E+02  0.27740811723E+02  0.00000000000E+00 0.  1.
         13   -1    0    0    0    0 -0.00000000000E+00 -0.00000000000E+00 -0.10000000000E+04  0.10000000000E+04  0.00000000000E+00 0.  1.
    9000005    2    1    2  501    0  0.22293840170E+00 -0.11687396377E+02 -0.95702991829E+03  0.10085424889E+04  0.31798591548E+03 0.  0.
         13    1    3    3    0    0  0.44737293858E+02  0.10939480704E+03 -0.78322687757E+03  0.79209405440E+03  0.00000000000E+00 0.  1.
          3    1    3    3  501    0 -0.44514355457E+02 -0.12108220341E+03 -0.17380304072E+03  0.21644843448E+03  0.00000000000E+00 0.  1.
         21    1    1    2  502  501 -0.22293840170E+00  0.11687396377E+02 -0.15229269983E+02  0.19198322839E+02  0.00000000000E+00 0.  1.
<mgrwt>
<rscale>  1 0.30000000E+03</rscale>
<asrwt>0</asrwt>
<pdfrwt beam="1">  1        1 0.10087589E+00 0.30000000E+03</pdfrwt>
<pdfrwt beam="2">0</pdfrwt>
<totfact> 0.33792719E+01</totfact>
</mgrwt>
</event>
<event>
 6    1  0.1950139E-004  0.3000000E+03  0.7818608E-02  0.1093470E+00
          1   -1    0    0  502    0  0.00000000000E+00  0.00000000000E+00  0.35206839106E+02  0.35206839106E+02  0.00000000000E+00 0.  1.
         13   -1    0    0    0    0 -0.00000000000E+00 -0.00000000000E+00 -0.10000000000E+04  0.10000000000E+04  0.00000000000E+00 0.  1.
    9000005    2    1    2  501    0 -0.10674644323E+02  0.10483181717E+02 -0.96796535557E+03  0.10199127896E+04  0.32100050426E+03 0.  0.
         13    1    3    3    0    0 -0.31382865443E+02  0.11972250203E+03 -0.15020062894E+03  0.19462422940E+03  0.00000000000E+00 0.  1.
          1    1    3    3  501    0  0.20708221120E+02 -0.10923932031E+03 -0.81776472663E+03  0.82528856023E+03  0.00000000000E+00 0.  1.
         21    1    1    2  502  501  0.10674644323E+02 -0.10483181717E+02  0.31721946772E+01  0.15294049477E+02  0.00000000000E+00 0. -1.
<mgrwt>
<rscale>  1 0.30000000E+03</rscale>
<asrwt>0</asrwt>
<pdfrwt beam="1">  1        1 0.12802514E+00 0.30000000E+03</pdfrwt>
<pdfrwt beam="2">0</pdfrwt>
<totfact> 0.23455474E+01</totfact>
</mgrwt>
</event>
<event>
 6    1  0.1950139E-004  0.3000000E+03  0.7818608E-02  0.1093470E+00
          1   -1    0    0  502    0  0.00000000000E+00  0.00000000000E+00  0.39428929285E+02  0.39428929285E+02  0.00000000000E+00 0.  1.
         13   -1    0    0    0    0 -0.00000000000E+00 -0.00000000000E+00 -0.10000000000E+04  0.10000000000E+04  0.00000000000E+00 0.  1.
    9000005    2    1    2  501    0 -0.11790156099E+02 -0.17623968427E+01 -0.95314530724E+03  0.10253841514E+04  0.37786845244E+03 0.  0.
         13    1    3    3    0    0 -0.15165453569E+03 -0.11431409894E+03 -0.59816273497E+03  0.62758702099E+03  0.00000000000E+00 0.  1.
          3    1    3    3  501    0  0.13986437959E+03  0.11255170209E+03 -0.35498257227E+03  0.39779713037E+03  0.00000000000E+00 0.  1.
         21    1    1    2  502  501  0.11790156099E+02  0.17623968427E+01 -0.74257634796E+01  0.14044777917E+02  0.00000000000E+00 0. -1.
<mgrwt>
<rscale>  1 0.30000000E+03</rscale>
<asrwt>0</asrwt>
<pdfrwt beam="1">  1        1 0.14337823E+00 0.30000000E+03</pdfrwt>
<pdfrwt beam="2">0</pdfrwt>
<totfact> 0.19427932E+01</totfact>
</mgrwt>
</event>
<event>
 6    1  0.1950139E-004  0.3000000E+03  0.7818608E-02  0.1093470E+00
          1   -1    0    0  502    0  0.00000000000E+00  0.00000000000E+00  0.45705310309E+02  0.45705310309E+02  0.00000000000E+00 0.  1.
         13   -1    0    0    0    0 -0.00000000000E+00 -0.00000000000E+00 -0.10000000000E+04  0.10000000000E+04  0.00000000000E+00 0.  1.
    9000005    2    1    2  501    0 -0.20446535108E+02 -0.89599563489E+01 -0.96458300822E+03  0.10211250110E+04  0.33433152218E+03 0.  0.
         13    1    3    3    0    0  0.66035959350E+02  0.52294880984E+02 -0.45088054696E+02  0.95542844738E+02  0.00000000000E+00 0.  1.
          1    1    3    3  501    0 -0.86482494458E+02 -0.61254837333E+02 -0.91949495353E+03  0.92558216627E+03  0.00000000000E+00 0.  1.
         21    1    1    2  502  501  0.20446535108E+02  0.89599563489E+01  0.10288318534E+02  0.24580299306E+02  0.00000000000E+00 0.  1.
<mgrwt>
<rscale>  1 0.30000000E+03</rscale>
<asrwt>0</asrwt>
<pdfrwt beam="1">  1        1 0.16620148E+00 0.30000000E+03</pdfrwt>
<pdfrwt beam="2">0</pdfrwt>
<totfact> 0.14912946E+01</totfact>
</mgrwt>
</event>
<event>
 6    1  0.1950139E-004  0.3000000E+03  0.7818608E-02  0.1093470E+00
          1   -1    0    0  502    0  0.00000000000E+00  0.00000000000E+00  0.41825776819E+02  0.41825776819E+02  0.00000000000E+00 0.  1.
         13   -1    0    0    0    0 -0.00000000000E+00 -0.00000000000E+00 -0.10000000000E+04  0.10000000000E+04  0.00000000000E+00 0.  1.
    9000005    2    1    2  501    0  0.62696118551E+02  0.18137649684E+01 -0.67268595365E+03  0.74952859061E+03  0.32458068778E+03 0.  0.
         13    1    3    3    0    0  0.18562643255E+03 -0.40339279704E+02 -0.48829539764E+03  0.52394353255E+03  0.00000000000E+00 0.  1.
          1    1    3    3  501    0 -0.12293031400E+03  0.42153044672E+02 -0.18439055601E+03  0.22558505806E+03  0.00000000000E+00 0.  1.
         21    1    1    2  502  501 -0.62696118551E+02 -0.18137649684E+01 -0.28548826953E+03  0.29229718621E+03  0.00000000000E+00 0.  1.
<mgrwt>
<rscale>  1 0.30000000E+03</rscale>
<asrwt>0</asrwt>
<pdfrwt beam="1">  1        1 0.15209405E+00 0.30000000E+03</pdfrwt>
<pdfrwt beam="2">0</pdfrwt>
<totfact> 0.17531071E+01</totfact>
</mgrwt>
</event>
<event>
 6    1  0.1950139E-004  0.3000000E+03  0.7818608E-02  0.1093470E+00
          1   -1    0    0  502    0  0.00000000000E+00  0.00000000000E+00  0.10538621341E+03  0.10538621341E+03  0.00000000000E+00 0.  1.
         13   -1    0    0    0    0 -0.00000000000E+00 -0.00000000000E+00 -0.10000000000E+04  0.10000000000E+04  0.00000000000E+00 0.  1.
    9000005    2    1    2  501    0  0.20609713553E+02 -0.10980268036E+03 -0.92879104464E+03  0.98855525058E+03  0.31954231321E+03 0.  0.
         13    1    3    3    0    0 -0.14273180618E+03 -0.99169764349E+02 -0.51656582518E+03  0.54502042384E+03  0.00000000000E+00 0.  1.
          3    1    3    3  501    0  0.16334151973E+03 -0.10632916015E+02 -0.41222521946E+03  0.44353482674E+03  0.00000000000E+00 0.  1.
         21    1    1    2  502  501 -0.20609713553E+02  0.10980268036E+03  0.34177258053E+02  0.11683096283E+03  0.00000000000E+00 0.  1.
<mgrwt>
<rscale>  1 0.30000000E+03</rscale>
<asrwt>0</asrwt>
<pdfrwt beam="1">  1        1 0.38322340E+00 0.30000000E+03</pdfrwt>
<pdfrwt beam="2">0</pdfrwt>
<totfact> 0.13078664E+00</totfact>
</mgrwt>
</event>
<event>
 6    1  0.1950139E-004  0.3000000E+03  0.7818608E-02  0.1093470E+00
          1   -1    0    0  502    0  0.00000000000E+00  0.00000000000E+00  0.36680527126E+02  0.36680527126E+02  0.00000000000E+00 0.  1.
         13   -1    0    0    0    0 -0.00000000000E+00 -0.00000000000E+00 -0.10000000000E+04  0.10000000000E+04  0.00000000000E+00 0.  1.
    9000005    2    1    2  501    0  0.18230379429E+02 -0.12774107881E+02 -0.96136697766E+03  0.10143346818E+04  0.32272721666E+03 0.  0.
         13    1    3    3    0    0  0.16297441195E+03  0.21471326167E+02 -0.63042461824E+03  0.65150355032E+03  0.00000000000E+00 0.  1.
          1    1    3    3  501    0 -0.14474403252E+03 -0.34245434048E+02 -0.33094235942E+03  0.36283113147E+03  0.00000000000E+00 0.  1.
         21    1    1    2  502  501 -0.18230379429E+02  0.12774107881E+02 -0.19524952112E+01  0.22345845337E+02  0.00000000000E+00 0.  1.
<mgrwt>
<rscale>  1 0.30000000E+03</rscale>
<asrwt>0</asrwt>
<pdfrwt beam="1">  1        1 0.13338402E+00 0.30000000E+03</pdfrwt>
<pdfrwt beam="2">0</pdfrwt>
<totfact> 0.21935390E+01</totfact>
</mgrwt>
</event>
<event>
 6    1  0.1950139E-004  0.3000000E+03  0.7818608E-02  0.1093470E+00
          1   -1    0    0  502    0  0.00000000000E+00  0.00000000000E+00  0.46225022295E+02  0.46225022295E+02  0.00000000000E+00 0.  1.
         13   -1    0    0    0    0 -0.00000000000E+00 -0.00000000000E+00 -0.10000000000E+04  0.10000000000E+04  0.00000000000E+00 0.  1.
    9000005    2    1    2  501    0 -0.94486379054E+01 -0.24306147074E+02 -0.96396011527E+03  0.10182285480E+04  0.32694067756E+03 0.  0.
         13    1    3    3    0    0  0.23022533412E+02 -0.12846936044E+03 -0.15808359075E+03  0.20499959825E+03  0.00000000000E+00 0.  1.
          1    1    3    3  501    0 -0.32471171317E+02  0.10416321337E+03 -0.80587652452E+03  0.81322894978E+03  0.00000000000E+00 0.  1.
         21    1    1    2  502  501  0.94486379054E+01  0.24306147074E+02  0.10185137569E+02  0.27996474263E+02  0.00000000000E+00 0.  1.
<mgrwt>
<rscale>  1 0.30000000E+03</rscale>
<asrwt>0</asrwt>
<pdfrwt beam="1">  1        1 0.16809134E+00 0.30000000E+03</pdfrwt>
<pdfrwt beam="2">0</pdfrwt>
<totfact> 0.14597823E+01</totfact>
</mgrwt>
</event>
<event>
 6    1  0.1950139E-004  0.3000000E+03  0.7818608E-02  0.1093470E+00
          1   -1    0    0  502    0  0.00000000000E+00  0.00000000000E+00  0.33596909326E+02  0.33596909326E+02  0.00000000000E+00 0.  1.
         13   -1    0    0    0    0 -0.00000000000E+00 -0.00000000000E+00 -0.10000000000E+04  0.10000000000E+04  0.00000000000E+00 0.  1.
    9000005    2    1    2  501    0  0.18738011082E+02  0.25385497330E+01 -0.95530675279E+03  0.10116723567E+04  0.33243406573E+03 0.  0.
         13    1    3    3    0    0  0.16436986875E+03  0.47853036346E+02 -0.62196601365E+03  0.64509618583E+03  0.00000000000E+00 0.  1.
          1    1    3    3  501    0 -0.14563185767E+03 -0.45314486613E+02 -0.33334073914E+03  0.36657617086E+03  0.00000000000E+00 0.  1.
         21    1    1    2  502  501 -0.18738011082E+02 -0.25385497330E+01 -0.11096337880E+02  0.21924552638E+02  0.00000000000E+00 0. -1.
<mgrwt>
<rscale>  1 0.30000000E+03</rscale>
<asrwt>0</asrwt>
<pdfrwt beam="1">  1        1 0.12217084E+00 0.30000000E+03</pdfrwt>
<pdfrwt beam="2">0</pdfrwt>
<totfact> 0.25274914E+01</totfact>
</mgrwt>
</event>
<event>
 6    1  0.1950139E-004  0.3000000E+03  0.7818608E-02  0.1093470E+00
          1   -1    0    0  502    0  0.00000000000E+00  0.00000000000E+00  0.36779826576E+02  0.36779826576E+02  0.00000000000E+00 0.  1.
         13   -1    0    0    0    0 -0.00000000000E+00 -0.00000000000E+00 -0.10000000000E+04  0.10000000000E+04  0.00000000000E+00 0.  1.
    9000005    2    1    2  501    0 -0.11632696839E+02 -0.40983907244E+02 -0.90500582111E+03  0.96464168753E+03  0.33118431244E+03 0.  0.
         13    1    3    3    0    0  0.25575958635E+02 -0.17965375568E+03 -0.39274892837E+03  0.43264456812E+03  0.00000000000E+00 0.  1.
          3    1    3    3  501    0 -0.37208655474E+02  0.13866984843E+03 -0.51225689273E+03  0.53199711941E+03  0.00000000000E+00 0.  1.
         21    1    1    2  502  501  0.11632696839E+02  0.40983907244E+02 -0.58214352317E+02  0.72138139041E+02  0.00000000000E+00 0. -1.
<mgrwt>
<rscale>  1 0.30000000E+03</rscale>
<asrwt>0</asrwt>
<pdfrwt beam="1">  1        1 0.13374511E+00 0.30000000E+03</pdfrwt>
<pdfrwt beam="2">0</pdfrwt>
<totfact> 0.21837668E+01</totfact>
</mgrwt>
</event>
<event>
 6    1  0.1950139E-004  0.3000000E+03  0.7818608E-02  0.1093470E+00
          1   -1    0    0  502    0  0.00000000000E+00  0.00000000000E+00  0.28131073981E+02  0.28131073981E+02  0.00000000000E+00 0.  1.
         13   -1    0    0    0    0 -0.00000000000E+00 -0.00000000000E+00 -0.10000000000E+04  0.10000000000E+04  0.00000000000E+00 0.  1.
    9000005    2    1    2  501    0 -0.10025597191E+02 -0.48346469075E+01 -0.95686130670E+03  0.10094464534E+04  0.32136380560E+03 0.  0.
         13    1    3    3    0    0  0.33284319728E+01 -0.98443971388E+02 -0.78350113885E+02  0.12586117077E+03  0.00000000000E+00 0.  1.
          1    1    3    3  501    0 -0.13354029164E+02  0.93609324481E+02 -0.87851119281E+03  0.88358528260E+03  0.00000000000E+00 0.  1.
         21    1    1    2  502  501  0.10025597191E+02  0.48346469075E+01 -0.15007619322E+02  0.18684620613E+02  0.00000000000E+00 0.  1.
<mgrwt>
<rscale>  1 0.30000000E+03</rscale>
<asrwt>0</asrwt>
<pdfrwt beam="1">  1        1 0.10229503E+00 0.30000000E+03</pdfrwt>
<pdfrwt beam="2">0</pdfrwt>
<totfact> 0.33106153E+01</totfact>
</mgrwt>
</event>
<event>
 6    1  0.1950139E-004  0.3000000E+03  0.7818608E-02  0.1093470E+00
          1   -1    0    0  502    0  0.00000000000E+00  0.00000000000E+00  0.44790392128E+02  0.44790392128E+02  0.00000000000E+00 0.  1.
         13   -1    0    0    0    0 -0.00000000000E+00 -0.00000000000E+00 -0.10000000000E+04  0.10000000000E+04  0.00000000000E+00 0.  1.
    9000005    2    1    2  501    0 -0.18875523042E+02 -0.17643163488E+02 -0.96395826043E+03  0.10175120947E+04  0.32472722164E+03 0.  0.
         13    1    3    3    0    0  0.17994472095E+02 -0.15237174394E+03 -0.27850882601E+03  0.31797502346E+03  0.00000000000E+00 0.  1.
          1    1    3    3  501    0 -0.36869995137E+02  0.13472858045E+03 -0.68544943442E+03  0.69953707127E+03  0.00000000000E+00 0.  1.
         21    1    1    2  502  501  0.18875523042E+02  0.17643163488E+02  0.87486525529E+01  0.27278297407E+02  0.00000000000E+00 0.  1.
<mgrwt>
<rscale>  1 0.30000000E+03</rscale>
<asrwt>0</asrwt>
<pdfrwt beam="1">  1        1 0.16287450E+00 0.30000000E+03</pdfrwt>
<pdfrwt beam="2">0</pdfrwt>
<totfact> 0.15486746E+01</totfact>
</mgrwt>
</event>
<event>
 6    1  0.1950139E-004  0.3000000E+03  0.7818608E-02  0.1093470E+00
          1   -1    0    0  502    0  0.00000000000E+00  0.00000000000E+00  0.32161361698E+02  0.32161361698E+02  0.00000000000E+00 0.  1.
         13   -1    0    0    0    0 -0.00000000000E+00 -0.00000000000E+00 -0.10000000000E+04  0.10000000000E+04  0.00000000000E+00 0.  1.
    9000005    2    1    2  501    0  0.37180426032E+02 -0.42225184975E+02 -0.84552562551E+03  0.89752918343E+03  0.29576967626E+03 0.  0.
         13    1    3    3    0    0 -0.59751531489E+02  0.88382314288E+02 -0.15539910884E+03  0.18849552255E+03  0.00000000000E+00 0.  1.
          3    1    3    3  501    0  0.96931957521E+02 -0.13060749926E+03 -0.69012651666E+03  0.70903366087E+03  0.00000000000E+00 0.  1.
         21    1    1    2  502  501 -0.37180426032E+02  0.42225184975E+02 -0.12231301280E+03  0.13463217827E+03  0.00000000000E+00 0.  1.
<mgrwt>
<rscale>  1 0.30000000E+03</rscale>
<asrwt>0</asrwt>
<pdfrwt beam="1">  1        1 0.11695065E+00 0.30000000E+03</pdfrwt>
<pdfrwt beam="2">0</pdfrwt>
<totfact> 0.27056422E+01</totfact>
</mgrwt>
</event>
<event>
 6    1  0.1950139E-004  0.3000000E+03  0.7818608E-02  0.1093470E+00
          1   -1    0    0  502    0  0.00000000000E+00  0.00000000000E+00  0.50396903286E+02  0.50396903286E+02  0.00000000000E+00 0.  1.
         13   -1    0    0    0    0 -0.00000000000E+00 -0.00000000000E+00 -0.10000000000E+04  0.10000000000E+04  0.00000000000E+00 0.  1.
    9000005    2    1    2  501    0  0.30048092375E+02  0.50645401760E+01 -0.96142460989E+03  0.10177122647E+04  0.33237393984E+03 0.  0.
         13    1    3    3    0    0  0.10421373346E+03  0.10451546960E+03 -0.80320904779E+03  0.81665706394E+03  0.00000000000E+00 0.  1.
          3    1    3    3  501    0 -0.74165641081E+02 -0.99450929426E+02 -0.15821556210E+03  0.20105520081E+03  0.00000000000E+00 0.  1.
         21    1    1    2  502  501 -0.30048092375E+02 -0.50645401760E+01  0.11821513180E+02  0.32684638539E+02  0.00000000000E+00 0. -1.
<mgrwt>
<rscale>  1 0.30000000E+03</rscale>
<asrwt>0</asrwt>
<pdfrwt beam="1">  1        1 0.18326185E+00 0.30000000E+03</pdfrwt>
<pdfrwt beam="2">0</pdfrwt>
<totfact> 0.12319492E+01</totfact>
</mgrwt>
</event>
<event>
 6    1  0.1950139E-004  0.3000000E+03  0.7818608E-02  0.1093470E+00
          1   -1    0    0  502    0  0.00000000000E+00  0.00000000000E+00  0.64737286649E+02  0.64737286649E+02  0.00000000000E+00 0.  1.
         13   -1    0    0    0    0 -0.00000000000E+00 -0.00000000000E+00 -0.10000000000E+04  0.10000000000E+04  0.00000000000E+00 0.  1.
    9000005    2    1    2  501    0  0.12600848170E+03  0.93324759111E+02 -0.59716373025E+03  0.69204630138E+03  0.31262743707E+03 0.  0.
         13    1    3    3    0    0  0.22335315510E+03  0.10347451044E+03 -0.47953898676E+03  0.53902805681E+03  0.00000000000E+00 0.  1.
          3    1    3    3  501    0 -0.97344673400E+02 -0.10149751328E+02 -0.11762474349E+03  0.15301824457E+03  0.00000000000E+00 0.  1.
         21    1    1    2  502  501 -0.12600848170E+03 -0.93324759111E+02 -0.33809898311E+03  0.37269098527E+03  0.00000000000E+00 0.  1.
<mgrwt>
<rscale>  1 0.30000000E+03</rscale>
<asrwt>0</asrwt>
<pdfrwt beam="1">  1        1 0.23540881E+00 0.30000000E+03</pdfrwt>
<pdfrwt beam="2">0</pdfrwt>
<totfact> 0.69813777E+00</totfact>
</mgrwt>
</event>
<event>
 6    1  0.1950139E-004  0.3000000E+03  0.7818608E-02  0.1093470E+00
          1   -1    0    0  502    0  0.00000000000E+00  0.00000000000E+00  0.32428931809E+02  0.32428931809E+02  0.00000000000E+00 0.  1.
         13   -1    0    0    0    0 -0.00000000000E+00 -0.00000000000E+00 -0.10000000000E+04  0.10000000000E+04  0.00000000000E+00 0.  1.
    9000005    2    1    2  501    0  0.31474212707E+02  0.97957309981E+01 -0.90698631773E+03  0.96345723907E+03  0.32332505091E+03 0.  0.
         13    1    3    3    0    0 -0.25868048092E+02 -0.13011947108E+02 -0.90098976854E+03  0.90145495156E+03  0.00000000000E+00 0.  1.
          3    1    3    3  501    0  0.57342260799E+02  0.22807678106E+02 -0.59965491937E+01  0.62002287509E+02  0.00000000000E+00 0.  1.
         21    1    1    2  502  501 -0.31474212707E+02 -0.97957309981E+01 -0.60584750461E+02  0.68971692742E+02  0.00000000000E+00 0.  1.
<mgrwt>
<rscale>  1 0.30000000E+03</rscale>
<asrwt>0</asrwt>
<pdfrwt beam="1">  1        1 0.11792364E+00 0.30000000E+03</pdfrwt>
<pdfrwt beam="2">0</pdfrwt>
<totfact> 0.26711773E+01</totfact>
</mgrwt>
</event>
<event>
 6    1  0.1950139E-004  0.3000000E+03  0.7818608E-02  0.1093470E+00
          1   -1    0    0  502    0  0.00000000000E+00  0.00000000000E+00  0.92499346552E+02  0.92499346552E+02  0.00000000000E+00 0.  1.
         13   -1    0    0    0    0 -0.00000000000E+00 -0.00000000000E+00 -0.10000000000E+04  0.10000000000E+04  0.00000000000E+00 0.  1.
    9000005    2    1    2  501    0  0.17734454501E+02 -0.24943320608E+02 -0.96317950293E+03  0.10289634166E+04  0.36071356733E+03 0.  0.
         13    1    3    3    0    0  0.64985958391E+02 -0.79525431565E+02 -0.95005094995E+03  0.95558582898E+03  0.00000000000E+00 0.  1.
          1    1    3    3  501    0 -0.47251503891E+02  0.54582110957E+02 -0.13128552979E+02  0.73377587585E+02  0.00000000000E+00 0.  1.
         21    1    1    2  502  501 -0.17734454501E+02  0.24943320608E+02  0.55678849480E+02  0.63535929983E+02  0.00000000000E+00 0.  1.
<mgrwt>
<rscale>  1 0.30000000E+03</rscale>
<asrwt>0</asrwt>
<pdfrwt beam="1">  1        1 0.33636197E+00 0.30000000E+03</pdfrwt>
<pdfrwt beam="2">0</pdfrwt>
<totfact> 0.23102494E+00</totfact>
</mgrwt>
</event>
<event>
 6    1  0.1950139E-004  0.3000000E+03  0.7818608E-02  0.1093470E+00
          1   -1    0    0  502    0  0.00000000000E+00  0.00000000000E+00  0.32497943785E+02  0.32497943785E+02  0.00000000000E+00 0.  1.
         13   -1    0    0    0    0 -0.00000000000E+00 -0.00000000000E+00 -0.10000000000E+04  0.10000000000E+04  0.00000000000E+00 0.  1.
    9000005    2    1    2  501    0  0.14245276936E+02 -0.14019847183E+02 -0.94215208498E+03  0.10002162915E+04  0.33523513331E+03 0.  0.
         13    1    3    3    0    0 -0.10885010388E+03 -0.10960588494E+03 -0.66047251900E+03  0.67829620630E+03  0.00000000000E+00 0.  1.
          3    1    3    3  501    0  0.12309538081E+03  0.95586037754E+02 -0.28167956598E+03  0.32192008524E+03  0.00000000000E+00 0.  1.
         21    1    1    2  502  501 -0.14245276936E+02  0.14019847183E+02 -0.25349971236E+02  0.32281652245E+02  0.00000000000E+00 0.  1.
<mgrwt>
<rscale>  1 0.30000000E+03</rscale>
<asrwt>0</asrwt>
<pdfrwt beam="1">  1        1 0.11817459E+00 0.30000000E+03</pdfrwt>
<pdfrwt beam="2">0</pdfrwt>
<totfact> 0.26623857E+01</totfact>
</mgrwt>
</event>
<event>
 6    1  0.1950139E-004  0.3000000E+03  0.7818608E-02  0.1093470E+00
          1   -1    0    0  502    0  0.00000000000E+00  0.00000000000E+00  0.25973153814E+02  0.25973153814E+02  0.00000000000E+00 0.  1.
         13   -1    0    0    0    0 -0.00000000000E+00 -0.00000000000E+00 -0.10000000000E+04  0.10000000000E+04  0.00000000000E+00 0.  1.
    9000005    2    1    2  501    0 -0.11877592526E+02 -0.71824674016E+01 -0.94297447675E+03  0.99195970515E+03  0.30755573121E+03 0.  0.
         13    1    3    3    0    0  0.13007172657E+03  0.53535972893E+02 -0.30983728938E+03  0.34027033420E+03  0.00000000000E+00 0.  1.
          1    1    3    3  501    0 -0.14194931909E+03 -0.60718440294E+02 -0.63313718737E+03  0.65168937095E+03  0.00000000000E+00 0.  1.
         21    1    1    2  502  501  0.11877592526E+02  0.71824674016E+01 -0.31052369435E+02  0.34013448659E+02  0.00000000000E+00 0. -1.
<mgrwt>
<rscale>  1 0.30000000E+03</rscale>
<asrwt>0</asrwt>
<pdfrwt beam="1">  1        1 0.94448031E-01 0.30000000E+03</pdfrwt>
<pdfrwt beam="2">0</pdfrwt>
<totfact> 0.37181449E+01</totfact>
</mgrwt>
</event>
<event>
 6    1  0.1950139E-004  0.3000000E+03  0.7818608E-02  0.1093470E+00
          1   -1    0    0  502    0  0.00000000000E+00  0.00000000000E+00  0.35702638849E+02  0.35702638849E+02  0.00000000000E+00 0.  1.
         13   -1    0    0    0    0 -0.00000000000E+00 -0.00000000000E+00 -0.10000000000E+04  0.10000000000E+04  0.00000000000E+00 0.  1.
    9000005    2    1    2  501    0  0.26135875763E+02 -0.31880256389E+02 -0.90409239624E+03  0.96273639632E+03  0.32829692826E+03 0.  0.
         13    1    3    3    0    0  0.67439524055E+02  0.12496969519E+03 -0.61567835613E+03  0.63184282249E+03  0.00000000000E+00 0.  1.
          1    1    3    3  501    0 -0.41303648292E+02 -0.15684995157E+03 -0.28841404011E+03  0.33089357383E+03  0.00000000000E+00 0.  1.
         21    1    1    2  502  501 -0.26135875763E+02  0.31880256389E+02 -0.60204964913E+02  0.72966242533E+02  0.00000000000E+00 0. -1.
<mgrwt>
<rscale>  1 0.30000000E+03</rscale>
<asrwt>0</asrwt>
<pdfrwt beam="1">  1        1 0.12982805E+00 0.30000000E+03</pdfrwt>
<pdfrwt beam="2">0</pdfrwt>
<totfact> 0.22929172E+01</totfact>
</mgrwt>
</event>
<event>
 6    1  0.1950139E-004  0.3000000E+03  0.7818608E-02  0.1093470E+00
          1   -1    0    0  502    0  0.00000000000E+00  0.00000000000E+00  0.34248459553E+02  0.34248459553E+02  0.00000000000E+00 0.  1.
         13   -1    0    0    0    0 -0.00000000000E+00 -0.00000000000E+00 -0.10000000000E+04  0.10000000000E+04  0.00000000000E+00 0.  1.
    9000005    2    1    2  501    0  0.75376264117E+01 -0.11173228776E+02 -0.96083165570E+03  0.10199005636E+04  0.34178653005E+03 0.  0.
         13    1    3    3    0    0  0.63272126136E+02  0.14613764867E+03 -0.31648475493E+03  0.35429108711E+03  0.00000000000E+00 0.  1.
          3    1    3    3  501    0 -0.55734499725E+02 -0.15731087744E+03 -0.64434690077E+03  0.66560947646E+03  0.00000000000E+00 0.  1.
         21    1    1    2  502  501 -0.75376264117E+01  0.11173228776E+02 -0.49198847467E+01  0.14347895983E+02  0.00000000000E+00 0. -1.
<mgrwt>
<rscale>  1 0.30000000E+03</rscale>
<asrwt>0</asrwt>
<pdfrwt beam="1">  1        1 0.12454012E+00 0.30000000E+03</pdfrwt>
<pdfrwt beam="2">0</pdfrwt>
<totfact> 0.24517553E+01</totfact>
</mgrwt>
</event>
<event>
 6    1  0.1950139E-004  0.3000000E+03  0.7818608E-02  0.1093470E+00
          1   -1    0    0  502    0  0.00000000000E+00  0.00000000000E+00  0.35092934353E+02  0.35092934353E+02  0.00000000000E+00 0.  1.
         13   -1    0    0    0    0 -0.00000000000E+00 -0.00000000000E+00 -0.10000000000E+04  0.10000000000E+04  0.00000000000E+00 0.  1.
    9000005    2    1    2  501    0 -0.43793735614E+02 -0.21581625902E+02 -0.78808940790E+03  0.85165863563E+03  0.31914551375E+03 0.  0.
         13    1    3    3    0    0 -0.98805136588E+01  0.14659349004E+03 -0.29474990150E+03  0.32933991606E+03  0.00000000000E+00 0.  1.
          3    1    3    3  501    0 -0.33913221955E+02 -0.16817511594E+03 -0.49333950639E+03  0.52231871957E+03  0.00000000000E+00 0.  1.
         21    1    1    2  502  501  0.43793735614E+02  0.21581625902E+02 -0.17681765775E+03  0.18343429872E+03  0.00000000000E+00 0. -1.
<mgrwt>
<rscale>  1 0.30000000E+03</rscale>
<asrwt>0</asrwt>
<pdfrwt beam="1">  1        1 0.12761094E+00 0.30000000E+03</pdfrwt>
<pdfrwt beam="2">0</pdfrwt>
<totfact> 0.23578582E+01</totfact>
</mgrwt>
</event>
<event>
 6    1  0.1950139E-004  0.3000000E+03  0.7818608E-02  0.1093470E+00
          1   -1    0    0  502    0  0.00000000000E+00  0.00000000000E+00  0.29348376309E+02  0.29348376309E+02  0.00000000000E+00 0.  1.
         13   -1    0    0    0    0 -0.00000000000E+00 -0.00000000000E+00 -0.10000000000E+04  0.10000000000E+04  0.00000000000E+00 0.  1.
    9000005    2    1    2  501    0  0.87804524755E+01  0.47928749251E+01 -0.96064840656E+03  0.10152015622E+04  0.32815969119E+03 0.  0.
         13    1    3    3    0    0 -0.86111214450E+02 -0.50533775309E+01 -0.50271013407E+02  0.99839133948E+02  0.00000000000E+00 0.  1.
          1    1    3    3  501    0  0.94891666925E+02  0.98462524560E+01 -0.91037739315E+03  0.91536242828E+03  0.00000000000E+00 0.  1.
         21    1    1    2  502  501 -0.87804524755E+01 -0.47928749251E+01 -0.10003217132E+02  0.14146814083E+02  0.00000000000E+00 0.  1.
<mgrwt>
<rscale>  1 0.30000000E+03</rscale>
<asrwt>0</asrwt>
<pdfrwt beam="1">  1        1 0.10672159E+00 0.30000000E+03</pdfrwt>
<pdfrwt beam="2">0</pdfrwt>
<totfact> 0.31090486E+01</totfact>
</mgrwt>
</event>
<event>
 6    1  0.1950139E-004  0.3000000E+03  0.7818608E-02  0.1093470E+00
          1   -1    0    0  502    0  0.00000000000E+00  0.00000000000E+00  0.60081036458E+02  0.60081036458E+02  0.00000000000E+00 0.  1.
         13   -1    0    0    0    0 -0.00000000000E+00 -0.00000000000E+00 -0.10000000000E+04  0.10000000000E+04  0.00000000000E+00 0.  1.
    9000005    2    1    2  501    0  0.44657170654E+02  0.51123110173E+01 -0.95807314918E+03  0.10116045156E+04  0.32158846102E+03 0.  0.
         13    1    3    3    0    0 -0.82641417568E+02 -0.46421815685E+02 -0.83518822858E+02  0.12633282487E+03  0.00000000000E+00 0.  1.
          1    1    3    3  501    0  0.12729858822E+03  0.51534126702E+02 -0.87455432632E+03  0.88527169076E+03  0.00000000000E+00 0.  1.
         21    1    1    2  502  501 -0.44657170654E+02 -0.51123110173E+01  0.18154185637E+02  0.48476520821E+02  0.00000000000E+00 0. -1.
<mgrwt>
<rscale>  1 0.30000000E+03</rscale>
<asrwt>0</asrwt>
<pdfrwt beam="1">  1        1 0.21847696E+00 0.30000000E+03</pdfrwt>
<pdfrwt beam="2">0</pdfrwt>
<totfact> 0.83799646E+00</totfact>
</mgrwt>
</event>
<event>
 6    1  0.1950139E-004  0.3000000E+03  0.7818608E-02  0.1093470E+00
          1   -1    0    0  502    0  0.00000000000E+00  0.00000000000E+00  0.16115066254E+02  0.16115066254E+02  0.00000000000E+00 0.  1.
         13   -1    0    0    0    0 -0.00000000000E+00 -0.00000000000E+00 -0.10000000000E+04  0.10000000000E+04  0.00000000000E+00 0.  1.
    9000005    2    1    2  501    0  0.80424305802E+01  0.93740173560E+01 -0.94065528328E+03  0.97115557816E+03  0.24116020012E+03 0.  0.
         13    1    3    3    0    0 -0.81846181259E+02  0.56379911461E+01 -0.79995676433E+03  0.80415260313E+03  0.00000000000E+00 0.  1.
          1    1    3    3  501    0  0.89888611839E+02  0.37360262099E+01 -0.14069851896E+03  0.16700297502E+03  0.00000000000E+00 0.  1.
         21    1    1    2  502  501 -0.80424305802E+01 -0.93740173560E+01 -0.43229650461E+02  0.44959488098E+02  0.00000000000E+00 0.  1.
<mgrwt>
<rscale>  1 0.30000000E+03</rscale>
<asrwt>0</asrwt>
<pdfrwt beam="1">  1        1 0.58600364E-01 0.30000000E+03</pdfrwt>
<pdfrwt beam="2">0</pdfrwt>
<totfact> 0.71552429E+01</totfact>
</mgrwt>
</event>
<event>
 6    1  0.1950139E-004  0.3000000E+03  0.7818608E-02  0.1093470E+00
          1   -1    0    0  502    0  0.00000000000E+00  0.00000000000E+00  0.38976398041E+02  0.38976398041E+02  0.00000000000E+00 0.  1.
         13   -1    0    0    0    0 -0.00000000000E+00 -0.00000000000E+00 -0.10000000000E+04  0.10000000000E+04  0.00000000000E+00 0.  1.
    9000005    2    1    2  501    0 -0.13323321042E+02 -0.32781459229E+02 -0.94543510714E+03  0.10003094079E+04  0.32483724362E+03 0.  0.
         13    1    3    3    0    0 -0.11039412028E+03  0.26336045602E+02 -0.11301143466E+03  0.16016252201E+03  0.00000000000E+00 0.  1.
          1    1    3    3  501    0  0.97070799240E+02 -0.59117504831E+02 -0.83242367248E+03  0.84014688593E+03  0.00000000000E+00 0.  1.
         21    1    1    2  502  501  0.13323321042E+02  0.32781459229E+02 -0.15588494816E+02  0.38666990100E+02  0.00000000000E+00 0. -1.
<mgrwt>
<rscale>  1 0.30000000E+03</rscale>
<asrwt>0</asrwt>
<pdfrwt beam="1">  1        1 0.14173266E+00 0.30000000E+03</pdfrwt>
<pdfrwt beam="2">0</pdfrwt>
<totfact> 0.19814545E+01</totfact>
</mgrwt>
</event>
<event>
 6    1  0.1950139E-004  0.3000000E+03  0.7818608E-02  0.1093470E+00
          1   -1    0    0  502    0  0.00000000000E+00  0.00000000000E+00  0.38882634342E+02  0.38882634342E+02  0.00000000000E+00 0.  1.
         13   -1    0    0    0    0 -0.00000000000E+00 -0.00000000000E+00 -0.10000000000E+04  0.10000000000E+04  0.00000000000E+00 0.  1.
    9000005    2    1    2  501    0  0.23648634222E+02 -0.47722498065E+02 -0.89915318769E+03  0.95717428671E+03  0.32383555314E+03 0.  0.
         13    1    3    3    0    0  0.53797071634E+01 -0.17271751758E+03 -0.70252271168E+03  0.72346281353E+03  0.00000000000E+00 0.  1.
          1    1    3    3  501    0  0.18268927059E+02  0.12499501952E+03 -0.19663047601E+03  0.23371147318E+03  0.00000000000E+00 0.  1.
         21    1    1    2  502  501 -0.23648634222E+02  0.47722498065E+02 -0.61964177968E+02  0.81708347636E+02  0.00000000000E+00 0.  1.
<mgrwt>
<rscale>  1 0.30000000E+03</rscale>
<asrwt>0</asrwt>
<pdfrwt beam="1">  1        1 0.14139170E+00 0.30000000E+03</pdfrwt>
<pdfrwt beam="2">0</pdfrwt>
<totfact> 0.19895867E+01</totfact>
</mgrwt>
</event>
<event>
 6    1  0.1950139E-004  0.3000000E+03  0.7818608E-02  0.1093470E+00
          1   -1    0    0  502    0  0.00000000000E+00  0.00000000000E+00  0.53022292497E+02  0.53022292497E+02  0.00000000000E+00 0.  1.
         13   -1    0    0    0    0 -0.00000000000E+00 -0.00000000000E+00 -0.10000000000E+04  0.10000000000E+04  0.00000000000E+00 0.  1.
    9000005    2    1    2  501    0  0.25689962494E+02  0.21654110349E+02 -0.96299068597E+03  0.10158028064E+04  0.32152045890E+03 0.  0.
         13    1    3    3    0    0  0.64172457549E+02 -0.10749963060E+03 -0.77180587405E+03  0.78189422693E+03  0.00000000000E+00 0.  1.
          3    1    3    3  501    0 -0.38482495055E+02  0.12915374095E+03 -0.19118481192E+03  0.23390857944E+03  0.00000000000E+00 0.  1.
         21    1    1    2  502  501 -0.25689962494E+02 -0.21654110349E+02  0.16012978469E+02  0.37219486125E+02  0.00000000000E+00 0.  1.
<mgrwt>
<rscale>  1 0.30000000E+03</rscale>
<asrwt>0</asrwt>
<pdfrwt beam="1">  1        1 0.19280874E+00 0.30000000E+03</pdfrwt>
<pdfrwt beam="2">0</pdfrwt>
<totfact> 0.11084945E+01</totfact>
</mgrwt>
</event>
<event>
 6    1  0.1950139E-004  0.3000000E+03  0.7818608E-02  0.1093470E+00
          1   -1    0    0  502    0  0.00000000000E+00  0.00000000000E+00  0.32601322497E+02  0.32601322497E+02  0.00000000000E+00 0.  1.
         13   -1    0    0    0    0 -0.00000000000E+00 -0.00000000000E+00 -0.10000000000E+04  0.10000000000E+04  0.00000000000E+00 0.  1.
    9000005    2    1    2  501    0 -0.13890054286E+02  0.26472341687E+02 -0.91404192600E+03  0.97144037570E+03  0.32761264103E+03 0.  0.
         13    1    3    3    0    0  0.10356942605E+03  0.98580828280E+02 -0.21014442826E+03  0.25417609338E+03  0.00000000000E+00 0.  1.
          3    1    3    3  501    0 -0.11745948034E+03 -0.72108486593E+02 -0.70389749774E+03  0.71726428232E+03  0.00000000000E+00 0.  1.
         21    1    1    2  502  501  0.13890054286E+02 -0.26472341687E+02 -0.53356751502E+02  0.61160946798E+02  0.00000000000E+00 0.  1.
<mgrwt>
<rscale>  1 0.30000000E+03</rscale>
<asrwt>0</asrwt>
<pdfrwt beam="1">  1        1 0.11855051E+00 0.30000000E+03</pdfrwt>
<pdfrwt beam="2">0</pdfrwt>
<totfact> 0.26492896E+01</totfact>
</mgrwt>
</event>
<event>
 6    1  0.1950139E-004  0.3000000E+03  0.7818608E-02  0.1093470E+00
          1   -1    0    0  502    0  0.00000000000E+00  0.00000000000E+00  0.29168936601E+02  0.29168936601E+02  0.00000000000E+00 0.  1.
         13   -1    0    0    0    0 -0.00000000000E+00 -0.00000000000E+00 -0.10000000000E+04  0.10000000000E+04  0.00000000000E+00 0.  1.
    9000005    2    1    2  501    0 -0.53568488671E+01 -0.13443046868E+02 -0.96933599263E+03  0.10146208585E+04  0.29938905897E+03 0.  0.
         13    1    3    3    0    0  0.11362383095E+03 -0.49517913788E+02 -0.19991791218E+03  0.23522238489E+03  0.00000000000E+00 0.  1.
          3    1    3    3  501    0 -0.11898067981E+03  0.36074866919E+02 -0.76941808045E+03  0.77939847364E+03  0.00000000000E+00 0.  1.
         21    1    1    2  502  501  0.53568488671E+01  0.13443046868E+02 -0.14950707736E+01  0.14548078069E+02  0.00000000000E+00 0. -1.
<mgrwt>
<rscale>  1 0.30000000E+03</rscale>
<asrwt>0</asrwt>
<pdfrwt beam="1">  1        1 0.10606908E+00 0.30000000E+03</pdfrwt>
<pdfrwt beam="2">0</pdfrwt>
<totfact> 0.31376260E+01</totfact>
</mgrwt>
</event>
<event>
 6    1  0.1950139E-004  0.3000000E+03  0.7818608E-02  0.1093470E+00
          1   -1    0    0  502    0  0.00000000000E+00  0.00000000000E+00  0.40459780993E+02  0.40459780993E+02  0.00000000000E+00 0.  1.
         13   -1    0    0    0    0 -0.00000000000E+00 -0.00000000000E+00 -0.10000000000E+04  0.10000000000E+04  0.00000000000E+00 0.  1.
    9000005    2    1    2  501    0  0.26203037156E+02 -0.42443603032E+01 -0.95563617637E+03  0.10136296617E+04  0.33689757466E+03 0.  0.
         13    1    3    3    0    0 -0.76552593357E+02 -0.14364804847E+03 -0.40834308443E+03  0.43958973598E+03  0.00000000000E+00 0.  1.
          1    1    3    3  501    0  0.10275563051E+03  0.13940368816E+03 -0.54729309193E+03  0.57403992575E+03  0.00000000000E+00 0.  1.
         21    1    1    2  502  501 -0.26203037156E+02  0.42443603032E+01 -0.39040426420E+01  0.26830119260E+02  0.00000000000E+00 0.  1.
<mgrwt>
<rscale>  1 0.30000000E+03</rscale>
<asrwt>0</asrwt>
<pdfrwt beam="1">  1        1 0.14712679E+00 0.30000000E+03</pdfrwt>
<pdfrwt beam="2">0</pdfrwt>
<totfact> 0.18582161E+01</totfact>
</mgrwt>
</event>
<event>
 6    1  0.1950139E-004  0.3000000E+03  0.7818608E-02  0.1093470E+00
          1   -1    0    0  502    0  0.00000000000E+00  0.00000000000E+00  0.37858847381E+02  0.37858847381E+02  0.00000000000E+00 0.  1.
         13   -1    0    0    0    0 -0.00000000000E+00 -0.00000000000E+00 -0.10000000000E+04  0.10000000000E+04  0.00000000000E+00 0.  1.
    9000005    2    1    2  501    0 -0.23516572384E+02 -0.47416719110E+02 -0.89552909866E+03  0.95277923666E+03  0.32095877124E+03 0.  0.
         13    1    3    3    0    0  0.76417346604E+01 -0.12225524408E+03 -0.85201061544E+03  0.86077106692E+03  0.00000000000E+00 0.  1.
          1    1    3    3  501    0 -0.31158307044E+02  0.74838524972E+02 -0.43518483221E+02  0.92008169745E+02  0.00000000000E+00 0.  1.
         21    1    1    2  502  501  0.23516572384E+02  0.47416719110E+02 -0.66612053956E+02  0.85079610719E+02  0.00000000000E+00 0. -1.
<mgrwt>
<rscale>  1 0.30000000E+03</rscale>
<asrwt>0</asrwt>
<pdfrwt beam="1">  1        1 0.13766883E+00 0.30000000E+03</pdfrwt>
<pdfrwt beam="2">0</pdfrwt>
<totfact> 0.20812080E+01</totfact>
</mgrwt>
</event>
<event>
 6    1  0.1950139E-004  0.3000000E+03  0.7818608E-02  0.1093470E+00
          1   -1    0    0  502    0  0.00000000000E+00  0.00000000000E+00  0.28576039408E+02  0.28576039408E+02  0.00000000000E+00 0.  1.
         13   -1    0    0    0    0 -0.00000000000E+00 -0.00000000000E+00 -0.10000000000E+04  0.10000000000E+04  0.00000000000E+00 0.  1.
    9000005    2    1    2  501    0  0.80664765572E+01  0.76003590712E+01 -0.95587131043E+03  0.10094784367E+04  0.32439777829E+03 0.  0.
         13    1    3    3    0    0  0.92031376422E+02 -0.64514502504E+02 -0.11301987098E+03  0.15939067261E+03  0.00000000000E+00 0.  1.
          1    1    3    3  501    0 -0.83964899864E+02  0.72114861575E+02 -0.84285143945E+03  0.85008776409E+03  0.00000000000E+00 0.  1.
         21    1    1    2  502  501 -0.80664765572E+01 -0.76003590712E+01 -0.15552650163E+02  0.19097602707E+02  0.00000000000E+00 0. -1.
<mgrwt>
<rscale>  1 0.30000000E+03</rscale>
<asrwt>0</asrwt>
<pdfrwt beam="1">  1        1 0.10391309E+00 0.30000000E+03</pdfrwt>
<pdfrwt beam="2">0</pdfrwt>
<totfact> 0.32347947E+01</totfact>
</mgrwt>
</event>
<event>
 6    1  0.1950139E-004  0.3000000E+03  0.7818608E-02  0.1093470E+00
          1   -1    0    0  502    0  0.00000000000E+00  0.00000000000E+00  0.42652299917E+02  0.42652299917E+02  0.00000000000E+00 0.  1.
         13   -1    0    0    0    0 -0.00000000000E+00 -0.00000000000E+00 -0.10000000000E+04  0.10000000000E+04  0.00000000000E+00 0.  1.
    9000005    2    1    2  501    0  0.88878730108E+01 -0.31642036389E+02 -0.94909542468E+03  0.10087655355E+04  0.34021400281E+03 0.  0.
         13    1    3    3    0    0  0.16353604749E+03  0.42863590928E+02 -0.43092761534E+03  0.46290380849E+03  0.00000000000E+00 0.  1.
          3    1    3    3  501    0 -0.15464817448E+03 -0.74505627317E+02 -0.51816780934E+03  0.54586172700E+03  0.00000000000E+00 0.  1.
         21    1    1    2  502  501 -0.88878730108E+01  0.31642036389E+02 -0.82522754042E+01  0.33886764419E+02  0.00000000000E+00 0.  1.
<mgrwt>
<rscale>  1 0.30000000E+03</rscale>
<asrwt>0</asrwt>
<pdfrwt beam="1">  1        1 0.15509960E+00 0.30000000E+03</pdfrwt>
<pdfrwt beam="2">0</pdfrwt>
<totfact> 0.16930441E+01</totfact>
</mgrwt>
</event>
<event>
 6    1  0.1950139E-004  0.3000000E+03  0.7818608E-02  0.1093470E+00
          1   -1    0    0  502    0  0.00000000000E+00  0.00000000000E+00  0.29427286923E+02  0.29427286923E+02  0.00000000000E+00 0.  1.
         13   -1    0    0    0    0 -0.00000000000E+00 -0.00000000000E+00 -0.10000000000E+04  0.10000000000E+04  0.00000000000E+00 0.  1.
    9000005    2    1    2  501    0  0.13745954595E+02  0.11018933795E+02 -0.95262250898E+03  0.10042761836E+04  0.31744391666E+03 0.  0.
         13    1    3    3    0    0 -0.78451028724E+02 -0.12812692538E+03 -0.41634467190E+03  0.44262168806E+03  0.00000000000E+00 0.  1.
          1    1    3    3  501    0  0.92196983319E+02  0.13914585918E+03 -0.53627783708E+03  0.56165449558E+03  0.00000000000E+00 0.  1.
         21    1    1    2  502  501 -0.13745954595E+02 -0.11018933795E+02 -0.17950204093E+02  0.25151103289E+02  0.00000000000E+00 0. -1.
<mgrwt>
<rscale>  1 0.30000000E+03</rscale>
<asrwt>0</asrwt>
<pdfrwt beam="1">  1        1 0.10700854E+00 0.30000000E+03</pdfrwt>
<pdfrwt beam="2">0</pdfrwt>
<totfact> 0.30965999E+01</totfact>
</mgrwt>
</event>
<event>
 6    1  0.1950139E-004  0.3000000E+03  0.7818608E-02  0.1093470E+00
          1   -1    0    0  502    0  0.00000000000E+00  0.00000000000E+00  0.27963850911E+02  0.27963850911E+02  0.00000000000E+00 0.  1.
         13   -1    0    0    0    0 -0.00000000000E+00 -0.00000000000E+00 -0.10000000000E+04  0.10000000000E+04  0.00000000000E+00 0.  1.
    9000005    2    1    2  501    0 -0.20363410490E+01  0.20045893022E+02 -0.95667213792E+03  0.10026253949E+04  0.29938289628E+03 0.  0.
         13    1    3    3    0    0  0.56575050412E+02 -0.93762248331E+01 -0.15817930720E+02  0.59488291735E+02  0.00000000000E+00 0.  1.
          1    1    3    3  501    0 -0.58611391461E+02  0.29422117855E+02 -0.94085420720E+03  0.94313710321E+03  0.00000000000E+00 0.  1.
         21    1    1    2  502  501  0.20363410490E+01 -0.20045893022E+02 -0.15364011165E+02  0.25338455971E+02  0.00000000000E+00 0.  1.
<mgrwt>
<rscale>  1 0.30000000E+03</rscale>
<asrwt>0</asrwt>
<pdfrwt beam="1">  1        1 0.10168695E+00 0.30000000E+03</pdfrwt>
<pdfrwt beam="2">0</pdfrwt>
<totfact> 0.33397813E+01</totfact>
</mgrwt>
</event>
<event>
 6    1  0.1950139E-004  0.3000000E+03  0.7818608E-02  0.1093470E+00
          1   -1    0    0  502    0  0.00000000000E+00  0.00000000000E+00  0.62233501267E+02  0.62233501267E+02  0.00000000000E+00 0.  1.
         13   -1    0    0    0    0 -0.00000000000E+00 -0.00000000000E+00 -0.10000000000E+04  0.10000000000E+04  0.00000000000E+00 0.  1.
    9000005    2    1    2  501    0 -0.25885802149E+02  0.16269752791E+02 -0.96693975462E+03  0.10199740826E+04  0.32317156503E+03 0.  0.
         13    1    3    3    0    0 -0.38367222220E+02 -0.97857391889E+02 -0.98732592174E+02  0.14420900681E+03  0.00000000000E+00 0.  1.
          1    1    3    3  501    0  0.12481420071E+02  0.11412714468E+03 -0.86820716245E+03  0.87576507576E+03  0.00000000000E+00 0.  1.
         21    1    1    2  502  501  0.25885802149E+02 -0.16269752791E+02  0.29173255890E+02  0.42259418690E+02  0.00000000000E+00 0.  1.
<mgrwt>
<rscale>  1 0.30000000E+03</rscale>
<asrwt>0</asrwt>
<pdfrwt beam="1">  1        1 0.22630412E+00 0.30000000E+03</pdfrwt>
<pdfrwt beam="2">0</pdfrwt>
<totfact> 0.77012848E+00</totfact>
</mgrwt>
</event>
<event>
 6    1  0.1950139E-004  0.3000000E+03  0.7818608E-02  0.1093470E+00
          1   -1    0    0  502    0  0.00000000000E+00  0.00000000000E+00  0.46579540554E+02  0.46579540554E+02  0.00000000000E+00 0.  1.
         13   -1    0    0    0    0 -0.00000000000E+00 -0.00000000000E+00 -0.10000000000E+04  0.10000000000E+04  0.00000000000E+00 0.  1.
    9000005    2    1    2  501    0 -0.52173664266E+02 -0.48275504978E+02 -0.88076442537E+03  0.94493548066E+03  0.33482006211E+03 0.  0.
         13    1    3    3    0    0  0.26245861629E+02  0.52364286266E+02 -0.78042767806E+03  0.78262265774E+03  0.00000000000E+00 0.  1.
          3    1    3    3  501    0 -0.78419525895E+02 -0.10063979124E+03 -0.10033674731E+03  0.16231282292E+03  0.00000000000E+00 0.  1.
         21    1    1    2  502  501  0.52173664266E+02  0.48275504978E+02 -0.72656034075E+02  0.10164405989E+03  0.00000000000E+00 0.  1.
<mgrwt>
<rscale>  1 0.30000000E+03</rscale>
<asrwt>0</asrwt>
<pdfrwt beam="1">  1        1 0.16938050E+00 0.30000000E+03</pdfrwt>
<pdfrwt beam="2">0</pdfrwt>
<totfact> 0.14387190E+01</totfact>
</mgrwt>
</event>
<event>
 6    1  0.1950139E-004  0.3000000E+03  0.7818608E-02  0.1093470E+00
          1   -1    0    0  502    0  0.00000000000E+00  0.00000000000E+00  0.47533330522E+02  0.47533330522E+02  0.00000000000E+00 0.  1.
         13   -1    0    0    0    0 -0.00000000000E+00 -0.00000000000E+00 -0.10000000000E+04  0.10000000000E+04  0.00000000000E+00 0.  1.
    9000005    2    1    2  501    0 -0.24310009466E+02  0.20301177265E+02 -0.95742610477E+03  0.10154754086E+04  0.33693092030E+03 0.  0.
         13    1    3    3    0    0 -0.12621999269E+03 -0.93502657473E+02 -0.68847404727E+03  0.70616623204E+03  0.00000000000E+00 0.  1.
          1    1    3    3  501    0  0.10190998322E+03  0.11380383474E+03 -0.26895205750E+03  0.30930917658E+03  0.00000000000E+00 0.  1.
         21    1    1    2  502  501  0.24310009466E+02 -0.20301177265E+02  0.49594352907E+01  0.32057921906E+02  0.00000000000E+00 0. -1.
<mgrwt>
<rscale>  1 0.30000000E+03</rscale>
<asrwt>0</asrwt>
<pdfrwt beam="1">  1        1 0.17284884E+00 0.30000000E+03</pdfrwt>
<pdfrwt beam="2">0</pdfrwt>
<totfact> 0.13837264E+01</totfact>
</mgrwt>
</event>
<event>
 6    1  0.1950139E-004  0.3000000E+03  0.7818608E-02  0.1093470E+00
          1   -1    0    0  502    0  0.00000000000E+00  0.00000000000E+00  0.44259593354E+02  0.44259593354E+02  0.00000000000E+00 0.  1.
         13   -1    0    0    0    0 -0.00000000000E+00 -0.00000000000E+00 -0.10000000000E+04  0.10000000000E+04  0.00000000000E+00 0.  1.
    9000005    2    1    2  501    0 -0.41079366214E+02  0.12810087703E+02 -0.94081216157E+03  0.99871329629E+03  0.33233885140E+03 0.  0.
         13    1    3    3    0    0  0.14235520395E+03  0.36435470778E+02 -0.34896484408E+03  0.37864100416E+03  0.00000000000E+00 0.  1.
          1    1    3    3  501    0 -0.18343457016E+03 -0.23625383074E+02 -0.59184731748E+03  0.62007229213E+03  0.00000000000E+00 0.  1.
         21    1    1    2  502  501  0.41079366214E+02 -0.12810087703E+02 -0.14928245080E+02  0.45546297069E+02  0.00000000000E+00 0.  1.
<mgrwt>
<rscale>  1 0.30000000E+03</rscale>
<asrwt>0</asrwt>
<pdfrwt beam="1">  1        1 0.16094432E+00 0.30000000E+03</pdfrwt>
<pdfrwt beam="2">0</pdfrwt>
<totfact> 0.15831266E+01</totfact>
</mgrwt>
</event>
<event>
 6    1  0.1950139E-004  0.3000000E+03  0.7818608E-02  0.1093470E+00
          1   -1    0    0  502    0  0.00000000000E+00  0.00000000000E+00  0.29575719729E+02  0.29575719729E+02  0.00000000000E+00 0.  1.
         13   -1    0    0    0    0 -0.00000000000E+00 -0.00000000000E+00 -0.10000000000E+04  0.10000000000E+04  0.00000000000E+00 0.  1.
    9000005    2    1    2  501    0 -0.15378076332E+02 -0.34031844602E+01 -0.95900343052E+03  0.10101205737E+04  0.31687209859E+03 0.  0.
         13    1    3    3    0    0  0.10409406512E+03 -0.10809772463E+03 -0.35157180140E+03  0.38226093707E+03  0.00000000000E+00 0.  1.
          3    1    3    3  501    0 -0.11947214145E+03  0.10469454017E+03 -0.60743162912E+03  0.62785963668E+03  0.00000000000E+00 0.  1.
         21    1    1    2  502  501  0.15378076332E+02  0.34031844602E+01 -0.11420849751E+02  0.19455145982E+02  0.00000000000E+00 0.  1.
<mgrwt>
<rscale>  1 0.30000000E+03</rscale>
<asrwt>0</asrwt>
<pdfrwt beam="1">  1        1 0.10754830E+00 0.30000000E+03</pdfrwt>
<pdfrwt beam="2">0</pdfrwt>
<totfact> 0.30733765E+01</totfact>
</mgrwt>
</event>
<event>
 6    1  0.1950139E-004  0.3000000E+03  0.7818608E-02  0.1093470E+00
          3   -1    0    0  502    0  0.00000000000E+00  0.00000000000E+00  0.44442520655E+02  0.44442520655E+02  0.00000000000E+00 0.  1.
         13   -1    0    0    0    0 -0.00000000000E+00 -0.00000000000E+00 -0.10000000000E+04  0.10000000000E+04  0.00000000000E+00 0.  1.
    9000005    2    1    2  501    0 -0.46229288958E+02 -0.52308325464E+02 -0.87507501527E+03  0.93790269198E+03  0.33019974137E+03 0.  0.
         13    1    3    3    0    0 -0.46408442643E+02  0.32611931890E+02 -0.84636034358E+03  0.84825887136E+03  0.00000000000E+00 0.  1.
          3    1    3    3  501    0  0.17915368500E+00 -0.84920257353E+02 -0.28714671684E+02  0.89643820618E+02  0.00000000000E+00 0.  1.
         21    1    1    2  502  501  0.46229288958E+02  0.52308325464E+02 -0.80482464078E+02  0.10653982868E+03  0.00000000000E+00 0. -1.
<mgrwt>
<rscale>  1 0.30000000E+03</rscale>
<asrwt>0</asrwt>
<pdfrwt beam="1">  1        3 0.16160951E+00 0.30000000E+03</pdfrwt>
<pdfrwt beam="2">0</pdfrwt>
<totfact> 0.66919193E-01</totfact>
</mgrwt>
</event>
<event>
 6    1  0.1950139E-004  0.3000000E+03  0.7818608E-02  0.1093470E+00
          1   -1    0    0  502    0  0.00000000000E+00  0.00000000000E+00  0.39085682840E+02  0.39085682840E+02  0.00000000000E+00 0.  1.
         13   -1    0    0    0    0 -0.00000000000E+00 -0.00000000000E+00 -0.10000000000E+04  0.10000000000E+04  0.00000000000E+00 0.  1.
    9000005    2    1    2  501    0 -0.24275899043E+01  0.26347494196E+02 -0.96538263097E+03  0.10122519453E+04  0.30329901565E+03 0.  0.
         13    1    3    3    0    0  0.13109903973E+03 -0.26424659832E+02 -0.67725606229E+03  0.69033397336E+03  0.00000000000E+00 0.  1.
          1    1    3    3  501    0 -0.13352662964E+03  0.52772154028E+02 -0.28812656869E+03  0.32191797192E+03  0.00000000000E+00 0.  1.
         21    1    1    2  502  501  0.24275899043E+01 -0.26347494196E+02  0.44683138148E+01  0.26833737561E+02  0.00000000000E+00 0. -1.
<mgrwt>
<rscale>  1 0.30000000E+03</rscale>
<asrwt>0</asrwt>
<pdfrwt beam="1">  1        1 0.14213006E+00 0.30000000E+03</pdfrwt>
<pdfrwt beam="2">0</pdfrwt>
<totfact> 0.19720293E+01</totfact>
</mgrwt>
</event>
<event>
 6    1  0.1950139E-004  0.3000000E+03  0.7818608E-02  0.1093470E+00
          1   -1    0    0  502    0  0.00000000000E+00  0.00000000000E+00  0.33816246859E+02  0.33816246859E+02  0.00000000000E+00 0.  1.
         13   -1    0    0    0    0 -0.00000000000E+00 -0.00000000000E+00 -0.10000000000E+04  0.10000000000E+04  0.00000000000E+00 0.  1.
    9000005    2    1    2  501    0 -0.29239861976E+02 -0.14871673446E+02 -0.93319920971E+03  0.98729618339E+03  0.32065067058E+03 0.  0.
         13    1    3    3    0    0  0.10425238200E+03  0.22466168978E+02 -0.11265920076E+03  0.15513021439E+03  0.00000000000E+00 0.  1.
          1    1    3    3  501    0 -0.13349224398E+03 -0.37337842423E+02 -0.82054000895E+03  0.83216596900E+03  0.00000000000E+00 0.  1.
         21    1    1    2  502  501  0.29239861976E+02  0.14871673446E+02 -0.32984543431E+02  0.46520063465E+02  0.00000000000E+00 0.  1.
<mgrwt>
<rscale>  1 0.30000000E+03</rscale>
<asrwt>0</asrwt>
<pdfrwt beam="1">  1        1 0.12296843E+00 0.30000000E+03</pdfrwt>
<pdfrwt beam="2">0</pdfrwt>
<totfact> 0.25016603E+01</totfact>
</mgrwt>
</event>
<event>
 6    1  0.1950139E-004  0.3000000E+03  0.7818608E-02  0.1093470E+00
          1   -1    0    0  502    0  0.00000000000E+00  0.00000000000E+00  0.32977088441E+02  0.32977088441E+02  0.00000000000E+00 0.  1.
         13   -1    0    0    0    0 -0.00000000000E+00 -0.00000000000E+00 -0.10000000000E+04  0.10000000000E+04  0.00000000000E+00 0.  1.
    9000005    2    1    2  501    0  0.25160356904E+01 -0.11668267845E+02 -0.96141507779E+03  0.10197889608E+04  0.33986481715E+03 0.  0.
         13    1    3    3    0    0  0.15047798035E+03 -0.84430140566E+02 -0.42801403441E+03  0.46148465289E+03  0.00000000000E+00 0.  1.
          3    1    3    3  501    0 -0.14796194466E+03  0.72761872721E+02 -0.53340104338E+03  0.55830430795E+03  0.00000000000E+00 0.  1.
         21    1    1    2  502  501 -0.25160356904E+01  0.11668267845E+02 -0.56078337711E+01  0.13188127604E+02  0.00000000000E+00 0.  1.
<mgrwt>
<rscale>  1 0.30000000E+03</rscale>
<asrwt>0</asrwt>
<pdfrwt beam="1">  1        1 0.11991694E+00 0.30000000E+03</pdfrwt>
<pdfrwt beam="2">0</pdfrwt>
<totfact> 0.26024153E+01</totfact>
</mgrwt>
</event>
<event>
 6    1  0.1950139E-004  0.3000000E+03  0.7818608E-02  0.1093470E+00
          1   -1    0    0  502    0  0.00000000000E+00  0.00000000000E+00  0.36589212090E+02  0.36589212090E+02  0.00000000000E+00 0.  1.
         13   -1    0    0    0    0 -0.00000000000E+00 -0.00000000000E+00 -0.10000000000E+04  0.10000000000E+04  0.00000000000E+00 0.  1.
    9000005    2    1    2  501    0 -0.99149154991E+01  0.53301384134E+01 -0.97068440155E+03  0.10231869220E+04  0.32335205888E+03 0.  0.
         13    1    3    3    0    0 -0.19508235083E+02 -0.94246769313E+02 -0.75219818370E+02  0.12215173285E+03  0.00000000000E+00 0.  1.
          1    1    3    3  501    0  0.95933195841E+01  0.99576907727E+02 -0.89546458318E+03  0.90103518913E+03  0.00000000000E+00 0.  1.
         21    1    1    2  502  501  0.99149154991E+01 -0.53301384134E+01  0.72736136363E+01  0.13402290110E+02  0.00000000000E+00 0.  1.
<mgrwt>
<rscale>  1 0.30000000E+03</rscale>
<asrwt>0</asrwt>
<pdfrwt beam="1">  1        1 0.13305196E+00 0.30000000E+03</pdfrwt>
<pdfrwt beam="2">0</pdfrwt>
<totfact> 0.22025766E+01</totfact>
</mgrwt>
</event>
<event>
 6    1  0.1950139E-004  0.3000000E+03  0.7818608E-02  0.1093470E+00
          1   -1    0    0  502    0  0.00000000000E+00  0.00000000000E+00  0.69076378578E+02  0.69076378578E+02  0.00000000000E+00 0.  1.
         13   -1    0    0    0    0 -0.00000000000E+00 -0.00000000000E+00 -0.10000000000E+04  0.10000000000E+04  0.00000000000E+00 0.  1.
    9000005    2    1    2  501    0  0.16687956473E+02 -0.33603467183E+00 -0.97298152096E+03  0.10238274258E+04  0.31819955522E+03 0.  0.
         13    1    3    3    0    0  0.64757671442E+02  0.62059071200E+02 -0.92957911374E+03  0.93389625390E+03  0.00000000000E+00 0.  1.
          1    1    3    3  501    0 -0.48069714969E+02 -0.62395105872E+02 -0.43402407219E+02  0.89931171939E+02  0.00000000000E+00 0.  1.
         21    1    1    2  502  501 -0.16687956473E+02  0.33603467183E+00  0.42057899542E+02  0.45248952744E+02  0.00000000000E+00 0.  1.
<mgrwt>
<rscale>  1 0.30000000E+03</rscale>
<asrwt>0</asrwt>
<pdfrwt beam="1">  1        1 0.25118736E+00 0.30000000E+03</pdfrwt>
<pdfrwt beam="2">0</pdfrwt>
<totfact> 0.58906148E+00</totfact>
</mgrwt>
</event>
<event>
 6    1  0.1950139E-004  0.3000000E+03  0.7818608E-02  0.1093470E+00
          1   -1    0    0  502    0  0.00000000000E+00  0.00000000000E+00  0.28765893464E+02  0.28765893464E+02  0.00000000000E+00 0.  1.
         13   -1    0    0    0    0 -0.00000000000E+00 -0.00000000000E+00 -0.10000000000E+04  0.10000000000E+04  0.00000000000E+00 0.  1.
    9000005    2    1    2  501    0  0.14491243887E+02 -0.22431947054E+01 -0.95147223079E+03  0.10041577687E+04  0.32065306857E+03 0.  0.
         13    1    3    3    0    0  0.17480631044E+02  0.12736421536E+02 -0.97547068356E+03  0.97571043009E+03  0.00000000000E+00 0.  1.
          1    1    3    3  501    0 -0.29893871574E+01 -0.14979616241E+02  0.23998452769E+02  0.28447338604E+02  0.00000000000E+00 0.  1.
         21    1    1    2  502  501 -0.14491243887E+02  0.22431947054E+01 -0.19761875742E+02  0.24608124770E+02  0.00000000000E+00 0.  1.
<mgrwt>
<rscale>  1 0.30000000E+03</rscale>
<asrwt>0</asrwt>
<pdfrwt beam="1">  1        1 0.10460347E+00 0.30000000E+03</pdfrwt>
<pdfrwt beam="2">0</pdfrwt>
<totfact> 0.32032113E+01</totfact>
</mgrwt>
</event>
<event>
 6    1  0.1950139E-004  0.3000000E+03  0.7818608E-02  0.1093470E+00
          1   -1    0    0  502    0  0.00000000000E+00  0.00000000000E+00  0.50985527275E+02  0.50985527275E+02  0.00000000000E+00 0.  1.
         13   -1    0    0    0    0 -0.00000000000E+00 -0.00000000000E+00 -0.10000000000E+04  0.10000000000E+04  0.00000000000E+00 0.  1.
    9000005    2    1    2  501    0  0.61627612640E+01 -0.15494171698E+02 -0.97427564320E+03  0.10207171326E+04  0.30392825938E+03 0.  0.
         13    1    3    3    0    0  0.53427034845E+02  0.96987272729E+02 -0.14464201234E+03  0.18216006932E+03  0.00000000000E+00 0.  1.
          3    1    3    3  501    0 -0.47264273581E+02 -0.11248144443E+03 -0.82963363086E+03  0.83855706327E+03  0.00000000000E+00 0.  1.
         21    1    1    2  502  501 -0.61627612640E+01  0.15494171698E+02  0.25261170474E+02  0.30268394683E+02  0.00000000000E+00 0.  1.
<mgrwt>
<rscale>  1 0.30000000E+03</rscale>
<asrwt>0</asrwt>
<pdfrwt beam="1">  1        1 0.18540231E+00 0.30000000E+03</pdfrwt>
<pdfrwt beam="2">0</pdfrwt>
<totfact> 0.12030661E+01</totfact>
</mgrwt>
</event>
<event>
 6    1  0.1950139E-004  0.3000000E+03  0.7818608E-02  0.1093470E+00
          1   -1    0    0  502    0  0.00000000000E+00  0.00000000000E+00  0.36272175874E+02  0.36272175874E+02  0.00000000000E+00 0.  1.
         13   -1    0    0    0    0 -0.00000000000E+00 -0.00000000000E+00 -0.10000000000E+04  0.10000000000E+04  0.00000000000E+00 0.  1.
    9000005    2    1    2  501    0  0.99398068297E+01 -0.21454310006E+02 -0.95664641055E+03  0.10115895181E+04  0.32799681566E+03 0.  0.
         13    1    3    3    0    0  0.64966691955E+02 -0.16315963906E+03 -0.46919356063E+03  0.50098336920E+03  0.00000000000E+00 0.  1.
          1    1    3    3  501    0 -0.55026885126E+02  0.14170532906E+03 -0.48745284993E+03  0.51060614888E+03  0.00000000000E+00 0.  1.
         21    1    1    2  502  501 -0.99398068297E+01  0.21454310006E+02 -0.70814135711E+01  0.24682657795E+02  0.00000000000E+00 0.  1.
<mgrwt>
<rscale>  1 0.30000000E+03</rscale>
<asrwt>0</asrwt>
<pdfrwt beam="1">  1        1 0.13189910E+00 0.30000000E+03</pdfrwt>
<pdfrwt beam="2">0</pdfrwt>
<totfact> 0.22343374E+01</totfact>
</mgrwt>
</event>
<event>
 6    1  0.1950139E-004  0.3000000E+03  0.7818608E-02  0.1093470E+00
          1   -1    0    0  502    0  0.00000000000E+00  0.00000000000E+00  0.36765014674E+02  0.36765014674E+02  0.00000000000E+00 0.  1.
         13   -1    0    0    0    0 -0.00000000000E+00 -0.00000000000E+00 -0.10000000000E+04  0.10000000000E+04  0.00000000000E+00 0.  1.
    9000005    2    1    2  501    0 -0.98485252089E+01 -0.18738936097E+02 -0.96585976084E+03  0.10154335679E+04  0.31268532430E+03 0.  0.
         13    1    3    3    0    0 -0.95562672853E+02  0.99448719628E+02 -0.25674311855E+03  0.29144347857E+03  0.00000000000E+00 0.  1.
          3    1    3    3  501    0  0.85714147644E+02 -0.11818765572E+03 -0.70911664230E+03  0.72399008934E+03  0.00000000000E+00 0.  1.
         21    1    1    2  502  501  0.98485252089E+01  0.18738936097E+02  0.26247755191E+01  0.21331446771E+02  0.00000000000E+00 0.  1.
<mgrwt>
<rscale>  1 0.30000000E+03</rscale>
<asrwt>0</asrwt>
<pdfrwt beam="1">  1        1 0.13369124E+00 0.30000000E+03</pdfrwt>
<pdfrwt beam="2">0</pdfrwt>
<totfact> 0.21852208E+01</totfact>
</mgrwt>
</event>
<event>
 6    1  0.1950139E-004  0.3000000E+03  0.7818608E-02  0.1093470E+00
          1   -1    0    0  502    0  0.00000000000E+00  0.00000000000E+00  0.59443499251E+02  0.59443499251E+02  0.00000000000E+00 0.  1.
         13   -1    0    0    0    0 -0.00000000000E+00 -0.00000000000E+00 -0.10000000000E+04  0.10000000000E+04  0.00000000000E+00 0.  1.
    9000005    2    1    2  501    0  0.43271783119E+01 -0.53600380701E+02 -0.91437310493E+03  0.99963300268E+03  0.40037012843E+03 0.  0.
         13    1    3    3    0    0 -0.26292570597E+02 -0.22401761509E+03 -0.59547162076E+03  0.63675870019E+03  0.00000000000E+00 0.  1.
          1    1    3    3  501    0  0.30619748909E+02  0.17041723439E+03 -0.31890148417E+03  0.36287430249E+03  0.00000000000E+00 0.  1.
         21    1    1    2  502  501 -0.43271783119E+01  0.53600380701E+02 -0.26183395815E+02  0.59810496569E+02  0.00000000000E+00 0. -1.
<mgrwt>
<rscale>  1 0.30000000E+03</rscale>
<asrwt>0</asrwt>
<pdfrwt beam="1">  1        1 0.21615863E+00 0.30000000E+03</pdfrwt>
<pdfrwt beam="2">0</pdfrwt>
<totfact> 0.85925779E+00</totfact>
</mgrwt>
</event>
<event>
 6    1  0.1950139E-004  0.3000000E+03  0.7818608E-02  0.1093470E+00
          1   -1    0    0  502    0  0.00000000000E+00  0.00000000000E+00  0.35688945942E+02  0.35688945942E+02  0.00000000000E+00 0.  1.
         13   -1    0    0    0    0 -0.00000000000E+00 -0.00000000000E+00 -0.10000000000E+04  0.10000000000E+04  0.00000000000E+00 0.  1.
    9000005    2    1    2  501    0  0.26933038928E+02 -0.10554293284E+02 -0.94129068476E+03  0.99871978183E+03  0.33253010046E+03 0.  0.
         13    1    3    3    0    0 -0.40725333745E+02  0.12694676188E+03 -0.70212153031E+03  0.71466682901E+03  0.00000000000E+00 0.  1.
          3    1    3    3  501    0  0.67658372672E+02 -0.13750105517E+03 -0.23916915445E+03  0.28405295282E+03  0.00000000000E+00 0.  1.
         21    1    1    2  502  501 -0.26933038928E+02  0.10554293284E+02 -0.23020369302E+02  0.36969164116E+02  0.00000000000E+00 0.  1.
<mgrwt>
<rscale>  1 0.30000000E+03</rscale>
<asrwt>0</asrwt>
<pdfrwt beam="1">  1        1 0.12977826E+00 0.30000000E+03</pdfrwt>
<pdfrwt beam="2">0</pdfrwt>
<totfact> 0.22943501E+01</totfact>
</mgrwt>
</event>
<event>
 6    1  0.1950139E-004  0.3000000E+03  0.7818608E-02  0.1093470E+00
          1   -1    0    0  502    0  0.00000000000E+00  0.00000000000E+00  0.29962615258E+02  0.29962615258E+02  0.00000000000E+00 0.  1.
         13   -1    0    0    0    0 -0.00000000000E+00 -0.00000000000E+00 -0.10000000000E+04  0.10000000000E+04  0.00000000000E+00 0.  1.
    9000005    2    1    2  501    0 -0.34053066530E+01 -0.90943249390E+01 -0.96581951911E+03  0.10193752053E+04  0.32592048538E+03 0.  0.
         13    1    3    3    0    0  0.11685624883E+03  0.90319909854E+02 -0.28605084198E+03  0.32192880146E+03  0.00000000000E+00 0.  1.
          1    1    3    3  501    0 -0.12026155549E+03 -0.99414234793E+02 -0.67976867713E+03  0.69744640383E+03  0.00000000000E+00 0.  1.
         21    1    1    2  502  501  0.34053066530E+01  0.90943249390E+01 -0.42178656310E+01  0.10587409975E+02  0.00000000000E+00 0.  1.
<mgrwt>
<rscale>  1 0.30000000E+03</rscale>
<asrwt>0</asrwt>
<pdfrwt beam="1">  1        1 0.10895519E+00 0.30000000E+03</pdfrwt>
<pdfrwt beam="2">0</pdfrwt>
<totfact> 0.30140035E+01</totfact>
</mgrwt>
</event>
<event>
 6    1  0.1950139E-004  0.3000000E+03  0.7818608E-02  0.1093470E+00
          1   -1    0    0  502    0  0.00000000000E+00  0.00000000000E+00  0.46892450578E+02  0.46892450578E+02  0.00000000000E+00 0.  1.
         13   -1    0    0    0    0 -0.00000000000E+00 -0.00000000000E+00 -0.10000000000E+04  0.10000000000E+04  0.00000000000E+00 0.  1.
    9000005    2    1    2  501    0  0.11519912860E+02  0.42994090849E+02 -0.94770220744E+03  0.10020547660E+04  0.32247958036E+03 0.  0.
         13    1    3    3    0    0 -0.93707976629E+02  0.45641749548E+02 -0.85638131649E+03  0.86270117273E+03  0.00000000000E+00 0.  1.
          1    1    3    3  501    0  0.10522788949E+03 -0.26476586988E+01 -0.91320890947E+02  0.13935359323E+03  0.00000000000E+00 0.  1.
         21    1    1    2  502  501 -0.11519912860E+02 -0.42994090849E+02 -0.54053419832E+01  0.44837684621E+02  0.00000000000E+00 0.  1.
<mgrwt>
<rscale>  1 0.30000000E+03</rscale>
<asrwt>0</asrwt>
<pdfrwt beam="1">  1        1 0.17051836E+00 0.30000000E+03</pdfrwt>
<pdfrwt beam="2">0</pdfrwt>
<totfact> 0.14204121E+01</totfact>
</mgrwt>
</event>
<event>
 6    1  0.1950139E-004  0.3000000E+03  0.7818608E-02  0.1093470E+00
          1   -1    0    0  502    0  0.00000000000E+00  0.00000000000E+00  0.61562971552E+02  0.61562971552E+02  0.00000000000E+00 0.  1.
         13   -1    0    0    0    0 -0.00000000000E+00 -0.00000000000E+00 -0.10000000000E+04  0.10000000000E+04  0.00000000000E+00 0.  1.
    9000005    2    1    2  501    0  0.22549084894E+02  0.64992635024E+01 -0.97112782079E+03  0.10213213319E+04  0.31536854166E+03 0.  0.
         13    1    3    3    0    0  0.57470230422E+02  0.15125956149E+03 -0.59992176295E+03  0.62136012423E+03  0.00000000000E+00 0.  1.
          3    1    3    3  501    0 -0.34921145529E+02 -0.14476029799E+03 -0.37120605785E+03  0.39996120769E+03  0.00000000000E+00 0.  1.
         21    1    1    2  502  501 -0.22549084894E+02 -0.64992635024E+01  0.32690792346E+02  0.40241639626E+02  0.00000000000E+00 0. -1.
<mgrwt>
<rscale>  1 0.30000000E+03</rscale>
<asrwt>0</asrwt>
<pdfrwt beam="1">  1        1 0.22386582E+00 0.30000000E+03</pdfrwt>
<pdfrwt beam="2">0</pdfrwt>
<totfact> 0.79065138E+00</totfact>
</mgrwt>
</event>
<event>
 6    1  0.1950139E-004  0.3000000E+03  0.7818608E-02  0.1093470E+00
          3   -1    0    0  502    0  0.00000000000E+00  0.00000000000E+00  0.23848301148E+02  0.23848301148E+02  0.00000000000E+00 0.  1.
         13   -1    0    0    0    0 -0.00000000000E+00 -0.00000000000E+00 -0.10000000000E+04  0.10000000000E+04  0.00000000000E+00 0.  1.
    9000005    2    1    2  501    0 -0.57059791136E+01  0.76669367381E+01 -0.94818490616E+03  0.99429357885E+03  0.29912165512E+03 0.  0.
         13    1    3    3    0    0  0.49894251966E+02 -0.11682987001E+03 -0.22517149950E+03  0.25853599188E+03  0.00000000000E+00 0.  1.
          1    1    3    3  501    0 -0.55600231080E+02  0.12449680675E+03 -0.72301340665E+03  0.73575758697E+03  0.00000000000E+00 0.  1.
         21    1    1    2  502  501  0.57059791136E+01 -0.76669367381E+01 -0.27966792693E+02  0.29554722298E+02  0.00000000000E+00 0. -1.
<mgrwt>
<rscale>  1 0.30000000E+03</rscale>
<asrwt>0</asrwt>
<pdfrwt beam="1">  1        3 0.86721278E-01 0.30000000E+03</pdfrwt>
<pdfrwt beam="2">0</pdfrwt>
<totfact> 0.55731900E+00</totfact>
</mgrwt>
</event>
<event>
 6    1  0.1950139E-004  0.3000000E+03  0.7818608E-02  0.1093470E+00
          1   -1    0    0  502    0  0.00000000000E+00  0.00000000000E+00  0.54678642460E+02  0.54678642460E+02  0.00000000000E+00 0.  1.
         13   -1    0    0    0    0 -0.00000000000E+00 -0.00000000000E+00 -0.10000000000E+04  0.10000000000E+04  0.00000000000E+00 0.  1.
    9000005    2    1    2  501    0 -0.45968052331E+02 -0.17032822672E+01 -0.95167146352E+03  0.10082428066E+04  0.32978632413E+03 0.  0.
         13    1    3    3    0    0 -0.18327168482E+03  0.40430658614E+02 -0.58857193605E+03  0.61777024250E+03  0.00000000000E+00 0.  1.
          3    1    3    3  501    0  0.13730363249E+03 -0.42133940881E+02 -0.36309952747E+03  0.39047256411E+03  0.00000000000E+00 0.  1.
         21    1    1    2  502  501  0.45968052331E+02  0.17032822672E+01  0.63501059813E+01  0.46435835855E+02  0.00000000000E+00 0.  1.
<mgrwt>
<rscale>  1 0.30000000E+03</rscale>
<asrwt>0</asrwt>
<pdfrwt beam="1">  1        1 0.19883185E+00 0.30000000E+03</pdfrwt>
<pdfrwt beam="2">0</pdfrwt>
<totfact> 0.10375280E+01</totfact>
</mgrwt>
</event>
<event>
 6    1  0.1950139E-004  0.3000000E+03  0.7818608E-02  0.1093470E+00
          1   -1    0    0  502    0  0.00000000000E+00  0.00000000000E+00  0.27235555345E+02  0.27235555345E+02  0.00000000000E+00 0.  1.
         13   -1    0    0    0    0 -0.00000000000E+00 -0.00000000000E+00 -0.10000000000E+04  0.10000000000E+04  0.00000000000E+00 0.  1.
    9000005    2    1    2  501    0  0.24124724647E+01 -0.14983714563E+02 -0.96797218977E+03  0.10113202347E+04  0.29252029869E+03 0.  0.
         13    1    3    3    0    0  0.19001811218E+02  0.13592408788E+03 -0.37860244581E+03  0.40271111044E+03  0.00000000000E+00 0.  1.
          3    1    3    3  501    0 -0.16589338754E+02 -0.15090780244E+03 -0.58936974396E+03  0.60860912423E+03  0.00000000000E+00 0.  1.
         21    1    1    2  502  501 -0.24124724647E+01  0.14983714563E+02 -0.47922548872E+01  0.15915320682E+02  0.00000000000E+00 0. -1.
<mgrwt>
<rscale>  1 0.30000000E+03</rscale>
<asrwt>0</asrwt>
<pdfrwt beam="1">  1        1 0.99038592E-01 0.30000000E+03</pdfrwt>
<pdfrwt beam="2">0</pdfrwt>
<totfact> 0.34713102E+01</totfact>
</mgrwt>
</event>
<event>
 6    1  0.1950139E-004  0.3000000E+03  0.7818608E-02  0.1093470E+00
          3   -1    0    0  502    0  0.00000000000E+00  0.00000000000E+00  0.33782727818E+02  0.33782727818E+02  0.00000000000E+00 0.  1.
         13   -1    0    0    0    0 -0.00000000000E+00 -0.00000000000E+00 -0.10000000000E+04  0.10000000000E+04  0.00000000000E+00 0.  1.
    9000005    2    1    2  501    0  0.49688365386E+01 -0.17296045458E+02 -0.95568326738E+03  0.10129306828E+04  0.33522263952E+03 0.  0.
         13    1    3    3    0    0  0.14510066935E+03 -0.96947051802E+02 -0.50084886718E+03  0.53037960260E+03  0.00000000000E+00 0.  1.
          3    1    3    3  501    0 -0.14013183281E+03  0.79651006344E+02 -0.45483440020E+03  0.48255108018E+03  0.00000000000E+00 0.  1.
         21    1    1    2  502  501 -0.49688365386E+01  0.17296045458E+02 -0.10534004803E+02  0.20852045038E+02  0.00000000000E+00 0.  1.
<mgrwt>
<rscale>  1 0.30000000E+03</rscale>
<asrwt>0</asrwt>
<pdfrwt beam="1">  1        3 0.12284654E+00 0.30000000E+03</pdfrwt>
<pdfrwt beam="2">0</pdfrwt>
<totfact> 0.21435163E+00</totfact>
</mgrwt>
</event>
<event>
 6    1  0.1950139E-004  0.3000000E+03  0.7818608E-02  0.1093470E+00
          1   -1    0    0  502    0  0.00000000000E+00  0.00000000000E+00  0.30585942958E+02  0.30585942958E+02  0.00000000000E+00 0.  1.
         13   -1    0    0    0    0 -0.00000000000E+00 -0.00000000000E+00 -0.10000000000E+04  0.10000000000E+04  0.00000000000E+00 0.  1.
    9000005    2    1    2  501    0  0.46126337955E+01 -0.84379399316E+01 -0.96281576436E+03  0.10189234952E+04  0.33331429282E+03 0.  0.
         13    1    3    3    0    0 -0.64245489245E+02 -0.12028887303E+02 -0.13042274817E+02  0.66650415981E+02  0.00000000000E+00 0.  1.
          3    1    3    3  501    0  0.68858123040E+02  0.35909473712E+01 -0.94977348954E+03  0.95227307924E+03  0.00000000000E+00 0.  1.
         21    1    1    2  502  501 -0.46126337955E+01  0.84379399316E+01 -0.65982926822E+01  0.11662447734E+02  0.00000000000E+00 0. -1.
<mgrwt>
<rscale>  1 0.30000000E+03</rscale>
<asrwt>0</asrwt>
<pdfrwt beam="1">  1        1 0.11122185E+00 0.30000000E+03</pdfrwt>
<pdfrwt beam="2">0</pdfrwt>
<totfact> 0.29217304E+01</totfact>
</mgrwt>
</event>
<event>
 6    1  0.1950139E-004  0.3000000E+03  0.7818608E-02  0.1093470E+00
          1   -1    0    0  502    0  0.00000000000E+00  0.00000000000E+00  0.28396036345E+02  0.28396036345E+02  0.00000000000E+00 0.  1.
         13   -1    0    0    0    0 -0.00000000000E+00 -0.00000000000E+00 -0.10000000000E+04  0.10000000000E+04  0.00000000000E+00 0.  1.
    9000005    2    1    2  501    0 -0.10652612930E+01 -0.94987884296E+01 -0.96124470314E+03  0.10143007874E+04  0.32360986747E+03 0.  0.
         13    1    3    3    0    0  0.45718051653E+02 -0.15665637901E+03 -0.59170623712E+03  0.61379771292E+03  0.00000000000E+00 0.  1.
          1    1    3    3  501    0 -0.46783312946E+02  0.14715759058E+03 -0.36953846602E+03  0.40050307452E+03  0.00000000000E+00 0.  1.
         21    1    1    2  502  501  0.10652612930E+01  0.94987884296E+01 -0.10359260518E+02  0.14095248906E+02  0.00000000000E+00 0.  1.
<mgrwt>
<rscale>  1 0.30000000E+03</rscale>
<asrwt>0</asrwt>
<pdfrwt beam="1">  1        1 0.10325853E+00 0.30000000E+03</pdfrwt>
<pdfrwt beam="2">0</pdfrwt>
<totfact> 0.32651588E+01</totfact>
</mgrwt>
</event>
<event>
 6    1  0.1950139E-004  0.3000000E+03  0.7818608E-02  0.1093470E+00
          1   -1    0    0  502    0  0.00000000000E+00  0.00000000000E+00  0.35654165828E+02  0.35654165828E+02  0.00000000000E+00 0.  1.
         13   -1    0    0    0    0 -0.00000000000E+00 -0.00000000000E+00 -0.10000000000E+04  0.10000000000E+04  0.00000000000E+00 0.  1.
    9000005    2    1    2  501    0 -0.16106711841E+02 -0.15626700089E+02 -0.93485402528E+03  0.99859493332E+03  0.35033722662E+03 0.  0.
         13    1    3    3    0    0 -0.21273526943E+02 -0.18101989115E+03 -0.42119041039E+03  0.45893586235E+03  0.00000000000E+00 0.  1.
          1    1    3    3  501    0  0.51668151020E+01  0.16539319107E+03 -0.51366361488E+03  0.53965907097E+03  0.00000000000E+00 0.  1.
         21    1    1    2  502  501  0.16106711841E+02  0.15626700089E+02 -0.29491808894E+02  0.37059232505E+02  0.00000000000E+00 0.  1.
<mgrwt>
<rscale>  1 0.30000000E+03</rscale>
<asrwt>0</asrwt>
<pdfrwt beam="1">  1        1 0.12965179E+00 0.30000000E+03</pdfrwt>
<pdfrwt beam="2">0</pdfrwt>
<totfact> 0.22979948E+01</totfact>
</mgrwt>
</event>
<event>
 6    1  0.1950139E-004  0.3000000E+03  0.7818608E-02  0.1093470E+00
          1   -1    0    0  502    0  0.00000000000E+00  0.00000000000E+00  0.38373170103E+02  0.38373170103E+02  0.00000000000E+00 0.  1.
         13   -1    0    0    0    0 -0.00000000000E+00 -0.00000000000E+00 -0.10000000000E+04  0.10000000000E+04  0.00000000000E+00 0.  1.
    9000005    2    1    2  501    0 -0.26905967143E+02  0.18232860742E+01 -0.95562717697E+03  0.10107461675E+04  0.32811165511E+03 0.  0.
         13    1    3    3    0    0  0.13361376392E+03 -0.46474190105E+02 -0.26873108604E+03  0.30369208890E+03  0.00000000000E+00 0.  1.
          1    1    3    3  501    0 -0.16051973107E+03  0.48297476179E+02 -0.68689609093E+03  0.70705407856E+03  0.00000000000E+00 0.  1.
         21    1    1    2  502  501  0.26905967143E+02 -0.18232860742E+01 -0.59996529266E+01  0.27627002647E+02  0.00000000000E+00 0. -1.
<mgrwt>
<rscale>  1 0.30000000E+03</rscale>
<asrwt>0</asrwt>
<pdfrwt beam="1">  1        1 0.13953909E+00 0.30000000E+03</pdfrwt>
<pdfrwt beam="2">0</pdfrwt>
<totfact> 0.20345224E+01</totfact>
</mgrwt>
</event>
<event>
 6    1  0.1950139E-004  0.3000000E+03  0.7818608E-02  0.1093470E+00
          1   -1    0    0  502    0  0.00000000000E+00  0.00000000000E+00  0.45163096192E+02  0.45163096192E+02  0.00000000000E+00 0.  1.
         13   -1    0    0    0    0 -0.00000000000E+00 -0.00000000000E+00 -0.10000000000E+04  0.10000000000E+04  0.00000000000E+00 0.  1.
    9000005    2    1    2  501    0  0.58596578568E+02  0.26357587842E+02 -0.91531253682E+03  0.96972797809E+03  0.31376269692E+03 0.  0.
         13    1    3    3    0    0 -0.12015246387E+03 -0.38763067170E+02 -0.29450446710E+03  0.32042482908E+03  0.00000000000E+00 0.  1.
          3    1    3    3  501    0  0.17874904244E+03  0.65120655011E+02 -0.62080806972E+03  0.64930314901E+03  0.00000000000E+00 0.  1.
         21    1    1    2  502  501 -0.58596578568E+02 -0.26357587842E+02 -0.39524366985E+02  0.75435118097E+02  0.00000000000E+00 0.  1.
<mgrwt>
<rscale>  1 0.30000000E+03</rscale>
<asrwt>0</asrwt>
<pdfrwt beam="1">  1        1 0.16422979E+00 0.30000000E+03</pdfrwt>
<pdfrwt beam="2">0</pdfrwt>
<totfact> 0.15250000E+01</totfact>
</mgrwt>
</event>
<event>
 6    1  0.1950139E-004  0.3000000E+03  0.7818608E-02  0.1093470E+00
          1   -1    0    0  502    0  0.00000000000E+00  0.00000000000E+00  0.66837143532E+01  0.66837143532E+01  0.00000000000E+00 0.  1.
         13   -1    0    0    0    0 -0.00000000000E+00 -0.00000000000E+00 -0.10000000000E+04  0.10000000000E+04  0.00000000000E+00 0.  1.
    9000005    2    1    2  501    0 -0.18707143901E+02  0.53390004389E+01 -0.94946884833E+03  0.95871434998E+03  0.13139120503E+03 0.  0.
         13    1    3    3    0    0 -0.61170894776E+02 -0.36469751842E+02 -0.59851286854E+03  0.60273507860E+03  0.00000000000E+00 0.  1.
          3    1    3    3  501    0  0.42463750874E+02  0.41808752281E+02 -0.35095597979E+03  0.35597927139E+03  0.00000000000E+00 0.  1.
         21    1    1    2  502  501  0.18707143901E+02 -0.53390004389E+01 -0.43847437318E+02  0.47969364370E+02  0.00000000000E+00 0.  1.
<mgrwt>
<rscale>  1 0.30000000E+03</rscale>
<asrwt>0</asrwt>
<pdfrwt beam="1">  1        1 0.24304467E-01 0.30000000E+03</pdfrwt>
<pdfrwt beam="2">0</pdfrwt>
<totfact> 0.22725419E+02</totfact>
</mgrwt>
</event>
<event>
 6    1  0.1950139E-004  0.3000000E+03  0.7818608E-02  0.1093470E+00
          1   -1    0    0  502    0  0.00000000000E+00  0.00000000000E+00  0.28790734670E+02  0.28790734670E+02  0.00000000000E+00 0.  1.
         13   -1    0    0    0    0 -0.00000000000E+00 -0.00000000000E+00 -0.10000000000E+04  0.10000000000E+04  0.00000000000E+00 0.  1.
    9000005    2    1    2  501    0  0.11803575695E+02  0.18753290376E+01 -0.95897445487E+03  0.10116871723E+04  0.32208087227E+03 0.  0.
         13    1    3    3    0    0 -0.35662929140E+02  0.10158018284E+02 -0.96264956275E+03  0.96336348826E+03  0.00000000000E+00 0.  1.
          3    1    3    3  501    0  0.47466504835E+02 -0.82826892469E+01  0.36751078856E+01  0.48323684052E+02  0.00000000000E+00 0.  1.
         21    1    1    2  502  501 -0.11803575695E+02 -0.18753290376E+01 -0.12234810465E+02  0.17103562357E+02  0.00000000000E+00 0. -1.
<mgrwt>
<rscale>  1 0.30000000E+03</rscale>
<asrwt>0</asrwt>
<pdfrwt beam="1">  1        1 0.10469380E+00 0.30000000E+03</pdfrwt>
<pdfrwt beam="2">0</pdfrwt>
<totfact> 0.31991120E+01</totfact>
</mgrwt>
</event>
<event>
 6    1  0.1950139E-004  0.3000000E+03  0.7818608E-02  0.1093470E+00
          1   -1    0    0  502    0  0.00000000000E+00  0.00000000000E+00  0.35674025557E+02  0.35674025557E+02  0.00000000000E+00 0.  1.
         13   -1    0    0    0    0 -0.00000000000E+00 -0.00000000000E+00 -0.10000000000E+04  0.10000000000E+04  0.00000000000E+00 0.  1.
    9000005    2    1    2  501    0  0.51279632393E+01 -0.90292967128E+01 -0.97046458445E+03  0.10236114081E+04  0.32537821222E+03 0.  0.
         13    1    3    3    0    0 -0.76188923740E+02 -0.99231361194E+02 -0.15517411451E+03  0.19932541474E+03  0.00000000000E+00 0.  1.
          3    1    3    3  501    0  0.81316886980E+02  0.90202064481E+02 -0.81529046994E+03  0.82428599340E+03  0.00000000000E+00 0.  1.
         21    1    1    2  502  501 -0.51279632393E+01  0.90292967128E+01  0.61386100107E+01  0.12062617418E+02  0.00000000000E+00 0.  1.
<mgrwt>
<rscale>  1 0.30000000E+03</rscale>
<asrwt>0</asrwt>
<pdfrwt beam="1">  1        1 0.12972400E+00 0.30000000E+03</pdfrwt>
<pdfrwt beam="2">0</pdfrwt>
<totfact> 0.22959127E+01</totfact>
</mgrwt>
</event>
<event>
 6    1  0.1950139E-004  0.3000000E+03  0.7818608E-02  0.1093470E+00
          1   -1    0    0  502    0  0.00000000000E+00  0.00000000000E+00  0.39306162398E+02  0.39306162398E+02  0.00000000000E+00 0.  1.
         13   -1    0    0    0    0 -0.00000000000E+00 -0.00000000000E+00 -0.10000000000E+04  0.10000000000E+04  0.00000000000E+00 0.  1.
    9000005    2    1    2  501    0 -0.87787067894E+01 -0.23921155531E+02 -0.96140290284E+03  0.10138151807E+04  0.32074349820E+03 0.  0.
         13    1    3    3    0    0 -0.35637783821E+02 -0.10978530982E+03 -0.11601345995E+03  0.16365203567E+03  0.00000000000E+00 0.  1.
          3    1    3    3  501    0  0.26859077031E+02  0.85864154289E+02 -0.84538944289E+03  0.85016314502E+03  0.00000000000E+00 0.  1.
         21    1    1    2  502  501  0.87787067894E+01  0.23921155531E+02  0.70906524014E+00  0.25490981706E+02  0.00000000000E+00 0.  1.
<mgrwt>
<rscale>  1 0.30000000E+03</rscale>
<asrwt>0</asrwt>
<pdfrwt beam="1">  1        1 0.14293180E+00 0.30000000E+03</pdfrwt>
<pdfrwt beam="2">0</pdfrwt>
<totfact> 0.19531865E+01</totfact>
</mgrwt>
</event>
<event>
 6    1  0.1950139E-004  0.3000000E+03  0.7818608E-02  0.1093470E+00
          1   -1    0    0  502    0  0.00000000000E+00  0.00000000000E+00  0.46444066671E+02  0.46444066671E+02  0.00000000000E+00 0.  1.
         13   -1    0    0    0    0 -0.00000000000E+00 -0.00000000000E+00 -0.10000000000E+04  0.10000000000E+04  0.00000000000E+00 0.  1.
    9000005    2    1    2  501    0 -0.90215453574E+02 -0.60107965161E+02 -0.80758836247E+03  0.86462457574E+03  0.28917969887E+03 0.  0.
         13    1    3    3    0    0  0.98809710754E+02  0.20991320270E+02 -0.31554428997E+03  0.33131886967E+03  0.00000000000E+00 0.  1.
          1    1    3    3  501    0 -0.18902516433E+03 -0.81099285430E+02 -0.49204407250E+03  0.53330570607E+03  0.00000000000E+00 0.  1.
         21    1    1    2  502  501  0.90215453574E+02  0.60107965161E+02 -0.14596757086E+03  0.18181949093E+03  0.00000000000E+00 0.  1.
<mgrwt>
<rscale>  1 0.30000000E+03</rscale>
<asrwt>0</asrwt>
<pdfrwt beam="1">  1        1 0.16888787E+00 0.30000000E+03</pdfrwt>
<pdfrwt beam="2">0</pdfrwt>
<totfact> 0.14467273E+01</totfact>
</mgrwt>
</event>
<event>
 6    1  0.1950139E-004  0.3000000E+03  0.7818608E-02  0.1093470E+00
          1   -1    0    0  502    0  0.00000000000E+00  0.00000000000E+00  0.30469529415E+02  0.30469529415E+02  0.00000000000E+00 0.  1.
         13   -1    0    0    0    0 -0.00000000000E+00 -0.00000000000E+00 -0.10000000000E+04  0.10000000000E+04  0.00000000000E+00 0.  1.
    9000005    2    1    2  501    0 -0.98904307462E+01 -0.19859089079E+01 -0.95433664387E+03  0.10122317438E+04  0.33727275139E+03 0.  0.
         13    1    3    3    0    0  0.11005063749E+03 -0.11958995975E+03 -0.36760971387E+03  0.40193258517E+03  0.00000000000E+00 0.  1.
          3    1    3    3  501    0 -0.11994106823E+03  0.11760405084E+03 -0.58672693000E+03  0.61029915862E+03  0.00000000000E+00 0.  1.
         21    1    1    2  502  501  0.98904307462E+01  0.19859089079E+01 -0.15193826716E+02  0.18237785633E+02  0.00000000000E+00 0.  1.
<mgrwt>
<rscale>  1 0.30000000E+03</rscale>
<asrwt>0</asrwt>
<pdfrwt beam="1">  1        1 0.11079852E+00 0.30000000E+03</pdfrwt>
<pdfrwt beam="2">0</pdfrwt>
<totfact> 0.29386563E+01</totfact>
</mgrwt>
</event>
<event>
 6    1  0.1950139E-004  0.3000000E+03  0.7818608E-02  0.1093470E+00
          1   -1    0    0  502    0  0.00000000000E+00  0.00000000000E+00  0.44127434290E+02  0.44127434290E+02  0.00000000000E+00 0.  1.
         13   -1    0    0    0    0 -0.00000000000E+00 -0.00000000000E+00 -0.10000000000E+04  0.10000000000E+04  0.00000000000E+00 0.  1.
    9000005    2    1    2  501    0 -0.12567902590E+02 -0.28076770256E+02 -0.95869253080E+03  0.10132371542E+04  0.32651478489E+03 0.  0.
         13    1    3    3    0    0  0.18699629981E+02  0.42803907212E+02  0.45069193838E+01  0.46927209126E+02  0.00000000000E+00 0.  1.
          3    1    3    3  501    0 -0.31267532571E+02 -0.70880677468E+02 -0.96319945018E+03  0.96630994503E+03  0.00000000000E+00 0.  1.
         21    1    1    2  502  501  0.12567902590E+02  0.28076770256E+02  0.28199650915E+01  0.30890280132E+02  0.00000000000E+00 0.  1.
<mgrwt>
<rscale>  1 0.30000000E+03</rscale>
<asrwt>0</asrwt>
<pdfrwt beam="1">  1        1 0.16046374E+00 0.30000000E+03</pdfrwt>
<pdfrwt beam="2">0</pdfrwt>
<totfact> 0.15918418E+01</totfact>
</mgrwt>
</event>
<event>
 6    1  0.1950139E-004  0.3000000E+03  0.7818608E-02  0.1093470E+00
          1   -1    0    0  502    0  0.00000000000E+00  0.00000000000E+00  0.30729197562E+02  0.30729197562E+02  0.00000000000E+00 0.  1.
         13   -1    0    0    0    0 -0.00000000000E+00 -0.00000000000E+00 -0.10000000000E+04  0.10000000000E+04  0.00000000000E+00 0.  1.
    9000005    2    1    2  501    0 -0.88012996637E+01  0.62723466679E+01 -0.95743515293E+03  0.10147014776E+04  0.33588720031E+03 0.  0.
         13    1    3    3    0    0 -0.99377361732E+02 -0.11193146780E+03 -0.24689746926E+03  0.28872629571E+03  0.00000000000E+00 0.  1.
          1    1    3    3  501    0  0.90576062068E+02  0.11820381447E+03 -0.71053768367E+03  0.72597518187E+03  0.00000000000E+00 0.  1.
         21    1    1    2  502  501  0.88012996637E+01 -0.62723466679E+01 -0.11835649505E+02  0.16027719978E+02  0.00000000000E+00 0.  1.
<mgrwt>
<rscale>  1 0.30000000E+03</rscale>
<asrwt>0</asrwt>
<pdfrwt beam="1">  1        1 0.11174277E+00 0.30000000E+03</pdfrwt>
<pdfrwt beam="2">0</pdfrwt>
<totfact> 0.29010904E+01</totfact>
</mgrwt>
</event>
<event>
 6    1  0.1950139E-004  0.3000000E+03  0.7818608E-02  0.1093470E+00
          1   -1    0    0  502    0  0.00000000000E+00  0.00000000000E+00  0.33073403879E+02  0.33073403879E+02  0.00000000000E+00 0.  1.
         13   -1    0    0    0    0 -0.00000000000E+00 -0.00000000000E+00 -0.10000000000E+04  0.10000000000E+04  0.00000000000E+00 0.  1.
    9000005    2    1    2  501    0  0.29733352419E+02  0.20231533382E+02 -0.90993774644E+03  0.96568559952E+03  0.32135430217E+03 0.  0.
         13    1    3    3    0    0 -0.12031087831E+03 -0.58883857977E+02 -0.57314252106E+03  0.58858675284E+03  0.00000000000E+00 0.  1.
          1    1    3    3  501    0  0.15004423073E+03  0.79115391359E+02 -0.33679522538E+03  0.37709884667E+03  0.00000000000E+00 0.  1.
         21    1    1    2  502  501 -0.29733352419E+02 -0.20231533382E+02 -0.56988849680E+02  0.67387804364E+02  0.00000000000E+00 0. -1.
<mgrwt>
<rscale>  1 0.30000000E+03</rscale>
<asrwt>0</asrwt>
<pdfrwt beam="1">  1        1 0.12026718E+00 0.30000000E+03</pdfrwt>
<pdfrwt beam="2">0</pdfrwt>
<totfact> 0.25905806E+01</totfact>
</mgrwt>
</event>
<event>
 6    1  0.1950139E-004  0.3000000E+03  0.7818608E-02  0.1093470E+00
          1   -1    0    0  502    0  0.00000000000E+00  0.00000000000E+00  0.31030731497E+02  0.31030731497E+02  0.00000000000E+00 0.  1.
         13   -1    0    0    0    0 -0.00000000000E+00 -0.00000000000E+00 -0.10000000000E+04  0.10000000000E+04  0.00000000000E+00 0.  1.
    9000005    2    1    2  501    0 -0.33851436548E+02 -0.18251470953E+02 -0.83080147363E+03  0.88761045578E+03  0.31006805167E+03 0.  0.
         13    1    3    3    0    0  0.38356371798E+00  0.73556284998E+02 -0.76737018438E+03  0.77088758847E+03  0.00000000000E+00 0.  1.
          1    1    3    3  501    0 -0.34235000266E+02 -0.91807755951E+02 -0.63431289256E+02  0.11672286731E+03  0.00000000000E+00 0.  1.
         21    1    1    2  502  501  0.33851436548E+02  0.18251470953E+02 -0.13816779487E+03  0.14342027572E+03  0.00000000000E+00 0.  1.
<mgrwt>
<rscale>  1 0.30000000E+03</rscale>
<asrwt>0</asrwt>
<pdfrwt beam="1">  1        1 0.11283926E+00 0.30000000E+03</pdfrwt>
<pdfrwt beam="2">0</pdfrwt>
<totfact> 0.28583155E+01</totfact>
</mgrwt>
</event>
<event>
 6    1  0.1950139E-004  0.3000000E+03  0.7818608E-02  0.1093470E+00
          1   -1    0    0  502    0  0.00000000000E+00  0.00000000000E+00  0.45063694126E+02  0.45063694126E+02  0.00000000000E+00 0.  1.
         13   -1    0    0    0    0 -0.00000000000E+00 -0.00000000000E+00 -0.10000000000E+04  0.10000000000E+04  0.00000000000E+00 0.  1.
    9000005    2    1    2  501    0 -0.37942557527E+01 -0.13941830628E+02 -0.95843361190E+03  0.10301975525E+04  0.37749601019E+03 0.  0.
         13    1    3    3    0    0 -0.38207591978E+01 -0.18949243893E+03 -0.36405551052E+03  0.41043683723E+03  0.00000000000E+00 0.  1.
          1    1    3    3  501    0  0.26503445071E-01  0.17555060830E+03 -0.59437810138E+03  0.61976071526E+03  0.00000000000E+00 0.  1.
         21    1    1    2  502  501  0.37942557527E+01  0.13941830628E+02  0.34973060221E+01  0.14866141644E+02  0.00000000000E+00 0.  1.
<mgrwt>
<rscale>  1 0.30000000E+03</rscale>
<asrwt>0</asrwt>
<pdfrwt beam="1">  1        1 0.16386832E+00 0.30000000E+03</pdfrwt>
<pdfrwt beam="2">0</pdfrwt>
<totfact> 0.15312733E+01</totfact>
</mgrwt>
</event>
<event>
 6    1  0.1950139E-004  0.3000000E+03  0.7818608E-02  0.1093470E+00
          1   -1    0    0  502    0  0.00000000000E+00  0.00000000000E+00  0.65827102291E+02  0.65827102291E+02  0.00000000000E+00 0.  1.
         13   -1    0    0    0    0 -0.00000000000E+00 -0.00000000000E+00 -0.10000000000E+04  0.10000000000E+04  0.00000000000E+00 0.  1.
    9000005    2    1    2  501    0  0.54161252765E+01 -0.17309304132E+02 -0.97256684810E+03  0.10233648620E+04  0.31790001629E+03 0.  0.
         13    1    3    3    0    0  0.42077207836E+02  0.12696945202E+02 -0.97494007699E+03  0.97593025240E+03  0.00000000000E+00 0.  1.
          3    1    3    3  501    0 -0.36661082560E+02 -0.30006249334E+02  0.23732288869E+01  0.47434609610E+02  0.00000000000E+00 0.  1.
         21    1    1    2  502  501 -0.54161252765E+01  0.17309304132E+02  0.38393950394E+02  0.42462240278E+02  0.00000000000E+00 0.  1.
<mgrwt>
<rscale>  1 0.30000000E+03</rscale>
<asrwt>0</asrwt>
<pdfrwt beam="1">  1        1 0.23937179E+00 0.30000000E+03</pdfrwt>
<pdfrwt beam="2">0</pdfrwt>
<totfact> 0.66890563E+00</totfact>
</mgrwt>
</event>
<event>
 6    1  0.1950139E-004  0.3000000E+03  0.7818608E-02  0.1093470E+00
          1   -1    0    0  502    0  0.00000000000E+00  0.00000000000E+00  0.30759155749E+02  0.30759155749E+02  0.00000000000E+00 0.  1.
         13   -1    0    0    0    0 -0.00000000000E+00 -0.00000000000E+00 -0.10000000000E+04  0.10000000000E+04  0.00000000000E+00 0.  1.
    9000005    2    1    2  501    0  0.10039442283E+02 -0.26927779266E+01 -0.96204380868E+03  0.10181164197E+04  0.33305361842E+03 0.  0.
         13    1    3    3    0    0 -0.11644909274E+03  0.61771865308E+02 -0.75900695767E+03  0.77036855877E+03  0.00000000000E+00 0.  1.
          3    1    3    3  501    0  0.12648853502E+03 -0.64464643234E+02 -0.20303685101E+03  0.24774786091E+03  0.00000000000E+00 0.  1.
         21    1    1    2  502  501 -0.10039442283E+02  0.26927779266E+01 -0.71970355661E+01  0.12642736067E+02  0.00000000000E+00 0.  1.
<mgrwt>
<rscale>  1 0.30000000E+03</rscale>
<asrwt>0</asrwt>
<pdfrwt beam="1">  1        1 0.11185171E+00 0.30000000E+03</pdfrwt>
<pdfrwt beam="2">0</pdfrwt>
<totfact> 0.28968001E+01</totfact>
</mgrwt>
</event>
<event>
 6    1  0.1950139E-004  0.3000000E+03  0.7818608E-02  0.1093470E+00
          1   -1    0    0  502    0  0.00000000000E+00  0.00000000000E+00  0.27795593867E+02  0.27795593867E+02  0.00000000000E+00 0.  1.
         13   -1    0    0    0    0 -0.00000000000E+00 -0.00000000000E+00 -0.10000000000E+04  0.10000000000E+04  0.00000000000E+00 0.  1.
    9000005    2    1    2  501    0 -0.15845796467E+02  0.20654803339E+01 -0.94473788147E+03  0.99601878705E+03  0.31506888769E+03 0.  0.
         13    1    3    3    0    0  0.14346698481E+03  0.43954969861E+02 -0.48347870951E+03  0.50622769349E+03  0.00000000000E+00 0.  1.
          3    1    3    3  501    0 -0.15931278127E+03 -0.41889489527E+02 -0.46125917196E+03  0.48979109356E+03  0.00000000000E+00 0.  1.
         21    1    1    2  502  501  0.15845796467E+02 -0.20654803339E+01 -0.27466524662E+02  0.31776806820E+02  0.00000000000E+00 0.  1.
<mgrwt>
<rscale>  1 0.30000000E+03</rscale>
<asrwt>0</asrwt>
<pdfrwt beam="1">  1        1 0.10107510E+00 0.30000000E+03</pdfrwt>
<pdfrwt beam="2">0</pdfrwt>
<totfact> 0.33695091E+01</totfact>
</mgrwt>
</event>
<event>
 6    1  0.1950139E-004  0.3000000E+03  0.7818608E-02  0.1093470E+00
          1   -1    0    0  502    0  0.00000000000E+00  0.00000000000E+00  0.34867735206E+02  0.34867735206E+02  0.00000000000E+00 0.  1.
         13   -1    0    0    0    0 -0.00000000000E+00 -0.00000000000E+00 -0.10000000000E+04  0.10000000000E+04  0.00000000000E+00 0.  1.
    9000005    2    1    2  501    0  0.31990310485E+02 -0.30304333892E+02 -0.89245254498E+03  0.94987318073E+03  0.32225111609E+03 0.  0.
         13    1    3    3    0    0 -0.33927645754E+02  0.13271105399E+03 -0.52407390531E+03  0.54167957984E+03  0.00000000000E+00 0.  1.
          3    1    3    3  501    0  0.65917956238E+02 -0.16301538788E+03 -0.36837863967E+03  0.40819360089E+03  0.00000000000E+00 0.  1.
         21    1    1    2  502  501 -0.31990310485E+02  0.30304333892E+02 -0.72679719816E+02  0.84994554473E+02  0.00000000000E+00 0. -1.
<mgrwt>
<rscale>  1 0.30000000E+03</rscale>
<asrwt>0</asrwt>
<pdfrwt beam="1">  1        1 0.12679203E+00 0.30000000E+03</pdfrwt>
<pdfrwt beam="2">0</pdfrwt>
<totfact> 0.23824428E+01</totfact>
</mgrwt>
</event>
<event>
 6    1  0.1950139E-004  0.3000000E+03  0.7818608E-02  0.1093470E+00
          1   -1    0    0  502    0  0.00000000000E+00  0.00000000000E+00  0.65801100335E+02  0.65801100335E+02  0.00000000000E+00 0.  1.
         13   -1    0    0    0    0 -0.00000000000E+00 -0.00000000000E+00 -0.10000000000E+04  0.10000000000E+04  0.00000000000E+00 0.  1.
    9000005    2    1    2  501    0  0.19556926150E+01  0.63067915753E+02 -0.94879739345E+03  0.10010361194E+04  0.31285049440E+03 0.  0.
         13    1    3    3    0    0  0.12702737412E+03  0.13784592501E+02 -0.18098102244E+03  0.22154028810E+03  0.00000000000E+00 0.  1.
          1    1    3    3  501    0 -0.12507168151E+03  0.49283323253E+02 -0.76781637101E+03  0.77949583133E+03  0.00000000000E+00 0.  1.
         21    1    1    2  502  501 -0.19556926150E+01 -0.63067915753E+02  0.14598493785E+02  0.64764980907E+02  0.00000000000E+00 0.  1.
<mgrwt>
<rscale>  1 0.30000000E+03</rscale>
<asrwt>0</asrwt>
<pdfrwt beam="1">  1        1 0.23927723E+00 0.30000000E+03</pdfrwt>
<pdfrwt beam="2">0</pdfrwt>
<totfact> 0.66958882E+00</totfact>
</mgrwt>
</event>
<event>
 6    1  0.1950139E-004  0.3000000E+03  0.7818608E-02  0.1093470E+00
          1   -1    0    0  502    0  0.00000000000E+00  0.00000000000E+00  0.36231071596E+02  0.36231071596E+02  0.00000000000E+00 0.  1.
         13   -1    0    0    0    0 -0.00000000000E+00 -0.00000000000E+00 -0.10000000000E+04  0.10000000000E+04  0.00000000000E+00 0.  1.
    9000005    2    1    2  501    0  0.25556732253E+02  0.41573813333E+02 -0.88220884822E+03  0.94118594969E+03  0.32427921842E+03 0.  0.
         13    1    3    3    0    0 -0.31093302792E+00 -0.14051290678E+03 -0.45133968203E+03  0.47270654980E+03  0.00000000000E+00 0.  1.
          3    1    3    3  501    0  0.25867665281E+02  0.18208672011E+03 -0.43086916619E+03  0.46847939989E+03  0.00000000000E+00 0.  1.
         21    1    1    2  502  501 -0.25556732253E+02 -0.41573813333E+02 -0.81560080181E+02  0.95045121903E+02  0.00000000000E+00 0.  1.
<mgrwt>
<rscale>  1 0.30000000E+03</rscale>
<asrwt>0</asrwt>
<pdfrwt beam="1">  1        1 0.13174963E+00 0.30000000E+03</pdfrwt>
<pdfrwt beam="2">0</pdfrwt>
<totfact> 0.22384992E+01</totfact>
</mgrwt>
</event>
<event>
 6    1  0.1950139E-004  0.3000000E+03  0.7818608E-02  0.1093470E+00
          1   -1    0    0  502    0  0.00000000000E+00  0.00000000000E+00  0.37304977659E+02  0.37304977659E+02  0.00000000000E+00 0.  1.
         13   -1    0    0    0    0 -0.00000000000E+00 -0.00000000000E+00 -0.10000000000E+04  0.10000000000E+04  0.00000000000E+00 0.  1.
    9000005    2    1    2  501    0 -0.12739361691E+01  0.13413457153E+02 -0.94331848243E+03  0.10137042564E+04  0.37089758203E+03 0.  0.
         13    1    3    3    0    0 -0.49329840675E+02 -0.63620447918E+02 -0.91508810665E+03  0.91862246735E+03  0.00000000000E+00 0.  1.
          1    1    3    3  501    0  0.48055904506E+02  0.77033905071E+02 -0.28230375774E+02  0.95081789028E+02  0.00000000000E+00 0.  1.
         21    1    1    2  502  501  0.12739361691E+01 -0.13413457153E+02 -0.19376539913E+02  0.23600721285E+02  0.00000000000E+00 0. -1.
<mgrwt>
<rscale>  1 0.30000000E+03</rscale>
<asrwt>0</asrwt>
<pdfrwt beam="1">  1        1 0.13565475E+00 0.30000000E+03</pdfrwt>
<pdfrwt beam="2">0</pdfrwt>
<totfact> 0.21330353E+01</totfact>
</mgrwt>
</event>
<event>
 6    1  0.1950139E-004  0.3000000E+03  0.7818608E-02  0.1093470E+00
          1   -1    0    0  502    0  0.00000000000E+00  0.00000000000E+00  0.38985452348E+02  0.38985452348E+02  0.00000000000E+00 0.  1.
         13   -1    0    0    0    0 -0.00000000000E+00 -0.00000000000E+00 -0.10000000000E+04  0.10000000000E+04  0.00000000000E+00 0.  1.
    9000005    2    1    2  501    0 -0.10733001136E+03  0.65003840348E+02 -0.68500194972E+03  0.73578884152E+03  0.23751277353E+03 0.  0.
         13    1    3    3    0    0 -0.17382565391E+03 -0.78171927570E+00 -0.47830228625E+03  0.50890966396E+03  0.00000000000E+00 0.  1.
          1    1    3    3  501    0  0.66495642544E+02  0.65785559624E+02 -0.20669966347E+03  0.22687917756E+03  0.00000000000E+00 0.  1.
         21    1    1    2  502  501  0.10733001136E+03 -0.65003840348E+02 -0.27601259793E+03  0.30319661083E+03  0.00000000000E+00 0.  1.
<mgrwt>
<rscale>  1 0.30000000E+03</rscale>
<asrwt>0</asrwt>
<pdfrwt beam="1">  1        1 0.14176558E+00 0.30000000E+03</pdfrwt>
<pdfrwt beam="2">0</pdfrwt>
<totfact> 0.19806715E+01</totfact>
</mgrwt>
</event>
<event>
 6    1  0.1950139E-004  0.3000000E+03  0.7818608E-02  0.1093470E+00
          1   -1    0    0  502    0  0.00000000000E+00  0.00000000000E+00  0.70444148257E+02  0.70444148257E+02  0.00000000000E+00 0.  1.
         13   -1    0    0    0    0 -0.00000000000E+00 -0.00000000000E+00 -0.10000000000E+04  0.10000000000E+04  0.00000000000E+00 0.  1.
    9000005    2    1    2  501    0 -0.18970094284E+02 -0.24799286994E+01 -0.97109314783E+03  0.10247127423E+04  0.32657049467E+03 0.  0.
         13    1    3    3    0    0 -0.13895993894E+03 -0.95014885717E+02 -0.61718859974E+03  0.63973389842E+03  0.00000000000E+00 0.  1.
          3    1    3    3  501    0  0.11998984466E+03  0.92534957018E+02 -0.35390454808E+03  0.38497884389E+03  0.00000000000E+00 0.  1.
         21    1    1    2  502  501  0.18970094284E+02  0.24799286994E+01  0.41537296083E+02  0.45731405941E+02  0.00000000000E+00 0.  1.
<mgrwt>
<rscale>  1 0.30000000E+03</rscale>
<asrwt>0</asrwt>
<pdfrwt beam="1">  1        1 0.25616108E+00 0.30000000E+03</pdfrwt>
<pdfrwt beam="2">0</pdfrwt>
<totfact> 0.55845554E+00</totfact>
</mgrwt>
</event>
<event>
 6    1  0.1950139E-004  0.3000000E+03  0.7818608E-02  0.1093470E+00
          1   -1    0    0  502    0  0.00000000000E+00  0.00000000000E+00  0.29021914724E+02  0.29021914724E+02  0.00000000000E+00 0.  1.
         13   -1    0    0    0    0 -0.00000000000E+00 -0.00000000000E+00 -0.10000000000E+04  0.10000000000E+04  0.00000000000E+00 0.  1.
    9000005    2    1    2  501    0  0.74790703929E+01 -0.14760714988E+02 -0.94285715594E+03  0.99639367745E+03  0.32178708606E+03 0.  0.
         13    1    3    3    0    0  0.14033648971E+03 -0.17643763077E+02 -0.22085778519E+03  0.26226664675E+03  0.00000000000E+00 0.  1.
          1    1    3    3  501    0 -0.13285741932E+03  0.28830480889E+01 -0.72199937075E+03  0.73412703070E+03  0.00000000000E+00 0.  1.
         21    1    1    2  502  501 -0.74790703929E+01  0.14760714988E+02 -0.28120929339E+02  0.32628237276E+02  0.00000000000E+00 0. -1.
<mgrwt>
<rscale>  1 0.30000000E+03</rscale>
<asrwt>0</asrwt>
<pdfrwt beam="1">  1        1 0.10553446E+00 0.30000000E+03</pdfrwt>
<pdfrwt beam="2">0</pdfrwt>
<totfact> 0.31613235E+01</totfact>
</mgrwt>
</event>
<event>
 6    1  0.1950139E-004  0.3000000E+03  0.7818608E-02  0.1093470E+00
          1   -1    0    0  502    0  0.00000000000E+00  0.00000000000E+00  0.39500062564E+02  0.39500062564E+02  0.00000000000E+00 0.  1.
         13   -1    0    0    0    0 -0.00000000000E+00 -0.00000000000E+00 -0.10000000000E+04  0.10000000000E+04  0.00000000000E+00 0.  1.
    9000005    2    1    2  501    0 -0.21771213541E+02  0.38054291477E+02 -0.93641246120E+03  0.98947685445E+03  0.31666075405E+03 0.  0.
         13    1    3    3    0    0  0.12434458140E+03 -0.65025171961E+02 -0.38326317844E+03  0.40814275917E+03  0.00000000000E+00 0.  1.
          3    1    3    3  501    0 -0.14611579494E+03  0.10307946344E+03 -0.55314928276E+03  0.58133409528E+03  0.00000000000E+00 0.  1.
         21    1    1    2  502  501  0.21771213541E+02 -0.38054291477E+02 -0.24087476234E+02  0.50023208116E+02  0.00000000000E+00 0.  1.
<mgrwt>
<rscale>  1 0.30000000E+03</rscale>
<asrwt>0</asrwt>
<pdfrwt beam="1">  1        1 0.14363689E+00 0.30000000E+03</pdfrwt>
<pdfrwt beam="2">0</pdfrwt>
<totfact> 0.19368032E+01</totfact>
</mgrwt>
</event>
<event>
 6    1  0.1950139E-004  0.3000000E+03  0.7818608E-02  0.1093470E+00
          1   -1    0    0  502    0  0.00000000000E+00  0.00000000000E+00  0.46401977955E+02  0.46401977955E+02  0.00000000000E+00 0.  1.
         13   -1    0    0    0    0 -0.00000000000E+00 -0.00000000000E+00 -0.10000000000E+04  0.10000000000E+04  0.00000000000E+00 0.  1.
    9000005    2    1    2  501    0 -0.32953354833E+02 -0.20118494437E+02 -0.93893105022E+03  0.10051006768E+04  0.35657422236E+03 0.  0.
         13    1    3    3    0    0  0.70236154833E+02 -0.17922344350E+02 -0.13255499272E+02  0.73688778886E+02  0.00000000000E+00 0.  1.
          3    1    3    3  501    0 -0.10318950967E+03 -0.21961500864E+01 -0.92567555095E+03  0.93141189793E+03  0.00000000000E+00 0.  1.
         21    1    1    2  502  501  0.32953354833E+02  0.20118494437E+02 -0.14666971821E+02  0.41301301136E+02  0.00000000000E+00 0.  1.
<mgrwt>
<rscale>  1 0.30000000E+03</rscale>
<asrwt>0</asrwt>
<pdfrwt beam="1">  1        1 0.16873482E+00 0.30000000E+03</pdfrwt>
<pdfrwt beam="2">0</pdfrwt>
<totfact> 0.14492255E+01</totfact>
</mgrwt>
</event>
<event>
 6    1  0.1950139E-004  0.3000000E+03  0.7818608E-02  0.1093470E+00
          1   -1    0    0  502    0  0.00000000000E+00  0.00000000000E+00  0.47535975873E+02  0.47535975873E+02  0.00000000000E+00 0.  1.
         13   -1    0    0    0    0 -0.00000000000E+00 -0.00000000000E+00 -0.10000000000E+04  0.10000000000E+04  0.00000000000E+00 0.  1.
    9000005    2    1    2  501    0 -0.70456107267E+02  0.56368756950E+02 -0.83084811892E+03  0.89610305934E+03  0.32334284657E+03 0.  0.
         13    1    3    3    0    0 -0.58762868380E+02 -0.13141879155E+03 -0.42607444260E+03  0.44973703884E+03  0.00000000000E+00 0.  1.
          3    1    3    3  501    0 -0.11693238886E+02  0.18778754850E+03 -0.40477367633E+03  0.44636602050E+03  0.00000000000E+00 0.  1.
         21    1    1    2  502  501  0.70456107267E+02 -0.56368756950E+02 -0.12161590520E+03  0.15143291653E+03  0.00000000000E+00 0. -1.
<mgrwt>
<rscale>  1 0.30000000E+03</rscale>
<asrwt>0</asrwt>
<pdfrwt beam="1">  1        1 0.17285846E+00 0.30000000E+03</pdfrwt>
<pdfrwt beam="2">0</pdfrwt>
<totfact> 0.13835772E+01</totfact>
</mgrwt>
</event>
<event>
 6    1  0.1950139E-004  0.3000000E+03  0.7818608E-02  0.1093470E+00
          1   -1    0    0  502    0  0.00000000000E+00  0.00000000000E+00  0.32288475887E+02  0.32288475887E+02  0.00000000000E+00 0.  1.
         13   -1    0    0    0    0 -0.00000000000E+00 -0.00000000000E+00 -0.10000000000E+04  0.10000000000E+04  0.00000000000E+00 0.  1.
    9000005    2    1    2  501    0  0.18173301994E+02 -0.19999821195E+02 -0.93135090333E+03  0.98698553452E+03  0.32556977509E+03 0.  0.
         13    1    3    3    0    0 -0.90288749983E+02  0.74055294760E+02 -0.73236833952E+03  0.74161959911E+03  0.00000000000E+00 0.  1.
          1    1    3    3  501    0  0.10846205198E+03 -0.94055115954E+02 -0.19898256381E+03  0.24536593541E+03  0.00000000000E+00 0.  1.
         21    1    1    2  502  501 -0.18173301994E+02  0.19999821195E+02 -0.36360620782E+02  0.45302941370E+02  0.00000000000E+00 0.  1.
<mgrwt>
<rscale>  1 0.30000000E+03</rscale>
<asrwt>0</asrwt>
<pdfrwt beam="1">  1        1 0.11741289E+00 0.30000000E+03</pdfrwt>
<pdfrwt beam="2">0</pdfrwt>
<totfact> 0.26891934E+01</totfact>
</mgrwt>
</event>
<event>
 6    1  0.1950139E-004  0.3000000E+03  0.7818608E-02  0.1093470E+00
          1   -1    0    0  502    0  0.00000000000E+00  0.00000000000E+00  0.90503776525E+02  0.90503776525E+02  0.00000000000E+00 0.  1.
         13   -1    0    0    0    0 -0.00000000000E+00 -0.00000000000E+00 -0.10000000000E+04  0.10000000000E+04  0.00000000000E+00 0.  1.
    9000005    2    1    2  501    0 -0.19535741291E+03  0.24901675751E+02 -0.52360269564E+03  0.65726201139E+03  0.34503471782E+03 0.  0.
         13    1    3    3    0    0 -0.28952374445E+02 -0.11328549664E+03 -0.38012133365E+03  0.39769846873E+03  0.00000000000E+00 0.  1.
          3    1    3    3  501    0 -0.16640503846E+03  0.13818717239E+03 -0.14348136199E+03  0.25956354266E+03  0.00000000000E+00 0.  1.
         21    1    1    2  502  501  0.19535741291E+03 -0.24901675751E+02 -0.38589352783E+03  0.43324176513E+03  0.00000000000E+00 0.  1.
<mgrwt>
<rscale>  1 0.30000000E+03</rscale>
<asrwt>0</asrwt>
<pdfrwt beam="1">  1        1 0.32910534E+00 0.30000000E+03</pdfrwt>
<pdfrwt beam="2">0</pdfrwt>
<totfact> 0.25118518E+00</totfact>
</mgrwt>
</event>
<event>
 6    1  0.1950139E-004  0.3000000E+03  0.7818608E-02  0.1093470E+00
          1   -1    0    0  502    0  0.00000000000E+00  0.00000000000E+00  0.74698016259E+02  0.74698016259E+02  0.00000000000E+00 0.  1.
         13   -1    0    0    0    0 -0.00000000000E+00 -0.00000000000E+00 -0.10000000000E+04  0.10000000000E+04  0.00000000000E+00 0.  1.
    9000005    2    1    2  501    0  0.11382897120E+02  0.16137861321E+01 -0.98583833054E+03  0.10130796429E+04  0.23306860411E+03 0.  0.
         13    1    3    3    0    0  0.79763780282E+02 -0.28239832922E+02 -0.13738432369E+03  0.16135117354E+03  0.00000000000E+00 0.  1.
          3    1    3    3  501    0 -0.68380883162E+02  0.29853619054E+02 -0.84845400686E+03  0.85172846935E+03  0.00000000000E+00 0.  1.
         21    1    1    2  502  501 -0.11382897120E+02 -0.16137861321E+01  0.60536346801E+02  0.61618373368E+02  0.00000000000E+00 0.  1.
<mgrwt>
<rscale>  1 0.30000000E+03</rscale>
<asrwt>0</asrwt>
<pdfrwt beam="1">  1        1 0.27162972E+00 0.30000000E+03</pdfrwt>
<pdfrwt beam="2">0</pdfrwt>
<totfact> 0.47244151E+00</totfact>
</mgrwt>
</event>
<event>
 6    1  0.1950139E-004  0.3000000E+03  0.7818608E-02  0.1093470E+00
          1   -1    0    0  502    0  0.00000000000E+00  0.00000000000E+00  0.32214838852E+02  0.32214838852E+02  0.00000000000E+00 0.  1.
         13   -1    0    0    0    0 -0.00000000000E+00 -0.00000000000E+00 -0.10000000000E+04  0.10000000000E+04  0.00000000000E+00 0.  1.
    9000005    2    1    2  501    0 -0.35358833920E+02 -0.39065758119E+00 -0.87768885084E+03  0.93542772773E+03  0.32161609903E+03 0.  0.
         13    1    3    3    0    0 -0.15538336258E+03  0.35800432184E+02 -0.70022674955E+03  0.71815260294E+03  0.00000000000E+00 0.  1.
          3    1    3    3  501    0  0.12002452866E+03 -0.36191089765E+02 -0.17746210129E+03  0.21727512479E+03  0.00000000000E+00 0.  1.
         21    1    1    2  502  501  0.35358833920E+02  0.39065758119E+00 -0.90096310306E+02  0.96787111127E+02  0.00000000000E+00 0.  1.
<mgrwt>
<rscale>  1 0.30000000E+03</rscale>
<asrwt>0</asrwt>
<pdfrwt beam="1">  1        1 0.11714512E+00 0.30000000E+03</pdfrwt>
<pdfrwt beam="2">0</pdfrwt>
<totfact> 0.26987053E+01</totfact>
</mgrwt>
</event>
<event>
 6    1  0.1950139E-004  0.3000000E+03  0.7818608E-02  0.1093470E+00
          1   -1    0    0  502    0  0.00000000000E+00  0.00000000000E+00  0.31434630567E+02  0.31434630567E+02  0.00000000000E+00 0.  1.
         13   -1    0    0    0    0 -0.00000000000E+00 -0.00000000000E+00 -0.10000000000E+04  0.10000000000E+04  0.00000000000E+00 0.  1.
    9000005    2    1    2  501    0 -0.31548153752E+00  0.14093073378E+02 -0.95587987753E+03  0.10124705606E+04  0.33345401710E+03 0.  0.
         13    1    3    3    0    0 -0.10653614633E+03  0.68982870480E+01 -0.86766503491E+03  0.87420829877E+03  0.00000000000E+00 0.  1.
          3    1    3    3  501    0  0.10622066480E+03  0.71947863305E+01 -0.88214842625E+02  0.13826226181E+03  0.00000000000E+00 0.  1.
         21    1    1    2  502  501  0.31548153752E+00 -0.14093073378E+02 -0.12685491901E+02  0.18964069991E+02  0.00000000000E+00 0.  1.
<mgrwt>
<rscale>  1 0.30000000E+03</rscale>
<asrwt>0</asrwt>
<pdfrwt beam="1">  1        1 0.11430799E+00 0.30000000E+03</pdfrwt>
<pdfrwt beam="2">0</pdfrwt>
<totfact> 0.28024158E+01</totfact>
</mgrwt>
</event>
<event>
 6    1  0.1950139E-004  0.3000000E+03  0.7818608E-02  0.1093470E+00
          1   -1    0    0  502    0  0.00000000000E+00  0.00000000000E+00  0.26860757771E+02  0.26860757771E+02  0.00000000000E+00 0.  1.
         13   -1    0    0    0    0 -0.00000000000E+00 -0.00000000000E+00 -0.10000000000E+04  0.10000000000E+04  0.00000000000E+00 0.  1.
    9000005    2    1    2  501    0  0.20511502888E+02 -0.19435185211E+01 -0.94241245146E+03  0.98986569478E+03  0.30210654745E+03 0.  0.
         13    1    3    3    0    0  0.15921995323E+03 -0.61585110291E+01 -0.41608066513E+03  0.44554690063E+03  0.00000000000E+00 0.  1.
          1    1    3    3  501    0 -0.13870845035E+03  0.42149925080E+01 -0.52633178634E+03  0.54431879415E+03  0.00000000000E+00 0.  1.
         21    1    1    2  502  501 -0.20511502888E+02  0.19435185211E+01 -0.30726790765E+02  0.36995062991E+02  0.00000000000E+00 0. -1.
<mgrwt>
<rscale>  1 0.30000000E+03</rscale>
<asrwt>0</asrwt>
<pdfrwt beam="1">  1        1 0.97675689E-01 0.30000000E+03</pdfrwt>
<pdfrwt beam="2">0</pdfrwt>
<totfact> 0.35419929E+01</totfact>
</mgrwt>
</event>
<event>
 6    1  0.1950139E-004  0.3000000E+03  0.7818608E-02  0.1093470E+00
          1   -1    0    0  502    0  0.00000000000E+00  0.00000000000E+00  0.37919844527E+02  0.37919844527E+02  0.00000000000E+00 0.  1.
         13   -1    0    0    0    0 -0.00000000000E+00 -0.00000000000E+00 -0.10000000000E+04  0.10000000000E+04  0.00000000000E+00 0.  1.
    9000005    2    1    2  501    0 -0.47690587262E+01 -0.26056905782E+02 -0.95229190292E+03  0.10096795161E+04  0.33450134627E+03 0.  0.
         13    1    3    3    0    0  0.13805125162E+03 -0.75824020680E+02 -0.68199399627E+03  0.69994517009E+03  0.00000000000E+00 0.  1.
          3    1    3    3  501    0 -0.14282031035E+03  0.49767114898E+02 -0.27029790665E+03  0.30973434604E+03  0.00000000000E+00 0.  1.
         21    1    1    2  502  501  0.47690587262E+01  0.26056905782E+02 -0.97882525516E+01  0.28240328399E+02  0.00000000000E+00 0. -1.
<mgrwt>
<rscale>  1 0.30000000E+03</rscale>
<asrwt>0</asrwt>
<pdfrwt beam="1">  1        1 0.13789063E+00 0.30000000E+03</pdfrwt>
<pdfrwt beam="2">0</pdfrwt>
<totfact> 0.20756001E+01</totfact>
</mgrwt>
</event>
<event>
 6    1  0.1950139E-004  0.3000000E+03  0.7818608E-02  0.1093470E+00
          1   -1    0    0  502    0  0.00000000000E+00  0.00000000000E+00  0.28094912763E+02  0.28094912763E+02  0.00000000000E+00 0.  1.
         13   -1    0    0    0    0 -0.00000000000E+00 -0.00000000000E+00 -0.10000000000E+04  0.10000000000E+04  0.00000000000E+00 0.  1.
    9000005    2    1    2  501    0 -0.95347207996E+00 -0.13903539053E+02 -0.95099845829E+03  0.10029691363E+04  0.31836269138E+03 0.  0.
         13    1    3    3    0    0 -0.14009817596E+03 -0.58292042321E+02 -0.66191247933E+03  0.67908290466E+03  0.00000000000E+00 0.  1.
          3    1    3    3  501    0  0.13914470388E+03  0.44388503268E+02 -0.28908597896E+03  0.32388623168E+03  0.00000000000E+00 0.  1.
         21    1    1    2  502  501  0.95347207996E+00  0.13903539053E+02 -0.20906628946E+02  0.25125776428E+02  0.00000000000E+00 0.  1.
<mgrwt>
<rscale>  1 0.30000000E+03</rscale>
<asrwt>0</asrwt>
<pdfrwt beam="1">  1        1 0.10216353E+00 0.30000000E+03</pdfrwt>
<pdfrwt beam="2">0</pdfrwt>
<totfact> 0.33168907E+01</totfact>
</mgrwt>
</event>
<event>
 6    1  0.1950139E-004  0.3000000E+03  0.7818608E-02  0.1093470E+00
          1   -1    0    0  502    0  0.00000000000E+00  0.00000000000E+00  0.31788138353E+02  0.31788138353E+02  0.00000000000E+00 0.  1.
         13   -1    0    0    0    0 -0.00000000000E+00 -0.00000000000E+00 -0.10000000000E+04  0.10000000000E+04  0.00000000000E+00 0.  1.
    9000005    2    1    2  501    0 -0.23588448488E+02  0.17901020430E+02 -0.91762365565E+03  0.97317049578E+03  0.32272399821E+03 0.  0.
         13    1    3    3    0    0  0.24899807781E+01 -0.41645471892E+02  0.10300061074E+02  0.42972509719E+02  0.00000000000E+00 0.  1.
          3    1    3    3  501    0 -0.26078429266E+02  0.59546492322E+02 -0.92792371672E+03  0.93019798606E+03  0.00000000000E+00 0.  1.
         21    1    1    2  502  501  0.23588448488E+02 -0.17901020430E+02 -0.50588205999E+02  0.58617642572E+02  0.00000000000E+00 0. -1.
<mgrwt>
<rscale>  1 0.30000000E+03</rscale>
<asrwt>0</asrwt>
<pdfrwt beam="1">  1        1 0.11559347E+00 0.30000000E+03</pdfrwt>
<pdfrwt beam="2">0</pdfrwt>
<totfact> 0.27547489E+01</totfact>
</mgrwt>
</event>
<event>
 6    1  0.1950139E-004  0.3000000E+03  0.7818608E-02  0.1093470E+00
          1   -1    0    0  502    0  0.00000000000E+00  0.00000000000E+00  0.42382739272E+02  0.42382739272E+02  0.00000000000E+00 0.  1.
         13   -1    0    0    0    0 -0.00000000000E+00 -0.00000000000E+00 -0.10000000000E+04  0.10000000000E+04  0.00000000000E+00 0.  1.
    9000005    2    1    2  501    0 -0.26697984225E+02  0.27607091424E+02 -0.94657145733E+03  0.10024209621E+04  0.32768174750E+03 0.  0.
         13    1    3    3    0    0 -0.87785900166E+02  0.72911288181E+02 -0.91159486596E+03  0.91870975822E+03  0.00000000000E+00 0.  1.
          3    1    3    3  501    0  0.61087915941E+02 -0.45304196757E+02 -0.34976591377E+02  0.83711203923E+02  0.00000000000E+00 0.  1.
         21    1    1    2  502  501  0.26697984225E+02 -0.27607091424E+02 -0.11045803393E+02  0.39961777128E+02  0.00000000000E+00 0.  1.
<mgrwt>
<rscale>  1 0.30000000E+03</rscale>
<asrwt>0</asrwt>
<pdfrwt beam="1">  1        1 0.15411938E+00 0.30000000E+03</pdfrwt>
<pdfrwt beam="2">0</pdfrwt>
<totfact> 0.17123553E+01</totfact>
</mgrwt>
</event>
<event>
 6    1  0.1950139E-004  0.3000000E+03  0.7818608E-02  0.1093470E+00
          1   -1    0    0  502    0  0.00000000000E+00  0.00000000000E+00  0.25040361633E+02  0.25040361633E+02  0.00000000000E+00 0.  1.
         13   -1    0    0    0    0 -0.00000000000E+00 -0.00000000000E+00 -0.10000000000E+04  0.10000000000E+04  0.00000000000E+00 0.  1.
    9000005    2    1    2  501    0 -0.15439630906E+02  0.55361045961E+01 -0.92767914206E+03  0.97499562178E+03  0.29959779907E+03 0.  0.
         13    1    3    3    0    0 -0.36785769225E+02 -0.44905774500E+02 -0.14049053981E+02  0.59725181612E+02  0.00000000000E+00 0.  1.
          3    1    3    3  501    0  0.21346138319E+02  0.50441879096E+02 -0.91363008808E+03  0.91527044016E+03  0.00000000000E+00 0.  1.
         21    1    1    2  502  501  0.15439630906E+02 -0.55361045961E+01 -0.47280496303E+02  0.50044739856E+02  0.00000000000E+00 0. -1.
<mgrwt>
<rscale>  1 0.30000000E+03</rscale>
<asrwt>0</asrwt>
<pdfrwt beam="1">  1        1 0.91056052E-01 0.30000000E+03</pdfrwt>
<pdfrwt beam="2">0</pdfrwt>
<totfact> 0.39177458E+01</totfact>
</mgrwt>
</event>
<event>
 6    1  0.1950139E-004  0.3000000E+03  0.7818608E-02  0.1093470E+00
          1   -1    0    0  502    0  0.00000000000E+00  0.00000000000E+00  0.29768472931E+02  0.29768472931E+02  0.00000000000E+00 0.  1.
         13   -1    0    0    0    0 -0.00000000000E+00 -0.00000000000E+00 -0.10000000000E+04  0.10000000000E+04  0.00000000000E+00 0.  1.
    9000005    2    1    2  501    0 -0.11922294481E+02 -0.51512721939E+01 -0.93202754821E+03  0.98941725596E+03  0.33181693604E+03 0.  0.
         13    1    3    3    0    0 -0.14078980841E+03  0.94028894434E+02 -0.49046564298E+03  0.51886390324E+03  0.00000000000E+00 0.  1.
          1    1    3    3  501    0  0.12886751393E+03 -0.99180166628E+02 -0.44156190524E+03  0.47055335272E+03  0.00000000000E+00 0.  1.
         21    1    1    2  502  501  0.11922294481E+02  0.51512721939E+01 -0.38203978854E+02  0.40351216973E+02  0.00000000000E+00 0. -1.
<mgrwt>
<rscale>  1 0.30000000E+03</rscale>
<asrwt>0</asrwt>
<pdfrwt beam="1">  1        1 0.10824922E+00 0.30000000E+03</pdfrwt>
<pdfrwt beam="2">0</pdfrwt>
<totfact> 0.30435896E+01</totfact>
</mgrwt>
</event>
<event>
 6    1  0.1950139E-004  0.3000000E+03  0.7818608E-02  0.1093470E+00
          1   -1    0    0  502    0  0.00000000000E+00  0.00000000000E+00  0.35442019500E+02  0.35442019500E+02  0.00000000000E+00 0.  1.
         13   -1    0    0    0    0 -0.00000000000E+00 -0.00000000000E+00 -0.10000000000E+04  0.10000000000E+04  0.00000000000E+00 0.  1.
    9000005    2    1    2  501    0 -0.22664988881E+02  0.12257231713E+02 -0.94631379696E+03  0.10038700116E+04  0.33403780686E+03 0.  0.
         13    1    3    3    0    0  0.15391071380E+03  0.24570580816E+02 -0.50035715860E+03  0.52407013598E+03  0.00000000000E+00 0.  1.
          3    1    3    3  501    0 -0.17657570268E+03 -0.12313349104E+02 -0.44595663836E+03  0.47979987561E+03  0.00000000000E+00 0.  1.
         21    1    1    2  502  501  0.22664988881E+02 -0.12257231713E+02 -0.18244183539E+02  0.31572007906E+02  0.00000000000E+00 0. -1.
<mgrwt>
<rscale>  1 0.30000000E+03</rscale>
<asrwt>0</asrwt>
<pdfrwt beam="1">  1        1 0.12888034E+00 0.30000000E+03</pdfrwt>
<pdfrwt beam="2">0</pdfrwt>
<totfact> 0.23203899E+01</totfact>
</mgrwt>
</event>
<event>
 6    1  0.1950139E-004  0.3000000E+03  0.7818608E-02  0.1093470E+00
          1   -1    0    0  502    0  0.00000000000E+00  0.00000000000E+00  0.55053494876E+02  0.55053494876E+02  0.00000000000E+00 0.  1.
         13   -1    0    0    0    0 -0.00000000000E+00 -0.00000000000E+00 -0.10000000000E+04  0.10000000000E+04  0.00000000000E+00 0.  1.
    9000005    2    1    2  501    0  0.10496794465E+03  0.23674420584E+02 -0.84362176824E+03  0.90725143163E+03  0.31595684003E+03 0.  0.
         13    1    3    3    0    0 -0.95416286285E+02  0.52284875192E+02 -0.15414525475E+03  0.18867627149E+03  0.00000000000E+00 0.  1.
          3    1    3    3  501    0  0.20038423093E+03 -0.28610454608E+02 -0.68947651349E+03  0.71857516014E+03  0.00000000000E+00 0.  1.
         21    1    1    2  502  501 -0.10496794465E+03 -0.23674420584E+02 -0.10132473689E+03  0.14780206324E+03  0.00000000000E+00 0.  1.
<mgrwt>
<rscale>  1 0.30000000E+03</rscale>
<asrwt>0</asrwt>
<pdfrwt beam="1">  1        1 0.20019495E+00 0.30000000E+03</pdfrwt>
<pdfrwt beam="2">0</pdfrwt>
<totfact> 0.10221583E+01</totfact>
</mgrwt>
</event>
<event>
 6    1  0.1950139E-004  0.3000000E+03  0.7818608E-02  0.1093470E+00
          1   -1    0    0  502    0  0.00000000000E+00  0.00000000000E+00  0.54726415374E+02  0.54726415374E+02  0.00000000000E+00 0.  1.
         13   -1    0    0    0    0 -0.00000000000E+00 -0.00000000000E+00 -0.10000000000E+04  0.10000000000E+04  0.00000000000E+00 0.  1.
    9000005    2    1    2  501    0  0.19426418687E+02 -0.28415714194E+02 -0.96355912266E+03  0.10157495061E+04  0.31955600091E+03 0.  0.
         13    1    3    3    0    0 -0.79198181064E+02  0.46524060199E+02 -0.74955939266E+02  0.11855476748E+03  0.00000000000E+00 0.  1.
          1    1    3    3  501    0  0.98624599751E+02 -0.74939774393E+02 -0.88860318339E+03  0.89719473861E+03  0.00000000000E+00 0.  1.
         21    1    1    2  502  501 -0.19426418687E+02  0.28415714194E+02  0.18285538029E+02  0.38976909282E+02  0.00000000000E+00 0.  1.
<mgrwt>
<rscale>  1 0.30000000E+03</rscale>
<asrwt>0</asrwt>
<pdfrwt beam="1">  1        1 0.19900557E+00 0.30000000E+03</pdfrwt>
<pdfrwt beam="2">0</pdfrwt>
<totfact> 0.10355558E+01</totfact>
</mgrwt>
</event>
<event>
 6    1  0.1950139E-004  0.3000000E+03  0.7818608E-02  0.1093470E+00
          1   -1    0    0  502    0  0.00000000000E+00  0.00000000000E+00  0.38113002575E+02  0.38113002575E+02  0.00000000000E+00 0.  1.
         13   -1    0    0    0    0 -0.00000000000E+00 -0.00000000000E+00 -0.10000000000E+04  0.10000000000E+04  0.00000000000E+00 0.  1.
    9000005    2    1    2  501    0 -0.58465785884E+02 -0.35297981575E+02 -0.87043243114E+03  0.92397215399E+03  0.30233711075E+03 0.  0.
         13    1    3    3    0    0  0.89832986787E+02  0.78442223522E+02 -0.27103438430E+03  0.29611279172E+03  0.00000000000E+00 0.  1.
          3    1    3    3  501    0 -0.14829877267E+03 -0.11374020510E+03 -0.59939804684E+03  0.62785936227E+03  0.00000000000E+00 0.  1.
         21    1    1    2  502  501  0.58465785884E+02  0.35297981575E+02 -0.91454566284E+02  0.11414084859E+03  0.00000000000E+00 0. -1.
<mgrwt>
<rscale>  1 0.30000000E+03</rscale>
<asrwt>0</asrwt>
<pdfrwt beam="1">  1        1 0.13859303E+00 0.30000000E+03</pdfrwt>
<pdfrwt beam="2">0</pdfrwt>
<totfact> 0.20579689E+01</totfact>
</mgrwt>
</event>
<event>
 6    1  0.1950139E-004  0.3000000E+03  0.7818608E-02  0.1093470E+00
          3   -1    0    0  502    0  0.00000000000E+00  0.00000000000E+00  0.32632520136E+02  0.32632520136E+02  0.00000000000E+00 0.  1.
         13   -1    0    0    0    0 -0.00000000000E+00 -0.00000000000E+00 -0.10000000000E+04  0.10000000000E+04  0.00000000000E+00 0.  1.
    9000005    2    1    2  501    0 -0.80567557406E+01 -0.18498684241E+02 -0.95156987087E+03  0.10070068088E+04  0.32889265906E+03 0.  0.
         13    1    3    3    0    0 -0.52588977803E+02  0.55676522134E+02 -0.31391465062E+02  0.82770162390E+02  0.00000000000E+00 0.  1.
          1    1    3    3  501    0  0.44532222063E+02 -0.74175206375E+02 -0.92017840581E+03  0.92423664641E+03  0.00000000000E+00 0.  1.
         21    1    1    2  502  501  0.80567557406E+01  0.18498684241E+02 -0.15797608992E+02  0.25625711338E+02  0.00000000000E+00 0. -1.
<mgrwt>
<rscale>  1 0.30000000E+03</rscale>
<asrwt>0</asrwt>
<pdfrwt beam="1">  1        3 0.11866396E+00 0.30000000E+03</pdfrwt>
<pdfrwt beam="2">0</pdfrwt>
<totfact> 0.23968905E+00</totfact>
</mgrwt>
</event>
<event>
 6    1  0.1950139E-004  0.3000000E+03  0.7818608E-02  0.1093470E+00
          1   -1    0    0  502    0  0.00000000000E+00  0.00000000000E+00  0.58946851531E+02  0.58946851531E+02  0.00000000000E+00 0.  1.
         13   -1    0    0    0    0 -0.00000000000E+00 -0.00000000000E+00 -0.10000000000E+04  0.10000000000E+04  0.00000000000E+00 0.  1.
    9000005    2    1    2  501    0 -0.16227417125E+02 -0.33767905173E+02 -0.96297756357E+03  0.10155385520E+04  0.32029542968E+03 0.  0.
         13    1    3    3    0    0 -0.50836615246E+02 -0.39202859767E+02 -0.97604021943E+03  0.97814913772E+03  0.00000000000E+00 0.  1.
          3    1    3    3  501    0  0.34609198121E+02  0.54349545941E+01  0.13062655862E+02  0.37389414333E+02  0.00000000000E+00 0.  1.
         21    1    1    2  502  501  0.16227417125E+02  0.33767905173E+02  0.21924415102E+02  0.43408299482E+02  0.00000000000E+00 0.  1.
<mgrwt>
<rscale>  1 0.30000000E+03</rscale>
<asrwt>0</asrwt>
<pdfrwt beam="1">  1        1 0.21435264E+00 0.30000000E+03</pdfrwt>
<pdfrwt beam="2">0</pdfrwt>
<totfact> 0.87621086E+00</totfact>
</mgrwt>
</event>
<event>
 6    1  0.1950139E-004  0.3000000E+03  0.7818608E-02  0.1093470E+00
          1   -1    0    0  502    0  0.00000000000E+00  0.00000000000E+00  0.28263056273E+02  0.28263056273E+02  0.00000000000E+00 0.  1.
         13   -1    0    0    0    0 -0.00000000000E+00 -0.00000000000E+00 -0.10000000000E+04  0.10000000000E+04  0.00000000000E+00 0.  1.
    9000005    2    1    2  501    0 -0.19797740724E+01 -0.10006432013E+02 -0.96690387516E+03  0.10169755969E+04  0.31501144857E+03 0.  0.
         13    1    3    3    0    0 -0.62820462614E+02  0.13990822960E+03 -0.47652248977E+03  0.50059405359E+03  0.00000000000E+00 0.  1.
          3    1    3    3  501    0  0.60840688541E+02 -0.14991466161E+03 -0.49038138539E+03  0.51638154332E+03  0.00000000000E+00 0.  1.
         21    1    1    2  502  501  0.19797740724E+01  0.10006432013E+02 -0.48330685630E+01  0.11287459357E+02  0.00000000000E+00 0.  1.
<mgrwt>
<rscale>  1 0.30000000E+03</rscale>
<asrwt>0</asrwt>
<pdfrwt beam="1">  1        1 0.10277497E+00 0.30000000E+03</pdfrwt>
<pdfrwt beam="2">0</pdfrwt>
<totfact> 0.32878580E+01</totfact>
</mgrwt>
</event>
<event>
 6    1  0.1950139E-004  0.3000000E+03  0.7818608E-02  0.1093470E+00
          1   -1    0    0  502    0  0.00000000000E+00  0.00000000000E+00  0.31148942478E+02  0.31148942478E+02  0.00000000000E+00 0.  1.
         13   -1    0    0    0    0 -0.00000000000E+00 -0.00000000000E+00 -0.10000000000E+04  0.10000000000E+04  0.00000000000E+00 0.  1.
    9000005    2    1    2  501    0  0.19825663064E+02  0.11903966891E+02 -0.94157798865E+03  0.99539168266E+03  0.32202598010E+03 0.  0.
         13    1    3    3    0    0  0.21399617501E+02  0.37969166101E+02  0.89593428749E+01  0.44495741688E+02  0.00000000000E+00 0.  1.
          3    1    3    3  501    0 -0.15739544371E+01 -0.26065199210E+02 -0.95053733152E+03  0.95089594098E+03  0.00000000000E+00 0.  1.
         21    1    1    2  502  501 -0.19825663064E+02 -0.11903966891E+02 -0.27273068874E+02  0.35757259815E+02  0.00000000000E+00 0.  1.
<mgrwt>
<rscale>  1 0.30000000E+03</rscale>
<asrwt>0</asrwt>
<pdfrwt beam="1">  1        1 0.11326912E+00 0.30000000E+03</pdfrwt>
<pdfrwt beam="2">0</pdfrwt>
<totfact> 0.28417922E+01</totfact>
</mgrwt>
</event>
<event>
 6    1  0.1950139E-004  0.3000000E+03  0.7818608E-02  0.1093470E+00
          1   -1    0    0  502    0  0.00000000000E+00  0.00000000000E+00  0.38681868111E+02  0.38681868111E+02  0.00000000000E+00 0.  1.
         13   -1    0    0    0    0 -0.00000000000E+00 -0.00000000000E+00 -0.10000000000E+04  0.10000000000E+04  0.00000000000E+00 0.  1.
    9000005    2    1    2  501    0  0.19158158923E+02 -0.63170298780E+01 -0.94386462072E+03  0.10120066929E+04  0.36451362708E+03 0.  0.
         13    1    3    3    0    0  0.11585558122E+03 -0.14701127700E+03 -0.59251653813E+03  0.62137804855E+03  0.00000000000E+00 0.  1.
          3    1    3    3  501    0 -0.96697422302E+02  0.14069424712E+03 -0.35134808260E+03  0.39062864436E+03  0.00000000000E+00 0.  1.
         21    1    1    2  502  501 -0.19158158923E+02  0.63170298780E+01 -0.17453511168E+02  0.26675175199E+02  0.00000000000E+00 0. -1.
<mgrwt>
<rscale>  1 0.30000000E+03</rscale>
<asrwt>0</asrwt>
<pdfrwt beam="1">  1        1 0.14066164E+00 0.30000000E+03</pdfrwt>
<pdfrwt beam="2">0</pdfrwt>
<totfact> 0.20071424E+01</totfact>
</mgrwt>
</event>
<event>
 6    1  0.1950139E-004  0.3000000E+03  0.7818608E-02  0.1093470E+00
          1   -1    0    0  502    0  0.00000000000E+00  0.00000000000E+00  0.49363479506E+02  0.49363479506E+02  0.00000000000E+00 0.  1.
         13   -1    0    0    0    0 -0.00000000000E+00 -0.00000000000E+00 -0.10000000000E+04  0.10000000000E+04  0.00000000000E+00 0.  1.
    9000005    2    1    2  501    0  0.94604739126E+02  0.92445150426E+01 -0.81525580263E+03  0.88394444646E+03  0.32814667907E+03 0.  0.
         13    1    3    3    0    0  0.64637832941E+02  0.21114855834E+01 -0.84119271835E+03  0.84367511355E+03  0.00000000000E+00 0.  1.
          1    1    3    3  501    0  0.29966906185E+02  0.71330294592E+01  0.25936915725E+02  0.40269332908E+02  0.00000000000E+00 0.  1.
         21    1    1    2  502  501 -0.94604739126E+02 -0.92445150426E+01 -0.13538071787E+03  0.16541903305E+03  0.00000000000E+00 0. -1.
<mgrwt>
<rscale>  1 0.30000000E+03</rscale>
<asrwt>0</asrwt>
<pdfrwt beam="1">  1        1 0.17950394E+00 0.30000000E+03</pdfrwt>
<pdfrwt beam="2">0</pdfrwt>
<totfact> 0.12845239E+01</totfact>
</mgrwt>
</event>
<event>
 6    1  0.1950139E-004  0.3000000E+03  0.7818608E-02  0.1093470E+00
          1   -1    0    0  502    0  0.00000000000E+00  0.00000000000E+00  0.31978834667E+02  0.31978834667E+02  0.00000000000E+00 0.  1.
         13   -1    0    0    0    0 -0.00000000000E+00 -0.00000000000E+00 -0.10000000000E+04  0.10000000000E+04  0.00000000000E+00 0.  1.
    9000005    2    1    2  501    0 -0.24672070968E+01 -0.11243224536E+02 -0.96535561244E+03  0.10201634895E+04  0.32968104231E+03 0.  0.
         13    1    3    3    0    0  0.14638340137E+03 -0.76296022562E+02 -0.42554541623E+03  0.45644066923E+03  0.00000000000E+00 0.  1.
          1    1    3    3  501    0 -0.14885060847E+03  0.65052798026E+02 -0.53981019622E+03  0.56372282029E+03  0.00000000000E+00 0.  1.
         21    1    1    2  502  501  0.24672070968E+01  0.11243224536E+02 -0.26655528898E+01  0.11815345151E+02  0.00000000000E+00 0.  1.
<mgrwt>
<rscale>  1 0.30000000E+03</rscale>
<asrwt>0</asrwt>
<pdfrwt beam="1">  1        1 0.11628692E+00 0.30000000E+03</pdfrwt>
<pdfrwt beam="2">0</pdfrwt>
<totfact> 0.27295051E+01</totfact>
</mgrwt>
</event>
<event>
 6    1  0.1950139E-004  0.3000000E+03  0.7818608E-02  0.1093470E+00
          1   -1    0    0  502    0  0.00000000000E+00  0.00000000000E+00  0.29299166310E+02  0.29299166310E+02  0.00000000000E+00 0.  1.
         13   -1    0    0    0    0 -0.00000000000E+00 -0.00000000000E+00 -0.10000000000E+04  0.10000000000E+04  0.00000000000E+00 0.  1.
    9000005    2    1    2  501    0  0.10135133966E+02  0.83738831469E+01 -0.94820494203E+03  0.10032433032E+04  0.32746247192E+03 0.  0.
         13    1    3    3    0    0 -0.75522525096E+02  0.25985979409E+02 -0.37297426601E+02  0.88147722340E+02  0.00000000000E+00 0.  1.
          1    1    3    3  501    0  0.85657659062E+02 -0.17612096262E+02 -0.91090751542E+03  0.91509558088E+03  0.00000000000E+00 0.  1.
         21    1    1    2  502  501 -0.10135133966E+02 -0.83738831469E+01 -0.22495891665E+02  0.26055863088E+02  0.00000000000E+00 0.  1.
<mgrwt>
<rscale>  1 0.30000000E+03</rscale>
<asrwt>0</asrwt>
<pdfrwt beam="1">  1        1 0.10654265E+00 0.30000000E+03</pdfrwt>
<pdfrwt beam="2">0</pdfrwt>
<totfact> 0.31168484E+01</totfact>
</mgrwt>
</event>
<event>
 6    1  0.1950139E-004  0.3000000E+03  0.7818608E-02  0.1093470E+00
          1   -1    0    0  502    0  0.00000000000E+00  0.00000000000E+00  0.28677915740E+02  0.28677915740E+02  0.00000000000E+00 0.  1.
         13   -1    0    0    0    0 -0.00000000000E+00 -0.00000000000E+00 -0.10000000000E+04  0.10000000000E+04  0.00000000000E+00 0.  1.
    9000005    2    1    2  501    0 -0.76793465657E+01  0.15380141153E+02 -0.95179694696E+03  0.10026634565E+04  0.31483496876E+03 0.  0.
         13    1    3    3    0    0  0.45796145836E+02  0.15523715517E+03 -0.57070887616E+03  0.59321537627E+03  0.00000000000E+00 0.  1.
          3    1    3    3  501    0 -0.53475492402E+02 -0.13985701401E+03 -0.38108807080E+03  0.40944808018E+03  0.00000000000E+00 0.  1.
         21    1    1    2  502  501  0.76793465657E+01 -0.15380141153E+02 -0.19525137296E+02  0.26014459287E+02  0.00000000000E+00 0. -1.
<mgrwt>
<rscale>  1 0.30000000E+03</rscale>
<asrwt>0</asrwt>
<pdfrwt beam="1">  1        1 0.10428355E+00 0.30000000E+03</pdfrwt>
<pdfrwt beam="2">0</pdfrwt>
<totfact> 0.32177910E+01</totfact>
</mgrwt>
</event>
<event>
 6    1  0.1950139E-004  0.3000000E+03  0.7818608E-02  0.1093470E+00
          1   -1    0    0  502    0  0.00000000000E+00  0.00000000000E+00  0.33576522061E+02  0.33576522061E+02  0.00000000000E+00 0.  1.
         13   -1    0    0    0    0 -0.00000000000E+00 -0.00000000000E+00 -0.10000000000E+04  0.10000000000E+04  0.00000000000E+00 0.  1.
    9000005    2    1    2  501    0  0.53376467798E+01 -0.12021347291E+02 -0.93593074856E+03  0.10003679417E+04  0.35298250586E+03 0.  0.
         13    1    3    3    0    0  0.17134850614E+03 -0.42953950825E+02 -0.58195379890E+03  0.60817396894E+03  0.00000000000E+00 0.  1.
          3    1    3    3  501    0 -0.16601085936E+03  0.30932603534E+02 -0.35397694967E+03  0.39219397278E+03  0.00000000000E+00 0.  1.
         21    1    1    2  502  501 -0.53376467798E+01  0.12021347291E+02 -0.30492729375E+02  0.33208580346E+02  0.00000000000E+00 0. -1.
<mgrwt>
<rscale>  1 0.30000000E+03</rscale>
<asrwt>0</asrwt>
<pdfrwt beam="1">  1        1 0.12209670E+00 0.30000000E+03</pdfrwt>
<pdfrwt beam="2">0</pdfrwt>
<totfact> 0.25299101E+01</totfact>
</mgrwt>
</event>
<event>
 6    1  0.1950139E-004  0.3000000E+03  0.7818608E-02  0.1093470E+00
          1   -1    0    0  502    0  0.00000000000E+00  0.00000000000E+00  0.21480113955E+02  0.21480113955E+02  0.00000000000E+00 0.  1.
         13   -1    0    0    0    0 -0.00000000000E+00 -0.00000000000E+00 -0.10000000000E+04  0.10000000000E+04  0.00000000000E+00 0.  1.
    9000005    2    1    2  501    0  0.22377938192E+02 -0.34204591783E+01 -0.97625243763E+03  0.99872900451E+03  0.20947155133E+03 0.  0.
         13    1    3    3    0    0  0.92583021322E+02 -0.45589906441E+02 -0.29415326787E+03  0.31173097441E+03  0.00000000000E+00 0.  1.
          1    1    3    3  501    0 -0.70205083130E+02  0.42169447263E+02 -0.68209916976E+03  0.68699803010E+03  0.00000000000E+00 0.  1.
         21    1    1    2  502  501 -0.22377938192E+02  0.34204591783E+01 -0.22674484184E+01  0.22751109447E+02  0.00000000000E+00 0. -1.
<mgrwt>
<rscale>  1 0.30000000E+03</rscale>
<asrwt>0</asrwt>
<pdfrwt beam="1">  1        1 0.78109670E-01 0.30000000E+03</pdfrwt>
<pdfrwt beam="2">0</pdfrwt>
<totfact> 0.48541268E+01</totfact>
</mgrwt>
</event>
<event>
 6    1  0.1950139E-004  0.3000000E+03  0.7818608E-02  0.1093470E+00
          1   -1    0    0  502    0  0.00000000000E+00  0.00000000000E+00  0.31593024151E+02  0.31593024151E+02  0.00000000000E+00 0.  1.
         13   -1    0    0    0    0 -0.00000000000E+00 -0.00000000000E+00 -0.10000000000E+04  0.10000000000E+04  0.00000000000E+00 0.  1.
    9000005    2    1    2  501    0 -0.17129468268E+02 -0.17848626381E+02 -0.95944946279E+03  0.10052827754E+04  0.29906219222E+03 0.  0.
         13    1    3    3    0    0  0.48856063313E+02 -0.62604189902E+02 -0.53318515847E+02  0.95650737832E+02  0.00000000000E+00 0.  1.
          3    1    3    3  501    0 -0.65985531581E+02  0.44755563522E+02 -0.90613094694E+03  0.90963203761E+03  0.00000000000E+00 0.  1.
         21    1    1    2  502  501  0.17129468268E+02  0.17848626381E+02 -0.89575130620E+01  0.26310248708E+02  0.00000000000E+00 0.  1.
<mgrwt>
<rscale>  1 0.30000000E+03</rscale>
<asrwt>0</asrwt>
<pdfrwt beam="1">  1        1 0.11488397E+00 0.30000000E+03</pdfrwt>
<pdfrwt beam="2">0</pdfrwt>
<totfact> 0.27809161E+01</totfact>
</mgrwt>
</event>
<event>
 6    1  0.1950139E-004  0.3000000E+03  0.7818608E-02  0.1093470E+00
          1   -1    0    0  502    0  0.00000000000E+00  0.00000000000E+00  0.35812400638E+02  0.35812400638E+02  0.00000000000E+00 0.  1.
         13   -1    0    0    0    0 -0.00000000000E+00 -0.00000000000E+00 -0.10000000000E+04  0.10000000000E+04  0.00000000000E+00 0.  1.
    9000005    2    1    2  501    0  0.34567873067E+01 -0.12525585940E+02 -0.97043947112E+03  0.10213927757E+04  0.31831053319E+03 0.  0.
         13    1    3    3    0    0  0.10461359416E+03 -0.76018408276E+02 -0.17806508588E+03  0.22006811966E+03  0.00000000000E+00 0.  1.
          1    1    3    3  501    0 -0.10115680685E+03  0.63492822336E+02 -0.79237438524E+03  0.80132465608E+03  0.00000000000E+00 0.  1.
         21    1    1    2  502  501 -0.34567873067E+01  0.12525585940E+02  0.62518717631E+01  0.14419624897E+02  0.00000000000E+00 0.  1.
<mgrwt>
<rscale>  1 0.30000000E+03</rscale>
<asrwt>0</asrwt>
<pdfrwt beam="1">  1        1 0.13022719E+00 0.30000000E+03</pdfrwt>
<pdfrwt beam="2">0</pdfrwt>
<totfact> 0.22814732E+01</totfact>
</mgrwt>
</event>
<event>
 6    1  0.1950139E-004  0.3000000E+03  0.7818608E-02  0.1093470E+00
          3   -1    0    0  502    0  0.00000000000E+00  0.00000000000E+00  0.34469851159E+02  0.34469851159E+02  0.00000000000E+00 0.  1.
         13   -1    0    0    0    0 -0.00000000000E+00 -0.00000000000E+00 -0.10000000000E+04  0.10000000000E+04  0.00000000000E+00 0.  1.
    9000005    2    1    2  501    0 -0.10571374537E+02  0.29455615103E+01 -0.96587436608E+03  0.10234903804E+04  0.33837676851E+03 0.  0.
         13    1    3    3    0    0  0.14146168705E+03 -0.52050948365E+02 -0.66563317988E+03  0.68248680594E+03  0.00000000000E+00 0.  1.
          1    1    3    3  501    0 -0.15203306159E+03  0.54996509875E+02 -0.30024118620E+03  0.34100357448E+03  0.00000000000E+00 0.  1.
         21    1    1    2  502  501  0.10571374537E+02 -0.29455615103E+01  0.34421723800E+00  0.10979470740E+02  0.00000000000E+00 0.  1.
<mgrwt>
<rscale>  1 0.30000000E+03</rscale>
<asrwt>0</asrwt>
<pdfrwt beam="1">  1        3 0.12534518E+00 0.30000000E+03</pdfrwt>
<pdfrwt beam="2">0</pdfrwt>
<totfact> 0.20048270E+00</totfact>
</mgrwt>
</event>
<event>
 6    1  0.1950139E-004  0.3000000E+03  0.7818608E-02  0.1093470E+00
          1   -1    0    0  502    0  0.00000000000E+00  0.00000000000E+00  0.23807544583E+02  0.23807544583E+02  0.00000000000E+00 0.  1.
         13   -1    0    0    0    0 -0.00000000000E+00 -0.00000000000E+00 -0.10000000000E+04  0.10000000000E+04  0.00000000000E+00 0.  1.
    9000005    2    1    2  501    0 -0.31830536258E+01 -0.95515871549E+01 -0.97436267542E+03  0.10135746202E+04  0.27901527328E+03 0.  0.
         13    1    3    3    0    0 -0.81120925467E+02  0.10754685078E+03 -0.39338261434E+03  0.41580862296E+03  0.00000000000E+00 0.  1.
          1    1    3    3  501    0  0.77937871842E+02 -0.11709843793E+03 -0.58098006108E+03  0.59776599719E+03  0.00000000000E+00 0.  1.
         21    1    1    2  502  501  0.31830536258E+01  0.95515871549E+01 -0.18297800002E+01  0.10232924431E+02  0.00000000000E+00 0.  1.
<mgrwt>
<rscale>  1 0.30000000E+03</rscale>
<asrwt>0</asrwt>
<pdfrwt beam="1">  1        1 0.86573072E-01 0.30000000E+03</pdfrwt>
<pdfrwt beam="2">0</pdfrwt>
<totfact> 0.42073939E+01</totfact>
</mgrwt>
</event>
<event>
 6    1  0.1950139E-004  0.3000000E+03  0.7818608E-02  0.1093470E+00
          1   -1    0    0  502    0  0.00000000000E+00  0.00000000000E+00  0.26910323351E+02  0.26910323351E+02  0.00000000000E+00 0.  1.
         13   -1    0    0    0    0 -0.00000000000E+00 -0.00000000000E+00 -0.10000000000E+04  0.10000000000E+04  0.00000000000E+00 0.  1.
    9000005    2    1    2  501    0 -0.13759745434E+02  0.35790600327E+01 -0.90418809428E+03  0.95655715485E+03  0.31183864481E+03 0.  0.
         13    1    3    3    0    0  0.15915472343E+02  0.87002296283E+02 -0.58040589805E+02  0.10578946962E+03  0.00000000000E+00 0.  1.
          3    1    3    3  501    0 -0.29675217777E+02 -0.83423236251E+02 -0.84614750448E+03  0.85076768523E+03  0.00000000000E+00 0.  1.
         21    1    1    2  502  501  0.13759745434E+02 -0.35790600327E+01 -0.68901582367E+02  0.70353168499E+02  0.00000000000E+00 0. -1.
<mgrwt>
<rscale>  1 0.30000000E+03</rscale>
<asrwt>0</asrwt>
<pdfrwt beam="1">  1        1 0.97855928E-01 0.30000000E+03</pdfrwt>
<pdfrwt beam="2">0</pdfrwt>
<totfact> 0.35325239E+01</totfact>
</mgrwt>
</event>
<event>
 6    1  0.1950139E-004  0.3000000E+03  0.7818608E-02  0.1093470E+00
          1   -1    0    0  502    0  0.00000000000E+00  0.00000000000E+00  0.31323174517E+02  0.31323174517E+02  0.00000000000E+00 0.  1.
         13   -1    0    0    0    0 -0.00000000000E+00 -0.00000000000E+00 -0.10000000000E+04  0.10000000000E+04  0.00000000000E+00 0.  1.
    9000005    2    1    2  501    0  0.13918378693E+02 -0.24049389727E+02 -0.95987446123E+03  0.10021756870E+04  0.28674907480E+03 0.  0.
         13    1    3    3    0    0 -0.10200129741E+03 -0.10401852359E+02 -0.13728488993E+03  0.17134644498E+03  0.00000000000E+00 0.  1.
          3    1    3    3  501    0  0.11591967611E+03 -0.13647537368E+02 -0.82258957130E+03  0.83082924202E+03  0.00000000000E+00 0.  1.
         21    1    1    2  502  501 -0.13918378693E+02  0.24049389727E+02 -0.88023642529E+01  0.29147487510E+02  0.00000000000E+00 0. -1.
<mgrwt>
<rscale>  1 0.30000000E+03</rscale>
<asrwt>0</asrwt>
<pdfrwt beam="1">  1        1 0.11390269E+00 0.30000000E+03</pdfrwt>
<pdfrwt beam="2">0</pdfrwt>
<totfact> 0.28176852E+01</totfact>
</mgrwt>
</event>
<event>
 6    1  0.1950139E-004  0.3000000E+03  0.7818608E-02  0.1093470E+00
          1   -1    0    0  502    0  0.00000000000E+00  0.00000000000E+00  0.35028032957E+02  0.35028032957E+02  0.00000000000E+00 0.  1.
         13   -1    0    0    0    0 -0.00000000000E+00 -0.00000000000E+00 -0.10000000000E+04  0.10000000000E+04  0.00000000000E+00 0.  1.
    9000005    2    1    2  501    0  0.11452079923E+01  0.11746173449E+02 -0.96372002866E+03  0.10231599479E+04  0.34345407458E+03 0.  0.
         13    1    3    3    0    0  0.49720434735E+02  0.16694705250E+03 -0.39626948777E+03  0.43286596876E+03  0.00000000000E+00 0.  1.
          3    1    3    3  501    0 -0.48575226742E+02 -0.15520087905E+03 -0.56745054089E+03  0.59029397919E+03  0.00000000000E+00 0.  1.
         21    1    1    2  502  501 -0.11452079923E+01 -0.11746173449E+02 -0.12519383797E+01  0.11868085008E+02  0.00000000000E+00 0. -1.
<mgrwt>
<rscale>  1 0.30000000E+03</rscale>
<asrwt>0</asrwt>
<pdfrwt beam="1">  1        1 0.12737493E+00 0.30000000E+03</pdfrwt>
<pdfrwt beam="2">0</pdfrwt>
<totfact> 0.23649099E+01</totfact>
</mgrwt>
</event>
<event>
 6    1  0.1950139E-004  0.3000000E+03  0.7818608E-02  0.1093470E+00
          1   -1    0    0  502    0  0.00000000000E+00  0.00000000000E+00  0.41090970934E+02  0.41090970934E+02  0.00000000000E+00 0.  1.
         13   -1    0    0    0    0 -0.00000000000E+00 -0.00000000000E+00 -0.10000000000E+04  0.10000000000E+04  0.00000000000E+00 0.  1.
    9000005    2    1    2  501    0  0.37194358740E+02  0.59161990326E+01 -0.95159288929E+03  0.10027250012E+04  0.31386299452E+03 0.  0.
         13    1    3    3    0    0  0.53292626183E+02 -0.57117161245E+01 -0.97245004457E+03  0.97392598121E+03  0.00000000000E+00 0.  1.
          3    1    3    3  501    0 -0.16098267442E+02  0.11627915157E+02  0.20857155273E+02  0.28799019977E+02  0.00000000000E+00 0.  1.
         21    1    1    2  502  501 -0.37194358740E+02 -0.59161990326E+01 -0.73161397725E+01  0.38365969742E+02  0.00000000000E+00 0. -1.
<mgrwt>
<rscale>  1 0.30000000E+03</rscale>
<asrwt>0</asrwt>
<pdfrwt beam="1">  1        1 0.14942203E+00 0.30000000E+03</pdfrwt>
<pdfrwt beam="2">0</pdfrwt>
<totfact> 0.18087036E+01</totfact>
</mgrwt>
</event>
<event>
 6    1  0.1950139E-004  0.3000000E+03  0.7818608E-02  0.1093470E+00
          1   -1    0    0  502    0  0.00000000000E+00  0.00000000000E+00  0.29789201971E+02  0.29789201971E+02  0.00000000000E+00 0.  1.
         13   -1    0    0    0    0 -0.00000000000E+00 -0.00000000000E+00 -0.10000000000E+04  0.10000000000E+04  0.00000000000E+00 0.  1.
    9000005    2    1    2  501    0  0.68778663505E+01 -0.12905239271E+02 -0.96284640012E+03  0.10134159127E+04  0.31579229181E+03 0.  0.
         13    1    3    3    0    0  0.99694915363E+02  0.96197617746E+02 -0.70471661681E+03  0.71820510149E+03  0.00000000000E+00 0.  1.
          1    1    3    3  501    0 -0.92817049013E+02 -0.10910285702E+03 -0.25812978332E+03  0.29521081117E+03  0.00000000000E+00 0.  1.
         21    1    1    2  502  501 -0.68778663505E+01  0.12905239271E+02 -0.73643979050E+01  0.16373289305E+02  0.00000000000E+00 0. -1.
<mgrwt>
<rscale>  1 0.30000000E+03</rscale>
<asrwt>0</asrwt>
<pdfrwt beam="1">  1        1 0.10832460E+00 0.30000000E+03</pdfrwt>
<pdfrwt beam="2">0</pdfrwt>
<totfact> 0.30404109E+01</totfact>
</mgrwt>
</event>
<event>
 6    1  0.1950139E-004  0.3000000E+03  0.7818608E-02  0.1093470E+00
          1   -1    0    0  502    0  0.00000000000E+00  0.00000000000E+00  0.54597443798E+02  0.54597443798E+02  0.00000000000E+00 0.  1.
         13   -1    0    0    0    0 -0.00000000000E+00 -0.00000000000E+00 -0.10000000000E+04  0.10000000000E+04  0.00000000000E+00 0.  1.
    9000005    2    1    2  501    0  0.10213403762E+02 -0.10574295367E+01 -0.96600193289E+03  0.10315807956E+04  0.36179244295E+03 0.  0.
         13    1    3    3    0    0  0.12255255075E+03 -0.12923754670E+03 -0.35387535072E+03  0.39616819032E+03  0.00000000000E+00 0.  1.
          1    1    3    3  501    0 -0.11233914698E+03  0.12818011716E+03 -0.61212658217E+03  0.63541260530E+03  0.00000000000E+00 0.  1.
         21    1    1    2  502  501 -0.10213403762E+02  0.10574295367E+01  0.20599376685E+02  0.23016648180E+02  0.00000000000E+00 0. -1.
<mgrwt>
<rscale>  1 0.30000000E+03</rscale>
<asrwt>0</asrwt>
<pdfrwt beam="1">  1        1 0.19853658E+00 0.30000000E+03</pdfrwt>
<pdfrwt beam="2">0</pdfrwt>
<totfact> 0.10408891E+01</totfact>
</mgrwt>
</event>
<event>
 6    1  0.1950139E-004  0.3000000E+03  0.7818608E-02  0.1093470E+00
          3   -1    0    0  502    0  0.00000000000E+00  0.00000000000E+00  0.32658538081E+02  0.32658538081E+02  0.00000000000E+00 0.  1.
         13   -1    0    0    0    0 -0.00000000000E+00 -0.00000000000E+00 -0.10000000000E+04  0.10000000000E+04  0.00000000000E+00 0.  1.
    9000005    2    1    2  501    0  0.11632748127E+02 -0.12185537880E+02 -0.96137563447E+03  0.10147867934E+04  0.32444617003E+03 0.  0.
         13    1    3    3    0    0  0.12311615876E+03 -0.51755919373E+02 -0.17801097160E+03  0.22254026545E+03  0.00000000000E+00 0.  1.
          1    1    3    3  501    0 -0.11148341063E+03  0.39570381493E+02 -0.78336466288E+03  0.79224652791E+03  0.00000000000E+00 0.  1.
         21    1    1    2  502  501 -0.11632748127E+02  0.12185537880E+02 -0.59658274476E+01  0.17871744725E+02  0.00000000000E+00 0. -1.
<mgrwt>
<rscale>  1 0.30000000E+03</rscale>
<asrwt>0</asrwt>
<pdfrwt beam="1">  1        3 0.11875857E+00 0.30000000E+03</pdfrwt>
<pdfrwt beam="2">0</pdfrwt>
<totfact> 0.23908552E+00</totfact>
</mgrwt>
</event>
<event>
 6    1  0.1950139E-004  0.3000000E+03  0.7818608E-02  0.1093470E+00
          1   -1    0    0  502    0  0.00000000000E+00  0.00000000000E+00  0.26080278123E+02  0.26080278123E+02  0.00000000000E+00 0.  1.
         13   -1    0    0    0    0 -0.00000000000E+00 -0.00000000000E+00 -0.10000000000E+04  0.10000000000E+04  0.00000000000E+00 0.  1.
    9000005    2    1    2  501    0  0.18876085542E+02  0.47494302738E+01 -0.93217926653E+03  0.98002455854E+03  0.30184613085E+03 0.  0.
         13    1    3    3    0    0 -0.66101660075E+02 -0.12723746904E+03 -0.50304560886E+03  0.52308095701E+03  0.00000000000E+00 0.  1.
          3    1    3    3  501    0  0.84977745617E+02  0.13198689931E+03 -0.42913365767E+03  0.45694360153E+03  0.00000000000E+00 0.  1.
         21    1    1    2  502  501 -0.18876085542E+02 -0.47494302738E+01 -0.41740455350E+02  0.46055719581E+02  0.00000000000E+00 0.  1.
<mgrwt>
<rscale>  1 0.30000000E+03</rscale>
<asrwt>0</asrwt>
<pdfrwt beam="1">  1        1 0.94837575E-01 0.30000000E+03</pdfrwt>
<pdfrwt beam="2">0</pdfrwt>
<totfact> 0.36962017E+01</totfact>
</mgrwt>
</event>
<event>
 6    1  0.1950139E-004  0.3000000E+03  0.7818608E-02  0.1093470E+00
          1   -1    0    0  502    0  0.00000000000E+00  0.00000000000E+00  0.34767669486E+02  0.34767669486E+02  0.00000000000E+00 0.  1.
         13   -1    0    0    0    0 -0.00000000000E+00 -0.00000000000E+00 -0.10000000000E+04  0.10000000000E+04  0.00000000000E+00 0.  1.
    9000005    2    1    2  501    0 -0.16508684619E+02 -0.41066198155E+01 -0.95514923602E+03  0.10149921849E+04  0.34294266494E+03 0.  0.
         13    1    3    3    0    0 -0.41800423422E+02  0.13896782247E+03 -0.74813398338E+03  0.76207859710E+03  0.00000000000E+00 0.  1.
          3    1    3    3  501    0  0.25291738803E+02 -0.14307444229E+03 -0.20701525265E+03  0.25291358785E+03  0.00000000000E+00 0.  1.
         21    1    1    2  502  501  0.16508684619E+02  0.41066198155E+01 -0.10083094491E+02  0.19775484537E+02  0.00000000000E+00 0.  1.
<mgrwt>
<rscale>  1 0.30000000E+03</rscale>
<asrwt>0</asrwt>
<pdfrwt beam="1">  1        1 0.12642816E+00 0.30000000E+03</pdfrwt>
<pdfrwt beam="2">0</pdfrwt>
<totfact> 0.23934721E+01</totfact>
</mgrwt>
</event>
<event>
 6    1  0.1950139E-004  0.3000000E+03  0.7818608E-02  0.1093470E+00
          1   -1    0    0  502    0  0.00000000000E+00  0.00000000000E+00  0.35003076141E+02  0.35003076141E+02  0.00000000000E+00 0.  1.
         13   -1    0    0    0    0 -0.00000000000E+00 -0.00000000000E+00 -0.10000000000E+04  0.10000000000E+04  0.00000000000E+00 0.  1.
    9000005    2    1    2  501    0 -0.64298234049E+01  0.76964911555E+01 -0.97143314544E+03  0.10230865518E+04  0.32081639255E+03 0.  0.
         13    1    3    3    0    0  0.32736372024E+02 -0.78511877405E+02 -0.90117182359E+03  0.90517757406E+03  0.00000000000E+00 0.  1.
          1    1    3    3  501    0 -0.39166195429E+02  0.86208368560E+02 -0.70261321848E+02  0.11790897770E+03  0.00000000000E+00 0.  1.
         21    1    1    2  502  501  0.64298234049E+01 -0.76964911555E+01  0.64362215795E+01  0.11916524382E+02  0.00000000000E+00 0. -1.
<mgrwt>
<rscale>  1 0.30000000E+03</rscale>
<asrwt>0</asrwt>
<pdfrwt beam="1">  1        1 0.12728418E+00 0.30000000E+03</pdfrwt>
<pdfrwt beam="2">0</pdfrwt>
<totfact> 0.23676287E+01</totfact>
</mgrwt>
</event>
<event>
 6    1  0.1950139E-004  0.3000000E+03  0.7818608E-02  0.1093470E+00
          1   -1    0    0  502    0  0.00000000000E+00  0.00000000000E+00  0.33354671177E+02  0.33354671177E+02  0.00000000000E+00 0.  1.
         13   -1    0    0    0    0 -0.00000000000E+00 -0.00000000000E+00 -0.10000000000E+04  0.10000000000E+04  0.00000000000E+00 0.  1.
    9000005    2    1    2  501    0  0.10733634645E+02 -0.29333323924E+02 -0.92740134407E+03  0.98319746687E+03  0.32500515544E+03 0.  0.
         13    1    3    3    0    0  0.15883164194E+03 -0.35311181324E+02 -0.33342676981E+03  0.37100913848E+03  0.00000000000E+00 0.  1.
          1    1    3    3  501    0 -0.14809800730E+03  0.59778573999E+01 -0.59397457426E+03  0.61218832838E+03  0.00000000000E+00 0.  1.
         21    1    1    2  502  501 -0.10733634645E+02  0.29333323924E+02 -0.39243984753E+02  0.50157204312E+02  0.00000000000E+00 0. -1.
<mgrwt>
<rscale>  1 0.30000000E+03</rscale>
<asrwt>0</asrwt>
<pdfrwt beam="1">  1        1 0.12128997E+00 0.30000000E+03</pdfrwt>
<pdfrwt beam="2">0</pdfrwt>
<totfact> 0.25564282E+01</totfact>
</mgrwt>
</event>
<event>
 6    1  0.1950139E-004  0.3000000E+03  0.7818608E-02  0.1093470E+00
          3   -1    0    0  502    0  0.00000000000E+00  0.00000000000E+00  0.57801005842E+02  0.57801005842E+02  0.00000000000E+00 0.  1.
         13   -1    0    0    0    0 -0.00000000000E+00 -0.00000000000E+00 -0.10000000000E+04  0.10000000000E+04  0.00000000000E+00 0.  1.
    9000005    2    1    2  501    0 -0.10257611264E+03 -0.47175702442E+02 -0.80278130071E+03  0.87840006094E+03  0.33820325916E+03 0.  0.
         13    1    3    3    0    0  0.45249223726E+02 -0.10425222533E+03 -0.81331546526E+02  0.13975277884E+03  0.00000000000E+00 0.  1.
          1    1    3    3  501    0 -0.14782533637E+03  0.57076522887E+02 -0.72144975419E+03  0.73864728210E+03  0.00000000000E+00 0.  1.
         21    1    1    2  502  501  0.10257611264E+03  0.47175702442E+02 -0.13941769345E+03  0.17940094490E+03  0.00000000000E+00 0.  1.
<mgrwt>
<rscale>  1 0.30000000E+03</rscale>
<asrwt>0</asrwt>
<pdfrwt beam="1">  1        3 0.21018592E+00 0.30000000E+03</pdfrwt>
<pdfrwt beam="2">0</pdfrwt>
<totfact> 0.49741125E-02</totfact>
</mgrwt>
</event>
<event>
 6    1  0.1950139E-004  0.3000000E+03  0.7818608E-02  0.1093470E+00
          1   -1    0    0  502    0  0.00000000000E+00  0.00000000000E+00  0.56644644664E+02  0.56644644664E+02  0.00000000000E+00 0.  1.
         13   -1    0    0    0    0 -0.00000000000E+00 -0.00000000000E+00 -0.10000000000E+04  0.10000000000E+04  0.00000000000E+00 0.  1.
    9000005    2    1    2  501    0  0.38001236562E+02 -0.93403032454E+02 -0.83340360256E+03  0.90745480456E+03  0.34459314721E+03 0.  0.
         13    1    3    3    0    0  0.14195694937E+03  0.60304985455E+02 -0.23628921864E+03  0.28217204254E+03  0.00000000000E+00 0.  1.
          1    1    3    3  501    0 -0.10395571281E+03 -0.15370801791E+03 -0.59711438392E+03  0.62528276202E+03  0.00000000000E+00 0.  1.
         21    1    1    2  502  501 -0.38001236562E+02  0.93403032454E+02 -0.10995175277E+03  0.14918984010E+03  0.00000000000E+00 0.  1.
<mgrwt>
<rscale>  1 0.30000000E+03</rscale>
<asrwt>0</asrwt>
<pdfrwt beam="1">  1        1 0.20598096E+00 0.30000000E+03</pdfrwt>
<pdfrwt beam="2">0</pdfrwt>
<totfact> 0.95956085E+00</totfact>
</mgrwt>
</event>
<event>
 6    1  0.1950139E-004  0.3000000E+03  0.7818608E-02  0.1093470E+00
          1   -1    0    0  502    0  0.00000000000E+00  0.00000000000E+00  0.37980443782E+02  0.37980443782E+02  0.00000000000E+00 0.  1.
         13   -1    0    0    0    0 -0.00000000000E+00 -0.00000000000E+00 -0.10000000000E+04  0.10000000000E+04  0.00000000000E+00 0.  1.
    9000005    2    1    2  501    0  0.13961996663E+02 -0.66915532570E+02 -0.82332967138E+03  0.88335990826E+03  0.31269850317E+03 0.  0.
         13    1    3    3    0    0  0.93968553080E+02  0.73658521380E+02 -0.57309989733E+03  0.58540512388E+03  0.00000000000E+00 0.  1.
          1    1    3    3  501    0 -0.80006556417E+02 -0.14057405395E+03 -0.25022977405E+03  0.29795478438E+03  0.00000000000E+00 0.  1.
         21    1    1    2  502  501 -0.13961996663E+02  0.66915532570E+02 -0.13868988483E+03  0.15462053552E+03  0.00000000000E+00 0. -1.
<mgrwt>
<rscale>  1 0.30000000E+03</rscale>
<asrwt>0</asrwt>
<pdfrwt beam="1">  1        1 0.13811100E+00 0.30000000E+03</pdfrwt>
<pdfrwt beam="2">0</pdfrwt>
<totfact> 0.20700480E+01</totfact>
</mgrwt>
</event>
<event>
 6    1  0.1950139E-004  0.3000000E+03  0.7818608E-02  0.1093470E+00
          1   -1    0    0  502    0  0.00000000000E+00  0.00000000000E+00  0.30139978176E+02  0.30139978176E+02  0.00000000000E+00 0.  1.
         13   -1    0    0    0    0 -0.00000000000E+00 -0.00000000000E+00 -0.10000000000E+04  0.10000000000E+04  0.00000000000E+00 0.  1.
    9000005    2    1    2  501    0 -0.33067504447E+01  0.10866559451E+02 -0.96638813318E+03  0.10182626585E+04  0.32066150527E+03 0.  0.
         13    1    3    3    0    0  0.54883264134E+02 -0.10815621063E+03 -0.78122333155E+03  0.79058195802E+03  0.00000000000E+00 0.  1.
          3    1    3    3  501    0 -0.58190014578E+02  0.11902277008E+03 -0.18516480163E+03  0.22768070045E+03  0.00000000000E+00 0.  1.
         21    1    1    2  502  501  0.33067504447E+01 -0.10866559451E+02 -0.34718886467E+01  0.11877319714E+02  0.00000000000E+00 0. -1.
<mgrwt>
<rscale>  1 0.30000000E+03</rscale>
<asrwt>0</asrwt>
<pdfrwt beam="1">  1        1 0.10960015E+00 0.30000000E+03</pdfrwt>
<pdfrwt beam="2">0</pdfrwt>
<totfact> 0.29873314E+01</totfact>
</mgrwt>
</event>
<event>
 6    1  0.1950139E-004  0.3000000E+03  0.7818608E-02  0.1093470E+00
          1   -1    0    0  502    0  0.00000000000E+00  0.00000000000E+00  0.43467395482E+02  0.43467395482E+02  0.00000000000E+00 0.  1.
         13   -1    0    0    0    0 -0.00000000000E+00 -0.00000000000E+00 -0.10000000000E+04  0.10000000000E+04  0.00000000000E+00 0.  1.
    9000005    2    1    2  501    0  0.47845867360E+02 -0.31803800608E+02 -0.92361747140E+03  0.97725474756E+03  0.31409695859E+03 0.  0.
         13    1    3    3    0    0 -0.71006645420E+02 -0.64167973828E+02 -0.80132076913E+02  0.12482236302E+03  0.00000000000E+00 0.  1.
          1    1    3    3  501    0  0.11885251278E+03  0.32364173219E+02 -0.84348539449E+03  0.85243238455E+03  0.00000000000E+00 0.  1.
         21    1    1    2  502  501 -0.47845867360E+02  0.31803800608E+02 -0.32915133113E+02  0.66212647919E+02  0.00000000000E+00 0.  1.
<mgrwt>
<rscale>  1 0.30000000E+03</rscale>
<asrwt>0</asrwt>
<pdfrwt beam="1">  1        1 0.15806359E+00 0.30000000E+03</pdfrwt>
<pdfrwt beam="2">0</pdfrwt>
<totfact> 0.16362152E+01</totfact>
</mgrwt>
</event>
<event>
 6    1  0.1950139E-004  0.3000000E+03  0.7818608E-02  0.1093470E+00
          1   -1    0    0  502    0  0.00000000000E+00  0.00000000000E+00  0.16488576378E+02  0.16488576378E+02  0.00000000000E+00 0.  1.
         13   -1    0    0    0    0 -0.00000000000E+00 -0.00000000000E+00 -0.10000000000E+04  0.10000000000E+04  0.00000000000E+00 0.  1.
    9000005    2    1    2  501    0 -0.23009347991E+02  0.20381201321E+02 -0.94138343269E+03  0.96433887760E+03  0.20688615239E+03 0.  0.
         13    1    3    3    0    0  0.81953834860E+02 -0.18699307382E+02 -0.57816706189E+03  0.58424587854E+03  0.00000000000E+00 0.  1.
          3    1    3    3  501    0 -0.10496318285E+03  0.39080508703E+02 -0.36321637080E+03  0.38009299906E+03  0.00000000000E+00 0.  1.
         21    1    1    2  502  501  0.23009347991E+02 -0.20381201321E+02 -0.42127990936E+02  0.52149698777E+02  0.00000000000E+00 0.  1.
<mgrwt>
<rscale>  1 0.30000000E+03</rscale>
<asrwt>0</asrwt>
<pdfrwt beam="1">  1        1 0.59958586E-01 0.30000000E+03</pdfrwt>
<pdfrwt beam="2">0</pdfrwt>
<totfact> 0.69407286E+01</totfact>
</mgrwt>
</event>
<event>
 6    1  0.1950139E-004  0.3000000E+03  0.7818608E-02  0.1093470E+00
          1   -1    0    0  502    0  0.00000000000E+00  0.00000000000E+00  0.35247287535E+02  0.35247287535E+02  0.00000000000E+00 0.  1.
         13   -1    0    0    0    0 -0.00000000000E+00 -0.00000000000E+00 -0.10000000000E+04  0.10000000000E+04  0.00000000000E+00 0.  1.
    9000005    2    1    2  501    0 -0.19249436308E+02 -0.10781115542E+02 -0.95799478254E+03  0.10121725640E+04  0.32596398978E+03 0.  0.
         13    1    3    3    0    0 -0.43150746931E+02 -0.14974943061E+03 -0.70990658180E+03  0.72681100281E+03  0.00000000000E+00 0.  1.
          3    1    3    3  501    0  0.23901310623E+02  0.13896831507E+03 -0.24808820075E+03  0.28536156117E+03  0.00000000000E+00 0.  1.
         21    1    1    2  502  501  0.19249436308E+02  0.10781115542E+02 -0.67579299221E+01  0.23074723560E+02  0.00000000000E+00 0.  1.
<mgrwt>
<rscale>  1 0.30000000E+03</rscale>
<asrwt>0</asrwt>
<pdfrwt beam="1">  1        1 0.12817222E+00 0.30000000E+03</pdfrwt>
<pdfrwt beam="2">0</pdfrwt>
<totfact> 0.23411956E+01</totfact>
</mgrwt>
</event>
<event>
 6    1  0.1950139E-004  0.3000000E+03  0.7818608E-02  0.1093470E+00
          1   -1    0    0  502    0  0.00000000000E+00  0.00000000000E+00  0.45000856245E+02  0.45000856245E+02  0.00000000000E+00 0.  1.
         13   -1    0    0    0    0 -0.00000000000E+00 -0.00000000000E+00 -0.10000000000E+04  0.10000000000E+04  0.00000000000E+00 0.  1.
    9000005    2    1    2  501    0 -0.26969844550E+02 -0.24303339844E+02 -0.94876223375E+03  0.10081644084E+04  0.33900984256E+03 0.  0.
         13    1    3    3    0    0 -0.16552792075E+03  0.56903975918E+02 -0.58269356946E+03  0.60841544270E+03  0.00000000000E+00 0.  1.
          1    1    3    3  501    0  0.13855807620E+03 -0.81207315762E+02 -0.36606866429E+03  0.39974896571E+03  0.00000000000E+00 0.  1.
         21    1    1    2  502  501  0.26969844550E+02  0.24303339844E+02 -0.62369100045E+01  0.36836447834E+02  0.00000000000E+00 0.  1.
<mgrwt>
<rscale>  1 0.30000000E+03</rscale>
<asrwt>0</asrwt>
<pdfrwt beam="1">  1        1 0.16363982E+00 0.30000000E+03</pdfrwt>
<pdfrwt beam="2">0</pdfrwt>
<totfact> 0.15352542E+01</totfact>
</mgrwt>
</event>
<event>
 6    1  0.1950139E-004  0.3000000E+03  0.7818608E-02  0.1093470E+00
          1   -1    0    0  502    0  0.00000000000E+00  0.00000000000E+00  0.37655910995E+02  0.37655910995E+02  0.00000000000E+00 0.  1.
         13   -1    0    0    0    0 -0.00000000000E+00 -0.00000000000E+00 -0.10000000000E+04  0.10000000000E+04  0.00000000000E+00 0.  1.
    9000005    2    1    2  501    0 -0.96870345138E+01  0.89747744349E+01 -0.97014693387E+03  0.10223174104E+04  0.32213883497E+03 0.  0.
         13    1    3    3    0    0 -0.12184383103E+03 -0.20531480678E+00 -0.14439759248E+03  0.18893550759E+03  0.00000000000E+00 0.  1.
          1    1    3    3  501    0  0.11215679652E+03  0.91800892417E+01 -0.82574934139E+03  0.83338190276E+03  0.00000000000E+00 0.  1.
         21    1    1    2  502  501  0.96870345138E+01 -0.89747744349E+01  0.78028448693E+01  0.15338500640E+02  0.00000000000E+00 0.  1.
<mgrwt>
<rscale>  1 0.30000000E+03</rscale>
<asrwt>0</asrwt>
<pdfrwt beam="1">  1        1 0.13693087E+00 0.30000000E+03</pdfrwt>
<pdfrwt beam="2">0</pdfrwt>
<totfact> 0.21000056E+01</totfact>
</mgrwt>
</event>
<event>
 6    1  0.1950139E-004  0.3000000E+03  0.7818608E-02  0.1093470E+00
          1   -1    0    0  502    0  0.00000000000E+00  0.00000000000E+00  0.29236506953E+02  0.29236506953E+02  0.00000000000E+00 0.  1.
         13   -1    0    0    0    0 -0.00000000000E+00 -0.00000000000E+00 -0.10000000000E+04  0.10000000000E+04  0.00000000000E+00 0.  1.
    9000005    2    1    2  501    0 -0.22771191547E+01  0.18329562671E+02 -0.91173731286E+03  0.96738791694E+03  0.32285181746E+03 0.  0.
         13    1    3    3    0    0  0.10582729179E+03 -0.10386224940E+03 -0.56583073500E+03  0.58493692242E+03  0.00000000000E+00 0.  1.
          1    1    3    3  501    0 -0.10810441094E+03  0.12219181207E+03 -0.34590657786E+03  0.38245099452E+03  0.00000000000E+00 0.  1.
         21    1    1    2  502  501  0.22771191547E+01 -0.18329562671E+02 -0.59026180188E+02  0.61848590016E+02  0.00000000000E+00 0. -1.
<mgrwt>
<rscale>  1 0.30000000E+03</rscale>
<asrwt>0</asrwt>
<pdfrwt beam="1">  1        1 0.10631479E+00 0.30000000E+03</pdfrwt>
<pdfrwt beam="2">0</pdfrwt>
<totfact> 0.31268206E+01</totfact>
</mgrwt>
</event>
<event>
 6    1  0.1950139E-004  0.3000000E+03  0.7818608E-02  0.1093470E+00
          1   -1    0    0  502    0  0.00000000000E+00  0.00000000000E+00  0.28892656567E+02  0.28892656567E+02  0.00000000000E+00 0.  1.
         13   -1    0    0    0    0 -0.00000000000E+00 -0.00000000000E+00 -0.10000000000E+04  0.10000000000E+04  0.00000000000E+00 0.  1.
    9000005    2    1    2  501    0  0.12525491503E+02  0.30455969591E+00 -0.95465630447E+03  0.10082137452E+04  0.32398968436E+03 0.  0.
         13    1    3    3    0    0 -0.36182088558E+02  0.13015156910E+03 -0.20278987725E+03  0.24366433631E+03  0.00000000000E+00 0.  1.
          3    1    3    3  501    0  0.48707580061E+02 -0.12984700940E+03 -0.75186642722E+03  0.76454940886E+03  0.00000000000E+00 0.  1.
         21    1    1    2  502  501 -0.12525491503E+02 -0.30455969591E+00 -0.16451038962E+02  0.20678911406E+02  0.00000000000E+00 0. -1.
<mgrwt>
<rscale>  1 0.30000000E+03</rscale>
<asrwt>0</asrwt>
<pdfrwt beam="1">  1        1 0.10506443E+00 0.30000000E+03</pdfrwt>
<pdfrwt beam="2">0</pdfrwt>
<totfact> 0.31823718E+01</totfact>
</mgrwt>
</event>
<event>
 6    1  0.1950139E-004  0.3000000E+03  0.7818608E-02  0.1093470E+00
          1   -1    0    0  502    0  0.00000000000E+00  0.00000000000E+00  0.32134740222E+02  0.32134740222E+02  0.00000000000E+00 0.  1.
         13   -1    0    0    0    0 -0.00000000000E+00 -0.00000000000E+00 -0.10000000000E+04  0.10000000000E+04  0.00000000000E+00 0.  1.
    9000005    2    1    2  501    0  0.48191324697E+01 -0.12012871586E+02 -0.95935091645E+03  0.10166419302E+04  0.33621287918E+03 0.  0.
         13    1    3    3    0    0  0.88629032587E+02 -0.11471303813E+03 -0.20705482357E+03  0.25275657558E+03  0.00000000000E+00 0.  1.
          1    1    3    3  501    0 -0.83809900118E+02  0.10270016655E+03 -0.75229609288E+03  0.76388535458E+03  0.00000000000E+00 0.  1.
         21    1    1    2  502  501 -0.48191324697E+01  0.12012871586E+02 -0.85143433255E+01  0.15492810067E+02  0.00000000000E+00 0.  1.
<mgrwt>
<rscale>  1 0.30000000E+03</rscale>
<asrwt>0</asrwt>
<pdfrwt beam="1">  1        1 0.11685385E+00 0.30000000E+03</pdfrwt>
<pdfrwt beam="2">0</pdfrwt>
<totfact> 0.27091046E+01</totfact>
</mgrwt>
</event>
<event>
 6    1  0.1950139E-004  0.3000000E+03  0.7818608E-02  0.1093470E+00
          1   -1    0    0  502    0  0.00000000000E+00  0.00000000000E+00  0.35323756861E+02  0.35323756861E+02  0.00000000000E+00 0.  1.
         13   -1    0    0    0    0 -0.00000000000E+00 -0.00000000000E+00 -0.10000000000E+04  0.10000000000E+04  0.00000000000E+00 0.  1.
    9000005    2    1    2  501    0 -0.12466932202E+02  0.16623777156E+01 -0.95470127887E+03  0.10192710994E+04  0.35679245280E+03 0.  0.
         13    1    3    3    0    0 -0.13956671155E+03 -0.94247333135E+02 -0.28622948739E+03  0.33209749506E+03  0.00000000000E+00 0.  1.
          3    1    3    3  501    0  0.12709977934E+03  0.95909710850E+02 -0.66847179148E+03  0.68717360438E+03  0.00000000000E+00 0.  1.
         21    1    1    2  502  501  0.12466932202E+02 -0.16623777156E+01 -0.99749642666E+01  0.16052657422E+02  0.00000000000E+00 0. -1.
<mgrwt>
<rscale>  1 0.30000000E+03</rscale>
<asrwt>0</asrwt>
<pdfrwt beam="1">  1        1 0.12845030E+00 0.30000000E+03</pdfrwt>
<pdfrwt beam="2">0</pdfrwt>
<totfact> 0.23329968E+01</totfact>
</mgrwt>
</event>
<event>
 6    1  0.1950139E-004  0.3000000E+03  0.7818608E-02  0.1093470E+00
          3   -1    0    0  502    0  0.00000000000E+00  0.00000000000E+00  0.25035027545E+02  0.25035027545E+02  0.00000000000E+00 0.  1.
         13   -1    0    0    0    0 -0.00000000000E+00 -0.00000000000E+00 -0.10000000000E+04  0.10000000000E+04  0.00000000000E+00 0.  1.
    9000005    2    1    2  501    0  0.13556768361E+01 -0.10735865098E+02 -0.97658260530E+03  0.10140936659E+04  0.27304813043E+03 0.  0.
         13    1    3    3    0    0  0.86330246063E+02 -0.79433187461E+01 -0.95747889672E+02  0.12916526652E+03  0.00000000000E+00 0.  1.
          1    1    3    3  501    0 -0.84974569227E+02 -0.27925463520E+01 -0.88083471563E+03  0.88492839936E+03  0.00000000000E+00 0.  1.
         21    1    1    2  502  501 -0.13556768361E+01  0.10735865098E+02  0.16176328494E+01  0.10941361667E+02  0.00000000000E+00 0.  1.
<mgrwt>
<rscale>  1 0.30000000E+03</rscale>
<asrwt>0</asrwt>
<pdfrwt beam="1">  1        3 0.91036656E-01 0.30000000E+03</pdfrwt>
<pdfrwt beam="2">0</pdfrwt>
<totfact> 0.49628042E+00</totfact>
</mgrwt>
</event>
<event>
 6    1  0.1950139E-004  0.3000000E+03  0.7818608E-02  0.1093470E+00
          1   -1    0    0  502    0  0.00000000000E+00  0.00000000000E+00  0.31988887676E+02  0.31988887676E+02  0.00000000000E+00 0.  1.
         13   -1    0    0    0    0 -0.00000000000E+00 -0.00000000000E+00 -0.10000000000E+04  0.10000000000E+04  0.00000000000E+00 0.  1.
    9000005    2    1    2  501    0  0.15844271868E+02  0.13282599548E+02 -0.96168763658E+03  0.10103681859E+04  0.30914930410E+03 0.  0.
         13    1    3    3    0    0 -0.95891254912E+02  0.71414312613E+02 -0.78108705164E+03  0.79018486384E+03  0.00000000000E+00 0.  1.
          1    1    3    3  501    0  0.11173552678E+03 -0.58131713065E+02 -0.18060058495E+03  0.22018332201E+03  0.00000000000E+00 0.  1.
         21    1    1    2  502  501 -0.15844271868E+02 -0.13282599548E+02 -0.63234757397E+01  0.21620701820E+02  0.00000000000E+00 0.  1.
<mgrwt>
<rscale>  1 0.30000000E+03</rscale>
<asrwt>0</asrwt>
<pdfrwt beam="1">  1        1 0.11632347E+00 0.30000000E+03</pdfrwt>
<pdfrwt beam="2">0</pdfrwt>
<totfact> 0.27281832E+01</totfact>
</mgrwt>
</event>
<event>
 6    1  0.1950139E-004  0.3000000E+03  0.7818608E-02  0.1093470E+00
          1   -1    0    0  502    0  0.00000000000E+00  0.00000000000E+00  0.23161709632E+02  0.23161709632E+02  0.00000000000E+00 0.  1.
         13   -1    0    0    0    0 -0.00000000000E+00 -0.00000000000E+00 -0.10000000000E+04  0.10000000000E+04  0.00000000000E+00 0.  1.
    9000005    2    1    2  501    0  0.57952655387E+01  0.69128892927E+01 -0.95823944987E+03  0.10024907153E+04  0.29442047776E+03 0.  0.
         13    1    3    3    0    0 -0.12077722309E+03 -0.45085199599E+02 -0.25139496548E+03  0.28252299288E+03  0.00000000000E+00 0.  1.
          1    1    3    3  501    0  0.12657248863E+03  0.51998088891E+02 -0.70684448440E+03  0.71996772237E+03  0.00000000000E+00 0.  1.
         21    1    1    2  502  501 -0.57952655387E+01 -0.69128892927E+01 -0.18598840493E+02  0.20670994382E+02  0.00000000000E+00 0.  1.
<mgrwt>
<rscale>  1 0.30000000E+03</rscale>
<asrwt>0</asrwt>
<pdfrwt beam="1">  1        1 0.84224576E-01 0.30000000E+03</pdfrwt>
<pdfrwt beam="2">0</pdfrwt>
<totfact> 0.43725596E+01</totfact>
</mgrwt>
</event>
<event>
 6    1  0.1950139E-004  0.3000000E+03  0.7818608E-02  0.1093470E+00
          1   -1    0    0  502    0  0.00000000000E+00  0.00000000000E+00  0.32345495079E+02  0.32345495079E+02  0.00000000000E+00 0.  1.
         13   -1    0    0    0    0 -0.00000000000E+00 -0.00000000000E+00 -0.10000000000E+04  0.10000000000E+04  0.00000000000E+00 0.  1.
    9000005    2    1    2  501    0 -0.28427862414E+02 -0.38834296225E+01 -0.92396471828E+03  0.98007674874E+03  0.32560160996E+03 0.  0.
         13    1    3    3    0    0 -0.15686725346E+03 -0.55771794021E+02 -0.67438246001E+03  0.69462905970E+03  0.00000000000E+00 0.  1.
          1    1    3    3  501    0  0.12843939105E+03  0.51888364399E+02 -0.24958225827E+03  0.28544768904E+03  0.00000000000E+00 0.  1.
         21    1    1    2  502  501  0.28427862414E+02  0.38834296225E+01 -0.43689786639E+02  0.52268746337E+02  0.00000000000E+00 0. -1.
<mgrwt>
<rscale>  1 0.30000000E+03</rscale>
<asrwt>0</asrwt>
<pdfrwt beam="1">  1        1 0.11762023E+00 0.30000000E+03</pdfrwt>
<pdfrwt beam="2">0</pdfrwt>
<totfact> 0.26818596E+01</totfact>
</mgrwt>
</event>
<event>
 6    1  0.1950139E-004  0.3000000E+03  0.7818608E-02  0.1093470E+00
          1   -1    0    0  502    0  0.00000000000E+00  0.00000000000E+00  0.36564928653E+02  0.36564928653E+02  0.00000000000E+00 0.  1.
         13   -1    0    0    0    0 -0.00000000000E+00 -0.00000000000E+00 -0.10000000000E+04  0.10000000000E+04  0.00000000000E+00 0.  1.
    9000005    2    1    2  501    0  0.15974251046E+02  0.83979359745E+01 -0.93741611793E+03  0.10048996802E+04  0.36159187907E+03 0.  0.
         13    1    3    3    0    0 -0.15795108134E+03 -0.65297040628E+02 -0.38993905693E+03  0.42575194155E+03  0.00000000000E+00 0.  1.
          1    1    3    3  501    0  0.17392533239E+03  0.73694976603E+02 -0.54747706100E+03  0.57914773862E+03  0.00000000000E+00 0.  1.
         21    1    1    2  502  501 -0.15974251046E+02 -0.83979359745E+01 -0.26018953415E+02  0.31665248490E+02  0.00000000000E+00 0.  1.
<mgrwt>
<rscale>  1 0.30000000E+03</rscale>
<asrwt>0</asrwt>
<pdfrwt beam="1">  1        1 0.13296366E+00 0.30000000E+03</pdfrwt>
<pdfrwt beam="2">0</pdfrwt>
<totfact> 0.22049882E+01</totfact>
</mgrwt>
</event>
<event>
 6    1  0.1950139E-004  0.3000000E+03  0.7818608E-02  0.1093470E+00
          1   -1    0    0  502    0  0.00000000000E+00  0.00000000000E+00  0.71833360717E+02  0.71833360717E+02  0.00000000000E+00 0.  1.
         13   -1    0    0    0    0 -0.00000000000E+00 -0.00000000000E+00 -0.10000000000E+04  0.10000000000E+04  0.00000000000E+00 0.  1.
    9000005    2    1    2  501    0 -0.51585734280E+01 -0.21587326409E+02 -0.96906995635E+03  0.10252962262E+04  0.33413043508E+03 0.  0.
         13    1    3    3    0    0  0.58735655510E+02  0.14425171394E+03 -0.49949988990E+03  0.52321943219E+03  0.00000000000E+00 0.  1.
          1    1    3    3  501    0 -0.63894228938E+02 -0.16583904035E+03 -0.46957006644E+03  0.50207679402E+03  0.00000000000E+00 0.  1.
         21    1    1    2  502  501  0.51585734280E+01  0.21587326409E+02  0.40903317064E+02  0.46537134507E+02  0.00000000000E+00 0.  1.
<mgrwt>
<rscale>  1 0.30000000E+03</rscale>
<asrwt>0</asrwt>
<pdfrwt beam="1">  1        1 0.26121277E+00 0.30000000E+03</pdfrwt>
<pdfrwt beam="2">0</pdfrwt>
<totfact> 0.52884649E+00</totfact>
</mgrwt>
</event>
<event>
 6    1  0.1950139E-004  0.3000000E+03  0.7818608E-02  0.1093470E+00
          1   -1    0    0  502    0  0.00000000000E+00  0.00000000000E+00  0.41974241327E+02  0.41974241327E+02  0.00000000000E+00 0.  1.
         13   -1    0    0    0    0 -0.00000000000E+00 -0.00000000000E+00 -0.10000000000E+04  0.10000000000E+04  0.00000000000E+00 0.  1.
    9000005    2    1    2  501    0  0.10290035407E+02  0.30417047584E+02 -0.96043388868E+03  0.10097736093E+04  0.31012643536E+03 0.  0.
         13    1    3    3    0    0 -0.68820038335E+02  0.27455267557E+02 -0.91599766039E+03  0.91898950115E+03  0.00000000000E+00 0.  1.
          1    1    3    3  501    0  0.79110073742E+02  0.29617800262E+01 -0.44436228295E+02  0.90784108155E+02  0.00000000000E+00 0.  1.
         21    1    1    2  502  501 -0.10290035407E+02 -0.30417047584E+02  0.24081300082E+01  0.32200632020E+02  0.00000000000E+00 0. -1.
<mgrwt>
<rscale>  1 0.30000000E+03</rscale>
<asrwt>0</asrwt>
<pdfrwt beam="1">  1        1 0.15263393E+00 0.30000000E+03</pdfrwt>
<pdfrwt beam="2">0</pdfrwt>
<totfact> 0.17421300E+01</totfact>
</mgrwt>
</event>
<event>
 6    1  0.1950139E-004  0.3000000E+03  0.7818608E-02  0.1093470E+00
          1   -1    0    0  502    0  0.00000000000E+00  0.00000000000E+00  0.53940465557E+02  0.53940465557E+02  0.00000000000E+00 0.  1.
         13   -1    0    0    0    0 -0.00000000000E+00 -0.00000000000E+00 -0.10000000000E+04  0.10000000000E+04  0.00000000000E+00 0.  1.
    9000005    2    1    2  501    0  0.28014325734E+02  0.18465355422E+02 -0.96688910212E+03  0.10144481538E+04  0.30513070833E+03 0.  0.
         13    1    3    3    0    0 -0.60648759806E+02  0.83014500499E+02 -0.84194639647E+03  0.84820010250E+03  0.00000000000E+00 0.  1.
          3    1    3    3  501    0  0.88663085540E+02 -0.64549145077E+02 -0.12494270566E+03  0.16624805131E+03  0.00000000000E+00 0.  1.
         21    1    1    2  502  501 -0.28014325734E+02 -0.18465355422E+02  0.20829567682E+02  0.39492311745E+02  0.00000000000E+00 0.  1.
<mgrwt>
<rscale>  1 0.30000000E+03</rscale>
<asrwt>0</asrwt>
<pdfrwt beam="1">  1        1 0.19614756E+00 0.30000000E+03</pdfrwt>
<pdfrwt beam="2">0</pdfrwt>
<totfact> 0.10685124E+01</totfact>
</mgrwt>
</event>
<event>
 6    1  0.1950139E-004  0.3000000E+03  0.7818608E-02  0.1093470E+00
          1   -1    0    0  502    0  0.00000000000E+00  0.00000000000E+00  0.42671600831E+02  0.42671600831E+02  0.00000000000E+00 0.  1.
         13   -1    0    0    0    0 -0.00000000000E+00 -0.00000000000E+00 -0.10000000000E+04  0.10000000000E+04  0.00000000000E+00 0.  1.
    9000005    2    1    2  501    0 -0.17579846528E+02 -0.74041750508E+01 -0.96691709217E+03  0.10213217567E+04  0.32833762307E+03 0.  0.
         13    1    3    3    0    0 -0.76219877201E+02 -0.49034997930E+01 -0.29198914265E+02  0.81768518301E+02  0.00000000000E+00 0.  1.
          1    1    3    3  501    0  0.58640030673E+02 -0.25006752578E+01 -0.93771817790E+03  0.93955323837E+03  0.00000000000E+00 0.  1.
         21    1    1    2  502  501  0.17579846528E+02  0.74041750508E+01  0.95886929959E+01  0.21349844156E+02  0.00000000000E+00 0.  1.
<mgrwt>
<rscale>  1 0.30000000E+03</rscale>
<asrwt>0</asrwt>
<pdfrwt beam="1">  1        1 0.15516978E+00 0.30000000E+03</pdfrwt>
<pdfrwt beam="2">0</pdfrwt>
<totfact> 0.16916715E+01</totfact>
</mgrwt>
</event>
<event>
 6    1  0.1950139E-004  0.3000000E+03  0.7818608E-02  0.1093470E+00
          1   -1    0    0  502    0  0.00000000000E+00  0.00000000000E+00  0.33347440645E+02  0.33347440645E+02  0.00000000000E+00 0.  1.
         13   -1    0    0    0    0 -0.00000000000E+00 -0.00000000000E+00 -0.10000000000E+04  0.10000000000E+04  0.00000000000E+00 0.  1.
    9000005    2    1    2  501    0 -0.27422605968E+02 -0.27198642596E+02 -0.82461842754E+03  0.88615552484E+03  0.32215570411E+03 0.  0.
         13    1    3    3    0    0  0.29252051516E+02 -0.13660792337E+03 -0.68858406702E+03  0.70261328240E+03  0.00000000000E+00 0.  1.
          3    1    3    3  501    0 -0.56674657484E+02  0.10940928077E+03 -0.13603436052E+03  0.18354224244E+03  0.00000000000E+00 0.  1.
         21    1    1    2  502  501  0.27422605968E+02  0.27198642596E+02 -0.14203413182E+03  0.14719191580E+03  0.00000000000E+00 0.  1.
<mgrwt>
<rscale>  1 0.30000000E+03</rscale>
<asrwt>0</asrwt>
<pdfrwt beam="1">  1        1 0.12126368E+00 0.30000000E+03</pdfrwt>
<pdfrwt beam="2">0</pdfrwt>
<totfact> 0.25572986E+01</totfact>
</mgrwt>
</event>
<event>
 6    1  0.1950139E-004  0.3000000E+03  0.7818608E-02  0.1093470E+00
          1   -1    0    0  502    0  0.00000000000E+00  0.00000000000E+00  0.39719958219E+02  0.39719958219E+02  0.00000000000E+00 0.  1.
         13   -1    0    0    0    0 -0.00000000000E+00 -0.00000000000E+00 -0.10000000000E+04  0.10000000000E+04  0.00000000000E+00 0.  1.
    9000005    2    1    2  501    0 -0.19362301628E+02  0.51380105223E+01 -0.96767655123E+03  0.10183656559E+04  0.31665344368E+03 0.  0.
         13    1    3    3    0    0  0.18000730970E+02  0.97366334225E+02 -0.88056364353E+03  0.88611317542E+03  0.00000000000E+00 0.  1.
          1    1    3    3  501    0 -0.37363032598E+02 -0.92228323703E+02 -0.87112907705E+02  0.13225248046E+03  0.00000000000E+00 0.  1.
         21    1    1    2  502  501  0.19362301628E+02 -0.51380105223E+01  0.73965094490E+01  0.21354302342E+02  0.00000000000E+00 0.  1.
<mgrwt>
<rscale>  1 0.30000000E+03</rscale>
<asrwt>0</asrwt>
<pdfrwt beam="1">  1        1 0.14443652E+00 0.30000000E+03</pdfrwt>
<pdfrwt beam="2">0</pdfrwt>
<totfact> 0.19184329E+01</totfact>
</mgrwt>
</event>
<event>
 6    1  0.1950139E-004  0.3000000E+03  0.7818608E-02  0.1093470E+00
          1   -1    0    0  502    0  0.00000000000E+00  0.00000000000E+00  0.25980839097E+02  0.25980839097E+02  0.00000000000E+00 0.  1.
         13   -1    0    0    0    0 -0.00000000000E+00 -0.00000000000E+00 -0.10000000000E+04  0.10000000000E+04  0.00000000000E+00 0.  1.
    9000005    2    1    2  501    0 -0.11993171949E+02  0.66993876139E+00 -0.96509929265E+03  0.10110192536E+04  0.30099668014E+03 0.  0.
         13    1    3    3    0    0  0.38494289390E+02 -0.46658144757E+02 -0.93261085595E+03  0.93457038335E+03  0.00000000000E+00 0.  1.
          3    1    3    3  501    0 -0.50487461339E+02  0.47328083518E+02 -0.32488436701E+02  0.76448870242E+02  0.00000000000E+00 0.  1.
         21    1    1    2  502  501  0.11993171949E+02 -0.66993876139E+00 -0.89198682481E+01  0.14961585508E+02  0.00000000000E+00 0.  1.
<mgrwt>
<rscale>  1 0.30000000E+03</rscale>
<asrwt>0</asrwt>
<pdfrwt beam="1">  1        1 0.94475978E-01 0.30000000E+03</pdfrwt>
<pdfrwt beam="2">0</pdfrwt>
<totfact> 0.37165642E+01</totfact>
</mgrwt>
</event>
<event>
 6    1  0.1950139E-004  0.3000000E+03  0.7818608E-02  0.1093470E+00
          1   -1    0    0  502    0  0.00000000000E+00  0.00000000000E+00  0.27838032963E+02  0.27838032963E+02  0.00000000000E+00 0.  1.
         13   -1    0    0    0    0 -0.00000000000E+00 -0.00000000000E+00 -0.10000000000E+04  0.10000000000E+04  0.00000000000E+00 0.  1.
    9000005    2    1    2  501    0  0.15480280435E+02 -0.89380536657E+01 -0.94358714551E+03  0.99413271719E+03  0.31244780419E+03 0.  0.
         13    1    3    3    0    0 -0.87275083711E+02  0.11404357513E+03 -0.56619518849E+03  0.58412316230E+03  0.00000000000E+00 0.  1.
          1    1    3    3  501    0  0.10275536415E+03 -0.12298162880E+03 -0.37739195702E+03  0.41000955490E+03  0.00000000000E+00 0.  1.
         21    1    1    2  502  501 -0.15480280435E+02  0.89380536657E+01 -0.28574821528E+02  0.33705315768E+02  0.00000000000E+00 0.  1.
<mgrwt>
<rscale>  1 0.30000000E+03</rscale>
<asrwt>0</asrwt>
<pdfrwt beam="1">  1        1 0.10122942E+00 0.30000000E+03</pdfrwt>
<pdfrwt beam="2">0</pdfrwt>
<totfact> 0.33619744E+01</totfact>
</mgrwt>
</event>
<event>
 6    1  0.1950139E-004  0.3000000E+03  0.7818608E-02  0.1093470E+00
          1   -1    0    0  502    0  0.00000000000E+00  0.00000000000E+00  0.74129715406E+02  0.74129715406E+02  0.00000000000E+00 0.  1.
         13   -1    0    0    0    0 -0.00000000000E+00 -0.00000000000E+00 -0.10000000000E+04  0.10000000000E+04  0.00000000000E+00 0.  1.
    9000005    2    1    2  501    0  0.34732526439E+02  0.34216857812E+01 -0.96666582980E+03  0.10204423534E+04  0.32502571261E+03 0.  0.
         13    1    3    3    0    0  0.99653306375E+02  0.11905360659E+03 -0.75400160832E+03  0.76982008811E+03  0.00000000000E+00 0.  1.
          1    1    3    3  501    0 -0.64920779936E+02 -0.11563192081E+03 -0.21266422148E+03  0.25062226532E+03  0.00000000000E+00 0.  1.
         21    1    1    2  502  501 -0.34732526439E+02 -0.34216857812E+01  0.40795545207E+02  0.53687361968E+02  0.00000000000E+00 0. -1.
<mgrwt>
<rscale>  1 0.30000000E+03</rscale>
<asrwt>0</asrwt>
<pdfrwt beam="1">  1        1 0.26956317E+00 0.30000000E+03</pdfrwt>
<pdfrwt beam="2">0</pdfrwt>
<totfact> 0.48308645E+00</totfact>
</mgrwt>
</event>
<event>
 6    1  0.1950139E-004  0.3000000E+03  0.7818608E-02  0.1093470E+00
          1   -1    0    0  502    0  0.00000000000E+00  0.00000000000E+00  0.50503729154E+02  0.50503729154E+02  0.00000000000E+00 0.  1.
         13   -1    0    0    0    0 -0.00000000000E+00 -0.00000000000E+00 -0.10000000000E+04  0.10000000000E+04  0.00000000000E+00 0.  1.
    9000005    2    1    2  501    0 -0.76903402079E+02 -0.26707519603E+01 -0.90589849290E+03  0.96206147449E+03  0.31462507068E+03 0.  0.
         13    1    3    3    0    0  0.50128771613E+02 -0.10470135181E+03 -0.63824278584E+03  0.64871343480E+03  0.00000000000E+00 0.  1.
          3    1    3    3  501    0 -0.12703217369E+03  0.10203059985E+03 -0.26765570706E+03  0.31334803969E+03  0.00000000000E+00 0.  1.
         21    1    1    2  502  501  0.76903402079E+02  0.26707519603E+01 -0.43597777947E+02  0.88442254659E+02  0.00000000000E+00 0.  1.
<mgrwt>
<rscale>  1 0.30000000E+03</rscale>
<asrwt>0</asrwt>
<pdfrwt beam="1">  1        1 0.18365031E+00 0.30000000E+03</pdfrwt>
<pdfrwt beam="2">0</pdfrwt>
<totfact> 0.12266510E+01</totfact>
</mgrwt>
</event>
<event>
 6    1  0.1950139E-004  0.3000000E+03  0.7818608E-02  0.1093470E+00
          1   -1    0    0  502    0  0.00000000000E+00  0.00000000000E+00  0.51006955918E+02  0.51006955918E+02  0.00000000000E+00 0.  1.
         13   -1    0    0    0    0 -0.00000000000E+00 -0.00000000000E+00 -0.10000000000E+04  0.10000000000E+04  0.00000000000E+00 0.  1.
    9000005    2    1    2  501    0 -0.44092061415E+02 -0.94822927876E+02 -0.72831478039E+03  0.80680541293E+03  0.33099404446E+03 0.  0.
         13    1    3    3    0    0 -0.23481013959E+02 -0.48539069923E+02 -0.74982606649E+03  0.75176228245E+03  0.00000000000E+00 0.  1.
          1    1    3    3  501    0 -0.20611047456E+02 -0.46283857952E+02  0.21511286096E+02  0.55043130486E+02  0.00000000000E+00 0.  1.
         21    1    1    2  502  501  0.44092061415E+02  0.94822927876E+02 -0.22067826369E+03  0.24420154299E+03  0.00000000000E+00 0.  1.
<mgrwt>
<rscale>  1 0.30000000E+03</rscale>
<asrwt>0</asrwt>
<pdfrwt beam="1">  1        1 0.18548023E+00 0.30000000E+03</pdfrwt>
<pdfrwt beam="2">0</pdfrwt>
<totfact> 0.12020286E+01</totfact>
</mgrwt>
</event>
<event>
 6    1  0.1950139E-004  0.3000000E+03  0.7818608E-02  0.1093470E+00
          1   -1    0    0  502    0  0.00000000000E+00  0.00000000000E+00  0.25907670482E+02  0.25907670482E+02  0.00000000000E+00 0.  1.
         13   -1    0    0    0    0 -0.00000000000E+00 -0.00000000000E+00 -0.10000000000E+04  0.10000000000E+04  0.00000000000E+00 0.  1.
    9000005    2    1    2  501    0 -0.16032143979E+02  0.47350837704E+01 -0.93288581773E+03  0.98143939783E+03  0.30441401418E+03 0.  0.
         13    1    3    3    0    0  0.13859830205E+03  0.43804199716E+02 -0.45136656086E+03  0.47419412639E+03  0.00000000000E+00 0.  1.
          3    1    3    3  501    0 -0.15463044602E+03 -0.39069115946E+02 -0.48151925687E+03  0.50724527144E+03  0.00000000000E+00 0.  1.
         21    1    1    2  502  501  0.16032143979E+02 -0.47350837704E+01 -0.41206511787E+02  0.44468272651E+02  0.00000000000E+00 0.  1.
<mgrwt>
<rscale>  1 0.30000000E+03</rscale>
<asrwt>0</asrwt>
<pdfrwt beam="1">  1        1 0.94209910E-01 0.30000000E+03</pdfrwt>
<pdfrwt beam="2">0</pdfrwt>
<totfact> 0.37316544E+01</totfact>
</mgrwt>
</event>
<event>
 6    1  0.1950139E-004  0.3000000E+03  0.7818608E-02  0.1093470E+00
          1   -1    0    0  502    0  0.00000000000E+00  0.00000000000E+00  0.41685625840E+02  0.41685625840E+02  0.00000000000E+00 0.  1.
         13   -1    0    0    0    0 -0.00000000000E+00 -0.00000000000E+00 -0.10000000000E+04  0.10000000000E+04  0.00000000000E+00 0.  1.
    9000005    2    1    2  501    0 -0.11003163857E+02  0.10051251726E+02 -0.95183282882E+03  0.10254342349E+04  0.38119225975E+03 0.  0.
         13    1    3    3    0    0  0.49863793413E+02 -0.11886349681E+03 -0.10378705931E+03  0.16548922155E+03  0.00000000000E+00 0.  1.
          3    1    3    3  501    0 -0.60866957271E+02  0.12891474854E+03 -0.84804576951E+03  0.85994501340E+03  0.00000000000E+00 0.  1.
         21    1    1    2  502  501  0.11003163857E+02 -0.10051251726E+02 -0.64815453376E+01  0.16251390897E+02  0.00000000000E+00 0.  1.
<mgrwt>
<rscale>  1 0.30000000E+03</rscale>
<asrwt>0</asrwt>
<pdfrwt beam="1">  1        1 0.15158441E+00 0.30000000E+03</pdfrwt>
<pdfrwt beam="2">0</pdfrwt>
<totfact> 0.17635471E+01</totfact>
</mgrwt>
</event>
<event>
 6    1  0.1950139E-004  0.3000000E+03  0.7818608E-02  0.1093470E+00
          3   -1    0    0  502    0  0.00000000000E+00  0.00000000000E+00  0.28288003048E+02  0.28288003048E+02  0.00000000000E+00 0.  1.
         13   -1    0    0    0    0 -0.00000000000E+00 -0.00000000000E+00 -0.10000000000E+04  0.10000000000E+04  0.00000000000E+00 0.  1.
    9000005    2    1    2  501    0 -0.53566753021E+00  0.19947584050E+02 -0.91037592106E+03  0.96378755921E+03  0.31575932068E+03 0.  0.
         13    1    3    3    0    0 -0.90485302887E+02 -0.11470619591E+03 -0.32312945016E+03  0.35462338188E+03  0.00000000000E+00 0.  1.
          1    1    3    3  501    0  0.89949635357E+02  0.13465377996E+03 -0.58724647090E+03  0.60916417733E+03  0.00000000000E+00 0.  1.
         21    1    1    2  502  501  0.53566753021E+00 -0.19947584050E+02 -0.61336075895E+02  0.64500443838E+02  0.00000000000E+00 0.  1.
<mgrwt>
<rscale>  1 0.30000000E+03</rscale>
<asrwt>0</asrwt>
<pdfrwt beam="1">  1        3 0.10286568E+00 0.30000000E+03</pdfrwt>
<pdfrwt beam="2">0</pdfrwt>
<totfact> 0.36334714E+00</totfact>
</mgrwt>
</event>
<event>
 6    1  0.1950139E-004  0.3000000E+03  0.7818608E-02  0.1093470E+00
          3   -1    0    0  502    0  0.00000000000E+00  0.00000000000E+00  0.38842368483E+02  0.38842368483E+02  0.00000000000E+00 0.  1.
         13   -1    0    0    0    0 -0.00000000000E+00 -0.00000000000E+00 -0.10000000000E+04  0.10000000000E+04  0.00000000000E+00 0.  1.
    9000005    2    1    2  501    0  0.11506231610E+02 -0.48191501701E+02 -0.87011868396E+03  0.93519438647E+03  0.33915660412E+03 0.  0.
         13    1    3    3    0    0  0.19881725351E+02  0.14095487172E+03 -0.26056311798E+03  0.29691193529E+03  0.00000000000E+00 0.  1.
          1    1    3    3  501    0 -0.83754937414E+01 -0.18914637342E+03 -0.60955556597E+03  0.63828245118E+03  0.00000000000E+00 0.  1.
         21    1    1    2  502  501 -0.11506231610E+02  0.48191501701E+02 -0.91038947561E+02  0.10364798201E+03  0.00000000000E+00 0.  1.
<mgrwt>
<rscale>  1 0.30000000E+03</rscale>
<asrwt>0</asrwt>
<pdfrwt beam="1">  1        3 0.14124527E+00 0.30000000E+03</pdfrwt>
<pdfrwt beam="2">0</pdfrwt>
<totfact> 0.12915771E+00</totfact>
</mgrwt>
</event>
<event>
 6    1  0.1950139E-004  0.3000000E+03  0.7818608E-02  0.1093470E+00
          1   -1    0    0  502    0  0.00000000000E+00  0.00000000000E+00  0.48101373797E+02  0.48101373797E+02  0.00000000000E+00 0.  1.
         13   -1    0    0    0    0 -0.00000000000E+00 -0.00000000000E+00 -0.10000000000E+04  0.10000000000E+04  0.00000000000E+00 0.  1.
    9000005    2    1    2  501    0  0.83429201215E+02  0.35168590938E+02 -0.84552412379E+03  0.90841316324E+03  0.31954056056E+03 0.  0.
         13    1    3    3    0    0  0.60658466836E+02 -0.10094303006E+03 -0.69212749747E+03  0.70207507979E+03  0.00000000000E+00 0.  1.
          1    1    3    3  501    0  0.22770734380E+02  0.13611162100E+03 -0.15339662632E+03  0.20633808345E+03  0.00000000000E+00 0.  1.
         21    1    1    2  502  501 -0.83429201215E+02 -0.35168590938E+02 -0.10637450241E+03  0.13968821055E+03  0.00000000000E+00 0.  1.
<mgrwt>
<rscale>  1 0.30000000E+03</rscale>
<asrwt>0</asrwt>
<pdfrwt beam="1">  1        1 0.17491446E+00 0.30000000E+03</pdfrwt>
<pdfrwt beam="2">0</pdfrwt>
<totfact> 0.13520785E+01</totfact>
</mgrwt>
</event>
<event>
 6    1  0.1950139E-004  0.3000000E+03  0.7818608E-02  0.1093470E+00
          1   -1    0    0  502    0  0.00000000000E+00  0.00000000000E+00  0.77643914765E+02  0.77643914765E+02  0.00000000000E+00 0.  1.
         13   -1    0    0    0    0 -0.00000000000E+00 -0.00000000000E+00 -0.10000000000E+04  0.10000000000E+04  0.00000000000E+00 0.  1.
    9000005    2    1    2  501    0 -0.19968811257E+02 -0.87462912193E+01 -0.96877458912E+03  0.10263610859E+04  0.33825674138E+03 0.  0.
         13    1    3    3    0    0 -0.13134924434E+03  0.10025230813E+03 -0.66152058297E+03  0.68184501976E+03  0.00000000000E+00 0.  1.
          3    1    3    3  501    0  0.11138043309E+03 -0.10899859935E+03 -0.30725400615E+03  0.34451606614E+03  0.00000000000E+00 0.  1.
         21    1    1    2  502  501  0.19968811257E+02  0.87462912193E+01  0.46418503888E+02  0.51282828864E+02  0.00000000000E+00 0.  1.
<mgrwt>
<rscale>  1 0.30000000E+03</rscale>
<asrwt>0</asrwt>
<pdfrwt beam="1">  1        1 0.28234210E+00 0.30000000E+03</pdfrwt>
<pdfrwt beam="2">0</pdfrwt>
<totfact> 0.42103479E+00</totfact>
</mgrwt>
</event>
<event>
 6    1  0.1950139E-004  0.3000000E+03  0.7818608E-02  0.1093470E+00
          1   -1    0    0  502    0  0.00000000000E+00  0.00000000000E+00  0.35657662383E+02  0.35657662383E+02  0.00000000000E+00 0.  1.
         13   -1    0    0    0    0 -0.00000000000E+00 -0.00000000000E+00 -0.10000000000E+04  0.10000000000E+04  0.00000000000E+00 0.  1.
    9000005    2    1    2  501    0  0.56162660497E+01  0.94729380140E+01 -0.96608462734E+03  0.10245080179E+04  0.34084584864E+03 0.  0.
         13    1    3    3    0    0 -0.52677134633E+01  0.12400824421E+03 -0.12702870243E+03  0.17760091407E+03  0.00000000000E+00 0.  1.
          3    1    3    3  501    0  0.10883979513E+02 -0.11453530619E+03 -0.83905592491E+03  0.84690710382E+03  0.00000000000E+00 0.  1.
         21    1    1    2  502  501 -0.56162660497E+01 -0.94729380140E+01  0.17422897209E+01  0.11149644498E+02  0.00000000000E+00 0.  1.
<mgrwt>
<rscale>  1 0.30000000E+03</rscale>
<asrwt>0</asrwt>
<pdfrwt beam="1">  1        1 0.12966450E+00 0.30000000E+03</pdfrwt>
<pdfrwt beam="2">0</pdfrwt>
<totfact> 0.22976281E+01</totfact>
</mgrwt>
</event>
<event>
 6    1  0.1950139E-004  0.3000000E+03  0.7818608E-02  0.1093470E+00
          1   -1    0    0  502    0  0.00000000000E+00  0.00000000000E+00  0.55960181439E+02  0.55960181439E+02  0.00000000000E+00 0.  1.
         13   -1    0    0    0    0 -0.00000000000E+00 -0.00000000000E+00 -0.10000000000E+04  0.10000000000E+04  0.00000000000E+00 0.  1.
    9000005    2    1    2  501    0 -0.85616229803E+01 -0.15571487584E+02 -0.96198896014E+03  0.10307026222E+04  0.36960703921E+03 0.  0.
         13    1    3    3    0    0  0.22816238691E+02 -0.41913001272E+02 -0.98334462162E+03  0.98450186657E+03  0.00000000000E+00 0.  1.
          1    1    3    3  501    0 -0.31377861672E+02  0.26341513688E+02  0.21355661477E+02  0.46200755660E+02  0.00000000000E+00 0.  1.
         21    1    1    2  502  501  0.85616229803E+01  0.15571487584E+02  0.17949141578E+02  0.25257559206E+02  0.00000000000E+00 0.  1.
<mgrwt>
<rscale>  1 0.30000000E+03</rscale>
<asrwt>0</asrwt>
<pdfrwt beam="1">  1        1 0.20349200E+00 0.30000000E+03</pdfrwt>
<pdfrwt beam="2">0</pdfrwt>
<totfact> 0.98596953E+00</totfact>
</mgrwt>
</event>
<event>
 6    1  0.1950139E-004  0.3000000E+03  0.7818608E-02  0.1093470E+00
          1   -1    0    0  502    0  0.00000000000E+00  0.00000000000E+00  0.37900813335E+02  0.37900813335E+02  0.00000000000E+00 0.  1.
         13   -1    0    0    0    0 -0.00000000000E+00 -0.00000000000E+00 -0.10000000000E+04  0.10000000000E+04  0.00000000000E+00 0.  1.
    9000005    2    1    2  501    0 -0.15905642689E+02 -0.24250655922E+02 -0.94692164215E+03  0.10051679302E+04  0.33594774551E+03 0.  0.
         13    1    3    3    0    0 -0.10184621067E+03 -0.18943302874E+02 -0.90222696049E+03  0.90815471567E+03  0.00000000000E+00 0.  1.
          3    1    3    3  501    0  0.85940567983E+02 -0.53073530477E+01 -0.44694681654E+02  0.97013214511E+02  0.00000000000E+00 0.  1.
         21    1    1    2  502  501  0.15905642689E+02  0.24250655922E+02 -0.15177544519E+02  0.32732883155E+02  0.00000000000E+00 0.  1.
<mgrwt>
<rscale>  1 0.30000000E+03</rscale>
<asrwt>0</asrwt>
<pdfrwt beam="1">  1        1 0.13782143E+00 0.30000000E+03</pdfrwt>
<pdfrwt beam="2">0</pdfrwt>
<totfact> 0.20773477E+01</totfact>
</mgrwt>
</event>
<event>
 6    1  0.1950139E-004  0.3000000E+03  0.7818608E-02  0.1093470E+00
          1   -1    0    0  502    0  0.00000000000E+00  0.00000000000E+00  0.32844710660E+02  0.32844710660E+02  0.00000000000E+00 0.  1.
         13   -1    0    0    0    0 -0.00000000000E+00 -0.00000000000E+00 -0.10000000000E+04  0.10000000000E+04  0.00000000000E+00 0.  1.
    9000005    2    1    2  501    0 -0.23512057860E+02  0.63453974087E+01 -0.95122438833E+03  0.10037436017E+04  0.31950007849E+03 0.  0.
         13    1    3    3    0    0 -0.16056241374E+03 -0.49223116103E+02 -0.42036504902E+03  0.45266983366E+03  0.00000000000E+00 0.  1.
          3    1    3    3  501    0  0.13705035588E+03  0.55568513511E+02 -0.53085933931E+03  0.55107376809E+03  0.00000000000E+00 0.  1.
         21    1    1    2  502  501  0.23512057860E+02 -0.63453974087E+01 -0.15930901009E+02  0.29101108915E+02  0.00000000000E+00 0. -1.
<mgrwt>
<rscale>  1 0.30000000E+03</rscale>
<asrwt>0</asrwt>
<pdfrwt beam="1">  1        1 0.11943556E+00 0.30000000E+03</pdfrwt>
<pdfrwt beam="2">0</pdfrwt>
<totfact> 0.26188000E+01</totfact>
</mgrwt>
</event>
<event>
 6    1  0.1950139E-004  0.3000000E+03  0.7818608E-02  0.1093470E+00
          1   -1    0    0  502    0  0.00000000000E+00  0.00000000000E+00  0.38067696812E+02  0.38067696812E+02  0.00000000000E+00 0.  1.
         13   -1    0    0    0    0 -0.00000000000E+00 -0.00000000000E+00 -0.10000000000E+04  0.10000000000E+04  0.00000000000E+00 0.  1.
    9000005    2    1    2  501    0  0.20186039507E+02 -0.24078122170E+02 -0.95926495867E+03  0.10065344305E+04  0.30320795944E+03 0.  0.
         13    1    3    3    0    0 -0.72172798353E+02  0.76691787196E+02 -0.13604450953E+03  0.17204258664E+03  0.00000000000E+00 0.  1.
          3    1    3    3  501    0  0.92358837859E+02 -0.10076990937E+03 -0.82322044914E+03  0.83449184385E+03  0.00000000000E+00 0.  1.
         21    1    1    2  502  501 -0.20186039507E+02  0.24078122170E+02 -0.26673445184E+01  0.31533266322E+02  0.00000000000E+00 0.  1.
<mgrwt>
<rscale>  1 0.30000000E+03</rscale>
<asrwt>0</asrwt>
<pdfrwt beam="1">  1        1 0.13842828E+00 0.30000000E+03</pdfrwt>
<pdfrwt beam="2">0</pdfrwt>
<totfact> 0.20620871E+01</totfact>
</mgrwt>
</event>
<event>
 6    1  0.1950139E-004  0.3000000E+03  0.7818608E-02  0.1093470E+00
          1   -1    0    0  502    0  0.00000000000E+00  0.00000000000E+00  0.17471655087E+03  0.17471655087E+03  0.00000000000E+00 0.  1.
         13   -1    0    0    0    0 -0.00000000000E+00 -0.00000000000E+00 -0.10000000000E+04  0.10000000000E+04  0.00000000000E+00 0.  1.
    9000005    2    1    2  501    0 -0.14698230597E+02  0.38767225755E+02 -0.96899750578E+03  0.10251416002E+04  0.33202439456E+03 0.  0.
         13    1    3    3    0    0 -0.99695187558E+02 -0.35098815061E+02 -0.86633856170E+03  0.87276202984E+03  0.00000000000E+00 0.  1.
          3    1    3    3  501    0  0.84996956961E+02  0.73866040817E+02 -0.10265894408E+03  0.15237957041E+03  0.00000000000E+00 0.  1.
         21    1    1    2  502  501  0.14698230597E+02 -0.38767225755E+02  0.14371405665E+03  0.14957495062E+03  0.00000000000E+00 0.  1.
<mgrwt>
<rscale>  1 0.30000000E+03</rscale>
<asrwt>0</asrwt>
<pdfrwt beam="1">  1        1 0.63533425E+00 0.30000000E+03</pdfrwt>
<pdfrwt beam="2">0</pdfrwt>
<totfact> 0.41783579E-02</totfact>
</mgrwt>
</event>
<event>
 6    1  0.1950139E-004  0.3000000E+03  0.7818608E-02  0.1093470E+00
          1   -1    0    0  502    0  0.00000000000E+00  0.00000000000E+00  0.53703817579E+02  0.53703817579E+02  0.00000000000E+00 0.  1.
         13   -1    0    0    0    0 -0.00000000000E+00 -0.00000000000E+00 -0.10000000000E+04  0.10000000000E+04  0.00000000000E+00 0.  1.
    9000005    2    1    2  501    0  0.12392740232E+01 -0.10255730730E+02 -0.96981730648E+03  0.10280141486E+04  0.34082365831E+03 0.  0.
         13    1    3    3    0    0 -0.16823183208E+03 -0.11736419216E+02 -0.41727305151E+03  0.45006276493E+03  0.00000000000E+00 0.  1.
          3    1    3    3  501    0  0.16947110610E+03  0.14806884862E+01 -0.55254425496E+03  0.57795138371E+03  0.00000000000E+00 0.  1.
         21    1    1    2  502  501 -0.12392740232E+01  0.10255730730E+02  0.23521124057E+02  0.25689668932E+02  0.00000000000E+00 0.  1.
<mgrwt>
<rscale>  1 0.30000000E+03</rscale>
<asrwt>0</asrwt>
<pdfrwt beam="1">  1        1 0.19528702E+00 0.30000000E+03</pdfrwt>
<pdfrwt beam="2">0</pdfrwt>
<totfact> 0.10786615E+01</totfact>
</mgrwt>
</event>
<event>
 6    1  0.1950139E-004  0.3000000E+03  0.7818608E-02  0.1093470E+00
          1   -1    0    0  502    0  0.00000000000E+00  0.00000000000E+00  0.43365306485E+02  0.43365306485E+02  0.00000000000E+00 0.  1.
         13   -1    0    0    0    0 -0.00000000000E+00 -0.00000000000E+00 -0.10000000000E+04  0.10000000000E+04  0.00000000000E+00 0.  1.
    9000005    2    1    2  501    0 -0.10060038371E+02  0.13575737055E+00 -0.97191540976E+03  0.10250698674E+04  0.32564926918E+03 0.  0.
         13    1    3    3    0    0 -0.16030055622E+03  0.49314547471E+02 -0.50325698218E+03  0.53046751364E+03  0.00000000000E+00 0.  1.
          3    1    3    3  501    0  0.15024051785E+03 -0.49178790100E+02 -0.46865842759E+03  0.49460235376E+03  0.00000000000E+00 0.  1.
         21    1    1    2  502  501  0.10060038371E+02 -0.13575737055E+00  0.15280716250E+02  0.18295439082E+02  0.00000000000E+00 0. -1.
<mgrwt>
<rscale>  1 0.30000000E+03</rscale>
<asrwt>0</asrwt>
<pdfrwt beam="1">  1        1 0.15769236E+00 0.30000000E+03</pdfrwt>
<pdfrwt beam="2">0</pdfrwt>
<totfact> 0.16432075E+01</totfact>
</mgrwt>
</event>
<event>
 6    1  0.1950139E-004  0.3000000E+03  0.7818608E-02  0.1093470E+00
          1   -1    0    0  502    0  0.00000000000E+00  0.00000000000E+00  0.61369948444E+02  0.61369948444E+02  0.00000000000E+00 0.  1.
         13   -1    0    0    0    0 -0.00000000000E+00 -0.00000000000E+00 -0.10000000000E+04  0.10000000000E+04  0.00000000000E+00 0.  1.
    9000005    2    1    2  501    0  0.54010142658E+01  0.18376434806E+02 -0.92553037824E+03  0.10381650836E+04  0.46990785848E+03 0.  0.
         13    1    3    3    0    0  0.23686131303E+03  0.24936355317E+02 -0.44362167907E+03  0.50351295671E+03  0.00000000000E+00 0.  1.
          3    1    3    3  501    0 -0.23146029877E+03 -0.65599205108E+01 -0.48190869916E+03  0.53465212689E+03  0.00000000000E+00 0.  1.
         21    1    1    2  502  501 -0.54010142658E+01 -0.18376434806E+02 -0.13099673317E+02  0.23204864841E+02  0.00000000000E+00 0.  1.
<mgrwt>
<rscale>  1 0.30000000E+03</rscale>
<asrwt>0</asrwt>
<pdfrwt beam="1">  1        1 0.22316392E+00 0.30000000E+03</pdfrwt>
<pdfrwt beam="2">0</pdfrwt>
<totfact> 0.79666073E+00</totfact>
</mgrwt>
</event>
<event>
 6    1  0.1950139E-004  0.3000000E+03  0.7818608E-02  0.1093470E+00
          1   -1    0    0  502    0  0.00000000000E+00  0.00000000000E+00  0.27468815294E+02  0.27468815294E+02  0.00000000000E+00 0.  1.
         13   -1    0    0    0    0 -0.00000000000E+00 -0.00000000000E+00 -0.10000000000E+04  0.10000000000E+04  0.00000000000E+00 0.  1.
    9000005    2    1    2  501    0 -0.47597187604E+01 -0.53890345368E+01 -0.95166632615E+03  0.10053998566E+04  0.32420422372E+03 0.  0.
         13    1    3    3    0    0  0.70058761089E+02 -0.13786375078E+03 -0.31641260817E+03  0.35218117837E+03  0.00000000000E+00 0.  1.
          1    1    3    3  501    0 -0.74818479849E+02  0.13247471624E+03 -0.63525371798E+03  0.65321867822E+03  0.00000000000E+00 0.  1.
         21    1    1    2  502  501  0.47597187604E+01  0.53890345368E+01 -0.20864858554E+02  0.22068958706E+02  0.00000000000E+00 0.  1.
<mgrwt>
<rscale>  1 0.30000000E+03</rscale>
<asrwt>0</asrwt>
<pdfrwt beam="1">  1        1 0.99886812E-01 0.30000000E+03</pdfrwt>
<pdfrwt beam="2">0</pdfrwt>
<totfact> 0.34283662E+01</totfact>
</mgrwt>
</event>
<event>
 6    1  0.1950139E-004  0.3000000E+03  0.7818608E-02  0.1093470E+00
          1   -1    0    0  502    0  0.00000000000E+00  0.00000000000E+00  0.50807028298E+02  0.50807028298E+02  0.00000000000E+00 0.  1.
         13   -1    0    0    0    0 -0.00000000000E+00 -0.00000000000E+00 -0.10000000000E+04  0.10000000000E+04  0.00000000000E+00 0.  1.
    9000005    2    1    2  501    0  0.12121592295E+00 -0.11376759021E+02 -0.97154840320E+03  0.10257229565E+04  0.32874281507E+03 0.  0.
         13    1    3    3    0    0 -0.73504861203E+02  0.19968985130E+01 -0.27180174426E+02  0.78394605082E+02  0.00000000000E+00 0.  1.
          1    1    3    3  501    0  0.73626077126E+02 -0.13373657534E+02 -0.94436822877E+03  0.94732835145E+03  0.00000000000E+00 0.  1.
         21    1    1    2  502  501 -0.12121592295E+00  0.11376759021E+02  0.22355431494E+02  0.25084071767E+02  0.00000000000E+00 0.  1.
<mgrwt>
<rscale>  1 0.30000000E+03</rscale>
<asrwt>0</asrwt>
<pdfrwt beam="1">  1        1 0.18475322E+00 0.30000000E+03</pdfrwt>
<pdfrwt beam="2">0</pdfrwt>
<totfact> 0.12117452E+01</totfact>
</mgrwt>
</event>
<event>
 6    1  0.1950139E-004  0.3000000E+03  0.7818608E-02  0.1093470E+00
          1   -1    0    0  502    0  0.00000000000E+00  0.00000000000E+00  0.33593290392E+02  0.33593290392E+02  0.00000000000E+00 0.  1.
         13   -1    0    0    0    0 -0.00000000000E+00 -0.00000000000E+00 -0.10000000000E+04  0.10000000000E+04  0.00000000000E+00 0.  1.
    9000005    2    1    2  501    0  0.24831440133E+01 -0.15586297706E+02 -0.96489467108E+03  0.10177381669E+04  0.32329576459E+03 0.  0.
         13    1    3    3    0    0  0.19888207657E+02 -0.92282966402E+02 -0.65472398800E+02  0.11488394882E+03  0.00000000000E+00 0.  1.
          1    1    3    3  501    0 -0.17405063644E+02  0.76696668695E+02 -0.89942227228E+03  0.90285421808E+03  0.00000000000E+00 0.  1.
         21    1    1    2  502  501 -0.24831440133E+01  0.15586297706E+02 -0.15120385249E+01  0.15855123490E+02  0.00000000000E+00 0.  1.
<mgrwt>
<rscale>  1 0.30000000E+03</rscale>
<asrwt>0</asrwt>
<pdfrwt beam="1">  1        1 0.12215768E+00 0.30000000E+03</pdfrwt>
<pdfrwt beam="2">0</pdfrwt>
<totfact> 0.25279205E+01</totfact>
</mgrwt>
</event>
<event>
 6    1  0.1950139E-004  0.3000000E+03  0.7818608E-02  0.1093470E+00
          1   -1    0    0  502    0  0.00000000000E+00  0.00000000000E+00  0.29214354596E+02  0.29214354596E+02  0.00000000000E+00 0.  1.
         13   -1    0    0    0    0 -0.00000000000E+00 -0.00000000000E+00 -0.10000000000E+04  0.10000000000E+04  0.00000000000E+00 0.  1.
    9000005    2    1    2  501    0  0.42438086917E+01  0.18793378523E+02 -0.94707583725E+03  0.99866347914E+03  0.31623551678E+03 0.  0.
         13    1    3    3    0    0 -0.96834121036E+02  0.13217205017E+03 -0.45017122239E+03  0.47906202867E+03  0.00000000000E+00 0.  1.
          1    1    3    3  501    0  0.10107792973E+03 -0.11337867164E+03 -0.49690461486E+03  0.51960145047E+03  0.00000000000E+00 0.  1.
         21    1    1    2  502  501 -0.42438086917E+01 -0.18793378523E+02 -0.23709808151E+02  0.30550875455E+02  0.00000000000E+00 0.  1.
<mgrwt>
<rscale>  1 0.30000000E+03</rscale>
<asrwt>0</asrwt>
<pdfrwt beam="1">  1        1 0.10623424E+00 0.30000000E+03</pdfrwt>
<pdfrwt beam="2">0</pdfrwt>
<totfact> 0.31303571E+01</totfact>
</mgrwt>
</event>
<event>
 6    1  0.1950139E-004  0.3000000E+03  0.7818608E-02  0.1093470E+00
          1   -1    0    0  502    0  0.00000000000E+00  0.00000000000E+00  0.26786820901E+02  0.26786820901E+02  0.00000000000E+00 0.  1.
         13   -1    0    0    0    0 -0.00000000000E+00 -0.00000000000E+00 -0.10000000000E+04  0.10000000000E+04  0.00000000000E+00 0.  1.
    9000005    2    1    2  501    0 -0.73839387571E+01  0.98581080323E+01 -0.95317455872E+03  0.10032655294E+04  0.31280709441E+03 0.  0.
         13    1    3    3    0    0 -0.12068780315E+03  0.61423675510E+02 -0.76985097470E+03  0.78167060645E+03  0.00000000000E+00 0.  1.
          3    1    3    3  501    0  0.11330386439E+03 -0.51565567478E+02 -0.18332358402E+03  0.22159492299E+03  0.00000000000E+00 0.  1.
         21    1    1    2  502  501  0.73839387571E+01 -0.98581080323E+01 -0.20038620380E+02  0.23521291467E+02  0.00000000000E+00 0.  1.
<mgrwt>
<rscale>  1 0.30000000E+03</rscale>
<asrwt>0</asrwt>
<pdfrwt beam="1">  1        1 0.97406827E-01 0.30000000E+03</pdfrwt>
<pdfrwt beam="2">0</pdfrwt>
<totfact> 0.35561878E+01</totfact>
</mgrwt>
</event>
<event>
 6    1  0.1950139E-004  0.3000000E+03  0.7818608E-02  0.1093470E+00
          1   -1    0    0  502    0  0.00000000000E+00  0.00000000000E+00  0.64706987799E+02  0.64706987799E+02  0.00000000000E+00 0.  1.
         13   -1    0    0    0    0 -0.00000000000E+00 -0.00000000000E+00 -0.10000000000E+04  0.10000000000E+04  0.00000000000E+00 0.  1.
    9000005    2    1    2  501    0 -0.31550907881E+02  0.19994519549E+01 -0.96528535979E+03  0.10211294878E+04  0.33155715548E+03 0.  0.
         13    1    3    3    0    0 -0.17078380205E+03  0.19397037147E+02 -0.34845686914E+03  0.38854284415E+03  0.00000000000E+00 0.  1.
          3    1    3    3  501    0  0.13923289417E+03 -0.17397585192E+02 -0.61682849065E+03  0.63258664360E+03  0.00000000000E+00 0.  1.
         21    1    1    2  502  501  0.31550907881E+02 -0.19994519549E+01  0.29992347587E+02  0.43577500043E+02  0.00000000000E+00 0.  1.
<mgrwt>
<rscale>  1 0.30000000E+03</rscale>
<asrwt>0</asrwt>
<pdfrwt beam="1">  1        1 0.23529863E+00 0.30000000E+03</pdfrwt>
<pdfrwt beam="2">0</pdfrwt>
<totfact> 0.69896783E+00</totfact>
</mgrwt>
</event>
<event>
 6    1  0.1950139E-004  0.3000000E+03  0.7818608E-02  0.1093470E+00
          1   -1    0    0  502    0  0.00000000000E+00  0.00000000000E+00  0.21669191882E+02  0.21669191882E+02  0.00000000000E+00 0.  1.
         13   -1    0    0    0    0 -0.00000000000E+00 -0.00000000000E+00 -0.10000000000E+04  0.10000000000E+04  0.00000000000E+00 0.  1.
    9000005    2    1    2  501    0  0.96377550238E+02 -0.49239113028E+01 -0.77966851338E+03  0.80080818481E+03  0.15523492203E+03 0.  0.
         13    1    3    3    0    0  0.46056584217E+02 -0.13024250419E+02 -0.49473653652E+02  0.68836635990E+02  0.00000000000E+00 0.  1.
          1    1    3    3  501    0  0.50320966021E+02  0.81003391159E+01 -0.73019485973E+03  0.73197154882E+03  0.00000000000E+00 0.  1.
         21    1    1    2  502  501 -0.96377550238E+02  0.49239113028E+01 -0.19866229474E+03  0.22086100707E+03  0.00000000000E+00 0.  1.
<mgrwt>
<rscale>  1 0.30000000E+03</rscale>
<asrwt>0</asrwt>
<pdfrwt beam="1">  1        1 0.78797228E-01 0.30000000E+03</pdfrwt>
<pdfrwt beam="2">0</pdfrwt>
<totfact> 0.47958558E+01</totfact>
</mgrwt>
</event>
<event>
 6    1  0.1950139E-004  0.3000000E+03  0.7818608E-02  0.1093470E+00
          1   -1    0    0  502    0  0.00000000000E+00  0.00000000000E+00  0.88913275079E+02  0.88913275079E+02  0.00000000000E+00 0.  1.
         13   -1    0    0    0    0 -0.00000000000E+00 -0.00000000000E+00 -0.10000000000E+04  0.10000000000E+04  0.00000000000E+00 0.  1.
    9000005    2    1    2  501    0  0.66231937489E+02  0.23213628169E+02 -0.94422196157E+03  0.10113021548E+04  0.35531872116E+03 0.  0.
         13    1    3    3    0    0  0.17517636010E+03  0.32001673643E+01 -0.23309165634E+03  0.29159684234E+03  0.00000000000E+00 0.  1.
          3    1    3    3  501    0 -0.10894442261E+03  0.20013460805E+02 -0.71113030523E+03  0.71970531251E+03  0.00000000000E+00 0.  1.
         21    1    1    2  502  501 -0.66231937489E+02 -0.23213628169E+02  0.33135236648E+02  0.77611120234E+02  0.00000000000E+00 0.  1.
<mgrwt>
<rscale>  1 0.30000000E+03</rscale>
<asrwt>0</asrwt>
<pdfrwt beam="1">  1        1 0.32332168E+00 0.30000000E+03</pdfrwt>
<pdfrwt beam="2">0</pdfrwt>
<totfact> 0.26823403E+00</totfact>
</mgrwt>
</event>
<event>
 6    1  0.1950139E-004  0.3000000E+03  0.7818608E-02  0.1093470E+00
          1   -1    0    0  502    0  0.00000000000E+00  0.00000000000E+00  0.43020035532E+02  0.43020035532E+02  0.00000000000E+00 0.  1.
         13   -1    0    0    0    0 -0.00000000000E+00 -0.00000000000E+00 -0.10000000000E+04  0.10000000000E+04  0.00000000000E+00 0.  1.
    9000005    2    1    2  501    0 -0.54659369716E+02  0.31482331962E+02 -0.88653702169E+03  0.94846321605E+03  0.33114316760E+03 0.  0.
         13    1    3    3    0    0 -0.11146262877E+03  0.43988810703E+02 -0.90145305129E+02  0.14995035551E+03  0.00000000000E+00 0.  1.
          3    1    3    3  501    0  0.56803259054E+02 -0.12506478741E+02 -0.79639171656E+03  0.79851286054E+03  0.00000000000E+00 0.  1.
         21    1    1    2  502  501  0.54659369716E+02 -0.31482331962E+02 -0.70442942782E+02  0.94556819486E+02  0.00000000000E+00 0.  1.
<mgrwt>
<rscale>  1 0.30000000E+03</rscale>
<asrwt>0</asrwt>
<pdfrwt beam="1">  1        1 0.15643682E+00 0.30000000E+03</pdfrwt>
<pdfrwt beam="2">0</pdfrwt>
<totfact> 0.16671193E+01</totfact>
</mgrwt>
</event>
<event>
 6    1  0.1950139E-004  0.3000000E+03  0.7818608E-02  0.1093470E+00
          1   -1    0    0  502    0  0.00000000000E+00  0.00000000000E+00  0.54012548924E+02  0.54012548924E+02  0.00000000000E+00 0.  1.
         13   -1    0    0    0    0 -0.00000000000E+00 -0.00000000000E+00 -0.10000000000E+04  0.10000000000E+04  0.00000000000E+00 0.  1.
    9000005    2    1    2  501    0  0.41172277730E+01 -0.26123294226E+02 -0.96820992141E+03  0.10194695865E+04  0.31810125399E+03 0.  0.
         13    1    3    3    0    0  0.92540673060E+02  0.11803721911E+03 -0.46731252104E+03  0.49079278069E+03  0.00000000000E+00 0.  1.
          1    1    3    3  501    0 -0.88423445287E+02 -0.14416051333E+03 -0.50089740038E+03  0.52867680580E+03  0.00000000000E+00 0.  1.
         21    1    1    2  502  501 -0.41172277730E+01  0.26123294226E+02  0.22222470338E+02  0.34542962434E+02  0.00000000000E+00 0. -1.
<mgrwt>
<rscale>  1 0.30000000E+03</rscale>
<asrwt>0</asrwt>
<pdfrwt beam="1">  1        1 0.19640968E+00 0.30000000E+03</pdfrwt>
<pdfrwt beam="2">0</pdfrwt>
<totfact> 0.10654424E+01</totfact>
</mgrwt>
</event>
<event>
 6    1  0.1950139E-004  0.3000000E+03  0.7818608E-02  0.1093470E+00
          1   -1    0    0  502    0  0.00000000000E+00  0.00000000000E+00  0.38960911866E+02  0.38960911866E+02  0.00000000000E+00 0.  1.
         13   -1    0    0    0    0 -0.00000000000E+00 -0.00000000000E+00 -0.10000000000E+04  0.10000000000E+04  0.00000000000E+00 0.  1.
    9000005    2    1    2  501    0  0.20142734052E+02  0.24599398835E+01 -0.96818401755E+03  0.10174474032E+04  0.31210117811E+03 0.  0.
         13    1    3    3    0    0 -0.19958192826E+02  0.39191229477E+02 -0.96167304787E+03  0.96267820840E+03  0.00000000000E+00 0.  1.
          3    1    3    3  501    0  0.40100926878E+02 -0.36731289594E+02 -0.65109696821E+01  0.54769194790E+02  0.00000000000E+00 0.  1.
         21    1    1    2  502  501 -0.20142734052E+02 -0.24599398835E+01  0.71449294157E+01  0.21513508679E+02  0.00000000000E+00 0.  1.
<mgrwt>
<rscale>  1 0.30000000E+03</rscale>
<asrwt>0</asrwt>
<pdfrwt beam="1">  1        1 0.14167634E+00 0.30000000E+03</pdfrwt>
<pdfrwt beam="2">0</pdfrwt>
<totfact> 0.19827947E+01</totfact>
</mgrwt>
</event>
<event>
 6    1  0.1950139E-004  0.3000000E+03  0.7818608E-02  0.1093470E+00
          1   -1    0    0  502    0  0.00000000000E+00  0.00000000000E+00  0.60585732884E+02  0.60585732884E+02  0.00000000000E+00 0.  1.
         13   -1    0    0    0    0 -0.00000000000E+00 -0.00000000000E+00 -0.10000000000E+04  0.10000000000E+04  0.00000000000E+00 0.  1.
    9000005    2    1    2  501    0  0.20647991260E+02  0.12202551856E+03 -0.54267451597E+03  0.64499098212E+03  0.32588520987E+03 0.  0.
         13    1    3    3    0    0 -0.63505268542E+02  0.19769786807E+03 -0.46043896910E+03  0.50509544686E+03  0.00000000000E+00 0.  1.
          3    1    3    3  501    0  0.84153259803E+02 -0.75672349516E+02 -0.82235546870E+02  0.13989553526E+03  0.00000000000E+00 0.  1.
         21    1    1    2  502  501 -0.20647991260E+02 -0.12202551856E+03 -0.39673975115E+03  0.41559475077E+03  0.00000000000E+00 0.  1.
<mgrwt>
<rscale>  1 0.30000000E+03</rscale>
<asrwt>0</asrwt>
<pdfrwt beam="1">  1        1 0.22031222E+00 0.30000000E+03</pdfrwt>
<pdfrwt beam="2">0</pdfrwt>
<totfact> 0.82155371E+00</totfact>
</mgrwt>
</event>
<event>
 6    1  0.1950139E-004  0.3000000E+03  0.7818608E-02  0.1093470E+00
          1   -1    0    0  502    0  0.00000000000E+00  0.00000000000E+00  0.50809966956E+02  0.50809966956E+02  0.00000000000E+00 0.  1.
         13   -1    0    0    0    0 -0.00000000000E+00 -0.00000000000E+00 -0.10000000000E+04  0.10000000000E+04  0.00000000000E+00 0.  1.
    9000005    2    1    2  501    0 -0.27105422397E+02  0.13494141732E+02 -0.90110056160E+03  0.99398221803E+03  0.41845146894E+03 0.  0.
         13    1    3    3    0    0 -0.21682451434E+03  0.40379574561E+02 -0.57365709673E+03  0.61459404869E+03  0.00000000000E+00 0.  1.
          3    1    3    3  501    0  0.18971909194E+03 -0.26885432829E+02 -0.32744346487E+03  0.37938816934E+03  0.00000000000E+00 0.  1.
         21    1    1    2  502  501  0.27105422397E+02 -0.13494141732E+02 -0.48089471445E+02  0.56827748928E+02  0.00000000000E+00 0. -1.
<mgrwt>
<rscale>  1 0.30000000E+03</rscale>
<asrwt>0</asrwt>
<pdfrwt beam="1">  1        1 0.18476391E+00 0.30000000E+03</pdfrwt>
<pdfrwt beam="2">0</pdfrwt>
<totfact> 0.12116018E+01</totfact>
</mgrwt>
</event>
<event>
 6    1  0.1950139E-004  0.3000000E+03  0.7818608E-02  0.1093470E+00
          1   -1    0    0  502    0  0.00000000000E+00  0.00000000000E+00  0.43703427036E+02  0.43703427036E+02  0.00000000000E+00 0.  1.
         13   -1    0    0    0    0 -0.00000000000E+00 -0.00000000000E+00 -0.10000000000E+04  0.10000000000E+04  0.00000000000E+00 0.  1.
    9000005    2    1    2  501    0  0.39108631980E+02 -0.99155142188E+01 -0.94467370782E+03  0.10017166016E+04  0.33075660706E+03 0.  0.
         13    1    3    3    0    0 -0.10628736541E+02  0.11514096171E+03 -0.12193674158E+03  0.16804457757E+03  0.00000000000E+00 0.  1.
          1    1    3    3  501    0  0.49737368521E+02 -0.12505647593E+03 -0.82273696624E+03  0.83367202401E+03  0.00000000000E+00 0.  1.
         21    1    1    2  502  501 -0.39108631980E+02  0.99155142188E+01 -0.11622865142E+02  0.41986825454E+02  0.00000000000E+00 0. -1.
<mgrwt>
<rscale>  1 0.30000000E+03</rscale>
<asrwt>0</asrwt>
<pdfrwt beam="1">  1        1 0.15892189E+00 0.30000000E+03</pdfrwt>
<pdfrwt beam="2">0</pdfrwt>
<totfact> 0.16201828E+01</totfact>
</mgrwt>
</event>
<event>
 6    1  0.1950139E-004  0.3000000E+03  0.7818608E-02  0.1093470E+00
          1   -1    0    0  502    0  0.00000000000E+00  0.00000000000E+00  0.78819621914E+01  0.78819621914E+01  0.00000000000E+00 0.  1.
         13   -1    0    0    0    0 -0.00000000000E+00 -0.00000000000E+00 -0.10000000000E+04  0.10000000000E+04  0.00000000000E+00 0.  1.
    9000005    2    1    2  501    0  0.44617708372E+01  0.12462334477E+02 -0.97223062371E+03  0.98399208109E+03  0.15110530363E+03 0.  0.
         13    1    3    3    0    0 -0.62095951029E+02  0.40974552073E+02 -0.36850279461E+03  0.37593766862E+03  0.00000000000E+00 0.  1.
          3    1    3    3  501    0  0.66557721867E+02 -0.28512217597E+02 -0.60372782910E+03  0.60805441247E+03  0.00000000000E+00 0.  1.
         21    1    1    2  502  501 -0.44617708372E+01 -0.12462334477E+02 -0.19887414100E+02  0.23889881104E+02  0.00000000000E+00 0.  1.
<mgrwt>
<rscale>  1 0.30000000E+03</rscale>
<asrwt>0</asrwt>
<pdfrwt beam="1">  1        1 0.28661741E-01 0.30000000E+03</pdfrwt>
<pdfrwt beam="2">0</pdfrwt>
<totfact> 0.18284680E+02</totfact>
</mgrwt>
</event>
<event>
 6    1  0.1950139E-004  0.3000000E+03  0.7818608E-02  0.1093470E+00
          3   -1    0    0  502    0  0.00000000000E+00  0.00000000000E+00  0.42719235929E+02  0.42719235929E+02  0.00000000000E+00 0.  1.
         13   -1    0    0    0    0 -0.00000000000E+00 -0.00000000000E+00 -0.10000000000E+04  0.10000000000E+04  0.00000000000E+00 0.  1.
    9000005    2    1    2  501    0  0.62861053866E+02 -0.81607838244E+01 -0.88792891471E+03  0.94876291898E+03  0.32819995179E+03 0.  0.
         13    1    3    3    0    0  0.13781997935E+03  0.63234806557E+02 -0.18948002508E+03  0.24268429569E+03  0.00000000000E+00 0.  1.
          1    1    3    3  501    0 -0.74958925489E+02 -0.71395590382E+02 -0.69844888963E+03  0.70607862329E+03  0.00000000000E+00 0.  1.
         21    1    1    2  502  501 -0.62861053866E+02  0.81607838244E+01 -0.69351849360E+02  0.93956316953E+02  0.00000000000E+00 0.  1.
<mgrwt>
<rscale>  1 0.30000000E+03</rscale>
<asrwt>0</asrwt>
<pdfrwt beam="1">  1        3 0.15534300E+00 0.30000000E+03</pdfrwt>
<pdfrwt beam="2">0</pdfrwt>
<totfact> 0.83114340E-01</totfact>
</mgrwt>
</event>
<event>
 6    1  0.1950139E-004  0.3000000E+03  0.7818608E-02  0.1093470E+00
          1   -1    0    0  502    0  0.00000000000E+00  0.00000000000E+00  0.49739654137E+02  0.49739654137E+02  0.00000000000E+00 0.  1.
         13   -1    0    0    0    0 -0.00000000000E+00 -0.00000000000E+00 -0.10000000000E+04  0.10000000000E+04  0.00000000000E+00 0.  1.
    9000005    2    1    2  501    0  0.27474999726E+02  0.93848805368E+01 -0.96493673288E+03  0.10172073943E+04  0.32056985670E+03 0.  0.
         13    1    3    3    0    0 -0.81713231570E+01  0.96635292092E+02 -0.75798389770E+02  0.12308755458E+03  0.00000000000E+00 0.  1.
          3    1    3    3  501    0  0.35646322883E+02 -0.87250411555E+02 -0.88913834311E+03  0.89411983975E+03  0.00000000000E+00 0.  1.
         21    1    1    2  502  501 -0.27474999726E+02 -0.93848805368E+01  0.14676387013E+02  0.32532259810E+02  0.00000000000E+00 0.  1.
<mgrwt>
<rscale>  1 0.30000000E+03</rscale>
<asrwt>0</asrwt>
<pdfrwt beam="1">  1        1 0.18087185E+00 0.30000000E+03</pdfrwt>
<pdfrwt beam="2">0</pdfrwt>
<totfact> 0.12651066E+01</totfact>
</mgrwt>
</event>
<event>
 6    1  0.1950139E-004  0.3000000E+03  0.7818608E-02  0.1093470E+00
          1   -1    0    0  502    0  0.00000000000E+00  0.00000000000E+00  0.31735409762E+02  0.31735409762E+02  0.00000000000E+00 0.  1.
         13   -1    0    0    0    0 -0.00000000000E+00 -0.00000000000E+00 -0.10000000000E+04  0.10000000000E+04  0.00000000000E+00 0.  1.
    9000005    2    1    2  501    0  0.27686645097E+01  0.18506190750E+02 -0.94703455391E+03  0.10034359567E+04  0.33114819698E+03 0.  0.
         13    1    3    3    0    0  0.29648085456E+02 -0.12463636658E+03 -0.16999643195E+03  0.21286620145E+03  0.00000000000E+00 0.  1.
          3    1    3    3  501    0 -0.26879420946E+02  0.14314255733E+03 -0.77703812196E+03  0.79056975528E+03  0.00000000000E+00 0.  1.
         21    1    1    2  502  501 -0.27686645097E+01 -0.18506190750E+02 -0.21230036327E+02  0.28299453029E+02  0.00000000000E+00 0.  1.
<mgrwt>
<rscale>  1 0.30000000E+03</rscale>
<asrwt>0</asrwt>
<pdfrwt beam="1">  1        1 0.11540173E+00 0.30000000E+03</pdfrwt>
<pdfrwt beam="2">0</pdfrwt>
<totfact> 0.27617864E+01</totfact>
</mgrwt>
</event>
<event>
 6    1  0.1950139E-004  0.3000000E+03  0.7818608E-02  0.1093470E+00
          1   -1    0    0  502    0  0.00000000000E+00  0.00000000000E+00  0.29665319303E+02  0.29665319303E+02  0.00000000000E+00 0.  1.
         13   -1    0    0    0    0 -0.00000000000E+00 -0.00000000000E+00 -0.10000000000E+04  0.10000000000E+04  0.00000000000E+00 0.  1.
    9000005    2    1    2  501    0 -0.81793287229E+01  0.60521030683E+01 -0.96584152336E+03  0.10185424675E+04  0.32322651568E+03 0.  0.
         13    1    3    3    0    0 -0.14156673362E+03 -0.61424130576E+01 -0.75903839784E+03  0.77215164229E+03  0.00000000000E+00 0.  1.
          3    1    3    3  501    0  0.13338740490E+03  0.12194516126E+02 -0.20680312552E+03  0.24639082518E+03  0.00000000000E+00 0.  1.
         21    1    1    2  502  501  0.81793287229E+01 -0.60521030683E+01 -0.44931573385E+01  0.11122851827E+02  0.00000000000E+00 0.  1.
<mgrwt>
<rscale>  1 0.30000000E+03</rscale>
<asrwt>0</asrwt>
<pdfrwt beam="1">  1        1 0.10787412E+00 0.30000000E+03</pdfrwt>
<pdfrwt beam="2">0</pdfrwt>
<totfact> 0.30594787E+01</totfact>
</mgrwt>
</event>
<event>
 6    1  0.1950139E-004  0.3000000E+03  0.7818608E-02  0.1093470E+00
          1   -1    0    0  502    0  0.00000000000E+00  0.00000000000E+00  0.34061542471E+02  0.34061542471E+02  0.00000000000E+00 0.  1.
         13   -1    0    0    0    0 -0.00000000000E+00 -0.00000000000E+00 -0.10000000000E+04  0.10000000000E+04  0.00000000000E+00 0.  1.
    9000005    2    1    2  501    0 -0.11212668522E+02  0.58963110891E+00 -0.96736646298E+03  0.10227429383E+04  0.33178181474E+03 0.  0.
         13    1    3    3    0    0 -0.88845928143E+01  0.15184395969E+03 -0.69242078073E+03  0.70893022341E+03  0.00000000000E+00 0.  1.
          1    1    3    3  501    0 -0.23280757078E+01 -0.15125432858E+03 -0.27494568226E+03  0.31381271492E+03  0.00000000000E+00 0.  1.
         21    1    1    2  502  501  0.11212668522E+02 -0.58963110891E+00  0.14280054526E+01  0.11318604146E+02  0.00000000000E+00 0.  1.
<mgrwt>
<rscale>  1 0.30000000E+03</rscale>
<asrwt>0</asrwt>
<pdfrwt beam="1">  1        1 0.12386042E+00 0.30000000E+03</pdfrwt>
<pdfrwt beam="2">0</pdfrwt>
<totfact> 0.24731781E+01</totfact>
</mgrwt>
</event>
<event>
 6    1  0.1950139E-004  0.3000000E+03  0.7818608E-02  0.1093470E+00
          3   -1    0    0  502    0  0.00000000000E+00  0.00000000000E+00  0.34796423737E+02  0.34796423737E+02  0.00000000000E+00 0.  1.
         13   -1    0    0    0    0 -0.00000000000E+00 -0.00000000000E+00 -0.10000000000E+04  0.10000000000E+04  0.00000000000E+00 0.  1.
    9000005    2    1    2  501    0  0.23276362126E+02  0.22243448614E+02 -0.91987880084E+03  0.97920060278E+03  0.33409617212E+03 0.  0.
         13    1    3    3    0    0  0.32757210318E+02  0.31278593133E+01  0.20375817082E+02  0.38703904886E+02  0.00000000000E+00 0.  1.
          1    1    3    3  501    0 -0.94808481921E+01  0.19115589301E+02 -0.94025461792E+03  0.94049669790E+03  0.00000000000E+00 0.  1.
         21    1    1    2  502  501 -0.23276362126E+02 -0.22243448614E+02 -0.45324775425E+02  0.55595820953E+02  0.00000000000E+00 0.  1.
<mgrwt>
<rscale>  1 0.30000000E+03</rscale>
<asrwt>0</asrwt>
<pdfrwt beam="1">  1        3 0.12653272E+00 0.30000000E+03</pdfrwt>
<pdfrwt beam="2">0</pdfrwt>
<totfact> 0.19420977E+00</totfact>
</mgrwt>
</event>
<event>
 6    1  0.1950139E-004  0.3000000E+03  0.7818608E-02  0.1093470E+00
          3   -1    0    0  502    0  0.00000000000E+00  0.00000000000E+00  0.26090754122E+02  0.26090754122E+02  0.00000000000E+00 0.  1.
         13   -1    0    0    0    0 -0.00000000000E+00 -0.00000000000E+00 -0.10000000000E+04  0.10000000000E+04  0.00000000000E+00 0.  1.
    9000005    2    1    2  501    0  0.12240158556E+01  0.13683318602E+02 -0.96097127989E+03  0.10072195489E+04  0.30139125316E+03 0.  0.
         13    1    3    3    0    0 -0.93835952823E+02  0.36035406569E+02 -0.86320437895E+03  0.86903713177E+03  0.00000000000E+00 0.  1.
          1    1    3    3  501    0  0.95059968679E+02 -0.22352087967E+02 -0.97766900942E+02  0.13818241712E+03  0.00000000000E+00 0.  1.
         21    1    1    2  502  501 -0.12240158556E+01 -0.13683318602E+02 -0.12937965988E+02  0.18871205226E+02  0.00000000000E+00 0.  1.
<mgrwt>
<rscale>  1 0.30000000E+03</rscale>
<asrwt>0</asrwt>
<pdfrwt beam="1">  1        3 0.94875670E-01 0.30000000E+03</pdfrwt>
<pdfrwt beam="2">0</pdfrwt>
<totfact> 0.44822238E+00</totfact>
</mgrwt>
</event>
<event>
 6    1  0.1950139E-004  0.3000000E+03  0.7818608E-02  0.1093470E+00
          1   -1    0    0  502    0  0.00000000000E+00  0.00000000000E+00  0.40059180555E+02  0.40059180555E+02  0.00000000000E+00 0.  1.
         13   -1    0    0    0    0 -0.00000000000E+00 -0.00000000000E+00 -0.10000000000E+04  0.10000000000E+04  0.00000000000E+00 0.  1.
    9000005    2    1    2  501    0 -0.19828100131E+01 -0.16132575655E+02 -0.96821391304E+03  0.10218208799E+04  0.32621394463E+03 0.  0.
         13    1    3    3    0    0 -0.60708947224E+01  0.92176855542E+01 -0.98882968679E+03  0.98889128369E+03  0.00000000000E+00 0.  1.
          1    1    3    3  501    0  0.40880847093E+01 -0.25350261209E+02  0.20615773744E+02  0.32929596217E+02  0.00000000000E+00 0.  1.
         21    1    1    2  502  501  0.19828100131E+01  0.16132575655E+02  0.82730935983E+01  0.18238300647E+02  0.00000000000E+00 0.  1.
<mgrwt>
<rscale>  1 0.30000000E+03</rscale>
<asrwt>0</asrwt>
<pdfrwt beam="1">  1        1 0.14567005E+00 0.30000000E+03</pdfrwt>
<pdfrwt beam="2">0</pdfrwt>
<totfact> 0.18905225E+01</totfact>
</mgrwt>
</event>
<event>
 6    1  0.1950139E-004  0.3000000E+03  0.7818608E-02  0.1093470E+00
          1   -1    0    0  502    0  0.00000000000E+00  0.00000000000E+00  0.53934855037E+02  0.53934855037E+02  0.00000000000E+00 0.  1.
         13   -1    0    0    0    0 -0.00000000000E+00 -0.00000000000E+00 -0.10000000000E+04  0.10000000000E+04  0.00000000000E+00 0.  1.
    9000005    2    1    2  501    0  0.89910883699E+02  0.34446691481E+02 -0.84828724811E+03  0.91670855044E+03  0.33390533026E+03 0.  0.
         13    1    3    3    0    0  0.14015688705E+03  0.25065844707E+02 -0.85353196114E+03  0.86532598381E+03  0.00000000000E+00 0.  1.
          3    1    3    3  501    0 -0.50246003350E+02  0.93808467739E+01  0.52447130298E+01  0.51382566631E+02  0.00000000000E+00 0.  1.
         21    1    1    2  502  501 -0.89910883699E+02 -0.34446691481E+02 -0.97777896852E+02  0.13722630460E+03  0.00000000000E+00 0.  1.
<mgrwt>
<rscale>  1 0.30000000E+03</rscale>
<asrwt>0</asrwt>
<pdfrwt beam="1">  1        1 0.19612716E+00 0.30000000E+03</pdfrwt>
<pdfrwt beam="2">0</pdfrwt>
<totfact> 0.10687518E+01</totfact>
</mgrwt>
</event>
<event>
 6    1  0.1950139E-004  0.3000000E+03  0.7818608E-02  0.1093470E+00
          1   -1    0    0  502    0  0.00000000000E+00  0.00000000000E+00  0.27545691962E+02  0.27545691962E+02  0.00000000000E+00 0.  1.
         13   -1    0    0    0    0 -0.00000000000E+00 -0.00000000000E+00 -0.10000000000E+04  0.10000000000E+04  0.00000000000E+00 0.  1.
    9000005    2    1    2  501    0 -0.38230908777E+01  0.84591194135E+01 -0.93448879192E+03  0.98846176766E+03  0.32202669325E+03 0.  0.
         13    1    3    3    0    0  0.51048911044E+02  0.13774192194E+03 -0.69902842892E+03  0.71429655803E+03  0.00000000000E+00 0.  1.
          3    1    3    3  501    0 -0.54872001921E+02 -0.12928280253E+03 -0.23546036301E+03  0.27416520963E+03  0.00000000000E+00 0.  1.
         21    1    1    2  502  501  0.38230908777E+01 -0.84591194135E+01 -0.37965516116E+02  0.39083924304E+02  0.00000000000E+00 0. -1.
<mgrwt>
<rscale>  1 0.30000000E+03</rscale>
<asrwt>0</asrwt>
<pdfrwt beam="1">  1        1 0.10016636E+00 0.30000000E+03</pdfrwt>
<pdfrwt beam="2">0</pdfrwt>
<totfact> 0.34143844E+01</totfact>
</mgrwt>
</event>
<event>
 6    1  0.1950139E-004  0.3000000E+03  0.7818608E-02  0.1093470E+00
          1   -1    0    0  502    0  0.00000000000E+00  0.00000000000E+00  0.53354058994E+02  0.53354058994E+02  0.00000000000E+00 0.  1.
         13   -1    0    0    0    0 -0.00000000000E+00 -0.00000000000E+00 -0.10000000000E+04  0.10000000000E+04  0.00000000000E+00 0.  1.
    9000005    2    1    2  501    0 -0.94312484370E+00 -0.10784816908E+02 -0.97125806292E+03  0.10264661750E+04  0.33192375916E+03 0.  0.
         13    1    3    3    0    0  0.70485763832E+00 -0.14901901941E+03 -0.75665584886E+03  0.77119079260E+03  0.00000000000E+00 0.  1.
          1    1    3    3  501    0 -0.16479824820E+01  0.13823420250E+03 -0.21460221405E+03  0.25527538241E+03  0.00000000000E+00 0.  1.
         21    1    1    2  502  501  0.94312484370E+00  0.10784816908E+02  0.24612121911E+02  0.26887883985E+02  0.00000000000E+00 0. -1.
<mgrwt>
<rscale>  1 0.30000000E+03</rscale>
<asrwt>0</asrwt>
<pdfrwt beam="1">  1        1 0.19401517E+00 0.30000000E+03</pdfrwt>
<pdfrwt beam="2">0</pdfrwt>
<totfact> 0.10938593E+01</totfact>
</mgrwt>
</event>
<event>
 6    1  0.1950139E-004  0.3000000E+03  0.7818608E-02  0.1093470E+00
          1   -1    0    0  502    0  0.00000000000E+00  0.00000000000E+00  0.28458807122E+02  0.28458807122E+02  0.00000000000E+00 0.  1.
         13   -1    0    0    0    0 -0.00000000000E+00 -0.00000000000E+00 -0.10000000000E+04  0.10000000000E+04  0.00000000000E+00 0.  1.
    9000005    2    1    2  501    0 -0.85955851389E+01 -0.83349229240E+01 -0.94260585064E+03  0.99714412918E+03  0.32503425924E+03 0.  0.
         13    1    3    3    0    0 -0.88930485911E+02  0.12645841123E+03 -0.61146181238E+03  0.63070271055E+03  0.00000000000E+00 0.  1.
          3    1    3    3  501    0  0.80334900772E+02 -0.13479333415E+03 -0.33114403826E+03  0.36644141863E+03  0.00000000000E+00 0.  1.
         21    1    1    2  502  501  0.85955851389E+01  0.83349229240E+01 -0.28935342240E+02  0.31314677941E+02  0.00000000000E+00 0. -1.
<mgrwt>
<rscale>  1 0.30000000E+03</rscale>
<asrwt>0</asrwt>
<pdfrwt beam="1">  1        1 0.10348679E+00 0.30000000E+03</pdfrwt>
<pdfrwt beam="2">0</pdfrwt>
<totfact> 0.32545233E+01</totfact>
</mgrwt>
</event>
<event>
 6    1  0.1950139E-004  0.3000000E+03  0.7818608E-02  0.1093470E+00
          1   -1    0    0  502    0  0.00000000000E+00  0.00000000000E+00  0.29240922019E+02  0.29240922019E+02  0.00000000000E+00 0.  1.
         13   -1    0    0    0    0 -0.00000000000E+00 -0.00000000000E+00 -0.10000000000E+04  0.10000000000E+04  0.00000000000E+00 0.  1.
    9000005    2    1    2  501    0 -0.15090045489E+02 -0.16215360176E+01 -0.95573575364E+03  0.10078858494E+04  0.31964467116E+03 0.  0.
         13    1    3    3    0    0 -0.79142964294E+01 -0.77933472108E+02 -0.91997763863E+03  0.92330662174E+03  0.00000000000E+00 0.  1.
          1    1    3    3  501    0 -0.71757490596E+01  0.76311936090E+02 -0.35758115007E+02  0.84579227670E+02  0.00000000000E+00 0.  1.
         21    1    1    2  502  501  0.15090045489E+02  0.16215360176E+01 -0.15023324341E+02  0.21355072610E+02  0.00000000000E+00 0.  1.
<mgrwt>
<rscale>  1 0.30000000E+03</rscale>
<asrwt>0</asrwt>
<pdfrwt beam="1">  1        1 0.10633085E+00 0.30000000E+03</pdfrwt>
<pdfrwt beam="2">0</pdfrwt>
<totfact> 0.31261165E+01</totfact>
</mgrwt>
</event>
<event>
 6    1  0.1950139E-004  0.3000000E+03  0.7818608E-02  0.1093470E+00
          1   -1    0    0  502    0  0.00000000000E+00  0.00000000000E+00  0.59474776162E+02  0.59474776162E+02  0.00000000000E+00 0.  1.
         13   -1    0    0    0    0 -0.00000000000E+00 -0.00000000000E+00 -0.10000000000E+04  0.10000000000E+04  0.00000000000E+00 0.  1.
    9000005    2    1    2  501    0  0.14403636223E+02 -0.17732551147E+01 -0.94880272298E+03  0.10427677069E+04  0.43235086947E+03 0.  0.
         13    1    3    3    0    0 -0.19031572945E+03  0.72598347248E+02 -0.57656431311E+03  0.61148753385E+03  0.00000000000E+00 0.  1.
          1    1    3    3  501    0  0.20471936567E+03 -0.74371602363E+02 -0.37223840986E+03  0.43128017308E+03  0.00000000000E+00 0.  1.
         21    1    1    2  502  501 -0.14403636223E+02  0.17732551147E+01  0.82774991382E+01  0.16707069226E+02  0.00000000000E+00 0. -1.
<mgrwt>
<rscale>  1 0.30000000E+03</rscale>
<asrwt>0</asrwt>
<pdfrwt beam="1">  1        1 0.21627237E+00 0.30000000E+03</pdfrwt>
<pdfrwt beam="2">0</pdfrwt>
<totfact> 0.85820171E+00</totfact>
</mgrwt>
</event>
<event>
 6    1  0.1950139E-004  0.3000000E+03  0.7818608E-02  0.1093470E+00
          1   -1    0    0  502    0  0.00000000000E+00  0.00000000000E+00  0.36792570451E+02  0.36792570451E+02  0.00000000000E+00 0.  1.
         13   -1    0    0    0    0 -0.00000000000E+00 -0.00000000000E+00 -0.10000000000E+04  0.10000000000E+04  0.00000000000E+00 0.  1.
    9000005    2    1    2  501    0  0.16000165658E+02  0.12774412982E+02 -0.96052673026E+03  0.10161436703E+04  0.33093378228E+03 0.  0.
         13    1    3    3    0    0 -0.71021575310E+02  0.11147699161E+03 -0.17308601164E+03  0.21778418502E+03  0.00000000000E+00 0.  1.
          1    1    3    3  501    0  0.87021740968E+02 -0.98702578631E+02 -0.78744071861E+03  0.79835948529E+03  0.00000000000E+00 0.  1.
         21    1    1    2  502  501 -0.16000165658E+02 -0.12774412982E+02 -0.26806992932E+01  0.20648900136E+02  0.00000000000E+00 0.  1.
<mgrwt>
<rscale>  1 0.30000000E+03</rscale>
<asrwt>0</asrwt>
<pdfrwt beam="1">  1        1 0.13379145E+00 0.30000000E+03</pdfrwt>
<pdfrwt beam="2">0</pdfrwt>
<totfact> 0.21825169E+01</totfact>
</mgrwt>
</event>
<event>
 6    1  0.1950139E-004  0.3000000E+03  0.7818608E-02  0.1093470E+00
          1   -1    0    0  502    0  0.00000000000E+00  0.00000000000E+00  0.32664676064E+02  0.32664676064E+02  0.00000000000E+00 0.  1.
         13   -1    0    0    0    0 -0.00000000000E+00 -0.00000000000E+00 -0.10000000000E+04  0.10000000000E+04  0.00000000000E+00 0.  1.
    9000005    2    1    2  501    0 -0.43287202232E+01  0.16752067575E+02 -0.95991990498E+03  0.10138402763E+04  0.32577064379E+03 0.  0.
         13    1    3    3    0    0  0.39662823420E+02 -0.42770489053E+02 -0.93339538172E+03  0.93521622789E+03  0.00000000000E+00 0.  1.
          1    1    3    3  501    0 -0.43991543643E+02  0.59522556628E+02 -0.26524523260E+02  0.78624048445E+02  0.00000000000E+00 0.  1.
         21    1    1    2  502  501  0.43287202232E+01 -0.16752067575E+02 -0.74154189547E+01  0.18824399727E+02  0.00000000000E+00 0.  1.
<mgrwt>
<rscale>  1 0.30000000E+03</rscale>
<asrwt>0</asrwt>
<pdfrwt beam="1">  1        1 0.11878089E+00 0.30000000E+03</pdfrwt>
<pdfrwt beam="2">0</pdfrwt>
<totfact> 0.26413071E+01</totfact>
</mgrwt>
</event>
<event>
 6    1  0.1950139E-004  0.3000000E+03  0.7818608E-02  0.1093470E+00
          1   -1    0    0  502    0  0.00000000000E+00  0.00000000000E+00  0.30517986885E+02  0.30517986885E+02  0.00000000000E+00 0.  1.
         13   -1    0    0    0    0 -0.00000000000E+00 -0.00000000000E+00 -0.10000000000E+04  0.10000000000E+04  0.00000000000E+00 0.  1.
    9000005    2    1    2  501    0  0.10087003785E+02 -0.40970462117E+01 -0.96256198001E+03  0.10176175880E+04  0.33000220700E+03 0.  0.
         13    1    3    3    0    0  0.63988851262E+02 -0.78763504965E+02 -0.77272112469E+02  0.12755093949E+03  0.00000000000E+00 0.  1.
          3    1    3    3  501    0 -0.53901847477E+02  0.74666458753E+02 -0.88528986754E+03  0.89006664852E+03  0.00000000000E+00 0.  1.
         21    1    1    2  502  501 -0.10087003785E+02  0.40970462117E+01 -0.69200331023E+01  0.12900398876E+02  0.00000000000E+00 0. -1.
<mgrwt>
<rscale>  1 0.30000000E+03</rscale>
<asrwt>0</asrwt>
<pdfrwt beam="1">  1        1 0.11097473E+00 0.30000000E+03</pdfrwt>
<pdfrwt beam="2">0</pdfrwt>
<totfact> 0.29315941E+01</totfact>
</mgrwt>
</event>
<event>
 6    1  0.1950139E-004  0.3000000E+03  0.7818608E-02  0.1093470E+00
          1   -1    0    0  502    0  0.00000000000E+00  0.00000000000E+00  0.38645719911E+02  0.38645719911E+02  0.00000000000E+00 0.  1.
         13   -1    0    0    0    0 -0.00000000000E+00 -0.00000000000E+00 -0.10000000000E+04  0.10000000000E+04  0.00000000000E+00 0.  1.
    9000005    2    1    2  501    0  0.43906684889E+02  0.23249602704E+02 -0.89935198328E+03  0.95919368524E+03  0.32977294457E+03 0.  0.
         13    1    3    3    0    0  0.88762351433E+02 -0.13826031140E+03 -0.49170937911E+03  0.51843300652E+03  0.00000000000E+00 0.  1.
          1    1    3    3  501    0 -0.44855666545E+02  0.16150991410E+03 -0.40764260416E+03  0.44076067872E+03  0.00000000000E+00 0.  1.
         21    1    1    2  502  501 -0.43906684889E+02 -0.23249602704E+02 -0.62002296811E+02  0.79452034673E+02  0.00000000000E+00 0.  1.
<mgrwt>
<rscale>  1 0.30000000E+03</rscale>
<asrwt>0</asrwt>
<pdfrwt beam="1">  1        1 0.14053019E+00 0.30000000E+03</pdfrwt>
<pdfrwt beam="2">0</pdfrwt>
<totfact> 0.20103242E+01</totfact>
</mgrwt>
</event>
<event>
 6    1  0.1950139E-004  0.3000000E+03  0.7818608E-02  0.1093470E+00
          3   -1    0    0  502    0  0.00000000000E+00  0.00000000000E+00  0.29230070529E+02  0.29230070529E+02  0.00000000000E+00 0.  1.
         13   -1    0    0    0    0 -0.00000000000E+00 -0.00000000000E+00 -0.10000000000E+04  0.10000000000E+04  0.00000000000E+00 0.  1.
    9000005    2    1    2  501    0 -0.93876932810E+01 -0.10147228702E+02 -0.95834700346E+03  0.10106444813E+04  0.32059662124E+03 0.  0.
         13    1    3    3    0    0  0.49271683005E+02 -0.15559517109E+03 -0.52548983582E+03  0.55025187284E+03  0.00000000000E+00 0.  1.
          3    1    3    3  501    0 -0.58659376286E+02  0.14544794238E+03 -0.43285716764E+03  0.46039260848E+03  0.00000000000E+00 0.  1.
         21    1    1    2  502  501  0.93876932810E+01  0.10147228702E+02 -0.12422926008E+02  0.18585589204E+02  0.00000000000E+00 0. -1.
<mgrwt>
<rscale>  1 0.30000000E+03</rscale>
<asrwt>0</asrwt>
<pdfrwt beam="1">  1        3 0.10629139E+00 0.30000000E+03</pdfrwt>
<pdfrwt beam="2">0</pdfrwt>
<totfact> 0.33214519E+00</totfact>
</mgrwt>
</event>
<event>
 6    1  0.1950139E-004  0.3000000E+03  0.7818608E-02  0.1093470E+00
          1   -1    0    0  502    0  0.00000000000E+00  0.00000000000E+00  0.31316661248E+02  0.31316661248E+02  0.00000000000E+00 0.  1.
         13   -1    0    0    0    0 -0.00000000000E+00 -0.00000000000E+00 -0.10000000000E+04  0.10000000000E+04  0.00000000000E+00 0.  1.
    9000005    2    1    2  501    0 -0.10953041665E+02 -0.80646620695E+00 -0.96614810216E+03  0.10200451514E+04  0.32700051390E+03 0.  0.
         13    1    3    3    0    0  0.12294325257E+03  0.96849233508E+02 -0.38131208669E+03  0.41218166485E+03  0.00000000000E+00 0.  1.
          1    1    3    3  501    0 -0.13389629423E+03 -0.97655699715E+02 -0.58483601548E+03  0.60786348656E+03  0.00000000000E+00 0.  1.
         21    1    1    2  502  501  0.10953041665E+02  0.80646620695E+00 -0.25352365875E+01  0.11271509838E+02  0.00000000000E+00 0. -1.
<mgrwt>
<rscale>  1 0.30000000E+03</rscale>
<asrwt>0</asrwt>
<pdfrwt beam="1">  1        1 0.11387901E+00 0.30000000E+03</pdfrwt>
<pdfrwt beam="2">0</pdfrwt>
<totfact> 0.28185812E+01</totfact>
</mgrwt>
</event>
<event>
 6    1  0.1950139E-004  0.3000000E+03  0.7818608E-02  0.1093470E+00
          1   -1    0    0  502    0  0.00000000000E+00  0.00000000000E+00  0.26576708728E+02  0.26576708728E+02  0.00000000000E+00 0.  1.
         13   -1    0    0    0    0 -0.00000000000E+00 -0.00000000000E+00 -0.10000000000E+04  0.10000000000E+04  0.00000000000E+00 0.  1.
    9000005    2    1    2  501    0  0.78570454770E+01 -0.97224722237E+01 -0.89238543018E+03  0.94458040052E+03  0.30939314378E+03 0.  0.
         13    1    3    3    0    0 -0.58100886050E+02  0.93938059310E+02 -0.74297019332E+03  0.75113566026E+03  0.00000000000E+00 0.  1.
          1    1    3    3  501    0  0.65957931527E+02 -0.10366053153E+03 -0.14941523686E+03  0.19344474026E+03  0.00000000000E+00 0.  1.
         21    1    1    2  502  501 -0.78570454770E+01  0.97224722237E+01 -0.81037861090E+02  0.81996308209E+02  0.00000000000E+00 0. -1.
<mgrwt>
<rscale>  1 0.30000000E+03</rscale>
<asrwt>0</asrwt>
<pdfrwt beam="1">  1        1 0.96642781E-01 0.30000000E+03</pdfrwt>
<pdfrwt beam="2">0</pdfrwt>
<totfact> 0.35969901E+01</totfact>
</mgrwt>
</event>
<event>
 6    1  0.1950139E-004  0.3000000E+03  0.7818608E-02  0.1093470E+00
          1   -1    0    0  502    0  0.00000000000E+00  0.00000000000E+00  0.44563565160E+02  0.44563565160E+02  0.00000000000E+00 0.  1.
         13   -1    0    0    0    0 -0.00000000000E+00 -0.00000000000E+00 -0.10000000000E+04  0.10000000000E+04  0.00000000000E+00 0.  1.
    9000005    2    1    2  501    0  0.11373978823E+02  0.29511961029E+02 -0.95144018047E+03  0.10126842100E+04  0.34538466799E+03 0.  0.
         13    1    3    3    0    0  0.33029863880E+02 -0.73817360335E+01  0.20654048554E+02  0.39649106629E+02  0.00000000000E+00 0.  1.
          3    1    3    3  501    0 -0.21655885057E+02  0.36893697063E+02 -0.97209422902E+03  0.97303510335E+03  0.00000000000E+00 0.  1.
         21    1    1    2  502  501 -0.11373978823E+02 -0.29511961029E+02 -0.39962543697E+01  0.31879355186E+02  0.00000000000E+00 0.  1.
<mgrwt>
<rscale>  1 0.30000000E+03</rscale>
<asrwt>0</asrwt>
<pdfrwt beam="1">  1        1 0.16204967E+00 0.30000000E+03</pdfrwt>
<pdfrwt beam="2">0</pdfrwt>
<totfact> 0.15632899E+01</totfact>
</mgrwt>
</event>
<event>
 6    1  0.1950139E-004  0.3000000E+03  0.7818608E-02  0.1093470E+00
          1   -1    0    0  502    0  0.00000000000E+00  0.00000000000E+00  0.49332144164E+02  0.49332144164E+02  0.00000000000E+00 0.  1.
         13   -1    0    0    0    0 -0.00000000000E+00 -0.00000000000E+00 -0.10000000000E+04  0.10000000000E+04  0.00000000000E+00 0.  1.
    9000005    2    1    2  501    0  0.60906480304E+02  0.26668689656E+02 -0.91748182259E+03  0.97502110088E+03  0.32322195784E+03 0.  0.
         13    1    3    3    0    0 -0.12007692118E+03  0.71859181035E+02 -0.32440560129E+03  0.35330044304E+03  0.00000000000E+00 0.  1.
          1    1    3    3  501    0  0.18098340149E+03 -0.45190491379E+02 -0.59307622130E+03  0.62172065785E+03  0.00000000000E+00 0.  1.
         21    1    1    2  502  501 -0.60906480304E+02 -0.26668689656E+02 -0.33186033247E+02  0.74311043282E+02  0.00000000000E+00 0.  1.
<mgrwt>
<rscale>  1 0.30000000E+03</rscale>
<asrwt>0</asrwt>
<pdfrwt beam="1">  1        1 0.17938999E+00 0.30000000E+03</pdfrwt>
<pdfrwt beam="2">0</pdfrwt>
<totfact> 0.12861560E+01</totfact>
</mgrwt>
</event>
<event>
 6    1  0.1950139E-004  0.3000000E+03  0.7818608E-02  0.1093470E+00
          1   -1    0    0  502    0  0.00000000000E+00  0.00000000000E+00  0.35589860925E+02  0.35589860925E+02  0.00000000000E+00 0.  1.
         13   -1    0    0    0    0 -0.00000000000E+00 -0.00000000000E+00 -0.10000000000E+04  0.10000000000E+04  0.00000000000E+00 0.  1.
    9000005    2    1    2  501    0 -0.73946011539E+01 -0.17462621213E+02 -0.94962980222E+03  0.10115465329E+04  0.34795115125E+03 0.  0.
         13    1    3    3    0    0  0.95127938137E+02  0.90134542961E+02 -0.75694001116E+03  0.76820032605E+03  0.00000000000E+00 0.  1.
          3    1    3    3  501    0 -0.10252253929E+03 -0.10759716417E+03 -0.19268979106E+03  0.24334620684E+03  0.00000000000E+00 0.  1.
         21    1    1    2  502  501  0.73946011539E+01  0.17462621213E+02 -0.14780336854E+02  0.24043328043E+02  0.00000000000E+00 0. -1.
<mgrwt>
<rscale>  1 0.30000000E+03</rscale>
<asrwt>0</asrwt>
<pdfrwt beam="1">  1        1 0.12941795E+00 0.30000000E+03</pdfrwt>
<pdfrwt beam="2">0</pdfrwt>
<totfact> 0.23047534E+01</totfact>
</mgrwt>
</event>
<event>
 6    1  0.1950139E-004  0.3000000E+03  0.7818608E-02  0.1093470E+00
          1   -1    0    0  502    0  0.00000000000E+00  0.00000000000E+00  0.28527018676E+02  0.28527018676E+02  0.00000000000E+00 0.  1.
         13   -1    0    0    0    0 -0.00000000000E+00 -0.00000000000E+00 -0.10000000000E+04  0.10000000000E+04  0.00000000000E+00 0.  1.
    9000005    2    1    2  501    0 -0.14585517231E+02  0.20653495204E+02 -0.91341436226E+03  0.96520160967E+03  0.31088429675E+03 0.  0.
         13    1    3    3    0    0  0.37939568078E+01 -0.50720623718E+02 -0.20936160643E+01  0.50905392709E+02  0.00000000000E+00 0.  1.
          3    1    3    3  501    0 -0.18379474039E+02  0.71374118923E+02 -0.91132074619E+03  0.91429621696E+03  0.00000000000E+00 0.  1.
         21    1    1    2  502  501  0.14585517231E+02 -0.20653495204E+02 -0.58058619069E+02  0.63325409002E+02  0.00000000000E+00 0. -1.
<mgrwt>
<rscale>  1 0.30000000E+03</rscale>
<asrwt>0</asrwt>
<pdfrwt beam="1">  1        1 0.10373483E+00 0.30000000E+03</pdfrwt>
<pdfrwt beam="2">0</pdfrwt>
<totfact> 0.32430230E+01</totfact>
</mgrwt>
</event>
<event>
 6    1  0.1950139E-004  0.3000000E+03  0.7818608E-02  0.1093470E+00
          1   -1    0    0  502    0  0.00000000000E+00  0.00000000000E+00  0.36304469669E+02  0.36304469669E+02  0.00000000000E+00 0.  1.
         13   -1    0    0    0    0 -0.00000000000E+00 -0.00000000000E+00 -0.10000000000E+04  0.10000000000E+04  0.00000000000E+00 0.  1.
    9000005    2    1    2  501    0  0.15198557410E+02 -0.42968847176E+01 -0.96816229249E+03  0.10198907154E+04  0.32029578104E+03 0.  0.
         13    1    3    3    0    0  0.14242819602E+02  0.15551800771E+03 -0.39168800788E+03  0.42167310105E+03  0.00000000000E+00 0.  1.
          1    1    3    3  501    0  0.95573780831E+00 -0.15981489243E+03 -0.57647428461E+03  0.59821761433E+03  0.00000000000E+00 0.  1.
         21    1    1    2  502  501 -0.15198557410E+02  0.42968847176E+01  0.44667621604E+01  0.16413754288E+02  0.00000000000E+00 0.  1.
<mgrwt>
<rscale>  1 0.30000000E+03</rscale>
<asrwt>0</asrwt>
<pdfrwt beam="1">  1        1 0.13201653E+00 0.30000000E+03</pdfrwt>
<pdfrwt beam="2">0</pdfrwt>
<totfact> 0.22310747E+01</totfact>
</mgrwt>
</event>
<event>
 6    1  0.1950139E-004  0.3000000E+03  0.7818608E-02  0.1093470E+00
          1   -1    0    0  502    0  0.00000000000E+00  0.00000000000E+00  0.51744029658E+02  0.51744029658E+02  0.00000000000E+00 0.  1.
         13   -1    0    0    0    0 -0.00000000000E+00 -0.00000000000E+00 -0.10000000000E+04  0.10000000000E+04  0.00000000000E+00 0.  1.
    9000005    2    1    2  501    0 -0.32885616573E+02  0.56903810315E+02 -0.92316472392E+03  0.98139434556E+03  0.32646936549E+03 0.  0.
         13    1    3    3    0    0  0.90395882897E+02  0.86647072410E+02 -0.13917321471E+03  0.18721195073E+03  0.00000000000E+00 0.  1.
          3    1    3    3  501    0 -0.12328149947E+03 -0.29743262095E+02 -0.78399150921E+03  0.79418239483E+03  0.00000000000E+00 0.  1.
         21    1    1    2  502  501  0.32885616573E+02 -0.56903810315E+02 -0.25091246423E+02  0.70349684098E+02  0.00000000000E+00 0. -1.
<mgrwt>
<rscale>  1 0.30000000E+03</rscale>
<asrwt>0</asrwt>
<pdfrwt beam="1">  1        1 0.18816050E+00 0.30000000E+03</pdfrwt>
<pdfrwt beam="2">0</pdfrwt>
<totfact> 0.11668929E+01</totfact>
</mgrwt>
</event>
<event>
 6    1  0.1950139E-004  0.3000000E+03  0.7818608E-02  0.1093470E+00
          1   -1    0    0  502    0  0.00000000000E+00  0.00000000000E+00  0.29943771176E+02  0.29943771176E+02  0.00000000000E+00 0.  1.
         13   -1    0    0    0    0 -0.00000000000E+00 -0.00000000000E+00 -0.10000000000E+04  0.10000000000E+04  0.00000000000E+00 0.  1.
    9000005    2    1    2  501    0  0.15556800047E+02 -0.18129041602E+01 -0.93936059770E+03  0.99548332401E+03  0.32915560942E+03 0.  0.
         13    1    3    3    0    0 -0.35162886279E+02  0.15670442040E+03 -0.52253102350E+03  0.54665471229E+03  0.00000000000E+00 0.  1.
          3    1    3    3  501    0  0.50719686326E+02 -0.15851732457E+03 -0.41682957420E+03  0.44882861171E+03  0.00000000000E+00 0.  1.
         21    1    1    2  502  501 -0.15556800047E+02  0.18129041602E+01 -0.30695631123E+02  0.34460447171E+02  0.00000000000E+00 0.  1.
<mgrwt>
<rscale>  1 0.30000000E+03</rscale>
<asrwt>0</asrwt>
<pdfrwt beam="1">  1        1 0.10888667E+00 0.30000000E+03</pdfrwt>
<pdfrwt beam="2">0</pdfrwt>
<totfact> 0.30168572E+01</totfact>
</mgrwt>
</event>
<event>
 6    1  0.1950139E-004  0.3000000E+03  0.7818608E-02  0.1093470E+00
          1   -1    0    0  502    0  0.00000000000E+00  0.00000000000E+00  0.34366213953E+02  0.34366213953E+02  0.00000000000E+00 0.  1.
         13   -1    0    0    0    0 -0.00000000000E+00 -0.00000000000E+00 -0.10000000000E+04  0.10000000000E+04  0.00000000000E+00 0.  1.
    9000005    2    1    2  501    0 -0.12239224188E+02 -0.51372539529E+01 -0.96765886069E+03  0.10209389687E+04  0.32523301988E+03 0.  0.
         13    1    3    3    0    0 -0.50944825362E+02  0.12436755293E+03 -0.19675583702E+03  0.23827614831E+03  0.00000000000E+00 0.  1.
          1    1    3    3  501    0  0.38705601174E+02 -0.12950480688E+03 -0.77090302367E+03  0.78266282042E+03  0.00000000000E+00 0.  1.
         21    1    1    2  502  501  0.12239224188E+02  0.51372539529E+01  0.20250746399E+01  0.13427245220E+02  0.00000000000E+00 0.  1.
<mgrwt>
<rscale>  1 0.30000000E+03</rscale>
<asrwt>0</asrwt>
<pdfrwt beam="1">  1        1 0.12496831E+00 0.30000000E+03</pdfrwt>
<pdfrwt beam="2">0</pdfrwt>
<totfact> 0.24383804E+01</totfact>
</mgrwt>
</event>
<event>
 6    1  0.1950139E-004  0.3000000E+03  0.7818608E-02  0.1093470E+00
          1   -1    0    0  502    0  0.00000000000E+00  0.00000000000E+00  0.35838127658E+02  0.35838127658E+02  0.00000000000E+00 0.  1.
         13   -1    0    0    0    0 -0.00000000000E+00 -0.00000000000E+00 -0.10000000000E+04  0.10000000000E+04  0.00000000000E+00 0.  1.
    9000005    2    1    2  501    0  0.11630083557E+02 -0.32396098206E+02 -0.93620751780E+03  0.99149613897E+03  0.32464644029E+03 0.  0.
         13    1    3    3    0    0  0.13493873282E+03  0.78152939489E+02 -0.54015704304E+03  0.56221523877E+03  0.00000000000E+00 0.  1.
          1    1    3    3  501    0 -0.12330864926E+03 -0.11054903769E+03 -0.39605047476E+03  0.42928090020E+03  0.00000000000E+00 0.  1.
         21    1    1    2  502  501 -0.11630083557E+02  0.32396098206E+02 -0.27954354543E+02  0.44341988684E+02  0.00000000000E+00 0.  1.
<mgrwt>
<rscale>  1 0.30000000E+03</rscale>
<asrwt>0</asrwt>
<pdfrwt beam="1">  1        1 0.13032074E+00 0.30000000E+03</pdfrwt>
<pdfrwt beam="2">0</pdfrwt>
<totfact> 0.22788016E+01</totfact>
</mgrwt>
</event>
<event>
 6    1  0.1950139E-004  0.3000000E+03  0.7818608E-02  0.1093470E+00
          1   -1    0    0  502    0  0.00000000000E+00  0.00000000000E+00  0.41021309653E+02  0.41021309653E+02  0.00000000000E+00 0.  1.
         13   -1    0    0    0    0 -0.00000000000E+00 -0.00000000000E+00 -0.10000000000E+04  0.10000000000E+04  0.00000000000E+00 0.  1.
    9000005    2    1    2  501    0  0.10590830530E+02 -0.20009778310E+02 -0.96130196360E+03  0.10182626955E+04  0.33502969257E+03 0.  0.
         13    1    3    3    0    0  0.72986023597E+02 -0.14197818653E+03 -0.27123278280E+03  0.31472525726E+03  0.00000000000E+00 0.  1.
          1    1    3    3  501    0 -0.62395193067E+02  0.12196840822E+03 -0.69006918080E+03  0.70353743825E+03  0.00000000000E+00 0.  1.
         21    1    1    2  502  501 -0.10590830530E+02  0.20009778310E+02  0.23232732567E+01  0.22758614149E+02  0.00000000000E+00 0.  1.
<mgrwt>
<rscale>  1 0.30000000E+03</rscale>
<asrwt>0</asrwt>
<pdfrwt beam="1">  1        1 0.14916871E+00 0.30000000E+03</pdfrwt>
<pdfrwt beam="2">0</pdfrwt>
<totfact> 0.18140866E+01</totfact>
</mgrwt>
</event>
<event>
 6    1  0.1950139E-004  0.3000000E+03  0.7818608E-02  0.1093470E+00
          1   -1    0    0  502    0  0.00000000000E+00  0.00000000000E+00  0.30783939384E+02  0.30783939384E+02  0.00000000000E+00 0.  1.
         13   -1    0    0    0    0 -0.00000000000E+00 -0.00000000000E+00 -0.10000000000E+04  0.10000000000E+04  0.00000000000E+00 0.  1.
    9000005    2    1    2  501    0  0.23301632771E+01 -0.11182344912E+02 -0.96802440084E+03  0.10192994041E+04  0.31901341663E+03 0.  0.
         13    1    3    3    0    0  0.87917043821E+02  0.82795577045E+02 -0.79761153929E+03  0.80670235017E+03  0.00000000000E+00 0.  1.
          1    1    3    3  501    0 -0.85586880544E+02 -0.93977921957E+02 -0.17041286156E+03  0.21259705389E+03  0.00000000000E+00 0.  1.
         21    1    1    2  502  501 -0.23301632771E+01  0.11182344912E+02 -0.11916597739E+01  0.11484535326E+02  0.00000000000E+00 0. -1.
<mgrwt>
<rscale>  1 0.30000000E+03</rscale>
<asrwt>0</asrwt>
<pdfrwt beam="1">  1        1 0.11194183E+00 0.30000000E+03</pdfrwt>
<pdfrwt beam="2">0</pdfrwt>
<totfact> 0.28932576E+01</totfact>
</mgrwt>
</event>
<event>
 6    1  0.1950139E-004  0.3000000E+03  0.7818608E-02  0.1093470E+00
          1   -1    0    0  502    0  0.00000000000E+00  0.00000000000E+00  0.49085784180E+02  0.49085784180E+02  0.00000000000E+00 0.  1.
         13   -1    0    0    0    0 -0.00000000000E+00 -0.00000000000E+00 -0.10000000000E+04  0.10000000000E+04  0.00000000000E+00 0.  1.
    9000005    2    1    2  501    0 -0.24302344485E+02  0.57065593141E+01 -0.96783768495E+03  0.10189266633E+04  0.31761390387E+03 0.  0.
         13    1    3    3    0    0 -0.11512625680E+03  0.10306772355E+03 -0.29477141638E+03  0.33281706470E+03  0.00000000000E+00 0.  1.
          3    1    3    3  501    0  0.90823912316E+02 -0.97361164236E+02 -0.67306626857E+03  0.68610959856E+03  0.00000000000E+00 0.  1.
         21    1    1    2  502  501  0.24302344485E+02 -0.57065593141E+01  0.16923469135E+02  0.30159120913E+02  0.00000000000E+00 0.  1.
<mgrwt>
<rscale>  1 0.30000000E+03</rscale>
<asrwt>0</asrwt>
<pdfrwt beam="1">  1        1 0.17849414E+00 0.30000000E+03</pdfrwt>
<pdfrwt beam="2">0</pdfrwt>
<totfact> 0.12990668E+01</totfact>
</mgrwt>
</event>
<event>
 6    1  0.1950139E-004  0.3000000E+03  0.7818608E-02  0.1093470E+00
          1   -1    0    0  502    0  0.00000000000E+00  0.00000000000E+00  0.29817995225E+02  0.29817995225E+02  0.00000000000E+00 0.  1.
         13   -1    0    0    0    0 -0.00000000000E+00 -0.00000000000E+00 -0.10000000000E+04  0.10000000000E+04  0.00000000000E+00 0.  1.
    9000005    2    1    2  501    0  0.10884075807E+02  0.27403517065E+00 -0.96457418903E+03  0.10175711263E+04  0.32392760411E+03 0.  0.
         13    1    3    3    0    0 -0.31296066588E+01 -0.12283022858E+03 -0.15127060823E+03  0.19488421282E+03  0.00000000000E+00 0.  1.
          3    1    3    3  501    0  0.14013682466E+02  0.12310426375E+03 -0.81330358079E+03  0.82268691346E+03  0.00000000000E+00 0.  1.
         21    1    1    2  502  501 -0.10884075807E+02 -0.27403517065E+00 -0.56078157482E+01  0.12246868943E+02  0.00000000000E+00 0.  1.
<mgrwt>
<rscale>  1 0.30000000E+03</rscale>
<asrwt>0</asrwt>
<pdfrwt beam="1">  1        1 0.10842930E+00 0.30000000E+03</pdfrwt>
<pdfrwt beam="2">0</pdfrwt>
<totfact> 0.30360035E+01</totfact>
</mgrwt>
</event>
<event>
 6    1  0.1950139E-004  0.3000000E+03  0.7818608E-02  0.1093470E+00
          1   -1    0    0  502    0  0.00000000000E+00  0.00000000000E+00  0.52433675318E+02  0.52433675318E+02  0.00000000000E+00 0.  1.
         13   -1    0    0    0    0 -0.00000000000E+00 -0.00000000000E+00 -0.10000000000E+04  0.10000000000E+04  0.00000000000E+00 0.  1.
    9000005    2    1    2  501    0 -0.18265882057E+02  0.41609543930E+02 -0.92686853157E+03  0.10024997667E+04  0.37928289016E+03 0.  0.
         13    1    3    3    0    0  0.30549136822E+02 -0.15438131940E+03 -0.24368529674E+03  0.29008510025E+03  0.00000000000E+00 0.  1.
          1    1    3    3  501    0 -0.48815018879E+02  0.19599086333E+03 -0.68318323483E+03  0.71241466642E+03  0.00000000000E+00 0.  1.
         21    1    1    2  502  501  0.18265882057E+02 -0.41609543930E+02 -0.20697793114E+02  0.49933908651E+02  0.00000000000E+00 0.  1.
<mgrwt>
<rscale>  1 0.30000000E+03</rscale>
<asrwt>0</asrwt>
<pdfrwt beam="1">  1        1 0.19066831E+00 0.30000000E+03</pdfrwt>
<pdfrwt beam="2">0</pdfrwt>
<totfact> 0.11349880E+01</totfact>
</mgrwt>
</event>
<event>
 6    1  0.1950139E-004  0.3000000E+03  0.7818608E-02  0.1093470E+00
          1   -1    0    0  502    0  0.00000000000E+00  0.00000000000E+00  0.27731980218E+02  0.27731980218E+02  0.00000000000E+00 0.  1.
         13   -1    0    0    0    0 -0.00000000000E+00 -0.00000000000E+00 -0.10000000000E+04  0.10000000000E+04  0.00000000000E+00 0.  1.
    9000005    2    1    2  501    0 -0.37920741466E+01 -0.17083873572E+02 -0.92317125724E+03  0.97560971382E+03  0.31506016082E+03 0.  0.
         13    1    3    3    0    0  0.90085241927E+02 -0.11376695061E+03 -0.70019038327E+03  0.71506981666E+03  0.00000000000E+00 0.  1.
          1    1    3    3  501    0 -0.93877316073E+02  0.96683077036E+02 -0.22298087397E+03  0.26053989716E+03  0.00000000000E+00 0.  1.
         21    1    1    2  502  501  0.37920741466E+01  0.17083873572E+02 -0.49096762541E+02  0.52122266399E+02  0.00000000000E+00 0.  1.
<mgrwt>
<rscale>  1 0.30000000E+03</rscale>
<asrwt>0</asrwt>
<pdfrwt beam="1">  1        1 0.10084378E+00 0.30000000E+03</pdfrwt>
<pdfrwt beam="2">0</pdfrwt>
<totfact> 0.33808496E+01</totfact>
</mgrwt>
</event>
<event>
 6    1  0.1950139E-004  0.3000000E+03  0.7818608E-02  0.1093470E+00
          1   -1    0    0  502    0  0.00000000000E+00  0.00000000000E+00  0.28662986289E+02  0.28662986289E+02  0.00000000000E+00 0.  1.
         13   -1    0    0    0    0 -0.00000000000E+00 -0.00000000000E+00 -0.10000000000E+04  0.10000000000E+04  0.00000000000E+00 0.  1.
    9000005    2    1    2  501    0 -0.22333770347E+01 -0.12710975532E+02 -0.93324843449E+03  0.98844735824E+03  0.32543660315E+03 0.  0.
         13    1    3    3    0    0 -0.33695068576E+02  0.34770483896E+02 -0.93014450184E+03  0.93140385360E+03  0.00000000000E+00 0.  1.
          1    1    3    3  501    0  0.31461691542E+02 -0.47481459428E+02 -0.31039326486E+01  0.57043504643E+02  0.00000000000E+00 0.  1.
         21    1    1    2  502  501  0.22333770347E+01  0.12710975532E+02 -0.38088579220E+02  0.40215628044E+02  0.00000000000E+00 0. -1.
<mgrwt>
<rscale>  1 0.30000000E+03</rscale>
<asrwt>0</asrwt>
<pdfrwt beam="1">  1        1 0.10422926E+00 0.30000000E+03</pdfrwt>
<pdfrwt beam="2">0</pdfrwt>
<totfact> 0.32202747E+01</totfact>
</mgrwt>
</event>
<event>
 6    1  0.1950139E-004  0.3000000E+03  0.7818608E-02  0.1093470E+00
          1   -1    0    0  502    0  0.00000000000E+00  0.00000000000E+00  0.37799348322E+02  0.37799348322E+02  0.00000000000E+00 0.  1.
         13   -1    0    0    0    0 -0.00000000000E+00 -0.00000000000E+00 -0.10000000000E+04  0.10000000000E+04  0.00000000000E+00 0.  1.
    9000005    2    1    2  501    0  0.86332255972E+01  0.85376804708E+01 -0.96244175238E+03  0.10256551027E+04  0.35429766920E+03 0.  0.
         13    1    3    3    0    0  0.10703599541E+03  0.89014720591E+02 -0.15529378942E+03  0.20855811139E+03  0.00000000000E+00 0.  1.
          1    1    3    3  501    0 -0.98402769813E+02 -0.80477040120E+02 -0.80714796297E+03  0.81709699132E+03  0.00000000000E+00 0.  1.
         21    1    1    2  502  501 -0.86332255972E+01 -0.85376804708E+01  0.24110070619E+00  0.12144245616E+02  0.00000000000E+00 0.  1.
<mgrwt>
<rscale>  1 0.30000000E+03</rscale>
<asrwt>0</asrwt>
<pdfrwt beam="1">  1        1 0.13745247E+00 0.30000000E+03</pdfrwt>
<pdfrwt beam="2">0</pdfrwt>
<totfact> 0.20866969E+01</totfact>
</mgrwt>
</event>
<event>
 6    1  0.1950139E-004  0.3000000E+03  0.7818608E-02  0.1093470E+00
          1   -1    0    0  502    0  0.00000000000E+00  0.00000000000E+00  0.44713105942E+02  0.44713105942E+02  0.00000000000E+00 0.  1.
         13   -1    0    0    0    0 -0.00000000000E+00 -0.00000000000E+00 -0.10000000000E+04  0.10000000000E+04  0.00000000000E+00 0.  1.
    9000005    2    1    2  501    0 -0.20952676921E+02  0.51053577595E+02 -0.92302405990E+03  0.98078836172E+03  0.32699680868E+03 0.  0.
         13    1    3    3    0    0 -0.10183753577E+03 -0.10942719927E+03 -0.36079187949E+03  0.39053293835E+03  0.00000000000E+00 0.  1.
          3    1    3    3  501    0  0.80884858848E+02  0.16048077687E+03 -0.56223218041E+03  0.59025542337E+03  0.00000000000E+00 0.  1.
         21    1    1    2  502  501  0.20952676921E+02 -0.51053577595E+02 -0.32262834161E+02  0.63924744219E+02  0.00000000000E+00 0.  1.
<mgrwt>
<rscale>  1 0.30000000E+03</rscale>
<asrwt>0</asrwt>
<pdfrwt beam="1">  1        1 0.16259346E+00 0.30000000E+03</pdfrwt>
<pdfrwt beam="2">0</pdfrwt>
<totfact> 0.15536367E+01</totfact>
</mgrwt>
</event>
<event>
 6    1  0.1950139E-004  0.3000000E+03  0.7818608E-02  0.1093470E+00
          1   -1    0    0  502    0  0.00000000000E+00  0.00000000000E+00  0.25873286882E+02  0.25873286882E+02  0.00000000000E+00 0.  1.
         13   -1    0    0    0    0 -0.00000000000E+00 -0.00000000000E+00 -0.10000000000E+04  0.10000000000E+04  0.00000000000E+00 0.  1.
    9000005    2    1    2  501    0 -0.61707731893E+01 -0.91821104670E+01 -0.94230940239E+03  0.99218752051E+03  0.31042982527E+03 0.  0.
         13    1    3    3    0    0 -0.15076637651E+03  0.44198455092E+01 -0.62933436339E+03  0.64715668603E+03  0.00000000000E+00 0.  1.
          3    1    3    3  501    0  0.14459560332E+03 -0.13601955976E+02 -0.31297503900E+03  0.34503083448E+03  0.00000000000E+00 0.  1.
         21    1    1    2  502  501  0.61707731893E+01  0.91821104670E+01 -0.31817310725E+02  0.33685766373E+02  0.00000000000E+00 0. -1.
<mgrwt>
<rscale>  1 0.30000000E+03</rscale>
<asrwt>0</asrwt>
<pdfrwt beam="1">  1        1 0.94084878E-01 0.30000000E+03</pdfrwt>
<pdfrwt beam="2">0</pdfrwt>
<totfact> 0.37387773E+01</totfact>
</mgrwt>
</event>
<event>
 6    1  0.1950139E-004  0.3000000E+03  0.7818608E-02  0.1093470E+00
          1   -1    0    0  502    0  0.00000000000E+00  0.00000000000E+00  0.47897020449E+02  0.47897020449E+02  0.00000000000E+00 0.  1.
         13   -1    0    0    0    0 -0.00000000000E+00 -0.00000000000E+00 -0.10000000000E+04  0.10000000000E+04  0.00000000000E+00 0.  1.
    9000005    2    1    2  501    0  0.37481085792E+02 -0.32926076069E+02 -0.93879259971E+03  0.99626249238E+03  0.32972480977E+03 0.  0.
         13    1    3    3    0    0 -0.30797176918E+02 -0.70136784300E+02 -0.27089714669E+02  0.81249536976E+02  0.00000000000E+00 0.  1.
          3    1    3    3  501    0  0.68278262710E+02  0.37210708231E+02 -0.91170288504E+03  0.91501295540E+03  0.00000000000E+00 0.  1.
         21    1    1    2  502  501 -0.37481085792E+02  0.32926076069E+02 -0.13310379843E+02  0.51634528070E+02  0.00000000000E+00 0. -1.
<mgrwt>
<rscale>  1 0.30000000E+03</rscale>
<asrwt>0</asrwt>
<pdfrwt beam="1">  1        1 0.17417135E+00 0.30000000E+03</pdfrwt>
<pdfrwt beam="2">0</pdfrwt>
<totfact> 0.13633734E+01</totfact>
</mgrwt>
</event>
<event>
 6    1  0.1950139E-004  0.3000000E+03  0.7818608E-02  0.1093470E+00
          1   -1    0    0  502    0  0.00000000000E+00  0.00000000000E+00  0.35392732465E+02  0.35392732465E+02  0.00000000000E+00 0.  1.
         13   -1    0    0    0    0 -0.00000000000E+00 -0.00000000000E+00 -0.10000000000E+04  0.10000000000E+04  0.00000000000E+00 0.  1.
    9000005    2    1    2  501    0  0.28319270762E+02 -0.36749004043E+02 -0.84607093476E+03  0.90810042090E+03  0.32658517634E+03 0.  0.
         13    1    3    3    0    0 -0.57280078396E+02 -0.15507207300E+03 -0.59607498381E+03  0.61857395801E+03  0.00000000000E+00 0.  1.
          3    1    3    3  501    0  0.85599349158E+02  0.11832306896E+03 -0.24999595095E+03  0.28952646289E+03  0.00000000000E+00 0.  1.
         21    1    1    2  502  501 -0.28319270762E+02  0.36749004043E+02 -0.11853633278E+03  0.12729231156E+03  0.00000000000E+00 0.  1.
<mgrwt>
<rscale>  1 0.30000000E+03</rscale>
<asrwt>0</asrwt>
<pdfrwt beam="1">  1        1 0.12870112E+00 0.30000000E+03</pdfrwt>
<pdfrwt beam="2">0</pdfrwt>
<totfact> 0.23256332E+01</totfact>
</mgrwt>
</event>
<event>
 6    1  0.1950139E-004  0.3000000E+03  0.7818608E-02  0.1093470E+00
          1   -1    0    0  502    0  0.00000000000E+00  0.00000000000E+00  0.59272627826E+02  0.59272627826E+02  0.00000000000E+00 0.  1.
         13   -1    0    0    0    0 -0.00000000000E+00 -0.00000000000E+00 -0.10000000000E+04  0.10000000000E+04  0.00000000000E+00 0.  1.
    9000005    2    1    2  501    0  0.27693716185E+02 -0.57163024978E+02 -0.94146722188E+03  0.99575018519E+03  0.31799897500E+03 0.  0.
         13    1    3    3    0    0  0.81340037975E+02  0.83994307643E+02 -0.15094163987E+03  0.19093094076E+03  0.00000000000E+00 0.  1.
          1    1    3    3  501    0 -0.53646321790E+02 -0.14115733262E+03 -0.79052558200E+03  0.80481924443E+03  0.00000000000E+00 0.  1.
         21    1    1    2  502  501 -0.27693716185E+02  0.57163024978E+02  0.73984970103E+00  0.63522442636E+02  0.00000000000E+00 0.  1.
<mgrwt>
<rscale>  1 0.30000000E+03</rscale>
<asrwt>0</asrwt>
<pdfrwt beam="1">  1        1 0.21553728E+00 0.30000000E+03</pdfrwt>
<pdfrwt beam="2">0</pdfrwt>
<totfact> 0.86505139E+00</totfact>
</mgrwt>
</event>
<event>
 6    1  0.1950139E-004  0.3000000E+03  0.7818608E-02  0.1093470E+00
          1   -1    0    0  502    0  0.00000000000E+00  0.00000000000E+00  0.41156577113E+02  0.41156577113E+02  0.00000000000E+00 0.  1.
         13   -1    0    0    0    0 -0.00000000000E+00 -0.00000000000E+00 -0.10000000000E+04  0.10000000000E+04  0.00000000000E+00 0.  1.
    9000005    2    1    2  501    0 -0.39284322598E+02 -0.51504610677E+01 -0.91546420104E+03  0.98240675040E+03  0.35422949423E+03 0.  0.
         13    1    3    3    0    0  0.14641830750E+03  0.36469390531E+02 -0.55048877219E+03  0.57079438112E+03  0.00000000000E+00 0.  1.
          1    1    3    3  501    0 -0.18570263010E+03 -0.41619851598E+02 -0.36497542886E+03  0.41161236928E+03  0.00000000000E+00 0.  1.
         21    1    1    2  502  501  0.39284322598E+02  0.51504610677E+01 -0.43379221842E+02  0.58749826713E+02  0.00000000000E+00 0.  1.
<mgrwt>
<rscale>  1 0.30000000E+03</rscale>
<asrwt>0</asrwt>
<pdfrwt beam="1">  1        1 0.14966060E+00 0.30000000E+03</pdfrwt>
<pdfrwt beam="2">0</pdfrwt>
<totfact> 0.18036520E+01</totfact>
</mgrwt>
</event>
<event>
 6    1  0.1950139E-004  0.3000000E+03  0.7818608E-02  0.1093470E+00
          1   -1    0    0  502    0  0.00000000000E+00  0.00000000000E+00  0.19679404882E+02  0.19679404882E+02  0.00000000000E+00 0.  1.
         13   -1    0    0    0    0 -0.00000000000E+00 -0.00000000000E+00 -0.10000000000E+04  0.10000000000E+04  0.00000000000E+00 0.  1.
    9000005    2    1    2  501    0 -0.89053727862E+01  0.33948887412E+01 -0.96895654429E+03  0.10048479321E+04  0.26599201298E+03 0.  0.
         13    1    3    3    0    0  0.52809516612E+02  0.11616958400E+03 -0.61921776770E+03  0.63223006978E+03  0.00000000000E+00 0.  1.
          1    1    3    3  501    0 -0.61714889398E+02 -0.11277469526E+03 -0.34973877658E+03  0.37261786231E+03  0.00000000000E+00 0.  1.
         21    1    1    2  502  501  0.89053727862E+01 -0.33948887412E+01 -0.11364050832E+02  0.14831472797E+02  0.00000000000E+00 0. -1.
<mgrwt>
<rscale>  1 0.30000000E+03</rscale>
<asrwt>0</asrwt>
<pdfrwt beam="1">  1        1 0.71561623E-01 0.30000000E+03</pdfrwt>
<pdfrwt beam="2">0</pdfrwt>
<totfact> 0.54719028E+01</totfact>
</mgrwt>
</event>
<event>
 6    1  0.1950139E-004  0.3000000E+03  0.7818608E-02  0.1093470E+00
          1   -1    0    0  502    0  0.00000000000E+00  0.00000000000E+00  0.41614355521E+02  0.41614355521E+02  0.00000000000E+00 0.  1.
         13   -1    0    0    0    0 -0.00000000000E+00 -0.00000000000E+00 -0.10000000000E+04  0.10000000000E+04  0.00000000000E+00 0.  1.
    9000005    2    1    2  501    0 -0.30146506378E+02  0.18726125308E+02 -0.95199579608E+03  0.10055545472E+04  0.32184541624E+03 0.  0.
         13    1    3    3    0    0  0.12268431288E+03  0.82918597733E+02 -0.32727492090E+03  0.35921554577E+03  0.00000000000E+00 0.  1.
          1    1    3    3  501    0 -0.15283081926E+03 -0.64192472425E+02 -0.62472087519E+03  0.64633900140E+03  0.00000000000E+00 0.  1.
         21    1    1    2  502  501  0.30146506378E+02 -0.18726125308E+02 -0.63898483938E+01  0.36059808351E+02  0.00000000000E+00 0.  1.
<mgrwt>
<rscale>  1 0.30000000E+03</rscale>
<asrwt>0</asrwt>
<pdfrwt beam="1">  1        1 0.15132525E+00 0.30000000E+03</pdfrwt>
<pdfrwt beam="2">0</pdfrwt>
<totfact> 0.17688854E+01</totfact>
</mgrwt>
</event>
<event>
 6    1  0.1950139E-004  0.3000000E+03  0.7818608E-02  0.1093470E+00
          1   -1    0    0  502    0  0.00000000000E+00  0.00000000000E+00  0.37829899124E+02  0.37829899124E+02  0.00000000000E+00 0.  1.
         13   -1    0    0    0    0 -0.00000000000E+00 -0.00000000000E+00 -0.10000000000E+04  0.10000000000E+04  0.00000000000E+00 0.  1.
    9000005    2    1    2  501    0 -0.13381407178E+02 -0.34065508465E+01 -0.96923151671E+03  0.10223208617E+04  0.32486850377E+03 0.  0.
         13    1    3    3    0    0  0.16895437101E+02  0.15836670576E+03 -0.52263013949E+03  0.54635861116E+03  0.00000000000E+00 0.  1.
          3    1    3    3  501    0 -0.30276844279E+02 -0.16177325661E+03 -0.44660137721E+03  0.47596225059E+03  0.00000000000E+00 0.  1.
         21    1    1    2  502  501  0.13381407178E+02  0.34065508465E+01  0.70614158306E+01  0.15509037374E+02  0.00000000000E+00 0. -1.
<mgrwt>
<rscale>  1 0.30000000E+03</rscale>
<asrwt>0</asrwt>
<pdfrwt beam="1">  1        1 0.13756356E+00 0.30000000E+03</pdfrwt>
<pdfrwt beam="2">0</pdfrwt>
<totfact> 0.20838762E+01</totfact>
</mgrwt>
</event>
<event>
 6    1  0.1950139E-004  0.3000000E+03  0.7818608E-02  0.1093470E+00
          1   -1    0    0  502    0  0.00000000000E+00  0.00000000000E+00  0.95669117735E+02  0.95669117735E+02  0.00000000000E+00 0.  1.
         13   -1    0    0    0    0 -0.00000000000E+00 -0.00000000000E+00 -0.10000000000E+04  0.10000000000E+04  0.00000000000E+00 0.  1.
    9000005    2    1    2  501    0  0.20402550866E+03 -0.11541908764E+03 -0.40423866823E+03  0.54336467586E+03  0.27728738901E+03 0.  0.
         13    1    3    3    0    0 -0.65311985220E+02  0.22940624420E+01 -0.45735981865E+02  0.79766522884E+02  0.00000000000E+00 0.  1.
          1    1    3    3  501    0  0.26933749388E+03 -0.11771315008E+03 -0.35850268637E+03  0.46359815298E+03  0.00000000000E+00 0.  1.
         21    1    1    2  502  501 -0.20402550866E+03  0.11541908764E+03 -0.50009221403E+03  0.55230444187E+03  0.00000000000E+00 0.  1.
<mgrwt>
<rscale>  1 0.30000000E+03</rscale>
<asrwt>0</asrwt>
<pdfrwt beam="1">  1        1 0.34788843E+00 0.30000000E+03</pdfrwt>
<pdfrwt beam="2">0</pdfrwt>
<totfact> 0.20186240E+00</totfact>
</mgrwt>
</event>
<event>
 6    1  0.1950139E-004  0.3000000E+03  0.7818608E-02  0.1093470E+00
          1   -1    0    0  502    0  0.00000000000E+00  0.00000000000E+00  0.29120608324E+02  0.29120608324E+02  0.00000000000E+00 0.  1.
         13   -1    0    0    0    0 -0.00000000000E+00 -0.00000000000E+00 -0.10000000000E+04  0.10000000000E+04  0.00000000000E+00 0.  1.
    9000005    2    1    2  501    0 -0.94825102512E+01 -0.65538791994E+01 -0.94546995288E+03  0.10012187999E+04  0.32923059115E+03 0.  0.
         13    1    3    3    0    0 -0.88225198711E+02  0.13654451237E+03 -0.39853414209E+03  0.43041555729E+03  0.00000000000E+00 0.  1.
          1    1    3    3  501    0  0.78742688460E+02 -0.14309839156E+03 -0.54693581079E+03  0.57080324261E+03  0.00000000000E+00 0.  1.
         21    1    1    2  502  501  0.94825102512E+01  0.65538791994E+01 -0.25409438800E+02  0.27901808425E+02  0.00000000000E+00 0.  1.
<mgrwt>
<rscale>  1 0.30000000E+03</rscale>
<asrwt>0</asrwt>
<pdfrwt beam="1">  1        1 0.10589334E+00 0.30000000E+03</pdfrwt>
<pdfrwt beam="2">0</pdfrwt>
<totfact> 0.31453874E+01</totfact>
</mgrwt>
</event>
<event>
 6    1  0.1950139E-004  0.3000000E+03  0.7818608E-02  0.1093470E+00
          1   -1    0    0  502    0  0.00000000000E+00  0.00000000000E+00  0.51123883401E+02  0.51123883401E+02  0.00000000000E+00 0.  1.
         13   -1    0    0    0    0 -0.00000000000E+00 -0.00000000000E+00 -0.10000000000E+04  0.10000000000E+04  0.00000000000E+00 0.  1.
    9000005    2    1    2  501    0 -0.42322758785E+02  0.97686926372E+02 -0.69006660917E+03  0.77127336504E+03  0.32762284265E+03 0.  0.
         13    1    3    3    0    0 -0.37933491174E+02 -0.25047412219E+02 -0.63509390399E+03  0.63671861092E+03  0.00000000000E+00 0.  1.
          1    1    3    3  501    0 -0.43892676111E+01  0.12273433859E+03 -0.54972705187E+02  0.13455475412E+03  0.00000000000E+00 0.  1.
         21    1    1    2  502  501  0.42322758785E+02 -0.97686926372E+02 -0.25880950742E+03  0.27985051836E+03  0.00000000000E+00 0.  1.
<mgrwt>
<rscale>  1 0.30000000E+03</rscale>
<asrwt>0</asrwt>
<pdfrwt beam="1">  1        1 0.18590542E+00 0.30000000E+03</pdfrwt>
<pdfrwt beam="2">0</pdfrwt>
<totfact> 0.11963831E+01</totfact>
</mgrwt>
</event>
<event>
 6    1  0.1950139E-004  0.3000000E+03  0.7818608E-02  0.1093470E+00
          1   -1    0    0  502    0  0.00000000000E+00  0.00000000000E+00  0.36716041530E+02  0.36716041530E+02  0.00000000000E+00 0.  1.
         13   -1    0    0    0    0 -0.00000000000E+00 -0.00000000000E+00 -0.10000000000E+04  0.10000000000E+04  0.00000000000E+00 0.  1.
    9000005    2    1    2  501    0 -0.10774720352E+02 -0.13913707423E+01 -0.96938720754E+03  0.10242548955E+04  0.33055786529E+03 0.  0.
         13    1    3    3    0    0 -0.39892183578E+02  0.13794727471E+03 -0.74361854883E+03  0.75735683999E+03  0.00000000000E+00 0.  1.
          1    1    3    3  501    0  0.29117463227E+02 -0.13933864545E+03 -0.22576865870E+03  0.26689805551E+03  0.00000000000E+00 0.  1.
         21    1    1    2  502  501  0.10774720352E+02  0.13913707423E+01  0.61032490688E+01  0.12461146030E+02  0.00000000000E+00 0.  1.
<mgrwt>
<rscale>  1 0.30000000E+03</rscale>
<asrwt>0</asrwt>
<pdfrwt beam="1">  1        1 0.13351316E+00 0.30000000E+03</pdfrwt>
<pdfrwt beam="2">0</pdfrwt>
<totfact> 0.21900374E+01</totfact>
</mgrwt>
</event>
<event>
 6    1  0.1950139E-004  0.3000000E+03  0.7818608E-02  0.1093470E+00
          1   -1    0    0  502    0  0.00000000000E+00  0.00000000000E+00  0.35461900803E+02  0.35461900803E+02  0.00000000000E+00 0.  1.
         13   -1    0    0    0    0 -0.00000000000E+00 -0.00000000000E+00 -0.10000000000E+04  0.10000000000E+04  0.00000000000E+00 0.  1.
    9000005    2    1    2  501    0  0.11907950663E+02 -0.39274045503E+02 -0.91862429083E+03  0.97388002248E+03  0.32076075280E+03 0.  0.
         13    1    3    3    0    0 -0.69134133692E+02 -0.15218295901E+03 -0.65347088136E+03  0.67450972879E+03  0.00000000000E+00 0.  1.
          1    1    3    3  501    0  0.81042084355E+02  0.11290891351E+03 -0.26515340948E+03  0.29937029369E+03  0.00000000000E+00 0.  1.
         21    1    1    2  502  501 -0.11907950663E+02  0.39274045503E+02 -0.45913808365E+02  0.61581878322E+02  0.00000000000E+00 0.  1.
<mgrwt>
<rscale>  1 0.30000000E+03</rscale>
<asrwt>0</asrwt>
<pdfrwt beam="1">  1        1 0.12895264E+00 0.30000000E+03</pdfrwt>
<pdfrwt beam="2">0</pdfrwt>
<totfact> 0.23182792E+01</totfact>
</mgrwt>
</event>
<event>
 6    1  0.1950139E-004  0.3000000E+03  0.7818608E-02  0.1093470E+00
          1   -1    0    0  502    0  0.00000000000E+00  0.00000000000E+00  0.28310930796E+02  0.28310930796E+02  0.00000000000E+00 0.  1.
         13   -1    0    0    0    0 -0.00000000000E+00 -0.00000000000E+00 -0.10000000000E+04  0.10000000000E+04  0.00000000000E+00 0.  1.
    9000005    2    1    2  501    0 -0.21749688893E+01  0.18777155497E+02 -0.91234860838E+03  0.96603250477E+03  0.31698817800E+03 0.  0.
         13    1    3    3    0    0  0.32207087739E+02 -0.11052179075E+03 -0.13573487006E+03  0.17797841914E+03  0.00000000000E+00 0.  1.
          3    1    3    3  501    0 -0.34382056628E+02  0.12929894624E+03 -0.77661373832E+03  0.78805408563E+03  0.00000000000E+00 0.  1.
         21    1    1    2  502  501  0.21749688893E+01 -0.18777155497E+02 -0.59340460820E+02  0.62278426028E+02  0.00000000000E+00 0. -1.
<mgrwt>
<rscale>  1 0.30000000E+03</rscale>
<asrwt>0</asrwt>
<pdfrwt beam="1">  1        1 0.10294906E+00 0.30000000E+03</pdfrwt>
<pdfrwt beam="2">0</pdfrwt>
<totfact> 0.32796596E+01</totfact>
</mgrwt>
</event>
<event>
 6    1  0.1950139E-004  0.3000000E+03  0.7818608E-02  0.1093470E+00
          1   -1    0    0  502    0  0.00000000000E+00  0.00000000000E+00  0.42894032811E+02  0.42894032811E+02  0.00000000000E+00 0.  1.
         13   -1    0    0    0    0 -0.00000000000E+00 -0.00000000000E+00 -0.10000000000E+04  0.10000000000E+04  0.00000000000E+00 0.  1.
    9000005    2    1    2  501    0  0.63064906613E+02 -0.95435214557E+02 -0.77629289567E+03  0.82893508942E+03  0.26724082769E+03 0.  0.
         13    1    3    3    0    0  0.64444118501E-01  0.46433228192E+02 -0.10549569608E+02  0.47616617396E+02  0.00000000000E+00 0.  1.
          1    1    3    3  501    0  0.63000462494E+02 -0.14186844275E+03 -0.76574332606E+03  0.78131847203E+03  0.00000000000E+00 0.  1.
         21    1    1    2  502  501 -0.63064906613E+02  0.95435214557E+02 -0.18081307152E+03  0.21395894339E+03  0.00000000000E+00 0.  1.
<mgrwt>
<rscale>  1 0.30000000E+03</rscale>
<asrwt>0</asrwt>
<pdfrwt beam="1">  1        1 0.15597863E+00 0.30000000E+03</pdfrwt>
<pdfrwt beam="2">0</pdfrwt>
<totfact> 0.16759485E+01</totfact>
</mgrwt>
</event>
<event>
 6    1  0.1950139E-004  0.3000000E+03  0.7818608E-02  0.1093470E+00
          1   -1    0    0  502    0  0.00000000000E+00  0.00000000000E+00  0.32355459174E+02  0.32355459174E+02  0.00000000000E+00 0.  1.
         13   -1    0    0    0    0 -0.00000000000E+00 -0.00000000000E+00 -0.10000000000E+04  0.10000000000E+04  0.00000000000E+00 0.  1.
    9000005    2    1    2  501    0 -0.91285210714E+01 -0.62692597048E+01 -0.94751338500E+03  0.10093794511E+04  0.34776806631E+03 0.  0.
         13    1    3    3    0    0  0.11587919543E+03 -0.63064017991E+02 -0.78775104580E+03  0.79872195942E+03  0.00000000000E+00 0.  1.
          1    1    3    3  501    0 -0.12500771651E+03  0.56794758286E+02 -0.15976233920E+03  0.21065749163E+03  0.00000000000E+00 0.  1.
         21    1    1    2  502  501  0.91285210714E+01  0.62692597048E+01 -0.20131155827E+02  0.22976008120E+02  0.00000000000E+00 0.  1.
<mgrwt>
<rscale>  1 0.30000000E+03</rscale>
<asrwt>0</asrwt>
<pdfrwt beam="1">  1        1 0.11765646E+00 0.30000000E+03</pdfrwt>
<pdfrwt beam="2">0</pdfrwt>
<totfact> 0.26805808E+01</totfact>
</mgrwt>
</event>
<event>
 6    1  0.1950139E-004  0.3000000E+03  0.7818608E-02  0.1093470E+00
          1   -1    0    0  502    0  0.00000000000E+00  0.00000000000E+00  0.35938057295E+02  0.35938057295E+02  0.00000000000E+00 0.  1.
         13   -1    0    0    0    0 -0.00000000000E+00 -0.00000000000E+00 -0.10000000000E+04  0.10000000000E+04  0.00000000000E+00 0.  1.
    9000005    2    1    2  501    0  0.50964322952E+01  0.10434867646E+02 -0.94374691745E+03  0.10125380501E+04  0.36666087690E+03 0.  0.
         13    1    3    3    0    0  0.12558337441E+03  0.14113729834E+03 -0.50115140540E+03  0.53557786740E+03  0.00000000000E+00 0.  1.
          1    1    3    3  501    0 -0.12048694212E+03 -0.13070243069E+03 -0.44259551205E+03  0.47696018272E+03  0.00000000000E+00 0.  1.
         21    1    1    2  502  501 -0.50964322952E+01 -0.10434867646E+02 -0.20315025252E+02  0.23400007177E+02  0.00000000000E+00 0.  1.
<mgrwt>
<rscale>  1 0.30000000E+03</rscale>
<asrwt>0</asrwt>
<pdfrwt beam="1">  1        1 0.13068412E+00 0.30000000E+03</pdfrwt>
<pdfrwt beam="2">0</pdfrwt>
<totfact> 0.22684630E+01</totfact>
</mgrwt>
</event>
<event>
 6    1  0.1950139E-004  0.3000000E+03  0.7818608E-02  0.1093470E+00
          1   -1    0    0  502    0  0.00000000000E+00  0.00000000000E+00  0.45477568169E+02  0.45477568169E+02  0.00000000000E+00 0.  1.
         13   -1    0    0    0    0 -0.00000000000E+00 -0.00000000000E+00 -0.10000000000E+04  0.10000000000E+04  0.00000000000E+00 0.  1.
    9000005    2    1    2  501    0  0.60758352606E+01 -0.35483210525E+02 -0.95606328455E+03  0.10094449686E+04  0.32191018405E+03 0.  0.
         13    1    3    3    0    0  0.91733811969E+02  0.17386814465E+01 -0.89078479196E+03  0.89549743767E+03  0.00000000000E+00 0.  1.
          3    1    3    3  501    0 -0.85657976708E+02 -0.37221891971E+02 -0.65278492588E+02  0.11394753095E+03  0.00000000000E+00 0.  1.
         21    1    1    2  502  501 -0.60758352606E+01  0.35483210525E+02  0.15408527206E+01  0.36032599551E+02  0.00000000000E+00 0.  1.
<mgrwt>
<rscale>  1 0.30000000E+03</rscale>
<asrwt>0</asrwt>
<pdfrwt beam="1">  1        1 0.16537332E+00 0.30000000E+03</pdfrwt>
<pdfrwt beam="2">0</pdfrwt>
<totfact> 0.15053469E+01</totfact>
</mgrwt>
</event>
<event>
 6    1  0.1950139E-004  0.3000000E+03  0.7818608E-02  0.1093470E+00
          1   -1    0    0  502    0  0.00000000000E+00  0.00000000000E+00  0.43018730552E+02  0.43018730552E+02  0.00000000000E+00 0.  1.
         13   -1    0    0    0    0 -0.00000000000E+00 -0.00000000000E+00 -0.10000000000E+04  0.10000000000E+04  0.00000000000E+00 0.  1.
    9000005    2    1    2  501    0 -0.99811739152E+01  0.74023919148E+02 -0.71331214196E+03  0.78815836068E+03  0.32680303733E+03 0.  0.
         13    1    3    3    0    0 -0.10287214632E+03 -0.76508536912E+02 -0.47109743564E+03  0.48823050762E+03  0.00000000000E+00 0.  1.
          1    1    3    3  501    0  0.92890972409E+02  0.15053245606E+03 -0.24221470632E+03  0.29992785306E+03  0.00000000000E+00 0.  1.
         21    1    1    2  502  501  0.99811739152E+01 -0.74023919148E+02 -0.24366912749E+03  0.25486036987E+03  0.00000000000E+00 0.  1.
<mgrwt>
<rscale>  1 0.30000000E+03</rscale>
<asrwt>0</asrwt>
<pdfrwt beam="1">  1        1 0.15643208E+00 0.30000000E+03</pdfrwt>
<pdfrwt beam="2">0</pdfrwt>
<totfact> 0.16672105E+01</totfact>
</mgrwt>
</event>
<event>
 6    1  0.1950139E-004  0.3000000E+03  0.7818608E-02  0.1093470E+00
          1   -1    0    0  502    0  0.00000000000E+00  0.00000000000E+00  0.26729231413E+02  0.26729231413E+02  0.00000000000E+00 0.  1.
         13   -1    0    0    0    0 -0.00000000000E+00 -0.00000000000E+00 -0.10000000000E+04  0.10000000000E+04  0.00000000000E+00 0.  1.
    9000005    2    1    2  501    0  0.82623348419E+01 -0.35903777323E+01 -0.93536814192E+03  0.98777071377E+03  0.31732674810E+03 0.  0.
         13    1    3    3    0    0 -0.41891198597E+02  0.60822253934E+02 -0.31610153762E+02  0.80333186881E+02  0.00000000000E+00 0.  1.
          3    1    3    3  501    0  0.50153533439E+02 -0.64412631667E+02 -0.90375798816E+03  0.90743752689E+03  0.00000000000E+00 0.  1.
         21    1    1    2  502  501 -0.82623348419E+01  0.35903777323E+01 -0.37902626663E+02  0.38958517647E+02  0.00000000000E+00 0.  1.
<mgrwt>
<rscale>  1 0.30000000E+03</rscale>
<asrwt>0</asrwt>
<pdfrwt beam="1">  1        1 0.97197410E-01 0.30000000E+03</pdfrwt>
<pdfrwt beam="2">0</pdfrwt>
<totfact> 0.35673027E+01</totfact>
</mgrwt>
</event>
<event>
 6    1  0.1950139E-004  0.3000000E+03  0.7818608E-02  0.1093470E+00
          1   -1    0    0  502    0  0.00000000000E+00  0.00000000000E+00  0.33326849403E+02  0.33326849403E+02  0.00000000000E+00 0.  1.
         13   -1    0    0    0    0 -0.00000000000E+00 -0.00000000000E+00 -0.10000000000E+04  0.10000000000E+04  0.00000000000E+00 0.  1.
    9000005    2    1    2  501    0  0.59084419719E+01 -0.12851804277E+02 -0.96201022541E+03  0.10184331786E+04  0.33397962040E+03 0.  0.
         13    1    3    3    0    0 -0.13582015685E+03  0.55767998022E+02 -0.67776148940E+03  0.69348238703E+03  0.00000000000E+00 0.  1.
          3    1    3    3  501    0  0.14172859883E+03 -0.68619802299E+02 -0.28424873602E+03  0.32495079154E+03  0.00000000000E+00 0.  1.
         21    1    1    2  502  501 -0.59084419719E+01  0.12851804277E+02 -0.46629251825E+01  0.14893670836E+02  0.00000000000E+00 0. -1.
<mgrwt>
<rscale>  1 0.30000000E+03</rscale>
<asrwt>0</asrwt>
<pdfrwt beam="1">  1        1 0.12118880E+00 0.30000000E+03</pdfrwt>
<pdfrwt beam="2">0</pdfrwt>
<totfact> 0.25597796E+01</totfact>
</mgrwt>
</event>
<event>
 6    1  0.1950139E-004  0.3000000E+03  0.7818608E-02  0.1093470E+00
          1   -1    0    0  502    0  0.00000000000E+00  0.00000000000E+00  0.43308588443E+02  0.43308588443E+02  0.00000000000E+00 0.  1.
         13   -1    0    0    0    0 -0.00000000000E+00 -0.00000000000E+00 -0.10000000000E+04  0.10000000000E+04  0.00000000000E+00 0.  1.
    9000005    2    1    2  501    0  0.11455318126E+02 -0.39751363570E+02 -0.94237503356E+03  0.99953240887E+03  0.33057969883E+03 0.  0.
         13    1    3    3    0    0  0.16965902547E+03 -0.18363455289E+02 -0.55198927302E+03  0.57776600708E+03  0.00000000000E+00 0.  1.
          1    1    3    3  501    0 -0.15820370735E+03 -0.21387908282E+02 -0.39038576055E+03  0.42176640179E+03  0.00000000000E+00 0.  1.
         21    1    1    2  502  501 -0.11455318126E+02  0.39751363570E+02 -0.14316377994E+02  0.43776179572E+02  0.00000000000E+00 0.  1.
<mgrwt>
<rscale>  1 0.30000000E+03</rscale>
<asrwt>0</asrwt>
<pdfrwt beam="1">  1        1 0.15748611E+00 0.30000000E+03</pdfrwt>
<pdfrwt beam="2">0</pdfrwt>
<totfact> 0.16471075E+01</totfact>
</mgrwt>
</event>
<event>
 6    1  0.1950139E-004  0.3000000E+03  0.7818608E-02  0.1093470E+00
          1   -1    0    0  502    0  0.00000000000E+00  0.00000000000E+00  0.32152605334E+02  0.32152605334E+02  0.00000000000E+00 0.  1.
         13   -1    0    0    0    0 -0.00000000000E+00 -0.00000000000E+00 -0.10000000000E+04  0.10000000000E+04  0.00000000000E+00 0.  1.
    9000005    2    1    2  501    0  0.17246843557E+02  0.20573039721E+02 -0.83560149855E+03  0.89720935573E+03  0.32562871502E+03 0.  0.
         13    1    3    3    0    0  0.78692476384E+02 -0.12558727045E+03 -0.25099852503E+03  0.29148744039E+03  0.00000000000E+00 0.  1.
          1    1    3    3  501    0 -0.61445632827E+02  0.14616031017E+03 -0.58460297352E+03  0.60572191533E+03  0.00000000000E+00 0.  1.
         21    1    1    2  502  501 -0.17246843557E+02 -0.20573039721E+02 -0.13224589611E+03  0.13494324961E+03  0.00000000000E+00 0.  1.
<mgrwt>
<rscale>  1 0.30000000E+03</rscale>
<asrwt>0</asrwt>
<pdfrwt beam="1">  1        1 0.11691881E+00 0.30000000E+03</pdfrwt>
<pdfrwt beam="2">0</pdfrwt>
<totfact> 0.27067804E+01</totfact>
</mgrwt>
</event>
<event>
 6    1  0.1950139E-004  0.3000000E+03  0.7818608E-02  0.1093470E+00
          1   -1    0    0  502    0  0.00000000000E+00  0.00000000000E+00  0.39454752276E+02  0.39454752276E+02  0.00000000000E+00 0.  1.
         13   -1    0    0    0    0 -0.00000000000E+00 -0.00000000000E+00 -0.10000000000E+04  0.10000000000E+04  0.00000000000E+00 0.  1.
    9000005    2    1    2  501    0 -0.94658764309E+01 -0.28424131339E+02 -0.94735155604E+03  0.10067193348E+04  0.33928058331E+03 0.  0.
         13    1    3    3    0    0  0.14835948353E+03 -0.11481384920E+01 -0.24570150235E+03  0.28702104946E+03  0.00000000000E+00 0.  1.
          3    1    3    3  501    0 -0.15782535997E+03 -0.27275992847E+02 -0.70165005369E+03  0.71969828531E+03  0.00000000000E+00 0.  1.
         21    1    1    2  502  501  0.94658764309E+01  0.28424131339E+02 -0.13193691683E+02  0.32735417504E+02  0.00000000000E+00 0.  1.
<mgrwt>
<rscale>  1 0.30000000E+03</rscale>
<asrwt>0</asrwt>
<pdfrwt beam="1">  1        1 0.14347213E+00 0.30000000E+03</pdfrwt>
<pdfrwt beam="2">0</pdfrwt>
<totfact> 0.19406160E+01</totfact>
</mgrwt>
</event>
<event>
 6    1  0.1950139E-004  0.3000000E+03  0.7818608E-02  0.1093470E+00
          1   -1    0    0  502    0  0.00000000000E+00  0.00000000000E+00  0.52763637120E+02  0.52763637120E+02  0.00000000000E+00 0.  1.
         13   -1    0    0    0    0 -0.00000000000E+00 -0.00000000000E+00 -0.10000000000E+04  0.10000000000E+04  0.00000000000E+00 0.  1.
    9000005    2    1    2  501    0  0.12973785361E+02 -0.22909591866E+02 -0.96786915640E+03  0.10193139634E+04  0.31864884041E+03 0.  0.
         13    1    3    3    0    0  0.11528607910E+03 -0.68583823746E+02 -0.18526970264E+03  0.22873452654E+03  0.00000000000E+00 0.  1.
          1    1    3    3  501    0 -0.10231229374E+03  0.45674231880E+02 -0.78259945375E+03  0.79057943682E+03  0.00000000000E+00 0.  1.
         21    1    1    2  502  501 -0.12973785361E+02  0.22909591866E+02  0.20632793517E+02  0.33449673756E+02  0.00000000000E+00 0. -1.
<mgrwt>
<rscale>  1 0.30000000E+03</rscale>
<asrwt>0</asrwt>
<pdfrwt beam="1">  1        1 0.19186818E+00 0.30000000E+03</pdfrwt>
<pdfrwt beam="2">0</pdfrwt>
<totfact> 0.11200531E+01</totfact>
</mgrwt>
</event>
<event>
 6    1  0.1950139E-004  0.3000000E+03  0.7818608E-02  0.1093470E+00
          1   -1    0    0  502    0  0.00000000000E+00  0.00000000000E+00  0.26797323204E+02  0.26797323204E+02  0.00000000000E+00 0.  1.
         13   -1    0    0    0    0 -0.00000000000E+00 -0.00000000000E+00 -0.10000000000E+04  0.10000000000E+04  0.00000000000E+00 0.  1.
    9000005    2    1    2  501    0  0.86610678625E+01  0.17591109257E+02 -0.93642808252E+03  0.98512200670E+03  0.30525948492E+03 0.  0.
         13    1    3    3    0    0  0.77062892704E+01 -0.10434579202E+03 -0.77897959201E+03  0.78597495888E+03  0.00000000000E+00 0.  1.
          1    1    3    3  501    0  0.95477859206E+00  0.12193690128E+03 -0.15744849051E+03  0.19914704782E+03  0.00000000000E+00 0.  1.
         21    1    1    2  502  501 -0.86610678625E+01 -0.17591109257E+02 -0.36774594277E+02  0.41675316503E+02  0.00000000000E+00 0.  1.
<mgrwt>
<rscale>  1 0.30000000E+03</rscale>
<asrwt>0</asrwt>
<pdfrwt beam="1">  1        1 0.97445017E-01 0.30000000E+03</pdfrwt>
<pdfrwt beam="2">0</pdfrwt>
<totfact> 0.35541664E+01</totfact>
</mgrwt>
</event>
<event>
 6    1  0.1950139E-004  0.3000000E+03  0.7818608E-02  0.1093470E+00
          3   -1    0    0  502    0  0.00000000000E+00  0.00000000000E+00  0.27110669443E+02  0.27110669443E+02  0.00000000000E+00 0.  1.
         13   -1    0    0    0    0 -0.00000000000E+00 -0.00000000000E+00 -0.10000000000E+04  0.10000000000E+04  0.00000000000E+00 0.  1.
    9000005    2    1    2  501    0  0.10539770491E+02  0.30756595995E+01 -0.95725413789E+03  0.10080055473E+04  0.31562501858E+03 0.  0.
         13    1    3    3    0    0  0.31002769071E+02 -0.13288478308E+03 -0.22648374415E+03  0.26441335751E+03  0.00000000000E+00 0.  1.
          3    1    3    3  501    0 -0.20462998580E+02  0.13596044268E+03 -0.73077039374E+03  0.74359218975E+03  0.00000000000E+00 0.  1.
         21    1    1    2  502  501 -0.10539770491E+02 -0.30756595995E+01 -0.15635192667E+02  0.19105122185E+02  0.00000000000E+00 0.  1.
<mgrwt>
<rscale>  1 0.30000000E+03</rscale>
<asrwt>0</asrwt>
<pdfrwt beam="1">  1        3 0.98584460E-01 0.30000000E+03</pdfrwt>
<pdfrwt beam="2">0</pdfrwt>
<totfact> 0.40653403E+00</totfact>
</mgrwt>
</event>
<event>
 6    1  0.1950139E-004  0.3000000E+03  0.7818608E-02  0.1093470E+00
          1   -1    0    0  502    0  0.00000000000E+00  0.00000000000E+00  0.46741835864E+02  0.46741835864E+02  0.00000000000E+00 0.  1.
         13   -1    0    0    0    0 -0.00000000000E+00 -0.00000000000E+00 -0.10000000000E+04  0.10000000000E+04  0.00000000000E+00 0.  1.
    9000005    2    1    2  501    0 -0.31303459247E+01  0.39674410909E+02 -0.94519173884E+03  0.10061348763E+04  0.34254358588E+03 0.  0.
         13    1    3    3    0    0 -0.12045328072E+03  0.99099836564E+02 -0.77766217182E+03  0.79315082042E+03  0.00000000000E+00 0.  1.
          1    1    3    3  501    0  0.11732293479E+03 -0.59425425655E+02 -0.16752956701E+03  0.21298405590E+03  0.00000000000E+00 0.  1.
         21    1    1    2  502  501  0.31303459247E+01 -0.39674410909E+02 -0.80664252973E+01  0.40606959547E+02  0.00000000000E+00 0. -1.
<mgrwt>
<rscale>  1 0.30000000E+03</rscale>
<asrwt>0</asrwt>
<pdfrwt beam="1">  1        1 0.16997067E+00 0.30000000E+03</pdfrwt>
<pdfrwt beam="2">0</pdfrwt>
<totfact> 0.14291910E+01</totfact>
</mgrwt>
</event>
<event>
 6    1  0.1950139E-004  0.3000000E+03  0.7818608E-02  0.1093470E+00
          1   -1    0    0  502    0  0.00000000000E+00  0.00000000000E+00  0.34766825087E+02  0.34766825087E+02  0.00000000000E+00 0.  1.
         13   -1    0    0    0    0 -0.00000000000E+00 -0.00000000000E+00 -0.10000000000E+04  0.10000000000E+04  0.00000000000E+00 0.  1.
    9000005    2    1    2  501    0  0.30638968346E+02  0.20128281997E+02 -0.88119745209E+03  0.94308314700E+03  0.33399547671E+03 0.  0.
         13    1    3    3    0    0  0.23609556804E+02  0.40343829846E+02  0.13087650682E+02  0.48541965139E+02  0.00000000000E+00 0.  1.
          1    1    3    3  501    0  0.70294115422E+01 -0.20215547849E+02 -0.89428510277E+03  0.89454118186E+03  0.00000000000E+00 0.  1.
         21    1    1    2  502  501 -0.30638968346E+02 -0.20128281997E+02 -0.84035722822E+02  0.91683678088E+02  0.00000000000E+00 0.  1.
<mgrwt>
<rscale>  1 0.30000000E+03</rscale>
<asrwt>0</asrwt>
<pdfrwt beam="1">  1        1 0.12642509E+00 0.30000000E+03</pdfrwt>
<pdfrwt beam="2">0</pdfrwt>
<totfact> 0.23935655E+01</totfact>
</mgrwt>
</event>
<event>
 6    1  0.1950139E-004  0.3000000E+03  0.7818608E-02  0.1093470E+00
          1   -1    0    0  502    0  0.00000000000E+00  0.00000000000E+00  0.35911499735E+02  0.35911499735E+02  0.00000000000E+00 0.  1.
         13   -1    0    0    0    0 -0.00000000000E+00 -0.00000000000E+00 -0.10000000000E+04  0.10000000000E+04  0.00000000000E+00 0.  1.
    9000005    2    1    2  501    0 -0.15150712585E+02 -0.97999872376E+00 -0.94538270446E+03  0.10118197732E+04  0.36027807471E+03 0.  0.
         13    1    3    3    0    0 -0.10637064949E+03 -0.47969633972E+02 -0.88520795070E+03  0.89286556481E+03  0.00000000000E+00 0.  1.
          3    1    3    3  501    0  0.91219936901E+02  0.46989635248E+02 -0.60174753760E+02  0.11895420841E+03  0.00000000000E+00 0.  1.
         21    1    1    2  502  501  0.15150712585E+02  0.97999872376E+00 -0.18705795808E+02  0.24091726508E+02  0.00000000000E+00 0.  1.
<mgrwt>
<rscale>  1 0.30000000E+03</rscale>
<asrwt>0</asrwt>
<pdfrwt beam="1">  1        1 0.13058755E+00 0.30000000E+03</pdfrwt>
<pdfrwt beam="2">0</pdfrwt>
<totfact> 0.22712046E+01</totfact>
</mgrwt>
</event>
<event>
 6    1  0.1950139E-004  0.3000000E+03  0.7818608E-02  0.1093470E+00
          1   -1    0    0  502    0  0.00000000000E+00  0.00000000000E+00  0.56792463522E+02  0.56792463522E+02  0.00000000000E+00 0.  1.
         13   -1    0    0    0    0 -0.00000000000E+00 -0.00000000000E+00 -0.10000000000E+04  0.10000000000E+04  0.00000000000E+00 0.  1.
    9000005    2    1    2  501    0  0.49838329671E+02 -0.39363002050E+02 -0.93907722112E+03  0.99314998919E+03  0.31693464429E+03 0.  0.
         13    1    3    3    0    0  0.18375307557E+03 -0.42071691437E+00 -0.52848232716E+03  0.55951670208E+03  0.00000000000E+00 0.  1.
          1    1    3    3  501    0 -0.13391474590E+03 -0.38942285135E+02 -0.41059489396E+03  0.43363328711E+03  0.00000000000E+00 0.  1.
         21    1    1    2  502  501 -0.49838329671E+02  0.39363002050E+02 -0.41303153545E+01  0.63642474336E+02  0.00000000000E+00 0.  1.
<mgrwt>
<rscale>  1 0.30000000E+03</rscale>
<asrwt>0</asrwt>
<pdfrwt beam="1">  1        1 0.20651848E+00 0.30000000E+03</pdfrwt>
<pdfrwt beam="2">0</pdfrwt>
<totfact> 0.95395885E+00</totfact>
</mgrwt>
</event>
<event>
 6    1  0.1950139E-004  0.3000000E+03  0.7818608E-02  0.1093470E+00
          1   -1    0    0  502    0  0.00000000000E+00  0.00000000000E+00  0.44991080503E+02  0.44991080503E+02  0.00000000000E+00 0.  1.
         13   -1    0    0    0    0 -0.00000000000E+00 -0.00000000000E+00 -0.10000000000E+04  0.10000000000E+04  0.00000000000E+00 0.  1.
    9000005    2    1    2  501    0  0.61222071858E+02  0.19253793437E+02 -0.90275494178E+03  0.96223040849E+03  0.32680578863E+03 0.  0.
         13    1    3    3    0    0  0.11446776939E+03  0.11904211338E+03 -0.77144437396E+03  0.78892351791E+03  0.00000000000E+00 0.  1.
          1    1    3    3  501    0 -0.53245697536E+02 -0.99788319948E+02 -0.13131056781E+03  0.17330689058E+03  0.00000000000E+00 0.  1.
         21    1    1    2  502  501 -0.61222071858E+02 -0.19253793437E+02 -0.52253977721E+02  0.82760672013E+02  0.00000000000E+00 0.  1.
<mgrwt>
<rscale>  1 0.30000000E+03</rscale>
<asrwt>0</asrwt>
<pdfrwt beam="1">  1        1 0.16360427E+00 0.30000000E+03</pdfrwt>
<pdfrwt beam="2">0</pdfrwt>
<totfact> 0.15358746E+01</totfact>
</mgrwt>
</event>
<event>
 6    1  0.1950139E-004  0.3000000E+03  0.7818608E-02  0.1093470E+00
          1   -1    0    0  502    0  0.00000000000E+00  0.00000000000E+00  0.26859686225E+02  0.26859686225E+02  0.00000000000E+00 0.  1.
         13   -1    0    0    0    0 -0.00000000000E+00 -0.00000000000E+00 -0.10000000000E+04  0.10000000000E+04  0.00000000000E+00 0.  1.
    9000005    2    1    2  501    0 -0.71697557226E+01 -0.13107023526E+02 -0.92140807929E+03  0.97301339065E+03  0.31231236020E+03 0.  0.
         13    1    3    3    0    0 -0.34388818691E+02 -0.48734913385E+02 -0.92602211821E+03  0.92794107897E+03  0.00000000000E+00 0.  1.
          3    1    3    3  501    0  0.27219062968E+02  0.35627889859E+02  0.46140389156E+01  0.45072311676E+02  0.00000000000E+00 0.  1.
         21    1    1    2  502  501  0.71697557226E+01  0.13107023526E+02 -0.51732234481E+02  0.53846295576E+02  0.00000000000E+00 0. -1.
<mgrwt>
<rscale>  1 0.30000000E+03</rscale>
<asrwt>0</asrwt>
<pdfrwt beam="1">  1        1 0.97671792E-01 0.30000000E+03</pdfrwt>
<pdfrwt beam="2">0</pdfrwt>
<totfact> 0.35421980E+01</totfact>
</mgrwt>
</event>
<event>
 6    1  0.1950139E-004  0.3000000E+03  0.7818608E-02  0.1093470E+00
          1   -1    0    0  502    0  0.00000000000E+00  0.00000000000E+00  0.33331687007E+02  0.33331687007E+02  0.00000000000E+00 0.  1.
         13   -1    0    0    0    0 -0.00000000000E+00 -0.00000000000E+00 -0.10000000000E+04  0.10000000000E+04  0.00000000000E+00 0.  1.
    9000005    2    1    2  501    0  0.34767667897E+01 -0.10420737995E+02 -0.96827692336E+03  0.10222291056E+04  0.32752322700E+03 0.  0.
         13    1    3    3    0    0  0.78329217282E+02  0.12122698143E+03 -0.69469119483E+03  0.70952611191E+03  0.00000000000E+00 0.  1.
          3    1    3    3  501    0 -0.74852450492E+02 -0.13164771943E+03 -0.27358572853E+03  0.31270299364E+03  0.00000000000E+00 0.  1.
         21    1    1    2  502  501 -0.34767667897E+01  0.10420737995E+02  0.16086103714E+01  0.11102581457E+02  0.00000000000E+00 0.  1.
<mgrwt>
<rscale>  1 0.30000000E+03</rscale>
<asrwt>0</asrwt>
<pdfrwt beam="1">  1        1 0.12120639E+00 0.30000000E+03</pdfrwt>
<pdfrwt beam="2">0</pdfrwt>
<totfact> 0.25591965E+01</totfact>
</mgrwt>
</event>
<event>
 6    1  0.1950139E-004  0.3000000E+03  0.7818608E-02  0.1093470E+00
          1   -1    0    0  502    0  0.00000000000E+00  0.00000000000E+00  0.39264047631E+02  0.39264047631E+02  0.00000000000E+00 0.  1.
         13   -1    0    0    0    0 -0.00000000000E+00 -0.00000000000E+00 -0.10000000000E+04  0.10000000000E+04  0.00000000000E+00 0.  1.
    9000005    2    1    2  501    0  0.32693623283E+02 -0.44806611462E+02 -0.88875287872E+03  0.94839013319E+03  0.32632140577E+03 0.  0.
         13    1    3    3    0    0  0.11862872951E+03  0.66445663119E+02 -0.17865732418E+03  0.22451334281E+03  0.00000000000E+00 0.  1.
          3    1    3    3  501    0 -0.85935106231E+02 -0.11125227458E+03 -0.71009555454E+03  0.72387679038E+03  0.00000000000E+00 0.  1.
         21    1    1    2  502  501 -0.32693623283E+02  0.44806611462E+02 -0.71983073647E+02  0.90873914440E+02  0.00000000000E+00 0. -1.
<mgrwt>
<rscale>  1 0.30000000E+03</rscale>
<asrwt>0</asrwt>
<pdfrwt beam="1">  1        1 0.14277866E+00 0.30000000E+03</pdfrwt>
<pdfrwt beam="2">0</pdfrwt>
<totfact> 0.19567681E+01</totfact>
</mgrwt>
</event>
<event>
 6    1  0.1950139E-004  0.3000000E+03  0.7818608E-02  0.1093470E+00
          1   -1    0    0  502    0  0.00000000000E+00  0.00000000000E+00  0.47422330796E+02  0.47422330796E+02  0.00000000000E+00 0.  1.
         13   -1    0    0    0    0 -0.00000000000E+00 -0.00000000000E+00 -0.10000000000E+04  0.10000000000E+04  0.00000000000E+00 0.  1.
    9000005    2    1    2  501    0 -0.14664761457E+02  0.10200196678E+02 -0.96773911923E+03  0.10239922474E+04  0.33424844148E+03 0.  0.
         13    1    3    3    0    0  0.26671884206E+02  0.16467388699E+03 -0.60484325332E+03  0.62742668061E+03  0.00000000000E+00 0.  1.
          1    1    3    3  501    0 -0.41336645664E+02 -0.15447369031E+03 -0.36289586591E+03  0.39656556680E+03  0.00000000000E+00 0.  1.
         21    1    1    2  502  501  0.14664761457E+02 -0.10200196678E+02  0.15161450021E+02  0.23430083389E+02  0.00000000000E+00 0. -1.
<mgrwt>
<rscale>  1 0.30000000E+03</rscale>
<asrwt>0</asrwt>
<pdfrwt beam="1">  1        1 0.17244520E+00 0.30000000E+03</pdfrwt>
<pdfrwt beam="2">0</pdfrwt>
<totfact> 0.13900038E+01</totfact>
</mgrwt>
</event>
<event>
 6    1  0.1950139E-004  0.3000000E+03  0.7818608E-02  0.1093470E+00
          1   -1    0    0  502    0  0.00000000000E+00  0.00000000000E+00  0.31330837642E+02  0.31330837642E+02  0.00000000000E+00 0.  1.
         13   -1    0    0    0    0 -0.00000000000E+00 -0.00000000000E+00 -0.10000000000E+04  0.10000000000E+04  0.00000000000E+00 0.  1.
    9000005    2    1    2  501    0 -0.70567830352E+01  0.87335682175E+01 -0.96284518967E+03  0.10186820409E+04  0.33243972058E+03 0.  0.
         13    1    3    3    0    0  0.10031744508E+03  0.11412213096E+03 -0.69554899663E+03  0.71195214535E+03  0.00000000000E+00 0.  1.
          1    1    3    3  501    0 -0.10737422811E+03 -0.10538856274E+03 -0.26729619304E+03  0.30672989557E+03  0.00000000000E+00 0.  1.
         21    1    1    2  502  501  0.70567830352E+01 -0.87335682175E+01 -0.58239726856E+01  0.12648796720E+02  0.00000000000E+00 0.  1.
<mgrwt>
<rscale>  1 0.30000000E+03</rscale>
<asrwt>0</asrwt>
<pdfrwt beam="1">  1        1 0.11393056E+00 0.30000000E+03</pdfrwt>
<pdfrwt beam="2">0</pdfrwt>
<totfact> 0.28166316E+01</totfact>
</mgrwt>
</event>
<event>
 6    1  0.1950139E-004  0.3000000E+03  0.7818608E-02  0.1093470E+00
          1   -1    0    0  502    0  0.00000000000E+00  0.00000000000E+00  0.28249453985E+02  0.28249453985E+02  0.00000000000E+00 0.  1.
         13   -1    0    0    0    0 -0.00000000000E+00 -0.00000000000E+00 -0.10000000000E+04  0.10000000000E+04  0.00000000000E+00 0.  1.
    9000005    2    1    2  501    0 -0.10224133945E+02 -0.68400217615E+00 -0.96107360672E+03  0.10134508795E+04  0.32142682971E+03 0.  0.
         13    1    3    3    0    0 -0.15072812137E+02 -0.14728944831E+03 -0.68509812566E+03  0.70091426939E+03  0.00000000000E+00 0.  1.
          1    1    3    3  501    0  0.48486781921E+01  0.14660544613E+03 -0.27597548106E+03  0.31253661011E+03  0.00000000000E+00 0.  1.
         21    1    1    2  502  501  0.10224133945E+02  0.68400217615E+00 -0.10676939292E+02  0.14798574477E+02  0.00000000000E+00 0. -1.
<mgrwt>
<rscale>  1 0.30000000E+03</rscale>
<asrwt>0</asrwt>
<pdfrwt beam="1">  1        1 0.10272550E+00 0.30000000E+03</pdfrwt>
<pdfrwt beam="2">0</pdfrwt>
<totfact> 0.32901929E+01</totfact>
</mgrwt>
</event>
<event>
 6    1  0.1950139E-004  0.3000000E+03  0.7818608E-02  0.1093470E+00
          1   -1    0    0  502    0  0.00000000000E+00  0.00000000000E+00  0.31344821718E+02  0.31344821718E+02  0.00000000000E+00 0.  1.
         13   -1    0    0    0    0 -0.00000000000E+00 -0.00000000000E+00 -0.10000000000E+04  0.10000000000E+04  0.00000000000E+00 0.  1.
    9000005    2    1    2  501    0  0.31378564591E+02  0.46163090887E+01 -0.86728235955E+03  0.92512630637E+03  0.32042794342E+03 0.  0.
         13    1    3    3    0    0  0.92987010105E+02 -0.12156260492E+03 -0.25893981411E+03  0.30078876025E+03  0.00000000000E+00 0.  1.
          3    1    3    3  501    0 -0.61608445514E+02  0.12617891401E+03 -0.60834254544E+03  0.62433754612E+03  0.00000000000E+00 0.  1.
         21    1    1    2  502  501 -0.31378564591E+02 -0.46163090887E+01 -0.10137281873E+03  0.10621851535E+03  0.00000000000E+00 0.  1.
<mgrwt>
<rscale>  1 0.30000000E+03</rscale>
<asrwt>0</asrwt>
<pdfrwt beam="1">  1        1 0.11398141E+00 0.30000000E+03</pdfrwt>
<pdfrwt beam="2">0</pdfrwt>
<totfact> 0.28147104E+01</totfact>
</mgrwt>
</event>
<event>
 6    1  0.1950139E-004  0.3000000E+03  0.7818608E-02  0.1093470E+00
          1   -1    0    0  502    0  0.00000000000E+00  0.00000000000E+00  0.30264049937E+02  0.30264049937E+02  0.00000000000E+00 0.  1.
         13   -1    0    0    0    0 -0.00000000000E+00 -0.00000000000E+00 -0.10000000000E+04  0.10000000000E+04  0.00000000000E+00 0.  1.
    9000005    2    1    2  501    0  0.20588864149E+02  0.13346386448E+02 -0.94704872153E+03  0.99684642440E+03  0.31016041902E+03 0.  0.
         13    1    3    3    0    0 -0.60919022879E+02  0.11033646786E+03 -0.18200995829E+03  0.22138854624E+03  0.00000000000E+00 0.  1.
          1    1    3    3  501    0  0.81507887028E+02 -0.96990081413E+02 -0.76503876324E+03  0.77545787816E+03  0.00000000000E+00 0.  1.
         21    1    1    2  502  501 -0.20588864149E+02 -0.13346386448E+02 -0.22687228530E+02  0.33417625537E+02  0.00000000000E+00 0.  1.
<mgrwt>
<rscale>  1 0.30000000E+03</rscale>
<asrwt>0</asrwt>
<pdfrwt beam="1">  1        1 0.11005132E+00 0.30000000E+03</pdfrwt>
<pdfrwt beam="2">0</pdfrwt>
<totfact> 0.29688726E+01</totfact>
</mgrwt>
</event>
<event>
 6    1  0.1950139E-004  0.3000000E+03  0.7818608E-02  0.1093470E+00
          1   -1    0    0  502    0  0.00000000000E+00  0.00000000000E+00  0.32943519319E+02  0.32943519319E+02  0.00000000000E+00 0.  1.
         13   -1    0    0    0    0 -0.00000000000E+00 -0.00000000000E+00 -0.10000000000E+04  0.10000000000E+04  0.00000000000E+00 0.  1.
    9000005    2    1    2  501    0  0.91113748031E+01  0.59985791635E+01 -0.96784559308E+03  0.10220062984E+04  0.32810483364E+03 0.  0.
         13    1    3    3    0    0 -0.11210106546E+03 -0.11126153014E+03 -0.41638790175E+03  0.44533657124E+03  0.00000000000E+00 0.  1.
          3    1    3    3  501    0  0.12121244026E+03  0.11726010930E+03 -0.55145769133E+03  0.57666972717E+03  0.00000000000E+00 0.  1.
         21    1    1    2  502  501 -0.91113748031E+01 -0.59985791635E+01  0.78911239507E+00  0.10937220906E+02  0.00000000000E+00 0. -1.
<mgrwt>
<rscale>  1 0.30000000E+03</rscale>
<asrwt>0</asrwt>
<pdfrwt beam="1">  1        1 0.11979487E+00 0.30000000E+03</pdfrwt>
<pdfrwt beam="2">0</pdfrwt>
<totfact> 0.26065572E+01</totfact>
</mgrwt>
</event>
<event>
 6    1  0.1950139E-004  0.3000000E+03  0.7818608E-02  0.1093470E+00
          1   -1    0    0  502    0  0.00000000000E+00  0.00000000000E+00  0.83587780668E+02  0.83587780668E+02  0.00000000000E+00 0.  1.
         13   -1    0    0    0    0 -0.00000000000E+00 -0.00000000000E+00 -0.10000000000E+04  0.10000000000E+04  0.00000000000E+00 0.  1.
    9000005    2    1    2  501    0  0.39540603503E+01  0.68302113671E+02 -0.94937444486E+03  0.10076448966E+04  0.33068956412E+03 0.  0.
         13    1    3    3    0    0 -0.10822592033E+03  0.14878774914E+03 -0.38609551644E+03  0.42769193579E+03  0.00000000000E+00 0.  1.
          3    1    3    3  501    0  0.11217998068E+03 -0.80485635469E+02 -0.56327892841E+03  0.57995296083E+03  0.00000000000E+00 0.  1.
         21    1    1    2  502  501 -0.39540603503E+01 -0.68302113671E+02  0.32962225526E+02  0.75942884044E+02  0.00000000000E+00 0.  1.
<mgrwt>
<rscale>  1 0.30000000E+03</rscale>
<asrwt>0</asrwt>
<pdfrwt beam="1">  1        1 0.30395621E+00 0.30000000E+03</pdfrwt>
<pdfrwt beam="2">0</pdfrwt>
<totfact> 0.33271594E+00</totfact>
</mgrwt>
</event>
<event>
 6    1  0.1950139E-004  0.3000000E+03  0.7818608E-02  0.1093470E+00
          1   -1    0    0  502    0  0.00000000000E+00  0.00000000000E+00  0.69040671450E+02  0.69040671450E+02  0.00000000000E+00 0.  1.
         13   -1    0    0    0    0 -0.00000000000E+00 -0.00000000000E+00 -0.10000000000E+04  0.10000000000E+04  0.00000000000E+00 0.  1.
    9000005    2    1    2  501    0  0.19738572619E+02 -0.15446171736E+02 -0.94817565735E+03  0.10386334774E+04  0.42319525964E+03 0.  0.
         13    1    3    3    0    0 -0.61277313932E+02 -0.22467078057E+02 -0.95481530153E+03  0.95704333174E+03  0.00000000000E+00 0.  1.
          3    1    3    3  501    0  0.81015886550E+02  0.70209063209E+01  0.66396441770E+01  0.81590145691E+02  0.00000000000E+00 0.  1.
         21    1    1    2  502  501 -0.19738572619E+02  0.15446171736E+02  0.17216328804E+02  0.30407194014E+02  0.00000000000E+00 0.  1.
<mgrwt>
<rscale>  1 0.30000000E+03</rscale>
<asrwt>0</asrwt>
<pdfrwt beam="1">  1        1 0.25105752E+00 0.30000000E+03</pdfrwt>
<pdfrwt beam="2">0</pdfrwt>
<totfact> 0.58988195E+00</totfact>
</mgrwt>
</event>
<event>
 6    1  0.1950139E-004  0.3000000E+03  0.7818608E-02  0.1093470E+00
          1   -1    0    0  502    0  0.00000000000E+00  0.00000000000E+00  0.41044732639E+02  0.41044732639E+02  0.00000000000E+00 0.  1.
         13   -1    0    0    0    0 -0.00000000000E+00 -0.00000000000E+00 -0.10000000000E+04  0.10000000000E+04  0.00000000000E+00 0.  1.
    9000005    2    1    2  501    0  0.20832427234E+02 -0.40018407548E+02 -0.93220330772E+03  0.98859351424E+03  0.32600408970E+03 0.  0.
         13    1    3    3    0    0 -0.13695937429E+03  0.24161528621E+02 -0.59211870074E+03  0.60823203257E+03  0.00000000000E+00 0.  1.
          1    1    3    3  501    0  0.15779180153E+03 -0.64179936168E+02 -0.34008460698E+03  0.38036148167E+03  0.00000000000E+00 0.  1.
         21    1    1    2  502  501 -0.20832427234E+02  0.40018407548E+02 -0.26751959641E+02  0.52451218401E+02  0.00000000000E+00 0.  1.
<mgrwt>
<rscale>  1 0.30000000E+03</rscale>
<asrwt>0</asrwt>
<pdfrwt beam="1">  1        1 0.14925389E+00 0.30000000E+03</pdfrwt>
<pdfrwt beam="2">0</pdfrwt>
<totfact> 0.18122744E+01</totfact>
</mgrwt>
</event>
<event>
 6    1  0.1950139E-004  0.3000000E+03  0.7818608E-02  0.1093470E+00
          1   -1    0    0  502    0  0.00000000000E+00  0.00000000000E+00  0.30107103135E+02  0.30107103135E+02  0.00000000000E+00 0.  1.
         13   -1    0    0    0    0 -0.00000000000E+00 -0.00000000000E+00 -0.10000000000E+04  0.10000000000E+04  0.00000000000E+00 0.  1.
    9000005    2    1    2  501    0  0.94263697903E+01 -0.75989960046E+01 -0.95998138868E+03  0.10144597653E+04  0.32774646841E+03 0.  0.
         13    1    3    3    0    0 -0.15597247628E+03 -0.16665362297E+02 -0.55950272969E+03  0.58107525518E+03  0.00000000000E+00 0.  1.
          1    1    3    3  501    0  0.16539884607E+03  0.90663662921E+01 -0.40047865899E+03  0.43338451009E+03  0.00000000000E+00 0.  1.
         21    1    1    2  502  501 -0.94263697903E+01  0.75989960046E+01 -0.99115081842E+01  0.15647337863E+02  0.00000000000E+00 0.  1.
<mgrwt>
<rscale>  1 0.30000000E+03</rscale>
<asrwt>0</asrwt>
<pdfrwt beam="1">  1        1 0.10948061E+00 0.30000000E+03</pdfrwt>
<pdfrwt beam="2">0</pdfrwt>
<totfact> 0.29922498E+01</totfact>
</mgrwt>
</event>
<event>
 6    1  0.1950139E-004  0.3000000E+03  0.7818608E-02  0.1093470E+00
          1   -1    0    0  502    0  0.00000000000E+00  0.00000000000E+00  0.29696654476E+02  0.29696654476E+02  0.00000000000E+00 0.  1.
         13   -1    0    0    0    0 -0.00000000000E+00 -0.00000000000E+00 -0.10000000000E+04  0.10000000000E+04  0.00000000000E+00 0.  1.
    9000005    2    1    2  501    0  0.35179656042E+01  0.96423037363E+01 -0.96266083724E+03  0.10168998566E+04  0.32751195501E+03 0.  0.
         13    1    3    3    0    0  0.10088040906E+03  0.11659938770E+03 -0.28557864973E+03  0.32454189148E+03  0.00000000000E+00 0.  1.
          1    1    3    3  501    0 -0.97362443455E+02 -0.10695708397E+03 -0.67708218750E+03  0.69235796510E+03  0.00000000000E+00 0.  1.
         21    1    1    2  502  501 -0.35179656042E+01 -0.96423037363E+01 -0.76425082884E+01  0.12796797891E+02  0.00000000000E+00 0. -1.
<mgrwt>
<rscale>  1 0.30000000E+03</rscale>
<asrwt>0</asrwt>
<pdfrwt beam="1">  1        1 0.10798806E+00 0.30000000E+03</pdfrwt>
<pdfrwt beam="2">0</pdfrwt>
<totfact> 0.30546395E+01</totfact>
</mgrwt>
</event>
<event>
 6    1  0.1950139E-004  0.3000000E+03  0.7818608E-02  0.1093470E+00
          1   -1    0    0  502    0  0.00000000000E+00  0.00000000000E+00  0.48106532854E+02  0.48106532854E+02  0.00000000000E+00 0.  1.
         13   -1    0    0    0    0 -0.00000000000E+00 -0.00000000000E+00 -0.10000000000E+04  0.10000000000E+04  0.00000000000E+00 0.  1.
    9000005    2    1    2  501    0  0.11578374950E+02 -0.33043652968E+01 -0.97126931666E+03  0.10252942304E+04  0.32820602660E+03 0.  0.
         13    1    3    3    0    0 -0.89406214752E+02 -0.13400579068E+03 -0.42088973933E+03  0.45066528139E+03  0.00000000000E+00 0.  1.
          3    1    3    3  501    0  0.10098458970E+03  0.13070142538E+03 -0.55037957733E+03  0.57462894906E+03  0.00000000000E+00 0.  1.
         21    1    1    2  502  501 -0.11578374950E+02  0.33043652968E+01  0.19375849519E+02  0.22812302406E+02  0.00000000000E+00 0. -1.
<mgrwt>
<rscale>  1 0.30000000E+03</rscale>
<asrwt>0</asrwt>
<pdfrwt beam="1">  1        1 0.17493322E+00 0.30000000E+03</pdfrwt>
<pdfrwt beam="2">0</pdfrwt>
<totfact> 0.13517947E+01</totfact>
</mgrwt>
</event>
<event>
 6    1  0.1950139E-004  0.3000000E+03  0.7818608E-02  0.1093470E+00
          1   -1    0    0  502    0  0.00000000000E+00  0.00000000000E+00  0.83414491113E+02  0.83414491113E+02  0.00000000000E+00 0.  1.
         13   -1    0    0    0    0 -0.00000000000E+00 -0.00000000000E+00 -0.10000000000E+04  0.10000000000E+04  0.00000000000E+00 0.  1.
    9000005    2    1    2  501    0 -0.11010506463E+02 -0.13203993034E+02 -0.97364104507E+03  0.10238249711E+04  0.31614096561E+03 0.  0.
         13    1    3    3    0    0  0.69503667294E+02  0.35369380448E+02 -0.90262982930E+03  0.90599247325E+03  0.00000000000E+00 0.  1.
          1    1    3    3  501    0 -0.80514173757E+02 -0.48573373482E+02 -0.71011215771E+02  0.11783249786E+03  0.00000000000E+00 0.  1.
         21    1    1    2  502  501  0.11010506463E+02  0.13203993034E+02  0.57055536185E+02  0.59589520001E+02  0.00000000000E+00 0.  1.
<mgrwt>
<rscale>  1 0.30000000E+03</rscale>
<asrwt>0</asrwt>
<pdfrwt beam="1">  1        1 0.30332606E+00 0.30000000E+03</pdfrwt>
<pdfrwt beam="2">0</pdfrwt>
<totfact> 0.33502286E+00</totfact>
</mgrwt>
</event>
<event>
 6    1  0.1950139E-004  0.3000000E+03  0.7818608E-02  0.1093470E+00
          1   -1    0    0  502    0  0.00000000000E+00  0.00000000000E+00  0.37987484735E+02  0.37987484735E+02  0.00000000000E+00 0.  1.
         13   -1    0    0    0    0 -0.00000000000E+00 -0.00000000000E+00 -0.10000000000E+04  0.10000000000E+04  0.00000000000E+00 0.  1.
    9000005    2    1    2  501    0  0.55630050050E+02  0.12162577445E+02 -0.75065636439E+03  0.81909469529E+03  0.32278245258E+03 0.  0.
         13    1    3    3    0    0  0.35652833296E+02 -0.11697951328E+03 -0.10758427674E+03  0.16287942673E+03  0.00000000000E+00 0.  1.
          1    1    3    3  501    0  0.19977216754E+02  0.12914209072E+03 -0.64307208765E+03  0.65621526856E+03  0.00000000000E+00 0.  1.
         21    1    1    2  502  501 -0.55630050050E+02 -0.12162577445E+02 -0.21135615087E+03  0.21889278944E+03  0.00000000000E+00 0.  1.
<mgrwt>
<rscale>  1 0.30000000E+03</rscale>
<asrwt>0</asrwt>
<pdfrwt beam="1">  1        1 0.13813660E+00 0.30000000E+03</pdfrwt>
<pdfrwt beam="2">0</pdfrwt>
<totfact> 0.20694041E+01</totfact>
</mgrwt>
</event>
<event>
 6    1  0.1950139E-004  0.3000000E+03  0.7818608E-02  0.1093470E+00
          1   -1    0    0  502    0  0.00000000000E+00  0.00000000000E+00  0.39638898583E+02  0.39638898583E+02  0.00000000000E+00 0.  1.
         13   -1    0    0    0    0 -0.00000000000E+00 -0.00000000000E+00 -0.10000000000E+04  0.10000000000E+04  0.00000000000E+00 0.  1.
    9000005    2    1    2  501    0  0.17264165819E+02 -0.24841217349E+02 -0.95535272558E+03  0.10089758699E+04  0.32313826486E+03 0.  0.
         13    1    3    3    0    0 -0.15232626387E+03 -0.42163110200E+01 -0.40513142889E+03  0.43284239928E+03  0.00000000000E+00 0.  1.
          1    1    3    3  501    0  0.16959042969E+03 -0.20624906329E+02 -0.55022129670E+03  0.57613347060E+03  0.00000000000E+00 0.  1.
         21    1    1    2  502  501 -0.17264165819E+02  0.24841217349E+02 -0.50083758319E+01  0.30663028703E+02  0.00000000000E+00 0. -1.
<mgrwt>
<rscale>  1 0.30000000E+03</rscale>
<asrwt>0</asrwt>
<pdfrwt beam="1">  1        1 0.14414175E+00 0.30000000E+03</pdfrwt>
<pdfrwt beam="2">0</pdfrwt>
<totfact> 0.19251790E+01</totfact>
</mgrwt>
</event>
<event>
 6    1  0.1950139E-004  0.3000000E+03  0.7818608E-02  0.1093470E+00
          3   -1    0    0  502    0  0.00000000000E+00  0.00000000000E+00  0.89880808659E+01  0.89880808659E+01  0.00000000000E+00 0.  1.
         13   -1    0    0    0    0 -0.00000000000E+00 -0.00000000000E+00 -0.10000000000E+04  0.10000000000E+04  0.00000000000E+00 0.  1.
    9000005    2    1    2  501    0  0.76644767043E+01 -0.55978195321E+01 -0.96463109675E+03  0.98095189752E+03  0.17794210478E+03 0.  0.
         13    1    3    3    0    0 -0.47734917637E+02 -0.60956279533E+02 -0.24185672347E+03  0.25394677604E+03  0.00000000000E+00 0.  1.
          3    1    3    3  501    0  0.55399394341E+02  0.55358460001E+02 -0.72277437328E+03  0.72700512148E+03  0.00000000000E+00 0.  1.
         21    1    1    2  502  501 -0.76644767043E+01  0.55978195321E+01 -0.26380822387E+02  0.28036183344E+02  0.00000000000E+00 0.  1.
<mgrwt>
<rscale>  1 0.30000000E+03</rscale>
<asrwt>0</asrwt>
<pdfrwt beam="1">  1        3 0.32683999E-01 0.30000000E+03</pdfrwt>
<pdfrwt beam="2">0</pdfrwt>
<totfact> 0.39709883E+01</totfact>
</mgrwt>
</event>
<event>
 6    1  0.1950139E-004  0.3000000E+03  0.7818608E-02  0.1093470E+00
          1   -1    0    0  502    0  0.00000000000E+00  0.00000000000E+00  0.32510984205E+02  0.32510984205E+02  0.00000000000E+00 0.  1.
         13   -1    0    0    0    0 -0.00000000000E+00 -0.00000000000E+00 -0.10000000000E+04  0.10000000000E+04  0.00000000000E+00 0.  1.
    9000005    2    1    2  501    0  0.10991312074E+02 -0.47644893955E+01 -0.96739998229E+03  0.10205311166E+04  0.32477303608E+03 0.  0.
         13    1    3    3    0    0  0.91821835299E+02  0.70013691614E+02 -0.85650125036E+03  0.86424970832E+03  0.00000000000E+00 0.  1.
          3    1    3    3  501    0 -0.80830523226E+02 -0.74778181010E+02 -0.11089873193E+03  0.15628140831E+03  0.00000000000E+00 0.  1.
         21    1    1    2  502  501 -0.10991312074E+02  0.47644893955E+01 -0.89033507183E-01  0.11979867581E+02  0.00000000000E+00 0.  1.
<mgrwt>
<rscale>  1 0.30000000E+03</rscale>
<asrwt>0</asrwt>
<pdfrwt beam="1">  1        1 0.11822201E+00 0.30000000E+03</pdfrwt>
<pdfrwt beam="2">0</pdfrwt>
<totfact> 0.26607288E+01</totfact>
</mgrwt>
</event>
<event>
 6    1  0.1950139E-004  0.3000000E+03  0.7818608E-02  0.1093470E+00
          1   -1    0    0  502    0  0.00000000000E+00  0.00000000000E+00  0.28286462444E+02  0.28286462444E+02  0.00000000000E+00 0.  1.
         13   -1    0    0    0    0 -0.00000000000E+00 -0.00000000000E+00 -0.10000000000E+04  0.10000000000E+04  0.00000000000E+00 0.  1.
    9000005    2    1    2  501    0  0.97859135370E+01  0.19437336924E+01 -0.97139986644E+03  0.10183044489E+04  0.30533048974E+03 0.  0.
         13    1    3    3    0    0 -0.11849437345E+03  0.87870716679E+02 -0.39725962901E+03  0.42376572800E+03  0.00000000000E+00 0.  1.
          1    1    3    3  501    0  0.12828028699E+03 -0.85926982986E+02 -0.57414023743E+03  0.59453872092E+03  0.00000000000E+00 0.  1.
         21    1    1    2  502  501 -0.97859135370E+01 -0.19437336924E+01 -0.31367111588E+00  0.99820135238E+01  0.00000000000E+00 0.  1.
<mgrwt>
<rscale>  1 0.30000000E+03</rscale>
<asrwt>0</asrwt>
<pdfrwt beam="1">  1        1 0.10286008E+00 0.30000000E+03</pdfrwt>
<pdfrwt beam="2">0</pdfrwt>
<totfact> 0.32838460E+01</totfact>
</mgrwt>
</event>
<event>
 6    1  0.1950139E-004  0.3000000E+03  0.7818608E-02  0.1093470E+00
          1   -1    0    0  502    0  0.00000000000E+00  0.00000000000E+00  0.32518446441E+02  0.32518446441E+02  0.00000000000E+00 0.  1.
         13   -1    0    0    0    0 -0.00000000000E+00 -0.00000000000E+00 -0.10000000000E+04  0.10000000000E+04  0.00000000000E+00 0.  1.
    9000005    2    1    2  501    0  0.19644887440E+02  0.10691665863E+00 -0.95507533531E+03  0.10092838325E+04  0.32572845347E+03 0.  0.
         13    1    3    3    0    0 -0.15249787139E+02  0.13817418602E+03 -0.21781090823E+03  0.25839166672E+03  0.00000000000E+00 0.  1.
          3    1    3    3  501    0  0.34894674579E+02 -0.13806726936E+03 -0.73726442708E+03  0.75089216578E+03  0.00000000000E+00 0.  1.
         21    1    1    2  502  501 -0.19644887440E+02 -0.10691665863E+00 -0.12406218252E+02  0.23234613942E+02  0.00000000000E+00 0.  1.
<mgrwt>
<rscale>  1 0.30000000E+03</rscale>
<asrwt>0</asrwt>
<pdfrwt beam="1">  1        1 0.11824915E+00 0.30000000E+03</pdfrwt>
<pdfrwt beam="2">0</pdfrwt>
<totfact> 0.26597814E+01</totfact>
</mgrwt>
</event>
<event>
 6    1  0.1950139E-004  0.3000000E+03  0.7818608E-02  0.1093470E+00
          1   -1    0    0  502    0  0.00000000000E+00  0.00000000000E+00  0.27977483680E+02  0.27977483680E+02  0.00000000000E+00 0.  1.
         13   -1    0    0    0    0 -0.00000000000E+00 -0.00000000000E+00 -0.10000000000E+04  0.10000000000E+04  0.00000000000E+00 0.  1.
    9000005    2    1    2  501    0 -0.14861243658E+02  0.27500096715E+02 -0.92784628381E+03  0.97386046786E+03  0.29415705431E+03 0.  0.
         13    1    3    3    0    0  0.71950245953E+02 -0.76850034970E+02 -0.14416984113E+03  0.17851529026E+03  0.00000000000E+00 0.  1.
          1    1    3    3  501    0 -0.86811489610E+02  0.10435013169E+03 -0.78367644268E+03  0.79534517759E+03  0.00000000000E+00 0.  1.
         21    1    1    2  502  501  0.14861243658E+02 -0.27500096715E+02 -0.44176232512E+02  0.54117015821E+02  0.00000000000E+00 0.  1.
<mgrwt>
<rscale>  1 0.30000000E+03</rscale>
<asrwt>0</asrwt>
<pdfrwt beam="1">  1        1 0.10173652E+00 0.30000000E+03</pdfrwt>
<pdfrwt beam="2">0</pdfrwt>
<totfact> 0.33373895E+01</totfact>
</mgrwt>
</event>
<event>
 6    1  0.1950139E-004  0.3000000E+03  0.7818608E-02  0.1093470E+00
          1   -1    0    0  502    0  0.00000000000E+00  0.00000000000E+00  0.30224828177E+02  0.30224828177E+02  0.00000000000E+00 0.  1.
         13   -1    0    0    0    0 -0.00000000000E+00 -0.00000000000E+00 -0.10000000000E+04  0.10000000000E+04  0.00000000000E+00 0.  1.
    9000005    2    1    2  501    0  0.11704653497E+02  0.94725217401E+01 -0.93509344174E+03  0.99241543803E+03  0.33205711749E+03 0.  0.
         13    1    3    3    0    0 -0.17000369009E+01  0.15695731741E+03 -0.28200124817E+03  0.32274323166E+03  0.00000000000E+00 0.  1.
          1    1    3    3  501    0  0.13404690398E+02 -0.14748479567E+03 -0.65309219357E+03  0.66967220637E+03  0.00000000000E+00 0.  1.
         21    1    1    2  502  501 -0.11704653497E+02 -0.94725217401E+01 -0.34681730082E+02  0.37809390144E+02  0.00000000000E+00 0.  1.
<mgrwt>
<rscale>  1 0.30000000E+03</rscale>
<asrwt>0</asrwt>
<pdfrwt beam="1">  1        1 0.10990870E+00 0.30000000E+03</pdfrwt>
<pdfrwt beam="2">0</pdfrwt>
<totfact> 0.29746903E+01</totfact>
</mgrwt>
</event>
<event>
 6    1  0.1950139E-004  0.3000000E+03  0.7818608E-02  0.1093470E+00
          1   -1    0    0  502    0  0.00000000000E+00  0.00000000000E+00  0.32516760699E+02  0.32516760699E+02  0.00000000000E+00 0.  1.
         13   -1    0    0    0    0 -0.00000000000E+00 -0.00000000000E+00 -0.10000000000E+04  0.10000000000E+04  0.00000000000E+00 0.  1.
    9000005    2    1    2  501    0  0.22692713214E+02 -0.25199981182E+01 -0.95484084179E+03  0.10064181048E+04  0.31723029323E+03 0.  0.
         13    1    3    3    0    0  0.31304722756E+02 -0.25093740577E+02 -0.97446573521E+03  0.97529131575E+03  0.00000000000E+00 0.  1.
          1    1    3    3  501    0 -0.86120095421E+01  0.22573742459E+02  0.19624893412E+02  0.31126789080E+02  0.00000000000E+00 0.  1.
         21    1    1    2  502  501 -0.22692713214E+02  0.25199981182E+01 -0.12642397508E+02  0.26098655871E+02  0.00000000000E+00 0.  1.
<mgrwt>
<rscale>  1 0.30000000E+03</rscale>
<asrwt>0</asrwt>
<pdfrwt beam="1">  1        1 0.11824302E+00 0.30000000E+03</pdfrwt>
<pdfrwt beam="2">0</pdfrwt>
<totfact> 0.26599954E+01</totfact>
</mgrwt>
</event>
<event>
 6    1  0.1950139E-004  0.3000000E+03  0.7818608E-02  0.1093470E+00
          1   -1    0    0  502    0  0.00000000000E+00  0.00000000000E+00  0.30212860005E+02  0.30212860005E+02  0.00000000000E+00 0.  1.
         13   -1    0    0    0    0 -0.00000000000E+00 -0.00000000000E+00 -0.10000000000E+04  0.10000000000E+04  0.00000000000E+00 0.  1.
    9000005    2    1    2  501    0  0.10384592498E+02 -0.41724598600E+01 -0.96155773625E+03  0.10163214141E+04  0.32892352832E+03 0.  0.
         13    1    3    3    0    0 -0.70706552709E+02 -0.10504993552E+03 -0.15836355396E+03  0.20276567947E+03  0.00000000000E+00 0.  1.
          1    1    3    3  501    0  0.81091145207E+02  0.10087747566E+03 -0.80319418229E+03  0.81355573466E+03  0.00000000000E+00 0.  1.
         21    1    1    2  502  501 -0.10384592498E+02  0.41724598600E+01 -0.82294037428E+01  0.13891445879E+02  0.00000000000E+00 0.  1.
<mgrwt>
<rscale>  1 0.30000000E+03</rscale>
<asrwt>0</asrwt>
<pdfrwt beam="1">  1        1 0.10986518E+00 0.30000000E+03</pdfrwt>
<pdfrwt beam="2">0</pdfrwt>
<totfact> 0.29764687E+01</totfact>
</mgrwt>
</event>
<event>
 6    1  0.1950139E-004  0.3000000E+03  0.7818608E-02  0.1093470E+00
          1   -1    0    0  502    0  0.00000000000E+00  0.00000000000E+00  0.52114787778E+02  0.52114787778E+02  0.00000000000E+00 0.  1.
         13   -1    0    0    0    0 -0.00000000000E+00 -0.00000000000E+00 -0.10000000000E+04  0.10000000000E+04  0.00000000000E+00 0.  1.
    9000005    2    1    2  501    0  0.18668925579E+01 -0.24915684654E+02 -0.96160580926E+03  0.10236098511E+04  0.34995302303E+03 0.  0.
         13    1    3    3    0    0  0.21680213609E+02 -0.89526007316E+02 -0.41508628095E+02  0.10103417172E+03  0.00000000000E+00 0.  1.
          1    1    3    3  501    0 -0.19813321051E+02  0.64610322662E+02 -0.92009718116E+03  0.92257567943E+03  0.00000000000E+00 0.  1.
         21    1    1    2  502  501 -0.18668925579E+01  0.24915684654E+02  0.13720597035E+02  0.28504936636E+02  0.00000000000E+00 0. -1.
<mgrwt>
<rscale>  1 0.30000000E+03</rscale>
<asrwt>0</asrwt>
<pdfrwt beam="1">  1        1 0.18950872E+00 0.30000000E+03</pdfrwt>
<pdfrwt beam="2">0</pdfrwt>
<totfact> 0.11496244E+01</totfact>
</mgrwt>
</event>
<event>
 6    1  0.1950139E-004  0.3000000E+03  0.7818608E-02  0.1093470E+00
          1   -1    0    0  502    0  0.00000000000E+00  0.00000000000E+00  0.34194819956E+02  0.34194819956E+02  0.00000000000E+00 0.  1.
         13   -1    0    0    0    0 -0.00000000000E+00 -0.00000000000E+00 -0.10000000000E+04  0.10000000000E+04  0.00000000000E+00 0.  1.
    9000005    2    1    2  501    0 -0.16471282372E+02  0.39509466223E+02 -0.89357713733E+03  0.95023535820E+03  0.32036671886E+03 0.  0.
         13    1    3    3    0    0 -0.10109005257E+03 -0.10965194605E+03 -0.47592756911E+03  0.49874823212E+03  0.00000000000E+00 0.  1.
          1    1    3    3  501    0  0.84618770203E+02  0.14916141228E+03 -0.41764956822E+03  0.45148712608E+03  0.00000000000E+00 0.  1.
         21    1    1    2  502  501  0.16471282372E+02 -0.39509466223E+02 -0.72228042718E+02  0.83959461761E+02  0.00000000000E+00 0. -1.
<mgrwt>
<rscale>  1 0.30000000E+03</rscale>
<asrwt>0</asrwt>
<pdfrwt beam="1">  1        1 0.12434506E+00 0.30000000E+03</pdfrwt>
<pdfrwt beam="2">0</pdfrwt>
<totfact> 0.24578787E+01</totfact>
</mgrwt>
</event>
<event>
 6    1  0.1950139E-004  0.3000000E+03  0.7818608E-02  0.1093470E+00
          1   -1    0    0  502    0  0.00000000000E+00  0.00000000000E+00  0.39638814924E+02  0.39638814924E+02  0.00000000000E+00 0.  1.
         13   -1    0    0    0    0 -0.00000000000E+00 -0.00000000000E+00 -0.10000000000E+04  0.10000000000E+04  0.00000000000E+00 0.  1.
    9000005    2    1    2  501    0 -0.12984857649E+02 -0.18428102364E+02 -0.96724062694E+03  0.10160691691E+04  0.31037706821E+03 0.  0.
         13    1    3    3    0    0  0.14452083976E+02  0.12842420699E+02 -0.97376750271E+03  0.97395941385E+03  0.00000000000E+00 0.  1.
          1    1    3    3  501    0 -0.27436941625E+02 -0.31270523062E+02  0.65268757671E+01  0.42109755230E+02  0.00000000000E+00 0.  1.
         21    1    1    2  502  501  0.12984857649E+02  0.18428102364E+02  0.68794418631E+01  0.23569645844E+02  0.00000000000E+00 0.  1.
<mgrwt>
<rscale>  1 0.30000000E+03</rscale>
<asrwt>0</asrwt>
<pdfrwt beam="1">  1        1 0.14414145E+00 0.30000000E+03</pdfrwt>
<pdfrwt beam="2">0</pdfrwt>
<totfact> 0.19251860E+01</totfact>
</mgrwt>
</event>
<event>
 6    1  0.1950139E-004  0.3000000E+03  0.7818608E-02  0.1093470E+00
          1   -1    0    0  502    0  0.00000000000E+00  0.00000000000E+00  0.29073116554E+02  0.29073116554E+02  0.00000000000E+00 0.  1.
         13   -1    0    0    0    0 -0.00000000000E+00 -0.00000000000E+00 -0.10000000000E+04  0.10000000000E+04  0.00000000000E+00 0.  1.
    9000005    2    1    2  501    0  0.12180282065E+02  0.67363335402E+01 -0.95913053672E+03  0.10108278088E+04  0.31882241924E+03 0.  0.
         13    1    3    3    0    0  0.98444157379E+02 -0.96950224603E+02 -0.22219682802E+03  0.26165249579E+03  0.00000000000E+00 0.  1.
          3    1    3    3  501    0 -0.86263875315E+02  0.10368655814E+03 -0.73693370871E+03  0.74917531296E+03  0.00000000000E+00 0.  1.
         21    1    1    2  502  501 -0.12180282065E+02 -0.67363335402E+01 -0.11796346722E+02  0.18245307800E+02  0.00000000000E+00 0.  1.
<mgrwt>
<rscale>  1 0.30000000E+03</rscale>
<asrwt>0</asrwt>
<pdfrwt beam="1">  1        1 0.10572065E+00 0.30000000E+03</pdfrwt>
<pdfrwt beam="2">0</pdfrwt>
<totfact> 0.31530414E+01</totfact>
</mgrwt>
</event>
<event>
 6    1  0.1950139E-004  0.3000000E+03  0.7818608E-02  0.1093470E+00
          1   -1    0    0  502    0  0.00000000000E+00  0.00000000000E+00  0.30031022883E+02  0.30031022883E+02  0.00000000000E+00 0.  1.
         13   -1    0    0    0    0 -0.00000000000E+00 -0.00000000000E+00 -0.10000000000E+04  0.10000000000E+04  0.00000000000E+00 0.  1.
    9000005    2    1    2  501    0  0.43008407694E+01  0.16587457717E+02 -0.95788867758E+03  0.10090649879E+04  0.31680875973E+03 0.  0.
         13    1    3    3    0    0 -0.14388591497E+03  0.68907741116E+02 -0.45191489215E+03  0.47924785139E+03  0.00000000000E+00 0.  1.
          3    1    3    3  501    0  0.14818675574E+03 -0.52320283400E+02 -0.50597378543E+03  0.52981713654E+03  0.00000000000E+00 0.  1.
         21    1    1    2  502  501 -0.43008407694E+01 -0.16587457717E+02 -0.12080299534E+02  0.20966034953E+02  0.00000000000E+00 0.  1.
<mgrwt>
<rscale>  1 0.30000000E+03</rscale>
<asrwt>0</asrwt>
<pdfrwt beam="1">  1        1 0.10920395E+00 0.30000000E+03</pdfrwt>
<pdfrwt beam="2">0</pdfrwt>
<totfact> 0.30036762E+01</totfact>
</mgrwt>
</event>
<event>
 6    1  0.1950139E-004  0.3000000E+03  0.7818608E-02  0.1093470E+00
          1   -1    0    0  502    0  0.00000000000E+00  0.00000000000E+00  0.43702263505E+02  0.43702263505E+02  0.00000000000E+00 0.  1.
         13   -1    0    0    0    0 -0.00000000000E+00 -0.00000000000E+00 -0.10000000000E+04  0.10000000000E+04  0.00000000000E+00 0.  1.
    9000005    2    1    2  501    0  0.11174678926E+02 -0.70989587383E+02 -0.89204514505E+03  0.94730314280E+03  0.31060313678E+03 0.  0.
         13    1    3    3    0    0  0.35256654158E+02  0.61764930261E+02 -0.34204196760E+02  0.78916825510E+02  0.00000000000E+00 0.  1.
          3    1    3    3  501    0 -0.24081975232E+02 -0.13275451764E+03 -0.85784094829E+03  0.86838631729E+03  0.00000000000E+00 0.  1.
         21    1    1    2  502  501 -0.11174678926E+02  0.70989587383E+02 -0.64252591445E+02  0.96399120708E+02  0.00000000000E+00 0.  1.
<mgrwt>
<rscale>  1 0.30000000E+03</rscale>
<asrwt>0</asrwt>
<pdfrwt beam="1">  1        1 0.15891766E+00 0.30000000E+03</pdfrwt>
<pdfrwt beam="2">0</pdfrwt>
<totfact> 0.16202613E+01</totfact>
</mgrwt>
</event>
<event>
 6    1  0.1950139E-004  0.3000000E+03  0.7818608E-02  0.1093470E+00
          1   -1    0    0  502    0  0.00000000000E+00  0.00000000000E+00  0.28117176413E+02  0.28117176413E+02  0.00000000000E+00 0.  1.
         13   -1    0    0    0    0 -0.00000000000E+00 -0.00000000000E+00 -0.10000000000E+04  0.10000000000E+04  0.00000000000E+00 0.  1.
    9000005    2    1    2  501    0 -0.85507395361E+01 -0.35958072416E+01 -0.95298717753E+03  0.10070674634E+04  0.32544472712E+03 0.  0.
         13    1    3    3    0    0  0.69973550919E+02 -0.13718644378E+03 -0.63396691921E+03  0.65240361191E+03  0.00000000000E+00 0.  1.
          1    1    3    3  501    0 -0.78524290455E+02  0.13359063654E+03 -0.31902025832E+03  0.35466385153E+03  0.00000000000E+00 0.  1.
         21    1    1    2  502  501  0.85507395361E+01  0.35958072416E+01 -0.18895646056E+02  0.21049712972E+02  0.00000000000E+00 0.  1.
<mgrwt>
<rscale>  1 0.30000000E+03</rscale>
<asrwt>0</asrwt>
<pdfrwt beam="1">  1        1 0.10224449E+00 0.30000000E+03</pdfrwt>
<pdfrwt beam="2">0</pdfrwt>
<totfact> 0.33130250E+01</totfact>
</mgrwt>
</event>
<event>
 6    1  0.1950139E-004  0.3000000E+03  0.7818608E-02  0.1093470E+00
          1   -1    0    0  502    0  0.00000000000E+00  0.00000000000E+00  0.25939103279E+02  0.25939103279E+02  0.00000000000E+00 0.  1.
         13   -1    0    0    0    0 -0.00000000000E+00 -0.00000000000E+00 -0.10000000000E+04  0.10000000000E+04  0.00000000000E+00 0.  1.
    9000005    2    1    2  501    0  0.28744956524E+01  0.14850231969E+02 -0.90519800946E+03  0.95543456898E+03  0.30535714689E+03 0.  0.
         13    1    3    3    0    0 -0.48112276180E+02  0.15142962006E+03 -0.43228640132E+03  0.46056188912E+03  0.00000000000E+00 0.  1.
          1    1    3    3  501    0  0.50986771832E+02 -0.13657938809E+03 -0.47291160814E+03  0.49487267986E+03  0.00000000000E+00 0.  1.
         21    1    1    2  502  501 -0.28744956524E+01 -0.14850231969E+02 -0.68862887261E+02  0.70504534299E+02  0.00000000000E+00 0.  1.
<mgrwt>
<rscale>  1 0.30000000E+03</rscale>
<asrwt>0</asrwt>
<pdfrwt beam="1">  1        1 0.94324211E-01 0.30000000E+03</pdfrwt>
<pdfrwt beam="2">0</pdfrwt>
<totfact> 0.37251605E+01</totfact>
</mgrwt>
</event>
<event>
 6    1  0.1950139E-004  0.3000000E+03  0.7818608E-02  0.1093470E+00
          1   -1    0    0  502    0  0.00000000000E+00  0.00000000000E+00  0.32424710671E+02  0.32424710671E+02  0.00000000000E+00 0.  1.
         13   -1    0    0    0    0 -0.00000000000E+00 -0.00000000000E+00 -0.10000000000E+04  0.10000000000E+04  0.00000000000E+00 0.  1.
    9000005    2    1    2  501    0 -0.13386546238E+02 -0.47713668041E+02 -0.88647792871E+03  0.93738484726E+03  0.30065169223E+03 0.  0.
         13    1    3    3    0    0 -0.17547232798E+01 -0.16866737935E+03 -0.64981284199E+03  0.67134826545E+03  0.00000000000E+00 0.  1.
          1    1    3    3  501    0 -0.11631822959E+02  0.12095371131E+03 -0.23666508672E+03  0.26603658181E+03  0.00000000000E+00 0.  1.
         21    1    1    2  502  501  0.13386546238E+02  0.47713668041E+02 -0.81097360619E+02  0.95039863413E+02  0.00000000000E+00 0.  1.
<mgrwt>
<rscale>  1 0.30000000E+03</rscale>
<asrwt>0</asrwt>
<pdfrwt beam="1">  1        1 0.11790829E+00 0.30000000E+03</pdfrwt>
<pdfrwt beam="2">0</pdfrwt>
<totfact> 0.26717163E+01</totfact>
</mgrwt>
</event>
<event>
 6    1  0.1950139E-004  0.3000000E+03  0.7818608E-02  0.1093470E+00
          1   -1    0    0  502    0  0.00000000000E+00  0.00000000000E+00  0.30734659513E+02  0.30734659513E+02  0.00000000000E+00 0.  1.
         13   -1    0    0    0    0 -0.00000000000E+00 -0.00000000000E+00 -0.10000000000E+04  0.10000000000E+04  0.00000000000E+00 0.  1.
    9000005    2    1    2  501    0 -0.15193470399E+02 -0.30848842601E+01 -0.95694995874E+03  0.10109349958E+04  0.32557024472E+03 0.  0.
         13    1    3    3    0    0  0.84942572725E+02  0.88039899357E+02 -0.15413692816E+03  0.19678530728E+03  0.00000000000E+00 0.  1.
          3    1    3    3  501    0 -0.10013604312E+03 -0.91124783617E+02 -0.80281303058E+03  0.81414968857E+03  0.00000000000E+00 0.  1.
         21    1    1    2  502  501  0.15193470399E+02  0.30848842601E+01 -0.12315381749E+02  0.19799663666E+02  0.00000000000E+00 0.  1.
<mgrwt>
<rscale>  1 0.30000000E+03</rscale>
<asrwt>0</asrwt>
<pdfrwt beam="1">  1        1 0.11176263E+00 0.30000000E+03</pdfrwt>
<pdfrwt beam="2">0</pdfrwt>
<totfact> 0.29003076E+01</totfact>
</mgrwt>
</event>
<event>
 6    1  0.1950139E-004  0.3000000E+03  0.7818608E-02  0.1093470E+00
          1   -1    0    0  502    0  0.00000000000E+00  0.00000000000E+00  0.29867375581E+02  0.29867375581E+02  0.00000000000E+00 0.  1.
         13   -1    0    0    0    0 -0.00000000000E+00 -0.00000000000E+00 -0.10000000000E+04  0.10000000000E+04  0.00000000000E+00 0.  1.
    9000005    2    1    2  501    0 -0.63195592125E+01 -0.20904217754E+02 -0.90106410563E+03  0.95742855010E+03  0.32291791984E+03 0.  0.
         13    1    3    3    0    0 -0.80228009481E+02 -0.13588835958E+03 -0.67544134086E+03  0.69363043814E+03  0.00000000000E+00 0.  1.
          1    1    3    3  501    0  0.73908450268E+02  0.11498414183E+03 -0.22562276477E+03  0.26379811196E+03  0.00000000000E+00 0.  1.
         21    1    1    2  502  501  0.63195592125E+01  0.20904217754E+02 -0.69068518794E+02  0.72438825480E+02  0.00000000000E+00 0.  1.
<mgrwt>
<rscale>  1 0.30000000E+03</rscale>
<asrwt>0</asrwt>
<pdfrwt beam="1">  1        1 0.10860887E+00 0.30000000E+03</pdfrwt>
<pdfrwt beam="2">0</pdfrwt>
<totfact> 0.30284659E+01</totfact>
</mgrwt>
</event>
<event>
 6    1  0.1950139E-004  0.3000000E+03  0.7818608E-02  0.1093470E+00
          1   -1    0    0  502    0  0.00000000000E+00  0.00000000000E+00  0.85496869035E+02  0.85496869035E+02  0.00000000000E+00 0.  1.
         13   -1    0    0    0    0 -0.00000000000E+00 -0.00000000000E+00 -0.10000000000E+04  0.10000000000E+04  0.00000000000E+00 0.  1.
    9000005    2    1    2  501    0  0.50853797205E+02  0.21214051916E+02 -0.92177481357E+03  0.10299178977E+04  0.45609859059E+03 0.  0.
         13    1    3    3    0    0  0.75020994739E+02  0.10273918704E+03 -0.93521750788E+03  0.94383011038E+03  0.00000000000E+00 0.  1.
          1    1    3    3  501    0 -0.24167197534E+02 -0.81525135120E+02  0.13442694309E+02  0.86087787306E+02  0.00000000000E+00 0.  1.
         21    1    1    2  502  501 -0.50853797205E+02 -0.21214051916E+02  0.72716826073E+01  0.55578971355E+02  0.00000000000E+00 0.  1.
<mgrwt>
<rscale>  1 0.30000000E+03</rscale>
<asrwt>0</asrwt>
<pdfrwt beam="1">  1        1 0.31089836E+00 0.30000000E+03</pdfrwt>
<pdfrwt beam="2">0</pdfrwt>
<totfact> 0.30820345E+00</totfact>
</mgrwt>
</event>
<event>
 6    1  0.1950139E-004  0.3000000E+03  0.7818608E-02  0.1093470E+00
          1   -1    0    0  502    0  0.00000000000E+00  0.00000000000E+00  0.45926214658E+02  0.45926214658E+02  0.00000000000E+00 0.  1.
         13   -1    0    0    0    0 -0.00000000000E+00 -0.00000000000E+00 -0.10000000000E+04  0.10000000000E+04  0.00000000000E+00 0.  1.
    9000005    2    1    2  501    0  0.23498524608E+01  0.14031790613E+02 -0.97386971498E+03  0.10215481141E+04  0.30811672268E+03 0.  0.
         13    1    3    3    0    0  0.91964990714E+01 -0.87104661792E+02 -0.87691385026E+03  0.88127731077E+03  0.00000000000E+00 0.  1.
          3    1    3    3  501    0 -0.68466466106E+01  0.10113645241E+03 -0.96955864725E+02  0.14027080338E+03  0.00000000000E+00 0.  1.
         21    1    1    2  502  501 -0.23498524608E+01 -0.14031790613E+02  0.19795929640E+02  0.24378100515E+02  0.00000000000E+00 0. -1.
<mgrwt>
<rscale>  1 0.30000000E+03</rscale>
<asrwt>0</asrwt>
<pdfrwt beam="1">  1        1 0.16700477E+00 0.30000000E+03</pdfrwt>
<pdfrwt beam="2">0</pdfrwt>
<totfact> 0.14778068E+01</totfact>
</mgrwt>
</event>
<event>
 6    1  0.1950139E-004  0.3000000E+03  0.7818608E-02  0.1093470E+00
          1   -1    0    0  502    0  0.00000000000E+00  0.00000000000E+00  0.80492268256E+02  0.80492268256E+02  0.00000000000E+00 0.  1.
         13   -1    0    0    0    0 -0.00000000000E+00 -0.00000000000E+00 -0.10000000000E+04  0.10000000000E+04  0.00000000000E+00 0.  1.
    9000005    2    1    2  501    0 -0.16732592104E+02 -0.75517861408E+01 -0.97271650315E+03  0.10242056582E+04  0.32012938911E+03 0.  0.
         13    1    3    3    0    0 -0.42553430586E+02 -0.26598772404E+02  0.77203195591E+00  0.50188496504E+02  0.00000000000E+00 0.  1.
          1    1    3    3  501    0  0.25820838482E+02  0.19046986263E+02 -0.97348853510E+03  0.97401716174E+03  0.00000000000E+00 0.  1.
         21    1    1    2  502  501  0.16732592104E+02  0.75517861408E+01  0.53208771403E+02  0.56286610012E+02  0.00000000000E+00 0.  1.
<mgrwt>
<rscale>  1 0.30000000E+03</rscale>
<asrwt>0</asrwt>
<pdfrwt beam="1">  1        1 0.29269977E+00 0.30000000E+03</pdfrwt>
<pdfrwt beam="2">0</pdfrwt>
<totfact> 0.37622945E+00</totfact>
</mgrwt>
</event>
<event>
 6    1  0.1950139E-004  0.3000000E+03  0.7818608E-02  0.1093470E+00
          1   -1    0    0  502    0  0.00000000000E+00  0.00000000000E+00  0.50456131330E+02  0.50456131330E+02  0.00000000000E+00 0.  1.
         13   -1    0    0    0    0 -0.00000000000E+00 -0.00000000000E+00 -0.10000000000E+04  0.10000000000E+04  0.00000000000E+00 0.  1.
    9000005    2    1    2  501    0 -0.78757077773E+02  0.61174288048E+02 -0.63900518398E+03  0.72429781776E+03  0.32609006861E+03 0.  0.
         13    1    3    3    0    0 -0.18828628793E+03  0.93398007980E+02 -0.51232088735E+03  0.55375771393E+03  0.00000000000E+00 0.  1.
          3    1    3    3  501    0  0.10952921016E+03 -0.32223719932E+02 -0.12668429663E+03  0.17054010384E+03  0.00000000000E+00 0.  1.
         21    1    1    2  502  501  0.78757077773E+02 -0.61174288048E+02 -0.31053868469E+03  0.32615831357E+03  0.00000000000E+00 0.  1.
<mgrwt>
<rscale>  1 0.30000000E+03</rscale>
<asrwt>0</asrwt>
<pdfrwt beam="1">  1        1 0.18347723E+00 0.30000000E+03</pdfrwt>
<pdfrwt beam="2">0</pdfrwt>
<totfact> 0.12290086E+01</totfact>
</mgrwt>
</event>
<event>
 6    1  0.1950139E-004  0.3000000E+03  0.7818608E-02  0.1093470E+00
          3   -1    0    0  502    0  0.00000000000E+00  0.00000000000E+00  0.35158639802E+02  0.35158639802E+02  0.00000000000E+00 0.  1.
         13   -1    0    0    0    0 -0.00000000000E+00 -0.00000000000E+00 -0.10000000000E+04  0.10000000000E+04  0.00000000000E+00 0.  1.
    9000005    2    1    2  501    0 -0.11377305386E+02  0.21181116963E+01 -0.96184429532E+03  0.10232040644E+04  0.34880966084E+03 0.  0.
         13    1    3    3    0    0 -0.30058259885E+02 -0.88069084633E+02 -0.91528407740E+03  0.92000250272E+03  0.00000000000E+00 0.  1.
          1    1    3    3  501    0  0.18680954498E+02  0.90187196329E+02 -0.46560217922E+02  0.10320156169E+03  0.00000000000E+00 0.  1.
         21    1    1    2  502  501  0.11377305386E+02 -0.21181116963E+01 -0.29970648740E+01  0.11954575395E+02  0.00000000000E+00 0. -1.
<mgrwt>
<rscale>  1 0.30000000E+03</rscale>
<asrwt>0</asrwt>
<pdfrwt beam="1">  1        3 0.12784987E+00 0.30000000E+03</pdfrwt>
<pdfrwt beam="2">0</pdfrwt>
<totfact> 0.18747431E+00</totfact>
</mgrwt>
</event>
<event>
 6    1  0.1950139E-004  0.3000000E+03  0.7818608E-02  0.1093470E+00
          1   -1    0    0  502    0  0.00000000000E+00  0.00000000000E+00  0.30414085924E+02  0.30414085924E+02  0.00000000000E+00 0.  1.
         13   -1    0    0    0    0 -0.00000000000E+00 -0.00000000000E+00 -0.10000000000E+04  0.10000000000E+04  0.00000000000E+00 0.  1.
    9000005    2    1    2  501    0  0.65137998242E+01 -0.24068470371E+02 -0.92069613687E+03  0.97553302207E+03  0.32149895778E+03 0.  0.
         13    1    3    3    0    0  0.11845344330E+03  0.12174515676E+02 -0.13065028434E+03  0.17677367977E+03  0.00000000000E+00 0.  1.
          1    1    3    3  501    0 -0.11193964347E+03 -0.36242986047E+02 -0.79004585253E+03  0.79875934230E+03  0.00000000000E+00 0.  1.
         21    1    1    2  502  501 -0.65137998242E+01  0.24068470371E+02 -0.48889777209E+02  0.54881063853E+02  0.00000000000E+00 0. -1.
<mgrwt>
<rscale>  1 0.30000000E+03</rscale>
<asrwt>0</asrwt>
<pdfrwt beam="1">  1        1 0.11059691E+00 0.30000000E+03</pdfrwt>
<pdfrwt beam="2">0</pdfrwt>
<totfact> 0.29467663E+01</totfact>
</mgrwt>
</event>
<event>
 6    1  0.1950139E-004  0.3000000E+03  0.7818608E-02  0.1093470E+00
          1   -1    0    0  502    0  0.00000000000E+00  0.00000000000E+00  0.16916168846E+02  0.16916168846E+02  0.00000000000E+00 0.  1.
         13   -1    0    0    0    0 -0.00000000000E+00 -0.00000000000E+00 -0.10000000000E+04  0.10000000000E+04  0.00000000000E+00 0.  1.
    9000005    2    1    2  501    0  0.18186835503E+02 -0.46946684468E+01 -0.97367962092E+03  0.99591045373E+03  0.20840543840E+03 0.  0.
         13    1    3    3    0    0  0.94341546641E+02  0.39067715277E+02 -0.72541821206E+03  0.73256958454E+03  0.00000000000E+00 0.  1.
          3    1    3    3  501    0 -0.76154711138E+02 -0.43762383724E+02 -0.24826140886E+03  0.26334086919E+03  0.00000000000E+00 0.  1.
         21    1    1    2  502  501 -0.18186835503E+02  0.46946684468E+01 -0.94042102323E+01  0.21005715116E+02  0.00000000000E+00 0.  1.
<mgrwt>
<rscale>  1 0.30000000E+03</rscale>
<asrwt>0</asrwt>
<pdfrwt beam="1">  1        1 0.61513471E-01 0.30000000E+03</pdfrwt>
<pdfrwt beam="2">0</pdfrwt>
<totfact> 0.67081724E+01</totfact>
</mgrwt>
</event>
<event>
 6    1  0.1950139E-004  0.3000000E+03  0.7818608E-02  0.1093470E+00
          1   -1    0    0  502    0  0.00000000000E+00  0.00000000000E+00  0.52874670006E+02  0.52874670006E+02  0.00000000000E+00 0.  1.
         13   -1    0    0    0    0 -0.00000000000E+00 -0.00000000000E+00 -0.10000000000E+04  0.10000000000E+04  0.00000000000E+00 0.  1.
    9000005    2    1    2  501    0 -0.18121368829E+02  0.82208216567E+01 -0.96864535402E+03  0.10235646487E+04  0.33017389693E+03 0.  0.
         13    1    3    3    0    0  0.32052443753E+02 -0.13717898620E+03 -0.23517445836E+03  0.27413948871E+03  0.00000000000E+00 0.  1.
          3    1    3    3  501    0 -0.50173812582E+02  0.14539980785E+03 -0.73347089566E+03  0.74942515996E+03  0.00000000000E+00 0.  1.
         21    1    1    2  502  501  0.18121368829E+02 -0.82208216567E+01  0.21520024027E+02  0.29310021341E+02  0.00000000000E+00 0. -1.
<mgrwt>
<rscale>  1 0.30000000E+03</rscale>
<asrwt>0</asrwt>
<pdfrwt beam="1">  1        1 0.19227193E+00 0.30000000E+03</pdfrwt>
<pdfrwt beam="2">0</pdfrwt>
<totfact> 0.11150754E+01</totfact>
</mgrwt>
</event>
<event>
 6    1  0.1950139E-004  0.3000000E+03  0.7818608E-02  0.1093470E+00
          1   -1    0    0  502    0  0.00000000000E+00  0.00000000000E+00  0.40331115685E+02  0.40331115685E+02  0.00000000000E+00 0.  1.
         13   -1    0    0    0    0 -0.00000000000E+00 -0.00000000000E+00 -0.10000000000E+04  0.10000000000E+04  0.00000000000E+00 0.  1.
    9000005    2    1    2  501    0 -0.26408810592E+02  0.52140271115E+02 -0.88188517497E+03  0.94303600487E+03  0.32890638714E+03 0.  0.
         13    1    3    3    0    0 -0.55414369608E+02  0.88712690035E+02 -0.61528867846E+02  0.12135277216E+03  0.00000000000E+00 0.  1.
          3    1    3    3  501    0  0.29005559015E+02 -0.36572418921E+02 -0.82035630713E+03  0.82168323271E+03  0.00000000000E+00 0.  1.
         21    1    1    2  502  501  0.26408810592E+02 -0.52140271115E+02 -0.77783709344E+02  0.97295110813E+02  0.00000000000E+00 0.  1.
<mgrwt>
<rscale>  1 0.30000000E+03</rscale>
<asrwt>0</asrwt>
<pdfrwt beam="1">  1        1 0.14665891E+00 0.30000000E+03</pdfrwt>
<pdfrwt beam="2">0</pdfrwt>
<totfact> 0.18685163E+01</totfact>
</mgrwt>
</event>
<event>
 6    1  0.1950139E-004  0.3000000E+03  0.7818608E-02  0.1093470E+00
          1   -1    0    0  502    0  0.00000000000E+00  0.00000000000E+00  0.32041390031E+02  0.32041390031E+02  0.00000000000E+00 0.  1.
         13   -1    0    0    0    0 -0.00000000000E+00 -0.00000000000E+00 -0.10000000000E+04  0.10000000000E+04  0.00000000000E+00 0.  1.
    9000005    2    1    2  501    0 -0.12342315125E+02 -0.24679915291E+01 -0.96271381919E+03  0.10184057179E+04  0.33192451674E+03 0.  0.
         13    1    3    3    0    0  0.10741401895E+01 -0.78881516577E+02 -0.33085820435E+02  0.85546004866E+02  0.00000000000E+00 0.  1.
          3    1    3    3  501    0 -0.13416455314E+02  0.76413525048E+02 -0.92962799876E+03  0.93285971301E+03  0.00000000000E+00 0.  1.
         21    1    1    2  502  501  0.12342315125E+02  0.24679915291E+01 -0.52447907739E+01  0.13635672154E+02  0.00000000000E+00 0.  1.
<mgrwt>
<rscale>  1 0.30000000E+03</rscale>
<asrwt>0</asrwt>
<pdfrwt beam="1">  1        1 0.11651439E+00 0.30000000E+03</pdfrwt>
<pdfrwt beam="2">0</pdfrwt>
<totfact> 0.27212942E+01</totfact>
</mgrwt>
</event>
<event>
 6    1  0.1950139E-004  0.3000000E+03  0.7818608E-02  0.1093470E+00
          1   -1    0    0  502    0  0.00000000000E+00  0.00000000000E+00  0.34893718813E+02  0.34893718813E+02  0.00000000000E+00 0.  1.
         13   -1    0    0    0    0 -0.00000000000E+00 -0.00000000000E+00 -0.10000000000E+04  0.10000000000E+04  0.00000000000E+00 0.  1.
    9000005    2    1    2  501    0 -0.10417338783E+02  0.20776190533E+02 -0.97139468177E+03  0.10108164469E+04  0.27857151779E+03 0.  0.
         13    1    3    3    0    0  0.74998145955E+02 -0.98923238246E+02 -0.32488502819E+03  0.34779420711E+03  0.00000000000E+00 0.  1.
          1    1    3    3  501    0 -0.85415484738E+02  0.11969942878E+03 -0.64650965359E+03  0.66302223980E+03  0.00000000000E+00 0.  1.
         21    1    1    2  502  501  0.10417338783E+02 -0.20776190533E+02  0.62884005872E+01  0.24077271904E+02  0.00000000000E+00 0.  1.
<mgrwt>
<rscale>  1 0.30000000E+03</rscale>
<asrwt>0</asrwt>
<pdfrwt beam="1">  1        1 0.12688652E+00 0.30000000E+03</pdfrwt>
<pdfrwt beam="2">0</pdfrwt>
<totfact> 0.23795895E+01</totfact>
</mgrwt>
</event>
<event>
 6    1  0.1950139E-004  0.3000000E+03  0.7818608E-02  0.1093470E+00
          1   -1    0    0  502    0  0.00000000000E+00  0.00000000000E+00  0.32961470033E+02  0.32961470033E+02  0.00000000000E+00 0.  1.
         13   -1    0    0    0    0 -0.00000000000E+00 -0.00000000000E+00 -0.10000000000E+04  0.10000000000E+04  0.00000000000E+00 0.  1.
    9000005    2    1    2  501    0 -0.17405781840E+02 -0.31193045878E+02 -0.91122074967E+03  0.96669238259E+03  0.32077241244E+03 0.  0.
         13    1    3    3    0    0 -0.10208933862E+03  0.11470579031E+03 -0.46125143811E+03  0.48614045352E+03  0.00000000000E+00 0.  1.
          1    1    3    3  501    0  0.84683556780E+02 -0.14589883619E+03 -0.44996931156E+03  0.48055192907E+03  0.00000000000E+00 0.  1.
         21    1    1    2  502  501  0.17405781840E+02  0.31193045878E+02 -0.55817780300E+02  0.66269087441E+02  0.00000000000E+00 0. -1.
<mgrwt>
<rscale>  1 0.30000000E+03</rscale>
<asrwt>0</asrwt>
<pdfrwt beam="1">  1        1 0.11986014E+00 0.30000000E+03</pdfrwt>
<pdfrwt beam="2">0</pdfrwt>
<totfact> 0.26043413E+01</totfact>
</mgrwt>
</event>
<event>
 6    1  0.1950139E-004  0.3000000E+03  0.7818608E-02  0.1093470E+00
          1   -1    0    0  502    0  0.00000000000E+00  0.00000000000E+00  0.38298527245E+02  0.38298527245E+02  0.00000000000E+00 0.  1.
         13   -1    0    0    0    0 -0.00000000000E+00 -0.00000000000E+00 -0.10000000000E+04  0.10000000000E+04  0.00000000000E+00 0.  1.
    9000005    2    1    2  501    0  0.54105724400E+02  0.14016137652E+02 -0.89524210809E+03  0.95146115811E+03  0.31732636474E+03 0.  0.
         13    1    3    3    0    0  0.18795919727E+03  0.51888966686E+01 -0.51546850204E+03  0.54869241027E+03  0.00000000000E+00 0.  1.
          3    1    3    3  501    0 -0.13385347287E+03  0.88272409830E+01 -0.37977360605E+03  0.40276874784E+03  0.00000000000E+00 0.  1.
         21    1    1    2  502  501 -0.54105724400E+02 -0.14016137652E+02 -0.66459364661E+02  0.86837369137E+02  0.00000000000E+00 0.  1.
<mgrwt>
<rscale>  1 0.30000000E+03</rscale>
<asrwt>0</asrwt>
<pdfrwt beam="1">  1        1 0.13926767E+00 0.30000000E+03</pdfrwt>
<pdfrwt beam="2">0</pdfrwt>
<totfact> 0.20412143E+01</totfact>
</mgrwt>
</event>
<event>
 6    1  0.1950139E-004  0.3000000E+03  0.7818608E-02  0.1093470E+00
          1   -1    0    0  502    0  0.00000000000E+00  0.00000000000E+00  0.60490106754E+02  0.60490106754E+02  0.00000000000E+00 0.  1.
         13   -1    0    0    0    0 -0.00000000000E+00 -0.00000000000E+00 -0.10000000000E+04  0.10000000000E+04  0.00000000000E+00 0.  1.
    9000005    2    1    2  501    0  0.45807138734E+02 -0.64951335795E+02 -0.91877252941E+03  0.97834993242E+03  0.32666291416E+03 0.  0.
         13    1    3    3    0    0  0.96104164166E+02  0.33168941531E+02 -0.72366195531E+02  0.12479204826E+03  0.00000000000E+00 0.  1.
          1    1    3    3  501    0 -0.50297025432E+02 -0.98120277326E+02 -0.84640633388E+03  0.85355788417E+03  0.00000000000E+00 0.  1.
         21    1    1    2  502  501 -0.45807138734E+02  0.64951335795E+02 -0.20737363836E+02  0.82140174333E+02  0.00000000000E+00 0. -1.
<mgrwt>
<rscale>  1 0.30000000E+03</rscale>
<asrwt>0</asrwt>
<pdfrwt beam="1">  1        1 0.21996449E+00 0.30000000E+03</pdfrwt>
<pdfrwt beam="2">0</pdfrwt>
<totfact> 0.82464327E+00</totfact>
</mgrwt>
</event>
<event>
 6    1  0.1950139E-004  0.3000000E+03  0.7818608E-02  0.1093470E+00
          1   -1    0    0  502    0  0.00000000000E+00  0.00000000000E+00  0.30081542513E+02  0.30081542513E+02  0.00000000000E+00 0.  1.
         13   -1    0    0    0    0 -0.00000000000E+00 -0.00000000000E+00 -0.10000000000E+04  0.10000000000E+04  0.00000000000E+00 0.  1.
    9000005    2    1    2  501    0 -0.44875750314E+01  0.97392588191E+01 -0.90157086088E+03  0.96089783451E+03  0.33223431441E+03 0.  0.
         13    1    3    3    0    0  0.11165756483E+03 -0.11349725318E+03 -0.51009444513E+03  0.53436446478E+03  0.00000000000E+00 0.  1.
          1    1    3    3  501    0 -0.11614513986E+03  0.12323651200E+03 -0.39147641575E+03  0.42653336973E+03  0.00000000000E+00 0.  1.
         21    1    1    2  502  501  0.44875750314E+01 -0.97392588191E+01 -0.68347596603E+02  0.69183708005E+02  0.00000000000E+00 0.  1.
<mgrwt>
<rscale>  1 0.30000000E+03</rscale>
<asrwt>0</asrwt>
<pdfrwt beam="1">  1        1 0.10938766E+00 0.30000000E+03</pdfrwt>
<pdfrwt beam="2">0</pdfrwt>
<totfact> 0.29960818E+01</totfact>
</mgrwt>
</event>
<event>
 6    1  0.1950139E-004  0.3000000E+03  0.7818608E-02  0.1093470E+00
          1   -1    0    0  502    0  0.00000000000E+00  0.00000000000E+00  0.43323048716E+02  0.43323048716E+02  0.00000000000E+00 0.  1.
         13   -1    0    0    0    0 -0.00000000000E+00 -0.00000000000E+00 -0.10000000000E+04  0.10000000000E+04  0.00000000000E+00 0.  1.
    9000005    2    1    2  501    0 -0.19700716794E+01  0.99314316652E+01 -0.97171656498E+03  0.10251928392E+04  0.32662633141E+03 0.  0.
         13    1    3    3    0    0  0.10469380882E+03 -0.63916487691E+02 -0.80325333241E+03  0.81256509095E+03  0.00000000000E+00 0.  1.
          1    1    3    3  501    0 -0.10666388050E+03  0.73847919356E+02 -0.16846323256E+03  0.21262774824E+03  0.00000000000E+00 0.  1.
         21    1    1    2  502  501  0.19700716794E+01 -0.99314316652E+01  0.15039613692E+02  0.18130209523E+02  0.00000000000E+00 0.  1.
<mgrwt>
<rscale>  1 0.30000000E+03</rscale>
<asrwt>0</asrwt>
<pdfrwt beam="1">  1        1 0.15753869E+00 0.30000000E+03</pdfrwt>
<pdfrwt beam="2">0</pdfrwt>
<totfact> 0.16461121E+01</totfact>
</mgrwt>
</event>
<event>
 6    1  0.1950139E-004  0.3000000E+03  0.7818608E-02  0.1093470E+00
          1   -1    0    0  502    0  0.00000000000E+00  0.00000000000E+00  0.35119501956E+02  0.35119501956E+02  0.00000000000E+00 0.  1.
         13   -1    0    0    0    0 -0.00000000000E+00 -0.00000000000E+00 -0.10000000000E+04  0.10000000000E+04  0.00000000000E+00 0.  1.
    9000005    2    1    2  501    0  0.42954045348E+02 -0.14975378991E+02 -0.87465827885E+03  0.93407812022E+03  0.32466215966E+03 0.  0.
         13    1    3    3    0    0 -0.47957968944E+02  0.11555156209E+03 -0.16644522285E+03  0.20822137858E+03  0.00000000000E+00 0.  1.
          1    1    3    3  501    0  0.90912014292E+02 -0.13052694108E+03 -0.70821305600E+03  0.72585674163E+03  0.00000000000E+00 0.  1.
         21    1    1    2  502  501 -0.42954045348E+02  0.14975378991E+02 -0.90222219193E+02  0.10104138174E+03  0.00000000000E+00 0. -1.
<mgrwt>
<rscale>  1 0.30000000E+03</rscale>
<asrwt>0</asrwt>
<pdfrwt beam="1">  1        1 0.12770755E+00 0.30000000E+03</pdfrwt>
<pdfrwt beam="2">0</pdfrwt>
<totfact> 0.23549794E+01</totfact>
</mgrwt>
</event>
<event>
 6    1  0.1950139E-004  0.3000000E+03  0.7818608E-02  0.1093470E+00
          1   -1    0    0  502    0  0.00000000000E+00  0.00000000000E+00  0.29582892914E+02  0.29582892914E+02  0.00000000000E+00 0.  1.
         13   -1    0    0    0    0 -0.00000000000E+00 -0.00000000000E+00 -0.10000000000E+04  0.10000000000E+04  0.00000000000E+00 0.  1.
    9000005    2    1    2  501    0  0.12465882273E+02  0.12446906781E+02 -0.93509540359E+03  0.99011206258E+03  0.32497408965E+03 0.  0.
         13    1    3    3    0    0 -0.13597473613E+03  0.80352223488E+02 -0.38008463899E+03  0.41159438951E+03  0.00000000000E+00 0.  1.
          1    1    3    3  501    0  0.14844061840E+03 -0.67905316706E+02 -0.55501076461E+03  0.57851767307E+03  0.00000000000E+00 0.  1.
         21    1    1    2  502  501 -0.12465882273E+02 -0.12446906781E+02 -0.35321703494E+02  0.39470830330E+02  0.00000000000E+00 0.  1.
<mgrwt>
<rscale>  1 0.30000000E+03</rscale>
<asrwt>0</asrwt>
<pdfrwt beam="1">  1        1 0.10757438E+00 0.30000000E+03</pdfrwt>
<pdfrwt beam="2">0</pdfrwt>
<totfact> 0.30722605E+01</totfact>
</mgrwt>
</event>
<event>
 6    1  0.1950139E-004  0.3000000E+03  0.7818608E-02  0.1093470E+00
          1   -1    0    0  502    0  0.00000000000E+00  0.00000000000E+00  0.50594827863E+02  0.50594827863E+02  0.00000000000E+00 0.  1.
         13   -1    0    0    0    0 -0.00000000000E+00 -0.00000000000E+00 -0.10000000000E+04  0.10000000000E+04  0.00000000000E+00 0.  1.
    9000005    2    1    2  501    0  0.42473842810E+01  0.11745607482E+02 -0.95063488055E+03  0.10380444593E+04  0.41674167514E+03 0.  0.
         13    1    3    3    0    0  0.15187243480E+03  0.34229934477E+02 -0.12680253569E+03  0.20078796758E+03  0.00000000000E+00 0.  1.
          3    1    3    3  501    0 -0.14762505052E+03 -0.22484326995E+02 -0.82383234485E+03  0.83725649172E+03  0.00000000000E+00 0.  1.
         21    1    1    2  502  501 -0.42473842810E+01 -0.11745607482E+02  0.12297084098E+01  0.12550368565E+02  0.00000000000E+00 0. -1.
<mgrwt>
<rscale>  1 0.30000000E+03</rscale>
<asrwt>0</asrwt>
<pdfrwt beam="1">  1        1 0.18398158E+00 0.30000000E+03</pdfrwt>
<pdfrwt beam="2">0</pdfrwt>
<totfact> 0.12221527E+01</totfact>
</mgrwt>
</event>
<event>
 6    1  0.1950139E-004  0.3000000E+03  0.7818608E-02  0.1093470E+00
          1   -1    0    0  502    0  0.00000000000E+00  0.00000000000E+00  0.57991293281E+02  0.57991293281E+02  0.00000000000E+00 0.  1.
         13   -1    0    0    0    0 -0.00000000000E+00 -0.00000000000E+00 -0.10000000000E+04  0.10000000000E+04  0.00000000000E+00 0.  1.
    9000005    2    1    2  501    0  0.19137553356E+02  0.13585610873E+02 -0.96854718505E+03  0.10225638237E+04  0.32711207414E+03 0.  0.
         13    1    3    3    0    0 -0.90931131866E+02  0.65804249163E+02 -0.83213067513E+03  0.83966667818E+03  0.00000000000E+00 0.  1.
          3    1    3    3  501    0  0.11006868522E+03 -0.52218638290E+02 -0.13641650991E+03  0.18289714549E+03  0.00000000000E+00 0.  1.
         21    1    1    2  502  501 -0.19137553356E+02 -0.13585610873E+02  0.26538478326E+02  0.35427469612E+02  0.00000000000E+00 0.  1.
<mgrwt>
<rscale>  1 0.30000000E+03</rscale>
<asrwt>0</asrwt>
<pdfrwt beam="1">  1        1 0.21087787E+00 0.30000000E+03</pdfrwt>
<pdfrwt beam="2">0</pdfrwt>
<totfact> 0.90982538E+00</totfact>
</mgrwt>
</event>
<event>
 6    1  0.1950139E-004  0.3000000E+03  0.7818608E-02  0.1093470E+00
          1   -1    0    0  502    0  0.00000000000E+00  0.00000000000E+00  0.74666863398E+02  0.74666863398E+02  0.00000000000E+00 0.  1.
         13   -1    0    0    0    0 -0.00000000000E+00 -0.00000000000E+00 -0.10000000000E+04  0.10000000000E+04  0.00000000000E+00 0.  1.
    9000005    2    1    2  501    0  0.34214152944E+02  0.13377370959E+02 -0.96615137779E+03  0.10197515547E+04  0.32418387713E+03 0.  0.
         13    1    3    3    0    0 -0.14046669175E+03  0.46954163769E+02 -0.45981444616E+03  0.48307857527E+03  0.00000000000E+00 0.  1.
          3    1    3    3  501    0  0.17468084469E+03 -0.33576792810E+02 -0.50633693163E+03  0.53667297943E+03  0.00000000000E+00 0.  1.
         21    1    1    2  502  501 -0.34214152944E+02 -0.13377370959E+02  0.40818241189E+02  0.54915308697E+02  0.00000000000E+00 0.  1.
<mgrwt>
<rscale>  1 0.30000000E+03</rscale>
<asrwt>0</asrwt>
<pdfrwt beam="1">  1        1 0.27151644E+00 0.30000000E+03</pdfrwt>
<pdfrwt beam="2">0</pdfrwt>
<totfact> 0.47301808E+00</totfact>
</mgrwt>
</event>
<event>
 6    1  0.1950139E-004  0.3000000E+03  0.7818608E-02  0.1093470E+00
          1   -1    0    0  502    0  0.00000000000E+00  0.00000000000E+00  0.93431698727E+02  0.93431698727E+02  0.00000000000E+00 0.  1.
         13   -1    0    0    0    0 -0.00000000000E+00 -0.00000000000E+00 -0.10000000000E+04  0.10000000000E+04  0.00000000000E+00 0.  1.
    9000005    2    1    2  501    0 -0.75924375507E+01  0.93247909774E+01 -0.97288802815E+03  0.10260306378E+04  0.32570409523E+03 0.  0.
         13    1    3    3    0    0 -0.16289916467E+03  0.34237340321E+02 -0.55918697831E+03  0.58343672325E+03  0.00000000000E+00 0.  1.
          3    1    3    3  501    0  0.15530672712E+03 -0.24912549343E+02 -0.41370104984E+03  0.44259391460E+03  0.00000000000E+00 0.  1.
         21    1    1    2  502  501  0.75924375507E+01 -0.93247909774E+01  0.66319726876E+02  0.67401060879E+02  0.00000000000E+00 0.  1.
<mgrwt>
<rscale>  1 0.30000000E+03</rscale>
<asrwt>0</asrwt>
<pdfrwt beam="1">  1        1 0.33975235E+00 0.30000000E+03</pdfrwt>
<pdfrwt beam="2">0</pdfrwt>
<totfact> 0.22206226E+00</totfact>
</mgrwt>
</event>
<event>
 6    1  0.1950139E-004  0.3000000E+03  0.7818608E-02  0.1093470E+00
          1   -1    0    0  502    0  0.00000000000E+00  0.00000000000E+00  0.28858690759E+02  0.28858690759E+02  0.00000000000E+00 0.  1.
         13   -1    0    0    0    0 -0.00000000000E+00 -0.00000000000E+00 -0.10000000000E+04  0.10000000000E+04  0.00000000000E+00 0.  1.
    9000005    2    1    2  501    0  0.11376640559E+02  0.92352469246E+00 -0.93811709836E+03  0.99391760674E+03  0.32814362389E+03 0.  0.
         13    1    3    3    0    0  0.14644319071E+03  0.54132302271E+02 -0.68082071641E+03  0.69849320838E+03  0.00000000000E+00 0.  1.
          3    1    3    3  501    0 -0.13506655015E+03 -0.53208777579E+02 -0.25729638195E+03  0.29542439836E+03  0.00000000000E+00 0.  1.
         21    1    1    2  502  501 -0.11376640559E+02 -0.92352469246E+00 -0.33024210879E+02  0.34941084019E+02  0.00000000000E+00 0. -1.
<mgrwt>
<rscale>  1 0.30000000E+03</rscale>
<asrwt>0</asrwt>
<pdfrwt beam="1">  1        1 0.10494091E+00 0.30000000E+03</pdfrwt>
<pdfrwt beam="2">0</pdfrwt>
<totfact> 0.31879364E+01</totfact>
</mgrwt>
</event>
<event>
 6    1  0.1950139E-004  0.3000000E+03  0.7818608E-02  0.1093470E+00
          1   -1    0    0  502    0  0.00000000000E+00  0.00000000000E+00  0.30612566932E+02  0.30612566932E+02  0.00000000000E+00 0.  1.
         13   -1    0    0    0    0 -0.00000000000E+00 -0.00000000000E+00 -0.10000000000E+04  0.10000000000E+04  0.00000000000E+00 0.  1.
    9000005    2    1    2  501    0 -0.19148055785E+02 -0.78322477123E+01 -0.88926755737E+03  0.94786483810E+03  0.32744918778E+03 0.  0.
         13    1    3    3    0    0 -0.79705001999E+02  0.11851447630E+03 -0.20784136940E+03  0.25218366971E+03  0.00000000000E+00 0.  1.
          1    1    3    3  501    0  0.60556946213E+02 -0.12634672401E+03 -0.68142618797E+03  0.69568116839E+03  0.00000000000E+00 0.  1.
         21    1    1    2  502  501  0.19148055785E+02  0.78322477123E+01 -0.80119875700E+02  0.82747728831E+02  0.00000000000E+00 0.  1.
<mgrwt>
<rscale>  1 0.30000000E+03</rscale>
<asrwt>0</asrwt>
<pdfrwt beam="1">  1        1 0.11131866E+00 0.30000000E+03</pdfrwt>
<pdfrwt beam="2">0</pdfrwt>
<totfact> 0.29178788E+01</totfact>
</mgrwt>
</event>
<event>
 6    1  0.1950139E-004  0.3000000E+03  0.7818608E-02  0.1093470E+00
          1   -1    0    0  502    0  0.00000000000E+00  0.00000000000E+00  0.30853976133E+02  0.30853976133E+02  0.00000000000E+00 0.  1.
         13   -1    0    0    0    0 -0.00000000000E+00 -0.00000000000E+00 -0.10000000000E+04  0.10000000000E+04  0.00000000000E+00 0.  1.
    9000005    2    1    2  501    0  0.14320828943E+02  0.11549746876E+02 -0.94052773780E+03  0.99683208477E+03  0.32976248553E+03 0.  0.
         13    1    3    3    0    0 -0.60792710297E+02 -0.52630493743E+02 -0.38042077487E+02  0.88954607280E+02  0.00000000000E+00 0.  1.
          3    1    3    3  501    0  0.75113539240E+02  0.64180240619E+02 -0.90248566032E+03  0.90787747749E+03  0.00000000000E+00 0.  1.
         21    1    1    2  502  501 -0.14320828943E+02 -0.11549746876E+02 -0.28618286065E+02  0.34021891361E+02  0.00000000000E+00 0.  1.
<mgrwt>
<rscale>  1 0.30000000E+03</rscale>
<asrwt>0</asrwt>
<pdfrwt beam="1">  1        1 0.11219651E+00 0.30000000E+03</pdfrwt>
<pdfrwt beam="2">0</pdfrwt>
<totfact> 0.28832796E+01</totfact>
</mgrwt>
</event>
<event>
 6    1  0.1950139E-004  0.3000000E+03  0.7818608E-02  0.1093470E+00
          1   -1    0    0  502    0  0.00000000000E+00  0.00000000000E+00  0.52405907238E+02  0.52405907238E+02  0.00000000000E+00 0.  1.
         13   -1    0    0    0    0 -0.00000000000E+00 -0.00000000000E+00 -0.10000000000E+04  0.10000000000E+04  0.00000000000E+00 0.  1.
    9000005    2    1    2  501    0 -0.57512152483E+02  0.42056684653E+02 -0.91455568545E+03  0.97386961776E+03  0.32700690849E+03 0.  0.
         13    1    3    3    0    0 -0.44417770869E+02 -0.13877629434E+03 -0.30675486723E+03  0.33960321967E+03  0.00000000000E+00 0.  1.
          1    1    3    3  501    0 -0.13094381614E+02  0.18083297899E+03 -0.60780081821E+03  0.63426639809E+03  0.00000000000E+00 0.  1.
         21    1    1    2  502  501  0.57512152483E+02 -0.42056684653E+02 -0.33038407316E+02  0.78536289480E+02  0.00000000000E+00 0.  1.
<mgrwt>
<rscale>  1 0.30000000E+03</rscale>
<asrwt>0</asrwt>
<pdfrwt beam="1">  1        1 0.19056734E+00 0.30000000E+03</pdfrwt>
<pdfrwt beam="2">0</pdfrwt>
<totfact> 0.11362546E+01</totfact>
</mgrwt>
</event>
<event>
 6    1  0.1950139E-004  0.3000000E+03  0.7818608E-02  0.1093470E+00
          1   -1    0    0  502    0  0.00000000000E+00  0.00000000000E+00  0.31147159043E+02  0.31147159043E+02  0.00000000000E+00 0.  1.
         13   -1    0    0    0    0 -0.00000000000E+00 -0.00000000000E+00 -0.10000000000E+04  0.10000000000E+04  0.00000000000E+00 0.  1.
    9000005    2    1    2  501    0 -0.25481677287E+02  0.11644095964E+02 -0.92915893948E+03  0.98256211337E+03  0.31828771728E+03 0.  0.
         13    1    3    3    0    0 -0.10673116266E+03  0.10398849674E+03 -0.23989053387E+03  0.28240505799E+03  0.00000000000E+00 0.  1.
          3    1    3    3  501    0  0.81249485377E+02 -0.92344400778E+02 -0.68926840561E+03  0.70015705539E+03  0.00000000000E+00 0.  1.
         21    1    1    2  502  501  0.25481677287E+02 -0.11644095964E+02 -0.39693901477E+02  0.48585045669E+02  0.00000000000E+00 0.  1.
<mgrwt>
<rscale>  1 0.30000000E+03</rscale>
<asrwt>0</asrwt>
<pdfrwt beam="1">  1        1 0.11326264E+00 0.30000000E+03</pdfrwt>
<pdfrwt beam="2">0</pdfrwt>
<totfact> 0.28420405E+01</totfact>
</mgrwt>
</event>
<event>
 6    1  0.1950139E-004  0.3000000E+03  0.7818608E-02  0.1093470E+00
          1   -1    0    0  502    0  0.00000000000E+00  0.00000000000E+00  0.50667339417E+02  0.50667339417E+02  0.00000000000E+00 0.  1.
         13   -1    0    0    0    0 -0.00000000000E+00 -0.00000000000E+00 -0.10000000000E+04  0.10000000000E+04  0.00000000000E+00 0.  1.
    9000005    2    1    2  501    0  0.43261299423E+02 -0.52780694211E+01 -0.95285071770E+03  0.10069434927E+04  0.32266284144E+03 0.  0.
         13    1    3    3    0    0  0.97988275578E+02  0.96622479561E+02 -0.18575505027E+03  0.23117643566E+03  0.00000000000E+00 0.  1.
          3    1    3    3  501    0 -0.54726976155E+02 -0.10190054898E+03 -0.76709566744E+03  0.77576705705E+03  0.00000000000E+00 0.  1.
         21    1    1    2  502  501 -0.43261299423E+02  0.52780694211E+01  0.35180571214E+01  0.43723846703E+02  0.00000000000E+00 0.  1.
<mgrwt>
<rscale>  1 0.30000000E+03</rscale>
<asrwt>0</asrwt>
<pdfrwt beam="1">  1        1 0.18424526E+00 0.30000000E+03</pdfrwt>
<pdfrwt beam="2">0</pdfrwt>
<totfact> 0.12185852E+01</totfact>
</mgrwt>
</event>
<event>
 6    1  0.1950139E-004  0.3000000E+03  0.7818608E-02  0.1093470E+00
          1   -1    0    0  502    0  0.00000000000E+00  0.00000000000E+00  0.33886005001E+02  0.33886005001E+02  0.00000000000E+00 0.  1.
         13   -1    0    0    0    0 -0.00000000000E+00 -0.00000000000E+00 -0.10000000000E+04  0.10000000000E+04  0.00000000000E+00 0.  1.
    9000005    2    1    2  501    0 -0.76753402852E+01 -0.12608432274E+02 -0.94222248168E+03  0.10058024187E+04  0.35162112706E+03 0.  0.
         13    1    3    3    0    0  0.27947645194E+02  0.97420479223E+02 -0.85490004106E+03  0.86088669455E+03  0.00000000000E+00 0.  1.
          3    1    3    3  501    0 -0.35622985479E+02 -0.11002891150E+03 -0.87322440616E+02  0.14491572411E+03  0.00000000000E+00 0.  1.
         21    1    1    2  502  501  0.76753402852E+01  0.12608432274E+02 -0.23891513321E+02  0.28083586339E+02  0.00000000000E+00 0. -1.
<mgrwt>
<rscale>  1 0.30000000E+03</rscale>
<asrwt>0</asrwt>
<pdfrwt beam="1">  1        1 0.12322210E+00 0.30000000E+03</pdfrwt>
<pdfrwt beam="2">0</pdfrwt>
<totfact> 0.24935172E+01</totfact>
</mgrwt>
</event>
<event>
 6    1  0.1950139E-004  0.3000000E+03  0.7818608E-02  0.1093470E+00
          1   -1    0    0  502    0  0.00000000000E+00  0.00000000000E+00  0.33045316651E+02  0.33045316651E+02  0.00000000000E+00 0.  1.
         13   -1    0    0    0    0 -0.00000000000E+00 -0.00000000000E+00 -0.10000000000E+04  0.10000000000E+04  0.00000000000E+00 0.  1.
    9000005    2    1    2  501    0  0.27411588173E+02  0.70534578163E+01 -0.95784626598E+03  0.10033113344E+04  0.29725917658E+03 0.  0.
         13    1    3    3    0    0  0.70523905633E+02 -0.75334185352E+02 -0.86765617377E+03  0.87377119237E+03  0.00000000000E+00 0.  1.
          3    1    3    3  501    0 -0.43112317460E+02  0.82387643169E+02 -0.90190092211E+02  0.12954014203E+03  0.00000000000E+00 0.  1.
         21    1    1    2  502  501 -0.27411588173E+02 -0.70534578163E+01 -0.91084173717E+01  0.29733982249E+02  0.00000000000E+00 0.  1.
<mgrwt>
<rscale>  1 0.30000000E+03</rscale>
<asrwt>0</asrwt>
<pdfrwt beam="1">  1        1 0.12016504E+00 0.30000000E+03</pdfrwt>
<pdfrwt beam="2">0</pdfrwt>
<totfact> 0.25940243E+01</totfact>
</mgrwt>
</event>
<event>
 6    1  0.1950139E-004  0.3000000E+03  0.7818608E-02  0.1093470E+00
          3   -1    0    0  502    0  0.00000000000E+00  0.00000000000E+00  0.18696739350E+02  0.18696739350E+02  0.00000000000E+00 0.  1.
         13   -1    0    0    0    0 -0.00000000000E+00 -0.00000000000E+00 -0.10000000000E+04  0.10000000000E+04  0.00000000000E+00 0.  1.
    9000005    2    1    2  501    0 -0.93422208704E+01 -0.59027270389E+02 -0.88957429467E+03  0.90921752242E+03  0.17822059812E+03 0.  0.
         13    1    3    3    0    0 -0.57553979962E+02 -0.42989624962E+02 -0.81959998772E+03  0.82274218825E+03  0.00000000000E+00 0.  1.
          1    1    3    3  501    0  0.48211759092E+02 -0.16037645427E+02 -0.69974306955E+02  0.86475334168E+02  0.00000000000E+00 0.  1.
         21    1    1    2  502  501  0.93422208704E+01  0.59027270389E+02 -0.91728965979E+02  0.10947921693E+03  0.00000000000E+00 0. -1.
<mgrwt>
<rscale>  1 0.30000000E+03</rscale>
<asrwt>0</asrwt>
<pdfrwt beam="1">  1        3 0.67988286E-01 0.30000000E+03</pdfrwt>
<pdfrwt beam="2">0</pdfrwt>
<totfact> 0.94809032E+00</totfact>
</mgrwt>
</event>
<event>
 6    1  0.1950139E-004  0.3000000E+03  0.7818608E-02  0.1093470E+00
          1   -1    0    0  502    0  0.00000000000E+00  0.00000000000E+00  0.31516073134E+02  0.31516073134E+02  0.00000000000E+00 0.  1.
         13   -1    0    0    0    0 -0.00000000000E+00 -0.00000000000E+00 -0.10000000000E+04  0.10000000000E+04  0.00000000000E+00 0.  1.
    9000005    2    1    2  501    0  0.12045210181E+02 -0.18172857520E+02 -0.90902471723E+03  0.96818568983E+03  0.33253910089E+03 0.  0.
         13    1    3    3    0    0  0.33997512519E+02 -0.17012355489E+03 -0.57427927603E+03  0.59991211161E+03  0.00000000000E+00 0.  1.
          3    1    3    3  501    0 -0.21952302337E+02  0.15195069736E+03 -0.33474544120E+03  0.36827357821E+03  0.00000000000E+00 0.  1.
         21    1    1    2  502  501 -0.12045210181E+02  0.18172857520E+02 -0.59459209639E+02  0.63330383305E+02  0.00000000000E+00 0.  1.
<mgrwt>
<rscale>  1 0.30000000E+03</rscale>
<asrwt>0</asrwt>
<pdfrwt beam="1">  1        1 0.11460414E+00 0.30000000E+03</pdfrwt>
<pdfrwt beam="2">0</pdfrwt>
<totfact> 0.27913320E+01</totfact>
</mgrwt>
</event>
<event>
 6    1  0.1950139E-004  0.3000000E+03  0.7818608E-02  0.1093470E+00
          1   -1    0    0  502    0  0.00000000000E+00  0.00000000000E+00  0.36242823674E+02  0.36242823674E+02  0.00000000000E+00 0.  1.
         13   -1    0    0    0    0 -0.00000000000E+00 -0.00000000000E+00 -0.10000000000E+04  0.10000000000E+04  0.00000000000E+00 0.  1.
    9000005    2    1    2  501    0 -0.76377315490E+01 -0.63488698807E+01 -0.96874169610E+03  0.10251302844E+04  0.33516113010E+03 0.  0.
         13    1    3    3    0    0  0.16053159039E+03 -0.20380711708E+02 -0.38868548039E+03  0.42102513890E+03  0.00000000000E+00 0.  1.
          3    1    3    3  501    0 -0.16816932194E+03  0.14031841827E+02 -0.58005621571E+03  0.60410514549E+03  0.00000000000E+00 0.  1.
         21    1    1    2  502  501  0.76377315490E+01  0.63488698807E+01  0.49845197688E+01  0.11112539282E+02  0.00000000000E+00 0. -1.
<mgrwt>
<rscale>  1 0.30000000E+03</rscale>
<asrwt>0</asrwt>
<pdfrwt beam="1">  1        1 0.13179236E+00 0.30000000E+03</pdfrwt>
<pdfrwt beam="2">0</pdfrwt>
<totfact> 0.22373083E+01</totfact>
</mgrwt>
</event>
<event>
 6    1  0.1950139E-004  0.3000000E+03  0.7818608E-02  0.1093470E+00
          1   -1    0    0  502    0  0.00000000000E+00  0.00000000000E+00  0.28873141832E+02  0.28873141832E+02  0.00000000000E+00 0.  1.
         13   -1    0    0    0    0 -0.00000000000E+00 -0.00000000000E+00 -0.10000000000E+04  0.10000000000E+04  0.00000000000E+00 0.  1.
    9000005    2    1    2  501    0 -0.13494979147E+02 -0.72018370968E+01 -0.95912765716E+03  0.10094319036E+04  0.31431341734E+03 0.  0.
         13    1    3    3    0    0  0.11887646681E+03 -0.94802740721E+02 -0.54872933015E+03  0.56940587614E+03  0.00000000000E+00 0.  1.
          1    1    3    3  501    0 -0.13237144595E+03  0.87600903624E+02 -0.41039832701E+03  0.44002602745E+03  0.00000000000E+00 0.  1.
         21    1    1    2  502  501  0.13494979147E+02  0.72018370968E+01 -0.11999201004E+02  0.19441238245E+02  0.00000000000E+00 0.  1.
<mgrwt>
<rscale>  1 0.30000000E+03</rscale>
<asrwt>0</asrwt>
<pdfrwt beam="1">  1        1 0.10499346E+00 0.30000000E+03</pdfrwt>
<pdfrwt beam="2">0</pdfrwt>
<totfact> 0.31855672E+01</totfact>
</mgrwt>
</event>
<event>
 6    1  0.1950139E-004  0.3000000E+03  0.7818608E-02  0.1093470E+00
          1   -1    0    0  502    0  0.00000000000E+00  0.00000000000E+00  0.32173644195E+02  0.32173644195E+02  0.00000000000E+00 0.  1.
         13   -1    0    0    0    0 -0.00000000000E+00 -0.00000000000E+00 -0.10000000000E+04  0.10000000000E+04  0.00000000000E+00 0.  1.
    9000005    2    1    2  501    0  0.87182097616E+01 -0.76849112543E+01 -0.97046353272E+03  0.10202564405E+04  0.31462465088E+03 0.  0.
         13    1    3    3    0    0  0.66672077497E+02 -0.10587506682E+03 -0.82983338241E+03  0.83921280868E+03  0.00000000000E+00 0.  1.
          1    1    3    3  501    0 -0.57953867735E+02  0.98190155566E+02 -0.14063015031E+03  0.18104363179E+03  0.00000000000E+00 0.  1.
         21    1    1    2  502  501 -0.87182097616E+01  0.76849112543E+01  0.26371769181E+01  0.11917203721E+02  0.00000000000E+00 0. -1.
<mgrwt>
<rscale>  1 0.30000000E+03</rscale>
<asrwt>0</asrwt>
<pdfrwt beam="1">  1        1 0.11699532E+00 0.30000000E+03</pdfrwt>
<pdfrwt beam="2">0</pdfrwt>
<totfact> 0.27040468E+01</totfact>
</mgrwt>
</event>
<event>
 6    1  0.1950139E-004  0.3000000E+03  0.7818608E-02  0.1093470E+00
          1   -1    0    0  502    0  0.00000000000E+00  0.00000000000E+00  0.27684819162E+02  0.27684819162E+02  0.00000000000E+00 0.  1.
         13   -1    0    0    0    0 -0.00000000000E+00 -0.00000000000E+00 -0.10000000000E+04  0.10000000000E+04  0.00000000000E+00 0.  1.
    9000005    2    1    2  501    0 -0.60518551914E+01 -0.42012500450E+01 -0.94909829369E+03  0.10033270832E+04  0.32530507114E+03 0.  0.
         13    1    3    3    0    0 -0.70995260263E+02  0.74687639236E+02 -0.86048690121E+02  0.13424957172E+03  0.00000000000E+00 0.  1.
          1    1    3    3  501    0  0.64943405071E+02 -0.78888889281E+02 -0.86304960357E+03  0.86907751147E+03  0.00000000000E+00 0.  1.
         21    1    1    2  502  501  0.60518551914E+01  0.42012500450E+01 -0.23216887144E+02  0.24357735976E+02  0.00000000000E+00 0.  1.
<mgrwt>
<rscale>  1 0.30000000E+03</rscale>
<asrwt>0</asrwt>
<pdfrwt beam="1">  1        1 0.10067228E+00 0.30000000E+03</pdfrwt>
<pdfrwt beam="2">0</pdfrwt>
<totfact> 0.33892934E+01</totfact>
</mgrwt>
</event>
<event>
 6    1  0.1950139E-004  0.3000000E+03  0.7818608E-02  0.1093470E+00
          1   -1    0    0  502    0  0.00000000000E+00  0.00000000000E+00  0.37070127956E+02  0.37070127956E+02  0.00000000000E+00 0.  1.
         13   -1    0    0    0    0 -0.00000000000E+00 -0.00000000000E+00 -0.10000000000E+04  0.10000000000E+04  0.00000000000E+00 0.  1.
    9000005    2    1    2  501    0 -0.48361303198E+01 -0.18827740895E+02 -0.95441943245E+03  0.10158498649E+04  0.34735662209E+03 0.  0.
         13    1    3    3    0    0  0.33477221276E+02  0.16065990044E+03 -0.43105831190E+03  0.46124136438E+03  0.00000000000E+00 0.  1.
          3    1    3    3  501    0 -0.38313351596E+02 -0.17948764134E+03 -0.52336112055E+03  0.55460850048E+03  0.00000000000E+00 0.  1.
         21    1    1    2  502  501  0.48361303198E+01  0.18827740895E+02 -0.85104395899E+01  0.21220263092E+02  0.00000000000E+00 0.  1.
<mgrwt>
<rscale>  1 0.30000000E+03</rscale>
<asrwt>0</asrwt>
<pdfrwt beam="1">  1        1 0.13480075E+00 0.30000000E+03</pdfrwt>
<pdfrwt beam="2">0</pdfrwt>
<totfact> 0.21555267E+01</totfact>
</mgrwt>
</event>
<event>
 6    1  0.1950139E-004  0.3000000E+03  0.7818608E-02  0.1093470E+00
          1   -1    0    0  502    0  0.00000000000E+00  0.00000000000E+00  0.32990548039E+02  0.32990548039E+02  0.00000000000E+00 0.  1.
         13   -1    0    0    0    0 -0.00000000000E+00 -0.00000000000E+00 -0.10000000000E+04  0.10000000000E+04  0.00000000000E+00 0.  1.
    9000005    2    1    2  501    0  0.19971806618E+02 -0.15849861370E+01 -0.96297474496E+03  0.10125537161E+04  0.31231920088E+03 0.  0.
         13    1    3    3    0    0  0.71523526407E+01  0.13812670260E+03 -0.24816533538E+03  0.28410592357E+03  0.00000000000E+00 0.  1.
          1    1    3    3  501    0  0.12819453978E+02 -0.13971168874E+03 -0.71480940958E+03  0.72844779249E+03  0.00000000000E+00 0.  1.
         21    1    1    2  502  501 -0.19971806618E+02  0.15849861370E+01 -0.40347070016E+01  0.20436831977E+02  0.00000000000E+00 0. -1.
<mgrwt>
<rscale>  1 0.30000000E+03</rscale>
<asrwt>0</asrwt>
<pdfrwt beam="1">  1        1 0.11996588E+00 0.30000000E+03</pdfrwt>
<pdfrwt beam="2">0</pdfrwt>
<totfact> 0.26007571E+01</totfact>
</mgrwt>
</event>
<event>
 6    1  0.1950139E-004  0.3000000E+03  0.7818608E-02  0.1093470E+00
          1   -1    0    0  502    0  0.00000000000E+00  0.00000000000E+00  0.41054552209E+02  0.41054552209E+02  0.00000000000E+00 0.  1.
         13   -1    0    0    0    0 -0.00000000000E+00 -0.00000000000E+00 -0.10000000000E+04  0.10000000000E+04  0.00000000000E+00 0.  1.
    9000005    2    1    2  501    0 -0.14225893861E+02  0.25476626679E+01 -0.96965858458E+03  0.10230646122E+04  0.32590575857E+03 0.  0.
         13    1    3    3    0    0 -0.64941817399E+02 -0.80559213059E+02 -0.89345925395E+03  0.89943130084E+03  0.00000000000E+00 0.  1.
          3    1    3    3  501    0  0.50715923538E+02  0.83106875727E+02 -0.76199330628E+02  0.12363331137E+03  0.00000000000E+00 0.  1.
         21    1    1    2  502  501  0.14225893861E+02 -0.25476626679E+01  0.10713136789E+02  0.17989939996E+02  0.00000000000E+00 0.  1.
<mgrwt>
<rscale>  1 0.30000000E+03</rscale>
<asrwt>0</asrwt>
<pdfrwt beam="1">  1        1 0.14928960E+00 0.30000000E+03</pdfrwt>
<pdfrwt beam="2">0</pdfrwt>
<totfact> 0.18115153E+01</totfact>
</mgrwt>
</event>
<event>
 6    1  0.1950139E-004  0.3000000E+03  0.7818608E-02  0.1093470E+00
          1   -1    0    0  502    0  0.00000000000E+00  0.00000000000E+00  0.24638154915E+02  0.24638154915E+02  0.00000000000E+00 0.  1.
         13   -1    0    0    0    0 -0.00000000000E+00 -0.00000000000E+00 -0.10000000000E+04  0.10000000000E+04  0.00000000000E+00 0.  1.
    9000005    2    1    2  501    0 -0.58778690095E+01  0.24577820071E+02 -0.93252742150E+03  0.97490480164E+03  0.28318432485E+03 0.  0.
         13    1    3    3    0    0 -0.85278945489E+02  0.37591817067E+01 -0.86334344099E+03  0.86755318401E+03  0.00000000000E+00 0.  1.
          3    1    3    3  501    0  0.79401076479E+02  0.20818638365E+02 -0.69183980513E+02  0.10735161764E+03  0.00000000000E+00 0.  1.
         21    1    1    2  502  501  0.58778690095E+01 -0.24577820071E+02 -0.42834423586E+02  0.49733353270E+02  0.00000000000E+00 0.  1.
<mgrwt>
<rscale>  1 0.30000000E+03</rscale>
<asrwt>0</asrwt>
<pdfrwt beam="1">  1        1 0.89593480E-01 0.30000000E+03</pdfrwt>
<pdfrwt beam="2">0</pdfrwt>
<totfact> 0.40088180E+01</totfact>
</mgrwt>
</event>
<event>
 6    1  0.1950139E-004  0.3000000E+03  0.7818608E-02  0.1093470E+00
          1   -1    0    0  502    0  0.00000000000E+00  0.00000000000E+00  0.19070450059E+02  0.19070450059E+02  0.00000000000E+00 0.  1.
         13   -1    0    0    0    0 -0.00000000000E+00 -0.00000000000E+00 -0.10000000000E+04  0.10000000000E+04  0.00000000000E+00 0.  1.
    9000005    2    1    2  501    0  0.62332723869E+01  0.10049706569E+02 -0.98346541893E+03  0.10069757852E+04  0.21600035058E+03 0.  0.
         13    1    3    3    0    0 -0.68990824733E+02  0.25778683925E+02 -0.84829286507E+03  0.85148403354E+03  0.00000000000E+00 0.  1.
          1    1    3    3  501    0  0.75224097120E+02 -0.15728977356E+02 -0.13517255386E+03  0.15549175165E+03  0.00000000000E+00 0.  1.
         21    1    1    2  502  501 -0.62332723869E+01 -0.10049706569E+02  0.25358689842E+01  0.12094664868E+02  0.00000000000E+00 0. -1.
<mgrwt>
<rscale>  1 0.30000000E+03</rscale>
<asrwt>0</asrwt>
<pdfrwt beam="1">  1        1 0.69347237E-01 0.30000000E+03</pdfrwt>
<pdfrwt beam="2">0</pdfrwt>
<totfact> 0.57105231E+01</totfact>
</mgrwt>
</event>
<event>
 6    1  0.1950139E-004  0.3000000E+03  0.7818608E-02  0.1093470E+00
          1   -1    0    0  502    0  0.00000000000E+00  0.00000000000E+00  0.28624305631E+02  0.28624305631E+02  0.00000000000E+00 0.  1.
         13   -1    0    0    0    0 -0.00000000000E+00 -0.00000000000E+00 -0.10000000000E+04  0.10000000000E+04  0.00000000000E+00 0.  1.
    9000005    2    1    2  501    0  0.55441381056E+01  0.24915416132E+02 -0.93156381695E+03  0.98133264662E+03  0.30749163053E+03 0.  0.
         13    1    3    3    0    0 -0.95221181642E+02  0.28929638248E+02 -0.83761449609E+03  0.84350580405E+03  0.00000000000E+00 0.  1.
          1    1    3    3  501    0  0.10076531975E+03 -0.40142221163E+01 -0.93949320855E+02  0.13782684257E+03  0.00000000000E+00 0.  1.
         21    1    1    2  502  501 -0.55441381056E+01 -0.24915416132E+02 -0.39811877421E+02  0.47291659013E+02  0.00000000000E+00 0.  1.
<mgrwt>
<rscale>  1 0.30000000E+03</rscale>
<asrwt>0</asrwt>
<pdfrwt beam="1">  1        1 0.10408860E+00 0.30000000E+03</pdfrwt>
<pdfrwt beam="2">0</pdfrwt>
<totfact> 0.32267226E+01</totfact>
</mgrwt>
</event>
<event>
 6    1  0.1950139E-004  0.3000000E+03  0.7818608E-02  0.1093470E+00
          1   -1    0    0  502    0  0.00000000000E+00  0.00000000000E+00  0.40027279013E+02  0.40027279013E+02  0.00000000000E+00 0.  1.
         13   -1    0    0    0    0 -0.00000000000E+00 -0.00000000000E+00 -0.10000000000E+04  0.10000000000E+04  0.00000000000E+00 0.  1.
    9000005    2    1    2  501    0  0.18210890107E+02 -0.57547146022E+01 -0.96739590742E+03  0.10195368677E+04  0.32130332966E+03 0.  0.
         13    1    3    3    0    0 -0.12520318438E+03  0.56808018009E+02 -0.25035560013E+03  0.28562372941E+03  0.00000000000E+00 0.  1.
          3    1    3    3  501    0  0.14341407448E+03 -0.62562732612E+02 -0.71704030730E+03  0.73391313829E+03  0.00000000000E+00 0.  1.
         21    1    1    2  502  501 -0.18210890107E+02  0.57547146022E+01  0.74231864365E+01  0.20490411306E+02  0.00000000000E+00 0. -1.
<mgrwt>
<rscale>  1 0.30000000E+03</rscale>
<asrwt>0</asrwt>
<pdfrwt beam="1">  1        1 0.14555405E+00 0.30000000E+03</pdfrwt>
<pdfrwt beam="2">0</pdfrwt>
<totfact> 0.18931254E+01</totfact>
</mgrwt>
</event>
<event>
 6    1  0.1950139E-004  0.3000000E+03  0.7818608E-02  0.1093470E+00
          1   -1    0    0  502    0  0.00000000000E+00  0.00000000000E+00  0.27814653365E+02  0.27814653365E+02  0.00000000000E+00 0.  1.
         13   -1    0    0    0    0 -0.00000000000E+00 -0.00000000000E+00 -0.10000000000E+04  0.10000000000E+04  0.00000000000E+00 0.  1.
    9000005    2    1    2  501    0 -0.12398487502E+02 -0.95753864579E-01 -0.95153457034E+03  0.10037275983E+04  0.31921359829E+03 0.  0.
         13    1    3    3    0    0  0.35535335554E+02  0.27166436723E+02 -0.94737111409E+03  0.94842648801E+03  0.00000000000E+00 0.  1.
          1    1    3    3  501    0 -0.47933823056E+02 -0.27262190588E+02 -0.41634562502E+01  0.55301110263E+02  0.00000000000E+00 0.  1.
         21    1    1    2  502  501  0.12398487502E+02  0.95753864579E-01 -0.20650776297E+02  0.24087055088E+02  0.00000000000E+00 0.  1.
<mgrwt>
<rscale>  1 0.30000000E+03</rscale>
<asrwt>0</asrwt>
<pdfrwt beam="1">  1        1 0.10114441E+00 0.30000000E+03</pdfrwt>
<pdfrwt beam="2">0</pdfrwt>
<totfact> 0.33661222E+01</totfact>
</mgrwt>
</event>
<event>
 6    1  0.1950139E-004  0.3000000E+03  0.7818608E-02  0.1093470E+00
          1   -1    0    0  502    0  0.00000000000E+00  0.00000000000E+00  0.10287693468E+03  0.10287693468E+03  0.00000000000E+00 0.  1.
         13   -1    0    0    0    0 -0.00000000000E+00 -0.00000000000E+00 -0.10000000000E+04  0.10000000000E+04  0.00000000000E+00 0.  1.
    9000005    2    1    2  501    0  0.22827273680E+00  0.25124081914E+02 -0.97224716512E+03  0.10236626558E+04  0.31935781075E+03 0.  0.
         13    1    3    3    0    0  0.26560510417E+02 -0.75615206666E+02 -0.88269506332E+03  0.88632595303E+03  0.00000000000E+00 0.  1.
          3    1    3    3  501    0 -0.26332237680E+02  0.10073928858E+03 -0.89552101796E+02  0.13733670282E+03  0.00000000000E+00 0.  1.
         21    1    1    2  502  501 -0.22827273680E+00 -0.25124081914E+02  0.75124099803E+02  0.79214278837E+02  0.00000000000E+00 0.  1.
<mgrwt>
<rscale>  1 0.30000000E+03</rscale>
<asrwt>0</asrwt>
<pdfrwt beam="1">  1        1 0.37409873E+00 0.30000000E+03</pdfrwt>
<pdfrwt beam="2">0</pdfrwt>
<totfact> 0.14670160E+00</totfact>
</mgrwt>
</event>
<event>
 6    1  0.1950139E-004  0.3000000E+03  0.7818608E-02  0.1093470E+00
          1   -1    0    0  502    0  0.00000000000E+00  0.00000000000E+00  0.47052455436E+02  0.47052455436E+02  0.00000000000E+00 0.  1.
         13   -1    0    0    0    0 -0.00000000000E+00 -0.00000000000E+00 -0.10000000000E+04  0.10000000000E+04  0.00000000000E+00 0.  1.
    9000005    2    1    2  501    0  0.59411211085E+02 -0.46799887118E+02 -0.88304461818E+03  0.94406536618E+03  0.32522560859E+03 0.  0.
         13    1    3    3    0    0  0.14127548851E+03 -0.40209988085E+02 -0.83723900303E+03  0.85002632606E+03  0.00000000000E+00 0.  1.
          3    1    3    3  501    0 -0.81864277425E+02 -0.65898990327E+01 -0.45805615148E+02  0.94039040120E+02  0.00000000000E+00 0.  1.
         21    1    1    2  502  501 -0.59411211085E+02  0.46799887118E+02 -0.69902926386E+02  0.10298708926E+03  0.00000000000E+00 0.  1.
<mgrwt>
<rscale>  1 0.30000000E+03</rscale>
<asrwt>0</asrwt>
<pdfrwt beam="1">  1        1 0.17110020E+00 0.30000000E+03</pdfrwt>
<pdfrwt beam="2">0</pdfrwt>
<totfact> 0.14111521E+01</totfact>
</mgrwt>
</event>
<event>
 6    1  0.1950139E-004  0.3000000E+03  0.7818608E-02  0.1093470E+00
          1   -1    0    0  502    0  0.00000000000E+00  0.00000000000E+00  0.77310533840E+02  0.77310533840E+02  0.00000000000E+00 0.  1.
         13   -1    0    0    0    0 -0.00000000000E+00 -0.00000000000E+00 -0.10000000000E+04  0.10000000000E+04  0.00000000000E+00 0.  1.
    9000005    2    1    2  501    0 -0.13554340447E+02 -0.23486647816E+02 -0.97115226953E+03  0.10217768856E+04  0.31647421800E+03 0.  0.
         13    1    3    3    0    0 -0.34100951455E+02  0.98817490680E+01 -0.98078178134E+03  0.98142418274E+03  0.00000000000E+00 0.  1.
          1    1    3    3  501    0  0.20546611008E+02 -0.33368396884E+02  0.96295118076E+01  0.40352702910E+02  0.00000000000E+00 0.  1.
         21    1    1    2  502  501  0.13554340447E+02  0.23486647816E+02  0.48462803373E+02  0.55533648191E+02  0.00000000000E+00 0.  1.
<mgrwt>
<rscale>  1 0.30000000E+03</rscale>
<asrwt>0</asrwt>
<pdfrwt beam="1">  1        1 0.28112981E+00 0.30000000E+03</pdfrwt>
<pdfrwt beam="2">0</pdfrwt>
<totfact> 0.42657831E+00</totfact>
</mgrwt>
</event>
<event>
 6    1  0.1950139E-004  0.3000000E+03  0.7818608E-02  0.1093470E+00
          1   -1    0    0  502    0  0.00000000000E+00  0.00000000000E+00  0.44057411628E+02  0.44057411628E+02  0.00000000000E+00 0.  1.
         13   -1    0    0    0    0 -0.00000000000E+00 -0.00000000000E+00 -0.10000000000E+04  0.10000000000E+04  0.00000000000E+00 0.  1.
    9000005    2    1    2  501    0 -0.59484795240E+01 -0.74667412654E+02 -0.84279299192E+03  0.90836128752E+03  0.33046874967E+03 0.  0.
         13    1    3    3    0    0  0.32448714223E+02  0.12625713133E+03 -0.26288841248E+03  0.29343500078E+03  0.00000000000E+00 0.  1.
          3    1    3    3  501    0 -0.38397193747E+02 -0.20092454399E+03 -0.57990457944E+03  0.61492628674E+03  0.00000000000E+00 0.  1.
         21    1    1    2  502  501  0.59484795240E+01  0.74667412654E+02 -0.11314959645E+03  0.13569612411E+03  0.00000000000E+00 0.  1.
<mgrwt>
<rscale>  1 0.30000000E+03</rscale>
<asrwt>0</asrwt>
<pdfrwt beam="1">  1        1 0.16020911E+00 0.30000000E+03</pdfrwt>
<pdfrwt beam="2">0</pdfrwt>
<totfact> 0.15964821E+01</totfact>
</mgrwt>
</event>
<event>
 6    1  0.1950139E-004  0.3000000E+03  0.7818608E-02  0.1093470E+00
          1   -1    0    0  502    0  0.00000000000E+00  0.00000000000E+00  0.30242393363E+02  0.30242393363E+02  0.00000000000E+00 0.  1.
         13   -1    0    0    0    0 -0.00000000000E+00 -0.00000000000E+00 -0.10000000000E+04  0.10000000000E+04  0.00000000000E+00 0.  1.
    9000005    2    1    2  501    0 -0.59778508085E+01 -0.11627436549E+02 -0.96851594663E+03  0.10171094691E+04  0.31035077125E+03 0.  0.
         13    1    3    3    0    0  0.98385391564E+02 -0.45974511006E+02 -0.84438127794E+03  0.85133605789E+03  0.00000000000E+00 0.  1.
          3    1    3    3  501    0 -0.10436324237E+03  0.34347074457E+02 -0.12413466869E+03  0.16577341117E+03  0.00000000000E+00 0.  1.
         21    1    1    2  502  501  0.59778508085E+01  0.11627436549E+02 -0.12416600111E+01  0.13132924296E+02  0.00000000000E+00 0.  1.
<mgrwt>
<rscale>  1 0.30000000E+03</rscale>
<asrwt>0</asrwt>
<pdfrwt beam="1">  1        1 0.10997257E+00 0.30000000E+03</pdfrwt>
<pdfrwt beam="2">0</pdfrwt>
<totfact> 0.29720828E+01</totfact>
</mgrwt>
</event>
<event>
 6    1  0.1950139E-004  0.3000000E+03  0.7818608E-02  0.1093470E+00
          1   -1    0    0  502    0  0.00000000000E+00  0.00000000000E+00  0.59657421768E+02  0.59657421768E+02  0.00000000000E+00 0.  1.
         13   -1    0    0    0    0 -0.00000000000E+00 -0.00000000000E+00 -0.10000000000E+04  0.10000000000E+04  0.00000000000E+00 0.  1.
    9000005    2    1    2  501    0  0.12801985901E+03  0.99182882897E+02 -0.71663105707E+03  0.78348143935E+03  0.27213372687E+03 0.  0.
         13    1    3    3    0    0  0.19327724828E+03  0.12257169236E+03 -0.64222572707E+03  0.68178720945E+03  0.00000000000E+00 0.  1.
          1    1    3    3  501    0 -0.65257389269E+02 -0.23388809461E+02 -0.74405329999E+02  0.10169422990E+03  0.00000000000E+00 0.  1.
         21    1    1    2  502  501 -0.12801985901E+03 -0.99182882897E+02 -0.22371152117E+03  0.27617598242E+03  0.00000000000E+00 0.  1.
<mgrwt>
<rscale>  1 0.30000000E+03</rscale>
<asrwt>0</asrwt>
<pdfrwt beam="1">  1        1 0.21693654E+00 0.30000000E+03</pdfrwt>
<pdfrwt beam="2">0</pdfrwt>
<totfact> 0.85206163E+00</totfact>
</mgrwt>
</event>
<event>
 6    1  0.1950139E-004  0.3000000E+03  0.7818608E-02  0.1093470E+00
          1   -1    0    0  502    0  0.00000000000E+00  0.00000000000E+00  0.31973350344E+02  0.31973350344E+02  0.00000000000E+00 0.  1.
         13   -1    0    0    0    0 -0.00000000000E+00 -0.00000000000E+00 -0.10000000000E+04  0.10000000000E+04  0.00000000000E+00 0.  1.
    9000005    2    1    2  501    0  0.27572081856E+02  0.48857044524E+02 -0.94939237671E+03  0.97285933656E+03  0.20484670678E+03 0.  0.
         13    1    3    3    0    0 -0.79593390635E+02  0.57071918549E+02 -0.33061114430E+03  0.34481305146E+03  0.00000000000E+00 0.  1.
          3    1    3    3  501    0  0.10716547249E+03 -0.82148740246E+01 -0.61878123241E+03  0.62804628510E+03  0.00000000000E+00 0.  1.
         21    1    1    2  502  501 -0.27572081856E+02 -0.48857044524E+02 -0.18634272948E+02  0.59114013785E+02  0.00000000000E+00 0.  1.
<mgrwt>
<rscale>  1 0.30000000E+03</rscale>
<asrwt>0</asrwt>
<pdfrwt beam="1">  1        1 0.11626697E+00 0.30000000E+03</pdfrwt>
<pdfrwt beam="2">0</pdfrwt>
<totfact> 0.27302266E+01</totfact>
</mgrwt>
</event>
<event>
 6    1  0.1950139E-004  0.3000000E+03  0.7818608E-02  0.1093470E+00
          1   -1    0    0  502    0  0.00000000000E+00  0.00000000000E+00  0.83333742615E+02  0.83333742615E+02  0.00000000000E+00 0.  1.
         13   -1    0    0    0    0 -0.00000000000E+00 -0.00000000000E+00 -0.10000000000E+04  0.10000000000E+04  0.00000000000E+00 0.  1.
    9000005    2    1    2  501    0  0.16492261421E+03  0.25902415901E+02 -0.75433176317E+03  0.85047564883E+03  0.35555873847E+03 0.  0.
         13    1    3    3    0    0  0.63774517016E+02 -0.16441913230E+03 -0.36852140362E+03  0.40854481396E+03  0.00000000000E+00 0.  1.
          1    1    3    3  501    0  0.10114809720E+03  0.19032154820E+03 -0.38581035955E+03  0.44193083487E+03  0.00000000000E+00 0.  1.
         21    1    1    2  502  501 -0.16492261421E+03 -0.25902415901E+02 -0.16233449422E+03  0.23285809379E+03  0.00000000000E+00 0.  1.
<mgrwt>
<rscale>  1 0.30000000E+03</rscale>
<asrwt>0</asrwt>
<pdfrwt beam="1">  1        1 0.30303243E+00 0.30000000E+03</pdfrwt>
<pdfrwt beam="2">0</pdfrwt>
<totfact> 0.33610267E+00</totfact>
</mgrwt>
</event>
<event>
 6    1  0.1950139E-004  0.3000000E+03  0.7818608E-02  0.1093470E+00
          1   -1    0    0  502    0  0.00000000000E+00  0.00000000000E+00  0.27472841442E+02  0.27472841442E+02  0.00000000000E+00 0.  1.
         13   -1    0    0    0    0 -0.00000000000E+00 -0.00000000000E+00 -0.10000000000E+04  0.10000000000E+04  0.00000000000E+00 0.  1.
    9000005    2    1    2  501    0 -0.19743385043E+01 -0.98875537399E+01 -0.96356183429E+03  0.10139806670E+04  0.31560057486E+03 0.  0.
         13    1    3    3    0    0  0.11264937627E+03  0.28632088665E+02 -0.81110299008E+03  0.81938863733E+03  0.00000000000E+00 0.  1.
          3    1    3    3  501    0 -0.11462371477E+03 -0.38519642405E+02 -0.15245884421E+03  0.19459202968E+03  0.00000000000E+00 0.  1.
         21    1    1    2  502  501  0.19743385043E+01  0.98875537399E+01 -0.89653242705E+01  0.13492174427E+02  0.00000000000E+00 0.  1.
<mgrwt>
<rscale>  1 0.30000000E+03</rscale>
<asrwt>0</asrwt>
<pdfrwt beam="1">  1        1 0.99901452E-01 0.30000000E+03</pdfrwt>
<pdfrwt beam="2">0</pdfrwt>
<totfact> 0.34276319E+01</totfact>
</mgrwt>
</event>
<event>
 6    1  0.1950139E-004  0.3000000E+03  0.7818608E-02  0.1093470E+00
          1   -1    0    0  502    0  0.00000000000E+00  0.00000000000E+00  0.46919515569E+02  0.46919515569E+02  0.00000000000E+00 0.  1.
         13   -1    0    0    0    0 -0.00000000000E+00 -0.00000000000E+00 -0.10000000000E+04  0.10000000000E+04  0.00000000000E+00 0.  1.
    9000005    2    1    2  501    0 -0.12371807487E+02 -0.94844974218E+01 -0.97078620473E+03  0.10233290547E+04  0.32331638006E+03 0.  0.
         13    1    3    3    0    0  0.61503457369E+02  0.24446505954E+02 -0.20093506316E+02  0.69166870088E+02  0.00000000000E+00 0.  1.
          1    1    3    3  501    0 -0.73875264857E+02 -0.33931003376E+02 -0.95069269842E+03  0.95416218463E+03  0.00000000000E+00 0.  1.
         21    1    1    2  502  501  0.12371807487E+02  0.94844974218E+01  0.17705720302E+02  0.23590460853E+02  0.00000000000E+00 0.  1.
<mgrwt>
<rscale>  1 0.30000000E+03</rscale>
<asrwt>0</asrwt>
<pdfrwt beam="1">  1        1 0.17061678E+00 0.30000000E+03</pdfrwt>
<pdfrwt beam="2">0</pdfrwt>
<totfact> 0.14188410E+01</totfact>
</mgrwt>
</event>
<event>
 6    1  0.1950139E-004  0.3000000E+03  0.7818608E-02  0.1093470E+00
          1   -1    0    0  502    0  0.00000000000E+00  0.00000000000E+00  0.31747677385E+02  0.31747677385E+02  0.00000000000E+00 0.  1.
         13   -1    0    0    0    0 -0.00000000000E+00 -0.00000000000E+00 -0.10000000000E+04  0.10000000000E+04  0.00000000000E+00 0.  1.
    9000005    2    1    2  501    0 -0.53802163332E+01 -0.11446303251E+02 -0.95652375596E+03  0.10144987974E+04  0.33780193837E+03 0.  0.
         13    1    3    3    0    0  0.14509379550E+03 -0.37259600093E+02 -0.24815551938E+03  0.28986488074E+03  0.00000000000E+00 0.  1.
          1    1    3    3  501    0 -0.15047401183E+03  0.25813296842E+02 -0.70836823658E+03  0.72463391663E+03  0.00000000000E+00 0.  1.
         21    1    1    2  502  501  0.53802163332E+01  0.11446303251E+02 -0.11728566657E+02  0.17248880014E+02  0.00000000000E+00 0. -1.
<mgrwt>
<rscale>  1 0.30000000E+03</rscale>
<asrwt>0</asrwt>
<pdfrwt beam="1">  1        1 0.11544634E+00 0.30000000E+03</pdfrwt>
<pdfrwt beam="2">0</pdfrwt>
<totfact> 0.27601468E+01</totfact>
</mgrwt>
</event>
<event>
 6    1  0.1950139E-004  0.3000000E+03  0.7818608E-02  0.1093470E+00
          1   -1    0    0  502    0  0.00000000000E+00  0.00000000000E+00  0.33327553664E+02  0.33327553664E+02  0.00000000000E+00 0.  1.
         13   -1    0    0    0    0 -0.00000000000E+00 -0.00000000000E+00 -0.10000000000E+04  0.10000000000E+04  0.00000000000E+00 0.  1.
    9000005    2    1    2  501    0 -0.18506747744E+02  0.16998565192E+01 -0.94081658497E+03  0.10014855250E+04  0.34277109118E+03 0.  0.
         13    1    3    3    0    0 -0.89609996990E+02  0.13414120087E+03 -0.27423349836E+03  0.31816320490E+03  0.00000000000E+00 0.  1.
          1    1    3    3  501    0  0.71103249246E+02 -0.13244134435E+03 -0.66658308661E+03  0.68332232007E+03  0.00000000000E+00 0.  1.
         21    1    1    2  502  501  0.18506747744E+02 -0.16998565192E+01 -0.25855861365E+02  0.31842028692E+02  0.00000000000E+00 0.  1.
<mgrwt>
<rscale>  1 0.30000000E+03</rscale>
<asrwt>0</asrwt>
<pdfrwt beam="1">  1        1 0.12119136E+00 0.30000000E+03</pdfrwt>
<pdfrwt beam="2">0</pdfrwt>
<totfact> 0.25596947E+01</totfact>
</mgrwt>
</event>
<event>
 6    1  0.1950139E-004  0.3000000E+03  0.7818608E-02  0.1093470E+00
          3   -1    0    0  502    0  0.00000000000E+00  0.00000000000E+00  0.29680801107E+02  0.29680801107E+02  0.00000000000E+00 0.  1.
         13   -1    0    0    0    0 -0.00000000000E+00 -0.00000000000E+00 -0.10000000000E+04  0.10000000000E+04  0.00000000000E+00 0.  1.
    9000005    2    1    2  501    0  0.14668856318E+02  0.44272229526E+01 -0.92985880757E+03  0.98641627852E+03  0.32885391417E+03 0.  0.
         13    1    3    3    0    0 -0.12969626928E+03 -0.63130743608E+01 -0.71909688600E+03  0.73072656214E+03  0.00000000000E+00 0.  1.
          3    1    3    3  501    0  0.14436512560E+03  0.10740297313E+02 -0.21076192158E+03  0.25568971638E+03  0.00000000000E+00 0.  1.
         21    1    1    2  502  501 -0.14668856318E+02 -0.44272229526E+01 -0.40460391320E+02  0.43264522585E+02  0.00000000000E+00 0. -1.
<mgrwt>
<rscale>  1 0.30000000E+03</rscale>
<asrwt>0</asrwt>
<pdfrwt beam="1">  1        3 0.10793041E+00 0.30000000E+03</pdfrwt>
<pdfrwt beam="2">0</pdfrwt>
<totfact> 0.31817567E+00</totfact>
</mgrwt>
</event>
<event>
 6    1  0.1950139E-004  0.3000000E+03  0.7818608E-02  0.1093470E+00
          1   -1    0    0  502    0  0.00000000000E+00  0.00000000000E+00  0.30546337423E+02  0.30546337423E+02  0.00000000000E+00 0.  1.
         13   -1    0    0    0    0 -0.00000000000E+00 -0.00000000000E+00 -0.10000000000E+04  0.10000000000E+04  0.00000000000E+00 0.  1.
    9000005    2    1    2  501    0 -0.77376476753E+01  0.66038603715E+01 -0.92335642366E+03  0.98334000735E+03  0.33803402606E+03 0.  0.
         13    1    3    3    0    0  0.22861189749E+02 -0.62746296732E+02 -0.10809610741E+02  0.67650420801E+02  0.00000000000E+00 0.  1.
          1    1    3    3  501    0 -0.30598837424E+02  0.69350157103E+02 -0.91254681292E+03  0.91568958655E+03  0.00000000000E+00 0.  1.
         21    1    1    2  502  501  0.77376476753E+01 -0.66038603715E+01 -0.46097238915E+02  0.47206330072E+02  0.00000000000E+00 0. -1.
<mgrwt>
<rscale>  1 0.30000000E+03</rscale>
<asrwt>0</asrwt>
<pdfrwt beam="1">  1        1 0.11107782E+00 0.30000000E+03</pdfrwt>
<pdfrwt beam="2">0</pdfrwt>
<totfact> 0.29274734E+01</totfact>
</mgrwt>
</event>
<event>
 6    1  0.1950139E-004  0.3000000E+03  0.7818608E-02  0.1093470E+00
          3   -1    0    0  502    0  0.00000000000E+00  0.00000000000E+00  0.27904389645E+02  0.27904389645E+02  0.00000000000E+00 0.  1.
         13   -1    0    0    0    0 -0.00000000000E+00 -0.00000000000E+00 -0.10000000000E+04  0.10000000000E+04  0.00000000000E+00 0.  1.
    9000005    2    1    2  501    0  0.73999943930E+01 -0.19653035474E+02 -0.94460572085E+03  0.99331109918E+03  0.30650606873E+03 0.  0.
         13    1    3    3    0    0 -0.32361537897E+02 -0.12456087136E+03 -0.18438469363E+03  0.22485638762E+03  0.00000000000E+00 0.  1.
          1    1    3    3  501    0  0.39761532290E+02  0.10490783589E+03 -0.76022102722E+03  0.76845471156E+03  0.00000000000E+00 0.  1.
         21    1    1    2  502  501 -0.73999943930E+01  0.19653035474E+02 -0.27489889504E+02  0.34593290466E+02  0.00000000000E+00 0.  1.
<mgrwt>
<rscale>  1 0.30000000E+03</rscale>
<asrwt>0</asrwt>
<pdfrwt beam="1">  1        3 0.10147072E+00 0.30000000E+03</pdfrwt>
<pdfrwt beam="2">0</pdfrwt>
<totfact> 0.37688188E+00</totfact>
</mgrwt>
</event>
<event>
 6    1  0.1950139E-004  0.3000000E+03  0.7818608E-02  0.1093470E+00
          1   -1    0    0  502    0  0.00000000000E+00  0.00000000000E+00  0.32792975735E+02  0.32792975735E+02  0.00000000000E+00 0.  1.
         13   -1    0    0    0    0 -0.00000000000E+00 -0.00000000000E+00 -0.10000000000E+04  0.10000000000E+04  0.00000000000E+00 0.  1.
    9000005    2    1    2  501    0 -0.85121179758E+01 -0.24164134501E+02 -0.94225955340E+03  0.99703353151E+03  0.32490988818E+03 0.  0.
         13    1    3    3    0    0  0.10978662919E+03  0.14072308758E+02 -0.11181090733E+03  0.15733026670E+03  0.00000000000E+00 0.  1.
          1    1    3    3  501    0 -0.11829874716E+03 -0.38236443259E+02 -0.83044864607E+03  0.83970326481E+03  0.00000000000E+00 0.  1.
         21    1    1    2  502  501  0.85121179758E+01  0.24164134501E+02 -0.24947470866E+02  0.35759444224E+02  0.00000000000E+00 0. -1.
<mgrwt>
<rscale>  1 0.30000000E+03</rscale>
<asrwt>0</asrwt>
<pdfrwt beam="1">  1        1 0.11924744E+00 0.30000000E+03</pdfrwt>
<pdfrwt beam="2">0</pdfrwt>
<totfact> 0.26252410E+01</totfact>
</mgrwt>
</event>
<event>
 6    1  0.1950139E-004  0.3000000E+03  0.7818608E-02  0.1093470E+00
          1   -1    0    0  502    0  0.00000000000E+00  0.00000000000E+00  0.28837245328E+02  0.28837245328E+02  0.00000000000E+00 0.  1.
         13   -1    0    0    0    0 -0.00000000000E+00 -0.00000000000E+00 -0.10000000000E+04  0.10000000000E+04  0.00000000000E+00 0.  1.
    9000005    2    1    2  501    0 -0.29406330883E+01  0.10834407244E+02 -0.95750634603E+03  0.10111587499E+04  0.32480391489E+03 0.  0.
         13    1    3    3    0    0  0.52977178772E+02  0.11719798671E+03 -0.16307556606E+03  0.20769109226E+03  0.00000000000E+00 0.  1.
          3    1    3    3  501    0 -0.55917811860E+02 -0.10636357947E+03 -0.79443077997E+03  0.80346765764E+03  0.00000000000E+00 0.  1.
         21    1    1    2  502  501  0.29406330883E+01 -0.10834407244E+02 -0.13656408647E+02  0.17678495423E+02  0.00000000000E+00 0.  1.
<mgrwt>
<rscale>  1 0.30000000E+03</rscale>
<asrwt>0</asrwt>
<pdfrwt beam="1">  1        1 0.10486293E+00 0.30000000E+03</pdfrwt>
<pdfrwt beam="2">0</pdfrwt>
<totfact> 0.31914570E+01</totfact>
</mgrwt>
</event>
<event>
 6    1  0.1950139E-004  0.3000000E+03  0.7818608E-02  0.1093470E+00
          1   -1    0    0  502    0  0.00000000000E+00  0.00000000000E+00  0.32199972906E+02  0.32199972906E+02  0.00000000000E+00 0.  1.
         13   -1    0    0    0    0 -0.00000000000E+00 -0.00000000000E+00 -0.10000000000E+04  0.10000000000E+04  0.00000000000E+00 0.  1.
    9000005    2    1    2  501    0  0.16978815655E+02  0.22660251012E+02 -0.93684514464E+03  0.99024795383E+03  0.31954720757E+03 0.  0.
         13    1    3    3    0    0  0.13691935503E+03  0.79795865956E+02 -0.70903194694E+03  0.72652638754E+03  0.00000000000E+00 0.  1.
          1    1    3    3  501    0 -0.11994053938E+03 -0.57135614943E+02 -0.22781319770E+03  0.26372156629E+03  0.00000000000E+00 0.  1.
         21    1    1    2  502  501 -0.16978815655E+02 -0.22660251012E+02 -0.30954882452E+02  0.41952019077E+02  0.00000000000E+00 0.  1.
<mgrwt>
<rscale>  1 0.30000000E+03</rscale>
<asrwt>0</asrwt>
<pdfrwt beam="1">  1        1 0.11709106E+00 0.30000000E+03</pdfrwt>
<pdfrwt beam="2">0</pdfrwt>
<totfact> 0.27006312E+01</totfact>
</mgrwt>
</event>
<event>
 6    1  0.1950139E-004  0.3000000E+03  0.7818608E-02  0.1093470E+00
          1   -1    0    0  502    0  0.00000000000E+00  0.00000000000E+00  0.29008527052E+02  0.29008527052E+02  0.00000000000E+00 0.  1.
         13   -1    0    0    0    0 -0.00000000000E+00 -0.00000000000E+00 -0.10000000000E+04  0.10000000000E+04  0.00000000000E+00 0.  1.
    9000005    2    1    2  501    0  0.87404267219E+01 -0.90469275689E+01 -0.94472229064E+03  0.99988273270E+03  0.32727210507E+03 0.  0.
         13    1    3    3    0    0 -0.14150247824E+03 -0.71404977497E+02 -0.36853015505E+03  0.40116841518E+03  0.00000000000E+00 0.  1.
          1    1    3    3  501    0  0.15024290496E+03  0.62358049929E+02 -0.57619213559E+03  0.59871431752E+03  0.00000000000E+00 0.  1.
         21    1    1    2  502  501 -0.87404267219E+01  0.90469275689E+01 -0.26269182306E+02  0.29125794354E+02  0.00000000000E+00 0. -1.
<mgrwt>
<rscale>  1 0.30000000E+03</rscale>
<asrwt>0</asrwt>
<pdfrwt beam="1">  1        1 0.10548578E+00 0.30000000E+03</pdfrwt>
<pdfrwt beam="2">0</pdfrwt>
<totfact> 0.31634942E+01</totfact>
</mgrwt>
</event>
<event>
 6    1  0.1950139E-004  0.3000000E+03  0.7818608E-02  0.1093470E+00
          1   -1    0    0  502    0  0.00000000000E+00  0.00000000000E+00  0.47383160224E+02  0.47383160224E+02  0.00000000000E+00 0.  1.
         13   -1    0    0    0    0 -0.00000000000E+00 -0.00000000000E+00 -0.10000000000E+04  0.10000000000E+04  0.00000000000E+00 0.  1.
    9000005    2    1    2  501    0 -0.19150504108E+02  0.91443553103E+01 -0.96775385344E+03  0.10213161269E+04  0.32571267897E+03 0.  0.
         13    1    3    3    0    0  0.60792531908E+02 -0.71999702585E+02 -0.72630864919E+02  0.11897449999E+03  0.00000000000E+00 0.  1.
          3    1    3    3  501    0 -0.79943036016E+02  0.81144057896E+02 -0.89512298853E+03  0.90234162695E+03  0.00000000000E+00 0.  1.
         21    1    1    2  502  501  0.19150504108E+02 -0.91443553103E+01  0.15137013669E+02  0.26067033288E+02  0.00000000000E+00 0.  1.
<mgrwt>
<rscale>  1 0.30000000E+03</rscale>
<asrwt>0</asrwt>
<pdfrwt beam="1">  1        1 0.17230276E+00 0.30000000E+03</pdfrwt>
<pdfrwt beam="2">0</pdfrwt>
<totfact> 0.13922266E+01</totfact>
</mgrwt>
</event>
<event>
 6    1  0.1950139E-004  0.3000000E+03  0.7818608E-02  0.1093470E+00
          3   -1    0    0  502    0  0.00000000000E+00  0.00000000000E+00  0.32199938447E+02  0.32199938447E+02  0.00000000000E+00 0.  1.
         13   -1    0    0    0    0 -0.00000000000E+00 -0.00000000000E+00 -0.10000000000E+04  0.10000000000E+04  0.00000000000E+00 0.  1.
    9000005    2    1    2  501    0  0.15329744753E+02 -0.69606699972E+01 -0.96018593166E+03  0.10137221958E+04  0.32464167140E+03 0.  0.
         13    1    3    3    0    0 -0.15350655681E+03  0.13324328683E+02 -0.49512707479E+03  0.51854857140E+03  0.00000000000E+00 0.  1.
          3    1    3    3  501    0  0.16883630156E+03 -0.20284998680E+02 -0.46505885687E+03  0.49517362435E+03  0.00000000000E+00 0.  1.
         21    1    1    2  502  501 -0.15329744753E+02  0.69606699972E+01 -0.76141298938E+01  0.18477742693E+02  0.00000000000E+00 0.  1.
<mgrwt>
<rscale>  1 0.30000000E+03</rscale>
<asrwt>0</asrwt>
<pdfrwt beam="1">  1        3 0.11709093E+00 0.30000000E+03</pdfrwt>
<pdfrwt beam="2">0</pdfrwt>
<totfact> 0.24993600E+00</totfact>
</mgrwt>
</event>
<event>
 6    1  0.1950139E-004  0.3000000E+03  0.7818608E-02  0.1093470E+00
          1   -1    0    0  502    0  0.00000000000E+00  0.00000000000E+00  0.53696478952E+02  0.53696478952E+02  0.00000000000E+00 0.  1.
         13   -1    0    0    0    0 -0.00000000000E+00 -0.00000000000E+00 -0.10000000000E+04  0.10000000000E+04  0.00000000000E+00 0.  1.
    9000005    2    1    2  501    0 -0.52458544556E+01  0.62346876677E+02 -0.92803322058E+03  0.98851629869E+03  0.33467022911E+03 0.  0.
         13    1    3    3    0    0 -0.31726149552E+02 -0.87889160594E+02 -0.69288844139E+02  0.11632711222E+03  0.00000000000E+00 0.  1.
          3    1    3    3  501    0  0.26480295097E+02  0.15023603727E+03 -0.85874437644E+03  0.87218918647E+03  0.00000000000E+00 0.  1.
         21    1    1    2  502  501  0.52458544556E+01 -0.62346876677E+02 -0.18270300471E+02  0.65180180267E+02  0.00000000000E+00 0.  1.
<mgrwt>
<rscale>  1 0.30000000E+03</rscale>
<asrwt>0</asrwt>
<pdfrwt beam="1">  1        1 0.19526034E+00 0.30000000E+03</pdfrwt>
<pdfrwt beam="2">0</pdfrwt>
<totfact> 0.10789779E+01</totfact>
</mgrwt>
</event>
<event>
 6    1  0.1950139E-004  0.3000000E+03  0.7818608E-02  0.1093470E+00
          1   -1    0    0  502    0  0.00000000000E+00  0.00000000000E+00  0.30662675810E+02  0.30662675810E+02  0.00000000000E+00 0.  1.
         13   -1    0    0    0    0 -0.00000000000E+00 -0.00000000000E+00 -0.10000000000E+04  0.10000000000E+04  0.00000000000E+00 0.  1.
    9000005    2    1    2  501    0  0.38959310718E+01  0.12895675686E+02 -0.95269135752E+03  0.10092485464E+04  0.33283679044E+03 0.  0.
         13    1    3    3    0    0  0.11923058224E+03  0.63375996929E+02 -0.17299534246E+03  0.21945349677E+03  0.00000000000E+00 0.  1.
          1    1    3    3  501    0 -0.11533465117E+03 -0.50480321243E+02 -0.77969601506E+03  0.78979504967E+03  0.00000000000E+00 0.  1.
         21    1    1    2  502  501 -0.38959310718E+01 -0.12895675686E+02 -0.16645966669E+02  0.21414129370E+02  0.00000000000E+00 0.  1.
<mgrwt>
<rscale>  1 0.30000000E+03</rscale>
<asrwt>0</asrwt>
<pdfrwt beam="1">  1        1 0.11150087E+00 0.30000000E+03</pdfrwt>
<pdfrwt beam="2">0</pdfrwt>
<totfact> 0.29106491E+01</totfact>
</mgrwt>
</event>
<event>
 6    1  0.1950139E-004  0.3000000E+03  0.7818608E-02  0.1093470E+00
          1   -1    0    0  502    0  0.00000000000E+00  0.00000000000E+00  0.88572935538E+02  0.88572935538E+02  0.00000000000E+00 0.  1.
         13   -1    0    0    0    0 -0.00000000000E+00 -0.00000000000E+00 -0.10000000000E+04  0.10000000000E+04  0.00000000000E+00 0.  1.
    9000005    2    1    2  501    0  0.34695655247E+02  0.19035180975E+03 -0.72918296665E+03  0.82277129680E+03  0.32834007982E+03 0.  0.
         13    1    3    3    0    0  0.10216405501E+03  0.89182011967E+02 -0.70282207216E+02  0.15274329460E+03  0.00000000000E+00 0.  1.
          1    1    3    3  501    0 -0.67468399758E+02  0.10116979778E+03 -0.65890075944E+03  0.67002800220E+03  0.00000000000E+00 0.  1.
         21    1    1    2  502  501 -0.34695655247E+02 -0.19035180975E+03 -0.18224409781E+03  0.26580163874E+03  0.00000000000E+00 0.  1.
<mgrwt>
<rscale>  1 0.30000000E+03</rscale>
<asrwt>0</asrwt>
<pdfrwt beam="1">  1        1 0.32208408E+00 0.30000000E+03</pdfrwt>
<pdfrwt beam="2">0</pdfrwt>
<totfact> 0.27200480E+00</totfact>
</mgrwt>
</event>
<event>
 6    1  0.1950139E-004  0.3000000E+03  0.7818608E-02  0.1093470E+00
          1   -1    0    0  502    0  0.00000000000E+00  0.00000000000E+00  0.41252019489E+02  0.41252019489E+02  0.00000000000E+00 0.  1.
         13   -1    0    0    0    0 -0.00000000000E+00 -0.00000000000E+00 -0.10000000000E+04  0.10000000000E+04  0.00000000000E+00 0.  1.
    9000005    2    1    2  501    0 -0.43054390929E+02 -0.18460074133E+02 -0.91717951640E+03  0.97862301563E+03  0.33806846424E+03 0.  0.
         13    1    3    3    0    0 -0.11563696519E+03  0.12654515032E+03 -0.36731367464E+03  0.40534543091E+03  0.00000000000E+00 0.  1.
          3    1    3    3  501    0  0.72582574261E+02 -0.14500522446E+03 -0.54986584176E+03  0.57327758472E+03  0.00000000000E+00 0.  1.
         21    1    1    2  502  501  0.43054390929E+02  0.18460074133E+02 -0.41568464115E+02  0.62629003857E+02  0.00000000000E+00 0.  1.
<mgrwt>
<rscale>  1 0.30000000E+03</rscale>
<asrwt>0</asrwt>
<pdfrwt beam="1">  1        1 0.15000766E+00 0.30000000E+03</pdfrwt>
<pdfrwt beam="2">0</pdfrwt>
<totfact> 0.17963344E+01</totfact>
</mgrwt>
</event>
<event>
 6    1  0.1950139E-004  0.3000000E+03  0.7818608E-02  0.1093470E+00
          1   -1    0    0  502    0  0.00000000000E+00  0.00000000000E+00  0.29759599367E+02  0.29759599367E+02  0.00000000000E+00 0.  1.
         13   -1    0    0    0    0 -0.00000000000E+00 -0.00000000000E+00 -0.10000000000E+04  0.10000000000E+04  0.00000000000E+00 0.  1.
    9000005    2    1    2  501    0  0.17102406169E+02 -0.70112866373E+01 -0.94447689857E+03  0.99805142257E+03  0.32206890525E+03 0.  0.
         13    1    3    3    0    0  0.75622745511E+02  0.81003839272E+02 -0.84716438924E+03  0.85438160327E+03  0.00000000000E+00 0.  1.
          1    1    3    3  501    0 -0.58520339343E+02 -0.88015125909E+02 -0.97312509334E+02  0.14366981930E+03  0.00000000000E+00 0.  1.
         21    1    1    2  502  501 -0.17102406169E+02  0.70112866373E+01 -0.25763502061E+02  0.31708176793E+02  0.00000000000E+00 0.  1.
<mgrwt>
<rscale>  1 0.30000000E+03</rscale>
<asrwt>0</asrwt>
<pdfrwt beam="1">  1        1 0.10821695E+00 0.30000000E+03</pdfrwt>
<pdfrwt beam="2">0</pdfrwt>
<totfact> 0.30449518E+01</totfact>
</mgrwt>
</event>
<event>
 6    1  0.1950139E-004  0.3000000E+03  0.7818608E-02  0.1093470E+00
          1   -1    0    0  502    0  0.00000000000E+00  0.00000000000E+00  0.38283870948E+02  0.38283870948E+02  0.00000000000E+00 0.  1.
         13   -1    0    0    0    0 -0.00000000000E+00 -0.00000000000E+00 -0.10000000000E+04  0.10000000000E+04  0.00000000000E+00 0.  1.
    9000005    2    1    2  501    0 -0.30499373944E+02 -0.42070672804E+01 -0.95053126302E+03  0.10055270021E+04  0.32653783674E+03 0.  0.
         13    1    3    3    0    0  0.13071849407E+03  0.70632604724E+02 -0.48359293688E+03  0.50590356605E+03  0.00000000000E+00 0.  1.
          1    1    3    3  501    0 -0.16121786801E+03 -0.74839672004E+02 -0.46693832614E+03  0.49962343609E+03  0.00000000000E+00 0.  1.
         21    1    1    2  502  501  0.30499373944E+02  0.42070672804E+01 -0.11184866031E+02  0.32756868809E+02  0.00000000000E+00 0.  1.
<mgrwt>
<rscale>  1 0.30000000E+03</rscale>
<asrwt>0</asrwt>
<pdfrwt beam="1">  1        1 0.13921437E+00 0.30000000E+03</pdfrwt>
<pdfrwt beam="2">0</pdfrwt>
<totfact> 0.20425315E+01</totfact>
</mgrwt>
</event>
<event>
 6    1  0.1950139E-004  0.3000000E+03  0.7818608E-02  0.1093470E+00
          1   -1    0    0  502    0  0.00000000000E+00  0.00000000000E+00  0.51889004211E+02  0.51889004211E+02  0.00000000000E+00 0.  1.
         13   -1    0    0    0    0 -0.00000000000E+00 -0.00000000000E+00 -0.10000000000E+04  0.10000000000E+04  0.00000000000E+00 0.  1.
    9000005    2    1    2  501    0  0.13350089774E+02 -0.38888687075E+01 -0.97547459429E+03  0.10211951169E+04  0.30182020216E+03 0.  0.
         13    1    3    3    0    0 -0.36110773195E+02 -0.14384373117E+03 -0.58359397177E+03  0.60214361313E+03  0.00000000000E+00 0.  1.
          1    1    3    3  501    0  0.49460862969E+02  0.13995486246E+03 -0.39188062252E+03  0.41905150375E+03  0.00000000000E+00 0.  1.
         21    1    1    2  502  501 -0.13350089774E+02  0.38888687075E+01  0.27363598499E+02  0.30693887333E+02  0.00000000000E+00 0.  1.
<mgrwt>
<rscale>  1 0.30000000E+03</rscale>
<asrwt>0</asrwt>
<pdfrwt beam="1">  1        1 0.18868769E+00 0.30000000E+03</pdfrwt>
<pdfrwt beam="2">0</pdfrwt>
<totfact> 0.11601083E+01</totfact>
</mgrwt>
</event>
<event>
 6    1  0.1950139E-004  0.3000000E+03  0.7818608E-02  0.1093470E+00
          1   -1    0    0  502    0  0.00000000000E+00  0.00000000000E+00  0.59475879418E+02  0.59475879418E+02  0.00000000000E+00 0.  1.
         13   -1    0    0    0    0 -0.00000000000E+00 -0.00000000000E+00 -0.10000000000E+04  0.10000000000E+04  0.00000000000E+00 0.  1.
    9000005    2    1    2  501    0  0.33713081471E+01  0.95970802759E+01 -0.97308174860E+03  0.10253662208E+04  0.32308563517E+03 0.  0.
         13    1    3    3    0    0  0.12489140920E+03 -0.20476054759E+01 -0.82052865071E+03  0.82998151992E+03  0.00000000000E+00 0.  1.
          1    1    3    3  501    0 -0.12152010105E+03  0.11644685752E+02 -0.15255309789E+03  0.19538470089E+03  0.00000000000E+00 0.  1.
         21    1    1    2  502  501 -0.33713081471E+01 -0.95970802759E+01  0.32557628016E+02  0.34109658609E+02  0.00000000000E+00 0. -1.
<mgrwt>
<rscale>  1 0.30000000E+03</rscale>
<asrwt>0</asrwt>
<pdfrwt beam="1">  1        1 0.21627638E+00 0.30000000E+03</pdfrwt>
<pdfrwt beam="2">0</pdfrwt>
<totfact> 0.85816449E+00</totfact>
</mgrwt>
</event>
<event>
 6    1  0.1950139E-004  0.3000000E+03  0.7818608E-02  0.1093470E+00
          1   -1    0    0  502    0  0.00000000000E+00  0.00000000000E+00  0.36127207019E+02  0.36127207019E+02  0.00000000000E+00 0.  1.
         13   -1    0    0    0    0 -0.00000000000E+00 -0.00000000000E+00 -0.10000000000E+04  0.10000000000E+04  0.00000000000E+00 0.  1.
    9000005    2    1    2  501    0 -0.92537771429E+01  0.88216495328E+01 -0.97020649280E+03  0.10218594235E+04  0.32051924893E+03 0.  0.
         13    1    3    3    0    0 -0.11163083825E+03  0.89228026242E+01 -0.11489579927E+03  0.16044346401E+03  0.00000000000E+00 0.  1.
          1    1    3    3  501    0  0.10237706111E+03 -0.10115309137E+00 -0.85531069353E+03  0.86141595953E+03  0.00000000000E+00 0.  1.
         21    1    1    2  502  501  0.92537771429E+01 -0.88216495328E+01  0.63336998148E+01  0.14267783473E+02  0.00000000000E+00 0.  1.
<mgrwt>
<rscale>  1 0.30000000E+03</rscale>
<asrwt>0</asrwt>
<pdfrwt beam="1">  1        1 0.13137194E+00 0.30000000E+03</pdfrwt>
<pdfrwt beam="2">0</pdfrwt>
<totfact> 0.22490609E+01</totfact>
</mgrwt>
</event>
<event>
 6    1  0.1950139E-004  0.3000000E+03  0.7818608E-02  0.1093470E+00
          1   -1    0    0  502    0  0.00000000000E+00  0.00000000000E+00  0.40784764647E+02  0.40784764647E+02  0.00000000000E+00 0.  1.
         13   -1    0    0    0    0 -0.00000000000E+00 -0.00000000000E+00 -0.10000000000E+04  0.10000000000E+04  0.00000000000E+00 0.  1.
    9000005    2    1    2  501    0  0.19190907060E+01  0.13754114758E+02 -0.96822690367E+03  0.10242297428E+04  0.33375195954E+03 0.  0.
         13    1    3    3    0    0  0.12980129568E+03 -0.43110114550E+02 -0.76711502247E+03  0.77921262570E+03  0.00000000000E+00 0.  1.
          3    1    3    3  501    0 -0.12788220497E+03  0.56864229308E+02 -0.20111188120E+03  0.24501711712E+03  0.00000000000E+00 0.  1.
         21    1    1    2  502  501 -0.19190907060E+01 -0.13754114758E+02  0.90116683182E+01  0.16555021830E+02  0.00000000000E+00 0.  1.
<mgrwt>
<rscale>  1 0.30000000E+03</rscale>
<asrwt>0</asrwt>
<pdfrwt beam="1">  1        1 0.14830855E+00 0.30000000E+03</pdfrwt>
<pdfrwt beam="2">0</pdfrwt>
<totfact> 0.18325148E+01</totfact>
</mgrwt>
</event>
<event>
 6    1  0.1950139E-004  0.3000000E+03  0.7818608E-02  0.1093470E+00
          1   -1    0    0  502    0  0.00000000000E+00  0.00000000000E+00  0.29912181006E+02  0.29912181006E+02  0.00000000000E+00 0.  1.
         13   -1    0    0    0    0 -0.00000000000E+00 -0.00000000000E+00 -0.10000000000E+04  0.10000000000E+04  0.00000000000E+00 0.  1.
    9000005    2    1    2  501    0 -0.86493544858E+00  0.14043874637E+02 -0.95992835628E+03  0.10125572621E+04  0.32188783959E+03 0.  0.
         13    1    3    3    0    0 -0.99595757520E+02  0.10699027174E+03 -0.73913650902E+03  0.75345139998E+03  0.00000000000E+00 0.  1.
          1    1    3    3  501    0  0.98730822071E+02 -0.92946397101E+02 -0.22079184727E+03  0.25910586211E+03  0.00000000000E+00 0.  1.
         21    1    1    2  502  501  0.86493544858E+00 -0.14043874637E+02 -0.10159462709E+02  0.17354918919E+02  0.00000000000E+00 0.  1.
<mgrwt>
<rscale>  1 0.30000000E+03</rscale>
<asrwt>0</asrwt>
<pdfrwt beam="1">  1        1 0.10877180E+00 0.30000000E+03</pdfrwt>
<pdfrwt beam="2">0</pdfrwt>
<totfact> 0.30216498E+01</totfact>
</mgrwt>
</event>
<event>
 6    1  0.1950139E-004  0.3000000E+03  0.7818608E-02  0.1093470E+00
          1   -1    0    0  502    0  0.00000000000E+00  0.00000000000E+00  0.95157246537E+02  0.95157246537E+02  0.00000000000E+00 0.  1.
         13   -1    0    0    0    0 -0.00000000000E+00 -0.00000000000E+00 -0.10000000000E+04  0.10000000000E+04  0.00000000000E+00 0.  1.
    9000005    2    1    2  501    0 -0.17963136508E+03  0.18834280347E+02 -0.81210302257E+03  0.89212322200E+03  0.32210303712E+03 0.  0.
         13    1    3    3    0    0 -0.23990584284E+03 -0.25549008490E+02 -0.76853511450E+03  0.80551461035E+03  0.00000000000E+00 0.  1.
          3    1    3    3  501    0  0.60274477767E+02  0.44383288837E+02 -0.43567908071E+02  0.86608611649E+02  0.00000000000E+00 0.  1.
         21    1    1    2  502  501  0.17963136508E+03 -0.18834280347E+02 -0.92739730893E+02  0.20303402454E+03  0.00000000000E+00 0.  1.
<mgrwt>
<rscale>  1 0.30000000E+03</rscale>
<asrwt>0</asrwt>
<pdfrwt beam="1">  1        1 0.34602708E+00 0.30000000E+03</pdfrwt>
<pdfrwt beam="2">0</pdfrwt>
<totfact> 0.20632315E+00</totfact>
</mgrwt>
</event>
<event>
 6    1  0.1950139E-004  0.3000000E+03  0.7818608E-02  0.1093470E+00
          1   -1    0    0  502    0  0.00000000000E+00  0.00000000000E+00  0.28169160807E+02  0.28169160807E+02  0.00000000000E+00 0.  1.
         13   -1    0    0    0    0 -0.00000000000E+00 -0.00000000000E+00 -0.10000000000E+04  0.10000000000E+04  0.00000000000E+00 0.  1.
    9000005    2    1    2  501    0 -0.12234059518E+02  0.14601369130E+02 -0.93355172061E+03  0.98541213668E+03  0.31488949152E+03 0.  0.
         13    1    3    3    0    0  0.14691084142E+02  0.79097289895E+02 -0.90713562464E+03  0.91069602541E+03  0.00000000000E+00 0.  1.
          1    1    3    3  501    0 -0.26925143660E+02 -0.64495920765E+02 -0.26416095979E+02  0.74716111269E+02  0.00000000000E+00 0.  1.
         21    1    1    2  502  501  0.12234059518E+02 -0.14601369130E+02 -0.38279118578E+02  0.42757024123E+02  0.00000000000E+00 0.  1.
<mgrwt>
<rscale>  1 0.30000000E+03</rscale>
<asrwt>0</asrwt>
<pdfrwt beam="1">  1        1 0.10243353E+00 0.30000000E+03</pdfrwt>
<pdfrwt beam="2">0</pdfrwt>
<totfact> 0.33040246E+01</totfact>
</mgrwt>
</event>
<event>
 6    1  0.1950139E-004  0.3000000E+03  0.7818608E-02  0.1093470E+00
          1   -1    0    0  502    0  0.00000000000E+00  0.00000000000E+00  0.27924003163E+02  0.27924003163E+02  0.00000000000E+00 0.  1.
         13   -1    0    0    0    0 -0.00000000000E+00 -0.00000000000E+00 -0.10000000000E+04  0.10000000000E+04  0.00000000000E+00 0.  1.
    9000005    2    1    2  501    0  0.10650438548E+02 -0.53794797268E+01 -0.96350170353E+03  0.10132308364E+04  0.31330308729E+03 0.  0.
         13    1    3    3    0    0  0.42595369361E+02  0.36169863176E+01  0.59943722309E+01  0.43166892168E+02  0.00000000000E+00 0.  1.
          1    1    3    3  501    0 -0.31944930813E+02 -0.89964660444E+01 -0.96949607576E+03  0.97006394425E+03  0.00000000000E+00 0.  1.
         21    1    1    2  502  501 -0.10650438548E+02  0.53794797268E+01 -0.85742933047E+01  0.14693166748E+02  0.00000000000E+00 0.  1.
<mgrwt>
<rscale>  1 0.30000000E+03</rscale>
<asrwt>0</asrwt>
<pdfrwt beam="1">  1        1 0.10154204E+00 0.30000000E+03</pdfrwt>
<pdfrwt beam="2">0</pdfrwt>
<totfact> 0.33467868E+01</totfact>
</mgrwt>
</event>
<event>
 6    1  0.1950139E-004  0.3000000E+03  0.7818608E-02  0.1093470E+00
          1   -1    0    0  502    0  0.00000000000E+00  0.00000000000E+00  0.27043652316E+02  0.27043652316E+02  0.00000000000E+00 0.  1.
         13   -1    0    0    0    0 -0.00000000000E+00 -0.00000000000E+00 -0.10000000000E+04  0.10000000000E+04  0.00000000000E+00 0.  1.
    9000005    2    1    2  501    0  0.14391017132E+02 -0.57190428170E+01 -0.94868149511E+03  0.99824995002E+03  0.31026855257E+03 0.  0.
         13    1    3    3    0    0 -0.44686446306E+02  0.31963070563E+01  0.28060794272E+01  0.44888405451E+02  0.00000000000E+00 0.  1.
          1    1    3    3  501    0  0.59077463437E+02 -0.89153498734E+01 -0.95148757454E+03  0.95336154457E+03  0.00000000000E+00 0.  1.
         21    1    1    2  502  501 -0.14391017132E+02  0.57190428170E+01 -0.24274852569E+02  0.28793702299E+02  0.00000000000E+00 0.  1.
<mgrwt>
<rscale>  1 0.30000000E+03</rscale>
<asrwt>0</asrwt>
<pdfrwt beam="1">  1        1 0.98340761E-01 0.30000000E+03</pdfrwt>
<pdfrwt beam="2">0</pdfrwt>
<totfact> 0.35072379E+01</totfact>
</mgrwt>
</event>
<event>
 6    1  0.1950139E-004  0.3000000E+03  0.7818608E-02  0.1093470E+00
          1   -1    0    0  502    0  0.00000000000E+00  0.00000000000E+00  0.36898453078E+02  0.36898453078E+02  0.00000000000E+00 0.  1.
         13   -1    0    0    0    0 -0.00000000000E+00 -0.00000000000E+00 -0.10000000000E+04  0.10000000000E+04  0.00000000000E+00 0.  1.
    9000005    2    1    2  501    0  0.44198438414E+02  0.11866266988E+02 -0.90565835712E+03  0.96345439065E+03  0.32547349017E+03 0.  0.
         13    1    3    3    0    0  0.15562404896E+03 -0.76997829899E+02 -0.36294060435E+03  0.40233492604E+03  0.00000000000E+00 0.  1.
          1    1    3    3  501    0 -0.11142561054E+03  0.88864096887E+02 -0.54271775277E+03  0.56111946462E+03  0.00000000000E+00 0.  1.
         21    1    1    2  502  501 -0.44198438414E+02 -0.11866266988E+02 -0.57443189802E+02  0.73444062423E+02  0.00000000000E+00 0. -1.
<mgrwt>
<rscale>  1 0.30000000E+03</rscale>
<asrwt>0</asrwt>
<pdfrwt beam="1">  1        1 0.13417648E+00 0.30000000E+03</pdfrwt>
<pdfrwt beam="2">0</pdfrwt>
<totfact> 0.21721681E+01</totfact>
</mgrwt>
</event>
<event>
 6    1  0.1950139E-004  0.3000000E+03  0.7818608E-02  0.1093470E+00
          1   -1    0    0  502    0  0.00000000000E+00  0.00000000000E+00  0.88920494940E+02  0.88920494940E+02  0.00000000000E+00 0.  1.
         13   -1    0    0    0    0 -0.00000000000E+00 -0.00000000000E+00 -0.10000000000E+04  0.10000000000E+04  0.00000000000E+00 0.  1.
    9000005    2    1    2  501    0  0.11292216137E+03  0.53740233511E+02 -0.88468460280E+03  0.96110767050E+03  0.35414923497E+03 0.  0.
         13    1    3    3    0    0 -0.10963441310E+03 -0.41916928348E+02 -0.17079978321E+03  0.20724212738E+03  0.00000000000E+00 0.  1.
          1    1    3    3  501    0  0.22255657447E+03  0.95657161859E+02 -0.71388481959E+03  0.75386554312E+03  0.00000000000E+00 0.  1.
         21    1    1    2  502  501 -0.11292216137E+03 -0.53740233511E+02 -0.26394902256E+02  0.12781282444E+03  0.00000000000E+00 0.  1.
<mgrwt>
<rscale>  1 0.30000000E+03</rscale>
<asrwt>0</asrwt>
<pdfrwt beam="1">  1        1 0.32334794E+00 0.30000000E+03</pdfrwt>
<pdfrwt beam="2">0</pdfrwt>
<totfact> 0.26815452E+00</totfact>
</mgrwt>
</event>
<event>
 6    1  0.1950139E-004  0.3000000E+03  0.7818608E-02  0.1093470E+00
          1   -1    0    0  502    0  0.00000000000E+00  0.00000000000E+00  0.34296121552E+02  0.34296121552E+02  0.00000000000E+00 0.  1.
         13   -1    0    0    0    0 -0.00000000000E+00 -0.00000000000E+00 -0.10000000000E+04  0.10000000000E+04  0.00000000000E+00 0.  1.
    9000005    2    1    2  501    0  0.11955674807E+02  0.18665865232E+02 -0.95838487626E+03  0.10109525897E+04  0.32098631583E+03 0.  0.
         13    1    3    3    0    0 -0.15003254447E+03  0.45656297146E+02 -0.43479516100E+03  0.46221325587E+03  0.00000000000E+00 0.  1.
          3    1    3    3  501    0  0.16198821928E+03 -0.26990431913E+02 -0.52358971526E+03  0.54873933386E+03  0.00000000000E+00 0.  1.
         21    1    1    2  502  501 -0.11955674807E+02 -0.18665865232E+02 -0.73190021868E+01  0.23343531823E+02  0.00000000000E+00 0.  1.
<mgrwt>
<rscale>  1 0.30000000E+03</rscale>
<asrwt>0</asrwt>
<pdfrwt beam="1">  1        1 0.12471343E+00 0.30000000E+03</pdfrwt>
<pdfrwt beam="2">0</pdfrwt>
<totfact> 0.24463306E+01</totfact>
</mgrwt>
</event>
<event>
 6    1  0.1950139E-004  0.3000000E+03  0.7818608E-02  0.1093470E+00
          1   -1    0    0  502    0  0.00000000000E+00  0.00000000000E+00  0.43376034228E+02  0.43376034228E+02  0.00000000000E+00 0.  1.
         13   -1    0    0    0    0 -0.00000000000E+00 -0.00000000000E+00 -0.10000000000E+04  0.10000000000E+04  0.00000000000E+00 0.  1.
    9000005    2    1    2  501    0 -0.17896884417E+02 -0.81208652292E+02 -0.81859929994E+03  0.88223649204E+03  0.31831002237E+03 0.  0.
         13    1    3    3    0    0 -0.54084382458E+02  0.24896536559E+02 -0.36917691043E+01  0.59653894405E+02  0.00000000000E+00 0.  1.
          1    1    3    3  501    0  0.36187498041E+02 -0.10610518885E+03 -0.81490753084E+03  0.82258259764E+03  0.00000000000E+00 0.  1.
         21    1    1    2  502  501  0.17896884417E+02  0.81208652292E+02 -0.13802466583E+03  0.16113954219E+03  0.00000000000E+00 0.  1.
<mgrwt>
<rscale>  1 0.30000000E+03</rscale>
<asrwt>0</asrwt>
<pdfrwt beam="1">  1        1 0.15773137E+00 0.30000000E+03</pdfrwt>
<pdfrwt beam="2">0</pdfrwt>
<totfact> 0.16424711E+01</totfact>
</mgrwt>
</event>
<event>
 6    1  0.1950139E-004  0.3000000E+03  0.7818608E-02  0.1093470E+00
          1   -1    0    0  502    0  0.00000000000E+00  0.00000000000E+00  0.43039538109E+02  0.43039538109E+02  0.00000000000E+00 0.  1.
         13   -1    0    0    0    0 -0.00000000000E+00 -0.00000000000E+00 -0.10000000000E+04  0.10000000000E+04  0.00000000000E+00 0.  1.
    9000005    2    1    2  501    0  0.19778176178E+02 -0.52977444398E+02 -0.95288686856E+03  0.98634403537E+03  0.24836140196E+03 0.  0.
         13    1    3    3    0    0 -0.34301728060E+02 -0.59051437749E+02 -0.92047169868E+03  0.92300153246E+03  0.00000000000E+00 0.  1.
          3    1    3    3  501    0  0.54079904238E+02  0.60739933513E+01 -0.32415169875E+02  0.63342502915E+02  0.00000000000E+00 0.  1.
         21    1    1    2  502  501 -0.19778176178E+02  0.52977444398E+02 -0.40735933355E+01  0.56695502736E+02  0.00000000000E+00 0.  1.
<mgrwt>
<rscale>  1 0.30000000E+03</rscale>
<asrwt>0</asrwt>
<pdfrwt beam="1">  1        1 0.15650774E+00 0.30000000E+03</pdfrwt>
<pdfrwt beam="2">0</pdfrwt>
<totfact> 0.16657577E+01</totfact>
</mgrwt>
</event>
<event>
 6    1  0.1950139E-004  0.3000000E+03  0.7818608E-02  0.1093470E+00
          1   -1    0    0  502    0  0.00000000000E+00  0.00000000000E+00  0.26484843175E+02  0.26484843175E+02  0.00000000000E+00 0.  1.
         13   -1    0    0    0    0 -0.00000000000E+00 -0.00000000000E+00 -0.10000000000E+04  0.10000000000E+04  0.00000000000E+00 0.  1.
    9000005    2    1    2  501    0  0.12739890423E+01 -0.10593077378E+02 -0.95157895501E+03  0.10020915390E+04  0.31396036162E+03 0.  0.
         13    1    3    3    0    0 -0.62812053284E+01  0.73951140358E+02 -0.89939573484E+03  0.90245272039E+03  0.00000000000E+00 0.  1.
          1    1    3    3  501    0  0.75551943708E+01 -0.84544217736E+02 -0.52183220176E+02  0.99638818653E+02  0.00000000000E+00 0.  1.
         21    1    1    2  502  501 -0.12739890423E+01  0.10593077378E+02 -0.21936201813E+02  0.24393304130E+02  0.00000000000E+00 0. -1.
<mgrwt>
<rscale>  1 0.30000000E+03</rscale>
<asrwt>0</asrwt>
<pdfrwt beam="1">  1        1 0.96308724E-01 0.30000000E+03</pdfrwt>
<pdfrwt beam="2">0</pdfrwt>
<totfact> 0.36150483E+01</totfact>
</mgrwt>
</event>
<event>
 6    1  0.1950139E-004  0.3000000E+03  0.7818608E-02  0.1093470E+00
          1   -1    0    0  502    0  0.00000000000E+00  0.00000000000E+00  0.52042293121E+02  0.52042293121E+02  0.00000000000E+00 0.  1.
         13   -1    0    0    0    0 -0.00000000000E+00 -0.00000000000E+00 -0.10000000000E+04  0.10000000000E+04  0.00000000000E+00 0.  1.
    9000005    2    1    2  501    0  0.11592614312E+02  0.74516460089E+00 -0.97398096161E+03  0.10235439815E+04  0.31443349787E+03 0.  0.
         13    1    3    3    0    0 -0.13018068071E+03  0.73472904929E+02 -0.37404498576E+03  0.40280879926E+03  0.00000000000E+00 0.  1.
          1    1    3    3  501    0  0.14177329502E+03 -0.72727740329E+02 -0.59993597585E+03  0.62073518227E+03  0.00000000000E+00 0.  1.
         21    1    1    2  502  501 -0.11592614312E+02 -0.74516460089E+00  0.26023254727E+02  0.28498311590E+02  0.00000000000E+00 0. -1.
<mgrwt>
<rscale>  1 0.30000000E+03</rscale>
<asrwt>0</asrwt>
<pdfrwt beam="1">  1        1 0.18924510E+00 0.30000000E+03</pdfrwt>
<pdfrwt beam="2">0</pdfrwt>
<totfact> 0.11529796E+01</totfact>
</mgrwt>
</event>
<event>
 6    1  0.1950139E-004  0.3000000E+03  0.7818608E-02  0.1093470E+00
          1   -1    0    0  502    0  0.00000000000E+00  0.00000000000E+00  0.27949065410E+02  0.27949065410E+02  0.00000000000E+00 0.  1.
         13   -1    0    0    0    0 -0.00000000000E+00 -0.00000000000E+00 -0.10000000000E+04  0.10000000000E+04  0.00000000000E+00 0.  1.
    9000005    2    1    2  501    0 -0.29008177530E+01 -0.14280558682E+02 -0.94254510782E+03  0.99504096742E+03  0.31859519373E+03 0.  0.
         13    1    3    3    0    0  0.21761758185E+01  0.15177923370E+03 -0.41089478304E+03  0.43803674989E+03  0.00000000000E+00 0.  1.
          3    1    3    3  501    0 -0.50769935714E+01 -0.16605979238E+03 -0.53165032478E+03  0.55700421753E+03  0.00000000000E+00 0.  1.
         21    1    1    2  502  501  0.29008177530E+01  0.14280558682E+02 -0.29505826768E+02  0.32908097988E+02  0.00000000000E+00 0.  1.
<mgrwt>
<rscale>  1 0.30000000E+03</rscale>
<asrwt>0</asrwt>
<pdfrwt beam="1">  1        1 0.10163318E+00 0.30000000E+03</pdfrwt>
<pdfrwt beam="2">0</pdfrwt>
<totfact> 0.33423782E+01</totfact>
</mgrwt>
</event>
<event>
 6    1  0.1950139E-004  0.3000000E+03  0.7818608E-02  0.1093470E+00
          1   -1    0    0  502    0  0.00000000000E+00  0.00000000000E+00  0.29476649394E+02  0.29476649394E+02  0.00000000000E+00 0.  1.
         13   -1    0    0    0    0 -0.00000000000E+00 -0.00000000000E+00 -0.10000000000E+04  0.10000000000E+04  0.00000000000E+00 0.  1.
    9000005    2    1    2  501    0  0.89888689774E+01  0.64709844861E+00 -0.95394575251E+03  0.10106077527E+04  0.33351808450E+03 0.  0.
         13    1    3    3    0    0  0.23971297762E+01 -0.11053624659E+03 -0.85348338966E+03  0.86061484095E+03  0.00000000000E+00 0.  1.
          1    1    3    3  501    0  0.65917392012E+01  0.11118334504E+03 -0.10046236285E+03  0.14999291180E+03  0.00000000000E+00 0.  1.
         21    1    1    2  502  501 -0.89888689774E+01 -0.64709844861E+00 -0.16577598099E+02  0.18868896645E+02  0.00000000000E+00 0.  1.
<mgrwt>
<rscale>  1 0.30000000E+03</rscale>
<asrwt>0</asrwt>
<pdfrwt beam="1">  1        1 0.10718804E+00 0.30000000E+03</pdfrwt>
<pdfrwt beam="2">0</pdfrwt>
<totfact> 0.30888489E+01</totfact>
</mgrwt>
</event>
<event>
 6    1  0.1950139E-004  0.3000000E+03  0.7818608E-02  0.1093470E+00
          1   -1    0    0  502    0  0.00000000000E+00  0.00000000000E+00  0.35252591542E+02  0.35252591542E+02  0.00000000000E+00 0.  1.
         13   -1    0    0    0    0 -0.00000000000E+00 -0.00000000000E+00 -0.10000000000E+04  0.10000000000E+04  0.00000000000E+00 0.  1.
    9000005    2    1    2  501    0 -0.18383847789E+02  0.32786423985E+02 -0.93503123835E+03  0.98733634979E+03  0.31485986642E+03 0.  0.
         13    1    3    3    0    0 -0.49112791663E+02 -0.12205129642E+03 -0.23111947423E+03  0.26594134058E+03  0.00000000000E+00 0.  1.
          1    1    3    3  501    0  0.30728943874E+02  0.15483772041E+03 -0.70391176412E+03  0.72139500921E+03  0.00000000000E+00 0.  1.
         21    1    1    2  502  501  0.18383847789E+02 -0.32786423985E+02 -0.29716170113E+02  0.47916241750E+02  0.00000000000E+00 0.  1.
<mgrwt>
<rscale>  1 0.30000000E+03</rscale>
<asrwt>0</asrwt>
<pdfrwt beam="1">  1        1 0.12819151E+00 0.30000000E+03</pdfrwt>
<pdfrwt beam="2">0</pdfrwt>
<totfact> 0.23406258E+01</totfact>
</mgrwt>
</event>
<event>
 6    1  0.1950139E-004  0.3000000E+03  0.7818608E-02  0.1093470E+00
          1   -1    0    0  502    0  0.00000000000E+00  0.00000000000E+00  0.30995025213E+02  0.30995025213E+02  0.00000000000E+00 0.  1.
         13   -1    0    0    0    0 -0.00000000000E+00 -0.00000000000E+00 -0.10000000000E+04  0.10000000000E+04  0.00000000000E+00 0.  1.
    9000005    2    1    2  501    0 -0.30387118528E+01  0.19764389087E+02 -0.96171808125E+03  0.10097120822E+04  0.30694780712E+03 0.  0.
         13    1    3    3    0    0 -0.93403797997E+02 -0.90349751013E+02 -0.22923905671E+03  0.26351070587E+03  0.00000000000E+00 0.  1.
          3    1    3    3  501    0  0.90365086145E+02  0.11011414010E+03 -0.73247902455E+03  0.74620137633E+03  0.00000000000E+00 0.  1.
         21    1    1    2  502  501  0.30387118528E+01 -0.19764389087E+02 -0.72868935334E+01  0.21282943008E+02  0.00000000000E+00 0.  1.
<mgrwt>
<rscale>  1 0.30000000E+03</rscale>
<asrwt>0</asrwt>
<pdfrwt beam="1">  1        1 0.11270942E+00 0.30000000E+03</pdfrwt>
<pdfrwt beam="2">0</pdfrwt>
<totfact> 0.28633335E+01</totfact>
</mgrwt>
</event>
<event>
 6    1  0.1950139E-004  0.3000000E+03  0.7818608E-02  0.1093470E+00
          1   -1    0    0  502    0  0.00000000000E+00  0.00000000000E+00  0.30628450882E+02  0.30628450882E+02  0.00000000000E+00 0.  1.
         13   -1    0    0    0    0 -0.00000000000E+00 -0.00000000000E+00 -0.10000000000E+04  0.10000000000E+04  0.00000000000E+00 0.  1.
    9000005    2    1    2  501    0 -0.46394967300E+01  0.17165284531E+02 -0.94570256087E+03  0.10010245166E+04  0.32768975752E+03 0.  0.
         13    1    3    3    0    0 -0.12405506788E+03 -0.62238014422E+02 -0.21167348193E+03  0.25311833845E+03  0.00000000000E+00 0.  1.
          3    1    3    3  501    0  0.11941557115E+03  0.79403298953E+02 -0.73402907894E+03  0.74790617811E+03  0.00000000000E+00 0.  1.
         21    1    1    2  502  501  0.46394967300E+01 -0.17165284531E+02 -0.23668988246E+02  0.29603934325E+02  0.00000000000E+00 0. -1.
<mgrwt>
<rscale>  1 0.30000000E+03</rscale>
<asrwt>0</asrwt>
<pdfrwt beam="1">  1        1 0.11137642E+00 0.30000000E+03</pdfrwt>
<pdfrwt beam="2">0</pdfrwt>
<totfact> 0.29155844E+01</totfact>
</mgrwt>
</event>
<event>
 6    1  0.1950139E-004  0.3000000E+03  0.7818608E-02  0.1093470E+00
          1   -1    0    0  502    0  0.00000000000E+00  0.00000000000E+00  0.42970440830E+02  0.42970440830E+02  0.00000000000E+00 0.  1.
         13   -1    0    0    0    0 -0.00000000000E+00 -0.00000000000E+00 -0.10000000000E+04  0.10000000000E+04  0.00000000000E+00 0.  1.
    9000005    2    1    2  501    0 -0.43383060435E+02 -0.64662047130E+01 -0.94104486989E+03  0.99628626763E+03  0.32418664097E+03 0.  0.
         13    1    3    3    0    0  0.44507601358E+02  0.12456316563E+03 -0.66768319586E+03  0.68065979670E+03  0.00000000000E+00 0.  1.
          1    1    3    3  501    0 -0.87890661793E+02 -0.13102937034E+03 -0.27336167403E+03  0.31562647093E+03  0.00000000000E+00 0.  1.
         21    1    1    2  502  501  0.43383060435E+02  0.64662047130E+01 -0.15984689281E+02  0.46684173201E+02  0.00000000000E+00 0.  1.
<mgrwt>
<rscale>  1 0.30000000E+03</rscale>
<asrwt>0</asrwt>
<pdfrwt beam="1">  1        1 0.15625648E+00 0.30000000E+03</pdfrwt>
<pdfrwt beam="2">0</pdfrwt>
<totfact> 0.16705879E+01</totfact>
</mgrwt>
</event>
<event>
 6    1  0.1950139E-004  0.3000000E+03  0.7818608E-02  0.1093470E+00
          1   -1    0    0  502    0  0.00000000000E+00  0.00000000000E+00  0.34230653971E+02  0.34230653971E+02  0.00000000000E+00 0.  1.
         13   -1    0    0    0    0 -0.00000000000E+00 -0.00000000000E+00 -0.10000000000E+04  0.10000000000E+04  0.00000000000E+00 0.  1.
    9000005    2    1    2  501    0  0.87409027901E+01  0.18219314482E+02 -0.95578474244E+03  0.10116909310E+04  0.33103733812E+03 0.  0.
         13    1    3    3    0    0 -0.87297748644E+01 -0.25012904978E+02  0.20992425926E+02  0.33801424983E+02  0.00000000000E+00 0.  1.
          1    1    3    3  501    0  0.17470677655E+02  0.43232219459E+02 -0.97677716837E+03  0.97788950604E+03  0.00000000000E+00 0.  1.
         21    1    1    2  502  501 -0.87409027901E+01 -0.18219314482E+02 -0.99846035863E+01  0.22539722947E+02  0.00000000000E+00 0.  1.
<mgrwt>
<rscale>  1 0.30000000E+03</rscale>
<asrwt>0</asrwt>
<pdfrwt beam="1">  1        1 0.12447537E+00 0.30000000E+03</pdfrwt>
<pdfrwt beam="2">0</pdfrwt>
<totfact> 0.24537858E+01</totfact>
</mgrwt>
</event>
<event>
 6    1  0.1950139E-004  0.3000000E+03  0.7818608E-02  0.1093470E+00
          1   -1    0    0  502    0  0.00000000000E+00  0.00000000000E+00  0.45158165718E+02  0.45158165718E+02  0.00000000000E+00 0.  1.
         13   -1    0    0    0    0 -0.00000000000E+00 -0.00000000000E+00 -0.10000000000E+04  0.10000000000E+04  0.00000000000E+00 0.  1.
    9000005    2    1    2  501    0  0.22584875674E+02  0.29860014111E+02 -0.95452224068E+03  0.10077175569E+04  0.32090539008E+03 0.  0.
         13    1    3    3    0    0  0.16136279212E+03  0.13363892177E+02 -0.68777763199E+03  0.70657951807E+03  0.00000000000E+00 0.  1.
          3    1    3    3  501    0 -0.13877791645E+03  0.16496121934E+02 -0.26674460870E+03  0.30113803878E+03  0.00000000000E+00 0.  1.
         21    1    1    2  502  501 -0.22584875674E+02 -0.29860014111E+02 -0.31959359749E+00  0.37440608862E+02  0.00000000000E+00 0.  1.
<mgrwt>
<rscale>  1 0.30000000E+03</rscale>
<asrwt>0</asrwt>
<pdfrwt beam="1">  1        1 0.16421186E+00 0.30000000E+03</pdfrwt>
<pdfrwt beam="2">0</pdfrwt>
<totfact> 0.15253105E+01</totfact>
</mgrwt>
</event>
<event>
 6    1  0.1950139E-004  0.3000000E+03  0.7818608E-02  0.1093470E+00
          1   -1    0    0  502    0  0.00000000000E+00  0.00000000000E+00  0.51669831359E+02  0.51669831359E+02  0.00000000000E+00 0.  1.
         13   -1    0    0    0    0 -0.00000000000E+00 -0.00000000000E+00 -0.10000000000E+04  0.10000000000E+04  0.00000000000E+00 0.  1.
    9000005    2    1    2  501    0  0.45367995429E+01 -0.10560455890E+02 -0.96818432765E+03  0.10287287458E+04  0.34751954517E+03 0.  0.
         13    1    3    3    0    0 -0.12492496032E+03 -0.53956748021E+02 -0.80285372564E+03  0.81430441552E+03  0.00000000000E+00 0.  1.
          3    1    3    3  501    0  0.12946175986E+03  0.43396292131E+02 -0.16533060201E+03  0.21442433024E+03  0.00000000000E+00 0.  1.
         21    1    1    2  502  501 -0.45367995429E+01  0.10560455890E+02  0.19854159005E+02  0.22941085600E+02  0.00000000000E+00 0. -1.
<mgrwt>
<rscale>  1 0.30000000E+03</rscale>
<asrwt>0</asrwt>
<pdfrwt beam="1">  1        1 0.18789069E+00 0.30000000E+03</pdfrwt>
<pdfrwt beam="2">0</pdfrwt>
<totfact> 0.11703813E+01</totfact>
</mgrwt>
</event>
<event>
 6    1  0.1950139E-004  0.3000000E+03  0.7818608E-02  0.1093470E+00
          1   -1    0    0  502    0  0.00000000000E+00  0.00000000000E+00  0.44372066962E+02  0.44372066962E+02  0.00000000000E+00 0.  1.
         13   -1    0    0    0    0 -0.00000000000E+00 -0.00000000000E+00 -0.10000000000E+04  0.10000000000E+04  0.00000000000E+00 0.  1.
    9000005    2    1    2  501    0  0.30874506767E+02 -0.91319252537E+01 -0.95908736108E+03  0.10119900524E+04  0.32130775385E+03 0.  0.
         13    1    3    3    0    0 -0.17919213775E+02 -0.88024851230E+02 -0.89440033239E+03  0.89890012084E+03  0.00000000000E+00 0.  1.
          3    1    3    3  501    0  0.48793720542E+02  0.78892925976E+02 -0.64687028683E+02  0.11308993153E+03  0.00000000000E+00 0.  1.
         21    1    1    2  502  501 -0.30874506767E+02  0.91319252537E+01  0.34594280377E+01  0.32382014596E+02  0.00000000000E+00 0.  1.
<mgrwt>
<rscale>  1 0.30000000E+03</rscale>
<asrwt>0</asrwt>
<pdfrwt beam="1">  1        1 0.16135331E+00 0.30000000E+03</pdfrwt>
<pdfrwt beam="2">0</pdfrwt>
<totfact> 0.15757530E+01</totfact>
</mgrwt>
</event>
<event>
 6    1  0.1950139E-004  0.3000000E+03  0.7818608E-02  0.1093470E+00
          1   -1    0    0  502    0  0.00000000000E+00  0.00000000000E+00  0.68832858227E+02  0.68832858227E+02  0.00000000000E+00 0.  1.
         13   -1    0    0    0    0 -0.00000000000E+00 -0.00000000000E+00 -0.10000000000E+04  0.10000000000E+04  0.00000000000E+00 0.  1.
    9000005    2    1    2  501    0 -0.94473184065E+01 -0.23831955331E+02 -0.96964870441E+03  0.10225938640E+04  0.32376285597E+03 0.  0.
         13    1    3    3    0    0  0.15459891725E+03 -0.21801820448E+02 -0.38753302217E+03  0.41780137369E+03  0.00000000000E+00 0.  1.
          3    1    3    3  501    0 -0.16404623565E+03 -0.20301348834E+01 -0.58211568224E+03  0.60479249036E+03  0.00000000000E+00 0.  1.
         21    1    1    2  502  501  0.94473184065E+01  0.23831955331E+02  0.38481562634E+02  0.46238994180E+02  0.00000000000E+00 0.  1.
<mgrwt>
<rscale>  1 0.30000000E+03</rscale>
<asrwt>0</asrwt>
<pdfrwt beam="1">  1        1 0.25030183E+00 0.30000000E+03</pdfrwt>
<pdfrwt beam="2">0</pdfrwt>
<totfact> 0.59467999E+00</totfact>
</mgrwt>
</event>
<event>
 6    1  0.1950139E-004  0.3000000E+03  0.7818608E-02  0.1093470E+00
          1   -1    0    0  502    0  0.00000000000E+00  0.00000000000E+00  0.36911727643E+02  0.36911727643E+02  0.00000000000E+00 0.  1.
         13   -1    0    0    0    0 -0.00000000000E+00 -0.00000000000E+00 -0.10000000000E+04  0.10000000000E+04  0.00000000000E+00 0.  1.
    9000005    2    1    2  501    0 -0.37010126885E+01 -0.15992814854E+02 -0.96633968639E+03  0.10201773524E+04  0.32661900316E+03 0.  0.
         13    1    3    3    0    0 -0.99784173962E+02 -0.11769768040E+03 -0.27981392259E+03  0.31953944455E+03  0.00000000000E+00 0.  1.
          1    1    3    3  501    0  0.96083161273E+02  0.10170486555E+03 -0.68652576379E+03  0.70063790784E+03  0.00000000000E+00 0.  1.
         21    1    1    2  502  501  0.37010126885E+01  0.15992814854E+02  0.32514140279E+01  0.16734375251E+02  0.00000000000E+00 0. -1.
<mgrwt>
<rscale>  1 0.30000000E+03</rscale>
<asrwt>0</asrwt>
<pdfrwt beam="1">  1        1 0.13422475E+00 0.30000000E+03</pdfrwt>
<pdfrwt beam="2">0</pdfrwt>
<totfact> 0.21708752E+01</totfact>
</mgrwt>
</event>
<event>
 6    1  0.1950139E-004  0.3000000E+03  0.7818608E-02  0.1093470E+00
          1   -1    0    0  502    0  0.00000000000E+00  0.00000000000E+00  0.46008972028E+02  0.46008972028E+02  0.00000000000E+00 0.  1.
         13   -1    0    0    0    0 -0.00000000000E+00 -0.00000000000E+00 -0.10000000000E+04  0.10000000000E+04  0.00000000000E+00 0.  1.
    9000005    2    1    2  501    0 -0.15765029748E+02 -0.50690199225E+01 -0.97025886098E+03  0.10227953227E+04  0.32316216307E+03 0.  0.
         13    1    3    3    0    0  0.10345805567E+03 -0.39767419254E+02 -0.11936641581E+03  0.16289063245E+03  0.00000000000E+00 0.  1.
          1    1    3    3  501    0 -0.11922308542E+03  0.34698399331E+02 -0.85089244517E+03  0.85990469022E+03  0.00000000000E+00 0.  1.
         21    1    1    2  502  501  0.15765029748E+02  0.50690199225E+01  0.16267833006E+02  0.23213649361E+02  0.00000000000E+00 0.  1.
<mgrwt>
<rscale>  1 0.30000000E+03</rscale>
<asrwt>0</asrwt>
<pdfrwt beam="1">  1        1 0.16730571E+00 0.30000000E+03</pdfrwt>
<pdfrwt beam="2">0</pdfrwt>
<totfact> 0.14727896E+01</totfact>
</mgrwt>
</event>
<event>
 6    1  0.1950139E-004  0.3000000E+03  0.7818608E-02  0.1093470E+00
          1   -1    0    0  502    0  0.00000000000E+00  0.00000000000E+00  0.85663470330E+02  0.85663470330E+02  0.00000000000E+00 0.  1.
         13   -1    0    0    0    0 -0.00000000000E+00 -0.00000000000E+00 -0.10000000000E+04  0.10000000000E+04  0.00000000000E+00 0.  1.
    9000005    2    1    2  501    0  0.89288313045E+02  0.58720323508E+02 -0.91196844547E+03  0.97877059376E+03  0.33894682537E+03 0.  0.
         13    1    3    3    0    0  0.19381700711E+03 -0.20655528391E+02 -0.72216301942E+03  0.74800475247E+03  0.00000000000E+00 0.  1.
          3    1    3    3  501    0 -0.10452869406E+03  0.79375851899E+02 -0.18980542605E+03  0.23076584129E+03  0.00000000000E+00 0.  1.
         21    1    1    2  502  501 -0.89288313045E+02 -0.58720323508E+02 -0.23680841969E+01  0.10689287657E+03  0.00000000000E+00 0.  1.
<mgrwt>
<rscale>  1 0.30000000E+03</rscale>
<asrwt>0</asrwt>
<pdfrwt beam="1">  1        1 0.31150419E+00 0.30000000E+03</pdfrwt>
<pdfrwt beam="2">0</pdfrwt>
<totfact> 0.30614111E+00</totfact>
</mgrwt>
</event>
<event>
 6    1  0.1950139E-004  0.3000000E+03  0.7818608E-02  0.1093470E+00
          3   -1    0    0  502    0  0.00000000000E+00  0.00000000000E+00  0.25925793615E+02  0.25925793615E+02  0.00000000000E+00 0.  1.
         13   -1    0    0    0    0 -0.00000000000E+00 -0.00000000000E+00 -0.10000000000E+04  0.10000000000E+04  0.00000000000E+00 0.  1.
    9000005    2    1    2  501    0 -0.10612815540E+02  0.86505205227E-01 -0.95059856136E+03  0.10001625398E+04  0.31076493023E+03 0.  0.
         13    1    3    3    0    0 -0.13553741057E+02  0.13749561139E+03 -0.70783543095E+03  0.72119327809E+03  0.00000000000E+00 0.  1.
          1    1    3    3  501    0  0.29409255168E+01 -0.13740910618E+03 -0.24276313041E+03  0.27896926173E+03  0.00000000000E+00 0.  1.
         21    1    1    2  502  501  0.10612815540E+02 -0.86505205227E-01 -0.23475645026E+02  0.25763253797E+02  0.00000000000E+00 0.  1.
<mgrwt>
<rscale>  1 0.30000000E+03</rscale>
<asrwt>0</asrwt>
<pdfrwt beam="1">  1        3 0.94275812E-01 0.30000000E+03</pdfrwt>
<pdfrwt beam="2">0</pdfrwt>
<totfact> 0.45538247E+00</totfact>
</mgrwt>
</event>
<event>
 6    1  0.1950139E-004  0.3000000E+03  0.7818608E-02  0.1093470E+00
          1   -1    0    0  502    0  0.00000000000E+00  0.00000000000E+00  0.45650656981E+02  0.45650656981E+02  0.00000000000E+00 0.  1.
         13   -1    0    0    0    0 -0.00000000000E+00 -0.00000000000E+00 -0.10000000000E+04  0.10000000000E+04  0.00000000000E+00 0.  1.
    9000005    2    1    2  501    0 -0.42788373643E+02 -0.53198675721E+02 -0.83640936378E+03  0.90937599785E+03  0.35031862302E+03 0.  0.
         13    1    3    3    0    0  0.11122037572E+03  0.57466993016E+02 -0.56223220572E+03  0.57600128508E+03  0.00000000000E+00 0.  1.
          3    1    3    3  501    0 -0.15400874936E+03 -0.11066566874E+03 -0.27417715806E+03  0.33337471277E+03  0.00000000000E+00 0.  1.
         21    1    1    2  502  501  0.42788373643E+02  0.53198675721E+02 -0.11793997924E+03  0.13627465913E+03  0.00000000000E+00 0.  1.
<mgrwt>
<rscale>  1 0.30000000E+03</rscale>
<asrwt>0</asrwt>
<pdfrwt beam="1">  1        1 0.16600274E+00 0.30000000E+03</pdfrwt>
<pdfrwt beam="2">0</pdfrwt>
<totfact> 0.14946532E+01</totfact>
</mgrwt>
</event>
<event>
 6    1  0.1950139E-004  0.3000000E+03  0.7818608E-02  0.1093470E+00
          1   -1    0    0  502    0  0.00000000000E+00  0.00000000000E+00  0.44037451118E+02  0.44037451118E+02  0.00000000000E+00 0.  1.
         13   -1    0    0    0    0 -0.00000000000E+00 -0.00000000000E+00 -0.10000000000E+04  0.10000000000E+04  0.00000000000E+00 0.  1.
    9000005    2    1    2  501    0  0.37465870843E+02  0.32042162064E+01 -0.94639953991E+03  0.10052378426E+04  0.33677451300E+03 0.  0.
         13    1    3    3    0    0 -0.95128356645E+02 -0.20764123694E+02 -0.73487624564E+02  0.12198763886E+03  0.00000000000E+00 0.  1.
          3    1    3    3  501    0  0.13259422749E+03  0.23968339900E+02 -0.87291191534E+03  0.88325020375E+03  0.00000000000E+00 0.  1.
         21    1    1    2  502  501 -0.37465870843E+02 -0.32042162064E+01 -0.95630089756E+01  0.38799608505E+02  0.00000000000E+00 0. -1.
<mgrwt>
<rscale>  1 0.30000000E+03</rscale>
<asrwt>0</asrwt>
<pdfrwt beam="1">  1        1 0.16013652E+00 0.30000000E+03</pdfrwt>
<pdfrwt beam="2">0</pdfrwt>
<totfact> 0.15978077E+01</totfact>
</mgrwt>
</event>
<event>
 6    1  0.1950139E-004  0.3000000E+03  0.7818608E-02  0.1093470E+00
          1   -1    0    0  502    0  0.00000000000E+00  0.00000000000E+00  0.45451451901E+02  0.45451451901E+02  0.00000000000E+00 0.  1.
         13   -1    0    0    0    0 -0.00000000000E+00 -0.00000000000E+00 -0.10000000000E+04  0.10000000000E+04  0.00000000000E+00 0.  1.
    9000005    2    1    2  501    0  0.10582486304E+02 -0.32364052851E+00 -0.97352920141E+03  0.10237176313E+04  0.31642785718E+03 0.  0.
         13    1    3    3    0    0  0.15977556591E+03 -0.23627699450E+02 -0.42075621459E+03  0.45069090491E+03  0.00000000000E+00 0.  1.
          1    1    3    3  501    0 -0.14919307961E+03  0.23304058922E+02 -0.55277298681E+03  0.57302672636E+03  0.00000000000E+00 0.  1.
         21    1    1    2  502  501 -0.10582486304E+02  0.32364052851E+00  0.18980653310E+02  0.21733820640E+02  0.00000000000E+00 0.  1.
<mgrwt>
<rscale>  1 0.30000000E+03</rscale>
<asrwt>0</asrwt>
<pdfrwt beam="1">  1        1 0.16527836E+00 0.30000000E+03</pdfrwt>
<pdfrwt beam="2">0</pdfrwt>
<totfact> 0.15069680E+01</totfact>
</mgrwt>
</event>
<event>
 6    1  0.1950139E-004  0.3000000E+03  0.7818608E-02  0.1093470E+00
          1   -1    0    0  502    0  0.00000000000E+00  0.00000000000E+00  0.37975164779E+02  0.37975164779E+02  0.00000000000E+00 0.  1.
         13   -1    0    0    0    0 -0.00000000000E+00 -0.00000000000E+00 -0.10000000000E+04  0.10000000000E+04  0.00000000000E+00 0.  1.
    9000005    2    1    2  501    0  0.92847609691E+01  0.44257924658E+02 -0.92088143961E+03  0.97683802645E+03  0.32271494141E+03 0.  0.
         13    1    3    3    0    0  0.40156221581E+02  0.18049206406E+03 -0.48134141987E+03  0.51563501608E+03  0.00000000000E+00 0.  1.
          3    1    3    3  501    0 -0.30871460612E+02 -0.13623413940E+03 -0.43954001974E+03  0.46120301037E+03  0.00000000000E+00 0.  1.
         21    1    1    2  502  501 -0.92847609691E+01 -0.44257924658E+02 -0.41143395606E+02  0.61137138331E+02  0.00000000000E+00 0.  1.
<mgrwt>
<rscale>  1 0.30000000E+03</rscale>
<asrwt>0</asrwt>
<pdfrwt beam="1">  1        1 0.13809180E+00 0.30000000E+03</pdfrwt>
<pdfrwt beam="2">0</pdfrwt>
<totfact> 0.20705309E+01</totfact>
</mgrwt>
</event>
<event>
 6    1  0.1950139E-004  0.3000000E+03  0.7818608E-02  0.1093470E+00
          3   -1    0    0  502    0  0.00000000000E+00  0.00000000000E+00  0.28951613385E+02  0.28951613385E+02  0.00000000000E+00 0.  1.
         13   -1    0    0    0    0 -0.00000000000E+00 -0.00000000000E+00 -0.10000000000E+04  0.10000000000E+04  0.00000000000E+00 0.  1.
    9000005    2    1    2  501    0  0.19631387766E+01  0.93981128700E+01 -0.95701112812E+03  0.10119450539E+04  0.32874049694E+03 0.  0.
         13    1    3    3    0    0  0.21177243433E+02  0.16538332675E+03 -0.40451248936E+03  0.43752768421E+03  0.00000000000E+00 0.  1.
          3    1    3    3  501    0 -0.19214104656E+02 -0.15598521388E+03 -0.55249863876E+03  0.57441736969E+03  0.00000000000E+00 0.  1.
         21    1    1    2  502  501 -0.19631387766E+01 -0.93981128700E+01 -0.14037258493E+02  0.17006559481E+02  0.00000000000E+00 0. -1.
<mgrwt>
<rscale>  1 0.30000000E+03</rscale>
<asrwt>0</asrwt>
<pdfrwt beam="1">  1        3 0.10527882E+00 0.30000000E+03</pdfrwt>
<pdfrwt beam="2">0</pdfrwt>
<totfact> 0.34107807E+00</totfact>
</mgrwt>
</event>
<event>
 6    1  0.1950139E-004  0.3000000E+03  0.7818608E-02  0.1093470E+00
          1   -1    0    0  502    0  0.00000000000E+00  0.00000000000E+00  0.36738858115E+02  0.36738858115E+02  0.00000000000E+00 0.  1.
         13   -1    0    0    0    0 -0.00000000000E+00 -0.00000000000E+00 -0.10000000000E+04  0.10000000000E+04  0.00000000000E+00 0.  1.
    9000005    2    1    2  501    0  0.24021312145E+02  0.21899158342E+02 -0.93905909023E+03  0.99621311472E+03  0.33098640218E+03 0.  0.
         13    1    3    3    0    0  0.96072883884E+02 -0.10913745249E+03 -0.23418535459E+03  0.27565152432E+03  0.00000000000E+00 0.  1.
          3    1    3    3  501    0 -0.72051571739E+02  0.13103661084E+03 -0.70487373564E+03  0.72056159041E+03  0.00000000000E+00 0.  1.
         21    1    1    2  502  501 -0.24021312145E+02 -0.21899158342E+02 -0.24202051653E+02  0.40525743392E+02  0.00000000000E+00 0.  1.
<mgrwt>
<rscale>  1 0.30000000E+03</rscale>
<asrwt>0</asrwt>
<pdfrwt beam="1">  1        1 0.13359613E+00 0.30000000E+03</pdfrwt>
<pdfrwt beam="2">0</pdfrwt>
<totfact> 0.21877916E+01</totfact>
</mgrwt>
</event>
<event>
 6    1  0.1950139E-004  0.3000000E+03  0.7818608E-02  0.1093470E+00
          1   -1    0    0  502    0  0.00000000000E+00  0.00000000000E+00  0.30104996303E+02  0.30104996303E+02  0.00000000000E+00 0.  1.
         13   -1    0    0    0    0 -0.00000000000E+00 -0.00000000000E+00 -0.10000000000E+04  0.10000000000E+04  0.00000000000E+00 0.  1.
    9000005    2    1    2  501    0 -0.14165934825E+02 -0.26408461146E+01 -0.96337381801E+03  0.10142881180E+04  0.31699152234E+03 0.  0.
         13    1    3    3    0    0 -0.81117893298E+02 -0.63008862869E+02 -0.89568571955E+03  0.90155595368E+03  0.00000000000E+00 0.  1.
          1    1    3    3  501    0  0.66951958473E+02  0.60368016754E+02 -0.67688098462E+02  0.11273216428E+03  0.00000000000E+00 0.  1.
         21    1    1    2  502  501  0.14165934825E+02  0.26408461146E+01 -0.65211856860E+01  0.15816878340E+02  0.00000000000E+00 0. -1.
<mgrwt>
<rscale>  1 0.30000000E+03</rscale>
<asrwt>0</asrwt>
<pdfrwt beam="1">  1        1 0.10947294E+00 0.30000000E+03</pdfrwt>
<pdfrwt beam="2">0</pdfrwt>
<totfact> 0.29925654E+01</totfact>
</mgrwt>
</event>
<event>
 6    1  0.1950139E-004  0.3000000E+03  0.7818608E-02  0.1093470E+00
          1   -1    0    0  502    0  0.00000000000E+00  0.00000000000E+00  0.31468717484E+02  0.31468717484E+02  0.00000000000E+00 0.  1.
         13   -1    0    0    0    0 -0.00000000000E+00 -0.00000000000E+00 -0.10000000000E+04  0.10000000000E+04  0.00000000000E+00 0.  1.
    9000005    2    1    2  501    0 -0.13421068584E+02 -0.10151989400E+02 -0.95753707028E+03  0.10113674570E+04  0.32512106073E+03 0.  0.
         13    1    3    3    0    0 -0.26007297241E+02 -0.48272118801E+02 -0.96826357703E+03  0.96981489552E+03  0.00000000000E+00 0.  1.
          3    1    3    3  501    0  0.12586228657E+02  0.38120129401E+02  0.10726506757E+02  0.41552561468E+02  0.00000000000E+00 0.  1.
         21    1    1    2  502  501  0.13421068584E+02  0.10151989400E+02 -0.10994212241E+02  0.20101260496E+02  0.00000000000E+00 0. -1.
<mgrwt>
<rscale>  1 0.30000000E+03</rscale>
<asrwt>0</asrwt>
<pdfrwt beam="1">  1        1 0.11443194E+00 0.30000000E+03</pdfrwt>
<pdfrwt beam="2">0</pdfrwt>
<totfact> 0.27977693E+01</totfact>
</mgrwt>
</event>
<event>
 6    1  0.1950139E-004  0.3000000E+03  0.7818608E-02  0.1093470E+00
          1   -1    0    0  502    0  0.00000000000E+00  0.00000000000E+00  0.47443678041E+02  0.47443678041E+02  0.00000000000E+00 0.  1.
         13   -1    0    0    0    0 -0.00000000000E+00 -0.00000000000E+00 -0.10000000000E+04  0.10000000000E+04  0.00000000000E+00 0.  1.
    9000005    2    1    2  501    0 -0.76044265548E+02 -0.32292553719E+01 -0.76495834950E+03  0.84499329478E+03  0.35079799506E+03 0.  0.
         13    1    3    3    0    0  0.70126174187E+02 -0.14025222260E+03 -0.29435645775E+03  0.33351775135E+03  0.00000000000E+00 0.  1.
          1    1    3    3  501    0 -0.14617043973E+03  0.13702296723E+03 -0.47060189176E+03  0.51147554343E+03  0.00000000000E+00 0.  1.
         21    1    1    2  502  501  0.76044265548E+02  0.32292553719E+01 -0.18759797245E+03  0.20245038326E+03  0.00000000000E+00 0.  1.
<mgrwt>
<rscale>  1 0.30000000E+03</rscale>
<asrwt>0</asrwt>
<pdfrwt beam="1">  1        1 0.17252283E+00 0.30000000E+03</pdfrwt>
<pdfrwt beam="2">0</pdfrwt>
<totfact> 0.13887941E+01</totfact>
</mgrwt>
</event>
<event>
 6    1  0.1950139E-004  0.3000000E+03  0.7818608E-02  0.1093470E+00
          1   -1    0    0  502    0  0.00000000000E+00  0.00000000000E+00  0.31995420755E+02  0.31995420755E+02  0.00000000000E+00 0.  1.
         13   -1    0    0    0    0 -0.00000000000E+00 -0.00000000000E+00 -0.10000000000E+04  0.10000000000E+04  0.00000000000E+00 0.  1.
    9000005    2    1    2  501    0  0.13122735240E+02  0.15408729580E+01 -0.96473742330E+03  0.10183845877E+04  0.32590534208E+03 0.  0.
         13    1    3    3    0    0 -0.14872033879E+03 -0.27776042628E+01 -0.61894396802E+03  0.63656664207E+03  0.00000000000E+00 0.  1.
          3    1    3    3  501    0  0.16184307403E+03  0.43184772208E+01 -0.34579345528E+03  0.38181794558E+03  0.00000000000E+00 0.  1.
         21    1    1    2  502  501 -0.13122735240E+02 -0.15408729580E+01 -0.32671559484E+01  0.13610833099E+02  0.00000000000E+00 0.  1.
<mgrwt>
<rscale>  1 0.30000000E+03</rscale>
<asrwt>0</asrwt>
<pdfrwt beam="1">  1        1 0.11634723E+00 0.30000000E+03</pdfrwt>
<pdfrwt beam="2">0</pdfrwt>
<totfact> 0.27273247E+01</totfact>
</mgrwt>
</event>
<event>
 6    1  0.1950139E-004  0.3000000E+03  0.7818608E-02  0.1093470E+00
          1   -1    0    0  502    0  0.00000000000E+00  0.00000000000E+00  0.32754386651E+02  0.32754386651E+02  0.00000000000E+00 0.  1.
         13   -1    0    0    0    0 -0.00000000000E+00 -0.00000000000E+00 -0.10000000000E+04  0.10000000000E+04  0.00000000000E+00 0.  1.
    9000005    2    1    2  501    0  0.71695612423E+01 -0.16698306708E+02 -0.95196573130E+03  0.10090117909E+04  0.33396976606E+03 0.  0.
         13    1    3    3    0    0  0.56501593306E+00  0.96054377945E+02 -0.85433584489E+03  0.85971884860E+03  0.00000000000E+00 0.  1.
          3    1    3    3  501    0  0.66045453092E+01 -0.11275268465E+03 -0.97629886408E+02  0.14929294235E+03  0.00000000000E+00 0.  1.
         21    1    1    2  502  501 -0.71695612423E+01  0.16698306708E+02 -0.15279882048E+02  0.23742595703E+02  0.00000000000E+00 0.  1.
<mgrwt>
<rscale>  1 0.30000000E+03</rscale>
<asrwt>0</asrwt>
<pdfrwt beam="1">  1        1 0.11910711E+00 0.30000000E+03</pdfrwt>
<pdfrwt beam="2">0</pdfrwt>
<totfact> 0.26300593E+01</totfact>
</mgrwt>
</event>
<event>
 6    1  0.1950139E-004  0.3000000E+03  0.7818608E-02  0.1093470E+00
          1   -1    0    0  502    0  0.00000000000E+00  0.00000000000E+00  0.35944021475E+02  0.35944021475E+02  0.00000000000E+00 0.  1.
         13   -1    0    0    0    0 -0.00000000000E+00 -0.00000000000E+00 -0.10000000000E+04  0.10000000000E+04  0.00000000000E+00 0.  1.
    9000005    2    1    2  501    0  0.42739822699E+02 -0.16741616198E+01 -0.90584769255E+03  0.96371037407E+03  0.32611063725E+03 0.  0.
         13    1    3    3    0    0  0.16640280530E+03  0.16187972055E+02 -0.72414250636E+03  0.74319197626E+03  0.00000000000E+00 0.  1.
          3    1    3    3  501    0 -0.12366298261E+03 -0.17862133674E+02 -0.18170518619E+03  0.22051839781E+03  0.00000000000E+00 0.  1.
         21    1    1    2  502  501 -0.42739822699E+02  0.16741616198E+01 -0.58208285974E+02  0.72233647405E+02  0.00000000000E+00 0. -1.
<mgrwt>
<rscale>  1 0.30000000E+03</rscale>
<asrwt>0</asrwt>
<pdfrwt beam="1">  1        1 0.13070581E+00 0.30000000E+03</pdfrwt>
<pdfrwt beam="2">0</pdfrwt>
<totfact> 0.22678479E+01</totfact>
</mgrwt>
</event>
<event>
 6    1  0.1950139E-004  0.3000000E+03  0.7818608E-02  0.1093470E+00
          1   -1    0    0  502    0  0.00000000000E+00  0.00000000000E+00  0.34566703525E+02  0.34566703525E+02  0.00000000000E+00 0.  1.
         13   -1    0    0    0    0 -0.00000000000E+00 -0.00000000000E+00 -0.10000000000E+04  0.10000000000E+04  0.00000000000E+00 0.  1.
    9000005    2    1    2  501    0 -0.16499838747E+02  0.65063739778E+01 -0.92176112270E+03  0.98743034448E+03  0.35363899716E+03 0.  0.
         13    1    3    3    0    0 -0.18510699545E+03 -0.14688958025E+01 -0.46660493011E+03  0.50198298599E+03  0.00000000000E+00 0.  1.
          1    1    3    3  501    0  0.16860715671E+03  0.79752697803E+01 -0.45515619258E+03  0.48544735849E+03  0.00000000000E+00 0.  1.
         21    1    1    2  502  501  0.16499838747E+02 -0.65063739778E+01 -0.43672173779E+02  0.47136359041E+02  0.00000000000E+00 0.  1.
<mgrwt>
<rscale>  1 0.30000000E+03</rscale>
<asrwt>0</asrwt>
<pdfrwt beam="1">  1        1 0.12569737E+00 0.30000000E+03</pdfrwt>
<pdfrwt beam="2">0</pdfrwt>
<totfact> 0.24158202E+01</totfact>
</mgrwt>
</event>
<event>
 6    1  0.1950139E-004  0.3000000E+03  0.7818608E-02  0.1093470E+00
          1   -1    0    0  502    0  0.00000000000E+00  0.00000000000E+00  0.36024376250E+02  0.36024376250E+02  0.00000000000E+00 0.  1.
         13   -1    0    0    0    0 -0.00000000000E+00 -0.00000000000E+00 -0.10000000000E+04  0.10000000000E+04  0.00000000000E+00 0.  1.
    9000005    2    1    2  501    0  0.35038218467E+02 -0.20237634753E+02 -0.92205081134E+03  0.97775836121E+03  0.32279478868E+03 0.  0.
         13    1    3    3    0    0  0.74392623386E+02 -0.10495562338E+03 -0.13993355166E+03  0.19008246677E+03  0.00000000000E+00 0.  1.
          3    1    3    3  501    0 -0.39354404919E+02  0.84717988626E+02 -0.78211725968E+03  0.78767589444E+03  0.00000000000E+00 0.  1.
         21    1    1    2  502  501 -0.35038218467E+02  0.20237634753E+02 -0.41924812405E+02  0.58266015042E+02  0.00000000000E+00 0.  1.
<mgrwt>
<rscale>  1 0.30000000E+03</rscale>
<asrwt>0</asrwt>
<pdfrwt beam="1">  1        1 0.13099801E+00 0.30000000E+03</pdfrwt>
<pdfrwt beam="2">0</pdfrwt>
<totfact> 0.22595818E+01</totfact>
</mgrwt>
</event>
<event>
 6    1  0.1950139E-004  0.3000000E+03  0.7818608E-02  0.1093470E+00
          1   -1    0    0  502    0  0.00000000000E+00  0.00000000000E+00  0.32153907363E+02  0.32153907363E+02  0.00000000000E+00 0.  1.
         13   -1    0    0    0    0 -0.00000000000E+00 -0.00000000000E+00 -0.10000000000E+04  0.10000000000E+04  0.00000000000E+00 0.  1.
    9000005    2    1    2  501    0 -0.32888677772E+02  0.53198158553E+01 -0.88934355474E+03  0.94687428481E+03  0.32330942967E+03 0.  0.
         13    1    3    3    0    0  0.18634625457E+02 -0.13591364886E+03 -0.20817173295E+03  0.24930952572E+03  0.00000000000E+00 0.  1.
          3    1    3    3  501    0 -0.51523303229E+02  0.14123346472E+03 -0.68117182178E+03  0.69756475909E+03  0.00000000000E+00 0.  1.
         21    1    1    2  502  501  0.32888677772E+02 -0.53198158553E+01 -0.78502537901E+02  0.85279622556E+02  0.00000000000E+00 0. -1.
<mgrwt>
<rscale>  1 0.30000000E+03</rscale>
<asrwt>0</asrwt>
<pdfrwt beam="1">  1        1 0.11692355E+00 0.30000000E+03</pdfrwt>
<pdfrwt beam="2">0</pdfrwt>
<totfact> 0.27066111E+01</totfact>
</mgrwt>
</event>
<event>
 6    1  0.1950139E-004  0.3000000E+03  0.7818608E-02  0.1093470E+00
          1   -1    0    0  502    0  0.00000000000E+00  0.00000000000E+00  0.30869249513E+02  0.30869249513E+02  0.00000000000E+00 0.  1.
         13   -1    0    0    0    0 -0.00000000000E+00 -0.00000000000E+00 -0.10000000000E+04  0.10000000000E+04  0.00000000000E+00 0.  1.
    9000005    2    1    2  501    0  0.17651573300E+02 -0.10680153109E+01 -0.95899327374E+03  0.10104857481E+04  0.31796325142E+03 0.  0.
         13    1    3    3    0    0  0.12729593382E+03 -0.75079586912E+02 -0.74020464723E+03  0.75481396312E+03  0.00000000000E+00 0.  1.
          3    1    3    3  501    0 -0.10964436052E+03  0.74011571601E+02 -0.21878862651E+03  0.25567178494E+03  0.00000000000E+00 0.  1.
         21    1    1    2  502  501 -0.17651573300E+02  0.10680153109E+01 -0.10137476744E+02  0.20383501451E+02  0.00000000000E+00 0. -1.
<mgrwt>
<rscale>  1 0.30000000E+03</rscale>
<asrwt>0</asrwt>
<pdfrwt beam="1">  1        1 0.11225205E+00 0.30000000E+03</pdfrwt>
<pdfrwt beam="2">0</pdfrwt>
<totfact> 0.28811102E+01</totfact>
</mgrwt>
</event>
<event>
 6    1  0.1950139E-004  0.3000000E+03  0.7818608E-02  0.1093470E+00
          1   -1    0    0  502    0  0.00000000000E+00  0.00000000000E+00  0.44394978264E+02  0.44394978264E+02  0.00000000000E+00 0.  1.
         13   -1    0    0    0    0 -0.00000000000E+00 -0.00000000000E+00 -0.10000000000E+04  0.10000000000E+04  0.00000000000E+00 0.  1.
    9000005    2    1    2  501    0  0.52120113852E+01 -0.11846312482E+02 -0.97057412629E+03  0.10246067425E+04  0.32808130403E+03 0.  0.
         13    1    3    3    0    0 -0.25296360239E+02  0.13999668139E+03 -0.25062544126E+03  0.28818759246E+03  0.00000000000E+00 0.  1.
          1    1    3    3  501    0  0.30508371624E+02 -0.15184299387E+03 -0.71994868503E+03  0.73641915007E+03  0.00000000000E+00 0.  1.
         21    1    1    2  502  501 -0.52120113852E+01  0.11846312482E+02  0.14969104550E+02  0.19788235726E+02  0.00000000000E+00 0.  1.
<mgrwt>
<rscale>  1 0.30000000E+03</rscale>
<asrwt>0</asrwt>
<pdfrwt beam="1">  1        1 0.16143663E+00 0.30000000E+03</pdfrwt>
<pdfrwt beam="2">0</pdfrwt>
<totfact> 0.15742558E+01</totfact>
</mgrwt>
</event>
<event>
 6    1  0.1950139E-004  0.3000000E+03  0.7818608E-02  0.1093470E+00
          1   -1    0    0  502    0  0.00000000000E+00  0.00000000000E+00  0.59126419913E+02  0.59126419913E+02  0.00000000000E+00 0.  1.
         13   -1    0    0    0    0 -0.00000000000E+00 -0.00000000000E+00 -0.10000000000E+04  0.10000000000E+04  0.00000000000E+00 0.  1.
    9000005    2    1    2  501    0  0.13831640966E+02 -0.55114640749E+01 -0.97279594492E+03  0.10239024522E+04  0.31909652233E+03 0.  0.
         13    1    3    3    0    0  0.95018956452E+02 -0.12897870173E+03 -0.36876642612E+03  0.40206067281E+03  0.00000000000E+00 0.  1.
          1    1    3    3  501    0 -0.81187315486E+02  0.12346723765E+03 -0.60402951880E+03  0.62184177935E+03  0.00000000000E+00 0.  1.
         21    1    1    2  502  501 -0.13831640966E+02  0.55114640749E+01  0.31922364830E+02  0.35223967755E+02  0.00000000000E+00 0.  1.
<mgrwt>
<rscale>  1 0.30000000E+03</rscale>
<asrwt>0</asrwt>
<pdfrwt beam="1">  1        1 0.21500562E+00 0.30000000E+03</pdfrwt>
<pdfrwt beam="2">0</pdfrwt>
<totfact> 0.87004120E+00</totfact>
</mgrwt>
</event>
<event>
 6    1  0.1950139E-004  0.3000000E+03  0.7818608E-02  0.1093470E+00
          1   -1    0    0  502    0  0.00000000000E+00  0.00000000000E+00  0.37497354891E+02  0.37497354891E+02  0.00000000000E+00 0.  1.
         13   -1    0    0    0    0 -0.00000000000E+00 -0.00000000000E+00 -0.10000000000E+04  0.10000000000E+04  0.00000000000E+00 0.  1.
    9000005    2    1    2  501    0  0.96456500698E+01  0.93469950471E+01 -0.96995284993E+03  0.10221379788E+04  0.32214455105E+03 0.  0.
         13    1    3    3    0    0  0.11930735439E+02 -0.10699850997E+03 -0.84329164050E+03  0.85013635055E+03  0.00000000000E+00 0.  1.
          1    1    3    3  501    0 -0.22850853692E+01  0.11634550502E+03 -0.12666120942E+03  0.17200162826E+03  0.00000000000E+00 0.  1.
         21    1    1    2  502  501 -0.96456500698E+01 -0.93469950471E+01  0.74502048164E+01  0.15359376077E+02  0.00000000000E+00 0. -1.
<mgrwt>
<rscale>  1 0.30000000E+03</rscale>
<asrwt>0</asrwt>
<pdfrwt beam="1">  1        1 0.13635431E+00 0.30000000E+03</pdfrwt>
<pdfrwt beam="2">0</pdfrwt>
<totfact> 0.21148443E+01</totfact>
</mgrwt>
</event>
<event>
 6    1  0.1950139E-004  0.3000000E+03  0.7818608E-02  0.1093470E+00
          1   -1    0    0  502    0  0.00000000000E+00  0.00000000000E+00  0.52983295547E+02  0.52983295547E+02  0.00000000000E+00 0.  1.
         13   -1    0    0    0    0 -0.00000000000E+00 -0.00000000000E+00 -0.10000000000E+04  0.10000000000E+04  0.00000000000E+00 0.  1.
    9000005    2    1    2  501    0 -0.33145861370E+02 -0.17171744096E+02 -0.95651165894E+03  0.10144648444E+04  0.33590303636E+03 0.  0.
         13    1    3    3    0    0  0.11344774955E+03  0.41467394969E+02 -0.14972066157E+03  0.19236999045E+03  0.00000000000E+00 0.  1.
          1    1    3    3  501    0 -0.14659361092E+03 -0.58639139064E+02 -0.80679099737E+03  0.82209485391E+03  0.00000000000E+00 0.  1.
         21    1    1    2  502  501  0.33145861370E+02  0.17171744096E+02  0.94949544856E+01  0.38518451188E+02  0.00000000000E+00 0.  1.
<mgrwt>
<rscale>  1 0.30000000E+03</rscale>
<asrwt>0</asrwt>
<pdfrwt beam="1">  1        1 0.19266694E+00 0.30000000E+03</pdfrwt>
<pdfrwt beam="2">0</pdfrwt>
<totfact> 0.11102288E+01</totfact>
</mgrwt>
</event>
<event>
 6    1  0.1950139E-004  0.3000000E+03  0.7818608E-02  0.1093470E+00
          3   -1    0    0  502    0  0.00000000000E+00  0.00000000000E+00  0.25892347988E+02  0.25892347988E+02  0.00000000000E+00 0.  1.
         13   -1    0    0    0    0 -0.00000000000E+00 -0.00000000000E+00 -0.10000000000E+04  0.10000000000E+04  0.00000000000E+00 0.  1.
    9000005    2    1    2  501    0  0.89254291273E+01 -0.18492899933E+02 -0.93582671556E+03  0.98245180553E+03  0.29835927673E+03 0.  0.
         13    1    3    3    0    0 -0.68956792918E+02  0.60999139205E+02 -0.80691279998E+03  0.81214789358E+03  0.00000000000E+00 0.  1.
          3    1    3    3  501    0  0.77882222046E+02 -0.79492039138E+02 -0.12891391558E+03  0.17030391196E+03  0.00000000000E+00 0.  1.
         21    1    1    2  502  501 -0.89254291273E+01  0.18492899933E+02 -0.38280936451E+02  0.43440542453E+02  0.00000000000E+00 0. -1.
<mgrwt>
<rscale>  1 0.30000000E+03</rscale>
<asrwt>0</asrwt>
<pdfrwt beam="1">  1        3 0.94154191E-01 0.30000000E+03</pdfrwt>
<pdfrwt beam="2">0</pdfrwt>
<totfact> 0.45684924E+00</totfact>
</mgrwt>
</event>
<event>
 6    1  0.1950139E-004  0.3000000E+03  0.7818608E-02  0.1093470E+00
          1   -1    0    0  502    0  0.00000000000E+00  0.00000000000E+00  0.27202176997E+02  0.27202176997E+02  0.00000000000E+00 0.  1.
         13   -1    0    0    0    0 -0.00000000000E+00 -0.00000000000E+00 -0.10000000000E+04  0.10000000000E+04  0.00000000000E+00 0.  1.
    9000005    2    1    2  501    0 -0.11049559937E+02  0.64203359972E+00 -0.94908203957E+03  0.10010307543E+04  0.31809330117E+03 0.  0.
         13    1    3    3    0    0  0.60305556348E+01  0.23933180307E+02 -0.96682077627E+03  0.96713575994E+03  0.00000000000E+00 0.  1.
          1    1    3    3  501    0 -0.17080115572E+02 -0.23291146707E+02  0.17738736706E+02  0.33894994362E+02  0.00000000000E+00 0.  1.
         21    1    1    2  502  501  0.11049559937E+02 -0.64203359972E+00 -0.23715783436E+02  0.26171422696E+02  0.00000000000E+00 0. -1.
<mgrwt>
<rscale>  1 0.30000000E+03</rscale>
<asrwt>0</asrwt>
<pdfrwt beam="1">  1        1 0.98917216E-01 0.30000000E+03</pdfrwt>
<pdfrwt beam="2">0</pdfrwt>
<totfact> 0.34775200E+01</totfact>
</mgrwt>
</event>
<event>
 6    1  0.1950139E-004  0.3000000E+03  0.7818608E-02  0.1093470E+00
          1   -1    0    0  502    0  0.00000000000E+00  0.00000000000E+00  0.33613837376E+02  0.33613837376E+02  0.00000000000E+00 0.  1.
         13   -1    0    0    0    0 -0.00000000000E+00 -0.00000000000E+00 -0.10000000000E+04  0.10000000000E+04  0.00000000000E+00 0.  1.
    9000005    2    1    2  501    0 -0.30409893127E+02  0.26061484422E+02 -0.86932799909E+03  0.92861741039E+03  0.32402957012E+03 0.  0.
         13    1    3    3    0    0 -0.24518763900E+02  0.16769461070E+03 -0.60963738536E+03  0.63275618833E+03  0.00000000000E+00 0.  1.
          1    1    3    3  501    0 -0.58911292274E+01 -0.14163312628E+03 -0.25969061372E+03  0.29586122206E+03  0.00000000000E+00 0.  1.
         21    1    1    2  502  501  0.30409893127E+02 -0.26061484422E+02 -0.97058163538E+02  0.10499642698E+03  0.00000000000E+00 0.  1.
<mgrwt>
<rscale>  1 0.30000000E+03</rscale>
<asrwt>0</asrwt>
<pdfrwt beam="1">  1        1 0.12223239E+00 0.30000000E+03</pdfrwt>
<pdfrwt beam="2">0</pdfrwt>
<totfact> 0.25254854E+01</totfact>
</mgrwt>
</event>
<event>
 6    1  0.1950139E-004  0.3000000E+03  0.7818608E-02  0.1093470E+00
          1   -1    0    0  502    0  0.00000000000E+00  0.00000000000E+00  0.59475599223E+02  0.59475599223E+02  0.00000000000E+00 0.  1.
         13   -1    0    0    0    0 -0.00000000000E+00 -0.00000000000E+00 -0.10000000000E+04  0.10000000000E+04  0.00000000000E+00 0.  1.
    9000005    2    1    2  501    0  0.53322538523E+02 -0.50606522172E+02 -0.92261172176E+03  0.98381069804E+03  0.33356676580E+03 0.  0.
         13    1    3    3    0    0  0.31371388161E+01 -0.15249089157E+03 -0.19588332703E+03  0.24826113562E+03  0.00000000000E+00 0.  1.
          1    1    3    3  501    0  0.50185399707E+02  0.10188436939E+03 -0.72672839473E+03  0.73554956242E+03  0.00000000000E+00 0.  1.
         21    1    1    2  502  501 -0.53322538523E+02  0.50606522172E+02 -0.17912679014E+02  0.75664901179E+02  0.00000000000E+00 0.  1.
<mgrwt>
<rscale>  1 0.30000000E+03</rscale>
<asrwt>0</asrwt>
<pdfrwt beam="1">  1        1 0.21627536E+00 0.30000000E+03</pdfrwt>
<pdfrwt beam="2">0</pdfrwt>
<totfact> 0.85817394E+00</totfact>
</mgrwt>
</event>
<event>
 6    1  0.1950139E-004  0.3000000E+03  0.7818608E-02  0.1093470E+00
          1   -1    0    0  502    0  0.00000000000E+00  0.00000000000E+00  0.35447429101E+02  0.35447429101E+02  0.00000000000E+00 0.  1.
         13   -1    0    0    0    0 -0.00000000000E+00 -0.00000000000E+00 -0.10000000000E+04  0.10000000000E+04  0.00000000000E+00 0.  1.
    9000005    2    1    2  501    0 -0.83879274972E+01  0.23368436510E+02 -0.95381841225E+03  0.10083981534E+04  0.32631400695E+03 0.  0.
         13    1    3    3    0    0 -0.32083334032E+02  0.16622054719E+03 -0.65232618217E+03  0.67393475840E+03  0.00000000000E+00 0.  1.
          1    1    3    3  501    0  0.23695406535E+02 -0.14285211068E+03 -0.30149223008E+03  0.33446339503E+03  0.00000000000E+00 0.  1.
         21    1    1    2  502  501  0.83879274972E+01 -0.23368436510E+02 -0.10734158647E+02  0.27049275674E+02  0.00000000000E+00 0.  1.
<mgrwt>
<rscale>  1 0.30000000E+03</rscale>
<asrwt>0</asrwt>
<pdfrwt beam="1">  1        1 0.12890001E+00 0.30000000E+03</pdfrwt>
<pdfrwt beam="2">0</pdfrwt>
<totfact> 0.23198153E+01</totfact>
</mgrwt>
</event>
<event>
 6    1  0.1950139E-004  0.3000000E+03  0.7818608E-02  0.1093470E+00
          1   -1    0    0  502    0  0.00000000000E+00  0.00000000000E+00  0.44337848187E+02  0.44337848187E+02  0.00000000000E+00 0.  1.
         13   -1    0    0    0    0 -0.00000000000E+00 -0.00000000000E+00 -0.10000000000E+04  0.10000000000E+04  0.00000000000E+00 0.  1.
    9000005    2    1    2  501    0  0.69448619097E+02 -0.40384148771E+02 -0.81261888848E+03  0.88027881810E+03  0.32876640571E+03 0.  0.
         13    1    3    3    0    0  0.13760708934E+03  0.79497381815E+02 -0.63948686553E+03  0.65893777850E+03  0.00000000000E+00 0.  1.
          3    1    3    3  501    0 -0.68158470242E+02 -0.11988153059E+03 -0.17313202294E+03  0.22134103960E+03  0.00000000000E+00 0.  1.
         21    1    1    2  502  501 -0.69448619097E+02  0.40384148771E+02 -0.14304326334E+03  0.16405903009E+03  0.00000000000E+00 0.  1.
<mgrwt>
<rscale>  1 0.30000000E+03</rscale>
<asrwt>0</asrwt>
<pdfrwt beam="1">  1        1 0.16122888E+00 0.30000000E+03</pdfrwt>
<pdfrwt beam="2">0</pdfrwt>
<totfact> 0.15779921E+01</totfact>
</mgrwt>
</event>
<event>
 6    1  0.1950139E-004  0.3000000E+03  0.7818608E-02  0.1093470E+00
          1   -1    0    0  502    0  0.00000000000E+00  0.00000000000E+00  0.29346034212E+02  0.29346034212E+02  0.00000000000E+00 0.  1.
         13   -1    0    0    0    0 -0.00000000000E+00 -0.00000000000E+00 -0.10000000000E+04  0.10000000000E+04  0.00000000000E+00 0.  1.
    9000005    2    1    2  501    0  0.90348062908E+01  0.55404976147E+01 -0.95851737251E+03  0.10132332525E+04  0.32828911908E+03 0.  0.
         13    1    3    3    0    0 -0.38613207850E+01  0.90260246106E+02 -0.55224898256E+02  0.10588489606E+03  0.00000000000E+00 0.  1.
          3    1    3    3  501    0  0.12896127076E+02 -0.84719748491E+02 -0.90329247425E+03  0.90734835643E+03  0.00000000000E+00 0.  1.
         21    1    1    2  502  501 -0.90348062908E+01 -0.55404976147E+01 -0.12136593282E+02  0.16112781728E+02  0.00000000000E+00 0.  1.
<mgrwt>
<rscale>  1 0.30000000E+03</rscale>
<asrwt>0</asrwt>
<pdfrwt beam="1">  1        1 0.10671308E+00 0.30000000E+03</pdfrwt>
<pdfrwt beam="2">0</pdfrwt>
<totfact> 0.31094192E+01</totfact>
</mgrwt>
</event>
<event>
 6    1  0.1950139E-004  0.3000000E+03  0.7818608E-02  0.1093470E+00
          1   -1    0    0  502    0  0.00000000000E+00  0.00000000000E+00  0.34450283789E+02  0.34450283789E+02  0.00000000000E+00 0.  1.
         13   -1    0    0    0    0 -0.00000000000E+00 -0.00000000000E+00 -0.10000000000E+04  0.10000000000E+04  0.00000000000E+00 0.  1.
    9000005    2    1    2  501    0 -0.12350620373E+02  0.19280699149E+02 -0.95470928908E+03  0.10091165505E+04  0.32607070185E+03 0.  0.
         13    1    3    3    0    0 -0.24708154692E+02 -0.98457938363E+02 -0.87955815416E+02  0.13431561339E+03  0.00000000000E+00 0.  1.
          3    1    3    3  501    0  0.12357534319E+02  0.11773863751E+03 -0.86675347366E+03  0.87480093708E+03  0.00000000000E+00 0.  1.
         21    1    1    2  502  501  0.12350620373E+02 -0.19280699149E+02 -0.10840427135E+02  0.25333733317E+02  0.00000000000E+00 0.  1.
<mgrwt>
<rscale>  1 0.30000000E+03</rscale>
<asrwt>0</asrwt>
<pdfrwt beam="1">  1        1 0.12527402E+00 0.30000000E+03</pdfrwt>
<pdfrwt beam="2">0</pdfrwt>
<totfact> 0.24288880E+01</totfact>
</mgrwt>
</event>
<event>
 6    1  0.1950139E-004  0.3000000E+03  0.7818608E-02  0.1093470E+00
          3   -1    0    0  502    0  0.00000000000E+00  0.00000000000E+00  0.28117325090E+02  0.28117325090E+02  0.00000000000E+00 0.  1.
         13   -1    0    0    0    0 -0.00000000000E+00 -0.00000000000E+00 -0.10000000000E+04  0.10000000000E+04  0.00000000000E+00 0.  1.
    9000005    2    1    2  501    0  0.16040881182E+02  0.14445278333E+02 -0.91400925866E+03  0.96634914360E+03  0.31297246924E+03 0.  0.
         13    1    3    3    0    0  0.54068216382E+02 -0.87242882245E+01 -0.91981356444E+03  0.92144260730E+03  0.00000000000E+00 0.  1.
          1    1    3    3  501    0 -0.38027335200E+02  0.23169566557E+02  0.58043057832E+01  0.44906536300E+02  0.00000000000E+00 0.  1.
         21    1    1    2  502  501 -0.16040881182E+02 -0.14445278333E+02 -0.57873416253E+02  0.61768181486E+02  0.00000000000E+00 0. -1.
<mgrwt>
<rscale>  1 0.30000000E+03</rscale>
<asrwt>0</asrwt>
<pdfrwt beam="1">  1        3 0.10224503E+00 0.30000000E+03</pdfrwt>
<pdfrwt beam="2">0</pdfrwt>
<totfact> 0.36930732E+00</totfact>
</mgrwt>
</event>
<event>
 6    1  0.1950139E-004  0.3000000E+03  0.7818608E-02  0.1093470E+00
          3   -1    0    0  502    0  0.00000000000E+00  0.00000000000E+00  0.26840315357E+02  0.26840315357E+02  0.00000000000E+00 0.  1.
         13   -1    0    0    0    0 -0.00000000000E+00 -0.00000000000E+00 -0.10000000000E+04  0.10000000000E+04  0.00000000000E+00 0.  1.
    9000005    2    1    2  501    0 -0.37560916027E+01  0.12257580849E+02 -0.95220523771E+03  0.10022751905E+04  0.31256421145E+03 0.  0.
         13    1    3    3    0    0  0.91888037888E+02 -0.11903975393E+03 -0.45420989821E+03  0.47845637853E+03  0.00000000000E+00 0.  1.
          1    1    3    3  501    0 -0.95644129491E+02  0.13129733478E+03 -0.49799533949E+03  0.52381881198E+03  0.00000000000E+00 0.  1.
         21    1    1    2  502  501  0.37560916027E+01 -0.12257580849E+02 -0.20954446934E+02  0.24565124846E+02  0.00000000000E+00 0. -1.
<mgrwt>
<rscale>  1 0.30000000E+03</rscale>
<asrwt>0</asrwt>
<pdfrwt beam="1">  1        3 0.97601353E-01 0.30000000E+03</pdfrwt>
<pdfrwt beam="2">0</pdfrwt>
<totfact> 0.41717140E+00</totfact>
</mgrwt>
</event>
<event>
 6    1  0.1950139E-004  0.3000000E+03  0.7818608E-02  0.1093470E+00
          1   -1    0    0  502    0  0.00000000000E+00  0.00000000000E+00  0.37354133592E+02  0.37354133592E+02  0.00000000000E+00 0.  1.
         13   -1    0    0    0    0 -0.00000000000E+00 -0.00000000000E+00 -0.10000000000E+04  0.10000000000E+04  0.00000000000E+00 0.  1.
    9000005    2    1    2  501    0 -0.90950754818E+01  0.44134962002E+01 -0.96430244810E+03  0.10271099348E+04  0.35351578089E+03 0.  0.
         13    1    3    3    0    0 -0.24868694387E+02  0.12622056787E+03 -0.84884717318E+03  0.85854039342E+03  0.00000000000E+00 0.  1.
          3    1    3    3  501    0  0.15773618905E+02 -0.12180707167E+03 -0.11545527492E+03  0.16856954135E+03  0.00000000000E+00 0.  1.
         21    1    1    2  502  501  0.90950754818E+01 -0.44134962002E+01  0.16565816893E+01  0.10244198828E+02  0.00000000000E+00 0. -1.
<mgrwt>
<rscale>  1 0.30000000E+03</rscale>
<asrwt>0</asrwt>
<pdfrwt beam="1">  1        1 0.13583350E+00 0.30000000E+03</pdfrwt>
<pdfrwt beam="2">0</pdfrwt>
<totfact> 0.21283673E+01</totfact>
</mgrwt>
</event>
<event>
 6    1  0.1950139E-004  0.3000000E+03  0.7818608E-02  0.1093470E+00
          3   -1    0    0  502    0  0.00000000000E+00  0.00000000000E+00  0.19801082768E+02  0.19801082768E+02  0.00000000000E+00 0.  1.
         13   -1    0    0    0    0 -0.00000000000E+00 -0.00000000000E+00 -0.10000000000E+04  0.10000000000E+04  0.00000000000E+00 0.  1.
    9000005    2    1    2  501    0  0.27288403749E+01 -0.10802554503E+02 -0.95074706259E+03  0.98831214033E+03  0.26966046793E+03 0.  0.
         13    1    3    3    0    0  0.30264491564E+02  0.12583444038E+03 -0.50211108765E+03  0.51852269977E+03  0.00000000000E+00 0.  1.
          3    1    3    3  501    0 -0.27535651189E+02 -0.13663699489E+03 -0.44863597493E+03  0.46978944056E+03  0.00000000000E+00 0.  1.
         21    1    1    2  502  501 -0.27288403749E+01  0.10802554503E+02 -0.29451854645E+02  0.31488942434E+02  0.00000000000E+00 0.  1.
<mgrwt>
<rscale>  1 0.30000000E+03</rscale>
<asrwt>0</asrwt>
<pdfrwt beam="1">  1        3 0.72004089E-01 0.30000000E+03</pdfrwt>
<pdfrwt beam="2">0</pdfrwt>
<totfact> 0.84070259E+00</totfact>
</mgrwt>
</event>
<event>
 6    1  0.1950139E-004  0.3000000E+03  0.7818608E-02  0.1093470E+00
          3   -1    0    0  502    0  0.00000000000E+00  0.00000000000E+00  0.26586271158E+02  0.26586271158E+02  0.00000000000E+00 0.  1.
         13   -1    0    0    0    0 -0.00000000000E+00 -0.00000000000E+00 -0.10000000000E+04  0.10000000000E+04  0.00000000000E+00 0.  1.
    9000005    2    1    2  501    0 -0.86464109685E-01 -0.10137558844E+02 -0.96718430825E+03  0.10146873949E+04  0.30666308168E+03 0.  0.
         13    1    3    3    0    0 -0.81190365889E+02 -0.10252284990E+03 -0.77903942984E+03  0.78994002526E+03  0.00000000000E+00 0.  1.
          3    1    3    3  501    0  0.81103901779E+02  0.92385291053E+02 -0.18814487841E+03  0.22474736963E+03  0.00000000000E+00 0.  1.
         21    1    1    2  502  501  0.86464109685E-01  0.10137558844E+02 -0.62294205952E+01  0.11898876263E+02  0.00000000000E+00 0.  1.
<mgrwt>
<rscale>  1 0.30000000E+03</rscale>
<asrwt>0</asrwt>
<pdfrwt beam="1">  1        3 0.96677554E-01 0.30000000E+03</pdfrwt>
<pdfrwt beam="2">0</pdfrwt>
<totfact> 0.42743189E+00</totfact>
</mgrwt>
</event>
<event>
 6    1  0.1950139E-004  0.3000000E+03  0.7818608E-02  0.1093470E+00
          1   -1    0    0  502    0  0.00000000000E+00  0.00000000000E+00  0.28855102877E+02  0.28855102877E+02  0.00000000000E+00 0.  1.
         13   -1    0    0    0    0 -0.00000000000E+00 -0.00000000000E+00 -0.10000000000E+04  0.10000000000E+04  0.00000000000E+00 0.  1.
    9000005    2    1    2  501    0 -0.13237941086E+02  0.58287437624E-01 -0.95506248849E+03  0.10080250681E+04  0.32217221250E+03 0.  0.
         13    1    3    3    0    0  0.38105065545E+02 -0.22130590581E+02  0.67571633788E+01  0.44580470125E+02  0.00000000000E+00 0.  1.
          1    1    3    3  501    0 -0.51343006630E+02  0.22188878018E+02 -0.96181965187E+03  0.96344459797E+03  0.00000000000E+00 0.  1.
         21    1    1    2  502  501  0.13237941086E+02 -0.58287437624E-01 -0.16082408632E+02  0.20830034782E+02  0.00000000000E+00 0. -1.
<mgrwt>
<rscale>  1 0.30000000E+03</rscale>
<asrwt>0</asrwt>
<pdfrwt beam="1">  1        1 0.10492787E+00 0.30000000E+03</pdfrwt>
<pdfrwt beam="2">0</pdfrwt>
<totfact> 0.31885250E+01</totfact>
</mgrwt>
</event>
<event>
 6    1  0.1950139E-004  0.3000000E+03  0.7818608E-02  0.1093470E+00
          1   -1    0    0  502    0  0.00000000000E+00  0.00000000000E+00  0.47557410229E+02  0.47557410229E+02  0.00000000000E+00 0.  1.
         13   -1    0    0    0    0 -0.00000000000E+00 -0.00000000000E+00 -0.10000000000E+04  0.10000000000E+04  0.00000000000E+00 0.  1.
    9000005    2    1    2  501    0 -0.19337226493E+02 -0.34350146862E+02 -0.95530241281E+03  0.10080347647E+04  0.31933920226E+03 0.  0.
         13    1    3    3    0    0 -0.75699253627E+01  0.10795464430E+03 -0.75112607998E+03  0.75888200468E+03  0.00000000000E+00 0.  1.
          3    1    3    3  501    0 -0.11767301130E+02 -0.14230479116E+03 -0.20417633283E+03  0.24915276007E+03  0.00000000000E+00 0.  1.
         21    1    1    2  502  501  0.19337226493E+02  0.34350146862E+02  0.28598230422E+01  0.39522645479E+02  0.00000000000E+00 0.  1.
<mgrwt>
<rscale>  1 0.30000000E+03</rscale>
<asrwt>0</asrwt>
<pdfrwt beam="1">  1        1 0.17293640E+00 0.30000000E+03</pdfrwt>
<pdfrwt beam="2">0</pdfrwt>
<totfact> 0.13823688E+01</totfact>
</mgrwt>
</event>
<event>
 6    1  0.1950139E-004  0.3000000E+03  0.7818608E-02  0.1093470E+00
          1   -1    0    0  502    0  0.00000000000E+00  0.00000000000E+00  0.36968178776E+02  0.36968178776E+02  0.00000000000E+00 0.  1.
         13   -1    0    0    0    0 -0.00000000000E+00 -0.00000000000E+00 -0.10000000000E+04  0.10000000000E+04  0.00000000000E+00 0.  1.
    9000005    2    1    2  501    0  0.16112260079E+02 -0.23133774831E+01 -0.95523597096E+03  0.10189201340E+04  0.35419983418E+03 0.  0.
         13    1    3    3    0    0 -0.70985503922E+02  0.14892278672E+03 -0.31838619957E+03  0.35858989145E+03  0.00000000000E+00 0.  1.
          1    1    3    3  501    0  0.87097764001E+02 -0.15123616421E+03 -0.63684977139E+03  0.66033024251E+03  0.00000000000E+00 0.  1.
         21    1    1    2  502  501 -0.16112260079E+02  0.23133774831E+01 -0.77958502594E+01  0.18048044811E+02  0.00000000000E+00 0.  1.
<mgrwt>
<rscale>  1 0.30000000E+03</rscale>
<asrwt>0</asrwt>
<pdfrwt beam="1">  1        1 0.13443002E+00 0.30000000E+03</pdfrwt>
<pdfrwt beam="2">0</pdfrwt>
<totfact> 0.21653887E+01</totfact>
</mgrwt>
</event>
<event>
 6    1  0.1950139E-004  0.3000000E+03  0.7818608E-02  0.1093470E+00
          1   -1    0    0  502    0  0.00000000000E+00  0.00000000000E+00  0.30657672415E+02  0.30657672415E+02  0.00000000000E+00 0.  1.
         13   -1    0    0    0    0 -0.00000000000E+00 -0.00000000000E+00 -0.10000000000E+04  0.10000000000E+04  0.00000000000E+00 0.  1.
    9000005    2    1    2  501    0 -0.13636884685E+02  0.13818448030E+01 -0.96385266441E+03  0.10158924931E+04  0.32068321548E+03 0.  0.
         13    1    3    3    0    0 -0.67991766860E+02 -0.74098826684E+02 -0.83705198868E+02  0.13084371133E+03  0.00000000000E+00 0.  1.
          3    1    3    3  501    0  0.54354882175E+02  0.75480671487E+02 -0.88014746554E+03  0.88504878175E+03  0.00000000000E+00 0.  1.
         21    1    1    2  502  501  0.13636884685E+02 -0.13818448030E+01 -0.54896631772E+01  0.14765179334E+02  0.00000000000E+00 0.  1.
<mgrwt>
<rscale>  1 0.30000000E+03</rscale>
<asrwt>0</asrwt>
<pdfrwt beam="1">  1        1 0.11148268E+00 0.30000000E+03</pdfrwt>
<pdfrwt beam="2">0</pdfrwt>
<totfact> 0.29113699E+01</totfact>
</mgrwt>
</event>
<event>
 6    1  0.1950139E-004  0.3000000E+03  0.7818608E-02  0.1093470E+00
          1   -1    0    0  502    0  0.00000000000E+00  0.00000000000E+00  0.34623349727E+02  0.34623349727E+02  0.00000000000E+00 0.  1.
         13   -1    0    0    0    0 -0.00000000000E+00 -0.00000000000E+00 -0.10000000000E+04  0.10000000000E+04  0.00000000000E+00 0.  1.
    9000005    2    1    2  501    0 -0.12785945924E+01  0.24355671075E+02 -0.91396418273E+03  0.97771926080E+03  0.34642400625E+03 0.  0.
         13    1    3    3    0    0  0.96304780117E+02 -0.51965238787E+02 -0.82417602298E+02  0.13699510168E+03  0.00000000000E+00 0.  1.
          3    1    3    3  501    0 -0.97583374709E+02  0.76320909862E+02 -0.83154658043E+03  0.84072415912E+03  0.00000000000E+00 0.  1.
         21    1    1    2  502  501  0.12785945924E+01 -0.24355671075E+02 -0.51412467543E+02  0.56904088926E+02  0.00000000000E+00 0.  1.
<mgrwt>
<rscale>  1 0.30000000E+03</rscale>
<asrwt>0</asrwt>
<pdfrwt beam="1">  1        1 0.12590336E+00 0.30000000E+03</pdfrwt>
<pdfrwt beam="2">0</pdfrwt>
<totfact> 0.24094942E+01</totfact>
</mgrwt>
</event>
<event>
 6    1  0.1950139E-004  0.3000000E+03  0.7818608E-02  0.1093470E+00
          1   -1    0    0  502    0  0.00000000000E+00  0.00000000000E+00  0.40304414741E+02  0.40304414741E+02  0.00000000000E+00 0.  1.
         13   -1    0    0    0    0 -0.00000000000E+00 -0.00000000000E+00 -0.10000000000E+04  0.10000000000E+04  0.00000000000E+00 0.  1.
    9000005    2    1    2  501    0 -0.29535615343E+01  0.10003869590E+02 -0.96911043258E+03  0.10262530702E+04  0.33750782610E+03 0.  0.
         13    1    3    3    0    0 -0.12424365813E+03  0.20634806843E+01 -0.13559063966E+03  0.18391728060E+03  0.00000000000E+00 0.  1.
          3    1    3    3  501    0  0.12129009659E+03  0.79403889052E+01 -0.83351979292E+03  0.84233578963E+03  0.00000000000E+00 0.  1.
         21    1    1    2  502  501  0.29535615343E+01 -0.10003869590E+02  0.94148473240E+01  0.14051344513E+02  0.00000000000E+00 0.  1.
<mgrwt>
<rscale>  1 0.30000000E+03</rscale>
<asrwt>0</asrwt>
<pdfrwt beam="1">  1        1 0.14656182E+00 0.30000000E+03</pdfrwt>
<pdfrwt beam="2">0</pdfrwt>
<totfact> 0.18706627E+01</totfact>
</mgrwt>
</event>
<event>
 6    1  0.1950139E-004  0.3000000E+03  0.7818608E-02  0.1093470E+00
          1   -1    0    0  502    0  0.00000000000E+00  0.00000000000E+00  0.29979894333E+02  0.29979894333E+02  0.00000000000E+00 0.  1.
         13   -1    0    0    0    0 -0.00000000000E+00 -0.00000000000E+00 -0.10000000000E+04  0.10000000000E+04  0.00000000000E+00 0.  1.
    9000005    2    1    2  501    0  0.17236897416E+02  0.43064350152E+01 -0.88373979411E+03  0.94188932630E+03  0.32533647702E+03 0.  0.
         13    1    3    3    0    0 -0.67130294614E+01 -0.15932757272E+03 -0.39748290950E+03  0.42827911873E+03  0.00000000000E+00 0.  1.
          3    1    3    3  501    0  0.23949926877E+02  0.16363400774E+03 -0.48625688462E+03  0.51361020757E+03  0.00000000000E+00 0.  1.
         21    1    1    2  502  501 -0.17236897416E+02 -0.43064350152E+01 -0.86280311555E+02  0.88090568037E+02  0.00000000000E+00 0.  1.
<mgrwt>
<rscale>  1 0.30000000E+03</rscale>
<asrwt>0</asrwt>
<pdfrwt beam="1">  1        1 0.10901803E+00 0.30000000E+03</pdfrwt>
<pdfrwt beam="2">0</pdfrwt>
<totfact> 0.30113901E+01</totfact>
</mgrwt>
</event>
<event>
 6    1  0.1950139E-004  0.3000000E+03  0.7818608E-02  0.1093470E+00
          1   -1    0    0  502    0  0.00000000000E+00  0.00000000000E+00  0.27043687397E+02  0.27043687397E+02  0.00000000000E+00 0.  1.
         13   -1    0    0    0    0 -0.00000000000E+00 -0.00000000000E+00 -0.10000000000E+04  0.10000000000E+04  0.00000000000E+00 0.  1.
    9000005    2    1    2  501    0  0.11694860785E+02 -0.19708060801E+01 -0.97610533664E+03  0.10147729825E+04  0.27720375904E+03 0.  0.
         13    1    3    3    0    0  0.82882139493E+02 -0.82719176065E+02 -0.79888043596E+03  0.80741678339E+03  0.00000000000E+00 0.  1.
          3    1    3    3  501    0 -0.71187278708E+02  0.80748369985E+02 -0.17722490068E+03  0.20735619915E+03  0.00000000000E+00 0.  1.
         21    1    1    2  502  501 -0.11694860785E+02  0.19708060801E+01  0.31490240355E+01  0.12270704860E+02  0.00000000000E+00 0. -1.
<mgrwt>
<rscale>  1 0.30000000E+03</rscale>
<asrwt>0</asrwt>
<pdfrwt beam="1">  1        1 0.98340889E-01 0.30000000E+03</pdfrwt>
<pdfrwt beam="2">0</pdfrwt>
<totfact> 0.35072312E+01</totfact>
</mgrwt>
</event>
<event>
 6    1  0.1950139E-004  0.3000000E+03  0.7818608E-02  0.1093470E+00
          1   -1    0    0  502    0  0.00000000000E+00  0.00000000000E+00  0.35909689155E+02  0.35909689155E+02  0.00000000000E+00 0.  1.
         13   -1    0    0    0    0 -0.00000000000E+00 -0.00000000000E+00 -0.10000000000E+04  0.10000000000E+04  0.00000000000E+00 0.  1.
    9000005    2    1    2  501    0  0.33253627792E+01  0.29370048953E+02 -0.93156399690E+03  0.99195950244E+03  0.33955635225E+03 0.  0.
         13    1    3    3    0    0 -0.15977575308E+03 -0.48192350718E+01 -0.59923573516E+03  0.62018947314E+03  0.00000000000E+00 0.  1.
          3    1    3    3  501    0  0.16310111586E+03  0.34189284025E+02 -0.33232826174E+03  0.37177002931E+03  0.00000000000E+00 0.  1.
         21    1    1    2  502  501 -0.33253627792E+01 -0.29370048953E+02 -0.32526313944E+02  0.43950186711E+02  0.00000000000E+00 0. -1.
<mgrwt>
<rscale>  1 0.30000000E+03</rscale>
<asrwt>0</asrwt>
<pdfrwt beam="1">  1        1 0.13058096E+00 0.30000000E+03</pdfrwt>
<pdfrwt beam="2">0</pdfrwt>
<totfact> 0.22713917E+01</totfact>
</mgrwt>
</event>
<event>
 6    1  0.1950139E-004  0.3000000E+03  0.7818608E-02  0.1093470E+00
          1   -1    0    0  502    0  0.00000000000E+00  0.00000000000E+00  0.32576435406E+02  0.32576435406E+02  0.00000000000E+00 0.  1.
         13   -1    0    0    0    0 -0.00000000000E+00 -0.00000000000E+00 -0.10000000000E+04  0.10000000000E+04  0.00000000000E+00 0.  1.
    9000005    2    1    2  501    0  0.21432183569E+02  0.75880086661E+01 -0.95874055892E+03  0.10082389960E+04  0.31120009226E+03 0.  0.
         13    1    3    3    0    0  0.12986542687E+03  0.82085296572E+02 -0.30633636052E+03  0.34270248144E+03  0.00000000000E+00 0.  1.
          1    1    3    3  501    0 -0.10843324330E+03 -0.74497287905E+02 -0.65240419840E+03  0.66553651458E+03  0.00000000000E+00 0.  1.
         21    1    1    2  502  501 -0.21432183569E+02 -0.75880086661E+01 -0.86830056744E+01  0.24337439380E+02  0.00000000000E+00 0.  1.
<mgrwt>
<rscale>  1 0.30000000E+03</rscale>
<asrwt>0</asrwt>
<pdfrwt beam="1">  1        1 0.11846001E+00 0.30000000E+03</pdfrwt>
<pdfrwt beam="2">0</pdfrwt>
<totfact> 0.26524343E+01</totfact>
</mgrwt>
</event>
<event>
 6    1  0.1950139E-004  0.3000000E+03  0.7818608E-02  0.1093470E+00
          1   -1    0    0  502    0  0.00000000000E+00  0.00000000000E+00  0.37798807465E+02  0.37798807465E+02  0.00000000000E+00 0.  1.
         13   -1    0    0    0    0 -0.00000000000E+00 -0.00000000000E+00 -0.10000000000E+04  0.10000000000E+04  0.00000000000E+00 0.  1.
    9000005    2    1    2  501    0 -0.98731831808E+01 -0.51570241611E+01 -0.97035140670E+03  0.10239966107E+04  0.32689926833E+03 0.  0.
         13    1    3    3    0    0 -0.98104995982E+02 -0.11484075623E+03 -0.72996269829E+03  0.74542506694E+03  0.00000000000E+00 0.  1.
          3    1    3    3  501    0  0.88231812801E+02  0.10968373207E+03 -0.24038870841E+03  0.27857154377E+03  0.00000000000E+00 0.  1.
         21    1    1    2  502  501  0.98731831808E+01  0.51570241611E+01  0.81502141597E+01  0.13802196752E+02  0.00000000000E+00 0.  1.
<mgrwt>
<rscale>  1 0.30000000E+03</rscale>
<asrwt>0</asrwt>
<pdfrwt beam="1">  1        1 0.13745050E+00 0.30000000E+03</pdfrwt>
<pdfrwt beam="2">0</pdfrwt>
<totfact> 0.20867468E+01</totfact>
</mgrwt>
</event>
<event>
 6    1  0.1950139E-004  0.3000000E+03  0.7818608E-02  0.1093470E+00
          1   -1    0    0  502    0  0.00000000000E+00  0.00000000000E+00  0.23465587711E+02  0.23465587711E+02  0.00000000000E+00 0.  1.
         13   -1    0    0    0    0 -0.00000000000E+00 -0.00000000000E+00 -0.10000000000E+04  0.10000000000E+04  0.00000000000E+00 0.  1.
    9000005    2    1    2  501    0 -0.17120038470E+02  0.48123665773E+01 -0.92152149408E+03  0.96564970963E+03  0.28802993430E+03 0.  0.
         13    1    3    3    0    0 -0.47164866221E+01  0.14490482420E+03 -0.53654765539E+03  0.55579046396E+03  0.00000000000E+00 0.  1.
          3    1    3    3  501    0 -0.12403551848E+02 -0.14009245762E+03 -0.38497383869E+03  0.40985924567E+03  0.00000000000E+00 0.  1.
         21    1    1    2  502  501  0.17120038470E+02 -0.48123665773E+01 -0.55012918206E+02  0.57815878085E+02  0.00000000000E+00 0. -1.
<mgrwt>
<rscale>  1 0.30000000E+03</rscale>
<asrwt>0</asrwt>
<pdfrwt beam="1">  1        1 0.85329590E-01 0.30000000E+03</pdfrwt>
<pdfrwt beam="2">0</pdfrwt>
<totfact> 0.42936062E+01</totfact>
</mgrwt>
</event>
<event>
 6    1  0.1950139E-004  0.3000000E+03  0.7818608E-02  0.1093470E+00
          1   -1    0    0  502    0  0.00000000000E+00  0.00000000000E+00  0.36147580813E+02  0.36147580813E+02  0.00000000000E+00 0.  1.
         13   -1    0    0    0    0 -0.00000000000E+00 -0.00000000000E+00 -0.10000000000E+04  0.10000000000E+04  0.00000000000E+00 0.  1.
    9000005    2    1    2  501    0 -0.28255726143E+02  0.16186408158E+02 -0.93607742884E+03  0.99334762803E+03  0.33081440639E+03 0.  0.
         13    1    3    3    0    0 -0.15060312467E+03  0.70422278055E+02 -0.72189105387E+03  0.74078829098E+03  0.00000000000E+00 0.  1.
          3    1    3    3  501    0  0.12234739852E+03 -0.54235869897E+02 -0.21418637497E+03  0.25255933705E+03  0.00000000000E+00 0.  1.
         21    1    1    2  502  501  0.28255726143E+02 -0.16186408158E+02 -0.27774990351E+02  0.42799952779E+02  0.00000000000E+00 0. -1.
<mgrwt>
<rscale>  1 0.30000000E+03</rscale>
<asrwt>0</asrwt>
<pdfrwt beam="1">  1        1 0.13144603E+00 0.30000000E+03</pdfrwt>
<pdfrwt beam="2">0</pdfrwt>
<totfact> 0.22469840E+01</totfact>
</mgrwt>
</event>
<event>
 6    1  0.1950139E-004  0.3000000E+03  0.7818608E-02  0.1093470E+00
          1   -1    0    0  502    0  0.00000000000E+00  0.00000000000E+00  0.41886222911E+02  0.41886222911E+02  0.00000000000E+00 0.  1.
         13   -1    0    0    0    0 -0.00000000000E+00 -0.00000000000E+00 -0.10000000000E+04  0.10000000000E+04  0.00000000000E+00 0.  1.
    9000005    2    1    2  501    0 -0.54465830809E+01  0.17728958081E+02 -0.96906507800E+03  0.10203476015E+04  0.31887006946E+03 0.  0.
         13    1    3    3    0    0  0.11611535168E+03  0.60859485615E+02 -0.78328435052E+03  0.79417946691E+03  0.00000000000E+00 0.  1.
          3    1    3    3  501    0 -0.12156193476E+03 -0.43130527534E+02 -0.18578072748E+03  0.22616813456E+03  0.00000000000E+00 0.  1.
         21    1    1    2  502  501  0.54465830809E+01 -0.17728958081E+02  0.10951300914E+02  0.21538621442E+02  0.00000000000E+00 0.  1.
<mgrwt>
<rscale>  1 0.30000000E+03</rscale>
<asrwt>0</asrwt>
<pdfrwt beam="1">  1        1 0.15231386E+00 0.30000000E+03</pdfrwt>
<pdfrwt beam="2">0</pdfrwt>
<totfact> 0.17486277E+01</totfact>
</mgrwt>
</event>
<event>
 6    1  0.1950139E-004  0.3000000E+03  0.7818608E-02  0.1093470E+00
          1   -1    0    0  502    0  0.00000000000E+00  0.00000000000E+00  0.53427583112E+02  0.53427583112E+02  0.00000000000E+00 0.  1.
         13   -1    0    0    0    0 -0.00000000000E+00 -0.00000000000E+00 -0.10000000000E+04  0.10000000000E+04  0.00000000000E+00 0.  1.
    9000005    2    1    2  501    0  0.20490985996E+02 -0.36006779757E+02 -0.95411299917E+03  0.10113178565E+04  0.33273987282E+03 0.  0.
         13    1    3    3    0    0  0.12123976076E+02  0.21709355817E+02 -0.95265574317E+03  0.95298019493E+03  0.00000000000E+00 0.  1.
          1    1    3    3  501    0  0.83670099201E+01 -0.57716135575E+02 -0.14572559969E+01  0.58337661555E+02  0.00000000000E+00 0.  1.
         21    1    1    2  502  501 -0.20490985996E+02  0.36006779757E+02  0.75405822819E+01  0.42109726629E+02  0.00000000000E+00 0. -1.
<mgrwt>
<rscale>  1 0.30000000E+03</rscale>
<asrwt>0</asrwt>
<pdfrwt beam="1">  1        1 0.19428253E+00 0.30000000E+03</pdfrwt>
<pdfrwt beam="2">0</pdfrwt>
<totfact> 0.10906449E+01</totfact>
</mgrwt>
</event>
<event>
 6    1  0.1950139E-004  0.3000000E+03  0.7818608E-02  0.1093470E+00
          1   -1    0    0  502    0  0.00000000000E+00  0.00000000000E+00  0.43390758464E+02  0.43390758464E+02  0.00000000000E+00 0.  1.
         13   -1    0    0    0    0 -0.00000000000E+00 -0.00000000000E+00 -0.10000000000E+04  0.10000000000E+04  0.00000000000E+00 0.  1.
    9000005    2    1    2  501    0 -0.53673705226E+02  0.49613721930E+02 -0.83331335641E+03  0.90005805694E+03  0.33219116162E+03 0.  0.
         13    1    3    3    0    0 -0.13685033592E+03 -0.12733585095E+02 -0.76128472318E+03  0.77359200382E+03  0.00000000000E+00 0.  1.
          1    1    3    3  501    0  0.83176630693E+02  0.62347307024E+02 -0.72028633229E+02  0.12646605312E+03  0.00000000000E+00 0.  1.
         21    1    1    2  502  501  0.53673705226E+02 -0.49613721930E+02 -0.12329588513E+03  0.14333270152E+03  0.00000000000E+00 0.  1.
<mgrwt>
<rscale>  1 0.30000000E+03</rscale>
<asrwt>0</asrwt>
<pdfrwt beam="1">  1        1 0.15778491E+00 0.30000000E+03</pdfrwt>
<pdfrwt beam="2">0</pdfrwt>
<totfact> 0.16414609E+01</totfact>
</mgrwt>
</event>
<event>
 6    1  0.1950139E-004  0.3000000E+03  0.7818608E-02  0.1093470E+00
          1   -1    0    0  502    0  0.00000000000E+00  0.00000000000E+00  0.31901040156E+02  0.31901040156E+02  0.00000000000E+00 0.  1.
         13   -1    0    0    0    0 -0.00000000000E+00 -0.00000000000E+00 -0.10000000000E+04  0.10000000000E+04  0.00000000000E+00 0.  1.
    9000005    2    1    2  501    0 -0.12214592639E+02  0.86644203470E+01 -0.95285270994E+03  0.10105301116E+04  0.33618231818E+03 0.  0.
         13    1    3    3    0    0 -0.18655403161E+02 -0.15919226800E+03 -0.57698463090E+03  0.59883342137E+03  0.00000000000E+00 0.  1.
          1    1    3    3  501    0  0.64408105218E+01  0.16785668835E+03 -0.37586807904E+03  0.41169669018E+03  0.00000000000E+00 0.  1.
         21    1    1    2  502  501  0.12214592639E+02 -0.86644203470E+01 -0.15246249904E+02  0.21370928604E+02  0.00000000000E+00 0. -1.
<mgrwt>
<rscale>  1 0.30000000E+03</rscale>
<asrwt>0</asrwt>
<pdfrwt beam="1">  1        1 0.11600403E+00 0.30000000E+03</pdfrwt>
<pdfrwt beam="2">0</pdfrwt>
<totfact> 0.27397643E+01</totfact>
</mgrwt>
</event>
<event>
 6    1  0.1950139E-004  0.3000000E+03  0.7818608E-02  0.1093470E+00
          3   -1    0    0  502    0  0.00000000000E+00  0.00000000000E+00  0.31893906946E+02  0.31893906946E+02  0.00000000000E+00 0.  1.
         13   -1    0    0    0    0 -0.00000000000E+00 -0.00000000000E+00 -0.10000000000E+04  0.10000000000E+04  0.00000000000E+00 0.  1.
    9000005    2    1    2  501    0  0.17369717096E+02 -0.33971243071E+01 -0.93801791458E+03  0.99698622857E+03  0.33732874821E+03 0.  0.
         13    1    3    3    0    0 -0.80580945416E+02  0.89929010411E+02 -0.77855420617E+03  0.78786240399E+03  0.00000000000E+00 0.  1.
          1    1    3    3  501    0  0.97950662513E+02 -0.93326134718E+02 -0.15946370841E+03  0.20912382458E+03  0.00000000000E+00 0.  1.
         21    1    1    2  502  501 -0.17369717096E+02  0.33971243071E+01 -0.30088178478E+02  0.34907678378E+02  0.00000000000E+00 0.  1.
<mgrwt>
<rscale>  1 0.30000000E+03</rscale>
<asrwt>0</asrwt>
<pdfrwt beam="1">  1        3 0.11597809E+00 0.30000000E+03</pdfrwt>
<pdfrwt beam="2">0</pdfrwt>
<totfact> 0.25743082E+00</totfact>
</mgrwt>
</event>
<event>
 6    1  0.1950139E-004  0.3000000E+03  0.7818608E-02  0.1093470E+00
          1   -1    0    0  502    0  0.00000000000E+00  0.00000000000E+00  0.35217575507E+02  0.35217575507E+02  0.00000000000E+00 0.  1.
         13   -1    0    0    0    0 -0.00000000000E+00 -0.00000000000E+00 -0.10000000000E+04  0.10000000000E+04  0.00000000000E+00 0.  1.
    9000005    2    1    2  501    0  0.11321683426E+02  0.10529585355E+02 -0.88730876076E+03  0.95621617517E+03  0.35608072687E+03 0.  0.
         13    1    3    3    0    0 -0.12896395693E+03 -0.68803373106E+01 -0.12098927910E+03  0.17696736107E+03  0.00000000000E+00 0.  1.
          3    1    3    3  501    0  0.14028564035E+03  0.17409922665E+02 -0.76631948166E+03  0.77924881409E+03  0.00000000000E+00 0.  1.
         21    1    1    2  502  501 -0.11321683426E+02 -0.10529585355E+02 -0.77473663735E+02  0.79001400341E+02  0.00000000000E+00 0.  1.
<mgrwt>
<rscale>  1 0.30000000E+03</rscale>
<asrwt>0</asrwt>
<pdfrwt beam="1">  1        1 0.12806418E+00 0.30000000E+03</pdfrwt>
<pdfrwt beam="2">0</pdfrwt>
<totfact> 0.23443913E+01</totfact>
</mgrwt>
</event>
<event>
 6    1  0.1950139E-004  0.3000000E+03  0.7818608E-02  0.1093470E+00
          1   -1    0    0  502    0  0.00000000000E+00  0.00000000000E+00  0.83429892252E+02  0.83429892252E+02  0.00000000000E+00 0.  1.
         13   -1    0    0    0    0 -0.00000000000E+00 -0.00000000000E+00 -0.10000000000E+04  0.10000000000E+04  0.00000000000E+00 0.  1.
    9000005    2    1    2  501    0  0.47744643319E+01  0.30100423310E+02 -0.96356077163E+03  0.10274213796E+04  0.35526961553E+03 0.  0.
         13    1    3    3    0    0  0.16253022596E+02  0.34651116237E+02 -0.99391508285E+03  0.99465172423E+03  0.00000000000E+00 0.  1.
          1    1    3    3  501    0 -0.11478558264E+02 -0.45506929272E+01  0.30354311219E+02  0.32769655407E+02  0.00000000000E+00 0.  1.
         21    1    1    2  502  501 -0.47744643319E+01 -0.30100423310E+02  0.46990663882E+02  0.56008512613E+02  0.00000000000E+00 0.  1.
<mgrwt>
<rscale>  1 0.30000000E+03</rscale>
<asrwt>0</asrwt>
<pdfrwt beam="1">  1        1 0.30338207E+00 0.30000000E+03</pdfrwt>
<pdfrwt beam="2">0</pdfrwt>
<totfact> 0.33481726E+00</totfact>
</mgrwt>
</event>
<event>
 6    1  0.1950139E-004  0.3000000E+03  0.7818608E-02  0.1093470E+00
          1   -1    0    0  502    0  0.00000000000E+00  0.00000000000E+00  0.36054046994E+02  0.36054046994E+02  0.00000000000E+00 0.  1.
         13   -1    0    0    0    0 -0.00000000000E+00 -0.00000000000E+00 -0.10000000000E+04  0.10000000000E+04  0.00000000000E+00 0.  1.
    9000005    2    1    2  501    0  0.34413172508E+02  0.16260302694E+02 -0.94117308432E+03  0.99170015839E+03  0.31018343867E+03 0.  0.
         13    1    3    3    0    0  0.95574444501E+02 -0.87947704561E+02 -0.18563109678E+03  0.22655722736E+03  0.00000000000E+00 0.  1.
          3    1    3    3  501    0 -0.61161271993E+02  0.10420800725E+03 -0.75554198754E+03  0.76514293103E+03  0.00000000000E+00 0.  1.
         21    1    1    2  502  501 -0.34413172508E+02 -0.16260302694E+02 -0.22772868687E+02  0.44353888601E+02  0.00000000000E+00 0.  1.
<mgrwt>
<rscale>  1 0.30000000E+03</rscale>
<asrwt>0</asrwt>
<pdfrwt beam="1">  1        1 0.13110590E+00 0.30000000E+03</pdfrwt>
<pdfrwt beam="2">0</pdfrwt>
<totfact> 0.22565395E+01</totfact>
</mgrwt>
</event>
<event>
 6    1  0.1950139E-004  0.3000000E+03  0.7818608E-02  0.1093470E+00
          1   -1    0    0  502    0  0.00000000000E+00  0.00000000000E+00  0.45687880705E+02  0.45687880705E+02  0.00000000000E+00 0.  1.
         13   -1    0    0    0    0 -0.00000000000E+00 -0.00000000000E+00 -0.10000000000E+04  0.10000000000E+04  0.00000000000E+00 0.  1.
    9000005    2    1    2  501    0  0.10569622687E+01  0.88169690474E+02 -0.72952482725E+03  0.80422496813E+03  0.32679705368E+03 0.  0.
         13    1    3    3    0    0  0.26135984441E+02 -0.96346290269E+01  0.28296750397E+02  0.39706697699E+02  0.00000000000E+00 0.  1.
          3    1    3    3  501    0 -0.25079022172E+02  0.97804319501E+02 -0.75782157765E+03  0.76451827043E+03  0.00000000000E+00 0.  1.
         21    1    1    2  502  501 -0.10569622687E+01 -0.88169690474E+02 -0.22478729204E+03  0.24146291258E+03  0.00000000000E+00 0.  1.
<mgrwt>
<rscale>  1 0.30000000E+03</rscale>
<asrwt>0</asrwt>
<pdfrwt beam="1">  1        1 0.16613810E+00 0.30000000E+03</pdfrwt>
<pdfrwt beam="2">0</pdfrwt>
<totfact> 0.14923647E+01</totfact>
</mgrwt>
</event>
<event>
 6    1  0.1950139E-004  0.3000000E+03  0.7818608E-02  0.1093470E+00
          3   -1    0    0  502    0  0.00000000000E+00  0.00000000000E+00  0.43936731203E+02  0.43936731203E+02  0.00000000000E+00 0.  1.
         13   -1    0    0    0    0 -0.00000000000E+00 -0.00000000000E+00 -0.10000000000E+04  0.10000000000E+04  0.00000000000E+00 0.  1.
    9000005    2    1    2  501    0  0.16947887295E+02 -0.23499413017E+02 -0.96025855878E+03  0.10146612508E+04  0.32649885272E+03 0.  0.
         13    1    3    3    0    0  0.12820189067E+03  0.67585779517E+02 -0.24138907125E+03  0.28155327397E+03  0.00000000000E+00 0.  1.
          1    1    3    3  501    0 -0.11125400337E+03 -0.91085192534E+02 -0.71886948753E+03  0.73310797681E+03  0.00000000000E+00 0.  1.
         21    1    1    2  502  501 -0.16947887295E+02  0.23499413017E+02  0.41952899839E+01  0.29275480422E+02  0.00000000000E+00 0.  1.
<mgrwt>
<rscale>  1 0.30000000E+03</rscale>
<asrwt>0</asrwt>
<pdfrwt beam="1">  1        3 0.15977027E+00 0.30000000E+03</pdfrwt>
<pdfrwt beam="2">0</pdfrwt>
<totfact> 0.71389618E-01</totfact>
</mgrwt>
</event>
<event>
 6    1  0.1950139E-004  0.3000000E+03  0.7818608E-02  0.1093470E+00
          1   -1    0    0  502    0  0.00000000000E+00  0.00000000000E+00  0.28430996384E+02  0.28430996384E+02  0.00000000000E+00 0.  1.
         13   -1    0    0    0    0 -0.00000000000E+00 -0.00000000000E+00 -0.10000000000E+04  0.10000000000E+04  0.00000000000E+00 0.  1.
    9000005    2    1    2  501    0  0.82122595841E+01  0.11691409401E+01 -0.94391916214E+03  0.99956368214E+03  0.32874817399E+03 0.  0.
         13    1    3    3    0    0  0.35376108942E+00 -0.15031366213E+03 -0.27234928324E+03  0.31107628365E+03  0.00000000000E+00 0.  1.
          1    1    3    3  501    0  0.78584984946E+01  0.15148280307E+03 -0.67156987890E+03  0.68848739849E+03  0.00000000000E+00 0.  1.
         21    1    1    2  502  501 -0.82122595841E+01 -0.11691409401E+01 -0.27649841477E+02  0.28867314245E+02  0.00000000000E+00 0. -1.
<mgrwt>
<rscale>  1 0.30000000E+03</rscale>
<asrwt>0</asrwt>
<pdfrwt beam="1">  1        1 0.10338566E+00 0.30000000E+03</pdfrwt>
<pdfrwt beam="2">0</pdfrwt>
<totfact> 0.32592291E+01</totfact>
</mgrwt>
</event>
<event>
 6    1  0.1950139E-004  0.3000000E+03  0.7818608E-02  0.1093470E+00
          1   -1    0    0  502    0  0.00000000000E+00  0.00000000000E+00  0.40826596001E+02  0.40826596001E+02  0.00000000000E+00 0.  1.
         13   -1    0    0    0    0 -0.00000000000E+00 -0.00000000000E+00 -0.10000000000E+04  0.10000000000E+04  0.00000000000E+00 0.  1.
    9000005    2    1    2  501    0  0.23791586014E+02  0.18168539917E+02 -0.95703707611E+03  0.10108149432E+04  0.32393016056E+03 0.  0.
         13    1    3    3    0    0 -0.70389985591E+02 -0.50394830483E+02 -0.84421620842E+03  0.84864326756E+03  0.00000000000E+00 0.  1.
          1    1    3    3  501    0  0.94181571605E+02  0.68563370401E+02 -0.11282086769E+03  0.16217167563E+03  0.00000000000E+00 0.  1.
         21    1    1    2  502  501 -0.23791586014E+02 -0.18168539917E+02 -0.21363278907E+01  0.30011652814E+02  0.00000000000E+00 0.  1.
<mgrwt>
<rscale>  1 0.30000000E+03</rscale>
<asrwt>0</asrwt>
<pdfrwt beam="1">  1        1 0.14846066E+00 0.30000000E+03</pdfrwt>
<pdfrwt beam="2">0</pdfrwt>
<totfact> 0.18292390E+01</totfact>
</mgrwt>
</event>
<event>
 6    1  0.1950139E-004  0.3000000E+03  0.7818608E-02  0.1093470E+00
          3   -1    0    0  502    0  0.00000000000E+00  0.00000000000E+00  0.32899180662E+02  0.32899180662E+02  0.00000000000E+00 0.  1.
         13   -1    0    0    0    0 -0.00000000000E+00 -0.00000000000E+00 -0.10000000000E+04  0.10000000000E+04  0.00000000000E+00 0.  1.
    9000005    2    1    2  501    0  0.13119807734E+02  0.13743544722E+02 -0.95731053678E+03  0.10115248033E+04  0.32615632665E+03 0.  0.
         13    1    3    3    0    0 -0.91166042127E+02 -0.15609457585E+02 -0.86283808834E+03  0.86778134867E+03  0.00000000000E+00 0.  1.
          1    1    3    3  501    0  0.10428584986E+03  0.29353002307E+02 -0.94472448441E+02  0.14374345460E+03  0.00000000000E+00 0.  1.
         21    1    1    2  502  501 -0.13119807734E+02 -0.13743544722E+02 -0.97902825548E+01  0.21374377394E+02  0.00000000000E+00 0.  1.
<mgrwt>
<rscale>  1 0.30000000E+03</rscale>
<asrwt>0</asrwt>
<pdfrwt beam="1">  1        3 0.11963364E+00 0.30000000E+03</pdfrwt>
<pdfrwt beam="2">0</pdfrwt>
<totfact> 0.23357123E+00</totfact>
</mgrwt>
</event>
<event>
 6    1  0.1950139E-004  0.3000000E+03  0.7818608E-02  0.1093470E+00
          1   -1    0    0  502    0  0.00000000000E+00  0.00000000000E+00  0.60328467737E+02  0.60328467737E+02  0.00000000000E+00 0.  1.
         13   -1    0    0    0    0 -0.00000000000E+00 -0.00000000000E+00 -0.10000000000E+04  0.10000000000E+04  0.00000000000E+00 0.  1.
    9000005    2    1    2  501    0 -0.30095788506E+02  0.28297550012E+02 -0.96009827757E+03  0.10142441999E+04  0.32433946185E+03 0.  0.
         13    1    3    3    0    0  0.54874761434E+02  0.24453381025E+02 -0.91686275520E+03  0.91882888459E+03  0.00000000000E+00 0.  1.
          3    1    3    3  501    0 -0.84970549939E+02  0.38441689869E+01 -0.43235522377E+02  0.95415315267E+02  0.00000000000E+00 0.  1.
         21    1    1    2  502  501  0.30095788506E+02 -0.28297550012E+02  0.20426745310E+02  0.46084267884E+02  0.00000000000E+00 0.  1.
<mgrwt>
<rscale>  1 0.30000000E+03</rscale>
<asrwt>0</asrwt>
<pdfrwt beam="1">  1        1 0.21937671E+00 0.30000000E+03</pdfrwt>
<pdfrwt beam="2">0</pdfrwt>
<totfact> 0.82989303E+00</totfact>
</mgrwt>
</event>
<event>
 6    1  0.1950139E-004  0.3000000E+03  0.7818608E-02  0.1093470E+00
          1   -1    0    0  502    0  0.00000000000E+00  0.00000000000E+00  0.55702961627E+02  0.55702961627E+02  0.00000000000E+00 0.  1.
         13   -1    0    0    0    0 -0.00000000000E+00 -0.00000000000E+00 -0.10000000000E+04  0.10000000000E+04  0.00000000000E+00 0.  1.
    9000005    2    1    2  501    0 -0.91249524565E+01 -0.56976951790E+01 -0.97278204217E+03  0.10252542518E+04  0.32361342803E+03 0.  0.
         13    1    3    3    0    0 -0.52973049952E+02 -0.13298436064E+03 -0.23404556835E+03  0.27435071033E+03  0.00000000000E+00 0.  1.
          3    1    3    3  501    0  0.43848097495E+02  0.12728666546E+03 -0.73873647382E+03  0.75090354148E+03  0.00000000000E+00 0.  1.
         21    1    1    2  502  501  0.91249524565E+01  0.56976951790E+01  0.28485003800E+02  0.30448709812E+02  0.00000000000E+00 0.  1.
<mgrwt>
<rscale>  1 0.30000000E+03</rscale>
<asrwt>0</asrwt>
<pdfrwt beam="1">  1        1 0.20255665E+00 0.30000000E+03</pdfrwt>
<pdfrwt beam="2">0</pdfrwt>
<totfact> 0.99609523E+00</totfact>
</mgrwt>
</event>
<event>
 6    1  0.1950139E-004  0.3000000E+03  0.7818608E-02  0.1093470E+00
          1   -1    0    0  502    0  0.00000000000E+00  0.00000000000E+00  0.49728679017E+02  0.49728679017E+02  0.00000000000E+00 0.  1.
         13   -1    0    0    0    0 -0.00000000000E+00 -0.00000000000E+00 -0.10000000000E+04  0.10000000000E+04  0.00000000000E+00 0.  1.
    9000005    2    1    2  501    0 -0.23420848300E+02 -0.46468522453E+02 -0.80065302553E+03  0.89131941777E+03  0.38819734349E+03 0.  0.
         13    1    3    3    0    0 -0.10078156000E+02  0.16941460870E+03 -0.42836122664E+03  0.46075613871E+03  0.00000000000E+00 0.  1.
          1    1    3    3  501    0 -0.13342692301E+02 -0.21588313116E+03 -0.37229179888E+03  0.43056327906E+03  0.00000000000E+00 0.  1.
         21    1    1    2  502  501  0.23420848300E+02  0.46468522453E+02 -0.14961829545E+03  0.15840926125E+03  0.00000000000E+00 0.  1.
<mgrwt>
<rscale>  1 0.30000000E+03</rscale>
<asrwt>0</asrwt>
<pdfrwt beam="1">  1        1 0.18083194E+00 0.30000000E+03</pdfrwt>
<pdfrwt beam="2">0</pdfrwt>
<totfact> 0.12656685E+01</totfact>
</mgrwt>
</event>
<event>
 6    1  0.1950139E-004  0.3000000E+03  0.7818608E-02  0.1093470E+00
          1   -1    0    0  502    0  0.00000000000E+00  0.00000000000E+00  0.43461241879E+02  0.43461241879E+02  0.00000000000E+00 0.  1.
         13   -1    0    0    0    0 -0.00000000000E+00 -0.00000000000E+00 -0.10000000000E+04  0.10000000000E+04  0.00000000000E+00 0.  1.
    9000005    2    1    2  501    0  0.66399985629E+02  0.79943745220E+01 -0.67184505539E+03  0.75101744815E+03  0.32890509400E+03 0.  0.
         13    1    3    3    0    0  0.29523125471E+02  0.33176086418E+02 -0.69790396519E+03  0.69931553127E+03  0.00000000000E+00 0.  1.
          3    1    3    3  501    0  0.36876860158E+02 -0.25181711896E+02  0.26058909800E+02  0.51701916880E+02  0.00000000000E+00 0.  1.
         21    1    1    2  502  501 -0.66399985629E+02 -0.79943745220E+01 -0.28469370273E+03  0.29244379373E+03  0.00000000000E+00 0.  1.
<mgrwt>
<rscale>  1 0.30000000E+03</rscale>
<asrwt>0</asrwt>
<pdfrwt beam="1">  1        1 0.15804121E+00 0.30000000E+03</pdfrwt>
<pdfrwt beam="2">0</pdfrwt>
<totfact> 0.16366357E+01</totfact>
</mgrwt>
</event>
<event>
 6    1  0.1950139E-004  0.3000000E+03  0.7818608E-02  0.1093470E+00
          1   -1    0    0  502    0  0.00000000000E+00  0.00000000000E+00  0.17132113129E+02  0.17132113129E+02  0.00000000000E+00 0.  1.
         13   -1    0    0    0    0 -0.00000000000E+00 -0.00000000000E+00 -0.10000000000E+04  0.10000000000E+04  0.00000000000E+00 0.  1.
    9000005    2    1    2  501    0 -0.99893375557E+01 -0.45605105813E+01 -0.94034319207E+03  0.97321247299E+03  0.25055261643E+03 0.  0.
         13    1    3    3    0    0 -0.37124125101E+02 -0.11208643713E+03 -0.28401020283E+03  0.30757660081E+03  0.00000000000E+00 0.  1.
          1    1    3    3  501    0  0.27134787545E+02  0.10752592655E+03 -0.65633298924E+03  0.66563587218E+03  0.00000000000E+00 0.  1.
         21    1    1    2  502  501  0.99893375557E+01  0.45605105813E+01 -0.42524694803E+02  0.43919640136E+02  0.00000000000E+00 0. -1.
<mgrwt>
<rscale>  1 0.30000000E+03</rscale>
<asrwt>0</asrwt>
<pdfrwt beam="1">  1        1 0.62298725E-01 0.30000000E+03</pdfrwt>
<pdfrwt beam="2">0</pdfrwt>
<totfact> 0.65956437E+01</totfact>
</mgrwt>
</event>
<event>
 6    1  0.1950139E-004  0.3000000E+03  0.7818608E-02  0.1093470E+00
          1   -1    0    0  502    0  0.00000000000E+00  0.00000000000E+00  0.39968909098E+02  0.39968909098E+02  0.00000000000E+00 0.  1.
         13   -1    0    0    0    0 -0.00000000000E+00 -0.00000000000E+00 -0.10000000000E+04  0.10000000000E+04  0.00000000000E+00 0.  1.
    9000005    2    1    2  501    0  0.74238488255E+01 -0.59465594252E+02 -0.87912270389E+03  0.93928406654E+03  0.32527920121E+03 0.  0.
         13    1    3    3    0    0 -0.33000278271E+02 -0.12982992802E+03 -0.13302725291E+03  0.18878844931E+03  0.00000000000E+00 0.  1.
          1    1    3    3  501    0  0.40424127096E+02  0.70364333765E+02 -0.74609545098E+03  0.75049561724E+03  0.00000000000E+00 0.  1.
         21    1    1    2  502  501 -0.74238488255E+01  0.59465594252E+02 -0.80908387013E+02  0.10068484255E+03  0.00000000000E+00 0. -1.
<mgrwt>
<rscale>  1 0.30000000E+03</rscale>
<asrwt>0</asrwt>
<pdfrwt beam="1">  1        1 0.14534179E+00 0.30000000E+03</pdfrwt>
<pdfrwt beam="2">0</pdfrwt>
<totfact> 0.18978996E+01</totfact>
</mgrwt>
</event>
<event>
 6    1  0.1950139E-004  0.3000000E+03  0.7818608E-02  0.1093470E+00
          1   -1    0    0  502    0  0.00000000000E+00  0.00000000000E+00  0.30480055570E+02  0.30480055570E+02  0.00000000000E+00 0.  1.
         13   -1    0    0    0    0 -0.00000000000E+00 -0.00000000000E+00 -0.10000000000E+04  0.10000000000E+04  0.00000000000E+00 0.  1.
    9000005    2    1    2  501    0  0.10171998834E+02  0.52395221291E+01 -0.96309811919E+03  0.10173590041E+04  0.32761323824E+03 0.  0.
         13    1    3    3    0    0  0.15733311810E+03  0.18850425271E+02 -0.31483454587E+03  0.35246253681E+03  0.00000000000E+00 0.  1.
          3    1    3    3  501    0 -0.14716111926E+03 -0.13610903142E+02 -0.64826357332E+03  0.66489646728E+03  0.00000000000E+00 0.  1.
         21    1    1    2  502  501 -0.10171998834E+02 -0.52395221291E+01 -0.64218252372E+01  0.13121051475E+02  0.00000000000E+00 0.  1.
<mgrwt>
<rscale>  1 0.30000000E+03</rscale>
<asrwt>0</asrwt>
<pdfrwt beam="1">  1        1 0.11083680E+00 0.30000000E+03</pdfrwt>
<pdfrwt beam="2">0</pdfrwt>
<totfact> 0.29371202E+01</totfact>
</mgrwt>
</event>
<event>
 6    1  0.1950139E-004  0.3000000E+03  0.7818608E-02  0.1093470E+00
          1   -1    0    0  502    0  0.00000000000E+00  0.00000000000E+00  0.31057109048E+02  0.31057109048E+02  0.00000000000E+00 0.  1.
         13   -1    0    0    0    0 -0.00000000000E+00 -0.00000000000E+00 -0.10000000000E+04  0.10000000000E+04  0.00000000000E+00 0.  1.
    9000005    2    1    2  501    0 -0.37378852161E+01 -0.22907653620E+02 -0.85959226646E+03  0.91927029652E+03  0.32499274009E+03 0.  0.
         13    1    3    3    0    0 -0.14262296598E+03  0.41638033544E+01 -0.20633547070E+03  0.25086445375E+03  0.00000000000E+00 0.  1.
          1    1    3    3  501    0  0.13888508076E+03 -0.27071456975E+02 -0.65325679576E+03  0.66840584277E+03  0.00000000000E+00 0.  1.
         21    1    1    2  502  501  0.37378852161E+01  0.22907653620E+02 -0.10935062449E+03  0.11178681253E+03  0.00000000000E+00 0. -1.
<mgrwt>
<rscale>  1 0.30000000E+03</rscale>
<asrwt>0</asrwt>
<pdfrwt beam="1">  1        1 0.11293518E+00 0.30000000E+03</pdfrwt>
<pdfrwt beam="2">0</pdfrwt>
<totfact> 0.28546166E+01</totfact>
</mgrwt>
</event>
<event>
 6    1  0.1950139E-004  0.3000000E+03  0.7818608E-02  0.1093470E+00
          1   -1    0    0  502    0  0.00000000000E+00  0.00000000000E+00  0.37383415925E+02  0.37383415925E+02  0.00000000000E+00 0.  1.
         13   -1    0    0    0    0 -0.00000000000E+00 -0.00000000000E+00 -0.10000000000E+04  0.10000000000E+04  0.00000000000E+00 0.  1.
    9000005    2    1    2  501    0 -0.17804139886E+02 -0.36790957360E+02 -0.91955223321E+03  0.97801086119E+03  0.33054254349E+03 0.  0.
         13    1    3    3    0    0 -0.73469039838E+02  0.99089245864E+02 -0.14826513633E+03  0.19287023905E+03  0.00000000000E+00 0.  1.
          3    1    3    3  501    0  0.55664899952E+02 -0.13588020322E+03 -0.77128709688E+03  0.78514062214E+03  0.00000000000E+00 0.  1.
         21    1    1    2  502  501  0.17804139886E+02  0.36790957360E+02 -0.43064350862E+02  0.59372554735E+02  0.00000000000E+00 0. -1.
<mgrwt>
<rscale>  1 0.30000000E+03</rscale>
<asrwt>0</asrwt>
<pdfrwt beam="1">  1        1 0.13593998E+00 0.30000000E+03</pdfrwt>
<pdfrwt beam="2">0</pdfrwt>
<totfact> 0.21255931E+01</totfact>
</mgrwt>
</event>
<event>
 6    1  0.1950139E-004  0.3000000E+03  0.7818608E-02  0.1093470E+00
          1   -1    0    0  502    0  0.00000000000E+00  0.00000000000E+00  0.43397459925E+02  0.43397459925E+02  0.00000000000E+00 0.  1.
         13   -1    0    0    0    0 -0.00000000000E+00 -0.00000000000E+00 -0.10000000000E+04  0.10000000000E+04  0.00000000000E+00 0.  1.
    9000005    2    1    2  501    0 -0.33633666661E+02 -0.47809660228E+02 -0.91790592142E+03  0.97329456812E+03  0.31833009379E+03 0.  0.
         13    1    3    3    0    0 -0.52622155190E+02  0.79780103311E+02 -0.77463754818E+03  0.78051091418E+03  0.00000000000E+00 0.  1.
          3    1    3    3  501    0  0.18988488529E+02 -0.12758976354E+03 -0.14326837324E+03  0.19278365394E+03  0.00000000000E+00 0.  1.
         21    1    1    2  502  501  0.33633666661E+02  0.47809660228E+02 -0.38696618657E+02  0.70102891807E+02  0.00000000000E+00 0.  1.
<mgrwt>
<rscale>  1 0.30000000E+03</rscale>
<asrwt>0</asrwt>
<pdfrwt beam="1">  1        1 0.15780928E+00 0.30000000E+03</pdfrwt>
<pdfrwt beam="2">0</pdfrwt>
<totfact> 0.16410014E+01</totfact>
</mgrwt>
</event>
<event>
 6    1  0.1950139E-004  0.3000000E+03  0.7818608E-02  0.1093470E+00
          1   -1    0    0  502    0  0.00000000000E+00  0.00000000000E+00  0.57391565686E+02  0.57391565686E+02  0.00000000000E+00 0.  1.
         13   -1    0    0    0    0 -0.00000000000E+00 -0.00000000000E+00 -0.10000000000E+04  0.10000000000E+04  0.00000000000E+00 0.  1.
    9000005    2    1    2  501    0 -0.42418767325E+02 -0.32947354167E+02 -0.93560422952E+03  0.10032257199E+04  0.35808056460E+03 0.  0.
         13    1    3    3    0    0  0.11299703125E+03  0.10889980845E+02 -0.74417727595E+03  0.75278598472E+03  0.00000000000E+00 0.  1.
          1    1    3    3  501    0 -0.15541579858E+03 -0.43837335012E+02 -0.19142695357E+03  0.25043973515E+03  0.00000000000E+00 0.  1.
         21    1    1    2  502  501  0.42418767325E+02  0.32947354167E+02 -0.70042047931E+01  0.54165845815E+02  0.00000000000E+00 0.  1.
<mgrwt>
<rscale>  1 0.30000000E+03</rscale>
<asrwt>0</asrwt>
<pdfrwt beam="1">  1        1 0.20869704E+00 0.30000000E+03</pdfrwt>
<pdfrwt beam="2">0</pdfrwt>
<totfact> 0.93161797E+00</totfact>
</mgrwt>
</event>
<event>
 6    1  0.1950139E-004  0.3000000E+03  0.7818608E-02  0.1093470E+00
          1   -1    0    0  502    0  0.00000000000E+00  0.00000000000E+00  0.35358515710E+02  0.35358515710E+02  0.00000000000E+00 0.  1.
         13   -1    0    0    0    0 -0.00000000000E+00 -0.00000000000E+00 -0.10000000000E+04  0.10000000000E+04  0.00000000000E+00 0.  1.
    9000005    2    1    2  501    0  0.95692259067E+01  0.15106440699E+02 -0.95582507278E+03  0.10154210197E+04  0.34228424280E+03 0.  0.
         13    1    3    3    0    0  0.95194350102E+02 -0.12981722675E+03 -0.60882906788E+03  0.62975178487E+03  0.00000000000E+00 0.  1.
          3    1    3    3  501    0 -0.85625124195E+02  0.14492366745E+03 -0.34699600491E+03  0.38566923484E+03  0.00000000000E+00 0.  1.
         21    1    1    2  502  501 -0.95692259067E+01 -0.15106440699E+02 -0.88164115086E+01  0.19937496004E+02  0.00000000000E+00 0.  1.
<mgrwt>
<rscale>  1 0.30000000E+03</rscale>
<asrwt>0</asrwt>
<pdfrwt beam="1">  1        1 0.12857669E+00 0.30000000E+03</pdfrwt>
<pdfrwt beam="2">0</pdfrwt>
<totfact> 0.23292824E+01</totfact>
</mgrwt>
</event>
<event>
 6    1  0.1950139E-004  0.3000000E+03  0.7818608E-02  0.1093470E+00
          1   -1    0    0  502    0  0.00000000000E+00  0.00000000000E+00  0.34266078236E+02  0.34266078236E+02  0.00000000000E+00 0.  1.
         13   -1    0    0    0    0 -0.00000000000E+00 -0.00000000000E+00 -0.10000000000E+04  0.10000000000E+04  0.00000000000E+00 0.  1.
    9000005    2    1    2  501    0  0.14220727980E+02  0.45216524584E+01 -0.95790692504E+03  0.10174156681E+04  0.34252925443E+03 0.  0.
         13    1    3    3    0    0 -0.34603854254E+02  0.13126000879E+03 -0.78940733787E+03  0.80099348419E+03  0.00000000000E+00 0.  1.
          3    1    3    3  501    0  0.48824582234E+02 -0.12673835633E+03 -0.16849958718E+03  0.21642218388E+03  0.00000000000E+00 0.  1.
         21    1    1    2  502  501 -0.14220727980E+02 -0.45216524584E+01 -0.78269967225E+01  0.16850410171E+02  0.00000000000E+00 0.  1.
<mgrwt>
<rscale>  1 0.30000000E+03</rscale>
<asrwt>0</asrwt>
<pdfrwt beam="1">  1        1 0.12460418E+00 0.30000000E+03</pdfrwt>
<pdfrwt beam="2">0</pdfrwt>
<totfact> 0.24497483E+01</totfact>
</mgrwt>
</event>
<event>
 6    1  0.1950139E-004  0.3000000E+03  0.7818608E-02  0.1093470E+00
          1   -1    0    0  502    0  0.00000000000E+00  0.00000000000E+00  0.42259151297E+02  0.42259151297E+02  0.00000000000E+00 0.  1.
         13   -1    0    0    0    0 -0.00000000000E+00 -0.00000000000E+00 -0.10000000000E+04  0.10000000000E+04  0.00000000000E+00 0.  1.
    9000005    2    1    2  501    0 -0.22909632600E+02 -0.72855766453E+00 -0.95907008320E+03  0.10192994273E+04  0.34442780945E+03 0.  0.
         13    1    3    3    0    0  0.81475980004E+02  0.76890439852E+02 -0.99172139292E+02  0.14961814151E+03  0.00000000000E+00 0.  1.
          1    1    3    3  501    0 -0.10438561260E+03 -0.77618997516E+02 -0.85989794391E+03  0.86968128578E+03  0.00000000000E+00 0.  1.
         21    1    1    2  502  501  0.22909632600E+02  0.72855766453E+00  0.13292344966E+01  0.22959724007E+02  0.00000000000E+00 0.  1.
<mgrwt>
<rscale>  1 0.30000000E+03</rscale>
<asrwt>0</asrwt>
<pdfrwt beam="1">  1        1 0.15366997E+00 0.30000000E+03</pdfrwt>
<pdfrwt beam="2">0</pdfrwt>
<totfact> 0.17212979E+01</totfact>
</mgrwt>
</event>
<event>
 6    1  0.1950139E-004  0.3000000E+03  0.7818608E-02  0.1093470E+00
          1   -1    0    0  502    0  0.00000000000E+00  0.00000000000E+00  0.49068377454E+02  0.49068377454E+02  0.00000000000E+00 0.  1.
         13   -1    0    0    0    0 -0.00000000000E+00 -0.00000000000E+00 -0.10000000000E+04  0.10000000000E+04  0.00000000000E+00 0.  1.
    9000005    2    1    2  501    0 -0.21525849548E+02 -0.80340439118E+00 -0.94786076278E+03  0.10273097507E+04  0.39555188112E+03 0.  0.
         13    1    3    3    0    0  0.38799490578E+02  0.18280506050E+03 -0.61106973922E+03  0.63900650764E+03  0.00000000000E+00 0.  1.
          1    1    3    3  501    0 -0.60325340126E+02 -0.18360846489E+03 -0.33679102356E+03  0.38830324309E+03  0.00000000000E+00 0.  1.
         21    1    1    2  502  501  0.21525849548E+02  0.80340439118E+00 -0.30708597648E+01  0.21758626727E+02  0.00000000000E+00 0. -1.
<mgrwt>
<rscale>  1 0.30000000E+03</rscale>
<asrwt>0</asrwt>
<pdfrwt beam="1">  1        1 0.17843084E+00 0.30000000E+03</pdfrwt>
<pdfrwt beam="2">0</pdfrwt>
<totfact> 0.12999844E+01</totfact>
</mgrwt>
</event>
<event>
 6    1  0.1950139E-004  0.3000000E+03  0.7818608E-02  0.1093470E+00
          1   -1    0    0  502    0  0.00000000000E+00  0.00000000000E+00  0.29690484153E+02  0.29690484153E+02  0.00000000000E+00 0.  1.
         13   -1    0    0    0    0 -0.00000000000E+00 -0.00000000000E+00 -0.10000000000E+04  0.10000000000E+04  0.00000000000E+00 0.  1.
    9000005    2    1    2  501    0  0.14047701989E+02 -0.16995209923E+01 -0.95005674302E+03  0.10049841872E+04  0.32739147092E+03 0.  0.
         13    1    3    3    0    0  0.13728544338E+03 -0.65694031627E+02 -0.26149843456E+03  0.30256310091E+03  0.00000000000E+00 0.  1.
          1    1    3    3  501    0 -0.12323774139E+03  0.63994510634E+02 -0.68855830845E+03  0.70242108627E+03  0.00000000000E+00 0.  1.
         21    1    1    2  502  501 -0.14047701989E+02  0.16995209923E+01 -0.20252772830E+02  0.24706296973E+02  0.00000000000E+00 0.  1.
<mgrwt>
<rscale>  1 0.30000000E+03</rscale>
<asrwt>0</asrwt>
<pdfrwt beam="1">  1        1 0.10796562E+00 0.30000000E+03</pdfrwt>
<pdfrwt beam="2">0</pdfrwt>
<totfact> 0.30555916E+01</totfact>
</mgrwt>
</event>
<event>
 6    1  0.1950139E-004  0.3000000E+03  0.7818608E-02  0.1093470E+00
          1   -1    0    0  502    0  0.00000000000E+00  0.00000000000E+00  0.28127589531E+02  0.28127589531E+02  0.00000000000E+00 0.  1.
         13   -1    0    0    0    0 -0.00000000000E+00 -0.00000000000E+00 -0.10000000000E+04  0.10000000000E+04  0.00000000000E+00 0.  1.
    9000005    2    1    2  501    0 -0.11062284817E+02 -0.44749443881E+02 -0.87230469466E+03  0.91840695837E+03  0.28360355070E+03 0.  0.
         13    1    3    3    0    0 -0.87410277811E+02  0.57902618994E+02 -0.13944775286E+03  0.17446760654E+03  0.00000000000E+00 0.  1.
          1    1    3    3  501    0  0.76347992994E+02 -0.10265206288E+03 -0.73285694180E+03  0.74393935183E+03  0.00000000000E+00 0.  1.
         21    1    1    2  502  501  0.11062284817E+02  0.44749443881E+02 -0.99567715804E+02  0.10972063117E+03  0.00000000000E+00 0. -1.
<mgrwt>
<rscale>  1 0.30000000E+03</rscale>
<asrwt>0</asrwt>
<pdfrwt beam="1">  1        1 0.10228236E+00 0.30000000E+03</pdfrwt>
<pdfrwt beam="2">0</pdfrwt>
<totfact> 0.33112193E+01</totfact>
</mgrwt>
</event>
<event>
 6    1  0.1950139E-004  0.3000000E+03  0.7818608E-02  0.1093470E+00
          1   -1    0    0  502    0  0.00000000000E+00  0.00000000000E+00  0.30122324718E+02  0.30122324718E+02  0.00000000000E+00 0.  1.
         13   -1    0    0    0    0 -0.00000000000E+00 -0.00000000000E+00 -0.10000000000E+04  0.10000000000E+04  0.00000000000E+00 0.  1.
    9000005    2    1    2  501    0 -0.13048380716E+02 -0.20606766910E+02 -0.96151132735E+03  0.10043367695E+04  0.28912525799E+03 0.  0.
         13    1    3    3    0    0 -0.13145055888E+03  0.22539128743E+02 -0.26668024980E+03  0.29817045022E+03  0.00000000000E+00 0.  1.
          1    1    3    3  501    0  0.11840217816E+03 -0.43145895653E+02 -0.69483107755E+03  0.70616631925E+03  0.00000000000E+00 0.  1.
         21    1    1    2  502  501  0.13048380716E+02  0.20606766910E+02 -0.83663479341E+01  0.25785555250E+02  0.00000000000E+00 0.  1.
<mgrwt>
<rscale>  1 0.30000000E+03</rscale>
<asrwt>0</asrwt>
<pdfrwt beam="1">  1        1 0.10953596E+00 0.30000000E+03</pdfrwt>
<pdfrwt beam="2">0</pdfrwt>
<totfact> 0.29899711E+01</totfact>
</mgrwt>
</event>
<event>
 6    1  0.1950139E-004  0.3000000E+03  0.7818608E-02  0.1093470E+00
          1   -1    0    0  502    0  0.00000000000E+00  0.00000000000E+00  0.29801949695E+02  0.29801949695E+02  0.00000000000E+00 0.  1.
         13   -1    0    0    0    0 -0.00000000000E+00 -0.00000000000E+00 -0.10000000000E+04  0.10000000000E+04  0.00000000000E+00 0.  1.
    9000005    2    1    2  501    0 -0.13563585344E+02 -0.82081926437E+01 -0.95330322253E+03  0.10066334262E+04  0.32291248884E+03 0.  0.
         13    1    3    3    0    0  0.11719202889E+03  0.48912258404E+02 -0.18006507831E+03  0.22034022121E+03  0.00000000000E+00 0.  1.
          3    1    3    3  501    0 -0.13075561423E+03 -0.57120451047E+02 -0.77323814422E+03  0.78629320502E+03  0.00000000000E+00 0.  1.
         21    1    1    2  502  501  0.13563585344E+02  0.82081926437E+01 -0.16894827773E+02  0.23168523460E+02  0.00000000000E+00 0.  1.
<mgrwt>
<rscale>  1 0.30000000E+03</rscale>
<asrwt>0</asrwt>
<pdfrwt beam="1">  1        1 0.10837095E+00 0.30000000E+03</pdfrwt>
<pdfrwt beam="2">0</pdfrwt>
<totfact> 0.30384585E+01</totfact>
</mgrwt>
</event>
<event>
 6    1  0.1950139E-004  0.3000000E+03  0.7818608E-02  0.1093470E+00
          1   -1    0    0  502    0  0.00000000000E+00  0.00000000000E+00  0.37248794227E+02  0.37248794227E+02  0.00000000000E+00 0.  1.
         13   -1    0    0    0    0 -0.00000000000E+00 -0.00000000000E+00 -0.10000000000E+04  0.10000000000E+04  0.00000000000E+00 0.  1.
    9000005    2    1    2  501    0 -0.97735755640E+01 -0.77523943953E+01 -0.97207411840E+03  0.10216751274E+04  0.31422341082E+03 0.  0.
         13    1    3    3    0    0 -0.57281605628E+02 -0.13849466418E+02 -0.97199249101E+03  0.97377738351E+03  0.00000000000E+00 0.  1.
          1    1    3    3  501    0  0.47508030064E+02  0.60970720224E+01 -0.81627395260E-01  0.47897743902E+02  0.00000000000E+00 0.  1.
         21    1    1    2  502  501  0.97735755640E+01  0.77523943953E+01  0.93229126296E+01  0.15573666815E+02  0.00000000000E+00 0.  1.
<mgrwt>
<rscale>  1 0.30000000E+03</rscale>
<asrwt>0</asrwt>
<pdfrwt beam="1">  1        1 0.13545045E+00 0.30000000E+03</pdfrwt>
<pdfrwt beam="2">0</pdfrwt>
<totfact> 0.21383873E+01</totfact>
</mgrwt>
</event>
<event>
 6    1  0.1950139E-004  0.3000000E+03  0.7818608E-02  0.1093470E+00
          1   -1    0    0  502    0  0.00000000000E+00  0.00000000000E+00  0.30332586154E+02  0.30332586154E+02  0.00000000000E+00 0.  1.
         13   -1    0    0    0    0 -0.00000000000E+00 -0.00000000000E+00 -0.10000000000E+04  0.10000000000E+04  0.00000000000E+00 0.  1.
    9000005    2    1    2  501    0 -0.17735740805E+02 -0.20565398669E+01 -0.95618258816E+03  0.10079579044E+04  0.31839473827E+03 0.  0.
         13    1    3    3    0    0  0.14000787734E+03 -0.55726731343E+01 -0.27379229894E+03  0.30756378747E+03  0.00000000000E+00 0.  1.
          1    1    3    3  501    0 -0.15774361815E+03  0.35161332674E+01 -0.68239028923E+03  0.70039411697E+03  0.00000000000E+00 0.  1.
         21    1    1    2  502  501  0.17735740805E+02  0.20565398669E+01 -0.13484825681E+02  0.22374681713E+02  0.00000000000E+00 0. -1.
<mgrwt>
<rscale>  1 0.30000000E+03</rscale>
<asrwt>0</asrwt>
<pdfrwt beam="1">  1        1 0.11030055E+00 0.30000000E+03</pdfrwt>
<pdfrwt beam="2">0</pdfrwt>
<totfact> 0.29587454E+01</totfact>
</mgrwt>
</event>
<event>
 6    1  0.1950139E-004  0.3000000E+03  0.7818608E-02  0.1093470E+00
          1   -1    0    0  502    0  0.00000000000E+00  0.00000000000E+00  0.31689363339E+02  0.31689363339E+02  0.00000000000E+00 0.  1.
         13   -1    0    0    0    0 -0.00000000000E+00 -0.00000000000E+00 -0.10000000000E+04  0.10000000000E+04  0.00000000000E+00 0.  1.
    9000005    2    1    2  501    0  0.17995509615E+02 -0.23678117940E+02 -0.91322653037E+03  0.96908944000E+03  0.32290425101E+03 0.  0.
         13    1    3    3    0    0 -0.10981317159E+03 -0.23567077052E+02 -0.76572617255E+03  0.77391918900E+03  0.00000000000E+00 0.  1.
          1    1    3    3  501    0  0.12780868120E+03 -0.11104088811E+00 -0.14750035782E+03  0.19517025101E+03  0.00000000000E+00 0.  1.
         21    1    1    2  502  501 -0.17995509615E+02  0.23678117940E+02 -0.55084106291E+02  0.62599923334E+02  0.00000000000E+00 0.  1.
<mgrwt>
<rscale>  1 0.30000000E+03</rscale>
<asrwt>0</asrwt>
<pdfrwt beam="1">  1        1 0.11523429E+00 0.30000000E+03</pdfrwt>
<pdfrwt beam="2">0</pdfrwt>
<totfact> 0.27679526E+01</totfact>
</mgrwt>
</event>
<event>
 6    1  0.1950139E-004  0.3000000E+03  0.7818608E-02  0.1093470E+00
          1   -1    0    0  502    0  0.00000000000E+00  0.00000000000E+00  0.39381960301E+02  0.39381960301E+02  0.00000000000E+00 0.  1.
         13   -1    0    0    0    0 -0.00000000000E+00 -0.00000000000E+00 -0.10000000000E+04  0.10000000000E+04  0.00000000000E+00 0.  1.
    9000005    2    1    2  501    0 -0.23673575224E+01 -0.11863093790E+02 -0.88615956457E+03  0.96394720773E+03  0.37916897031E+03 0.  0.
         13    1    3    3    0    0 -0.27667463944E+02  0.14202524208E+03 -0.72646252293E+03  0.74073237756E+03  0.00000000000E+00 0.  1.
          1    1    3    3  501    0  0.25300106422E+02 -0.15388833587E+03 -0.15969704163E+03  0.22321483017E+03  0.00000000000E+00 0.  1.
         21    1    1    2  502  501  0.23673575224E+01  0.11863093790E+02 -0.74458475133E+02  0.75434752568E+02  0.00000000000E+00 0.  1.
<mgrwt>
<rscale>  1 0.30000000E+03</rscale>
<asrwt>0</asrwt>
<pdfrwt beam="1">  1        1 0.14320743E+00 0.30000000E+03</pdfrwt>
<pdfrwt beam="2">0</pdfrwt>
<totfact> 0.19467613E+01</totfact>
</mgrwt>
</event>
<event>
 6    1  0.1950139E-004  0.3000000E+03  0.7818608E-02  0.1093470E+00
          3   -1    0    0  502    0  0.00000000000E+00  0.00000000000E+00  0.31307052394E+02  0.31307052394E+02  0.00000000000E+00 0.  1.
         13   -1    0    0    0    0 -0.00000000000E+00 -0.00000000000E+00 -0.10000000000E+04  0.10000000000E+04  0.00000000000E+00 0.  1.
    9000005    2    1    2  501    0  0.10611239850E+02  0.84725608168E+00 -0.95701351260E+03  0.10155043483E+04  0.33950096009E+03 0.  0.
         13    1    3    3    0    0  0.10058425417E+03  0.14026304824E+03 -0.52943175233E+03  0.55685626086E+03  0.00000000000E+00 0.  1.
          3    1    3    3  501    0 -0.89973014320E+02 -0.13941579216E+03 -0.42758176027E+03  0.45864808746E+03  0.00000000000E+00 0.  1.
         21    1    1    2  502  501 -0.10611239850E+02 -0.84725608168E+00 -0.11679435006E+02  0.15802704075E+02  0.00000000000E+00 0. -1.
<mgrwt>
<rscale>  1 0.30000000E+03</rscale>
<asrwt>0</asrwt>
<pdfrwt beam="1">  1        3 0.11384407E+00 0.30000000E+03</pdfrwt>
<pdfrwt beam="2">0</pdfrwt>
<totfact> 0.27238603E+00</totfact>
</mgrwt>
</event>
<event>
 6    1  0.1950139E-004  0.3000000E+03  0.7818608E-02  0.1093470E+00
          1   -1    0    0  502    0  0.00000000000E+00  0.00000000000E+00  0.30627932112E+02  0.30627932112E+02  0.00000000000E+00 0.  1.
         13   -1    0    0    0    0 -0.00000000000E+00 -0.00000000000E+00 -0.10000000000E+04  0.10000000000E+04  0.00000000000E+00 0.  1.
    9000005    2    1    2  501    0  0.24212900651E+02  0.77298370155E+01 -0.93229753794E+03  0.98567756271E+03  0.31896009695E+03 0.  0.
         13    1    3    3    0    0  0.14629064605E+03  0.78797583237E+02 -0.63727529072E+03  0.65858166419E+03  0.00000000000E+00 0.  1.
          3    1    3    3  501    0 -0.12207774540E+03 -0.71067746221E+02 -0.29502224722E+03  0.32709589852E+03  0.00000000000E+00 0.  1.
         21    1    1    2  502  501 -0.24212900651E+02 -0.77298370155E+01 -0.37074529950E+02  0.44950369401E+02  0.00000000000E+00 0. -1.
<mgrwt>
<rscale>  1 0.30000000E+03</rscale>
<asrwt>0</asrwt>
<pdfrwt beam="1">  1        1 0.11137453E+00 0.30000000E+03</pdfrwt>
<pdfrwt beam="2">0</pdfrwt>
<totfact> 0.29156592E+01</totfact>
</mgrwt>
</event>
<event>
 6    1  0.1950139E-004  0.3000000E+03  0.7818608E-02  0.1093470E+00
          3   -1    0    0  502    0  0.00000000000E+00  0.00000000000E+00  0.29339736439E+02  0.29339736439E+02  0.00000000000E+00 0.  1.
         13   -1    0    0    0    0 -0.00000000000E+00 -0.00000000000E+00 -0.10000000000E+04  0.10000000000E+04  0.00000000000E+00 0.  1.
    9000005    2    1    2  501    0 -0.34589291370E+01  0.13469759599E+02 -0.93490649867E+03  0.99097659895E+03  0.32831548819E+03 0.  0.
         13    1    3    3    0    0 -0.10535056367E+01  0.90294511792E+02 -0.50946130920E+02  0.10368084196E+03  0.00000000000E+00 0.  1.
          1    1    3    3  501    0 -0.24054235003E+01 -0.76824752193E+02 -0.88396036775E+03  0.88729575699E+03  0.00000000000E+00 0.  1.
         21    1    1    2  502  501  0.34589291370E+01 -0.13469759599E+02 -0.35753764891E+02  0.38363137493E+02  0.00000000000E+00 0. -1.
<mgrwt>
<rscale>  1 0.30000000E+03</rscale>
<asrwt>0</asrwt>
<pdfrwt beam="1">  1        3 0.10669018E+00 0.30000000E+03</pdfrwt>
<pdfrwt beam="2">0</pdfrwt>
<totfact> 0.32869134E+00</totfact>
</mgrwt>
</event>
<event>
 6    1  0.1950139E-004  0.3000000E+03  0.7818608E-02  0.1093470E+00
          1   -1    0    0  502    0  0.00000000000E+00  0.00000000000E+00  0.31122199396E+02  0.31122199396E+02  0.00000000000E+00 0.  1.
         13   -1    0    0    0    0 -0.00000000000E+00 -0.00000000000E+00 -0.10000000000E+04  0.10000000000E+04  0.00000000000E+00 0.  1.
    9000005    2    1    2  501    0 -0.61791392194E+01  0.34605007472E+02 -0.91455034920E+03  0.96641392883E+03  0.31035117578E+03 0.  0.
         13    1    3    3    0    0 -0.96541814273E+02  0.10239270877E+03 -0.20954360065E+03  0.25241455839E+03  0.00000000000E+00 0.  1.
          1    1    3    3  501    0  0.90362675053E+02 -0.67787701299E+02 -0.70500674855E+03  0.71399937044E+03  0.00000000000E+00 0.  1.
         21    1    1    2  502  501  0.61791392194E+01 -0.34605007472E+02 -0.54327451403E+02  0.64708270565E+02  0.00000000000E+00 0.  1.
<mgrwt>
<rscale>  1 0.30000000E+03</rscale>
<asrwt>0</asrwt>
<pdfrwt beam="1">  1        1 0.11317187E+00 0.30000000E+03</pdfrwt>
<pdfrwt beam="2">0</pdfrwt>
<totfact> 0.28455183E+01</totfact>
</mgrwt>
</event>
<event>
 6    1  0.1950139E-004  0.3000000E+03  0.7818608E-02  0.1093470E+00
          1   -1    0    0  502    0  0.00000000000E+00  0.00000000000E+00  0.40758859983E+02  0.40758859983E+02  0.00000000000E+00 0.  1.
         13   -1    0    0    0    0 -0.00000000000E+00 -0.00000000000E+00 -0.10000000000E+04  0.10000000000E+04  0.00000000000E+00 0.  1.
    9000005    2    1    2  501    0  0.11422621139E+02  0.39878682004E-01 -0.97363558002E+03  0.10223828493E+04  0.31172098117E+03 0.  0.
         13    1    3    3    0    0 -0.15015993899E+03  0.11974351112E+01 -0.48629522609E+03  0.50895234359E+03  0.00000000000E+00 0.  1.
          3    1    3    3  501    0  0.16158256013E+03 -0.11575564292E+01 -0.48734035393E+03  0.51343050575E+03  0.00000000000E+00 0.  1.
         21    1    1    2  502  501 -0.11422621139E+02 -0.39878682004E-01  0.14394440000E+02  0.18376010636E+02  0.00000000000E+00 0.  1.
<mgrwt>
<rscale>  1 0.30000000E+03</rscale>
<asrwt>0</asrwt>
<pdfrwt beam="1">  1        1 0.14821435E+00 0.30000000E+03</pdfrwt>
<pdfrwt beam="2">0</pdfrwt>
<totfact> 0.18345471E+01</totfact>
</mgrwt>
</event>
<event>
 6    1  0.1950139E-004  0.3000000E+03  0.7818608E-02  0.1093470E+00
          1   -1    0    0  502    0  0.00000000000E+00  0.00000000000E+00  0.29329961056E+02  0.29329961056E+02  0.00000000000E+00 0.  1.
         13   -1    0    0    0    0 -0.00000000000E+00 -0.00000000000E+00 -0.10000000000E+04  0.10000000000E+04  0.00000000000E+00 0.  1.
    9000005    2    1    2  501    0 -0.89718724438E+01 -0.14479468652E+02 -0.90226903157E+03  0.95883990986E+03  0.32402842145E+03 0.  0.
         13    1    3    3    0    0 -0.53471829028E+02 -0.50936570612E+02 -0.22512885339E+02  0.77204926861E+02  0.00000000000E+00 0.  1.
          1    1    3    3  501    0  0.44499956584E+02  0.36457101960E+02 -0.87975614623E+03  0.88163498300E+03  0.00000000000E+00 0.  1.
         21    1    1    2  502  501  0.89718724438E+01  0.14479468652E+02 -0.68401007376E+02  0.70490051196E+02  0.00000000000E+00 0. -1.
<mgrwt>
<rscale>  1 0.30000000E+03</rscale>
<asrwt>0</asrwt>
<pdfrwt beam="1">  1        1 0.10665463E+00 0.30000000E+03</pdfrwt>
<pdfrwt beam="2">0</pdfrwt>
<totfact> 0.31119642E+01</totfact>
</mgrwt>
</event>
<event>
 6    1  0.1950139E-004  0.3000000E+03  0.7818608E-02  0.1093470E+00
          1   -1    0    0  502    0  0.00000000000E+00  0.00000000000E+00  0.29999143009E+02  0.29999143009E+02  0.00000000000E+00 0.  1.
         13   -1    0    0    0    0 -0.00000000000E+00 -0.00000000000E+00 -0.10000000000E+04  0.10000000000E+04  0.00000000000E+00 0.  1.
    9000005    2    1    2  501    0 -0.79073452168E+01  0.12594270081E+02 -0.93961148569E+03  0.99616638321E+03  0.33053982704E+03 0.  0.
         13    1    3    3    0    0  0.72101057219E+02 -0.14052450802E+03 -0.43282037782E+03  0.46073764689E+03  0.00000000000E+00 0.  1.
          1    1    3    3  501    0 -0.80008402436E+02  0.15311877810E+03 -0.50679110786E+03  0.53542873632E+03  0.00000000000E+00 0.  1.
         21    1    1    2  502  501  0.79073452168E+01 -0.12594270081E+02 -0.30389371304E+02  0.33832759797E+02  0.00000000000E+00 0. -1.
<mgrwt>
<rscale>  1 0.30000000E+03</rscale>
<asrwt>0</asrwt>
<pdfrwt beam="1">  1        1 0.10908802E+00 0.30000000E+03</pdfrwt>
<pdfrwt beam="2">0</pdfrwt>
<totfact> 0.30084827E+01</totfact>
</mgrwt>
</event>
<event>
 6    1  0.1950139E-004  0.3000000E+03  0.7818608E-02  0.1093470E+00
          1   -1    0    0  502    0  0.00000000000E+00  0.00000000000E+00  0.33217760884E+02  0.33217760884E+02  0.00000000000E+00 0.  1.
         13   -1    0    0    0    0 -0.00000000000E+00 -0.00000000000E+00 -0.10000000000E+04  0.10000000000E+04  0.00000000000E+00 0.  1.
    9000005    2    1    2  501    0 -0.72791631215E+01  0.73353311987E+01 -0.96949649643E+03  0.10225331695E+04  0.32487510353E+03 0.  0.
         13    1    3    3    0    0 -0.28474140571E+02 -0.10746298608E+03 -0.11445312221E+03  0.15955747316E+03  0.00000000000E+00 0.  1.
          1    1    3    3  501    0  0.21194977449E+02  0.11479831728E+03 -0.85504337423E+03  0.86297569637E+03  0.00000000000E+00 0.  1.
         21    1    1    2  502  501  0.72791631215E+01 -0.73353311987E+01  0.27142573184E+01  0.10684591351E+02  0.00000000000E+00 0.  1.
<mgrwt>
<rscale>  1 0.30000000E+03</rscale>
<asrwt>0</asrwt>
<pdfrwt beam="1">  1        1 0.12079211E+00 0.30000000E+03</pdfrwt>
<pdfrwt beam="2">0</pdfrwt>
<totfact> 0.25729769E+01</totfact>
</mgrwt>
</event>
<event>
 6    1  0.1950139E-004  0.3000000E+03  0.7818608E-02  0.1093470E+00
          1   -1    0    0  502    0  0.00000000000E+00  0.00000000000E+00  0.29955609560E+02  0.29955609560E+02  0.00000000000E+00 0.  1.
         13   -1    0    0    0    0 -0.00000000000E+00 -0.00000000000E+00 -0.10000000000E+04  0.10000000000E+04  0.00000000000E+00 0.  1.
    9000005    2    1    2  501    0 -0.24648017891E+02 -0.78760534894E+01 -0.92426364017E+03  0.97736821469E+03  0.31672668585E+03 0.  0.
         13    1    3    3    0    0  0.14423518045E+03 -0.22400033544E+02 -0.48681307303E+03  0.50822486840E+03  0.00000000000E+00 0.  1.
          1    1    3    3  501    0 -0.16888319834E+03  0.14523980054E+02 -0.43745056714E+03  0.46914334629E+03  0.00000000000E+00 0.  1.
         21    1    1    2  502  501  0.24648017891E+02  0.78760534894E+01 -0.45780750267E+02  0.52587394873E+02  0.00000000000E+00 0. -1.
<mgrwt>
<rscale>  1 0.30000000E+03</rscale>
<asrwt>0</asrwt>
<pdfrwt beam="1">  1        1 0.10892972E+00 0.30000000E+03</pdfrwt>
<pdfrwt beam="2">0</pdfrwt>
<totfact> 0.30150639E+01</totfact>
</mgrwt>
</event>
<event>
 6    1  0.1950139E-004  0.3000000E+03  0.7818608E-02  0.1093470E+00
          1   -1    0    0  502    0  0.00000000000E+00  0.00000000000E+00  0.64581251896E+02  0.64581251896E+02  0.00000000000E+00 0.  1.
         13   -1    0    0    0    0 -0.00000000000E+00 -0.00000000000E+00 -0.10000000000E+04  0.10000000000E+04  0.00000000000E+00 0.  1.
    9000005    2    1    2  501    0  0.31390356523E+02 -0.12224733348E+02 -0.96573204341E+03  0.10192635461E+04  0.32422985384E+03 0.  0.
         13    1    3    3    0    0 -0.29136421563E+02 -0.11048215739E+03 -0.84333609926E+03  0.85104113560E+03  0.00000000000E+00 0.  1.
          3    1    3    3  501    0  0.60526778086E+02  0.98257424046E+02 -0.12239594415E+03  0.16822241049E+03  0.00000000000E+00 0.  1.
         21    1    1    2  502  501 -0.31390356523E+02  0.12224733348E+02  0.30313295304E+02  0.45317705814E+02  0.00000000000E+00 0.  1.
<mgrwt>
<rscale>  1 0.30000000E+03</rscale>
<asrwt>0</asrwt>
<pdfrwt beam="1">  1        1 0.23484141E+00 0.30000000E+03</pdfrwt>
<pdfrwt beam="2">0</pdfrwt>
<totfact> 0.70242235E+00</totfact>
</mgrwt>
</event>
<event>
 6    1  0.1950139E-004  0.3000000E+03  0.7818608E-02  0.1093470E+00
          1   -1    0    0  502    0  0.00000000000E+00  0.00000000000E+00  0.34917928880E+02  0.34917928880E+02  0.00000000000E+00 0.  1.
         13   -1    0    0    0    0 -0.00000000000E+00 -0.00000000000E+00 -0.10000000000E+04  0.10000000000E+04  0.00000000000E+00 0.  1.
    9000005    2    1    2  501    0  0.34450482255E+02  0.22056678281E+02 -0.90766940551E+03  0.96442291518E+03  0.32337977184E+03 0.  0.
         13    1    3    3    0    0 -0.13662476882E+03 -0.38049807817E+02 -0.46197170055E+03  0.48325145363E+03  0.00000000000E+00 0.  1.
          1    1    3    3  501    0  0.17107525107E+03  0.60106486098E+02 -0.44569770496E+03  0.48117146155E+03  0.00000000000E+00 0.  1.
         21    1    1    2  502  501 -0.34450482255E+02 -0.22056678281E+02 -0.57412665609E+02  0.70495013701E+02  0.00000000000E+00 0. -1.
<mgrwt>
<rscale>  1 0.30000000E+03</rscale>
<asrwt>0</asrwt>
<pdfrwt beam="1">  1        1 0.12697455E+00 0.30000000E+03</pdfrwt>
<pdfrwt beam="2">0</pdfrwt>
<totfact> 0.23769349E+01</totfact>
</mgrwt>
</event>
<event>
 6    1  0.1950139E-004  0.3000000E+03  0.7818608E-02  0.1093470E+00
          1   -1    0    0  502    0  0.00000000000E+00  0.00000000000E+00  0.35752960870E+02  0.35752960870E+02  0.00000000000E+00 0.  1.
         13   -1    0    0    0    0 -0.00000000000E+00 -0.00000000000E+00 -0.10000000000E+04  0.10000000000E+04  0.00000000000E+00 0.  1.
    9000005    2    1    2  501    0  0.40161343606E+01 -0.95139296995E+01 -0.97035893086E+03  0.10237529853E+04  0.32613965718E+03 0.  0.
         13    1    3    3    0    0 -0.40355666394E+02  0.15022704703E+03 -0.38131551989E+03  0.41182310665E+03  0.00000000000E+00 0.  1.
          1    1    3    3  501    0  0.44371800754E+02 -0.15974097673E+03 -0.58904341098E+03  0.61192987863E+03  0.00000000000E+00 0.  1.
         21    1    1    2  502  501 -0.40161343606E+01  0.95139296995E+01  0.61118917307E+01  0.11999975586E+02  0.00000000000E+00 0.  1.
<mgrwt>
<rscale>  1 0.30000000E+03</rscale>
<asrwt>0</asrwt>
<pdfrwt beam="1">  1        1 0.13001104E+00 0.30000000E+03</pdfrwt>
<pdfrwt beam="2">0</pdfrwt>
<totfact> 0.22876612E+01</totfact>
</mgrwt>
</event>
<event>
 6    1  0.1950139E-004  0.3000000E+03  0.7818608E-02  0.1093470E+00
          1   -1    0    0  502    0  0.00000000000E+00  0.00000000000E+00  0.40183421068E+02  0.40183421068E+02  0.00000000000E+00 0.  1.
         13   -1    0    0    0    0 -0.00000000000E+00 -0.00000000000E+00 -0.10000000000E+04  0.10000000000E+04  0.00000000000E+00 0.  1.
    9000005    2    1    2  501    0  0.17631244562E+02 -0.25491599128E+02 -0.95144840447E+03  0.10080787679E+04  0.33167461996E+03 0.  0.
         13    1    3    3    0    0 -0.61173209475E+02  0.11473931667E+03 -0.19269668277E+03  0.23246351090E+03  0.00000000000E+00 0.  1.
          1    1    3    3  501    0  0.78804454038E+02 -0.14023091580E+03 -0.75875172170E+03  0.77561525701E+03  0.00000000000E+00 0.  1.
         21    1    1    2  502  501 -0.17631244562E+02  0.25491599128E+02 -0.83681744661E+01  0.32104653165E+02  0.00000000000E+00 0. -1.
<mgrwt>
<rscale>  1 0.30000000E+03</rscale>
<asrwt>0</asrwt>
<pdfrwt beam="1">  1        1 0.14612184E+00 0.30000000E+03</pdfrwt>
<pdfrwt beam="2">0</pdfrwt>
<totfact> 0.18804282E+01</totfact>
</mgrwt>
</event>
<event>
 6    1  0.1950139E-004  0.3000000E+03  0.7818608E-02  0.1093470E+00
          1   -1    0    0  502    0  0.00000000000E+00  0.00000000000E+00  0.21556548582E+02  0.21556548582E+02  0.00000000000E+00 0.  1.
         13   -1    0    0    0    0 -0.00000000000E+00 -0.00000000000E+00 -0.10000000000E+04  0.10000000000E+04  0.00000000000E+00 0.  1.
    9000005    2    1    2  501    0 -0.36584999500E+01 -0.94588176092E+01 -0.98339851922E+03  0.10102690976E+04  0.23123180608E+03 0.  0.
         13    1    3    3    0    0  0.35143747896E+02  0.88910305724E+02 -0.72183545184E+03  0.72813909729E+03  0.00000000000E+00 0.  1.
          1    1    3    3  501    0 -0.38802247846E+02 -0.98369123333E+02 -0.26156306738E+03  0.28213000032E+03  0.00000000000E+00 0.  1.
         21    1    1    2  502  501  0.36584999500E+01  0.94588176092E+01  0.49550677994E+01  0.11287450968E+02  0.00000000000E+00 0.  1.
<mgrwt>
<rscale>  1 0.30000000E+03</rscale>
<asrwt>0</asrwt>
<pdfrwt beam="1">  1        1 0.78387615E-01 0.30000000E+03</pdfrwt>
<pdfrwt beam="2">0</pdfrwt>
<totfact> 0.48304345E+01</totfact>
</mgrwt>
</event>
<event>
 6    1  0.1950139E-004  0.3000000E+03  0.7818608E-02  0.1093470E+00
          1   -1    0    0  502    0  0.00000000000E+00  0.00000000000E+00  0.46196983558E+02  0.46196983558E+02  0.00000000000E+00 0.  1.
         13   -1    0    0    0    0 -0.00000000000E+00 -0.00000000000E+00 -0.10000000000E+04  0.10000000000E+04  0.00000000000E+00 0.  1.
    9000005    2    1    2  501    0  0.21847195699E+02  0.21535424766E+02 -0.96416655324E+03  0.10138167832E+04  0.31187538066E+03 0.  0.
         13    1    3    3    0    0  0.65607662882E+02 -0.45918502958E+02 -0.91722038411E+03  0.92070956733E+03  0.00000000000E+00 0.  1.
          3    1    3    3  501    0 -0.43760467183E+02  0.67453927723E+02 -0.46946169122E+02  0.93107215878E+02  0.00000000000E+00 0.  1.
         21    1    1    2  502  501 -0.21847195699E+02 -0.21535424766E+02  0.10363536794E+02  0.32380200349E+02  0.00000000000E+00 0.  1.
<mgrwt>
<rscale>  1 0.30000000E+03</rscale>
<asrwt>0</asrwt>
<pdfrwt beam="1">  1        1 0.16798939E+00 0.30000000E+03</pdfrwt>
<pdfrwt beam="2">0</pdfrwt>
<totfact> 0.14614630E+01</totfact>
</mgrwt>
</event>
<event>
 6    1  0.1950139E-004  0.3000000E+03  0.7818608E-02  0.1093470E+00
          1   -1    0    0  502    0  0.00000000000E+00  0.00000000000E+00  0.25211348246E+02  0.25211348246E+02  0.00000000000E+00 0.  1.
         13   -1    0    0    0    0 -0.00000000000E+00 -0.00000000000E+00 -0.10000000000E+04  0.10000000000E+04  0.00000000000E+00 0.  1.
    9000005    2    1    2  501    0 -0.38951620657E+01  0.92825048366E+01 -0.94176859501E+03  0.99069090024E+03  0.30730934915E+03 0.  0.
         13    1    3    3    0    0  0.80950921875E+02  0.42893563507E+01 -0.50776254420E+02  0.95653951007E+02  0.00000000000E+00 0.  1.
          3    1    3    3  501    0 -0.84846083941E+02  0.49931484860E+01 -0.89099234059E+03  0.89503694923E+03  0.00000000000E+00 0.  1.
         21    1    1    2  502  501  0.38951620657E+01 -0.92825048366E+01 -0.33020056742E+02  0.34520448010E+02  0.00000000000E+00 0.  1.
<mgrwt>
<rscale>  1 0.30000000E+03</rscale>
<asrwt>0</asrwt>
<pdfrwt beam="1">  1        1 0.91677823E-01 0.30000000E+03</pdfrwt>
<pdfrwt beam="2">0</pdfrwt>
<totfact> 0.38799716E+01</totfact>
</mgrwt>
</event>
<event>
 6    1  0.1950139E-004  0.3000000E+03  0.7818608E-02  0.1093470E+00
          1   -1    0    0  502    0  0.00000000000E+00  0.00000000000E+00  0.33014145766E+02  0.33014145766E+02  0.00000000000E+00 0.  1.
         13   -1    0    0    0    0 -0.00000000000E+00 -0.00000000000E+00 -0.10000000000E+04  0.10000000000E+04  0.00000000000E+00 0.  1.
    9000005    2    1    2  501    0 -0.34593656516E+02  0.14201103800E+02 -0.88624569792E+03  0.94403456799E+03  0.32306568380E+03 0.  0.
         13    1    3    3    0    0  0.16697836831E+02 -0.14422640440E+03 -0.54960296955E+03  0.56845712030E+03  0.00000000000E+00 0.  1.
          1    1    3    3  501    0 -0.51291493347E+02  0.15842750820E+03 -0.33664272838E+03  0.37557744769E+03  0.00000000000E+00 0.  1.
         21    1    1    2  502  501  0.34593656516E+02 -0.14201103800E+02 -0.80740156311E+02  0.88979577777E+02  0.00000000000E+00 0. -1.
<mgrwt>
<rscale>  1 0.30000000E+03</rscale>
<asrwt>0</asrwt>
<pdfrwt beam="1">  1        1 0.12005169E+00 0.30000000E+03</pdfrwt>
<pdfrwt beam="2">0</pdfrwt>
<totfact> 0.25978534E+01</totfact>
</mgrwt>
</event>
<event>
 6    1  0.1950139E-004  0.3000000E+03  0.7818608E-02  0.1093470E+00
          1   -1    0    0  502    0  0.00000000000E+00  0.00000000000E+00  0.28799226122E+02  0.28799226122E+02  0.00000000000E+00 0.  1.
         13   -1    0    0    0    0 -0.00000000000E+00 -0.00000000000E+00 -0.10000000000E+04  0.10000000000E+04  0.00000000000E+00 0.  1.
    9000005    2    1    2  501    0 -0.11076773860E+02 -0.93565119075E+01 -0.96213978310E+03  0.10117012500E+04  0.31243594185E+03 0.  0.
         13    1    3    3    0    0  0.11652629973E+03 -0.92075222518E+02 -0.61565194017E+03  0.63331156359E+03  0.00000000000E+00 0.  1.
          1    1    3    3  501    0 -0.12760307359E+03  0.82718710611E+02 -0.34648784292E+03  0.37838968639E+03  0.00000000000E+00 0.  1.
         21    1    1    2  502  501  0.11076773860E+02  0.93565119075E+01 -0.90609907812E+01  0.17097976142E+02  0.00000000000E+00 0.  1.
<mgrwt>
<rscale>  1 0.30000000E+03</rscale>
<asrwt>0</asrwt>
<pdfrwt beam="1">  1        1 0.10472468E+00 0.30000000E+03</pdfrwt>
<pdfrwt beam="2">0</pdfrwt>
<totfact> 0.31977124E+01</totfact>
</mgrwt>
</event>
<event>
 6    1  0.1950139E-004  0.3000000E+03  0.7818608E-02  0.1093470E+00
          1   -1    0    0  502    0  0.00000000000E+00  0.00000000000E+00  0.41449201022E+02  0.41449201022E+02  0.00000000000E+00 0.  1.
         13   -1    0    0    0    0 -0.00000000000E+00 -0.00000000000E+00 -0.10000000000E+04  0.10000000000E+04  0.00000000000E+00 0.  1.
    9000005    2    1    2  501    0  0.74286031832E+02  0.10858451158E+02 -0.76641179992E+03  0.83516368178E+03  0.32322593930E+03 0.  0.
         13    1    3    3    0    0  0.62327898184E+02 -0.11011341631E+03 -0.66478008476E+03  0.67671433592E+03  0.00000000000E+00 0.  1.
          3    1    3    3  501    0  0.11958133649E+02  0.12097186747E+03 -0.10163171515E+03  0.15844934586E+03  0.00000000000E+00 0.  1.
         21    1    1    2  502  501 -0.74286031832E+02 -0.10858451158E+02 -0.19213899906E+03  0.20628551924E+03  0.00000000000E+00 0.  1.
<mgrwt>
<rscale>  1 0.30000000E+03</rscale>
<asrwt>0</asrwt>
<pdfrwt beam="1">  1        1 0.15072469E+00 0.30000000E+03</pdfrwt>
<pdfrwt beam="2">0</pdfrwt>
<totfact> 0.17813322E+01</totfact>
</mgrwt>
</event>
<event>
 6    1  0.1950139E-004  0.3000000E+03  0.7818608E-02  0.1093470E+00
          1   -1    0    0  502    0  0.00000000000E+00  0.00000000000E+00  0.32042838495E+02  0.32042838495E+02  0.00000000000E+00 0.  1.
         13   -1    0    0    0    0 -0.00000000000E+00 -0.00000000000E+00 -0.10000000000E+04  0.10000000000E+04  0.00000000000E+00 0.  1.
    9000005    2    1    2  501    0  0.16311397268E+02 -0.17371700734E+02 -0.81848492601E+03  0.88068304578E+03  0.32421785168E+03 0.  0.
         13    1    3    3    0    0 -0.26832414417E+02  0.14249195777E+03 -0.25464508223E+03  0.29303251423E+03  0.00000000000E+00 0.  1.
          1    1    3    3  501    0  0.43143811685E+02 -0.15986365850E+03 -0.56383984378E+03  0.58765053155E+03  0.00000000000E+00 0.  1.
         21    1    1    2  502  501 -0.16311397268E+02  0.17371700734E+02 -0.14947223550E+03  0.15135979272E+03  0.00000000000E+00 0.  1.
<mgrwt>
<rscale>  1 0.30000000E+03</rscale>
<asrwt>0</asrwt>
<pdfrwt beam="1">  1        1 0.11651966E+00 0.30000000E+03</pdfrwt>
<pdfrwt beam="2">0</pdfrwt>
<totfact> 0.27211045E+01</totfact>
</mgrwt>
</event>
<event>
 6    1  0.1950139E-004  0.3000000E+03  0.7818608E-02  0.1093470E+00
          1   -1    0    0  502    0  0.00000000000E+00  0.00000000000E+00  0.33344780000E+02  0.33344780000E+02  0.00000000000E+00 0.  1.
         13   -1    0    0    0    0 -0.00000000000E+00 -0.00000000000E+00 -0.10000000000E+04  0.10000000000E+04  0.00000000000E+00 0.  1.
    9000005    2    1    2  501    0 -0.10113361887E+02 -0.23505302548E+01 -0.97056329364E+03  0.10222507221E+04  0.32077348204E+03 0.  0.
         13    1    3    3    0    0 -0.10502475756E+03 -0.11515126136E+03 -0.33012983183E+03  0.36506947086E+03  0.00000000000E+00 0.  1.
          1    1    3    3  501    0  0.94911395670E+02  0.11280073110E+03 -0.64043346181E+03  0.65718125123E+03  0.00000000000E+00 0.  1.
         21    1    1    2  502  501  0.10113361887E+02  0.23505302548E+01  0.39080736434E+01  0.11094057902E+02  0.00000000000E+00 0. -1.
<mgrwt>
<rscale>  1 0.30000000E+03</rscale>
<asrwt>0</asrwt>
<pdfrwt beam="1">  1        1 0.12125400E+00 0.30000000E+03</pdfrwt>
<pdfrwt beam="2">0</pdfrwt>
<totfact> 0.25576190E+01</totfact>
</mgrwt>
</event>
<event>
 6    1  0.1950139E-004  0.3000000E+03  0.7818608E-02  0.1093470E+00
          1   -1    0    0  502    0  0.00000000000E+00  0.00000000000E+00  0.29860508208E+02  0.29860508208E+02  0.00000000000E+00 0.  1.
         13   -1    0    0    0    0 -0.00000000000E+00 -0.00000000000E+00 -0.10000000000E+04  0.10000000000E+04  0.00000000000E+00 0.  1.
    9000005    2    1    2  501    0 -0.71159131185E+01  0.68707722439E+01 -0.96789917384E+03  0.10197183805E+04  0.32077861679E+03 0.  0.
         13    1    3    3    0    0  0.82314880507E+01 -0.15656250538E+03 -0.47308265286E+03  0.49838416099E+03  0.00000000000E+00 0.  1.
          3    1    3    3  501    0 -0.15347401169E+02  0.16343327762E+03 -0.49481652099E+03  0.52133421948E+03  0.00000000000E+00 0.  1.
         21    1    1    2  502  501  0.71159131185E+01 -0.68707722439E+01 -0.22403179469E+01  0.10142127747E+02  0.00000000000E+00 0. -1.
<mgrwt>
<rscale>  1 0.30000000E+03</rscale>
<asrwt>0</asrwt>
<pdfrwt beam="1">  1        1 0.10858390E+00 0.30000000E+03</pdfrwt>
<pdfrwt beam="2">0</pdfrwt>
<totfact> 0.30295126E+01</totfact>
</mgrwt>
</event>
<event>
 6    1  0.1950139E-004  0.3000000E+03  0.7818608E-02  0.1093470E+00
          1   -1    0    0  502    0  0.00000000000E+00  0.00000000000E+00  0.66998239325E+02  0.66998239325E+02  0.00000000000E+00 0.  1.
         13   -1    0    0    0    0 -0.00000000000E+00 -0.00000000000E+00 -0.10000000000E+04  0.10000000000E+04  0.00000000000E+00 0.  1.
    9000005    2    1    2  501    0 -0.29342022585E+02 -0.11501578806E+03 -0.86097803186E+03  0.92815659102E+03  0.32573286650E+03 0.  0.
         13    1    3    3    0    0 -0.71599997247E+00  0.28255893210E+02 -0.73412171278E+03  0.73466563642E+03  0.00000000000E+00 0.  1.
          1    1    3    3  501    0 -0.28626022612E+02 -0.14327168127E+03 -0.12685631908E+03  0.19349095460E+03  0.00000000000E+00 0.  1.
         21    1    1    2  502  501  0.29342022585E+02  0.11501578806E+03 -0.72023728816E+02  0.13884164830E+03  0.00000000000E+00 0.  1.
<mgrwt>
<rscale>  1 0.30000000E+03</rscale>
<asrwt>0</asrwt>
<pdfrwt beam="1">  1        1 0.24363047E+00 0.30000000E+03</pdfrwt>
<pdfrwt beam="2">0</pdfrwt>
<totfact> 0.63886663E+00</totfact>
</mgrwt>
</event>
<event>
 6    1  0.1950139E-004  0.3000000E+03  0.7818608E-02  0.1093470E+00
          1   -1    0    0  502    0  0.00000000000E+00  0.00000000000E+00  0.16117952118E+02  0.16117952118E+02  0.00000000000E+00 0.  1.
         13   -1    0    0    0    0 -0.00000000000E+00 -0.00000000000E+00 -0.10000000000E+04  0.10000000000E+04  0.00000000000E+00 0.  1.
    9000005    2    1    2  501    0  0.30687664791E+02 -0.24416027701E+02 -0.68591697863E+03  0.71558333236E+03  0.20009879759E+03 0.  0.
         13    1    3    3    0    0 -0.25101284895E+02  0.98718167901E+01 -0.43044234794E+00  0.26976147811E+02  0.00000000000E+00 0.  1.
          1    1    3    3  501    0  0.55788949686E+02 -0.34287844491E+02 -0.68548653628E+03  0.68860718455E+03  0.00000000000E+00 0.  1.
         21    1    1    2  502  501 -0.30687664791E+02  0.24416027701E+02 -0.29796506925E+03  0.30053461976E+03  0.00000000000E+00 0.  1.
<mgrwt>
<rscale>  1 0.30000000E+03</rscale>
<asrwt>0</asrwt>
<pdfrwt beam="1">  1        1 0.58610859E-01 0.30000000E+03</pdfrwt>
<pdfrwt beam="2">0</pdfrwt>
<totfact> 0.71535425E+01</totfact>
</mgrwt>
</event>
<event>
 6    1  0.1950139E-004  0.3000000E+03  0.7818608E-02  0.1093470E+00
          1   -1    0    0  502    0  0.00000000000E+00  0.00000000000E+00  0.44088999432E+02  0.44088999432E+02  0.00000000000E+00 0.  1.
         13   -1    0    0    0    0 -0.00000000000E+00 -0.00000000000E+00 -0.10000000000E+04  0.10000000000E+04  0.00000000000E+00 0.  1.
    9000005    2    1    2  501    0 -0.50111949415E+02 -0.59845926937E+01 -0.93123855391E+03  0.98791291513E+03  0.32591357867E+03 0.  0.
         13    1    3    3    0    0 -0.13772130565E+03  0.74460456403E+02 -0.24023680633E+03  0.28674943891E+03  0.00000000000E+00 0.  1.
          3    1    3    3  501    0  0.87609356237E+02 -0.80445049096E+02 -0.69100174758E+03  0.70116347622E+03  0.00000000000E+00 0.  1.
         21    1    1    2  502  501  0.50111949415E+02  0.59845926937E+01 -0.24672446660E+02  0.56176084307E+02  0.00000000000E+00 0. -1.
<mgrwt>
<rscale>  1 0.30000000E+03</rscale>
<asrwt>0</asrwt>
<pdfrwt beam="1">  1        1 0.16032397E+00 0.30000000E+03</pdfrwt>
<pdfrwt beam="2">0</pdfrwt>
<totfact> 0.15943869E+01</totfact>
</mgrwt>
</event>
<event>
 6    1  0.1950139E-004  0.3000000E+03  0.7818608E-02  0.1093470E+00
          1   -1    0    0  502    0  0.00000000000E+00  0.00000000000E+00  0.33851425211E+02  0.33851425211E+02  0.00000000000E+00 0.  1.
         13   -1    0    0    0    0 -0.00000000000E+00 -0.00000000000E+00 -0.10000000000E+04  0.10000000000E+04  0.00000000000E+00 0.  1.
    9000005    2    1    2  501    0 -0.59578673033E+01 -0.11710930967E+02 -0.96564509778E+03  0.10207024490E+04  0.33043969555E+03 0.  0.
         13    1    3    3    0    0 -0.13677537802E+03 -0.10003560433E+02 -0.19127619188E+03  0.23535963297E+03  0.00000000000E+00 0.  1.
          3    1    3    3  501    0  0.13081751071E+03 -0.17073705345E+01 -0.77436890590E+03  0.78534281601E+03  0.00000000000E+00 0.  1.
         21    1    1    2  502  501  0.59578673033E+01  0.11710930967E+02 -0.50347700984E+00  0.13148976235E+02  0.00000000000E+00 0. -1.
<mgrwt>
<rscale>  1 0.30000000E+03</rscale>
<asrwt>0</asrwt>
<pdfrwt beam="1">  1        1 0.12309635E+00 0.30000000E+03</pdfrwt>
<pdfrwt beam="2">0</pdfrwt>
<totfact> 0.24975495E+01</totfact>
</mgrwt>
</event>
<event>
 6    1  0.1950139E-004  0.3000000E+03  0.7818608E-02  0.1093470E+00
          1   -1    0    0  502    0  0.00000000000E+00  0.00000000000E+00  0.42623171088E+02  0.42623171088E+02  0.00000000000E+00 0.  1.
         13   -1    0    0    0    0 -0.00000000000E+00 -0.00000000000E+00 -0.10000000000E+04  0.10000000000E+04  0.00000000000E+00 0.  1.
    9000005    2    1    2  501    0 -0.11957907606E+02  0.13858733583E+02 -0.96795487404E+03  0.10214819533E+04  0.32581234889E+03 0.  0.
         13    1    3    3    0    0 -0.13069008514E+03  0.46728209582E+02 -0.19839962614E+03  0.24212772575E+03  0.00000000000E+00 0.  1.
          1    1    3    3  501    0  0.11873217753E+03 -0.32869475999E+02 -0.76955524790E+03  0.77935422755E+03  0.00000000000E+00 0.  1.
         21    1    1    2  502  501  0.11957907606E+02 -0.13858733583E+02  0.10578045126E+02  0.21141217788E+02  0.00000000000E+00 0.  1.
<mgrwt>
<rscale>  1 0.30000000E+03</rscale>
<asrwt>0</asrwt>
<pdfrwt beam="1">  1        1 0.15499368E+00 0.30000000E+03</pdfrwt>
<pdfrwt beam="2">0</pdfrwt>
<totfact> 0.16951183E+01</totfact>
</mgrwt>
</event>
<event>
 6    1  0.1950139E-004  0.3000000E+03  0.7818608E-02  0.1093470E+00
          1   -1    0    0  502    0  0.00000000000E+00  0.00000000000E+00  0.52268284093E+02  0.52268284093E+02  0.00000000000E+00 0.  1.
         13   -1    0    0    0    0 -0.00000000000E+00 -0.00000000000E+00 -0.10000000000E+04  0.10000000000E+04  0.00000000000E+00 0.  1.
    9000005    2    1    2  501    0 -0.82261278381E+02 -0.45270888175E+02 -0.85192046728E+03  0.91811849244E+03  0.32917580766E+03 0.  0.
         13    1    3    3    0    0  0.51756792207E+01  0.98399167107E+02 -0.76712317230E+02  0.12487579172E+03  0.00000000000E+00 0.  1.
          3    1    3    3  501    0 -0.87436957602E+02 -0.14367005528E+03 -0.77520815006E+03  0.79324270072E+03  0.00000000000E+00 0.  1.
         21    1    1    2  502  501  0.82261278381E+02  0.45270888175E+02 -0.95811248623E+02  0.13414979165E+03  0.00000000000E+00 0.  1.
<mgrwt>
<rscale>  1 0.30000000E+03</rscale>
<asrwt>0</asrwt>
<pdfrwt beam="1">  1        1 0.19006689E+00 0.30000000E+03</pdfrwt>
<pdfrwt beam="2">0</pdfrwt>
<totfact> 0.11425542E+01</totfact>
</mgrwt>
</event>
<event>
 6    1  0.1950139E-004  0.3000000E+03  0.7818608E-02  0.1093470E+00
          1   -1    0    0  502    0  0.00000000000E+00  0.00000000000E+00  0.55959443390E+02  0.55959443390E+02  0.00000000000E+00 0.  1.
         13   -1    0    0    0    0 -0.00000000000E+00 -0.00000000000E+00 -0.10000000000E+04  0.10000000000E+04  0.00000000000E+00 0.  1.
    9000005    2    1    2  501    0 -0.71952660191E+01  0.79010276020E+01 -0.96761622757E+03  0.10300748852E+04  0.35307068303E+03 0.  0.
         13    1    3    3    0    0  0.30682100061E+01 -0.52323269450E+01 -0.99661160726E+03  0.99663006522E+03  0.00000000000E+00 0.  1.
          1    1    3    3  501    0 -0.10263476025E+02  0.13133354547E+02  0.28995379692E+02  0.33444820006E+02  0.00000000000E+00 0.  1.
         21    1    1    2  502  501  0.71952660191E+01 -0.79010276020E+01  0.23575670962E+02  0.25884558168E+02  0.00000000000E+00 0.  1.
<mgrwt>
<rscale>  1 0.30000000E+03</rscale>
<asrwt>0</asrwt>
<pdfrwt beam="1">  1        1 0.20348931E+00 0.30000000E+03</pdfrwt>
<pdfrwt beam="2">0</pdfrwt>
<totfact> 0.98599843E+00</totfact>
</mgrwt>
</event>
<event>
 6    1  0.1950139E-004  0.3000000E+03  0.7818608E-02  0.1093470E+00
          1   -1    0    0  502    0  0.00000000000E+00  0.00000000000E+00  0.47143092607E+02  0.47143092607E+02  0.00000000000E+00 0.  1.
         13   -1    0    0    0    0 -0.00000000000E+00 -0.00000000000E+00 -0.10000000000E+04  0.10000000000E+04  0.00000000000E+00 0.  1.
    9000005    2    1    2  501    0  0.18186985491E+02  0.64260459603E+00 -0.96787200094E+03  0.10235500340E+04  0.33248651470E+03 0.  0.
         13    1    3    3    0    0  0.16557996180E+03 -0.53755354274E+02 -0.56134281094E+03  0.58771771562E+03  0.00000000000E+00 0.  1.
          1    1    3    3  501    0 -0.14739297631E+03  0.54397958870E+02 -0.40652918999E+03  0.43583231834E+03  0.00000000000E+00 0.  1.
         21    1    1    2  502  501 -0.18186985491E+02 -0.64260459603E+00  0.15015093543E+02  0.23593058640E+02  0.00000000000E+00 0.  1.
<mgrwt>
<rscale>  1 0.30000000E+03</rscale>
<asrwt>0</asrwt>
<pdfrwt beam="1">  1        1 0.17142979E+00 0.30000000E+03</pdfrwt>
<pdfrwt beam="2">0</pdfrwt>
<totfact> 0.14059367E+01</totfact>
</mgrwt>
</event>
<event>
 6    1  0.1950139E-004  0.3000000E+03  0.7818608E-02  0.1093470E+00
          1   -1    0    0  502    0  0.00000000000E+00  0.00000000000E+00  0.33053032528E+02  0.33053032528E+02  0.00000000000E+00 0.  1.
         13   -1    0    0    0    0 -0.00000000000E+00 -0.00000000000E+00 -0.10000000000E+04  0.10000000000E+04  0.00000000000E+00 0.  1.
    9000005    2    1    2  501    0 -0.26889543281E+02 -0.23122029139E+01 -0.93909499691E+03  0.99426996813E+03  0.32549187774E+03 0.  0.
         13    1    3    3    0    0  0.11182445514E+03  0.50903990476E+02 -0.71446149319E+03  0.72494906736E+03  0.00000000000E+00 0.  1.
          3    1    3    3  501    0 -0.13871399842E+03 -0.53216193389E+02 -0.22463350372E+03  0.26932090076E+03  0.00000000000E+00 0.  1.
         21    1    1    2  502  501  0.26889543281E+02  0.23122029139E+01 -0.27851970560E+02  0.38783064400E+02  0.00000000000E+00 0.  1.
<mgrwt>
<rscale>  1 0.30000000E+03</rscale>
<asrwt>0</asrwt>
<pdfrwt beam="1">  1        1 0.12019310E+00 0.30000000E+03</pdfrwt>
<pdfrwt beam="2">0</pdfrwt>
<totfact> 0.25930777E+01</totfact>
</mgrwt>
</event>
<event>
 6    1  0.1950139E-004  0.3000000E+03  0.7818608E-02  0.1093470E+00
          1   -1    0    0  502    0  0.00000000000E+00  0.00000000000E+00  0.35928837140E+02  0.35928837140E+02  0.00000000000E+00 0.  1.
         13   -1    0    0    0    0 -0.00000000000E+00 -0.00000000000E+00 -0.10000000000E+04  0.10000000000E+04  0.00000000000E+00 0.  1.
    9000005    2    1    2  501    0 -0.19114535922E+02  0.85064545188E+01 -0.96238014409E+03  0.10149387253E+04  0.32169449645E+03 0.  0.
         13    1    3    3    0    0 -0.12410732686E+02  0.16240192808E+03 -0.40120859154E+03  0.43300894501E+03  0.00000000000E+00 0.  1.
          1    1    3    3  501    0 -0.67038032355E+01 -0.15389547356E+03 -0.56117155255E+03  0.58192978026E+03  0.00000000000E+00 0.  1.
         21    1    1    2  502  501  0.19114535922E+02 -0.85064545188E+01 -0.16910187656E+01  0.20990111873E+02  0.00000000000E+00 0.  1.
<mgrwt>
<rscale>  1 0.30000000E+03</rscale>
<asrwt>0</asrwt>
<pdfrwt beam="1">  1        1 0.13065059E+00 0.30000000E+03</pdfrwt>
<pdfrwt beam="2">0</pdfrwt>
<totfact> 0.22694143E+01</totfact>
</mgrwt>
</event>
<event>
 6    1  0.1950139E-004  0.3000000E+03  0.7818608E-02  0.1093470E+00
          1   -1    0    0  502    0  0.00000000000E+00  0.00000000000E+00  0.23527513540E+02  0.23527513540E+02  0.00000000000E+00 0.  1.
         13   -1    0    0    0    0 -0.00000000000E+00 -0.00000000000E+00 -0.10000000000E+04  0.10000000000E+04  0.00000000000E+00 0.  1.
    9000005    2    1    2  501    0 -0.42570016865E+01 -0.95351303653E+01 -0.97079604321E+03  0.10116421115E+04  0.28436906197E+03 0.  0.
         13    1    3    3    0    0  0.81512589540E+02  0.41994530896E+02 -0.84935451270E+03  0.85428972317E+03  0.00000000000E+00 0.  1.
          1    1    3    3  501    0 -0.85769591227E+02 -0.51529661261E+02 -0.12144153051E+03  0.15735238829E+03  0.00000000000E+00 0.  1.
         21    1    1    2  502  501  0.42570016865E+01  0.95351303653E+01 -0.56764432506E+01  0.11885402072E+02  0.00000000000E+00 0. -1.
<mgrwt>
<rscale>  1 0.30000000E+03</rscale>
<asrwt>0</asrwt>
<pdfrwt beam="1">  1        1 0.85554775E-01 0.30000000E+03</pdfrwt>
<pdfrwt beam="2">0</pdfrwt>
<totfact> 0.42777904E+01</totfact>
</mgrwt>
</event>
<event>
 6    1  0.1950139E-004  0.3000000E+03  0.7818608E-02  0.1093470E+00
          1   -1    0    0  502    0  0.00000000000E+00  0.00000000000E+00  0.31756722120E+02  0.31756722120E+02  0.00000000000E+00 0.  1.
         13   -1    0    0    0    0 -0.00000000000E+00 -0.00000000000E+00 -0.10000000000E+04  0.10000000000E+04  0.00000000000E+00 0.  1.
    9000005    2    1    2  501    0  0.18273429926E+02  0.44390284713E+01 -0.94932184088E+03  0.10050800658E+04  0.32957602743E+03 0.  0.
         13    1    3    3    0    0  0.29283869546E+02 -0.16130117965E+03 -0.46129248837E+03  0.48955732596E+03  0.00000000000E+00 0.  1.
          1    1    3    3  501    0 -0.11010439620E+02  0.16574020812E+03 -0.48802935251E+03  0.51552273983E+03  0.00000000000E+00 0.  1.
         21    1    1    2  502  501 -0.18273429926E+02 -0.44390284713E+01 -0.18921437003E+02  0.26676656337E+02  0.00000000000E+00 0.  1.
<mgrwt>
<rscale>  1 0.30000000E+03</rscale>
<asrwt>0</asrwt>
<pdfrwt beam="1">  1        1 0.11547923E+00 0.30000000E+03</pdfrwt>
<pdfrwt beam="2">0</pdfrwt>
<totfact> 0.27589389E+01</totfact>
</mgrwt>
</event>
<event>
 6    1  0.1950139E-004  0.3000000E+03  0.7818608E-02  0.1093470E+00
          1   -1    0    0  502    0  0.00000000000E+00  0.00000000000E+00  0.38423364012E+02  0.38423364012E+02  0.00000000000E+00 0.  1.
         13   -1    0    0    0    0 -0.00000000000E+00 -0.00000000000E+00 -0.10000000000E+04  0.10000000000E+04  0.00000000000E+00 0.  1.
    9000005    2    1    2  501    0  0.39608299458E+01  0.15527289754E+02 -0.96929436616E+03  0.10206371823E+04  0.31923644017E+03 0.  0.
         13    1    3    3    0    0  0.29550043706E+02  0.83886128065E+02 -0.93633480749E+03  0.94054928594E+03  0.00000000000E+00 0.  1.
          1    1    3    3  501    0 -0.25589213760E+02 -0.68358838310E+02 -0.32959558666E+02  0.80087896361E+02  0.00000000000E+00 0.  1.
         21    1    1    2  502  501 -0.39608299458E+01 -0.15527289754E+02  0.77177301670E+01  0.17786181712E+02  0.00000000000E+00 0.  1.
<mgrwt>
<rscale>  1 0.30000000E+03</rscale>
<asrwt>0</asrwt>
<pdfrwt beam="1">  1        1 0.13972162E+00 0.30000000E+03</pdfrwt>
<pdfrwt beam="2">0</pdfrwt>
<totfact> 0.20300382E+01</totfact>
</mgrwt>
</event>
<event>
 6    1  0.1950139E-004  0.3000000E+03  0.7818608E-02  0.1093470E+00
          1   -1    0    0  502    0  0.00000000000E+00  0.00000000000E+00  0.30533449191E+02  0.30533449191E+02  0.00000000000E+00 0.  1.
         13   -1    0    0    0    0 -0.00000000000E+00 -0.00000000000E+00 -0.10000000000E+04  0.10000000000E+04  0.00000000000E+00 0.  1.
    9000005    2    1    2  501    0 -0.24903710523E+01 -0.13681347580E+02 -0.96651851616E+03  0.10163182416E+04  0.31392888499E+03 0.  0.
         13    1    3    3    0    0  0.86712306551E+02  0.64797854917E+02 -0.82260939223E+03  0.82970114999E+03  0.00000000000E+00 0.  1.
          3    1    3    3  501    0 -0.89202677603E+02 -0.78479202497E+02 -0.14390912393E+03  0.18661709157E+03  0.00000000000E+00 0.  1.
         21    1    1    2  502  501  0.24903710523E+01  0.13681347580E+02 -0.29480346439E+01  0.14215207626E+02  0.00000000000E+00 0.  1.
<mgrwt>
<rscale>  1 0.30000000E+03</rscale>
<asrwt>0</asrwt>
<pdfrwt beam="1">  1        1 0.11103096E+00 0.30000000E+03</pdfrwt>
<pdfrwt beam="2">0</pdfrwt>
<totfact> 0.29293456E+01</totfact>
</mgrwt>
</event>
<event>
 6    1  0.1950139E-004  0.3000000E+03  0.7818608E-02  0.1093470E+00
          1   -1    0    0  502    0  0.00000000000E+00  0.00000000000E+00  0.77579137306E+02  0.77579137306E+02  0.00000000000E+00 0.  1.
         13   -1    0    0    0    0 -0.00000000000E+00 -0.00000000000E+00 -0.10000000000E+04  0.10000000000E+04  0.00000000000E+00 0.  1.
    9000005    2    1    2  501    0 -0.14387765811E+02 -0.29943742028E+01 -0.97269701448E+03  0.10251991266E+04  0.32353947695E+03 0.  0.
         13    1    3    3    0    0 -0.15641485344E+02  0.15878194857E+03 -0.41893696768E+03  0.44829069379E+03  0.00000000000E+00 0.  1.
          3    1    3    3  501    0  0.12537195330E+01 -0.16177632277E+03 -0.55376004680E+03  0.57690843282E+03  0.00000000000E+00 0.  1.
         21    1    1    2  502  501  0.14387765811E+02  0.29943742028E+01  0.50276151786E+02  0.52380010694E+02  0.00000000000E+00 0.  1.
<mgrwt>
<rscale>  1 0.30000000E+03</rscale>
<asrwt>0</asrwt>
<pdfrwt beam="1">  1        1 0.28210655E+00 0.30000000E+03</pdfrwt>
<pdfrwt beam="2">0</pdfrwt>
<totfact> 0.42210716E+00</totfact>
</mgrwt>
</event>
<event>
 6    1  0.1950139E-004  0.3000000E+03  0.7818608E-02  0.1093470E+00
          1   -1    0    0  502    0  0.00000000000E+00  0.00000000000E+00  0.12876664809E+02  0.12876664809E+02  0.00000000000E+00 0.  1.
         13   -1    0    0    0    0 -0.00000000000E+00 -0.00000000000E+00 -0.10000000000E+04  0.10000000000E+04  0.00000000000E+00 0.  1.
    9000005    2    1    2  501    0 -0.10052366230E+02  0.36161815750E+01 -0.96408011930E+03  0.98747751847E+03  0.21341800820E+03 0.  0.
         13    1    3    3    0    0  0.48941566134E+02  0.88584771878E+02 -0.61928879317E+03  0.62750390281E+03  0.00000000000E+00 0.  1.
          3    1    3    3  501    0 -0.58993932363E+02 -0.84968590303E+02 -0.34479132613E+03  0.35997361566E+03  0.00000000000E+00 0.  1.
         21    1    1    2  502  501  0.10052366230E+02 -0.36161815750E+01 -0.23043215895E+02  0.25399146340E+02  0.00000000000E+00 0. -1.
<mgrwt>
<rscale>  1 0.30000000E+03</rscale>
<asrwt>0</asrwt>
<pdfrwt beam="1">  1        1 0.46824334E-01 0.30000000E+03</pdfrwt>
<pdfrwt beam="2">0</pdfrwt>
<totfact> 0.96182555E+01</totfact>
</mgrwt>
</event>
<event>
 6    1  0.1950139E-004  0.3000000E+03  0.7818608E-02  0.1093470E+00
          3   -1    0    0  502    0  0.00000000000E+00  0.00000000000E+00  0.32027146115E+02  0.32027146115E+02  0.00000000000E+00 0.  1.
         13   -1    0    0    0    0 -0.00000000000E+00 -0.00000000000E+00 -0.10000000000E+04  0.10000000000E+04  0.00000000000E+00 0.  1.
    9000005    2    1    2  501    0 -0.12676653932E+02 -0.10286521821E+02 -0.95909000962E+03  0.10134418022E+04  0.32702313345E+03 0.  0.
         13    1    3    3    0    0 -0.22026886500E+02  0.67440747891E+02 -0.23728299231E+02  0.74809560816E+02  0.00000000000E+00 0.  1.
          1    1    3    3  501    0  0.93502325685E+01 -0.77727269713E+02 -0.93536171039E+03  0.93863224139E+03  0.00000000000E+00 0.  1.
         21    1    1    2  502  501  0.12676653932E+02  0.10286521821E+02 -0.88828442599E+01  0.18585343909E+02  0.00000000000E+00 0.  1.
<mgrwt>
<rscale>  1 0.30000000E+03</rscale>
<asrwt>0</asrwt>
<pdfrwt beam="1">  1        3 0.11646260E+00 0.30000000E+03</pdfrwt>
<pdfrwt beam="2">0</pdfrwt>
<totfact> 0.25414246E+00</totfact>
</mgrwt>
</event>
<event>
 6    1  0.1950139E-004  0.3000000E+03  0.7818608E-02  0.1093470E+00
          1   -1    0    0  502    0  0.00000000000E+00  0.00000000000E+00  0.29587349698E+02  0.29587349698E+02  0.00000000000E+00 0.  1.
         13   -1    0    0    0    0 -0.00000000000E+00 -0.00000000000E+00 -0.10000000000E+04  0.10000000000E+04  0.00000000000E+00 0.  1.
    9000005    2    1    2  501    0 -0.29433370835E+02  0.57922350993E+01 -0.92308667684E+03  0.97355502804E+03  0.30792938534E+03 0.  0.
         13    1    3    3    0    0  0.13307649583E+03  0.35241128362E+02 -0.52076521494E+03  0.53865359923E+03  0.00000000000E+00 0.  1.
          1    1    3    3  501    0 -0.16250986666E+03 -0.29448893263E+02 -0.40232146190E+03  0.43490142881E+03  0.00000000000E+00 0.  1.
         21    1    1    2  502  501  0.29433370835E+02 -0.57922350993E+01 -0.47325973462E+02  0.56032321657E+02  0.00000000000E+00 0.  1.
<mgrwt>
<rscale>  1 0.30000000E+03</rscale>
<asrwt>0</asrwt>
<pdfrwt beam="1">  1        1 0.10759059E+00 0.30000000E+03</pdfrwt>
<pdfrwt beam="2">0</pdfrwt>
<totfact> 0.30715675E+01</totfact>
</mgrwt>
</event>
<event>
 6    1  0.1950139E-004  0.3000000E+03  0.7818608E-02  0.1093470E+00
          1   -1    0    0  502    0  0.00000000000E+00  0.00000000000E+00  0.61613113818E+02  0.61613113818E+02  0.00000000000E+00 0.  1.
         13   -1    0    0    0    0 -0.00000000000E+00 -0.00000000000E+00 -0.10000000000E+04  0.10000000000E+04  0.00000000000E+00 0.  1.
    9000005    2    1    2  501    0 -0.37922263281E+02  0.11400337929E+03 -0.82982473422E+03  0.89968532318E+03  0.32617437466E+03 0.  0.
         13    1    3    3    0    0 -0.10845205363E+03  0.11156265349E+03 -0.14971128318E+03  0.21592022115E+03  0.00000000000E+00 0.  1.
          1    1    3    3  501    0  0.70529790349E+02  0.24407257987E+01 -0.68011345104E+03  0.68376510203E+03  0.00000000000E+00 0.  1.
         21    1    1    2  502  501  0.37922263281E+02 -0.11400337929E+03 -0.10856215196E+03  0.16192779064E+03  0.00000000000E+00 0.  1.
<mgrwt>
<rscale>  1 0.30000000E+03</rscale>
<asrwt>0</asrwt>
<pdfrwt beam="1">  1        1 0.22404816E+00 0.30000000E+03</pdfrwt>
<pdfrwt beam="2">0</pdfrwt>
<totfact> 0.78909779E+00</totfact>
</mgrwt>
</event>
<event>
 6    1  0.1950139E-004  0.3000000E+03  0.7818608E-02  0.1093470E+00
          1   -1    0    0  502    0  0.00000000000E+00  0.00000000000E+00  0.27476362511E+02  0.27476362511E+02  0.00000000000E+00 0.  1.
         13   -1    0    0    0    0 -0.00000000000E+00 -0.00000000000E+00 -0.10000000000E+04  0.10000000000E+04  0.00000000000E+00 0.  1.
    9000005    2    1    2  501    0  0.12867887916E+02  0.13222498301E+02 -0.91345993900E+03  0.96559795367E+03  0.31245788674E+03 0.  0.
         13    1    3    3    0    0  0.92583242612E+02  0.94377487510E+02 -0.17981779743E+03  0.22318872559E+03  0.00000000000E+00 0.  1.
          3    1    3    3  501    0 -0.79715354695E+02 -0.81154989209E+02 -0.73364214157E+03  0.74240922808E+03  0.00000000000E+00 0.  1.
         21    1    1    2  502  501 -0.12867887916E+02 -0.13222498301E+02 -0.59063698491E+02  0.61878408837E+02  0.00000000000E+00 0. -1.
<mgrwt>
<rscale>  1 0.30000000E+03</rscale>
<asrwt>0</asrwt>
<pdfrwt beam="1">  1        1 0.99914256E-01 0.30000000E+03</pdfrwt>
<pdfrwt beam="2">0</pdfrwt>
<totfact> 0.34269899E+01</totfact>
</mgrwt>
</event>
<event>
 6    1  0.1950139E-004  0.3000000E+03  0.7818608E-02  0.1093470E+00
          1   -1    0    0  502    0  0.00000000000E+00  0.00000000000E+00  0.40577061139E+02  0.40577061139E+02  0.00000000000E+00 0.  1.
         13   -1    0    0    0    0 -0.00000000000E+00 -0.00000000000E+00 -0.10000000000E+04  0.10000000000E+04  0.00000000000E+00 0.  1.
    9000005    2    1    2  501    0  0.57646932992E+01 -0.11684648999E+02 -0.95244697232E+03  0.10257977912E+04  0.38070475517E+03 0.  0.
         13    1    3    3    0    0  0.11899376028E+03 -0.13085702673E+03 -0.26242440536E+03  0.31646428701E+03  0.00000000000E+00 0.  1.
          3    1    3    3  501    0 -0.11322906698E+03  0.11917237773E+03 -0.69002256697E+03  0.70933350418E+03  0.00000000000E+00 0.  1.
         21    1    1    2  502  501 -0.57646932992E+01  0.11684648999E+02 -0.69759665362E+01  0.14779269948E+02  0.00000000000E+00 0.  1.
<mgrwt>
<rscale>  1 0.30000000E+03</rscale>
<asrwt>0</asrwt>
<pdfrwt beam="1">  1        1 0.14755326E+00 0.30000000E+03</pdfrwt>
<pdfrwt beam="2">0</pdfrwt>
<totfact> 0.18488893E+01</totfact>
</mgrwt>
</event>
<event>
 6    1  0.1950139E-004  0.3000000E+03  0.7818608E-02  0.1093470E+00
          1   -1    0    0  502    0  0.00000000000E+00  0.00000000000E+00  0.39691574028E+02  0.39691574028E+02  0.00000000000E+00 0.  1.
         13   -1    0    0    0    0 -0.00000000000E+00 -0.00000000000E+00 -0.10000000000E+04  0.10000000000E+04  0.00000000000E+00 0.  1.
    9000005    2    1    2  501    0 -0.48410055716E+02  0.24086803631E+02 -0.89842640771E+03  0.95751437653E+03  0.32671097869E+03 0.  0.
         13    1    3    3    0    0  0.14085994748E+03  0.15180735293E+02 -0.38388822497E+03  0.40919695600E+03  0.00000000000E+00 0.  1.
          3    1    3    3  501    0 -0.18927000320E+03  0.89060683379E+01 -0.51453818273E+03  0.54831742053E+03  0.00000000000E+00 0.  1.
         21    1    1    2  502  501  0.48410055716E+02 -0.24086803631E+02 -0.61882018266E+02  0.82177197496E+02  0.00000000000E+00 0. -1.
<mgrwt>
<rscale>  1 0.30000000E+03</rscale>
<asrwt>0</asrwt>
<pdfrwt beam="1">  1        1 0.14433330E+00 0.30000000E+03</pdfrwt>
<pdfrwt beam="2">0</pdfrwt>
<totfact> 0.19207917E+01</totfact>
</mgrwt>
</event>
<event>
 6    1  0.1950139E-004  0.3000000E+03  0.7818608E-02  0.1093470E+00
          1   -1    0    0  502    0  0.00000000000E+00  0.00000000000E+00  0.34857409031E+02  0.34857409031E+02  0.00000000000E+00 0.  1.
         13   -1    0    0    0    0 -0.00000000000E+00 -0.00000000000E+00 -0.10000000000E+04  0.10000000000E+04  0.00000000000E+00 0.  1.
    9000005    2    1    2  501    0  0.46403103449E+02 -0.52960145459E+01 -0.93643073307E+03  0.98003344927E+03  0.28527486408E+03 0.  0.
         13    1    3    3    0    0  0.14387905114E+02  0.11653525859E+03 -0.72082685345E+03  0.73032789277E+03  0.00000000000E+00 0.  1.
          1    1    3    3  501    0  0.32015198336E+02 -0.12183127314E+03 -0.21560387962E+03  0.24970555650E+03  0.00000000000E+00 0.  1.
         21    1    1    2  502  501 -0.46403103449E+02  0.52960145459E+01 -0.28711857903E+02  0.54823959763E+02  0.00000000000E+00 0. -1.
<mgrwt>
<rscale>  1 0.30000000E+03</rscale>
<asrwt>0</asrwt>
<pdfrwt beam="1">  1        1 0.12675448E+00 0.30000000E+03</pdfrwt>
<pdfrwt beam="2">0</pdfrwt>
<totfact> 0.23835780E+01</totfact>
</mgrwt>
</event>
<event>
 6    1  0.1950139E-004  0.3000000E+03  0.7818608E-02  0.1093470E+00
          1   -1    0    0  502    0  0.00000000000E+00  0.00000000000E+00  0.25102906108E+02  0.25102906108E+02  0.00000000000E+00 0.  1.
         13   -1    0    0    0    0 -0.00000000000E+00 -0.00000000000E+00 -0.10000000000E+04  0.10000000000E+04  0.00000000000E+00 0.  1.
    9000005    2    1    2  501    0  0.17479084703E+00 -0.17861586895E+02 -0.93239953571E+03  0.97900399842E+03  0.29792762191E+03 0.  0.
         13    1    3    3    0    0  0.11633498699E+03  0.71296262097E+02 -0.29538219695E+03  0.32537306044E+03  0.00000000000E+00 0.  1.
          3    1    3    3  501    0 -0.11616019614E+03 -0.89157848992E+02 -0.63701733876E+03  0.65363093798E+03  0.00000000000E+00 0.  1.
         21    1    1    2  502  501 -0.17479084703E+00  0.17861586895E+02 -0.42497558183E+02  0.46098907685E+02  0.00000000000E+00 0.  1.
<mgrwt>
<rscale>  1 0.30000000E+03</rscale>
<asrwt>0</asrwt>
<pdfrwt beam="1">  1        1 0.91283487E-01 0.30000000E+03</pdfrwt>
<pdfrwt beam="2">0</pdfrwt>
<totfact> 0.39038646E+01</totfact>
</mgrwt>
</event>
<event>
 6    1  0.1950139E-004  0.3000000E+03  0.7818608E-02  0.1093470E+00
          1   -1    0    0  502    0  0.00000000000E+00  0.00000000000E+00  0.30858660821E+02  0.30858660821E+02  0.00000000000E+00 0.  1.
         13   -1    0    0    0    0 -0.00000000000E+00 -0.00000000000E+00 -0.10000000000E+04  0.10000000000E+04  0.00000000000E+00 0.  1.
    9000005    2    1    2  501    0 -0.78025255472E+01  0.59999841490E+01 -0.96592847971E+03  0.10205048364E+04  0.32911307165E+03 0.  0.
         13    1    3    3    0    0  0.44154895541E+02  0.14072471582E+03 -0.25087781329E+03  0.29102023580E+03  0.00000000000E+00 0.  1.
          3    1    3    3  501    0 -0.51957421088E+02 -0.13472473167E+03 -0.71505066642E+03  0.72948460058E+03  0.00000000000E+00 0.  1.
         21    1    1    2  502  501  0.78025255472E+01 -0.59999841490E+01 -0.32128594651E+01  0.10353824445E+02  0.00000000000E+00 0. -1.
<mgrwt>
<rscale>  1 0.30000000E+03</rscale>
<asrwt>0</asrwt>
<pdfrwt beam="1">  1        1 0.11221355E+00 0.30000000E+03</pdfrwt>
<pdfrwt beam="2">0</pdfrwt>
<totfact> 0.28826140E+01</totfact>
</mgrwt>
</event>
<event>
 6    1  0.1950139E-004  0.3000000E+03  0.7818608E-02  0.1093470E+00
          1   -1    0    0  502    0  0.00000000000E+00  0.00000000000E+00  0.50549372546E+02  0.50549372546E+02  0.00000000000E+00 0.  1.
         13   -1    0    0    0    0 -0.00000000000E+00 -0.00000000000E+00 -0.10000000000E+04  0.10000000000E+04  0.00000000000E+00 0.  1.
    9000005    2    1    2  501    0 -0.24451501167E+01 -0.13698286116E+02 -0.97252109701E+03  0.10236074282E+04  0.31903175559E+03 0.  0.
         13    1    3    3    0    0 -0.28477035120E+02  0.14266573147E+03 -0.31077851682E+03  0.34314390419E+03  0.00000000000E+00 0.  1.
          3    1    3    3  501    0  0.26031885003E+02 -0.15636401759E+03 -0.66174258019E+03  0.68046352398E+03  0.00000000000E+00 0.  1.
         21    1    1    2  502  501  0.24451501167E+01  0.13698286116E+02  0.23070469551E+02  0.26941944379E+02  0.00000000000E+00 0.  1.
<mgrwt>
<rscale>  1 0.30000000E+03</rscale>
<asrwt>0</asrwt>
<pdfrwt beam="1">  1        1 0.18381629E+00 0.30000000E+03</pdfrwt>
<pdfrwt beam="2">0</pdfrwt>
<totfact> 0.12243949E+01</totfact>
</mgrwt>
</event>
<event>
 6    1  0.1950139E-004  0.3000000E+03  0.7818608E-02  0.1093470E+00
          1   -1    0    0  502    0  0.00000000000E+00  0.00000000000E+00  0.31106030952E+02  0.31106030952E+02  0.00000000000E+00 0.  1.
         13   -1    0    0    0    0 -0.00000000000E+00 -0.00000000000E+00 -0.10000000000E+04  0.10000000000E+04  0.00000000000E+00 0.  1.
    9000005    2    1    2  501    0  0.96456615548E+01  0.14126033019E+02 -0.93819977986E+03  0.99596749305E+03  0.33382605754E+03 0.  0.
         13    1    3    3    0    0 -0.10814276978E+00 -0.11028965197E+03 -0.10110009887E+03  0.14961633941E+03  0.00000000000E+00 0.  1.
          1    1    3    3  501    0  0.97538043245E+01  0.12441568498E+03 -0.83709968099E+03  0.84635115365E+03  0.00000000000E+00 0.  1.
         21    1    1    2  502  501 -0.96456615548E+01 -0.14126033019E+02 -0.30694189188E+02  0.35138537898E+02  0.00000000000E+00 0.  1.
<mgrwt>
<rscale>  1 0.30000000E+03</rscale>
<asrwt>0</asrwt>
<pdfrwt beam="1">  1        1 0.11311308E+00 0.30000000E+03</pdfrwt>
<pdfrwt beam="2">0</pdfrwt>
<totfact> 0.28477745E+01</totfact>
</mgrwt>
</event>
<event>
 6    1  0.1950139E-004  0.3000000E+03  0.7818608E-02  0.1093470E+00
          1   -1    0    0  502    0  0.00000000000E+00  0.00000000000E+00  0.29309946051E+02  0.29309946051E+02  0.00000000000E+00 0.  1.
         13   -1    0    0    0    0 -0.00000000000E+00 -0.00000000000E+00 -0.10000000000E+04  0.10000000000E+04  0.00000000000E+00 0.  1.
    9000005    2    1    2  501    0  0.76608285348E+01  0.64110550420E+01 -0.96685676306E+03  0.10186102246E+04  0.32039818884E+03 0.  0.
         13    1    3    3    0    0 -0.16543702414E+02  0.53340465564E+02 -0.58486492861E+01  0.56152524917E+02  0.00000000000E+00 0.  1.
          3    1    3    3  501    0  0.24204530949E+02 -0.46929410522E+02 -0.96100811378E+03  0.96245769966E+03  0.00000000000E+00 0.  1.
         21    1    1    2  502  501 -0.76608285348E+01 -0.64110550420E+01 -0.38332908863E+01  0.10699721473E+02  0.00000000000E+00 0.  1.
<mgrwt>
<rscale>  1 0.30000000E+03</rscale>
<asrwt>0</asrwt>
<pdfrwt beam="1">  1        1 0.10658185E+00 0.30000000E+03</pdfrwt>
<pdfrwt beam="2">0</pdfrwt>
<totfact> 0.31151374E+01</totfact>
</mgrwt>
</event>
<event>
 6    1  0.1950139E-004  0.3000000E+03  0.7818608E-02  0.1093470E+00
          1   -1    0    0  502    0  0.00000000000E+00  0.00000000000E+00  0.38572409706E+02  0.38572409706E+02  0.00000000000E+00 0.  1.
         13   -1    0    0    0    0 -0.00000000000E+00 -0.00000000000E+00 -0.10000000000E+04  0.10000000000E+04  0.00000000000E+00 0.  1.
    9000005    2    1    2  501    0 -0.20864676069E+02 -0.15457907807E+02 -0.93022318198E+03  0.99797688385E+03  0.36051131853E+03 0.  0.
         13    1    3    3    0    0 -0.13253659062E+03  0.27155696757E+02 -0.83296543096E+03  0.84388079069E+03  0.00000000000E+00 0.  1.
          3    1    3    3  501    0  0.11167191455E+03 -0.42613604565E+02 -0.97257751014E+02  0.15409609316E+03  0.00000000000E+00 0.  1.
         21    1    1    2  502  501  0.20864676069E+02  0.15457907807E+02 -0.31204408315E+02  0.40595525857E+02  0.00000000000E+00 0.  1.
<mgrwt>
<rscale>  1 0.30000000E+03</rscale>
<asrwt>0</asrwt>
<pdfrwt beam="1">  1        1 0.14026360E+00 0.30000000E+03</pdfrwt>
<pdfrwt beam="2">0</pdfrwt>
<totfact> 0.20167968E+01</totfact>
</mgrwt>
</event>
<event>
 6    1  0.1950139E-004  0.3000000E+03  0.7818608E-02  0.1093470E+00
          1   -1    0    0  502    0  0.00000000000E+00  0.00000000000E+00  0.34059417934E+02  0.34059417934E+02  0.00000000000E+00 0.  1.
         13   -1    0    0    0    0 -0.00000000000E+00 -0.00000000000E+00 -0.10000000000E+04  0.10000000000E+04  0.00000000000E+00 0.  1.
    9000005    2    1    2  501    0  0.17072572084E+02 -0.17387383629E+02 -0.95365926493E+03  0.10067716079E+04  0.32175966655E+03 0.  0.
         13    1    3    3    0    0 -0.45621118141E+02 -0.15859283406E+03 -0.56246478810E+03  0.58617370402E+03  0.00000000000E+00 0.  1.
          1    1    3    3  501    0  0.62693690225E+02  0.14120545043E+03 -0.39119447683E+03  0.42059790386E+03  0.00000000000E+00 0.  1.
         21    1    1    2  502  501 -0.17072572084E+02  0.17387383629E+02 -0.12281317135E+02  0.27287810055E+02  0.00000000000E+00 0.  1.
<mgrwt>
<rscale>  1 0.30000000E+03</rscale>
<asrwt>0</asrwt>
<pdfrwt beam="1">  1        1 0.12385269E+00 0.30000000E+03</pdfrwt>
<pdfrwt beam="2">0</pdfrwt>
<totfact> 0.24734230E+01</totfact>
</mgrwt>
</event>
<event>
 6    1  0.1950139E-004  0.3000000E+03  0.7818608E-02  0.1093470E+00
          1   -1    0    0  502    0  0.00000000000E+00  0.00000000000E+00  0.48446754718E+02  0.48446754718E+02  0.00000000000E+00 0.  1.
         13   -1    0    0    0    0 -0.00000000000E+00 -0.00000000000E+00 -0.10000000000E+04  0.10000000000E+04  0.00000000000E+00 0.  1.
    9000005    2    1    2  501    0  0.97532688217E+02 -0.29616650767E+02 -0.76109086106E+03  0.83242432284E+03  0.32137389935E+03 0.  0.
         13    1    3    3    0    0  0.37666153651E+02 -0.17498271960E+03 -0.37390997732E+03  0.41454355914E+03  0.00000000000E+00 0.  1.
          1    1    3    3  501    0  0.59866534566E+02  0.14536606883E+03 -0.38718088375E+03  0.41788076369E+03  0.00000000000E+00 0.  1.
         21    1    1    2  502  501 -0.97532688217E+02  0.29616650767E+02 -0.19046238422E+03  0.21602243188E+03  0.00000000000E+00 0.  1.
<mgrwt>
<rscale>  1 0.30000000E+03</rscale>
<asrwt>0</asrwt>
<pdfrwt beam="1">  1        1 0.17617039E+00 0.30000000E+03</pdfrwt>
<pdfrwt beam="2">0</pdfrwt>
<totfact> 0.13332174E+01</totfact>
</mgrwt>
</event>
<event>
 6    1  0.1950139E-004  0.3000000E+03  0.7818608E-02  0.1093470E+00
          3   -1    0    0  502    0  0.00000000000E+00  0.00000000000E+00  0.28132374904E+02  0.28132374904E+02  0.00000000000E+00 0.  1.
         13   -1    0    0    0    0 -0.00000000000E+00 -0.00000000000E+00 -0.10000000000E+04  0.10000000000E+04  0.00000000000E+00 0.  1.
    9000005    2    1    2  501    0  0.93608113454E+01 -0.43623051758E+01 -0.96467784031E+03  0.10155487546E+04  0.31722118911E+03 0.  0.
         13    1    3    3    0    0  0.11774374455E+03 -0.14403379305E+02 -0.84693645353E+03  0.85520313554E+03  0.00000000000E+00 0.  1.
          1    1    3    3  501    0 -0.10838293321E+03  0.10041074129E+02 -0.11774138678E+03  0.16034561903E+03  0.00000000000E+00 0.  1.
         21    1    1    2  502  501 -0.93608113454E+01  0.43623051758E+01 -0.71897847809E+01  0.12583620333E+02  0.00000000000E+00 0.  1.
<mgrwt>
<rscale>  1 0.30000000E+03</rscale>
<asrwt>0</asrwt>
<pdfrwt beam="1">  1        3 0.10229976E+00 0.30000000E+03</pdfrwt>
<pdfrwt beam="2">0</pdfrwt>
<totfact> 0.36877783E+00</totfact>
</mgrwt>
</event>
<event>
 6    1  0.1950139E-004  0.3000000E+03  0.7818608E-02  0.1093470E+00
          1   -1    0    0  502    0  0.00000000000E+00  0.00000000000E+00  0.54150497374E+02  0.54150497374E+02  0.00000000000E+00 0.  1.
         13   -1    0    0    0    0 -0.00000000000E+00 -0.00000000000E+00 -0.10000000000E+04  0.10000000000E+04  0.00000000000E+00 0.  1.
    9000005    2    1    2  501    0  0.19401622646E+01  0.86951131282E+02 -0.89063901810E+03  0.95113369747E+03  0.32226260478E+03 0.  0.
         13    1    3    3    0    0  0.85878981970E+02 -0.70448668913E+02 -0.13549168944E+03  0.17520334586E+03  0.00000000000E+00 0.  1.
          3    1    3    3  501    0 -0.83938819705E+02  0.15739980020E+03 -0.75514732866E+03  0.77593035161E+03  0.00000000000E+00 0.  1.
         21    1    1    2  502  501 -0.19401622646E+01 -0.86951131282E+02 -0.55210484526E+02  0.10301679990E+03  0.00000000000E+00 0.  1.
<mgrwt>
<rscale>  1 0.30000000E+03</rscale>
<asrwt>0</asrwt>
<pdfrwt beam="1">  1        1 0.19691131E+00 0.30000000E+03</pdfrwt>
<pdfrwt beam="2">0</pdfrwt>
<totfact> 0.10595949E+01</totfact>
</mgrwt>
</event>
<event>
 6    1  0.1950139E-004  0.3000000E+03  0.7818608E-02  0.1093470E+00
          1   -1    0    0  502    0  0.00000000000E+00  0.00000000000E+00  0.40183545923E+02  0.40183545923E+02  0.00000000000E+00 0.  1.
         13   -1    0    0    0    0 -0.00000000000E+00 -0.00000000000E+00 -0.10000000000E+04  0.10000000000E+04  0.00000000000E+00 0.  1.
    9000005    2    1    2  501    0 -0.22088580482E+02 -0.11634914820E+02 -0.95228724743E+03  0.10141073962E+04  0.34776361630E+03 0.  0.
         13    1    3    3    0    0 -0.32055147358E+02 -0.12394220689E+03 -0.85693397252E+03  0.86644390261E+03  0.00000000000E+00 0.  1.
          1    1    3    3  501    0  0.99665668758E+01  0.11230729207E+03 -0.95353274909E+02  0.14766349361E+03  0.00000000000E+00 0.  1.
         21    1    1    2  502  501  0.22088580482E+02  0.11634914820E+02 -0.75292066501E+01  0.26076149703E+02  0.00000000000E+00 0. -1.
<mgrwt>
<rscale>  1 0.30000000E+03</rscale>
<asrwt>0</asrwt>
<pdfrwt beam="1">  1        1 0.14612229E+00 0.30000000E+03</pdfrwt>
<pdfrwt beam="2">0</pdfrwt>
<totfact> 0.18804181E+01</totfact>
</mgrwt>
</event>
<event>
 6    1  0.1950139E-004  0.3000000E+03  0.7818608E-02  0.1093470E+00
          1   -1    0    0  502    0  0.00000000000E+00  0.00000000000E+00  0.44147609746E+02  0.44147609746E+02  0.00000000000E+00 0.  1.
         13   -1    0    0    0    0 -0.00000000000E+00 -0.00000000000E+00 -0.10000000000E+04  0.10000000000E+04  0.00000000000E+00 0.  1.
    9000005    2    1    2  501    0  0.89850834085E+01  0.64518658350E+02 -0.89475380250E+03  0.95483676816E+03  0.32693347602E+03 0.  0.
         13    1    3    3    0    0 -0.12765740579E+03 -0.49365632366E+02 -0.23932008439E+03  0.27569454421E+03  0.00000000000E+00 0.  1.
          1    1    3    3  501    0  0.13664248920E+03  0.11388429072E+03 -0.65543371811E+03  0.67914222395E+03  0.00000000000E+00 0.  1.
         21    1    1    2  502  501 -0.89850834085E+01 -0.64518658350E+02 -0.61098587756E+02  0.89310841587E+02  0.00000000000E+00 0.  1.
<mgrwt>
<rscale>  1 0.30000000E+03</rscale>
<asrwt>0</asrwt>
<pdfrwt beam="1">  1        1 0.16053710E+00 0.30000000E+03</pdfrwt>
<pdfrwt beam="2">0</pdfrwt>
<totfact> 0.15905078E+01</totfact>
</mgrwt>
</event>
<event>
 6    1  0.1950139E-004  0.3000000E+03  0.7818608E-02  0.1093470E+00
          1   -1    0    0  502    0  0.00000000000E+00  0.00000000000E+00  0.51220905706E+02  0.51220905706E+02  0.00000000000E+00 0.  1.
         13   -1    0    0    0    0 -0.00000000000E+00 -0.00000000000E+00 -0.10000000000E+04  0.10000000000E+04  0.00000000000E+00 0.  1.
    9000005    2    1    2  501    0  0.49912227979E+02  0.53567344351E+02 -0.90880868576E+03  0.96780433397E+03  0.32457866635E+03 0.  0.
         13    1    3    3    0    0  0.13688786717E+03 -0.37672898707E+01 -0.15498180636E+03  0.20681354151E+03  0.00000000000E+00 0.  1.
          1    1    3    3  501    0 -0.86975639187E+02  0.57334634222E+02 -0.75382687940E+03  0.76099079245E+03  0.00000000000E+00 0.  1.
         21    1    1    2  502  501 -0.49912227979E+02 -0.53567344351E+02 -0.39970408534E+02  0.83416571741E+02  0.00000000000E+00 0.  1.
<mgrwt>
<rscale>  1 0.30000000E+03</rscale>
<asrwt>0</asrwt>
<pdfrwt beam="1">  1        1 0.18625823E+00 0.30000000E+03</pdfrwt>
<pdfrwt beam="2">0</pdfrwt>
<totfact> 0.11917192E+01</totfact>
</mgrwt>
</event>
<event>
 6    1  0.1950139E-004  0.3000000E+03  0.7818608E-02  0.1093470E+00
          1   -1    0    0  502    0  0.00000000000E+00  0.00000000000E+00  0.42852677973E+02  0.42852677973E+02  0.00000000000E+00 0.  1.
         13   -1    0    0    0    0 -0.00000000000E+00 -0.00000000000E+00 -0.10000000000E+04  0.10000000000E+04  0.00000000000E+00 0.  1.
    9000005    2    1    2  501    0  0.73736031576E+01 -0.10169617357E+02 -0.97255931262E+03  0.10229700073E+04  0.31691990795E+03 0.  0.
         13    1    3    3    0    0  0.84150007173E+02 -0.12834038823E+03 -0.69432384874E+03  0.71108233411E+03  0.00000000000E+00 0.  1.
          1    1    3    3  501    0 -0.76776404016E+02  0.11817077087E+03 -0.27823546387E+03  0.31188767315E+03  0.00000000000E+00 0.  1.
         21    1    1    2  502  501 -0.73736031576E+01  0.10169617357E+02  0.15411990589E+02  0.19882670712E+02  0.00000000000E+00 0. -1.
<mgrwt>
<rscale>  1 0.30000000E+03</rscale>
<asrwt>0</asrwt>
<pdfrwt beam="1">  1        1 0.15582825E+00 0.30000000E+03</pdfrwt>
<pdfrwt beam="2">0</pdfrwt>
<totfact> 0.16788585E+01</totfact>
</mgrwt>
</event>
<event>
 6    1  0.1950139E-004  0.3000000E+03  0.7818608E-02  0.1093470E+00
          1   -1    0    0  502    0  0.00000000000E+00  0.00000000000E+00  0.33593300625E+02  0.33593300625E+02  0.00000000000E+00 0.  1.
         13   -1    0    0    0    0 -0.00000000000E+00 -0.00000000000E+00 -0.10000000000E+04  0.10000000000E+04  0.00000000000E+00 0.  1.
    9000005    2    1    2  501    0 -0.14218744288E+02 -0.18138191807E+00 -0.96770871567E+03  0.10193139157E+04  0.31990388352E+03 0.  0.
         13    1    3    3    0    0 -0.74875926558E+02  0.13863985376E+03 -0.62605207505E+03  0.64557618769E+03  0.00000000000E+00 0.  1.
          3    1    3    3  501    0  0.60657182269E+02 -0.13882123568E+03 -0.34165664062E+03  0.37373772797E+03  0.00000000000E+00 0.  1.
         21    1    1    2  502  501  0.14218744288E+02  0.18138191807E+00  0.13020162937E+01  0.14279384964E+02  0.00000000000E+00 0.  1.
<mgrwt>
<rscale>  1 0.30000000E+03</rscale>
<asrwt>0</asrwt>
<pdfrwt beam="1">  1        1 0.12215771E+00 0.30000000E+03</pdfrwt>
<pdfrwt beam="2">0</pdfrwt>
<totfact> 0.25279193E+01</totfact>
</mgrwt>
</event>
<event>
 6    1  0.1950139E-004  0.3000000E+03  0.7818608E-02  0.1093470E+00
          1   -1    0    0  502    0  0.00000000000E+00  0.00000000000E+00  0.32200917836E+02  0.32200917836E+02  0.00000000000E+00 0.  1.
         13   -1    0    0    0    0 -0.00000000000E+00 -0.00000000000E+00 -0.10000000000E+04  0.10000000000E+04  0.00000000000E+00 0.  1.
    9000005    2    1    2  501    0 -0.13335484789E+02 -0.27245055596E+01 -0.96490714002E+03  0.10182861266E+04  0.32507781949E+03 0.  0.
         13    1    3    3    0    0  0.79767105466E+02 -0.36450626421E+02 -0.88951833790E+03  0.89383125518E+03  0.00000000000E+00 0.  1.
          1    1    3    3  501    0 -0.93102590254E+02  0.33726120862E+02 -0.75388802126E+02  0.12445487145E+03  0.00000000000E+00 0.  1.
         21    1    1    2  502  501  0.13335484789E+02  0.27245055596E+01 -0.28919421403E+01  0.13914791211E+02  0.00000000000E+00 0. -1.
<mgrwt>
<rscale>  1 0.30000000E+03</rscale>
<asrwt>0</asrwt>
<pdfrwt beam="1">  1        1 0.11709449E+00 0.30000000E+03</pdfrwt>
<pdfrwt beam="2">0</pdfrwt>
<totfact> 0.27005087E+01</totfact>
</mgrwt>
</event>
<event>
 6    1  0.1950139E-004  0.3000000E+03  0.7818608E-02  0.1093470E+00
          1   -1    0    0  502    0  0.00000000000E+00  0.00000000000E+00  0.27532383897E+02  0.27532383897E+02  0.00000000000E+00 0.  1.
         13   -1    0    0    0    0 -0.00000000000E+00 -0.00000000000E+00 -0.10000000000E+04  0.10000000000E+04  0.00000000000E+00 0.  1.
    9000005    2    1    2  501    0 -0.99402894870E+01 -0.37563631619E+01 -0.96255651542E+03  0.10130013985E+04  0.31550573435E+03 0.  0.
         13    1    3    3    0    0 -0.10659422312E+03 -0.10527507487E+03 -0.29471922199E+03  0.33061244623E+03  0.00000000000E+00 0.  1.
          1    1    3    3  501    0  0.96653933631E+02  0.10151871171E+03 -0.66783729343E+03  0.68238895229E+03  0.00000000000E+00 0.  1.
         21    1    1    2  502  501  0.99402894870E+01  0.37563631619E+01 -0.99111006795E+01  0.14530985375E+02  0.00000000000E+00 0.  1.
<mgrwt>
<rscale>  1 0.30000000E+03</rscale>
<asrwt>0</asrwt>
<pdfrwt beam="1">  1        1 0.10011797E+00 0.30000000E+03</pdfrwt>
<pdfrwt beam="2">0</pdfrwt>
<totfact> 0.34167987E+01</totfact>
</mgrwt>
</event>
<event>
 6    1  0.1950139E-004  0.3000000E+03  0.7818608E-02  0.1093470E+00
          1   -1    0    0  502    0  0.00000000000E+00  0.00000000000E+00  0.29419292173E+02  0.29419292173E+02  0.00000000000E+00 0.  1.
         13   -1    0    0    0    0 -0.00000000000E+00 -0.00000000000E+00 -0.10000000000E+04  0.10000000000E+04  0.00000000000E+00 0.  1.
    9000005    2    1    2  501    0  0.45105677447E+01  0.87001677476E+01 -0.96020411293E+03  0.10151465257E+04  0.32929392961E+03 0.  0.
         13    1    3    3    0    0  0.12283415349E+03 -0.79405302328E+02 -0.24880803122E+03  0.28861543219E+03  0.00000000000E+00 0.  1.
          1    1    3    3  501    0 -0.11832358575E+03  0.88105470076E+02 -0.71139608171E+03  0.72653109354E+03  0.00000000000E+00 0.  1.
         21    1    1    2  502  501 -0.45105677447E+01 -0.87001677476E+01 -0.10376594899E+02  0.14272766443E+02  0.00000000000E+00 0.  1.
<mgrwt>
<rscale>  1 0.30000000E+03</rscale>
<asrwt>0</asrwt>
<pdfrwt beam="1">  1        1 0.10697947E+00 0.30000000E+03</pdfrwt>
<pdfrwt beam="2">0</pdfrwt>
<totfact> 0.30978578E+01</totfact>
</mgrwt>
</event>
<event>
 6    1  0.1950139E-004  0.3000000E+03  0.7818608E-02  0.1093470E+00
          1   -1    0    0  502    0  0.00000000000E+00  0.00000000000E+00  0.25630498371E+02  0.25630498371E+02  0.00000000000E+00 0.  1.
         13   -1    0    0    0    0 -0.00000000000E+00 -0.00000000000E+00 -0.10000000000E+04  0.10000000000E+04  0.00000000000E+00 0.  1.
    9000005    2    1    2  501    0  0.84173450227E+01  0.34092504362E+01 -0.95898785158E+03  0.10077679721E+04  0.30960638151E+03 0.  0.
         13    1    3    3    0    0 -0.43411350000E+02  0.14875148275E+03 -0.50842785591E+03  0.53151710565E+03  0.00000000000E+00 0.  1.
          1    1    3    3  501    0  0.51828695023E+02 -0.14534223231E+03 -0.45055999567E+03  0.47625086648E+03  0.00000000000E+00 0.  1.
         21    1    1    2  502  501 -0.84173450227E+01 -0.34092504362E+01 -0.15381650045E+02  0.17862526246E+02  0.00000000000E+00 0.  1.
<mgrwt>
<rscale>  1 0.30000000E+03</rscale>
<asrwt>0</asrwt>
<pdfrwt beam="1">  1        1 0.93202009E-01 0.30000000E+03</pdfrwt>
<pdfrwt beam="2">0</pdfrwt>
<totfact> 0.37896569E+01</totfact>
</mgrwt>
</event>
<event>
 6    1  0.1950139E-004  0.3000000E+03  0.7818608E-02  0.1093470E+00
          1   -1    0    0  502    0  0.00000000000E+00  0.00000000000E+00  0.29531982692E+02  0.29531982692E+02  0.00000000000E+00 0.  1.
         13   -1    0    0    0    0 -0.00000000000E+00 -0.00000000000E+00 -0.10000000000E+04  0.10000000000E+04  0.00000000000E+00 0.  1.
    9000005    2    1    2  501    0 -0.14787822944E+01 -0.95568230069E+01 -0.95539550199E+03  0.10116238733E+04  0.33242860316E+03 0.  0.
         13    1    3    3    0    0 -0.15387721809E+03 -0.35335301512E+02 -0.30890593240E+03  0.34691448060E+03  0.00000000000E+00 0.  1.
          1    1    3    3  501    0  0.15239843579E+03  0.25778478505E+02 -0.64648956958E+03  0.66470939272E+03  0.00000000000E+00 0.  1.
         21    1    1    2  502  501  0.14787822944E+01  0.95568230069E+01 -0.15072515322E+02  0.17908109370E+02  0.00000000000E+00 0. -1.
<mgrwt>
<rscale>  1 0.30000000E+03</rscale>
<asrwt>0</asrwt>
<pdfrwt beam="1">  1        1 0.10738925E+00 0.30000000E+03</pdfrwt>
<pdfrwt beam="2">0</pdfrwt>
<totfact> 0.30801934E+01</totfact>
</mgrwt>
</event>
<event>
 6    1  0.1950139E-004  0.3000000E+03  0.7818608E-02  0.1093470E+00
          1   -1    0    0  502    0  0.00000000000E+00  0.00000000000E+00  0.33853050299E+02  0.33853050299E+02  0.00000000000E+00 0.  1.
         13   -1    0    0    0    0 -0.00000000000E+00 -0.00000000000E+00 -0.10000000000E+04  0.10000000000E+04  0.00000000000E+00 0.  1.
    9000005    2    1    2  501    0 -0.11411008516E+02 -0.13225073519E+02 -0.96349123184E+03  0.10161848155E+04  0.32250753737E+03 0.  0.
         13    1    3    3    0    0 -0.84133431020E+02  0.19654608630E+02 -0.51242636420E+02  0.10045170801E+03  0.00000000000E+00 0.  1.
          3    1    3    3  501    0  0.72722422504E+02 -0.32879682149E+02 -0.91224859542E+03  0.91573310745E+03  0.00000000000E+00 0.  1.
         21    1    1    2  502  501  0.11411008516E+02  0.13225073519E+02 -0.26557178640E+01  0.17668234838E+02  0.00000000000E+00 0. -1.
<mgrwt>
<rscale>  1 0.30000000E+03</rscale>
<asrwt>0</asrwt>
<pdfrwt beam="1">  1        1 0.12310226E+00 0.30000000E+03</pdfrwt>
<pdfrwt beam="2">0</pdfrwt>
<totfact> 0.24973598E+01</totfact>
</mgrwt>
</event>
<event>
 6    1  0.1950139E-004  0.3000000E+03  0.7818608E-02  0.1093470E+00
          1   -1    0    0  502    0  0.00000000000E+00  0.00000000000E+00  0.35593789896E+02  0.35593789896E+02  0.00000000000E+00 0.  1.
         13   -1    0    0    0    0 -0.00000000000E+00 -0.00000000000E+00 -0.10000000000E+04  0.10000000000E+04  0.00000000000E+00 0.  1.
    9000005    2    1    2  501    0 -0.48933758144E+01  0.29728570716E+02 -0.93702784573E+03  0.99488374348E+03  0.33296358107E+03 0.  0.
         13    1    3    3    0    0  0.59320711203E+02 -0.12032620807E+03 -0.20582114322E+03  0.24568208344E+03  0.00000000000E+00 0.  1.
          3    1    3    3  501    0 -0.64214087017E+02  0.15005477879E+03 -0.73120670251E+03  0.74920166004E+03  0.00000000000E+00 0.  1.
         21    1    1    2  502  501  0.48933758144E+01 -0.29728570716E+02 -0.27378364376E+02  0.40710046421E+02  0.00000000000E+00 0.  1.
<mgrwt>
<rscale>  1 0.30000000E+03</rscale>
<asrwt>0</asrwt>
<pdfrwt beam="1">  1        1 0.12943224E+00 0.30000000E+03</pdfrwt>
<pdfrwt beam="2">0</pdfrwt>
<totfact> 0.23043398E+01</totfact>
</mgrwt>
</event>
<event>
 6    1  0.1950139E-004  0.3000000E+03  0.7818608E-02  0.1093470E+00
          1   -1    0    0  502    0  0.00000000000E+00  0.00000000000E+00  0.30281638897E+02  0.30281638897E+02  0.00000000000E+00 0.  1.
         13   -1    0    0    0    0 -0.00000000000E+00 -0.00000000000E+00 -0.10000000000E+04  0.10000000000E+04  0.00000000000E+00 0.  1.
    9000005    2    1    2  501    0  0.51664686229E+00 -0.12844665943E+02 -0.94791005647E+03  0.10049665344E+04  0.33355510436E+03 0.  0.
         13    1    3    3    0    0  0.81197286328E+02 -0.15223332715E+03 -0.47225723666E+03  0.50278711477E+03  0.00000000000E+00 0.  1.
          1    1    3    3  501    0 -0.80680639466E+02  0.13938866121E+03 -0.47565281981E+03  0.50217941958E+03  0.00000000000E+00 0.  1.
         21    1    1    2  502  501 -0.51664686229E+00  0.12844665943E+02 -0.21808304631E+02  0.25315104543E+02  0.00000000000E+00 0. -1.
<mgrwt>
<rscale>  1 0.30000000E+03</rscale>
<asrwt>0</asrwt>
<pdfrwt beam="1">  1        1 0.11011528E+00 0.30000000E+03</pdfrwt>
<pdfrwt beam="2">0</pdfrwt>
<totfact> 0.29662689E+01</totfact>
</mgrwt>
</event>
<event>
 6    1  0.1950139E-004  0.3000000E+03  0.7818608E-02  0.1093470E+00
          1   -1    0    0  502    0  0.00000000000E+00  0.00000000000E+00  0.38583571742E+02  0.38583571742E+02  0.00000000000E+00 0.  1.
         13   -1    0    0    0    0 -0.00000000000E+00 -0.00000000000E+00 -0.10000000000E+04  0.10000000000E+04  0.00000000000E+00 0.  1.
    9000005    2    1    2  501    0  0.92521946204E+01  0.52927354307E+01 -0.97086332496E+03  0.10243406784E+04  0.32647299046E+03 0.  0.
         13    1    3    3    0    0 -0.26821850097E+02 -0.13260672368E+03 -0.20699532256E+03  0.24728731947E+03  0.00000000000E+00 0.  1.
          1    1    3    3  501    0  0.36074044718E+02  0.13789945911E+03 -0.76386800240E+03  0.77705335892E+03  0.00000000000E+00 0.  1.
         21    1    1    2  502  501 -0.92521946204E+01 -0.52927354307E+01  0.94468967051E+01  0.14242893350E+02  0.00000000000E+00 0.  1.
<mgrwt>
<rscale>  1 0.30000000E+03</rscale>
<asrwt>0</asrwt>
<pdfrwt beam="1">  1        1 0.14030419E+00 0.30000000E+03</pdfrwt>
<pdfrwt beam="2">0</pdfrwt>
<totfact> 0.20158096E+01</totfact>
</mgrwt>
</event>
<event>
 6    1  0.1950139E-004  0.3000000E+03  0.7818608E-02  0.1093470E+00
          1   -1    0    0  502    0  0.00000000000E+00  0.00000000000E+00  0.28991762406E+02  0.28991762406E+02  0.00000000000E+00 0.  1.
         13   -1    0    0    0    0 -0.00000000000E+00 -0.00000000000E+00 -0.10000000000E+04  0.10000000000E+04  0.00000000000E+00 0.  1.
    9000005    2    1    2  501    0  0.81128176635E+01  0.79617695696E+01 -0.95111618388E+03  0.10060810360E+04  0.32779238567E+03 0.  0.
         13    1    3    3    0    0 -0.12433413542E+01  0.10848061317E+03 -0.86955747308E+03  0.87629891494E+03  0.00000000000E+00 0.  1.
          3    1    3    3  501    0  0.93561590177E+01 -0.10051884361E+03 -0.81558710807E+02  0.12978212103E+03  0.00000000000E+00 0.  1.
         21    1    1    2  502  501 -0.81128176635E+01 -0.79617695696E+01 -0.19892053709E+02  0.22910726438E+02  0.00000000000E+00 0.  1.
<mgrwt>
<rscale>  1 0.30000000E+03</rscale>
<asrwt>0</asrwt>
<pdfrwt beam="1">  1        1 0.10542481E+00 0.30000000E+03</pdfrwt>
<pdfrwt beam="2">0</pdfrwt>
<totfact> 0.31662154E+01</totfact>
</mgrwt>
</event>
<event>
 6    1  0.1950139E-004  0.3000000E+03  0.7818608E-02  0.1093470E+00
          1   -1    0    0  502    0  0.00000000000E+00  0.00000000000E+00  0.29786919903E+02  0.29786919903E+02  0.00000000000E+00 0.  1.
         13   -1    0    0    0    0 -0.00000000000E+00 -0.00000000000E+00 -0.10000000000E+04  0.10000000000E+04  0.00000000000E+00 0.  1.
    9000005    2    1    2  501    0 -0.19579561465E+02  0.13290584255E+02 -0.91455959646E+03  0.96931122976E+03  0.32028894113E+03 0.  0.
         13    1    3    3    0    0  0.85940648707E+02 -0.80722493084E+02 -0.71570462534E+03  0.72535165729E+03  0.00000000000E+00 0.  1.
          3    1    3    3  501    0 -0.10552021017E+03  0.94013077339E+02 -0.19885497111E+03  0.24395957247E+03  0.00000000000E+00 0.  1.
         21    1    1    2  502  501  0.19579561465E+02 -0.13290584255E+02 -0.55653483641E+02  0.60475690144E+02  0.00000000000E+00 0.  1.
<mgrwt>
<rscale>  1 0.30000000E+03</rscale>
<asrwt>0</asrwt>
<pdfrwt beam="1">  1        1 0.10831630E+00 0.30000000E+03</pdfrwt>
<pdfrwt beam="2">0</pdfrwt>
<totfact> 0.30407606E+01</totfact>
</mgrwt>
</event>
<event>
 6    1  0.1950139E-004  0.3000000E+03  0.7818608E-02  0.1093470E+00
          3   -1    0    0  502    0  0.00000000000E+00  0.00000000000E+00  0.30066153594E+02  0.30066153594E+02  0.00000000000E+00 0.  1.
         13   -1    0    0    0    0 -0.00000000000E+00 -0.00000000000E+00 -0.10000000000E+04  0.10000000000E+04  0.00000000000E+00 0.  1.
    9000005    2    1    2  501    0  0.47242414569E+01 -0.10035875810E+02 -0.91644939587E+03  0.97544359681E+03  0.33389770605E+03 0.  0.
         13    1    3    3    0    0  0.31854459459E+01 -0.16898610087E+03 -0.56456318134E+03  0.58931997682E+03  0.00000000000E+00 0.  1.
          3    1    3    3  501    0  0.15387955110E+01  0.15895022506E+03 -0.35188621453E+03  0.38612361999E+03  0.00000000000E+00 0.  1.
         21    1    1    2  502  501 -0.47242414569E+01  0.10035875810E+02 -0.53484450538E+02  0.54622556787E+02  0.00000000000E+00 0.  1.
<mgrwt>
<rscale>  1 0.30000000E+03</rscale>
<asrwt>0</asrwt>
<pdfrwt beam="1">  1        3 0.10933170E+00 0.30000000E+03</pdfrwt>
<pdfrwt beam="2">0</pdfrwt>
<totfact> 0.30669369E+00</totfact>
</mgrwt>
</event>
<event>
 6    1  0.1950139E-004  0.3000000E+03  0.7818608E-02  0.1093470E+00
          1   -1    0    0  502    0  0.00000000000E+00  0.00000000000E+00  0.33945548781E+02  0.33945548781E+02  0.00000000000E+00 0.  1.
         13   -1    0    0    0    0 -0.00000000000E+00 -0.00000000000E+00 -0.10000000000E+04  0.10000000000E+04  0.00000000000E+00 0.  1.
    9000005    2    1    2  501    0 -0.12249615178E+02 -0.12255772271E+02 -0.95930993911E+03  0.10153513166E+04  0.33220848856E+03 0.  0.
         13    1    3    3    0    0  0.11704340703E+02 -0.16501415831E+03 -0.63300245035E+03  0.65426200118E+03  0.00000000000E+00 0.  1.
          3    1    3    3  501    0 -0.23953955881E+02  0.15275838604E+03 -0.32630748875E+03  0.36108931544E+03  0.00000000000E+00 0.  1.
         21    1    1    2  502  501  0.12249615178E+02  0.12255772271E+02 -0.67445121127E+01  0.18594232160E+02  0.00000000000E+00 0. -1.
<mgrwt>
<rscale>  1 0.30000000E+03</rscale>
<asrwt>0</asrwt>
<pdfrwt beam="1">  1        1 0.12343862E+00 0.30000000E+03</pdfrwt>
<pdfrwt beam="2">0</pdfrwt>
<totfact> 0.24865938E+01</totfact>
</mgrwt>
</event>
<event>
 6    1  0.1950139E-004  0.3000000E+03  0.7818608E-02  0.1093470E+00
          3   -1    0    0  502    0  0.00000000000E+00  0.00000000000E+00  0.29502647355E+02  0.29502647355E+02  0.00000000000E+00 0.  1.
         13   -1    0    0    0    0 -0.00000000000E+00 -0.00000000000E+00 -0.10000000000E+04  0.10000000000E+04  0.00000000000E+00 0.  1.
    9000005    2    1    2  501    0 -0.10495678912E+02 -0.21047901707E+02 -0.91366379892E+03  0.96799471071E+03  0.31887152436E+03 0.  0.
         13    1    3    3    0    0  0.11946288749E+03  0.86631923281E+02 -0.49706391971E+03  0.51850652060E+03  0.00000000000E+00 0.  1.
          3    1    3    3  501    0 -0.12995856640E+03 -0.10767982499E+03 -0.41659987921E+03  0.44948819011E+03  0.00000000000E+00 0.  1.
         21    1    1    2  502  501  0.10495678912E+02  0.21047901707E+02 -0.56833553723E+02  0.61507936649E+02  0.00000000000E+00 0.  1.
<mgrwt>
<rscale>  1 0.30000000E+03</rscale>
<asrwt>0</asrwt>
<pdfrwt beam="1">  1        3 0.10728258E+00 0.30000000E+03</pdfrwt>
<pdfrwt beam="2">0</pdfrwt>
<totfact> 0.32362626E+00</totfact>
</mgrwt>
</event>
<event>
 6    1  0.1950139E-004  0.3000000E+03  0.7818608E-02  0.1093470E+00
          1   -1    0    0  502    0  0.00000000000E+00  0.00000000000E+00  0.28593309634E+02  0.28593309634E+02  0.00000000000E+00 0.  1.
         13   -1    0    0    0    0 -0.00000000000E+00 -0.00000000000E+00 -0.10000000000E+04  0.10000000000E+04  0.00000000000E+00 0.  1.
    9000005    2    1    2  501    0 -0.80717565079E+01  0.27720454749E+02 -0.96308520781E+03  0.99854628089E+03  0.26216021952E+03 0.  0.
         13    1    3    3    0    0  0.57318343722E+02  0.80508149167E+02 -0.14105116786E+03  0.17222771718E+03  0.00000000000E+00 0.  1.
          1    1    3    3  501    0 -0.65390100230E+02 -0.52787694419E+02 -0.82203403995E+03  0.82631856371E+03  0.00000000000E+00 0.  1.
         21    1    1    2  502  501  0.80717565079E+01 -0.27720454749E+02 -0.83214825514E+01  0.30047028746E+02  0.00000000000E+00 0.  1.
<mgrwt>
<rscale>  1 0.30000000E+03</rscale>
<asrwt>0</asrwt>
<pdfrwt beam="1">  1        1 0.10397589E+00 0.30000000E+03</pdfrwt>
<pdfrwt beam="2">0</pdfrwt>
<totfact> 0.32319030E+01</totfact>
</mgrwt>
</event>
<event>
 6    1  0.1950139E-004  0.3000000E+03  0.7818608E-02  0.1093470E+00
          1   -1    0    0  502    0  0.00000000000E+00  0.00000000000E+00  0.48738091221E+02  0.48738091221E+02  0.00000000000E+00 0.  1.
         13   -1    0    0    0    0 -0.00000000000E+00 -0.00000000000E+00 -0.10000000000E+04  0.10000000000E+04  0.00000000000E+00 0.  1.
    9000005    2    1    2  501    0 -0.16727877499E+02 -0.14714407550E+02 -0.96209822121E+03  0.10239638840E+04  0.34981811397E+03 0.  0.
         13    1    3    3    0    0 -0.13098912031E+03  0.10533152032E+03 -0.32793784449E+03  0.36850523560E+03  0.00000000000E+00 0.  1.
          3    1    3    3  501    0  0.11426124281E+03 -0.12004592787E+03 -0.63416037671E+03  0.65545864843E+03  0.00000000000E+00 0.  1.
         21    1    1    2  502  501  0.16727877499E+02  0.14714407550E+02  0.10836312427E+02  0.24774207196E+02  0.00000000000E+00 0.  1.
<mgrwt>
<rscale>  1 0.30000000E+03</rscale>
<asrwt>0</asrwt>
<pdfrwt beam="1">  1        1 0.17722980E+00 0.30000000E+03</pdfrwt>
<pdfrwt beam="2">0</pdfrwt>
<totfact> 0.13175287E+01</totfact>
</mgrwt>
</event>
<event>
 6    1  0.1950139E-004  0.3000000E+03  0.7818608E-02  0.1093470E+00
          1   -1    0    0  502    0  0.00000000000E+00  0.00000000000E+00  0.31608710037E+02  0.31608710037E+02  0.00000000000E+00 0.  1.
         13   -1    0    0    0    0 -0.00000000000E+00 -0.00000000000E+00 -0.10000000000E+04  0.10000000000E+04  0.00000000000E+00 0.  1.
    9000005    2    1    2  501    0 -0.84010682495E+01 -0.58735751979E+01 -0.95576758831E+03  0.10153472625E+04  0.34253949221E+03 0.  0.
         13    1    3    3    0    0  0.13394209121E+03 -0.10285144717E+03 -0.42454791098E+03  0.45690243236E+03  0.00000000000E+00 0.  1.
          1    1    3    3  501    0 -0.14234315946E+03  0.96977871969E+02 -0.53121967733E+03  0.55844483011E+03  0.00000000000E+00 0.  1.
         21    1    1    2  502  501  0.84010682495E+01  0.58735751979E+01 -0.12623701657E+02  0.16261447564E+02  0.00000000000E+00 0.  1.
<mgrwt>
<rscale>  1 0.30000000E+03</rscale>
<asrwt>0</asrwt>
<pdfrwt beam="1">  1        1 0.11494101E+00 0.30000000E+03</pdfrwt>
<pdfrwt beam="2">0</pdfrwt>
<totfact> 0.27787996E+01</totfact>
</mgrwt>
</event>
<event>
 6    1  0.1950139E-004  0.3000000E+03  0.7818608E-02  0.1093470E+00
          1   -1    0    0  502    0  0.00000000000E+00  0.00000000000E+00  0.49168231911E+02  0.49168231911E+02  0.00000000000E+00 0.  1.
         13   -1    0    0    0    0 -0.00000000000E+00 -0.00000000000E+00 -0.10000000000E+04  0.10000000000E+04  0.00000000000E+00 0.  1.
    9000005    2    1    2  501    0  0.91483116980E+00 -0.25907038671E+02 -0.97754171855E+03  0.10119468265E+04  0.26033931042E+03 0.  0.
         13    1    3    3    0    0  0.11194515464E+03 -0.77270740332E+02 -0.43441684520E+03  0.45521476289E+03  0.00000000000E+00 0.  1.
          3    1    3    3  501    0 -0.11103032348E+03  0.51363701661E+02 -0.54312487335E+03  0.55673206359E+03  0.00000000000E+00 0.  1.
         21    1    1    2  502  501 -0.91483116980E+00  0.25907038671E+02  0.26709950459E+02  0.37221405431E+02  0.00000000000E+00 0.  1.
<mgrwt>
<rscale>  1 0.30000000E+03</rscale>
<asrwt>0</asrwt>
<pdfrwt beam="1">  1        1 0.17879395E+00 0.30000000E+03</pdfrwt>
<pdfrwt beam="2">0</pdfrwt>
<totfact> 0.12947304E+01</totfact>
</mgrwt>
</event>
<event>
 6    1  0.1950139E-004  0.3000000E+03  0.7818608E-02  0.1093470E+00
          1   -1    0    0  502    0  0.00000000000E+00  0.00000000000E+00  0.26305660756E+02  0.26305660756E+02  0.00000000000E+00 0.  1.
         13   -1    0    0    0    0 -0.00000000000E+00 -0.00000000000E+00 -0.10000000000E+04  0.10000000000E+04  0.00000000000E+00 0.  1.
    9000005    2    1    2  501    0  0.71663644341E-02  0.80782256495E+01 -0.95486373301E+03  0.10058154311E+04  0.31596625611E+03 0.  0.
         13    1    3    3    0    0  0.98400153896E+02 -0.11924394022E+03 -0.49776949947E+03  0.52122565379E+03  0.00000000000E+00 0.  1.
          3    1    3    3  501    0 -0.98392987531E+02  0.12732216587E+03 -0.45709423354E+03  0.48458977729E+03  0.00000000000E+00 0.  1.
         21    1    1    2  502  501 -0.71663644341E-02 -0.80782256495E+01 -0.18830606230E+02  0.20490229672E+02  0.00000000000E+00 0. -1.
<mgrwt>
<rscale>  1 0.30000000E+03</rscale>
<asrwt>0</asrwt>
<pdfrwt beam="1">  1        1 0.95657150E-01 0.30000000E+03</pdfrwt>
<pdfrwt beam="2">0</pdfrwt>
<totfact> 0.36506606E+01</totfact>
</mgrwt>
</event>
<event>
 6    1  0.1950139E-004  0.3000000E+03  0.7818608E-02  0.1093470E+00
          1   -1    0    0  502    0  0.00000000000E+00  0.00000000000E+00  0.28236806663E+02  0.28236806663E+02  0.00000000000E+00 0.  1.
         13   -1    0    0    0    0 -0.00000000000E+00 -0.00000000000E+00 -0.10000000000E+04  0.10000000000E+04  0.00000000000E+00 0.  1.
    9000005    2    1    2  501    0  0.76248408873E+01  0.41181697889E+01 -0.94371241414E+03  0.99887792837E+03  0.32724440051E+03 0.  0.
         13    1    3    3    0    0 -0.10472825929E+03  0.84760048383E+01 -0.91640819825E+02  0.13941983650E+03  0.00000000000E+00 0.  1.
          1    1    3    3  501    0  0.11235310017E+03 -0.43578350495E+01 -0.85207159431E+03  0.85945809187E+03  0.00000000000E+00 0.  1.
         21    1    1    2  502  501 -0.76248408873E+01 -0.41181697889E+01 -0.28050779198E+02  0.29358878293E+02  0.00000000000E+00 0.  1.
<mgrwt>
<rscale>  1 0.30000000E+03</rscale>
<asrwt>0</asrwt>
<pdfrwt beam="1">  1        1 0.10267951E+00 0.30000000E+03</pdfrwt>
<pdfrwt beam="2">0</pdfrwt>
<totfact> 0.32923659E+01</totfact>
</mgrwt>
</event>
<event>
 6    1  0.1950139E-004  0.3000000E+03  0.7818608E-02  0.1093470E+00
          1   -1    0    0  502    0  0.00000000000E+00  0.00000000000E+00  0.31651928361E+02  0.31651928361E+02  0.00000000000E+00 0.  1.
         13   -1    0    0    0    0 -0.00000000000E+00 -0.00000000000E+00 -0.10000000000E+04  0.10000000000E+04  0.00000000000E+00 0.  1.
    9000005    2    1    2  501    0  0.11456796697E+02  0.12519948681E+02 -0.96056318289E+03  0.10129807795E+04  0.32118596495E+03 0.  0.
         13    1    3    3    0    0 -0.16243543973E+02 -0.14822336788E+03 -0.58149235799E+03  0.60030607352E+03  0.00000000000E+00 0.  1.
          3    1    3    3  501    0  0.27700340670E+02  0.16074331656E+03 -0.37907082490E+03  0.41267470602E+03  0.00000000000E+00 0.  1.
         21    1    1    2  502  501 -0.11456796697E+02 -0.12519948681E+02 -0.77848887460E+01  0.18671148822E+02  0.00000000000E+00 0. -1.
<mgrwt>
<rscale>  1 0.30000000E+03</rscale>
<asrwt>0</asrwt>
<pdfrwt beam="1">  1        1 0.11509816E+00 0.30000000E+03</pdfrwt>
<pdfrwt beam="2">0</pdfrwt>
<totfact> 0.27729798E+01</totfact>
</mgrwt>
</event>
<event>
 6    1  0.1950139E-004  0.3000000E+03  0.7818608E-02  0.1093470E+00
          1   -1    0    0  502    0  0.00000000000E+00  0.00000000000E+00  0.65180679006E+02  0.65180679006E+02  0.00000000000E+00 0.  1.
         13   -1    0    0    0    0 -0.00000000000E+00 -0.00000000000E+00 -0.10000000000E+04  0.10000000000E+04  0.00000000000E+00 0.  1.
    9000005    2    1    2  501    0 -0.14478930714E+02 -0.25425164692E+02 -0.96169107409E+03  0.10254544969E+04  0.35475502069E+03 0.  0.
         13    1    3    3    0    0 -0.80388025319E+02 -0.12938322885E+03 -0.18766940542E+03  0.24170655815E+03  0.00000000000E+00 0.  1.
          3    1    3    3  501    0  0.65909094605E+02  0.10395806416E+03 -0.77402166867E+03  0.78374793870E+03  0.00000000000E+00 0.  1.
         21    1    1    2  502  501  0.14478930714E+02  0.25425164692E+02  0.26871753091E+02  0.39726182153E+02  0.00000000000E+00 0.  1.
<mgrwt>
<rscale>  1 0.30000000E+03</rscale>
<asrwt>0</asrwt>
<pdfrwt beam="1">  1        1 0.23702115E+00 0.30000000E+03</pdfrwt>
<pdfrwt beam="2">0</pdfrwt>
<totfact> 0.68609760E+00</totfact>
</mgrwt>
</event>
<event>
 6    1  0.1950139E-004  0.3000000E+03  0.7818608E-02  0.1093470E+00
          1   -1    0    0  502    0  0.00000000000E+00  0.00000000000E+00  0.40802375978E+02  0.40802375978E+02  0.00000000000E+00 0.  1.
         13   -1    0    0    0    0 -0.00000000000E+00 -0.00000000000E+00 -0.10000000000E+04  0.10000000000E+04  0.00000000000E+00 0.  1.
    9000005    2    1    2  501    0 -0.49477045880E+01 -0.11870528573E+02 -0.96936651997E+03  0.10244073867E+04  0.33101911516E+03 0.  0.
         13    1    3    3    0    0 -0.11326034378E+03  0.11344460190E+03 -0.38552871663E+03  0.41752841163E+03  0.00000000000E+00 0.  1.
          1    1    3    3  501    0  0.10831263920E+03 -0.12531513047E+03 -0.58383780335E+03  0.60687897504E+03  0.00000000000E+00 0.  1.
         21    1    1    2  502  501  0.49477045880E+01  0.11870528573E+02  0.10168895953E+02  0.16394989302E+02  0.00000000000E+00 0.  1.
<mgrwt>
<rscale>  1 0.30000000E+03</rscale>
<asrwt>0</asrwt>
<pdfrwt beam="1">  1        1 0.14837259E+00 0.30000000E+03</pdfrwt>
<pdfrwt beam="2">0</pdfrwt>
<totfact> 0.18311348E+01</totfact>
</mgrwt>
</event>
<event>
 6    1  0.1950139E-004  0.3000000E+03  0.7818608E-02  0.1093470E+00
          1   -1    0    0  502    0  0.00000000000E+00  0.00000000000E+00  0.30151283476E+02  0.30151283476E+02  0.00000000000E+00 0.  1.
         13   -1    0    0    0    0 -0.00000000000E+00 -0.00000000000E+00 -0.10000000000E+04  0.10000000000E+04  0.00000000000E+00 0.  1.
    9000005    2    1    2  501    0  0.18391112089E+02 -0.39292152043E+01 -0.93460209811E+03  0.99020136676E+03  0.32659453946E+03 0.  0.
         13    1    3    3    0    0 -0.12252809707E+03 -0.82591479051E+02 -0.28716064777E+03  0.32294848600E+03  0.00000000000E+00 0.  1.
          1    1    3    3  501    0  0.14091920916E+03  0.78662263847E+02 -0.64744145034E+03  0.66725288076E+03  0.00000000000E+00 0.  1.
         21    1    1    2  502  501 -0.18391112089E+02  0.39292152043E+01 -0.35246618415E+02  0.39949916717E+02  0.00000000000E+00 0. -1.
<mgrwt>
<rscale>  1 0.30000000E+03</rscale>
<asrwt>0</asrwt>
<pdfrwt beam="1">  1        1 0.10964126E+00 0.30000000E+03</pdfrwt>
<pdfrwt beam="2">0</pdfrwt>
<totfact> 0.29856428E+01</totfact>
</mgrwt>
</event>
<event>
 6    1  0.1950139E-004  0.3000000E+03  0.7818608E-02  0.1093470E+00
          1   -1    0    0  502    0  0.00000000000E+00  0.00000000000E+00  0.32823753193E+02  0.32823753193E+02  0.00000000000E+00 0.  1.
         13   -1    0    0    0    0 -0.00000000000E+00 -0.00000000000E+00 -0.10000000000E+04  0.10000000000E+04  0.00000000000E+00 0.  1.
    9000005    2    1    2  501    0  0.11678187903E+02  0.45419376392E+01 -0.96294238985E+03  0.10195974606E+04  0.33490883280E+03 0.  0.
         13    1    3    3    0    0  0.27977842774E+02 -0.70463094072E+02 -0.26947987081E+02  0.80461178964E+02  0.00000000000E+00 0.  1.
          3    1    3    3  501    0 -0.16299654871E+02  0.75005031711E+02 -0.93599440277E+03  0.93913628166E+03  0.00000000000E+00 0.  1.
         21    1    1    2  502  501 -0.11678187903E+02 -0.45419376392E+01 -0.42338569612E+01  0.13226292564E+02  0.00000000000E+00 0. -1.
<mgrwt>
<rscale>  1 0.30000000E+03</rscale>
<asrwt>0</asrwt>
<pdfrwt beam="1">  1        1 0.11935935E+00 0.30000000E+03</pdfrwt>
<pdfrwt beam="2">0</pdfrwt>
<totfact> 0.26214066E+01</totfact>
</mgrwt>
</event>
<event>
 6    1  0.1950139E-004  0.3000000E+03  0.7818608E-02  0.1093470E+00
          1   -1    0    0  502    0  0.00000000000E+00  0.00000000000E+00  0.33514239311E+02  0.33514239311E+02  0.00000000000E+00 0.  1.
         13   -1    0    0    0    0 -0.00000000000E+00 -0.00000000000E+00 -0.10000000000E+04  0.10000000000E+04  0.00000000000E+00 0.  1.
    9000005    2    1    2  501    0  0.11467649773E+02  0.84682568412E+01 -0.97052805777E+03  0.10186967317E+04  0.30921691733E+03 0.  0.
         13    1    3    3    0    0  0.10754895261E+03  0.10170251478E+03 -0.29527211603E+03  0.33029653529E+03  0.00000000000E+00 0.  1.
          1    1    3    3  501    0 -0.96081302839E+02 -0.93234257940E+02 -0.67525594173E+03  0.68840019644E+03  0.00000000000E+00 0.  1.
         21    1    1    2  502  501 -0.11467649773E+02 -0.84682568412E+01  0.40422970764E+01  0.14817507581E+02  0.00000000000E+00 0. -1.
<mgrwt>
<rscale>  1 0.30000000E+03</rscale>
<asrwt>0</asrwt>
<pdfrwt beam="1">  1        1 0.12187022E+00 0.30000000E+03</pdfrwt>
<pdfrwt beam="2">0</pdfrwt>
<totfact> 0.25373180E+01</totfact>
</mgrwt>
</event>
<event>
 6    1  0.1950139E-004  0.3000000E+03  0.7818608E-02  0.1093470E+00
          1   -1    0    0  502    0  0.00000000000E+00  0.00000000000E+00  0.36127542632E+02  0.36127542632E+02  0.00000000000E+00 0.  1.
         13   -1    0    0    0    0 -0.00000000000E+00 -0.00000000000E+00 -0.10000000000E+04  0.10000000000E+04  0.00000000000E+00 0.  1.
    9000005    2    1    2  501    0  0.15838320917E+02 -0.19582524248E+02 -0.94114137781E+03  0.10022007148E+04  0.34354745255E+03 0.  0.
         13    1    3    3    0    0  0.31133080801E+02 -0.11259273432E+03 -0.94299811257E+02  0.15012943397E+03  0.00000000000E+00 0.  1.
          3    1    3    3  501    0 -0.15294759884E+02  0.93010210070E+02 -0.84684156655E+03  0.85207128088E+03  0.00000000000E+00 0.  1.
         21    1    1    2  502  501 -0.15838320917E+02  0.19582524248E+02 -0.22731079559E+02  0.33926827782E+02  0.00000000000E+00 0.  1.
<mgrwt>
<rscale>  1 0.30000000E+03</rscale>
<asrwt>0</asrwt>
<pdfrwt beam="1">  1        1 0.13137316E+00 0.30000000E+03</pdfrwt>
<pdfrwt beam="2">0</pdfrwt>
<totfact> 0.22490266E+01</totfact>
</mgrwt>
</event>
<event>
 6    1  0.1950139E-004  0.3000000E+03  0.7818608E-02  0.1093470E+00
          1   -1    0    0  502    0  0.00000000000E+00  0.00000000000E+00  0.34010485557E+02  0.34010485557E+02  0.00000000000E+00 0.  1.
         13   -1    0    0    0    0 -0.00000000000E+00 -0.00000000000E+00 -0.10000000000E+04  0.10000000000E+04  0.00000000000E+00 0.  1.
    9000005    2    1    2  501    0 -0.27853140872E+02 -0.80543220883E+01 -0.94398490779E+03  0.99761169060E+03  0.32137347357E+03 0.  0.
         13    1    3    3    0    0 -0.12729202113E+03  0.10001536044E+03 -0.63787984605E+03  0.65810107808E+03  0.00000000000E+00 0.  1.
          1    1    3    3  501    0  0.99438880258E+02 -0.10806968253E+03 -0.30610506174E+03  0.33951061252E+03  0.00000000000E+00 0.  1.
         21    1    1    2  502  501  0.27853140872E+02  0.80543220883E+01 -0.22004606650E+02  0.36398794961E+02  0.00000000000E+00 0.  1.
<mgrwt>
<rscale>  1 0.30000000E+03</rscale>
<asrwt>0</asrwt>
<pdfrwt beam="1">  1        1 0.12367475E+00 0.30000000E+03</pdfrwt>
<pdfrwt beam="2">0</pdfrwt>
<totfact> 0.24790717E+01</totfact>
</mgrwt>
</event>
<event>
 6    1  0.1950139E-004  0.3000000E+03  0.7818608E-02  0.1093470E+00
          1   -1    0    0  502    0  0.00000000000E+00  0.00000000000E+00  0.37215751951E+02  0.37215751951E+02  0.00000000000E+00 0.  1.
         13   -1    0    0    0    0 -0.00000000000E+00 -0.00000000000E+00 -0.10000000000E+04  0.10000000000E+04  0.00000000000E+00 0.  1.
    9000005    2    1    2  501    0 -0.48791794846E+02 -0.16991154586E+02 -0.89444710368E+03  0.95154601471E+03  0.32052278897E+03 0.  0.
         13    1    3    3    0    0 -0.81349283349E+02  0.12853708290E+03 -0.27363632076E+03  0.31307558772E+03  0.00000000000E+00 0.  1.
          1    1    3    3  501    0  0.32557488503E+02 -0.14552823749E+03 -0.62081078292E+03  0.63847042700E+03  0.00000000000E+00 0.  1.
         21    1    1    2  502  501  0.48791794846E+02  0.16991154586E+02 -0.68337144365E+02  0.85669737238E+02  0.00000000000E+00 0. -1.
<mgrwt>
<rscale>  1 0.30000000E+03</rscale>
<asrwt>0</asrwt>
<pdfrwt beam="1">  1        1 0.13533029E+00 0.30000000E+03</pdfrwt>
<pdfrwt beam="2">0</pdfrwt>
<totfact> 0.21415433E+01</totfact>
</mgrwt>
</event>
<event>
 6    1  0.1950139E-004  0.3000000E+03  0.7818608E-02  0.1093470E+00
          1   -1    0    0  502    0  0.00000000000E+00  0.00000000000E+00  0.40179738192E+02  0.40179738192E+02  0.00000000000E+00 0.  1.
         13   -1    0    0    0    0 -0.00000000000E+00 -0.00000000000E+00 -0.10000000000E+04  0.10000000000E+04  0.00000000000E+00 0.  1.
    9000005    2    1    2  501    0 -0.11557589999E+02  0.79956868527E+01 -0.96771451301E+03  0.10240605541E+04  0.33471051794E+03 0.  0.
         13    1    3    3    0    0 -0.16953945301E+03  0.35855788505E+02 -0.45740687552E+03  0.48913220449E+03  0.00000000000E+00 0.  1.
          3    1    3    3  501    0  0.15798186301E+03 -0.27860101653E+02 -0.51030763748E+03  0.53492834957E+03  0.00000000000E+00 0.  1.
         21    1    1    2  502  501  0.11557589999E+02 -0.79956868527E+01  0.78942511983E+01  0.16119184124E+02  0.00000000000E+00 0.  1.
<mgrwt>
<rscale>  1 0.30000000E+03</rscale>
<asrwt>0</asrwt>
<pdfrwt beam="1">  1        1 0.14610845E+00 0.30000000E+03</pdfrwt>
<pdfrwt beam="2">0</pdfrwt>
<totfact> 0.18807265E+01</totfact>
</mgrwt>
</event>
<event>
 6    1  0.1950139E-004  0.3000000E+03  0.7818608E-02  0.1093470E+00
          1   -1    0    0  502    0  0.00000000000E+00  0.00000000000E+00  0.31315115509E+02  0.31315115509E+02  0.00000000000E+00 0.  1.
         13   -1    0    0    0    0 -0.00000000000E+00 -0.00000000000E+00 -0.10000000000E+04  0.10000000000E+04  0.00000000000E+00 0.  1.
    9000005    2    1    2  501    0  0.10391824609E+02  0.56442378067E+01 -0.96112814457E+03  0.10172811653E+04  0.33309730055E+03 0.  0.
         13    1    3    3    0    0 -0.71204100465E+02  0.78220962554E+02 -0.86605639631E+03  0.87249196242E+03  0.00000000000E+00 0.  1.
          3    1    3    3  501    0  0.81595925075E+02 -0.72576724748E+02 -0.95071748264E+02  0.14478920292E+03  0.00000000000E+00 0.  1.
         21    1    1    2  502  501 -0.10391824609E+02 -0.56442378067E+01 -0.75567399220E+01  0.14033950170E+02  0.00000000000E+00 0.  1.
<mgrwt>
<rscale>  1 0.30000000E+03</rscale>
<asrwt>0</asrwt>
<pdfrwt beam="1">  1        1 0.11387339E+00 0.30000000E+03</pdfrwt>
<pdfrwt beam="2">0</pdfrwt>
<totfact> 0.28187939E+01</totfact>
</mgrwt>
</event>
<event>
 6    1  0.1950139E-004  0.3000000E+03  0.7818608E-02  0.1093470E+00
          1   -1    0    0  502    0  0.00000000000E+00  0.00000000000E+00  0.34428527858E+02  0.34428527858E+02  0.00000000000E+00 0.  1.
         13   -1    0    0    0    0 -0.00000000000E+00 -0.00000000000E+00 -0.10000000000E+04  0.10000000000E+04  0.00000000000E+00 0.  1.
    9000005    2    1    2  501    0  0.64370424450E+01 -0.68993772529E+01 -0.95847486013E+03  0.10226217999E+04  0.35635972178E+03 0.  0.
         13    1    3    3    0    0 -0.85649289854E+02 -0.49871707496E+02 -0.89987561237E+03  0.90531712996E+03  0.00000000000E+00 0.  1.
          3    1    3    3  501    0  0.92086332299E+02  0.42972330243E+02 -0.58599247757E+02  0.11730466999E+03  0.00000000000E+00 0.  1.
         21    1    1    2  502  501 -0.64370424450E+01  0.68993772529E+01 -0.70966120166E+01  0.11806727914E+02  0.00000000000E+00 0.  1.
<mgrwt>
<rscale>  1 0.30000000E+03</rscale>
<asrwt>0</asrwt>
<pdfrwt beam="1">  1        1 0.12519491E+00 0.30000000E+03</pdfrwt>
<pdfrwt beam="2">0</pdfrwt>
<totfact> 0.24313400E+01</totfact>
</mgrwt>
</event>
<event>
 6    1  0.1950139E-004  0.3000000E+03  0.7818608E-02  0.1093470E+00
          1   -1    0    0  502    0  0.00000000000E+00  0.00000000000E+00  0.27715675120E+02  0.27715675120E+02  0.00000000000E+00 0.  1.
         13   -1    0    0    0    0 -0.00000000000E+00 -0.00000000000E+00 -0.10000000000E+04  0.10000000000E+04  0.00000000000E+00 0.  1.
    9000005    2    1    2  501    0  0.97281675829E+01  0.15401897830E+01 -0.96221379132E+03  0.10136293315E+04  0.31857814133E+03 0.  0.
         13    1    3    3    0    0 -0.82871878481E+02  0.12972293490E+03 -0.57799355482E+03  0.59814073385E+03  0.00000000000E+00 0.  1.
          3    1    3    3  501    0  0.92600046064E+02 -0.12818274511E+03 -0.38422023650E+03  0.41548859769E+03  0.00000000000E+00 0.  1.
         21    1    1    2  502  501 -0.97281675829E+01 -0.15401897830E+01 -0.10070533557E+02  0.14086343571E+02  0.00000000000E+00 0.  1.
<mgrwt>
<rscale>  1 0.30000000E+03</rscale>
<asrwt>0</asrwt>
<pdfrwt beam="1">  1        1 0.10078449E+00 0.30000000E+03</pdfrwt>
<pdfrwt beam="2">0</pdfrwt>
<totfact> 0.33837654E+01</totfact>
</mgrwt>
</event>
<event>
 6    1  0.1950139E-004  0.3000000E+03  0.7818608E-02  0.1093470E+00
          1   -1    0    0  502    0  0.00000000000E+00  0.00000000000E+00  0.32733678188E+02  0.32733678188E+02  0.00000000000E+00 0.  1.
         13   -1    0    0    0    0 -0.00000000000E+00 -0.00000000000E+00 -0.10000000000E+04  0.10000000000E+04  0.00000000000E+00 0.  1.
    9000005    2    1    2  501    0  0.92006312307E+01  0.12419421697E+02 -0.97723038612E+03  0.10143441097E+04  0.27143295994E+03 0.  0.
         13    1    3    3    0    0 -0.63495294472E+02 -0.43371865297E+01 -0.42246451836E+02  0.76388652952E+02  0.00000000000E+00 0.  1.
          3    1    3    3  501    0  0.72695925702E+02  0.16756608226E+02 -0.93498393429E+03  0.93795545678E+03  0.00000000000E+00 0.  1.
         21    1    1    2  502  501 -0.92006312307E+01 -0.12419421697E+02  0.99640643106E+01  0.18389568454E+02  0.00000000000E+00 0.  1.
<mgrwt>
<rscale>  1 0.30000000E+03</rscale>
<asrwt>0</asrwt>
<pdfrwt beam="1">  1        1 0.11903181E+00 0.30000000E+03</pdfrwt>
<pdfrwt beam="2">0</pdfrwt>
<totfact> 0.26326500E+01</totfact>
</mgrwt>
</event>
<event>
 6    1  0.1950139E-004  0.3000000E+03  0.7818608E-02  0.1093470E+00
          1   -1    0    0  502    0  0.00000000000E+00  0.00000000000E+00  0.30568767374E+02  0.30568767374E+02  0.00000000000E+00 0.  1.
         13   -1    0    0    0    0 -0.00000000000E+00 -0.00000000000E+00 -0.10000000000E+04  0.10000000000E+04  0.00000000000E+00 0.  1.
    9000005    2    1    2  501    0  0.65974460329E+01  0.97496658954E+01 -0.95105312177E+03  0.10087436159E+04  0.33604026524E+03 0.  0.
         13    1    3    3    0    0 -0.80720764651E+02  0.84822172585E+02 -0.11269531422E+03  0.16251423524E+03  0.00000000000E+00 0.  1.
          3    1    3    3  501    0  0.87318210683E+02 -0.75072506690E+02 -0.83835780755E+03  0.84622938064E+03  0.00000000000E+00 0.  1.
         21    1    1    2  502  501 -0.65974460329E+01 -0.97496658954E+01 -0.18378110853E+02  0.21825151494E+02  0.00000000000E+00 0. -1.
<mgrwt>
<rscale>  1 0.30000000E+03</rscale>
<asrwt>0</asrwt>
<pdfrwt beam="1">  1        1 0.11115939E+00 0.30000000E+03</pdfrwt>
<pdfrwt beam="2">0</pdfrwt>
<totfact> 0.29242190E+01</totfact>
</mgrwt>
</event>
<event>
 6    1  0.1950139E-004  0.3000000E+03  0.7818608E-02  0.1093470E+00
          1   -1    0    0  502    0  0.00000000000E+00  0.00000000000E+00  0.29159400426E+02  0.29159400426E+02  0.00000000000E+00 0.  1.
         13   -1    0    0    0    0 -0.00000000000E+00 -0.00000000000E+00 -0.10000000000E+04  0.10000000000E+04  0.00000000000E+00 0.  1.
    9000005    2    1    2  501    0 -0.79511050145E+01  0.36177469388E+02 -0.86520507024E+03  0.91721792277E+03  0.30221991152E+03 0.  0.
         13    1    3    3    0    0 -0.21367325323E+02 -0.72022934493E+02 -0.76641876161E+03  0.77009193207E+03  0.00000000000E+00 0.  1.
          1    1    3    3  501    0  0.13416220308E+02  0.10820040388E+03 -0.98786308626E+02  0.14712599070E+03  0.00000000000E+00 0.  1.
         21    1    1    2  502  501  0.79511050145E+01 -0.36177469388E+02 -0.10563552934E+03  0.11194147766E+03  0.00000000000E+00 0. -1.
<mgrwt>
<rscale>  1 0.30000000E+03</rscale>
<asrwt>0</asrwt>
<pdfrwt beam="1">  1        1 0.10603441E+00 0.30000000E+03</pdfrwt>
<pdfrwt beam="2">0</pdfrwt>
<totfact> 0.31391553E+01</totfact>
</mgrwt>
</event>
<event>
 6    1  0.1950139E-004  0.3000000E+03  0.7818608E-02  0.1093470E+00
          1   -1    0    0  502    0  0.00000000000E+00  0.00000000000E+00  0.32346369873E+02  0.32346369873E+02  0.00000000000E+00 0.  1.
         13   -1    0    0    0    0 -0.00000000000E+00 -0.00000000000E+00 -0.10000000000E+04  0.10000000000E+04  0.00000000000E+00 0.  1.
    9000005    2    1    2  501    0  0.43066895785E+00  0.15752108880E+02 -0.89830039464E+03  0.96122544691E+03  0.34170520390E+03 0.  0.
         13    1    3    3    0    0  0.58332642348E+02 -0.10486518137E+03 -0.11373393412E+03  0.16533242633E+03  0.00000000000E+00 0.  1.
          1    1    3    3  501    0 -0.57901973390E+02  0.12061729025E+03 -0.78456646052E+03  0.79589302058E+03  0.00000000000E+00 0.  1.
         21    1    1    2  502  501 -0.43066895785E+00 -0.15752108880E+02 -0.69353235489E+02  0.71120922960E+02  0.00000000000E+00 0. -1.
<mgrwt>
<rscale>  1 0.30000000E+03</rscale>
<asrwt>0</asrwt>
<pdfrwt beam="1">  1        1 0.11762341E+00 0.30000000E+03</pdfrwt>
<pdfrwt beam="2">0</pdfrwt>
<totfact> 0.26817473E+01</totfact>
</mgrwt>
</event>
<event>
 6    1  0.1950139E-004  0.3000000E+03  0.7818608E-02  0.1093470E+00
          1   -1    0    0  502    0  0.00000000000E+00  0.00000000000E+00  0.71363181620E+02  0.71363181620E+02  0.00000000000E+00 0.  1.
         13   -1    0    0    0    0 -0.00000000000E+00 -0.00000000000E+00 -0.10000000000E+04  0.10000000000E+04  0.00000000000E+00 0.  1.
    9000005    2    1    2  501    0  0.65101051138E+02  0.10451905023E+03 -0.87226424232E+03  0.93593701705E+03  0.31618161352E+03 0.  0.
         13    1    3    3    0    0  0.17140739681E+03 -0.21851345208E+02 -0.40377633522E+03  0.43919620427E+03  0.00000000000E+00 0.  1.
          3    1    3    3  501    0 -0.10630634567E+03  0.12637039543E+03 -0.46848790711E+03  0.49674081277E+03  0.00000000000E+00 0.  1.
         21    1    1    2  502  501 -0.65101051138E+02 -0.10451905023E+03 -0.56372576059E+02  0.13542616457E+03  0.00000000000E+00 0.  1.
<mgrwt>
<rscale>  1 0.30000000E+03</rscale>
<asrwt>0</asrwt>
<pdfrwt beam="1">  1        1 0.25950303E+00 0.30000000E+03</pdfrwt>
<pdfrwt beam="2">0</pdfrwt>
<totfact> 0.53871643E+00</totfact>
</mgrwt>
</event>
<event>
 6    1  0.1950139E-004  0.3000000E+03  0.7818608E-02  0.1093470E+00
          1   -1    0    0  502    0  0.00000000000E+00  0.00000000000E+00  0.45411403617E+02  0.45411403617E+02  0.00000000000E+00 0.  1.
         13   -1    0    0    0    0 -0.00000000000E+00 -0.00000000000E+00 -0.10000000000E+04  0.10000000000E+04  0.00000000000E+00 0.  1.
    9000005    2    1    2  501    0  0.28477985454E+02  0.41502209629E+02 -0.93852794839E+03  0.99257795329E+03  0.31912827261E+03 0.  0.
         13    1    3    3    0    0  0.15475239675E+03 -0.28811837264E+01 -0.71894261298E+03  0.73541490758E+03  0.00000000000E+00 0.  1.
          1    1    3    3  501    0 -0.12627441130E+03  0.44383393355E+02 -0.21958533541E+03  0.25716304571E+03  0.00000000000E+00 0.  1.
         21    1    1    2  502  501 -0.28477985454E+02 -0.41502209629E+02 -0.16060647990E+02  0.52833450327E+02  0.00000000000E+00 0.  1.
<mgrwt>
<rscale>  1 0.30000000E+03</rscale>
<asrwt>0</asrwt>
<pdfrwt beam="1">  1        1 0.16513273E+00 0.30000000E+03</pdfrwt>
<pdfrwt beam="2">0</pdfrwt>
<totfact> 0.15094577E+01</totfact>
</mgrwt>
</event>
<event>
 6    1  0.1950139E-004  0.3000000E+03  0.7818608E-02  0.1093470E+00
          1   -1    0    0  502    0  0.00000000000E+00  0.00000000000E+00  0.31614976782E+02  0.31614976782E+02  0.00000000000E+00 0.  1.
         13   -1    0    0    0    0 -0.00000000000E+00 -0.00000000000E+00 -0.10000000000E+04  0.10000000000E+04  0.00000000000E+00 0.  1.
    9000005    2    1    2  501    0 -0.15926861391E+02  0.42443729452E+01 -0.96031497823E+03  0.10132627224E+04  0.32283867107E+03 0.  0.
         13    1    3    3    0    0 -0.24154633609E+02  0.15878562393E+03 -0.37742820964E+03  0.41018090415E+03  0.00000000000E+00 0.  1.
          1    1    3    3  501    0  0.82277722182E+01 -0.15454125098E+03 -0.58288676859E+03  0.60308181824E+03  0.00000000000E+00 0.  1.
         21    1    1    2  502  501  0.15926861391E+02 -0.42443729452E+01 -0.80700449842E+01  0.18352254399E+02  0.00000000000E+00 0.  1.
<mgrwt>
<rscale>  1 0.30000000E+03</rscale>
<asrwt>0</asrwt>
<pdfrwt beam="1">  1        1 0.11496379E+00 0.30000000E+03</pdfrwt>
<pdfrwt beam="2">0</pdfrwt>
<totfact> 0.27779546E+01</totfact>
</mgrwt>
</event>
<event>
 6    1  0.1950139E-004  0.3000000E+03  0.7818608E-02  0.1093470E+00
          1   -1    0    0  502    0  0.00000000000E+00  0.00000000000E+00  0.36761843847E+02  0.36761843847E+02  0.00000000000E+00 0.  1.
         13   -1    0    0    0    0 -0.00000000000E+00 -0.00000000000E+00 -0.10000000000E+04  0.10000000000E+04  0.00000000000E+00 0.  1.
    9000005    2    1    2  501    0  0.17850840125E+02  0.37311251874E+02 -0.92816958665E+03  0.98253466822E+03  0.31963230541E+03 0.  0.
         13    1    3    3    0    0  0.12953784756E+03 -0.28587606178E+02 -0.18219015199E+03  0.22536760339E+03  0.00000000000E+00 0.  1.
          1    1    3    3  501    0 -0.11168700743E+03  0.65898858051E+02 -0.74597943466E+03  0.75716706483E+03  0.00000000000E+00 0.  1.
         21    1    1    2  502  501 -0.17850840125E+02 -0.37311251874E+02 -0.35068569507E+02  0.54227175630E+02  0.00000000000E+00 0. -1.
<mgrwt>
<rscale>  1 0.30000000E+03</rscale>
<asrwt>0</asrwt>
<pdfrwt beam="1">  1        1 0.13367971E+00 0.30000000E+03</pdfrwt>
<pdfrwt beam="2">0</pdfrwt>
<totfact> 0.21855323E+01</totfact>
</mgrwt>
</event>
<event>
 6    1  0.1950139E-004  0.3000000E+03  0.7818608E-02  0.1093470E+00
          1   -1    0    0  502    0  0.00000000000E+00  0.00000000000E+00  0.31113315784E+02  0.31113315784E+02  0.00000000000E+00 0.  1.
         13   -1    0    0    0    0 -0.00000000000E+00 -0.00000000000E+00 -0.10000000000E+04  0.10000000000E+04  0.00000000000E+00 0.  1.
    9000005    2    1    2  501    0  0.38008734494E+00 -0.11183061896E+02 -0.96655539483E+03  0.10196835192E+04  0.32465357339E+03 0.  0.
         13    1    3    3    0    0  0.70552419513E+02 -0.32867610838E+02 -0.93745770384E+03  0.94068319334E+03  0.00000000000E+00 0.  1.
          3    1    3    3  501    0 -0.70172332168E+02  0.21684548941E+02 -0.29097690983E+02  0.79000325855E+02  0.00000000000E+00 0.  1.
         21    1    1    2  502  501 -0.38008734494E+00  0.11183061896E+02 -0.23312893897E+01  0.11429796586E+02  0.00000000000E+00 0.  1.
<mgrwt>
<rscale>  1 0.30000000E+03</rscale>
<asrwt>0</asrwt>
<pdfrwt beam="1">  1        1 0.11313957E+00 0.30000000E+03</pdfrwt>
<pdfrwt beam="2">0</pdfrwt>
<totfact> 0.28467577E+01</totfact>
</mgrwt>
</event>
<event>
 6    1  0.1950139E-004  0.3000000E+03  0.7818608E-02  0.1093470E+00
          1   -1    0    0  502    0  0.00000000000E+00  0.00000000000E+00  0.51974678917E+02  0.51974678917E+02  0.00000000000E+00 0.  1.
         13   -1    0    0    0    0 -0.00000000000E+00 -0.00000000000E+00 -0.10000000000E+04  0.10000000000E+04  0.00000000000E+00 0.  1.
    9000005    2    1    2  501    0  0.29532197602E+02  0.70925424889E+02 -0.90599082208E+03  0.96439919321E+03  0.32147141020E+03 0.  0.
         13    1    3    3    0    0  0.16403668513E+03  0.47069973359E+02 -0.67314329913E+03  0.69443899489E+03  0.00000000000E+00 0.  1.
          1    1    3    3  501    0 -0.13450448753E+03  0.23855451529E+02 -0.23284752294E+03  0.26996019831E+03  0.00000000000E+00 0.  1.
         21    1    1    2  502  501 -0.29532197602E+02 -0.70925424889E+02 -0.42034499004E+02  0.87575485710E+02  0.00000000000E+00 0.  1.
<mgrwt>
<rscale>  1 0.30000000E+03</rscale>
<asrwt>0</asrwt>
<pdfrwt beam="1">  1        1 0.18899923E+00 0.30000000E+03</pdfrwt>
<pdfrwt beam="2">0</pdfrwt>
<totfact> 0.11561183E+01</totfact>
</mgrwt>
</event>
<event>
 6    1  0.1950139E-004  0.3000000E+03  0.7818608E-02  0.1093470E+00
          1   -1    0    0  502    0  0.00000000000E+00  0.00000000000E+00  0.35058036463E+02  0.35058036463E+02  0.00000000000E+00 0.  1.
         13   -1    0    0    0    0 -0.00000000000E+00 -0.00000000000E+00 -0.10000000000E+04  0.10000000000E+04  0.00000000000E+00 0.  1.
    9000005    2    1    2  501    0 -0.10537838936E+02  0.12883762530E+02 -0.96409592625E+03  0.10183921082E+04  0.32766521573E+03 0.  0.
         13    1    3    3    0    0 -0.83668564119E+02 -0.64665940128E+02 -0.86941112465E+03  0.87581836936E+03  0.00000000000E+00 0.  1.
          1    1    3    3  501    0  0.73130725183E+02  0.77549702658E+02 -0.94684801600E+02  0.14257373882E+03  0.00000000000E+00 0.  1.
         21    1    1    2  502  501  0.10537838936E+02 -0.12883762530E+02 -0.84603728372E+00  0.16665928281E+02  0.00000000000E+00 0. -1.
<mgrwt>
<rscale>  1 0.30000000E+03</rscale>
<asrwt>0</asrwt>
<pdfrwt beam="1">  1        1 0.12748404E+00 0.30000000E+03</pdfrwt>
<pdfrwt beam="2">0</pdfrwt>
<totfact> 0.23616466E+01</totfact>
</mgrwt>
</event>
<event>
 6    1  0.1950139E-004  0.3000000E+03  0.7818608E-02  0.1093470E+00
          1   -1    0    0  502    0  0.00000000000E+00  0.00000000000E+00  0.32095866467E+02  0.32095866467E+02  0.00000000000E+00 0.  1.
         13   -1    0    0    0    0 -0.00000000000E+00 -0.00000000000E+00 -0.10000000000E+04  0.10000000000E+04  0.00000000000E+00 0.  1.
    9000005    2    1    2  501    0 -0.14864852734E+01 -0.12527660931E+02 -0.96863760917E+03  0.10194590190E+04  0.31761410805E+03 0.  0.
         13    1    3    3    0    0 -0.76234954752E+02  0.12510449095E+03 -0.31626271351E+03  0.34854699244E+03  0.00000000000E+00 0.  1.
          1    1    3    3  501    0  0.74748469478E+02 -0.13763215188E+03 -0.65237489567E+03  0.67091202658E+03  0.00000000000E+00 0.  1.
         21    1    1    2  502  501  0.14864852734E+01  0.12527660931E+02  0.73347564018E+00  0.12636847447E+02  0.00000000000E+00 0.  1.
<mgrwt>
<rscale>  1 0.30000000E+03</rscale>
<asrwt>0</asrwt>
<pdfrwt beam="1">  1        1 0.11671249E+00 0.30000000E+03</pdfrwt>
<pdfrwt beam="2">0</pdfrwt>
<totfact> 0.27141715E+01</totfact>
</mgrwt>
</event>
<event>
 6    1  0.1950139E-004  0.3000000E+03  0.7818608E-02  0.1093470E+00
          1   -1    0    0  502    0  0.00000000000E+00  0.00000000000E+00  0.30975984892E+02  0.30975984892E+02  0.00000000000E+00 0.  1.
         13   -1    0    0    0    0 -0.00000000000E+00 -0.00000000000E+00 -0.10000000000E+04  0.10000000000E+04  0.00000000000E+00 0.  1.
    9000005    2    1    2  501    0 -0.19956868307E+01 -0.17527705617E+02 -0.96218489237E+03  0.10120557093E+04  0.31328228216E+03 0.  0.
         13    1    3    3    0    0  0.56615511195E+02 -0.15430631342E+03 -0.47349273770E+03  0.50120966384E+03  0.00000000000E+00 0.  1.
          1    1    3    3  501    0 -0.58611198026E+02  0.13677860781E+03 -0.48869215467E+03  0.51084604543E+03  0.00000000000E+00 0.  1.
         21    1    1    2  502  501  0.19956868307E+01  0.17527705617E+02 -0.68391227363E+01  0.18920275630E+02  0.00000000000E+00 0.  1.
<mgrwt>
<rscale>  1 0.30000000E+03</rscale>
<asrwt>0</asrwt>
<pdfrwt beam="1">  1        1 0.11264018E+00 0.30000000E+03</pdfrwt>
<pdfrwt beam="2">0</pdfrwt>
<totfact> 0.28660145E+01</totfact>
</mgrwt>
</event>
<event>
 6    1  0.1950139E-004  0.3000000E+03  0.7818608E-02  0.1093470E+00
          1   -1    0    0  502    0  0.00000000000E+00  0.00000000000E+00  0.39227899373E+02  0.39227899373E+02  0.00000000000E+00 0.  1.
         13   -1    0    0    0    0 -0.00000000000E+00 -0.00000000000E+00 -0.10000000000E+04  0.10000000000E+04  0.00000000000E+00 0.  1.
    9000005    2    1    2  501    0 -0.13803899750E+02 -0.20254951391E+02 -0.95441894915E+03  0.10139065006E+04  0.34130638828E+03 0.  0.
         13    1    3    3    0    0  0.47120767019E+02 -0.16972707781E+03 -0.58049065528E+03  0.60662760281E+03  0.00000000000E+00 0.  1.
          1    1    3    3  501    0 -0.60924666769E+02  0.14947212641E+03 -0.37392829387E+03  0.40727889775E+03  0.00000000000E+00 0.  1.
         21    1    1    2  502  501  0.13803899750E+02  0.20254951391E+02 -0.63531514785E+01  0.25321398813E+02  0.00000000000E+00 0.  1.
<mgrwt>
<rscale>  1 0.30000000E+03</rscale>
<asrwt>0</asrwt>
<pdfrwt beam="1">  1        1 0.14264721E+00 0.30000000E+03</pdfrwt>
<pdfrwt beam="2">0</pdfrwt>
<totfact> 0.19598489E+01</totfact>
</mgrwt>
</event>
<event>
 6    1  0.1950139E-004  0.3000000E+03  0.7818608E-02  0.1093470E+00
          1   -1    0    0  502    0  0.00000000000E+00  0.00000000000E+00  0.24933813232E+02  0.24933813232E+02  0.00000000000E+00 0.  1.
         13   -1    0    0    0    0 -0.00000000000E+00 -0.00000000000E+00 -0.10000000000E+04  0.10000000000E+04  0.00000000000E+00 0.  1.
    9000005    2    1    2  501    0  0.10823111279E+02  0.67350415202E+01 -0.95135971373E+03  0.99801732412E+03  0.30131507400E+03 0.  0.
         13    1    3    3    0    0 -0.30147398889E+02 -0.58652820514E+02 -0.28341315186E+02  0.71779169405E+02  0.00000000000E+00 0.  1.
          3    1    3    3  501    0  0.40970510168E+02  0.65387862034E+02 -0.92301839854E+03  0.92623815472E+03  0.00000000000E+00 0.  1.
         21    1    1    2  502  501 -0.10823111279E+02 -0.67350415202E+01 -0.23706473041E+02  0.26916489111E+02  0.00000000000E+00 0.  1.
<mgrwt>
<rscale>  1 0.30000000E+03</rscale>
<asrwt>0</asrwt>
<pdfrwt beam="1">  1        1 0.90668603E-01 0.30000000E+03</pdfrwt>
<pdfrwt beam="2">0</pdfrwt>
<totfact> 0.39415653E+01</totfact>
</mgrwt>
</event>
<event>
 6    1  0.1950139E-004  0.3000000E+03  0.7818608E-02  0.1093470E+00
          1   -1    0    0  502    0  0.00000000000E+00  0.00000000000E+00  0.54244431353E+02  0.54244431353E+02  0.00000000000E+00 0.  1.
         13   -1    0    0    0    0 -0.00000000000E+00 -0.00000000000E+00 -0.10000000000E+04  0.10000000000E+04  0.00000000000E+00 0.  1.
    9000005    2    1    2  501    0  0.16951380377E+01  0.25118751896E+02 -0.96816442947E+03  0.10205400958E+04  0.32175440867E+03 0.  0.
         13    1    3    3    0    0 -0.25224243779E+01 -0.52070872196E+02 -0.29291765704E+01  0.52214159299E+02  0.00000000000E+00 0.  1.
          3    1    3    3  501    0  0.42175624156E+01  0.77189624092E+02 -0.96523525290E+03  0.96832593653E+03  0.00000000000E+00 0.  1.
         21    1    1    2  502  501 -0.16951380377E+01 -0.25118751896E+02  0.22408860828E+02  0.33704335528E+02  0.00000000000E+00 0.  1.
<mgrwt>
<rscale>  1 0.30000000E+03</rscale>
<asrwt>0</asrwt>
<pdfrwt beam="1">  1        1 0.19725289E+00 0.30000000E+03</pdfrwt>
<pdfrwt beam="2">0</pdfrwt>
<totfact> 0.10556340E+01</totfact>
</mgrwt>
</event>
<event>
 6    1  0.1950139E-004  0.3000000E+03  0.7818608E-02  0.1093470E+00
          3   -1    0    0  502    0  0.00000000000E+00  0.00000000000E+00  0.30970581931E+02  0.30970581931E+02  0.00000000000E+00 0.  1.
         13   -1    0    0    0    0 -0.00000000000E+00 -0.00000000000E+00 -0.10000000000E+04  0.10000000000E+04  0.00000000000E+00 0.  1.
    9000005    2    1    2  501    0  0.19238345995E+02  0.14541373647E+02 -0.92711233082E+03  0.98261142863E+03  0.32466348766E+03 0.  0.
         13    1    3    3    0    0  0.13119480617E+03  0.62959354326E+01 -0.15852306857E+03  0.20586713977E+03  0.00000000000E+00 0.  1.
          1    1    3    3  501    0 -0.11195646018E+03  0.82454382143E+01 -0.76858926225E+03  0.77674428886E+03  0.00000000000E+00 0.  1.
         21    1    1    2  502  501 -0.19238345995E+02 -0.14541373647E+02 -0.41917087250E+02  0.48359153298E+02  0.00000000000E+00 0.  1.
<mgrwt>
<rscale>  1 0.30000000E+03</rscale>
<asrwt>0</asrwt>
<pdfrwt beam="1">  1        3 0.11262054E+00 0.30000000E+03</pdfrwt>
<pdfrwt beam="2">0</pdfrwt>
<totfact> 0.28131349E+00</totfact>
</mgrwt>
</event>
<event>
 6    1  0.1950139E-004  0.3000000E+03  0.7818608E-02  0.1093470E+00
          1   -1    0    0  502    0  0.00000000000E+00  0.00000000000E+00  0.38605104313E+02  0.38605104313E+02  0.00000000000E+00 0.  1.
         13   -1    0    0    0    0 -0.00000000000E+00 -0.00000000000E+00 -0.10000000000E+04  0.10000000000E+04  0.00000000000E+00 0.  1.
    9000005    2    1    2  501    0  0.15535360792E+02  0.90932346880E+00 -0.96957981391E+03  0.10210219536E+04  0.31962265223E+03 0.  0.
         13    1    3    3    0    0 -0.11374576042E+03 -0.75798846807E+01 -0.79758123082E+03  0.80568689478E+03  0.00000000000E+00 0.  1.
          3    1    3    3  501    0  0.12928112121E+03  0.84892081495E+01 -0.17199858308E+03  0.21533505878E+03  0.00000000000E+00 0.  1.
         21    1    1    2  502  501 -0.15535360792E+02 -0.90932346880E+00  0.81849182180E+01  0.17583150751E+02  0.00000000000E+00 0.  1.
<mgrwt>
<rscale>  1 0.30000000E+03</rscale>
<asrwt>0</asrwt>
<pdfrwt beam="1">  1        1 0.14038249E+00 0.30000000E+03</pdfrwt>
<pdfrwt beam="2">0</pdfrwt>
<totfact> 0.20139069E+01</totfact>
</mgrwt>
</event>
<event>
 6    1  0.1950139E-004  0.3000000E+03  0.7818608E-02  0.1093470E+00
          1   -1    0    0  502    0  0.00000000000E+00  0.00000000000E+00  0.55209323890E+02  0.55209323890E+02  0.00000000000E+00 0.  1.
         13   -1    0    0    0    0 -0.00000000000E+00 -0.00000000000E+00 -0.10000000000E+04  0.10000000000E+04  0.00000000000E+00 0.  1.
    9000005    2    1    2  501    0 -0.84514068776E+02 -0.10766627304E+02 -0.90366331179E+03  0.96060484101E+03  0.31447691714E+03 0.  0.
         13    1    3    3    0    0 -0.57544578223E+02  0.12799211290E+03 -0.20924925031E+03  0.25194961441E+03  0.00000000000E+00 0.  1.
          1    1    3    3  501    0 -0.26969490553E+02 -0.13875874020E+03 -0.69441406148E+03  0.70865522660E+03  0.00000000000E+00 0.  1.
         21    1    1    2  502  501  0.84514068776E+02  0.10766627304E+02 -0.41127364318E+02  0.94604482877E+02  0.00000000000E+00 0.  1.
<mgrwt>
<rscale>  1 0.30000000E+03</rscale>
<asrwt>0</asrwt>
<pdfrwt beam="1">  1        1 0.20076160E+00 0.30000000E+03</pdfrwt>
<pdfrwt beam="2">0</pdfrwt>
<totfact> 0.10158396E+01</totfact>
</mgrwt>
</event>
<event>
 6    1  0.1950139E-004  0.3000000E+03  0.7818608E-02  0.1093470E+00
          1   -1    0    0  502    0  0.00000000000E+00  0.00000000000E+00  0.45036012820E+02  0.45036012820E+02  0.00000000000E+00 0.  1.
         13   -1    0    0    0    0 -0.00000000000E+00 -0.00000000000E+00 -0.10000000000E+04  0.10000000000E+04  0.00000000000E+00 0.  1.
    9000005    2    1    2  501    0 -0.39721417858E+02 -0.87648845577E+01 -0.90387290930E+03  0.97972971545E+03  0.37580508900E+03 0.  0.
         13    1    3    3    0    0 -0.14720584624E+03 -0.12742324776E+03 -0.65903188243E+03  0.68718939696E+03  0.00000000000E+00 0.  1.
          3    1    3    3  501    0  0.10748442838E+03  0.11865836320E+03 -0.24484102688E+03  0.29254031849E+03  0.00000000000E+00 0.  1.
         21    1    1    2  502  501  0.39721417858E+02  0.87648845577E+01 -0.51091077877E+02  0.65306297373E+02  0.00000000000E+00 0. -1.
<mgrwt>
<rscale>  1 0.30000000E+03</rscale>
<asrwt>0</asrwt>
<pdfrwt beam="1">  1        1 0.16376766E+00 0.30000000E+03</pdfrwt>
<pdfrwt beam="2">0</pdfrwt>
<totfact> 0.15330255E+01</totfact>
</mgrwt>
</event>
<event>
 6    1  0.1950139E-004  0.3000000E+03  0.7818608E-02  0.1093470E+00
          1   -1    0    0  502    0  0.00000000000E+00  0.00000000000E+00  0.31515298733E+02  0.31515298733E+02  0.00000000000E+00 0.  1.
         13   -1    0    0    0    0 -0.00000000000E+00 -0.00000000000E+00 -0.10000000000E+04  0.10000000000E+04  0.00000000000E+00 0.  1.
    9000005    2    1    2  501    0  0.19266139112E+02  0.18900232809E+02 -0.95405897331E+03  0.10009129370E+04  0.30144614773E+03 0.  0.
         13    1    3    3    0    0  0.12073605947E+03 -0.85005477376E+02 -0.60679642698E+03  0.62450382788E+03  0.00000000000E+00 0.  1.
          1    1    3    3  501    0 -0.10146992035E+03  0.10390571018E+03 -0.34726254633E+03  0.37640910912E+03  0.00000000000E+00 0.  1.
         21    1    1    2  502  501 -0.19266139112E+02 -0.18900232809E+02 -0.14425727954E+02  0.30602361730E+02  0.00000000000E+00 0.  1.
<mgrwt>
<rscale>  1 0.30000000E+03</rscale>
<asrwt>0</asrwt>
<pdfrwt beam="1">  1        1 0.11460133E+00 0.30000000E+03</pdfrwt>
<pdfrwt beam="2">0</pdfrwt>
<totfact> 0.27914371E+01</totfact>
</mgrwt>
</event>
<event>
 6    1  0.1950139E-004  0.3000000E+03  0.7818608E-02  0.1093470E+00
          1   -1    0    0  502    0  0.00000000000E+00  0.00000000000E+00  0.33378490637E+02  0.33378490637E+02  0.00000000000E+00 0.  1.
         13   -1    0    0    0    0 -0.00000000000E+00 -0.00000000000E+00 -0.10000000000E+04  0.10000000000E+04  0.00000000000E+00 0.  1.
    9000005    2    1    2  501    0  0.36014013595E+01  0.27485071701E+02 -0.93906550444E+03  0.99429226972E+03  0.32558362481E+03 0.  0.
         13    1    3    3    0    0  0.92434354134E+01  0.61509416863E+02 -0.81426882342E+01  0.62730796525E+02  0.00000000000E+00 0.  1.
          3    1    3    3  501    0 -0.56420340540E+01 -0.34024345162E+02 -0.93092281621E+03  0.93156147320E+03  0.00000000000E+00 0.  1.
         21    1    1    2  502  501 -0.36014013595E+01 -0.27485071701E+02 -0.27556004923E+02  0.39086220916E+02  0.00000000000E+00 0. -1.
<mgrwt>
<rscale>  1 0.30000000E+03</rscale>
<asrwt>0</asrwt>
<pdfrwt beam="1">  1        1 0.12137659E+00 0.30000000E+03</pdfrwt>
<pdfrwt beam="2">0</pdfrwt>
<totfact> 0.25535635E+01</totfact>
</mgrwt>
</event>
<event>
 6    1  0.1950139E-004  0.3000000E+03  0.7818608E-02  0.1093470E+00
          1   -1    0    0  502    0  0.00000000000E+00  0.00000000000E+00  0.46540535277E+02  0.46540535277E+02  0.00000000000E+00 0.  1.
         13   -1    0    0    0    0 -0.00000000000E+00 -0.00000000000E+00 -0.10000000000E+04  0.10000000000E+04  0.00000000000E+00 0.  1.
    9000005    2    1    2  501    0 -0.15850176005E+02 -0.63387690588E+01 -0.97609132540E+03  0.10181925338E+04  0.28925827937E+03 0.  0.
         13    1    3    3    0    0 -0.69631127356E+02 -0.12510506243E+03 -0.67612004250E+03  0.69111365376E+03  0.00000000000E+00 0.  1.
          1    1    3    3  501    0  0.53780951351E+02  0.11876629337E+03 -0.29997128290E+03  0.32707887999E+03  0.00000000000E+00 0.  1.
         21    1    1    2  502  501  0.15850176005E+02  0.63387690588E+01  0.22631860681E+02  0.28348001525E+02  0.00000000000E+00 0.  1.
<mgrwt>
<rscale>  1 0.30000000E+03</rscale>
<asrwt>0</asrwt>
<pdfrwt beam="1">  1        1 0.16923867E+00 0.30000000E+03</pdfrwt>
<pdfrwt beam="2">0</pdfrwt>
<totfact> 0.14410196E+01</totfact>
</mgrwt>
</event>
<event>
 6    1  0.1950139E-004  0.3000000E+03  0.7818608E-02  0.1093470E+00
          1   -1    0    0  502    0  0.00000000000E+00  0.00000000000E+00  0.35263801126E+02  0.35263801126E+02  0.00000000000E+00 0.  1.
         13   -1    0    0    0    0 -0.00000000000E+00 -0.00000000000E+00 -0.10000000000E+04  0.10000000000E+04  0.00000000000E+00 0.  1.
    9000005    2    1    2  501    0 -0.13301439542E+02 -0.14954901215E+01 -0.96424049190E+03  0.10218693803E+04  0.33805049820E+03 0.  0.
         13    1    3    3    0    0 -0.11155595579E+03 -0.11319231821E+03 -0.70762904544E+03  0.72525588459E+03  0.00000000000E+00 0.  1.
          1    1    3    3  501    0  0.98254516248E+02  0.11169682809E+03 -0.25661144646E+03  0.29661349569E+03  0.00000000000E+00 0.  1.
         21    1    1    2  502  501  0.13301439542E+02  0.14954901215E+01 -0.49570697079E+00  0.13394420853E+02  0.00000000000E+00 0. -1.
<mgrwt>
<rscale>  1 0.30000000E+03</rscale>
<asrwt>0</asrwt>
<pdfrwt beam="1">  1        1 0.12823227E+00 0.30000000E+03</pdfrwt>
<pdfrwt beam="2">0</pdfrwt>
<totfact> 0.23394220E+01</totfact>
</mgrwt>
</event>
<event>
 6    1  0.1950139E-004  0.3000000E+03  0.7818608E-02  0.1093470E+00
          1   -1    0    0  502    0  0.00000000000E+00  0.00000000000E+00  0.53855585603E+02  0.53855585603E+02  0.00000000000E+00 0.  1.
         13   -1    0    0    0    0 -0.00000000000E+00 -0.00000000000E+00 -0.10000000000E+04  0.10000000000E+04  0.00000000000E+00 0.  1.
    9000005    2    1    2  501    0 -0.47959705191E+02  0.83578155835E+02 -0.85435803398E+03  0.92077598129E+03  0.32956837839E+03 0.  0.
         13    1    3    3    0    0 -0.12737032189E+03 -0.27113538909E+02 -0.13104626696E+03  0.18474703509E+03  0.00000000000E+00 0.  1.
          3    1    3    3  501    0  0.79410616701E+02  0.11069169474E+03 -0.72331176702E+03  0.73602894619E+03  0.00000000000E+00 0.  1.
         21    1    1    2  502  501  0.47959705191E+02 -0.83578155835E+02 -0.91786380420E+02  0.13307960432E+03  0.00000000000E+00 0.  1.
<mgrwt>
<rscale>  1 0.30000000E+03</rscale>
<asrwt>0</asrwt>
<pdfrwt beam="1">  1        1 0.19583891E+00 0.30000000E+03</pdfrwt>
<pdfrwt beam="2">0</pdfrwt>
<totfact> 0.10721402E+01</totfact>
</mgrwt>
</event>
<event>
 6    1  0.1950139E-004  0.3000000E+03  0.7818608E-02  0.1093470E+00
          1   -1    0    0  502    0  0.00000000000E+00  0.00000000000E+00  0.27978134833E+02  0.27978134833E+02  0.00000000000E+00 0.  1.
         13   -1    0    0    0    0 -0.00000000000E+00 -0.00000000000E+00 -0.10000000000E+04  0.10000000000E+04  0.00000000000E+00 0.  1.
    9000005    2    1    2  501    0  0.81718580906E+00  0.10872980845E+02 -0.94505994714E+03  0.99889490033E+03  0.32331691686E+03 0.  0.
         13    1    3    3    0    0  0.98409523692E+02  0.11206852020E+03 -0.26162776654E+03  0.30115257893E+03  0.00000000000E+00 0.  1.
          3    1    3    3  501    0 -0.97592337883E+02 -0.10119553935E+03 -0.68343218060E+03  0.69774232140E+03  0.00000000000E+00 0.  1.
         21    1    1    2  502  501 -0.81718580906E+00 -0.10872980845E+02 -0.26961918031E+02  0.29083234500E+02  0.00000000000E+00 0. -1.
<mgrwt>
<rscale>  1 0.30000000E+03</rscale>
<asrwt>0</asrwt>
<pdfrwt beam="1">  1        1 0.10173889E+00 0.30000000E+03</pdfrwt>
<pdfrwt beam="2">0</pdfrwt>
<totfact> 0.33372753E+01</totfact>
</mgrwt>
</event>
<event>
 6    1  0.1950139E-004  0.3000000E+03  0.7818608E-02  0.1093470E+00
          1   -1    0    0  502    0  0.00000000000E+00  0.00000000000E+00  0.35271141322E+02  0.35271141322E+02  0.00000000000E+00 0.  1.
         13   -1    0    0    0    0 -0.00000000000E+00 -0.00000000000E+00 -0.10000000000E+04  0.10000000000E+04  0.00000000000E+00 0.  1.
    9000005    2    1    2  501    0  0.34424197091E+01 -0.11160460681E+02 -0.95716499412E+03  0.10213564662E+04  0.35618506284E+03 0.  0.
         13    1    3    3    0    0  0.13616992184E+03 -0.10247679981E+03 -0.67750379648E+03  0.69860943048E+03  0.00000000000E+00 0.  1.
          3    1    3    3  501    0 -0.13272750213E+03  0.91316339127E+02 -0.27966119764E+03  0.32274703574E+03  0.00000000000E+00 0.  1.
         21    1    1    2  502  501 -0.34424197091E+01  0.11160460681E+02 -0.75638645543E+01  0.13914675097E+02  0.00000000000E+00 0.  1.
<mgrwt>
<rscale>  1 0.30000000E+03</rscale>
<asrwt>0</asrwt>
<pdfrwt beam="1">  1        1 0.12825897E+00 0.30000000E+03</pdfrwt>
<pdfrwt beam="2">0</pdfrwt>
<totfact> 0.23386341E+01</totfact>
</mgrwt>
</event>
<event>
 6    1  0.1950139E-004  0.3000000E+03  0.7818608E-02  0.1093470E+00
          1   -1    0    0  502    0  0.00000000000E+00  0.00000000000E+00  0.27728994286E+02  0.27728994286E+02  0.00000000000E+00 0.  1.
         13   -1    0    0    0    0 -0.00000000000E+00 -0.00000000000E+00 -0.10000000000E+04  0.10000000000E+04  0.00000000000E+00 0.  1.
    9000005    2    1    2  501    0 -0.27231285233E+01 -0.70278647223E+01 -0.94994361609E+03  0.10041637945E+04  0.32541549780E+03 0.  0.
         13    1    3    3    0    0  0.10208381254E+03 -0.10308507428E+03 -0.71487811091E+03  0.72945071854E+03  0.00000000000E+00 0.  1.
          1    1    3    3  501    0 -0.10480694106E+03  0.96057209553E+02 -0.23506550518E+03  0.27471307600E+03  0.00000000000E+00 0.  1.
         21    1    1    2  502  501  0.27231285233E+01  0.70278647223E+01 -0.22327389624E+02  0.23565199743E+02  0.00000000000E+00 0. -1.
<mgrwt>
<rscale>  1 0.30000000E+03</rscale>
<asrwt>0</asrwt>
<pdfrwt beam="1">  1        1 0.10083292E+00 0.30000000E+03</pdfrwt>
<pdfrwt beam="2">0</pdfrwt>
<totfact> 0.33813833E+01</totfact>
</mgrwt>
</event>
<event>
 6    1  0.1950139E-004  0.3000000E+03  0.7818608E-02  0.1093470E+00
          1   -1    0    0  502    0  0.00000000000E+00  0.00000000000E+00  0.51384708740E+02  0.51384708740E+02  0.00000000000E+00 0.  1.
         13   -1    0    0    0    0 -0.00000000000E+00 -0.00000000000E+00 -0.10000000000E+04  0.10000000000E+04  0.00000000000E+00 0.  1.
    9000005    2    1    2  501    0  0.34663642769E+02 -0.42770532798E+02 -0.90314040569E+03  0.97997846375E+03  0.37638319625E+03 0.  0.
         13    1    3    3    0    0  0.86166155924E+02  0.15298490547E+02 -0.89793156954E+03  0.90218609711E+03  0.00000000000E+00 0.  1.
          1    1    3    3  501    0 -0.51502513155E+02 -0.58069023345E+02 -0.52088361498E+01  0.77792366641E+02  0.00000000000E+00 0.  1.
         21    1    1    2  502  501 -0.34663642769E+02  0.42770532798E+02 -0.45474885565E+02  0.71406244986E+02  0.00000000000E+00 0.  1.
<mgrwt>
<rscale>  1 0.30000000E+03</rscale>
<asrwt>0</asrwt>
<pdfrwt beam="1">  1        1 0.18685388E+00 0.30000000E+03</pdfrwt>
<pdfrwt beam="2">0</pdfrwt>
<totfact> 0.11838874E+01</totfact>
</mgrwt>
</event>
<event>
 6    1  0.1950139E-004  0.3000000E+03  0.7818608E-02  0.1093470E+00
          1   -1    0    0  502    0  0.00000000000E+00  0.00000000000E+00  0.12572375991E+03  0.12572375991E+03  0.00000000000E+00 0.  1.
         13   -1    0    0    0    0 -0.00000000000E+00 -0.00000000000E+00 -0.10000000000E+04  0.10000000000E+04  0.00000000000E+00 0.  1.
    9000005    2    1    2  501    0 -0.18845075055E+03 -0.56647045753E+02 -0.83990840754E+03  0.92596460220E+03  0.33651409819E+03 0.  0.
         13    1    3    3    0    0 -0.43212702108E+01  0.22473061229E+02  0.27459314625E+02  0.35745290836E+02  0.00000000000E+00 0.  1.
          3    1    3    3  501    0 -0.18412948034E+03 -0.79120106982E+02 -0.86736772217E+03  0.89021931136E+03  0.00000000000E+00 0.  1.
         21    1    1    2  502  501  0.18845075055E+03  0.56647045753E+02 -0.34367832549E+02  0.19975915771E+03  0.00000000000E+00 0.  1.
<mgrwt>
<rscale>  1 0.30000000E+03</rscale>
<asrwt>0</asrwt>
<pdfrwt beam="1">  1        1 0.45717827E+00 0.30000000E+03</pdfrwt>
<pdfrwt beam="2">0</pdfrwt>
<totfact> 0.46044662E-01</totfact>
</mgrwt>
</event>
<event>
 6    1  0.1950139E-004  0.3000000E+03  0.7818608E-02  0.1093470E+00
          1   -1    0    0  502    0  0.00000000000E+00  0.00000000000E+00  0.73750466475E+02  0.73750466475E+02  0.00000000000E+00 0.  1.
         13   -1    0    0    0    0 -0.00000000000E+00 -0.00000000000E+00 -0.10000000000E+04  0.10000000000E+04  0.00000000000E+00 0.  1.
    9000005    2    1    2  501    0 -0.54726657972E+02  0.13156686481E+03 -0.62818163945E+03  0.74337293018E+03  0.37106103835E+03 0.  0.
         13    1    3    3    0    0 -0.14272605262E+03  0.20362671600E+03 -0.55490289749E+03  0.60807219244E+03  0.00000000000E+00 0.  1.
          1    1    3    3  501    0  0.87999394649E+02 -0.72059851194E+02 -0.73278741955E+02  0.13530073775E+03  0.00000000000E+00 0.  1.
         21    1    1    2  502  501  0.54726657972E+02 -0.13156686481E+03 -0.29806789408E+03  0.33037753629E+03  0.00000000000E+00 0.  1.
<mgrwt>
<rscale>  1 0.30000000E+03</rscale>
<asrwt>0</asrwt>
<pdfrwt beam="1">  1        1 0.26818408E+00 0.30000000E+03</pdfrwt>
<pdfrwt beam="2">0</pdfrwt>
<totfact> 0.49034502E+00</totfact>
</mgrwt>
</event>
<event>
 6    1  0.1950139E-004  0.3000000E+03  0.7818608E-02  0.1093470E+00
          1   -1    0    0  502    0  0.00000000000E+00  0.00000000000E+00  0.42799824877E+02  0.42799824877E+02  0.00000000000E+00 0.  1.
         13   -1    0    0    0    0 -0.00000000000E+00 -0.00000000000E+00 -0.10000000000E+04  0.10000000000E+04  0.00000000000E+00 0.  1.
    9000005    2    1    2  501    0 -0.18735238569E+02  0.16149073394E+02 -0.96308351613E+03  0.10173751236E+04  0.32697168267E+03 0.  0.
         13    1    3    3    0    0 -0.84949420052E+02 -0.13575775472E+03 -0.41663850546E+03  0.44635660202E+03  0.00000000000E+00 0.  1.
          3    1    3    3  501    0  0.66214181483E+02  0.15190682812E+03 -0.54644501066E+03  0.57101852154E+03  0.00000000000E+00 0.  1.
         21    1    1    2  502  501  0.18735238569E+02 -0.16149073394E+02  0.58833410036E+01  0.25424701318E+02  0.00000000000E+00 0.  1.
<mgrwt>
<rscale>  1 0.30000000E+03</rscale>
<asrwt>0</asrwt>
<pdfrwt beam="1">  1        1 0.15563606E+00 0.30000000E+03</pdfrwt>
<pdfrwt beam="2">0</pdfrwt>
<totfact> 0.16825863E+01</totfact>
</mgrwt>
</event>
<event>
 6    1  0.1950139E-004  0.3000000E+03  0.7818608E-02  0.1093470E+00
          1   -1    0    0  502    0  0.00000000000E+00  0.00000000000E+00  0.11099611284E+03  0.11099611284E+03  0.00000000000E+00 0.  1.
         13   -1    0    0    0    0 -0.00000000000E+00 -0.00000000000E+00 -0.10000000000E+04  0.10000000000E+04  0.00000000000E+00 0.  1.
    9000005    2    1    2  501    0 -0.10880299762E+02  0.68094037296E+00 -0.95774990431E+03  0.10413910881E+04  0.40876848517E+03 0.  0.
         13    1    3    3    0    0  0.18215557599E+03  0.62338504264E+02 -0.60124157493E+03  0.63131463978E+03  0.00000000000E+00 0.  1.
          1    1    3    3  501    0 -0.19303587575E+03 -0.61657563891E+02 -0.35650832938E+03  0.41007644827E+03  0.00000000000E+00 0.  1.
         21    1    1    2  502  501  0.10880299762E+02 -0.68094037296E+00  0.68746017150E+02  0.69605024795E+02  0.00000000000E+00 0.  1.
<mgrwt>
<rscale>  1 0.30000000E+03</rscale>
<asrwt>0</asrwt>
<pdfrwt beam="1">  1        1 0.40362308E+00 0.30000000E+03</pdfrwt>
<pdfrwt beam="2">0</pdfrwt>
<totfact> 0.10039421E+00</totfact>
</mgrwt>
</event>
<event>
 6    1  0.1950139E-004  0.3000000E+03  0.7818608E-02  0.1093470E+00
          1   -1    0    0  502    0  0.00000000000E+00  0.00000000000E+00  0.37396132892E+02  0.37396132892E+02  0.00000000000E+00 0.  1.
         13   -1    0    0    0    0 -0.00000000000E+00 -0.00000000000E+00 -0.10000000000E+04  0.10000000000E+04  0.00000000000E+00 0.  1.
    9000005    2    1    2  501    0 -0.14476432409E+02 -0.19147299573E+02 -0.96018587646E+03  0.10132707758E+04  0.32277633363E+03 0.  0.
         13    1    3    3    0    0 -0.10740417465E+03 -0.95428279430E+02 -0.21589045175E+03  0.25932778564E+03  0.00000000000E+00 0.  1.
          3    1    3    3  501    0  0.92927742237E+02  0.76280979857E+02 -0.74429542471E+03  0.75394299016E+03  0.00000000000E+00 0.  1.
         21    1    1    2  502  501  0.14476432409E+02  0.19147299573E+02 -0.24179906472E+01  0.24125357095E+02  0.00000000000E+00 0.  1.
<mgrwt>
<rscale>  1 0.30000000E+03</rscale>
<asrwt>0</asrwt>
<pdfrwt beam="1">  1        1 0.13598622E+00 0.30000000E+03</pdfrwt>
<pdfrwt beam="2">0</pdfrwt>
<totfact> 0.21243897E+01</totfact>
</mgrwt>
</event>
<event>
 6    1  0.1950139E-004  0.3000000E+03  0.7818608E-02  0.1093470E+00
          1   -1    0    0  502    0  0.00000000000E+00  0.00000000000E+00  0.30679734475E+02  0.30679734475E+02  0.00000000000E+00 0.  1.
         13   -1    0    0    0    0 -0.00000000000E+00 -0.00000000000E+00 -0.10000000000E+04  0.10000000000E+04  0.00000000000E+00 0.  1.
    9000005    2    1    2  501    0 -0.34913332732E+01 -0.84760284211E+01 -0.95468791417E+03  0.10134130564E+04  0.33984257670E+03 0.  0.
         13    1    3    3    0    0  0.59670410177E+02  0.11903066184E+03 -0.76383778895E+03  0.77535606281E+03  0.00000000000E+00 0.  1.
          1    1    3    3  501    0 -0.63161743450E+02 -0.12750669026E+03 -0.19085012522E+03  0.23805699359E+03  0.00000000000E+00 0.  1.
         21    1    1    2  502  501  0.34913332732E+01  0.84760284211E+01 -0.14632351351E+02  0.17266678079E+02  0.00000000000E+00 0.  1.
<mgrwt>
<rscale>  1 0.30000000E+03</rscale>
<asrwt>0</asrwt>
<pdfrwt beam="1">  1        1 0.11156291E+00 0.30000000E+03</pdfrwt>
<pdfrwt beam="2">0</pdfrwt>
<totfact> 0.29081937E+01</totfact>
</mgrwt>
</event>
<event>
 6    1  0.1950139E-004  0.3000000E+03  0.7818608E-02  0.1093470E+00
          1   -1    0    0  502    0  0.00000000000E+00  0.00000000000E+00  0.62060163082E+02  0.62060163082E+02  0.00000000000E+00 0.  1.
         13   -1    0    0    0    0 -0.00000000000E+00 -0.00000000000E+00 -0.10000000000E+04  0.10000000000E+04  0.00000000000E+00 0.  1.
    9000005    2    1    2  501    0 -0.11585368843E+02 -0.14149868527E+02 -0.97141622849E+03  0.10239142807E+04  0.32313546026E+03 0.  0.
         13    1    3    3    0    0  0.16652108486E+02 -0.11582380352E+03 -0.12606458136E+03  0.17200210712E+03  0.00000000000E+00 0.  1.
          1    1    3    3  501    0 -0.28237477328E+02  0.10167393499E+03 -0.84535164713E+03  0.85191217357E+03  0.00000000000E+00 0.  1.
         21    1    1    2  502  501  0.11585368843E+02  0.14149868527E+02  0.33476391573E+02  0.38145882390E+02  0.00000000000E+00 0.  1.
<mgrwt>
<rscale>  1 0.30000000E+03</rscale>
<asrwt>0</asrwt>
<pdfrwt beam="1">  1        1 0.22567380E+00 0.30000000E+03</pdfrwt>
<pdfrwt beam="2">0</pdfrwt>
<totfact> 0.77538178E+00</totfact>
</mgrwt>
</event>
<event>
 6    1  0.1950139E-004  0.3000000E+03  0.7818608E-02  0.1093470E+00
          1   -1    0    0  502    0  0.00000000000E+00  0.00000000000E+00  0.43954024274E+02  0.43954024274E+02  0.00000000000E+00 0.  1.
         13   -1    0    0    0    0 -0.00000000000E+00 -0.00000000000E+00 -0.10000000000E+04  0.10000000000E+04  0.00000000000E+00 0.  1.
    9000005    2    1    2  501    0  0.20564126967E+02 -0.43966667730E+02 -0.93585350010E+03  0.99138324093E+03  0.32351662332E+03 0.  0.
         13    1    3    3    0    0 -0.70541308060E+02 -0.24630135036E+02 -0.87920332765E+03  0.88237248997E+03  0.00000000000E+00 0.  1.
          3    1    3    3  501    0  0.91105435026E+02 -0.19336532694E+02 -0.56650172445E+02  0.10901075097E+03  0.00000000000E+00 0.  1.
         21    1    1    2  502  501 -0.20564126967E+02  0.43966667730E+02 -0.20192475628E+02  0.52570783342E+02  0.00000000000E+00 0.  1.
<mgrwt>
<rscale>  1 0.30000000E+03</rscale>
<asrwt>0</asrwt>
<pdfrwt beam="1">  1        1 0.15983315E+00 0.30000000E+03</pdfrwt>
<pdfrwt beam="2">0</pdfrwt>
<totfact> 0.16033622E+01</totfact>
</mgrwt>
</event>
<event>
 6    1  0.1950139E-004  0.3000000E+03  0.7818608E-02  0.1093470E+00
          1   -1    0    0  502    0  0.00000000000E+00  0.00000000000E+00  0.34875961232E+02  0.34875961232E+02  0.00000000000E+00 0.  1.
         13   -1    0    0    0    0 -0.00000000000E+00 -0.00000000000E+00 -0.10000000000E+04  0.10000000000E+04  0.00000000000E+00 0.  1.
    9000005    2    1    2  501    0  0.14228226248E+02 -0.16569683112E+02 -0.95304342410E+03  0.10099172339E+04  0.33341273856E+03 0.  0.
         13    1    3    3    0    0  0.87243284215E+02 -0.15140050787E+03 -0.60201659006E+03  0.62686320607E+03  0.00000000000E+00 0.  1.
          3    1    3    3  501    0 -0.73015057966E+02  0.13483082476E+03 -0.35102683404E+03  0.38305402780E+03  0.00000000000E+00 0.  1.
         21    1    1    2  502  501 -0.14228226248E+02  0.16569683112E+02 -0.12080614668E+02  0.24958727359E+02  0.00000000000E+00 0.  1.
<mgrwt>
<rscale>  1 0.30000000E+03</rscale>
<asrwt>0</asrwt>
<pdfrwt beam="1">  1        1 0.12682194E+00 0.30000000E+03</pdfrwt>
<pdfrwt beam="2">0</pdfrwt>
<totfact> 0.23815391E+01</totfact>
</mgrwt>
</event>
<event>
 6    1  0.1950139E-004  0.3000000E+03  0.7818608E-02  0.1093470E+00
          1   -1    0    0  502    0  0.00000000000E+00  0.00000000000E+00  0.43962222378E+02  0.43962222378E+02  0.00000000000E+00 0.  1.
         13   -1    0    0    0    0 -0.00000000000E+00 -0.00000000000E+00 -0.10000000000E+04  0.10000000000E+04  0.00000000000E+00 0.  1.
    9000005    2    1    2  501    0  0.19045772823E+02  0.60289854262E+02 -0.88448180966E+03  0.94847471251E+03  0.33659857496E+03 0.  0.
         13    1    3    3    0    0  0.13271642930E+03  0.12492477561E+03 -0.31278532143E+03  0.36201451279E+03  0.00000000000E+00 0.  1.
          3    1    3    3  501    0 -0.11367065648E+03 -0.64634921351E+02 -0.57169648823E+03  0.58646019972E+03  0.00000000000E+00 0.  1.
         21    1    1    2  502  501 -0.19045772823E+02 -0.60289854262E+02 -0.71555967963E+02  0.95487509866E+02  0.00000000000E+00 0.  1.
<mgrwt>
<rscale>  1 0.30000000E+03</rscale>
<asrwt>0</asrwt>
<pdfrwt beam="1">  1        1 0.15986296E+00 0.30000000E+03</pdfrwt>
<pdfrwt beam="2">0</pdfrwt>
<totfact> 0.16028154E+01</totfact>
</mgrwt>
</event>
<event>
 6    1  0.1950139E-004  0.3000000E+03  0.7818608E-02  0.1093470E+00
          1   -1    0    0  502    0  0.00000000000E+00  0.00000000000E+00  0.37666632305E+02  0.37666632305E+02  0.00000000000E+00 0.  1.
         13   -1    0    0    0    0 -0.00000000000E+00 -0.00000000000E+00 -0.10000000000E+04  0.10000000000E+04  0.00000000000E+00 0.  1.
    9000005    2    1    2  501    0  0.40670853325E+02  0.17705948332E+02 -0.92915151933E+03  0.98227119949E+03  0.31554166847E+03 0.  0.
         13    1    3    3    0    0 -0.10080767489E+03 -0.62296772323E+02 -0.63721258111E+03  0.64813806298E+03  0.00000000000E+00 0.  1.
          3    1    3    3  501    0  0.14147852822E+03  0.80002720656E+02 -0.29193893822E+03  0.33413313650E+03  0.00000000000E+00 0.  1.
         21    1    1    2  502  501 -0.40670853325E+02 -0.17705948332E+02 -0.33181848362E+02  0.55395432820E+02  0.00000000000E+00 0. -1.
<mgrwt>
<rscale>  1 0.30000000E+03</rscale>
<asrwt>0</asrwt>
<pdfrwt beam="1">  1        1 0.13696986E+00 0.30000000E+03</pdfrwt>
<pdfrwt beam="2">0</pdfrwt>
<totfact> 0.20990071E+01</totfact>
</mgrwt>
</event>
<event>
 6    1  0.1950139E-004  0.3000000E+03  0.7818608E-02  0.1093470E+00
          1   -1    0    0  502    0  0.00000000000E+00  0.00000000000E+00  0.28519589396E+02  0.28519589396E+02  0.00000000000E+00 0.  1.
         13   -1    0    0    0    0 -0.00000000000E+00 -0.00000000000E+00 -0.10000000000E+04  0.10000000000E+04  0.00000000000E+00 0.  1.
    9000005    2    1    2  501    0 -0.10572764370E+02  0.69022694259E+01 -0.96695694083E+03  0.10151074140E+04  0.30867120356E+03 0.  0.
         13    1    3    3    0    0  0.79461501832E+02 -0.91597605808E+02 -0.18076404131E+03  0.21766922220E+03  0.00000000000E+00 0.  1.
          1    1    3    3  501    0 -0.90034266203E+02  0.98499875234E+02 -0.78619289951E+03  0.79743819181E+03  0.00000000000E+00 0.  1.
         21    1    1    2  502  501  0.10572764370E+02 -0.69022694259E+01 -0.45234697779E+01  0.13412175382E+02  0.00000000000E+00 0. -1.
<mgrwt>
<rscale>  1 0.30000000E+03</rscale>
<asrwt>0</asrwt>
<pdfrwt beam="1">  1        1 0.10370782E+00 0.30000000E+03</pdfrwt>
<pdfrwt beam="2">0</pdfrwt>
<totfact> 0.32442727E+01</totfact>
</mgrwt>
</event>
<event>
 6    1  0.1950139E-004  0.3000000E+03  0.7818608E-02  0.1093470E+00
          1   -1    0    0  502    0  0.00000000000E+00  0.00000000000E+00  0.31425501305E+02  0.31425501305E+02  0.00000000000E+00 0.  1.
         13   -1    0    0    0    0 -0.00000000000E+00 -0.00000000000E+00 -0.10000000000E+04  0.10000000000E+04  0.00000000000E+00 0.  1.
    9000005    2    1    2  501    0  0.62565249730E-01  0.97152664357E+01 -0.95936135444E+03  0.10180362391E+04  0.34048375194E+03 0.  0.
         13    1    3    3    0    0  0.82024746445E+01  0.12085592832E+03 -0.11725619880E+03  0.16858959683E+03  0.00000000000E+00 0.  1.
          1    1    3    3  501    0 -0.81399093948E+01 -0.11114066189E+03 -0.84210515564E+03  0.84944664223E+03  0.00000000000E+00 0.  1.
         21    1    1    2  502  501 -0.62565249730E-01 -0.97152664357E+01 -0.92131442581E+01  0.13389262244E+02  0.00000000000E+00 0. -1.
<mgrwt>
<rscale>  1 0.30000000E+03</rscale>
<asrwt>0</asrwt>
<pdfrwt beam="1">  1        1 0.11427479E+00 0.30000000E+03</pdfrwt>
<pdfrwt beam="2">0</pdfrwt>
<totfact> 0.28036621E+01</totfact>
</mgrwt>
</event>
<event>
 6    1  0.1950139E-004  0.3000000E+03  0.7818608E-02  0.1093470E+00
          1   -1    0    0  502    0  0.00000000000E+00  0.00000000000E+00  0.50062014261E+02  0.50062014261E+02  0.00000000000E+00 0.  1.
         13   -1    0    0    0    0 -0.00000000000E+00 -0.00000000000E+00 -0.10000000000E+04  0.10000000000E+04  0.00000000000E+00 0.  1.
    9000005    2    1    2  501    0  0.80349403853E+01 -0.97441338205E+02 -0.71900732417E+03  0.79928652680E+03  0.33515376330E+03 0.  0.
         13    1    3    3    0    0  0.12871840052E+03 -0.12074854093E+03 -0.60993469453E+03  0.63495587907E+03  0.00000000000E+00 0.  1.
          1    1    3    3  501    0 -0.12068346013E+03  0.23307202728E+02 -0.10907262964E+03  0.16433064774E+03  0.00000000000E+00 0.  1.
         21    1    1    2  502  501 -0.80349403853E+01  0.97441338205E+02 -0.23093066157E+03  0.25077548746E+03  0.00000000000E+00 0. -1.
<mgrwt>
<rscale>  1 0.30000000E+03</rscale>
<asrwt>0</asrwt>
<pdfrwt beam="1">  1        1 0.18204407E+00 0.30000000E+03</pdfrwt>
<pdfrwt beam="2">0</pdfrwt>
<totfact> 0.12487229E+01</totfact>
</mgrwt>
</event>
<event>
 6    1  0.1950139E-004  0.3000000E+03  0.7818608E-02  0.1093470E+00
          1   -1    0    0  502    0  0.00000000000E+00  0.00000000000E+00  0.31799612775E+02  0.31799612775E+02  0.00000000000E+00 0.  1.
         13   -1    0    0    0    0 -0.00000000000E+00 -0.00000000000E+00 -0.10000000000E+04  0.10000000000E+04  0.00000000000E+00 0.  1.
    9000005    2    1    2  501    0 -0.21202562314E+02  0.15454899776E+02 -0.92743633374E+03  0.98332167313E+03  0.32572220853E+03 0.  0.
         13    1    3    3    0    0 -0.53271825922E+02 -0.11965783011E+03 -0.17726665339E+03  0.22040723706E+03  0.00000000000E+00 0.  1.
          1    1    3    3  501    0  0.32069263608E+02  0.13511272989E+03 -0.75016968035E+03  0.76291443607E+03  0.00000000000E+00 0.  1.
         21    1    1    2  502  501  0.21202562314E+02 -0.15454899776E+02 -0.40764053487E+02  0.48477939647E+02  0.00000000000E+00 0. -1.
<mgrwt>
<rscale>  1 0.30000000E+03</rscale>
<asrwt>0</asrwt>
<pdfrwt beam="1">  1        1 0.11563520E+00 0.30000000E+03</pdfrwt>
<pdfrwt beam="2">0</pdfrwt>
<totfact> 0.27532208E+01</totfact>
</mgrwt>
</event>
<event>
 6    1  0.1950139E-004  0.3000000E+03  0.7818608E-02  0.1093470E+00
          1   -1    0    0  502    0  0.00000000000E+00  0.00000000000E+00  0.81516877221E+02  0.81516877221E+02  0.00000000000E+00 0.  1.
         13   -1    0    0    0    0 -0.00000000000E+00 -0.00000000000E+00 -0.10000000000E+04  0.10000000000E+04  0.00000000000E+00 0.  1.
    9000005    2    1    2  501    0 -0.54059300016E+02 -0.64810995059E+02 -0.93819073238E+03  0.99484933500E+03  0.32000074378E+03 0.  0.
         13    1    3    3    0    0  0.46491223608E+02  0.15454102401E+02 -0.11382877749E+01  0.49005702247E+02  0.00000000000E+00 0.  1.
          3    1    3    3  501    0 -0.10055052362E+03 -0.80265097459E+02 -0.93705244461E+03  0.94584363275E+03  0.00000000000E+00 0.  1.
         21    1    1    2  502  501  0.54059300016E+02  0.64810995059E+02  0.19707609603E+02  0.86667542223E+02  0.00000000000E+00 0.  1.
<mgrwt>
<rscale>  1 0.30000000E+03</rscale>
<asrwt>0</asrwt>
<pdfrwt beam="1">  1        1 0.29642563E+00 0.30000000E+03</pdfrwt>
<pdfrwt beam="2">0</pdfrwt>
<totfact> 0.36125840E+00</totfact>
</mgrwt>
</event>
<event>
 6    1  0.1950139E-004  0.3000000E+03  0.7818608E-02  0.1093470E+00
          1   -1    0    0  502    0  0.00000000000E+00  0.00000000000E+00  0.30628664780E+02  0.30628664780E+02  0.00000000000E+00 0.  1.
         13   -1    0    0    0    0 -0.00000000000E+00 -0.00000000000E+00 -0.10000000000E+04  0.10000000000E+04  0.00000000000E+00 0.  1.
    9000005    2    1    2  501    0 -0.17886507834E+02 -0.63970541417E+01 -0.93564364505E+03  0.99191940816E+03  0.32880728746E+03 0.  0.
         13    1    3    3    0    0 -0.12527984139E+03  0.74984280094E+02 -0.74061691250E+03  0.75487157318E+03  0.00000000000E+00 0.  1.
          3    1    3    3  501    0  0.10739333356E+03 -0.81381334236E+02 -0.19502673255E+03  0.23704783497E+03  0.00000000000E+00 0.  1.
         21    1    1    2  502  501  0.17886507834E+02  0.63970541417E+01 -0.33727690169E+02  0.38709256623E+02  0.00000000000E+00 0. -1.
<mgrwt>
<rscale>  1 0.30000000E+03</rscale>
<asrwt>0</asrwt>
<pdfrwt beam="1">  1        1 0.11137720E+00 0.30000000E+03</pdfrwt>
<pdfrwt beam="2">0</pdfrwt>
<totfact> 0.29155535E+01</totfact>
</mgrwt>
</event>
<event>
 6    1  0.1950139E-004  0.3000000E+03  0.7818608E-02  0.1093470E+00
          1   -1    0    0  502    0  0.00000000000E+00  0.00000000000E+00  0.33490562920E+02  0.33490562920E+02  0.00000000000E+00 0.  1.
         13   -1    0    0    0    0 -0.00000000000E+00 -0.00000000000E+00 -0.10000000000E+04  0.10000000000E+04  0.00000000000E+00 0.  1.
    9000005    2    1    2  501    0  0.17904139147E+02 -0.12903110966E+02 -0.95307741440E+03  0.10076551666E+04  0.32638218151E+03 0.  0.
         13    1    3    3    0    0 -0.32385644732E+02  0.13969793606E+03 -0.63866975120E+03  0.65457115306E+03  0.00000000000E+00 0.  1.
          1    1    3    3  501    0  0.50289783879E+02 -0.15260104702E+03 -0.31440766320E+03  0.35308401351E+03  0.00000000000E+00 0.  1.
         21    1    1    2  502  501 -0.17904139147E+02  0.12903110966E+02 -0.13432022675E+02  0.25835396346E+02  0.00000000000E+00 0.  1.
<mgrwt>
<rscale>  1 0.30000000E+03</rscale>
<asrwt>0</asrwt>
<pdfrwt beam="1">  1        1 0.12178412E+00 0.30000000E+03</pdfrwt>
<pdfrwt beam="2">0</pdfrwt>
<totfact> 0.25401416E+01</totfact>
</mgrwt>
</event>
<event>
 6    1  0.1950139E-004  0.3000000E+03  0.7818608E-02  0.1093470E+00
          1   -1    0    0  502    0  0.00000000000E+00  0.00000000000E+00  0.34650826108E+02  0.34650826108E+02  0.00000000000E+00 0.  1.
         13   -1    0    0    0    0 -0.00000000000E+00 -0.00000000000E+00 -0.10000000000E+04  0.10000000000E+04  0.00000000000E+00 0.  1.
    9000005    2    1    2  501    0  0.12427769818E+01  0.12423389708E+02 -0.96365833268E+03  0.10220514590E+04  0.34028799226E+03 0.  0.
         13    1    3    3    0    0  0.58747920616E+02 -0.15379423069E+03 -0.46534192514E+03  0.49360621032E+03  0.00000000000E+00 0.  1.
          3    1    3    3  501    0 -0.57505143634E+02  0.16621762040E+03 -0.49831640754E+03  0.52844524873E+03  0.00000000000E+00 0.  1.
         21    1    1    2  502  501 -0.12427769818E+01 -0.12423389708E+02 -0.16908412099E+01  0.12599367066E+02  0.00000000000E+00 0.  1.
<mgrwt>
<rscale>  1 0.30000000E+03</rscale>
<asrwt>0</asrwt>
<pdfrwt beam="1">  1        1 0.12600327E+00 0.30000000E+03</pdfrwt>
<pdfrwt beam="2">0</pdfrwt>
<totfact> 0.24064333E+01</totfact>
</mgrwt>
</event>
<event>
 6    1  0.1950139E-004  0.3000000E+03  0.7818608E-02  0.1093470E+00
          1   -1    0    0  502    0  0.00000000000E+00  0.00000000000E+00  0.51024548558E+02  0.51024548558E+02  0.00000000000E+00 0.  1.
         13   -1    0    0    0    0 -0.00000000000E+00 -0.00000000000E+00 -0.10000000000E+04  0.10000000000E+04  0.00000000000E+00 0.  1.
    9000005    2    1    2  501    0  0.11689191176E+02  0.10059058332E+02 -0.97054015667E+03  0.10245130726E+04  0.32778196780E+03 0.  0.
         13    1    3    3    0    0  0.12948698855E+03  0.10371013281E+03 -0.37150608701E+03  0.40686538872E+03  0.00000000000E+00 0.  1.
          1    1    3    3  501    0 -0.11779779737E+03 -0.93651074473E+02 -0.59903406966E+03  0.61764768390E+03  0.00000000000E+00 0.  1.
         21    1    1    2  502  501 -0.11689191176E+02 -0.10059058332E+02  0.21564705228E+02  0.26511475939E+02  0.00000000000E+00 0.  1.
<mgrwt>
<rscale>  1 0.30000000E+03</rscale>
<asrwt>0</asrwt>
<pdfrwt beam="1">  1        1 0.18554420E+00 0.30000000E+03</pdfrwt>
<pdfrwt beam="2">0</pdfrwt>
<totfact> 0.12011775E+01</totfact>
</mgrwt>
</event>
<event>
 6    1  0.1950139E-004  0.3000000E+03  0.7818608E-02  0.1093470E+00
          1   -1    0    0  502    0  0.00000000000E+00  0.00000000000E+00  0.40535184522E+02  0.40535184522E+02  0.00000000000E+00 0.  1.
         13   -1    0    0    0    0 -0.00000000000E+00 -0.00000000000E+00 -0.10000000000E+04  0.10000000000E+04  0.00000000000E+00 0.  1.
    9000005    2    1    2  501    0  0.58805984771E+01 -0.64800822933E+02 -0.84771653375E+03  0.91122390675E+03  0.32782916059E+03 0.  0.
         13    1    3    3    0    0  0.24586318447E+02 -0.96299371654E+02 -0.86501845903E+03  0.87070947537E+03  0.00000000000E+00 0.  1.
          1    1    3    3  501    0 -0.18705719970E+02  0.31498548721E+02  0.17301925280E+02  0.40514431373E+02  0.00000000000E+00 0.  1.
         21    1    1    2  502  501 -0.58805984771E+01  0.64800822933E+02 -0.11174828172E+03  0.12931127777E+03  0.00000000000E+00 0. -1.
<mgrwt>
<rscale>  1 0.30000000E+03</rscale>
<asrwt>0</asrwt>
<pdfrwt beam="1">  1        1 0.14740098E+00 0.30000000E+03</pdfrwt>
<pdfrwt beam="2">0</pdfrwt>
<totfact> 0.18522129E+01</totfact>
</mgrwt>
</event>
<event>
 6    1  0.1950139E-004  0.3000000E+03  0.7818608E-02  0.1093470E+00
          1   -1    0    0  502    0  0.00000000000E+00  0.00000000000E+00  0.22031833164E+02  0.22031833164E+02  0.00000000000E+00 0.  1.
         13   -1    0    0    0    0 -0.00000000000E+00 -0.00000000000E+00 -0.10000000000E+04  0.10000000000E+04  0.00000000000E+00 0.  1.
    9000005    2    1    2  501    0 -0.23993437396E+02  0.99968283032E+01 -0.92770536680E+03  0.96544587482E+03  0.26603170489E+03 0.  0.
         13    1    3    3    0    0 -0.72309201638E+02 -0.57321469112E+02 -0.11010612567E+03  0.14365838080E+03  0.00000000000E+00 0.  1.
          3    1    3    3  501    0  0.48315764242E+02  0.67318297415E+02 -0.81759924113E+03  0.82178749403E+03  0.00000000000E+00 0.  1.
         21    1    1    2  502  501  0.23993437396E+02 -0.99968283032E+01 -0.50262800033E+02  0.56585958341E+02  0.00000000000E+00 0. -1.
<mgrwt>
<rscale>  1 0.30000000E+03</rscale>
<asrwt>0</asrwt>
<pdfrwt beam="1">  1        1 0.80115926E-01 0.30000000E+03</pdfrwt>
<pdfrwt beam="2">0</pdfrwt>
<totfact> 0.46871859E+01</totfact>
</mgrwt>
</event>
<event>
 6    1  0.1950139E-004  0.3000000E+03  0.7818608E-02  0.1093470E+00
          3   -1    0    0  502    0  0.00000000000E+00  0.00000000000E+00  0.30450743907E+02  0.30450743907E+02  0.00000000000E+00 0.  1.
         13   -1    0    0    0    0 -0.00000000000E+00 -0.00000000000E+00 -0.10000000000E+04  0.10000000000E+04  0.00000000000E+00 0.  1.
    9000005    2    1    2  501    0 -0.12444076192E+02  0.51744847118E+01 -0.96366935299E+03  0.10157468810E+04  0.32078259618E+03 0.  0.
         13    1    3    3    0    0  0.50917920939E+02 -0.10079165847E+03 -0.12669466899E+03  0.16971485568E+03  0.00000000000E+00 0.  1.
          3    1    3    3  501    0 -0.63361997131E+02  0.10596614318E+03 -0.83697468400E+03  0.84603202530E+03  0.00000000000E+00 0.  1.
         21    1    1    2  502  501  0.12444076192E+02 -0.51744847118E+01 -0.58799031045E+01  0.14703862922E+02  0.00000000000E+00 0. -1.
<mgrwt>
<rscale>  1 0.30000000E+03</rscale>
<asrwt>0</asrwt>
<pdfrwt beam="1">  1        3 0.11073021E+00 0.30000000E+03</pdfrwt>
<pdfrwt beam="2">0</pdfrwt>
<totfact> 0.29564018E+00</totfact>
</mgrwt>
</event>
<event>
 6    1  0.1950139E-004  0.3000000E+03  0.7818608E-02  0.1093470E+00
          1   -1    0    0  502    0  0.00000000000E+00  0.00000000000E+00  0.35379267775E+02  0.35379267775E+02  0.00000000000E+00 0.  1.
         13   -1    0    0    0    0 -0.00000000000E+00 -0.00000000000E+00 -0.10000000000E+04  0.10000000000E+04  0.00000000000E+00 0.  1.
    9000005    2    1    2  501    0 -0.20236873588E+02 -0.87941387223E+01 -0.96155032915E+03  0.10131015816E+04  0.31829060796E+03 0.  0.
         13    1    3    3    0    0  0.11581439463E+03  0.17668457401E+02 -0.15271024431E+03  0.19247225023E+03  0.00000000000E+00 0.  1.
          1    1    3    3  501    0 -0.13605126822E+03 -0.26462596124E+02 -0.80884008484E+03  0.82062933132E+03  0.00000000000E+00 0.  1.
         21    1    1    2  502  501  0.20236873588E+02  0.87941387223E+01 -0.30704030718E+01  0.22277686225E+02  0.00000000000E+00 0.  1.
<mgrwt>
<rscale>  1 0.30000000E+03</rscale>
<asrwt>0</asrwt>
<pdfrwt beam="1">  1        1 0.12865215E+00 0.30000000E+03</pdfrwt>
<pdfrwt beam="2">0</pdfrwt>
<totfact> 0.23270683E+01</totfact>
</mgrwt>
</event>
<event>
 6    1  0.1950139E-004  0.3000000E+03  0.7818608E-02  0.1093470E+00
          1   -1    0    0  502    0  0.00000000000E+00  0.00000000000E+00  0.35885010701E+02  0.35885010701E+02  0.00000000000E+00 0.  1.
         13   -1    0    0    0    0 -0.00000000000E+00 -0.00000000000E+00 -0.10000000000E+04  0.10000000000E+04  0.00000000000E+00 0.  1.
    9000005    2    1    2  501    0  0.12241148646E+02 -0.47168490131E+00 -0.96957760318E+03  0.10224720186E+04  0.32437359942E+03 0.  0.
         13    1    3    3    0    0  0.45687091488E+02 -0.35584384961E+02 -0.97218608268E+03  0.97390930694E+03  0.00000000000E+00 0.  1.
          3    1    3    3  501    0 -0.33445942842E+02  0.35112700060E+02  0.26084794966E+01  0.48562711655E+02  0.00000000000E+00 0.  1.
         21    1    1    2  502  501 -0.12241148646E+02  0.47168490131E+00  0.54626138856E+01  0.13412992108E+02  0.00000000000E+00 0. -1.
<mgrwt>
<rscale>  1 0.30000000E+03</rscale>
<asrwt>0</asrwt>
<pdfrwt beam="1">  1        1 0.13049122E+00 0.30000000E+03</pdfrwt>
<pdfrwt beam="2">0</pdfrwt>
<totfact> 0.22739435E+01</totfact>
</mgrwt>
</event>
<event>
 6    1  0.1950139E-004  0.3000000E+03  0.7818608E-02  0.1093470E+00
          1   -1    0    0  502    0  0.00000000000E+00  0.00000000000E+00  0.35673045554E+02  0.35673045554E+02  0.00000000000E+00 0.  1.
         13   -1    0    0    0    0 -0.00000000000E+00 -0.00000000000E+00 -0.10000000000E+04  0.10000000000E+04  0.00000000000E+00 0.  1.
    9000005    2    1    2  501    0  0.11985595043E+02 -0.40288780296E+01 -0.97273923433E+03  0.10204857878E+04  0.30823649791E+03 0.  0.
         13    1    3    3    0    0  0.30039075121E+02  0.13779838267E+03 -0.68278783257E+03  0.69720152367E+03  0.00000000000E+00 0.  1.
          1    1    3    3  501    0 -0.18053480078E+02 -0.14182726070E+03 -0.28995140176E+03  0.32328426408E+03  0.00000000000E+00 0.  1.
         21    1    1    2  502  501 -0.11985595043E+02  0.40288780296E+01  0.84122798858E+01  0.15187257803E+02  0.00000000000E+00 0.  1.
<mgrwt>
<rscale>  1 0.30000000E+03</rscale>
<asrwt>0</asrwt>
<pdfrwt beam="1">  1        1 0.12972044E+00 0.30000000E+03</pdfrwt>
<pdfrwt beam="2">0</pdfrwt>
<totfact> 0.22960154E+01</totfact>
</mgrwt>
</event>
<event>
 6    1  0.1950139E-004  0.3000000E+03  0.7818608E-02  0.1093470E+00
          1   -1    0    0  502    0  0.00000000000E+00  0.00000000000E+00  0.32057112327E+02  0.32057112327E+02  0.00000000000E+00 0.  1.
         13   -1    0    0    0    0 -0.00000000000E+00 -0.00000000000E+00 -0.10000000000E+04  0.10000000000E+04  0.00000000000E+00 0.  1.
    9000005    2    1    2  501    0 -0.63531760501E+01  0.13814201522E+02 -0.96228851016E+03  0.10158346897E+04  0.32509959256E+03 0.  0.
         13    1    3    3    0    0 -0.13624111404E+03  0.45254755572E+02 -0.22762141894E+03  0.26911176938E+03  0.00000000000E+00 0.  1.
          1    1    3    3  501    0  0.12988793799E+03 -0.31440554049E+02 -0.73466709122E+03  0.74672292036E+03  0.00000000000E+00 0.  1.
         21    1    1    2  502  501  0.63531760501E+01 -0.13814201522E+02 -0.56543775154E+01  0.16222422591E+02  0.00000000000E+00 0.  1.
<mgrwt>
<rscale>  1 0.30000000E+03</rscale>
<asrwt>0</asrwt>
<pdfrwt beam="1">  1        1 0.11657156E+00 0.30000000E+03</pdfrwt>
<pdfrwt beam="2">0</pdfrwt>
<totfact> 0.27192359E+01</totfact>
</mgrwt>
</event>
<event>
 6    1  0.1950139E-004  0.3000000E+03  0.7818608E-02  0.1093470E+00
          1   -1    0    0  502    0  0.00000000000E+00  0.00000000000E+00  0.41491206356E+02  0.41491206356E+02  0.00000000000E+00 0.  1.
         13   -1    0    0    0    0 -0.00000000000E+00 -0.00000000000E+00 -0.10000000000E+04  0.10000000000E+04  0.00000000000E+00 0.  1.
    9000005    2    1    2  501    0 -0.14031587152E+02 -0.21715080896E+02 -0.96109991462E+03  0.10155076715E+04  0.32691643395E+03 0.  0.
         13    1    3    3    0    0 -0.90624720534E+01 -0.10940530078E+03 -0.95625680724E+02  0.14558818308E+03  0.00000000000E+00 0.  1.
          3    1    3    3  501    0 -0.49691150988E+01  0.87690219886E+02 -0.86547423390E+03  0.86991948841E+03  0.00000000000E+00 0.  1.
         21    1    1    2  502  501  0.14031587152E+02  0.21715080896E+02  0.25911209777E+01  0.25983534868E+02  0.00000000000E+00 0. -1.
<mgrwt>
<rscale>  1 0.30000000E+03</rscale>
<asrwt>0</asrwt>
<pdfrwt beam="1">  1        1 0.15087743E+00 0.30000000E+03</pdfrwt>
<pdfrwt beam="2">0</pdfrwt>
<totfact> 0.17781563E+01</totfact>
</mgrwt>
</event>
<event>
 6    1  0.1950139E-004  0.3000000E+03  0.7818608E-02  0.1093470E+00
          1   -1    0    0  502    0  0.00000000000E+00  0.00000000000E+00  0.65791792895E+02  0.65791792895E+02  0.00000000000E+00 0.  1.
         13   -1    0    0    0    0 -0.00000000000E+00 -0.00000000000E+00 -0.10000000000E+04  0.10000000000E+04  0.00000000000E+00 0.  1.
    9000005    2    1    2  501    0  0.13470463221E+03 -0.68165560312E+02 -0.61908877427E+03  0.71637493797E+03  0.32730759200E+03 0.  0.
         13    1    3    3    0    0  0.11102233985E+03 -0.19769724891E+03 -0.35410002173E+03  0.42047233864E+03  0.00000000000E+00 0.  1.
          1    1    3    3  501    0  0.23682292358E+02  0.12953168860E+03 -0.26498875254E+03  0.29590259933E+03  0.00000000000E+00 0.  1.
         21    1    1    2  502  501 -0.13470463221E+03  0.68165560312E+02 -0.31511943284E+03  0.34941685492E+03  0.00000000000E+00 0.  1.
<mgrwt>
<rscale>  1 0.30000000E+03</rscale>
<asrwt>0</asrwt>
<pdfrwt beam="1">  1        1 0.23924339E+00 0.30000000E+03</pdfrwt>
<pdfrwt beam="2">0</pdfrwt>
<totfact> 0.66983355E+00</totfact>
</mgrwt>
</event>
<event>
 6    1  0.1950139E-004  0.3000000E+03  0.7818608E-02  0.1093470E+00
          1   -1    0    0  502    0  0.00000000000E+00  0.00000000000E+00  0.27614016466E+02  0.27614016466E+02  0.00000000000E+00 0.  1.
         13   -1    0    0    0    0 -0.00000000000E+00 -0.00000000000E+00 -0.10000000000E+04  0.10000000000E+04  0.00000000000E+00 0.  1.
    9000005    2    1    2  501    0  0.17109078281E+02 -0.20844433673E+01 -0.97897755120E+03  0.10091609889E+04  0.24435996030E+03 0.  0.
         13    1    3    3    0    0  0.99608957900E+02  0.68664733475E+02 -0.33720973309E+03  0.35825576646E+03  0.00000000000E+00 0.  1.
          3    1    3    3  501    0 -0.82499879619E+02 -0.70749176842E+02 -0.64176781812E+03  0.65090522239E+03  0.00000000000E+00 0.  1.
         21    1    1    2  502  501 -0.17109078281E+02  0.20844433673E+01  0.65915676686E+01  0.18453027614E+02  0.00000000000E+00 0.  1.
<mgrwt>
<rscale>  1 0.30000000E+03</rscale>
<asrwt>0</asrwt>
<pdfrwt beam="1">  1        1 0.10041482E+00 0.30000000E+03</pdfrwt>
<pdfrwt beam="2">0</pdfrwt>
<totfact> 0.34020283E+01</totfact>
</mgrwt>
</event>
<event>
 6    1  0.1950139E-004  0.3000000E+03  0.7818608E-02  0.1093470E+00
          1   -1    0    0  502    0  0.00000000000E+00  0.00000000000E+00  0.39361529877E+02  0.39361529877E+02  0.00000000000E+00 0.  1.
         13   -1    0    0    0    0 -0.00000000000E+00 -0.00000000000E+00 -0.10000000000E+04  0.10000000000E+04  0.00000000000E+00 0.  1.
    9000005    2    1    2  501    0  0.16529972583E+02  0.11829437565E+02 -0.96636818334E+03  0.10182426947E+04  0.32021484024E+03 0.  0.
         13    1    3    3    0    0 -0.13991121419E+03 -0.54863539606E+02 -0.48212998402E+03  0.50500938341E+03  0.00000000000E+00 0.  1.
          3    1    3    3  501    0  0.15644118677E+03  0.66692977171E+02 -0.48423819931E+03  0.51323331127E+03  0.00000000000E+00 0.  1.
         21    1    1    2  502  501 -0.16529972583E+02 -0.11829437565E+02  0.57297132143E+01  0.21118835200E+02  0.00000000000E+00 0.  1.
<mgrwt>
<rscale>  1 0.30000000E+03</rscale>
<asrwt>0</asrwt>
<pdfrwt beam="1">  1        1 0.14313314E+00 0.30000000E+03</pdfrwt>
<pdfrwt beam="2">0</pdfrwt>
<totfact> 0.19484905E+01</totfact>
</mgrwt>
</event>
<event>
 6    1  0.1950139E-004  0.3000000E+03  0.7818608E-02  0.1093470E+00
          1   -1    0    0  502    0  0.00000000000E+00  0.00000000000E+00  0.46872289740E+02  0.46872289740E+02  0.00000000000E+00 0.  1.
         13   -1    0    0    0    0 -0.00000000000E+00 -0.00000000000E+00 -0.10000000000E+04  0.10000000000E+04  0.00000000000E+00 0.  1.
    9000005    2    1    2  501    0 -0.12269426327E+02  0.11121838455E+02 -0.96784937281E+03  0.10247146396E+04  0.33620447643E+03 0.  0.
         13    1    3    3    0    0 -0.35277925207E+02  0.92309066424E+02 -0.65791077235E+02  0.11871799187E+03  0.00000000000E+00 0.  1.
          3    1    3    3  501    0  0.23008498880E+02 -0.81187227969E+02 -0.90205829558E+03  0.90599664769E+03  0.00000000000E+00 0.  1.
         21    1    1    2  502  501  0.12269426327E+02 -0.11121838455E+02  0.14721662552E+02  0.22157650176E+02  0.00000000000E+00 0.  1.
<mgrwt>
<rscale>  1 0.30000000E+03</rscale>
<asrwt>0</asrwt>
<pdfrwt beam="1">  1        1 0.17044505E+00 0.30000000E+03</pdfrwt>
<pdfrwt beam="2">0</pdfrwt>
<totfact> 0.14215837E+01</totfact>
</mgrwt>
</event>
<event>
 6    1  0.1950139E-004  0.3000000E+03  0.7818608E-02  0.1093470E+00
          1   -1    0    0  502    0  0.00000000000E+00  0.00000000000E+00  0.42550969131E+02  0.42550969131E+02  0.00000000000E+00 0.  1.
         13   -1    0    0    0    0 -0.00000000000E+00 -0.00000000000E+00 -0.10000000000E+04  0.10000000000E+04  0.00000000000E+00 0.  1.
    9000005    2    1    2  501    0 -0.88007987148E+01  0.15635499282E+02 -0.96609957215E+03  0.10226322654E+04  0.33482300388E+03 0.  0.
         13    1    3    3    0    0 -0.58010849081E+02  0.13643016528E+03 -0.78830396594E+03  0.80212317715E+03  0.00000000000E+00 0.  1.
          3    1    3    3  501    0  0.49210050366E+02 -0.12079466600E+03 -0.17779560621E+03  0.22050908820E+03  0.00000000000E+00 0.  1.
         21    1    1    2  502  501  0.88007987148E+01 -0.15635499282E+02  0.86505412817E+01  0.19918703780E+02  0.00000000000E+00 0.  1.
<mgrwt>
<rscale>  1 0.30000000E+03</rscale>
<asrwt>0</asrwt>
<pdfrwt beam="1">  1        1 0.15473112E+00 0.30000000E+03</pdfrwt>
<pdfrwt beam="2">0</pdfrwt>
<totfact> 0.17002725E+01</totfact>
</mgrwt>
</event>
<event>
 6    1  0.1950139E-004  0.3000000E+03  0.7818608E-02  0.1093470E+00
          1   -1    0    0  502    0  0.00000000000E+00  0.00000000000E+00  0.43986185569E+02  0.43986185569E+02  0.00000000000E+00 0.  1.
         13   -1    0    0    0    0 -0.00000000000E+00 -0.00000000000E+00 -0.10000000000E+04  0.10000000000E+04  0.00000000000E+00 0.  1.
    9000005    2    1    2  501    0 -0.10090995003E+02  0.55828501921E+02 -0.92433796308E+03  0.97900919452E+03  0.31755264628E+03 0.  0.
         13    1    3    3    0    0  0.86952906318E+02 -0.79999169570E+02 -0.17399386801E+03  0.21032009213E+03  0.00000000000E+00 0.  1.
          1    1    3    3  501    0 -0.97043901320E+02  0.13582767149E+03 -0.75034409507E+03  0.76868910239E+03  0.00000000000E+00 0.  1.
         21    1    1    2  502  501  0.10090995003E+02 -0.55828501921E+02 -0.31675851347E+02  0.64976991047E+02  0.00000000000E+00 0. -1.
<mgrwt>
<rscale>  1 0.30000000E+03</rscale>
<asrwt>0</asrwt>
<pdfrwt beam="1">  1        1 0.15995010E+00 0.30000000E+03</pdfrwt>
<pdfrwt beam="2">0</pdfrwt>
<totfact> 0.16012183E+01</totfact>
</mgrwt>
</event>
<event>
 6    1  0.1950139E-004  0.3000000E+03  0.7818608E-02  0.1093470E+00
          1   -1    0    0  502    0  0.00000000000E+00  0.00000000000E+00  0.42814497699E+02  0.42814497699E+02  0.00000000000E+00 0.  1.
         13   -1    0    0    0    0 -0.00000000000E+00 -0.00000000000E+00 -0.10000000000E+04  0.10000000000E+04  0.00000000000E+00 0.  1.
    9000005    2    1    2  501    0 -0.80240482414E+01  0.15628880038E+02 -0.96872535087E+03  0.10217950937E+04  0.32454238666E+03 0.  0.
         13    1    3    3    0    0  0.10902179956E+02 -0.86953271210E+02 -0.88142479670E+03  0.88577051268E+03  0.00000000000E+00 0.  1.
          3    1    3    3  501    0 -0.18926228198E+02  0.10258215125E+03 -0.87300554178E+02  0.13602458097E+03  0.00000000000E+00 0.  1.
         21    1    1    2  502  501  0.80240482414E+01 -0.15628880038E+02  0.11539848573E+02  0.21019404048E+02  0.00000000000E+00 0. -1.
<mgrwt>
<rscale>  1 0.30000000E+03</rscale>
<asrwt>0</asrwt>
<pdfrwt beam="1">  1        1 0.15568941E+00 0.30000000E+03</pdfrwt>
<pdfrwt beam="2">0</pdfrwt>
<totfact> 0.16815504E+01</totfact>
</mgrwt>
</event>
<event>
 6    1  0.1950139E-004  0.3000000E+03  0.7818608E-02  0.1093470E+00
          1   -1    0    0  502    0  0.00000000000E+00  0.00000000000E+00  0.43886651575E+02  0.43886651575E+02  0.00000000000E+00 0.  1.
         13   -1    0    0    0    0 -0.00000000000E+00 -0.00000000000E+00 -0.10000000000E+04  0.10000000000E+04  0.00000000000E+00 0.  1.
    9000005    2    1    2  501    0  0.42112915350E+02  0.22080939540E+02 -0.91095769389E+03  0.97831151401E+03  0.35353703180E+03 0.  0.
         13    1    3    3    0    0 -0.11102547810E+03 -0.10730457851E+03 -0.34780157254E+03  0.38053496977E+03  0.00000000000E+00 0.  1.
          3    1    3    3  501    0  0.15313839345E+03  0.12938551805E+03 -0.56315612135E+03  0.59777654424E+03  0.00000000000E+00 0.  1.
         21    1    1    2  502  501 -0.42112915350E+02 -0.22080939540E+02 -0.45155654538E+02  0.65575137567E+02  0.00000000000E+00 0.  1.
<mgrwt>
<rscale>  1 0.30000000E+03</rscale>
<asrwt>0</asrwt>
<pdfrwt beam="1">  1        1 0.15958816E+00 0.30000000E+03</pdfrwt>
<pdfrwt beam="2">0</pdfrwt>
<totfact> 0.16078642E+01</totfact>
</mgrwt>
</event>
<event>
 6    1  0.1950139E-004  0.3000000E+03  0.7818608E-02  0.1093470E+00
          1   -1    0    0  502    0  0.00000000000E+00  0.00000000000E+00  0.29123085344E+02  0.29123085344E+02  0.00000000000E+00 0.  1.
         13   -1    0    0    0    0 -0.00000000000E+00 -0.00000000000E+00 -0.10000000000E+04  0.10000000000E+04  0.00000000000E+00 0.  1.
    9000005    2    1    2  501    0  0.99361010714E+01  0.12191742099E+02 -0.93881631605E+03  0.99341248940E+03  0.32441475634E+03 0.  0.
         13    1    3    3    0    0  0.82806944181E+02 -0.28047993394E+02 -0.89515445473E+03  0.89941379674E+03  0.00000000000E+00 0.  1.
          3    1    3    3  501    0 -0.72870843109E+02  0.40239735492E+02 -0.43661861320E+02  0.93998692661E+02  0.00000000000E+00 0.  1.
         21    1    1    2  502  501 -0.99361010714E+01 -0.12191742099E+02 -0.32060598601E+02  0.35710595942E+02  0.00000000000E+00 0. -1.
<mgrwt>
<rscale>  1 0.30000000E+03</rscale>
<asrwt>0</asrwt>
<pdfrwt beam="1">  1        1 0.10590235E+00 0.30000000E+03</pdfrwt>
<pdfrwt beam="2">0</pdfrwt>
<totfact> 0.31449889E+01</totfact>
</mgrwt>
</event>
<event>
 6    1  0.1950139E-004  0.3000000E+03  0.7818608E-02  0.1093470E+00
          1   -1    0    0  502    0  0.00000000000E+00  0.00000000000E+00  0.58220167550E+02  0.58220167550E+02  0.00000000000E+00 0.  1.
         13   -1    0    0    0    0 -0.00000000000E+00 -0.00000000000E+00 -0.10000000000E+04  0.10000000000E+04  0.00000000000E+00 0.  1.
    9000005    2    1    2  501    0 -0.41471250560E+01  0.10295328351E+02 -0.97178240753E+03  0.10262303732E+04  0.32964304761E+03 0.  0.
         13    1    3    3    0    0 -0.68019023720E+02 -0.12901121869E+03 -0.25975974549E+03  0.29790200992E+03  0.00000000000E+00 0.  1.
          3    1    3    3  501    0  0.63871898664E+02  0.13930654704E+03 -0.71202266204E+03  0.72832836327E+03  0.00000000000E+00 0.  1.
         21    1    1    2  502  501  0.41471250560E+01 -0.10295328351E+02  0.30002575078E+02  0.31989794363E+02  0.00000000000E+00 0.  1.
<mgrwt>
<rscale>  1 0.30000000E+03</rscale>
<asrwt>0</asrwt>
<pdfrwt beam="1">  1        1 0.21171015E+00 0.30000000E+03</pdfrwt>
<pdfrwt beam="2">0</pdfrwt>
<totfact> 0.90165209E+00</totfact>
</mgrwt>
</event>
<event>
 6    1  0.1950139E-004  0.3000000E+03  0.7818608E-02  0.1093470E+00
          1   -1    0    0  502    0  0.00000000000E+00  0.00000000000E+00  0.31214279957E+02  0.31214279957E+02  0.00000000000E+00 0.  1.
         13   -1    0    0    0    0 -0.00000000000E+00 -0.00000000000E+00 -0.10000000000E+04  0.10000000000E+04  0.00000000000E+00 0.  1.
    9000005    2    1    2  501    0  0.10926097153E+02 -0.21789757691E+01 -0.96652560241E+03  0.10198460934E+04  0.32525403383E+03 0.  0.
         13    1    3    3    0    0  0.88505064535E+02  0.10067803195E+03 -0.79008279342E+03  0.80137384099E+03  0.00000000000E+00 0.  1.
          1    1    3    3  501    0 -0.77578967382E+02 -0.10285700772E+03 -0.17644280899E+03  0.21847225239E+03  0.00000000000E+00 0.  1.
         21    1    1    2  502  501 -0.10926097153E+02  0.21789757691E+01 -0.22601176313E+01  0.11368186580E+02  0.00000000000E+00 0.  1.
<mgrwt>
<rscale>  1 0.30000000E+03</rscale>
<asrwt>0</asrwt>
<pdfrwt beam="1">  1        1 0.11350671E+00 0.30000000E+03</pdfrwt>
<pdfrwt beam="2">0</pdfrwt>
<totfact> 0.28327178E+01</totfact>
</mgrwt>
</event>
<event>
 6    1  0.1950139E-004  0.3000000E+03  0.7818608E-02  0.1093470E+00
          1   -1    0    0  502    0  0.00000000000E+00  0.00000000000E+00  0.39653695802E+02  0.39653695802E+02  0.00000000000E+00 0.  1.
         13   -1    0    0    0    0 -0.00000000000E+00 -0.00000000000E+00 -0.10000000000E+04  0.10000000000E+04  0.00000000000E+00 0.  1.
    9000005    2    1    2  501    0  0.11641722105E+02  0.47487670933E+00 -0.97085881280E+03  0.10239607662E+04  0.32525845288E+03 0.  0.
         13    1    3    3    0    0  0.12164104790E+03 -0.18145495234E+02 -0.85243861494E+03  0.86126499741E+03  0.00000000000E+00 0.  1.
          3    1    3    3  501    0 -0.10999932580E+03  0.18620371944E+02 -0.11842019787E+03  0.16269576881E+03  0.00000000000E+00 0.  1.
         21    1    1    2  502  501 -0.11641722105E+02 -0.47487670933E+00  0.10512508607E+02  0.15692929576E+02  0.00000000000E+00 0.  1.
<mgrwt>
<rscale>  1 0.30000000E+03</rscale>
<asrwt>0</asrwt>
<pdfrwt beam="1">  1        1 0.14419556E+00 0.30000000E+03</pdfrwt>
<pdfrwt beam="2">0</pdfrwt>
<totfact> 0.19239453E+01</totfact>
</mgrwt>
</event>
<event>
 6    1  0.1950139E-004  0.3000000E+03  0.7818608E-02  0.1093470E+00
          1   -1    0    0  502    0  0.00000000000E+00  0.00000000000E+00  0.24340798573E+02  0.24340798573E+02  0.00000000000E+00 0.  1.
         13   -1    0    0    0    0 -0.00000000000E+00 -0.00000000000E+00 -0.10000000000E+04  0.10000000000E+04  0.00000000000E+00 0.  1.
    9000005    2    1    2  501    0 -0.17295883711E+02 -0.15902061191E+02 -0.92846528139E+03  0.97162183394E+03  0.28539303828E+03 0.  0.
         13    1    3    3    0    0  0.88563659684E+02 -0.10959427348E+03 -0.38171788456E+03  0.40689429830E+03  0.00000000000E+00 0.  1.
          1    1    3    3  501    0 -0.10585954340E+03  0.93692212288E+02 -0.54674739682E+03  0.56472753564E+03  0.00000000000E+00 0.  1.
         21    1    1    2  502  501  0.17295883711E+02  0.15902061191E+02 -0.47193920039E+02  0.52718964634E+02  0.00000000000E+00 0.  1.
<mgrwt>
<rscale>  1 0.30000000E+03</rscale>
<asrwt>0</asrwt>
<pdfrwt beam="1">  1        1 0.88512181E-01 0.30000000E+03</pdfrwt>
<pdfrwt beam="2">0</pdfrwt>
<totfact> 0.40782233E+01</totfact>
</mgrwt>
</event>
<event>
 6    1  0.1950139E-004  0.3000000E+03  0.7818608E-02  0.1093470E+00
          1   -1    0    0  502    0  0.00000000000E+00  0.00000000000E+00  0.29353624986E+02  0.29353624986E+02  0.00000000000E+00 0.  1.
         13   -1    0    0    0    0 -0.00000000000E+00 -0.00000000000E+00 -0.10000000000E+04  0.10000000000E+04  0.00000000000E+00 0.  1.
    9000005    2    1    2  501    0 -0.32988874155E+01 -0.21921314252E+02 -0.93009172292E+03  0.98313559298E+03  0.31779483074E+03 0.  0.
         13    1    3    3    0    0  0.78113634735E+02  0.49597183777E+02 -0.69436488749E+02  0.11568511806E+03  0.00000000000E+00 0.  1.
          1    1    3    3  501    0 -0.81412522150E+02 -0.71518498029E+02 -0.86065523418E+03  0.86745047492E+03  0.00000000000E+00 0.  1.
         21    1    1    2  502  501  0.32988874155E+01  0.21921314252E+02 -0.40554652090E+02  0.46218032010E+02  0.00000000000E+00 0.  1.
<mgrwt>
<rscale>  1 0.30000000E+03</rscale>
<asrwt>0</asrwt>
<pdfrwt beam="1">  1        1 0.10674068E+00 0.30000000E+03</pdfrwt>
<pdfrwt beam="2">0</pdfrwt>
<totfact> 0.31082184E+01</totfact>
</mgrwt>
</event>
<event>
 6    1  0.1950139E-004  0.3000000E+03  0.7818608E-02  0.1093470E+00
          1   -1    0    0  502    0  0.00000000000E+00  0.00000000000E+00  0.32252845335E+02  0.32252845335E+02  0.00000000000E+00 0.  1.
         13   -1    0    0    0    0 -0.00000000000E+00 -0.00000000000E+00 -0.10000000000E+04  0.10000000000E+04  0.00000000000E+00 0.  1.
    9000005    2    1    2  501    0  0.68727959160E+01 -0.14327055682E+02 -0.96102358106E+03  0.10149986780E+04  0.32619548304E+03 0.  0.
         13    1    3    3    0    0  0.15634015849E+03  0.47692292162E+02 -0.43756042425E+03  0.46709305792E+03  0.00000000000E+00 0.  1.
          3    1    3    3  501    0 -0.14946736258E+03 -0.62019347844E+02 -0.52346315681E+03  0.54790562008E+03  0.00000000000E+00 0.  1.
         21    1    1    2  502  501 -0.68727959160E+01  0.14327055682E+02 -0.67235736092E+01  0.17254167331E+02  0.00000000000E+00 0.  1.
<mgrwt>
<rscale>  1 0.30000000E+03</rscale>
<asrwt>0</asrwt>
<pdfrwt beam="1">  1        1 0.11728332E+00 0.30000000E+03</pdfrwt>
<pdfrwt beam="2">0</pdfrwt>
<totfact> 0.26937901E+01</totfact>
</mgrwt>
</event>
<event>
 6    1  0.1950139E-004  0.3000000E+03  0.7818608E-02  0.1093470E+00
          1   -1    0    0  502    0  0.00000000000E+00  0.00000000000E+00  0.28839713642E+02  0.28839713642E+02  0.00000000000E+00 0.  1.
         13   -1    0    0    0    0 -0.00000000000E+00 -0.00000000000E+00 -0.10000000000E+04  0.10000000000E+04  0.00000000000E+00 0.  1.
    9000005    2    1    2  501    0  0.14830210609E+02  0.40528517691E+01 -0.96180038972E+03  0.10108405909E+04  0.31064827347E+03 0.  0.
         13    1    3    3    0    0 -0.12618915827E+03  0.46126664100E+02 -0.24827525367E+03  0.28229766983E+03  0.00000000000E+00 0.  1.
          1    1    3    3  501    0  0.14101936888E+03 -0.42073812331E+02 -0.71352513605E+03  0.72854292108E+03  0.00000000000E+00 0.  1.
         21    1    1    2  502  501 -0.14830210609E+02 -0.40528517691E+01 -0.93598966402E+01  0.17999122737E+02  0.00000000000E+00 0.  1.
<mgrwt>
<rscale>  1 0.30000000E+03</rscale>
<asrwt>0</asrwt>
<pdfrwt beam="1">  1        1 0.10487191E+00 0.30000000E+03</pdfrwt>
<pdfrwt beam="2">0</pdfrwt>
<totfact> 0.31910515E+01</totfact>
</mgrwt>
</event>
<event>
 6    1  0.1950139E-004  0.3000000E+03  0.7818608E-02  0.1093470E+00
          1   -1    0    0  502    0  0.00000000000E+00  0.00000000000E+00  0.23043804474E+02  0.23043804474E+02  0.00000000000E+00 0.  1.
         13   -1    0    0    0    0 -0.00000000000E+00 -0.00000000000E+00 -0.10000000000E+04  0.10000000000E+04  0.00000000000E+00 0.  1.
    9000005    2    1    2  501    0 -0.12653850163E+02 -0.21687841258E+02 -0.91890154297E+03  0.95979172889E+03  0.27602469960E+03 0.  0.
         13    1    3    3    0    0 -0.67489568633E+02  0.10221118701E+03 -0.61464883611E+03  0.62673372365E+03  0.00000000000E+00 0.  1.
          3    1    3    3  501    0  0.54835718470E+02 -0.12389902827E+03 -0.30425270686E+03  0.33305800525E+03  0.00000000000E+00 0.  1.
         21    1    1    2  502  501  0.12653850163E+02  0.21687841258E+02 -0.58054652553E+02  0.63252075582E+02  0.00000000000E+00 0.  1.
<mgrwt>
<rscale>  1 0.30000000E+03</rscale>
<asrwt>0</asrwt>
<pdfrwt beam="1">  1        1 0.83795829E-01 0.30000000E+03</pdfrwt>
<pdfrwt beam="2">0</pdfrwt>
<totfact> 0.44038088E+01</totfact>
</mgrwt>
</event>
<event>
 6    1  0.1950139E-004  0.3000000E+03  0.7818608E-02  0.1093470E+00
          1   -1    0    0  502    0  0.00000000000E+00  0.00000000000E+00  0.63136093390E+02  0.63136093390E+02  0.00000000000E+00 0.  1.
         13   -1    0    0    0    0 -0.00000000000E+00 -0.00000000000E+00 -0.10000000000E+04  0.10000000000E+04  0.00000000000E+00 0.  1.
    9000005    2    1    2  501    0 -0.77055985161E+02  0.88725886683E+01 -0.94533693365E+03  0.98510956030E+03  0.26601236811E+03 0.  0.
         13    1    3    3    0    0 -0.14191538188E+03  0.93881174449E+02 -0.58374606326E+03  0.60804039085E+03  0.00000000000E+00 0.  1.
          1    1    3    3  501    0  0.64859396720E+02 -0.85008585781E+02 -0.36159087039E+03  0.37706916945E+03  0.00000000000E+00 0.  1.
         21    1    1    2  502  501  0.77055985161E+02 -0.88725886683E+01  0.84730270430E+01  0.78026533090E+02  0.00000000000E+00 0.  1.
<mgrwt>
<rscale>  1 0.30000000E+03</rscale>
<asrwt>0</asrwt>
<pdfrwt beam="1">  1        1 0.22958628E+00 0.30000000E+03</pdfrwt>
<pdfrwt beam="2">0</pdfrwt>
<totfact> 0.74334976E+00</totfact>
</mgrwt>
</event>
<event>
 6    1  0.1950139E-004  0.3000000E+03  0.7818608E-02  0.1093470E+00
          1   -1    0    0  502    0  0.00000000000E+00  0.00000000000E+00  0.38258841334E+02  0.38258841334E+02  0.00000000000E+00 0.  1.
         13   -1    0    0    0    0 -0.00000000000E+00 -0.00000000000E+00 -0.10000000000E+04  0.10000000000E+04  0.00000000000E+00 0.  1.
    9000005    2    1    2  501    0  0.25114862835E+02  0.20151405509E+02 -0.94349569668E+03  0.10012489459E+04  0.33358430190E+03 0.  0.
         13    1    3    3    0    0 -0.35689369891E+02  0.16447971442E+03 -0.36512739234E+03  0.40205139002E+03  0.00000000000E+00 0.  1.
          3    1    3    3  501    0  0.60804232726E+02 -0.14432830892E+03 -0.57836830433E+03  0.59919755585E+03  0.00000000000E+00 0.  1.
         21    1    1    2  502  501 -0.25114862835E+02 -0.20151405509E+02 -0.18245461988E+02  0.37009895466E+02  0.00000000000E+00 0. -1.
<mgrwt>
<rscale>  1 0.30000000E+03</rscale>
<asrwt>0</asrwt>
<pdfrwt beam="1">  1        1 0.13912335E+00 0.30000000E+03</pdfrwt>
<pdfrwt beam="2">0</pdfrwt>
<totfact> 0.20447836E+01</totfact>
</mgrwt>
</event>
<event>
 6    1  0.1950139E-004  0.3000000E+03  0.7818608E-02  0.1093470E+00
          3   -1    0    0  502    0  0.00000000000E+00  0.00000000000E+00  0.33448452163E+02  0.33448452163E+02  0.00000000000E+00 0.  1.
         13   -1    0    0    0    0 -0.00000000000E+00 -0.00000000000E+00 -0.10000000000E+04  0.10000000000E+04  0.00000000000E+00 0.  1.
    9000005    2    1    2  501    0  0.20775825492E+02 -0.18106118910E+02 -0.93484065497E+03  0.99143598743E+03  0.32902705134E+03 0.  0.
         13    1    3    3    0    0  0.62731361756E+02  0.13428871855E+03 -0.63956236686E+03  0.65651253209E+03  0.00000000000E+00 0.  1.
          3    1    3    3  501    0 -0.41955536264E+02 -0.15239483746E+03 -0.29527828811E+03  0.33492345534E+03  0.00000000000E+00 0.  1.
         21    1    1    2  502  501 -0.20775825492E+02  0.18106118910E+02 -0.31710892865E+02  0.42012464736E+02  0.00000000000E+00 0. -1.
<mgrwt>
<rscale>  1 0.30000000E+03</rscale>
<asrwt>0</asrwt>
<pdfrwt beam="1">  1        3 0.12163099E+00 0.30000000E+03</pdfrwt>
<pdfrwt beam="2">0</pdfrwt>
<totfact> 0.22143621E+00</totfact>
</mgrwt>
</event>
<event>
 6    1  0.1950139E-004  0.3000000E+03  0.7818608E-02  0.1093470E+00
          1   -1    0    0  502    0  0.00000000000E+00  0.00000000000E+00  0.31808373778E+02  0.31808373778E+02  0.00000000000E+00 0.  1.
         13   -1    0    0    0    0 -0.00000000000E+00 -0.00000000000E+00 -0.10000000000E+04  0.10000000000E+04  0.00000000000E+00 0.  1.
    9000005    2    1    2  501    0  0.19095381181E+02  0.92463895887E+01 -0.94437020406E+03  0.99990869578E+03  0.32792100919E+03 0.  0.
         13    1    3    3    0    0 -0.54053618670E+02  0.12302738856E+03 -0.75688523499E+03  0.76872153019E+03  0.00000000000E+00 0.  1.
          3    1    3    3  501    0  0.73148999851E+02 -0.11378099897E+03 -0.18748496907E+03  0.23118716559E+03  0.00000000000E+00 0.  1.
         21    1    1    2  502  501 -0.19095381181E+02 -0.92463895887E+01 -0.23821422158E+02  0.31899678000E+02  0.00000000000E+00 0. -1.
<mgrwt>
<rscale>  1 0.30000000E+03</rscale>
<asrwt>0</asrwt>
<pdfrwt beam="1">  1        1 0.11566706E+00 0.30000000E+03</pdfrwt>
<pdfrwt beam="2">0</pdfrwt>
<totfact> 0.27520549E+01</totfact>
</mgrwt>
</event>
<event>
 6    1  0.1950139E-004  0.3000000E+03  0.7818608E-02  0.1093470E+00
          1   -1    0    0  502    0  0.00000000000E+00  0.00000000000E+00  0.45591885928E+02  0.45591885928E+02  0.00000000000E+00 0.  1.
         13   -1    0    0    0    0 -0.00000000000E+00 -0.00000000000E+00 -0.10000000000E+04  0.10000000000E+04  0.00000000000E+00 0.  1.
    9000005    2    1    2  501    0 -0.36187936495E+01 -0.10275682565E+02 -0.97090979797E+03  0.10258183963E+04  0.33093633999E+03 0.  0.
         13    1    3    3    0    0  0.10300948218E+03  0.13291025656E+02 -0.87298249053E+03  0.87913937095E+03  0.00000000000E+00 0.  1.
          3    1    3    3  501    0 -0.10662827583E+03 -0.23566708221E+02 -0.97927307440E+02  0.14667902538E+03  0.00000000000E+00 0.  1.
         21    1    1    2  502  501  0.36187936495E+01  0.10275682565E+02  0.16501683896E+02  0.19773489603E+02  0.00000000000E+00 0.  1.
<mgrwt>
<rscale>  1 0.30000000E+03</rscale>
<asrwt>0</asrwt>
<pdfrwt beam="1">  1        1 0.16578903E+00 0.30000000E+03</pdfrwt>
<pdfrwt beam="2">0</pdfrwt>
<totfact> 0.14982744E+01</totfact>
</mgrwt>
</event>
<event>
 6    1  0.1950139E-004  0.3000000E+03  0.7818608E-02  0.1093470E+00
          1   -1    0    0  502    0  0.00000000000E+00  0.00000000000E+00  0.14620764065E+02  0.14620764065E+02  0.00000000000E+00 0.  1.
         13   -1    0    0    0    0 -0.00000000000E+00 -0.00000000000E+00 -0.10000000000E+04  0.10000000000E+04  0.00000000000E+00 0.  1.
    9000005    2    1    2  501    0 -0.16897127603E+02 -0.58967088739E+01 -0.96463161512E+03  0.98722098549E+03  0.20921481112E+03 0.  0.
         13    1    3    3    0    0 -0.10539644529E+02 -0.10549125150E+03 -0.59410282830E+03  0.60348791110E+03  0.00000000000E+00 0.  1.
          3    1    3    3  501    0 -0.63574830742E+01  0.99594542630E+02 -0.37052878683E+03  0.38373307439E+03  0.00000000000E+00 0.  1.
         21    1    1    2  502  501  0.16897127603E+02  0.58967088739E+01 -0.20747620811E+02  0.27399778577E+02  0.00000000000E+00 0. -1.
<mgrwt>
<rscale>  1 0.30000000E+03</rscale>
<asrwt>0</asrwt>
<pdfrwt beam="1">  1        1 0.53166527E-01 0.30000000E+03</pdfrwt>
<pdfrwt beam="2">0</pdfrwt>
<totfact> 0.81393005E+01</totfact>
</mgrwt>
</event>
<event>
 6    1  0.1950139E-004  0.3000000E+03  0.7818608E-02  0.1093470E+00
          1   -1    0    0  502    0  0.00000000000E+00  0.00000000000E+00  0.31283044499E+02  0.31283044499E+02  0.00000000000E+00 0.  1.
         13   -1    0    0    0    0 -0.00000000000E+00 -0.00000000000E+00 -0.10000000000E+04  0.10000000000E+04  0.00000000000E+00 0.  1.
    9000005    2    1    2  501    0  0.28070944932E+02 -0.10599212293E+02 -0.92107666845E+03  0.97498101788E+03  0.31828514703E+03 0.  0.
         13    1    3    3    0    0 -0.14572202881E+03 -0.44074290789E+01 -0.42259967136E+03  0.44704006235E+03  0.00000000000E+00 0.  1.
          3    1    3    3  501    0  0.17379297374E+03 -0.61917832143E+01 -0.49847699709E+03  0.52794095553E+03  0.00000000000E+00 0.  1.
         21    1    1    2  502  501 -0.28070944932E+02  0.10599212293E+02 -0.47640287051E+02  0.56302026614E+02  0.00000000000E+00 0. -1.
<mgrwt>
<rscale>  1 0.30000000E+03</rscale>
<asrwt>0</asrwt>
<pdfrwt beam="1">  1        1 0.11375677E+00 0.30000000E+03</pdfrwt>
<pdfrwt beam="2">0</pdfrwt>
<totfact> 0.28232119E+01</totfact>
</mgrwt>
</event>
<event>
 6    1  0.1950139E-004  0.3000000E+03  0.7818608E-02  0.1093470E+00
          1   -1    0    0  502    0  0.00000000000E+00  0.00000000000E+00  0.45482067857E+02  0.45482067857E+02  0.00000000000E+00 0.  1.
         13   -1    0    0    0    0 -0.00000000000E+00 -0.00000000000E+00 -0.10000000000E+04  0.10000000000E+04  0.00000000000E+00 0.  1.
    9000005    2    1    2  501    0  0.65892046376E+02 -0.13433846251E+02 -0.89885206321E+03  0.95818419294E+03  0.32505335879E+03 0.  0.
         13    1    3    3    0    0  0.97330644536E+02 -0.14528571168E+03 -0.66769837402E+03  0.69021903122E+03  0.00000000000E+00 0.  1.
          3    1    3    3  501    0 -0.31438598161E+02  0.13185186543E+03 -0.23115368919E+03  0.26796516173E+03  0.00000000000E+00 0.  1.
         21    1    1    2  502  501 -0.65892046376E+02  0.13433846251E+02 -0.55665868930E+02  0.87297874913E+02  0.00000000000E+00 0. -1.
<mgrwt>
<rscale>  1 0.30000000E+03</rscale>
<asrwt>0</asrwt>
<pdfrwt beam="1">  1        1 0.16538969E+00 0.30000000E+03</pdfrwt>
<pdfrwt beam="2">0</pdfrwt>
<totfact> 0.15050678E+01</totfact>
</mgrwt>
</event>
<event>
 6    1  0.1950139E-004  0.3000000E+03  0.7818608E-02  0.1093470E+00
          1   -1    0    0  502    0  0.00000000000E+00  0.00000000000E+00  0.37932343703E+02  0.37932343703E+02  0.00000000000E+00 0.  1.
         13   -1    0    0    0    0 -0.00000000000E+00 -0.00000000000E+00 -0.10000000000E+04  0.10000000000E+04  0.00000000000E+00 0.  1.
    9000005    2    1    2  501    0 -0.51315661938E+01 -0.19060659866E+02 -0.96051077579E+03  0.10181316972E+04  0.33707797415E+03 0.  0.
         13    1    3    3    0    0  0.52985088776E+01  0.60600059477E+01  0.28057446746E+02  0.29189350563E+02  0.00000000000E+00 0.  1.
          3    1    3    3  501    0 -0.10430075071E+02 -0.25120665813E+02 -0.98856822253E+03  0.98894234661E+03  0.00000000000E+00 0.  1.
         21    1    1    2  502  501  0.51315661938E+01  0.19060659866E+02 -0.15568805120E+01  0.19800646531E+02  0.00000000000E+00 0.  1.
<mgrwt>
<rscale>  1 0.30000000E+03</rscale>
<asrwt>0</asrwt>
<pdfrwt beam="1">  1        1 0.13793609E+00 0.30000000E+03</pdfrwt>
<pdfrwt beam="2">0</pdfrwt>
<totfact> 0.20744534E+01</totfact>
</mgrwt>
</event>
<event>
 6    1  0.1950139E-004  0.3000000E+03  0.7818608E-02  0.1093470E+00
          1   -1    0    0  502    0  0.00000000000E+00  0.00000000000E+00  0.27121989562E+02  0.27121989562E+02  0.00000000000E+00 0.  1.
         13   -1    0    0    0    0 -0.00000000000E+00 -0.00000000000E+00 -0.10000000000E+04  0.10000000000E+04  0.00000000000E+00 0.  1.
    9000005    2    1    2  501    0 -0.11046282336E+01 -0.91197638520E+01 -0.95739661665E+03  0.10091202160E+04  0.31879607675E+03 0.  0.
         13    1    3    3    0    0 -0.78859221449E+02 -0.13478319635E+03 -0.33784137527E+03  0.37218554737E+03  0.00000000000E+00 0.  1.
          1    1    3    3  501    0  0.77754593215E+02  0.12566343250E+03 -0.61955524138E+03  0.63693466867E+03  0.00000000000E+00 0.  1.
         21    1    1    2  502  501  0.11046282336E+01  0.91197638520E+01 -0.15481393787E+02  0.18001773519E+02  0.00000000000E+00 0.  1.
<mgrwt>
<rscale>  1 0.30000000E+03</rscale>
<asrwt>0</asrwt>
<pdfrwt beam="1">  1        1 0.98625625E-01 0.30000000E+03</pdfrwt>
<pdfrwt beam="2">0</pdfrwt>
<totfact> 0.34925057E+01</totfact>
</mgrwt>
</event>
<event>
 6    1  0.1950139E-004  0.3000000E+03  0.7818608E-02  0.1093470E+00
          1   -1    0    0  502    0  0.00000000000E+00  0.00000000000E+00  0.34804107523E+02  0.34804107523E+02  0.00000000000E+00 0.  1.
         13   -1    0    0    0    0 -0.00000000000E+00 -0.00000000000E+00 -0.10000000000E+04  0.10000000000E+04  0.00000000000E+00 0.  1.
    9000005    2    1    2  501    0  0.37557891682E+02 -0.14724944036E+02 -0.79212518629E+03  0.85709398247E+03  0.32483898294E+03 0.  0.
         13    1    3    3    0    0 -0.22930516832E+02  0.12124801776E+02 -0.79046804166E+03  0.79089351009E+03  0.00000000000E+00 0.  1.
          3    1    3    3  501    0  0.60488408515E+02 -0.26849745812E+02 -0.16571446247E+01  0.66200472378E+02  0.00000000000E+00 0.  1.
         21    1    1    2  502  501 -0.37557891682E+02  0.14724944036E+02 -0.17307070619E+03  0.17771012505E+03  0.00000000000E+00 0. -1.
<mgrwt>
<rscale>  1 0.30000000E+03</rscale>
<asrwt>0</asrwt>
<pdfrwt beam="1">  1        1 0.12656066E+00 0.30000000E+03</pdfrwt>
<pdfrwt beam="2">0</pdfrwt>
<totfact> 0.23894484E+01</totfact>
</mgrwt>
</event>
<event>
 6    1  0.1950139E-004  0.3000000E+03  0.7818608E-02  0.1093470E+00
          1   -1    0    0  502    0  0.00000000000E+00  0.00000000000E+00  0.32891018479E+02  0.32891018479E+02  0.00000000000E+00 0.  1.
         13   -1    0    0    0    0 -0.00000000000E+00 -0.00000000000E+00 -0.10000000000E+04  0.10000000000E+04  0.00000000000E+00 0.  1.
    9000005    2    1    2  501    0  0.15958969379E+02  0.30573319175E+01 -0.96228494236E+03  0.10159408758E+04  0.32539132887E+03 0.  0.
         13    1    3    3    0    0  0.16167874227E+03  0.42400444234E+02 -0.61425500320E+03  0.63659015256E+03  0.00000000000E+00 0.  1.
          1    1    3    3  501    0 -0.14571977289E+03 -0.39343112316E+02 -0.34802993916E+03  0.37935072327E+03  0.00000000000E+00 0.  1.
         21    1    1    2  502  501 -0.15958969379E+02 -0.30573319175E+01 -0.48240391636E+01  0.16950142653E+02  0.00000000000E+00 0.  1.
<mgrwt>
<rscale>  1 0.30000000E+03</rscale>
<asrwt>0</asrwt>
<pdfrwt beam="1">  1        1 0.11960396E+00 0.30000000E+03</pdfrwt>
<pdfrwt beam="2">0</pdfrwt>
<totfact> 0.26130526E+01</totfact>
</mgrwt>
</event>
<event>
 6    1  0.1950139E-004  0.3000000E+03  0.7818608E-02  0.1093470E+00
          1   -1    0    0  502    0  0.00000000000E+00  0.00000000000E+00  0.29762333461E+02  0.29762333461E+02  0.00000000000E+00 0.  1.
         13   -1    0    0    0    0 -0.00000000000E+00 -0.00000000000E+00 -0.10000000000E+04  0.10000000000E+04  0.00000000000E+00 0.  1.
    9000005    2    1    2  501    0 -0.18747594832E+02 -0.21618396192E+01 -0.89878925052E+03  0.95586360537E+03  0.32480297004E+03 0.  0.
         13    1    3    3    0    0  0.43456175467E+02 -0.10097114347E+03 -0.10006125150E+03  0.14864677948E+03  0.00000000000E+00 0.  1.
          1    1    3    3  501    0 -0.62203770299E+02  0.98809303846E+02 -0.79872799902E+03  0.80721682589E+03  0.00000000000E+00 0.  1.
         21    1    1    2  502  501  0.18747594832E+02  0.21618396192E+01 -0.71448416018E+02  0.73898728095E+02  0.00000000000E+00 0.  1.
<mgrwt>
<rscale>  1 0.30000000E+03</rscale>
<asrwt>0</asrwt>
<pdfrwt beam="1">  1        1 0.10822690E+00 0.30000000E+03</pdfrwt>
<pdfrwt beam="2">0</pdfrwt>
<totfact> 0.30445320E+01</totfact>
</mgrwt>
</event>
<event>
 6    1  0.1950139E-004  0.3000000E+03  0.7818608E-02  0.1093470E+00
          1   -1    0    0  502    0  0.00000000000E+00  0.00000000000E+00  0.35793566028E+02  0.35793566028E+02  0.00000000000E+00 0.  1.
         13   -1    0    0    0    0 -0.00000000000E+00 -0.00000000000E+00 -0.10000000000E+04  0.10000000000E+04  0.00000000000E+00 0.  1.
    9000005    2    1    2  501    0  0.35249918750E+02 -0.14045317856E+01 -0.89274169620E+03  0.95609577292E+03  0.34042159359E+03 0.  0.
         13    1    3    3    0    0  0.18091767300E+03 -0.10659840965E+02 -0.35088378403E+03  0.39492311468E+03  0.00000000000E+00 0.  1.
          1    1    3    3  501    0 -0.14566775425E+03  0.92553091793E+01 -0.54185791217E+03  0.56117265824E+03  0.00000000000E+00 0.  1.
         21    1    1    2  502  501 -0.35249918750E+02  0.14045317856E+01 -0.71464737774E+02  0.79697793109E+02  0.00000000000E+00 0.  1.
<mgrwt>
<rscale>  1 0.30000000E+03</rscale>
<asrwt>0</asrwt>
<pdfrwt beam="1">  1        1 0.13015870E+00 0.30000000E+03</pdfrwt>
<pdfrwt beam="2">0</pdfrwt>
<totfact> 0.22834316E+01</totfact>
</mgrwt>
</event>
<event>
 6    1  0.1950139E-004  0.3000000E+03  0.7818608E-02  0.1093470E+00
          1   -1    0    0  502    0  0.00000000000E+00  0.00000000000E+00  0.31647987840E+02  0.31647987840E+02  0.00000000000E+00 0.  1.
         13   -1    0    0    0    0 -0.00000000000E+00 -0.00000000000E+00 -0.10000000000E+04  0.10000000000E+04  0.00000000000E+00 0.  1.
    9000005    2    1    2  501    0  0.11465302452E+02 -0.71277258109E+01 -0.96554428179E+03  0.10178588260E+04  0.32183625007E+03 0.  0.
         13    1    3    3    0    0  0.18329848878E+02  0.23707896139E+02  0.17236226307E+02  0.34570727452E+02  0.00000000000E+00 0.  1.
          3    1    3    3  501    0 -0.68645464255E+01 -0.30835621950E+02 -0.98278050809E+03  0.98328809851E+03  0.00000000000E+00 0.  1.
         21    1    1    2  502  501 -0.11465302452E+02  0.71277258109E+01 -0.28077303744E+01  0.13789161882E+02  0.00000000000E+00 0. -1.
<mgrwt>
<rscale>  1 0.30000000E+03</rscale>
<asrwt>0</asrwt>
<pdfrwt beam="1">  1        1 0.11508383E+00 0.30000000E+03</pdfrwt>
<pdfrwt beam="2">0</pdfrwt>
<totfact> 0.27735097E+01</totfact>
</mgrwt>
</event>
<event>
 6    1  0.1950139E-004  0.3000000E+03  0.7818608E-02  0.1093470E+00
          1   -1    0    0  502    0  0.00000000000E+00  0.00000000000E+00  0.23988498433E+02  0.23988498433E+02  0.00000000000E+00 0.  1.
         13   -1    0    0    0    0 -0.00000000000E+00 -0.00000000000E+00 -0.10000000000E+04  0.10000000000E+04  0.00000000000E+00 0.  1.
    9000005    2    1    2  501    0  0.17210558523E+02  0.15812340096E+01 -0.87244898621E+03  0.91899374517E+03  0.28824220110E+03 0.  0.
         13    1    3    3    0    0  0.50717476064E+01 -0.14326687341E+03 -0.42487879530E+03  0.44841176428E+03  0.00000000000E+00 0.  1.
          3    1    3    3  501    0  0.12138810916E+02  0.14484810742E+03 -0.44757019091E+03  0.47058198090E+03  0.00000000000E+00 0.  1.
         21    1    1    2  502  501 -0.17210558523E+02 -0.15812340096E+01 -0.10356251535E+03  0.10499475326E+03  0.00000000000E+00 0. -1.
<mgrwt>
<rscale>  1 0.30000000E+03</rscale>
<asrwt>0</asrwt>
<pdfrwt beam="1">  1        1 0.87231087E-01 0.30000000E+03</pdfrwt>
<pdfrwt beam="2">0</pdfrwt>
<totfact> 0.41628587E+01</totfact>
</mgrwt>
</event>
<event>
 6    1  0.1950139E-004  0.3000000E+03  0.7818608E-02  0.1093470E+00
          1   -1    0    0  502    0  0.00000000000E+00  0.00000000000E+00  0.32087768611E+02  0.32087768611E+02  0.00000000000E+00 0.  1.
         13   -1    0    0    0    0 -0.00000000000E+00 -0.00000000000E+00 -0.10000000000E+04  0.10000000000E+04  0.00000000000E+00 0.  1.
    9000005    2    1    2  501    0 -0.31295849600E+02 -0.13258982992E+02 -0.82814253961E+03  0.88824480711E+03  0.31937993146E+03 0.  0.
         13    1    3    3    0    0 -0.38427562202E+02  0.99750955782E+02 -0.73181314008E+03  0.73957920652E+03  0.00000000000E+00 0.  1.
          3    1    3    3  501    0  0.71317126024E+01 -0.11300993877E+03 -0.96329399522E+02  0.14866560059E+03  0.00000000000E+00 0.  1.
         21    1    1    2  502  501  0.31295849600E+02  0.13258982992E+02 -0.13976969178E+03  0.14384296150E+03  0.00000000000E+00 0. -1.
<mgrwt>
<rscale>  1 0.30000000E+03</rscale>
<asrwt>0</asrwt>
<pdfrwt beam="1">  1        1 0.11668304E+00 0.30000000E+03</pdfrwt>
<pdfrwt beam="2">0</pdfrwt>
<totfact> 0.27152286E+01</totfact>
</mgrwt>
</event>
<event>
 6    1  0.1950139E-004  0.3000000E+03  0.7818608E-02  0.1093470E+00
          1   -1    0    0  502    0  0.00000000000E+00  0.00000000000E+00  0.45567648800E+02  0.45567648800E+02  0.00000000000E+00 0.  1.
         13   -1    0    0    0    0 -0.00000000000E+00 -0.00000000000E+00 -0.10000000000E+04  0.10000000000E+04  0.00000000000E+00 0.  1.
    9000005    2    1    2  501    0  0.33874022933E+01  0.11799273035E+02 -0.96973135528E+03  0.10259524286E+04  0.33473689211E+03 0.  0.
         13    1    3    3    0    0  0.14072823931E+02 -0.25688428264E+02 -0.98400471803E+03  0.98444056439E+03  0.00000000000E+00 0.  1.
          3    1    3    3  501    0 -0.10685421637E+02  0.37487701299E+02  0.14273362742E+02  0.41511864186E+02  0.00000000000E+00 0.  1.
         21    1    1    2  502  501 -0.33874022933E+01 -0.11799273035E+02  0.15299004085E+02  0.19615220224E+02  0.00000000000E+00 0. -1.
<mgrwt>
<rscale>  1 0.30000000E+03</rscale>
<asrwt>0</asrwt>
<pdfrwt beam="1">  1        1 0.16570089E+00 0.30000000E+03</pdfrwt>
<pdfrwt beam="2">0</pdfrwt>
<totfact> 0.14997707E+01</totfact>
</mgrwt>
</event>
<event>
 6    1  0.1950139E-004  0.3000000E+03  0.7818608E-02  0.1093470E+00
          1   -1    0    0  502    0  0.00000000000E+00  0.00000000000E+00  0.30721439098E+02  0.30721439098E+02  0.00000000000E+00 0.  1.
         13   -1    0    0    0    0 -0.00000000000E+00 -0.00000000000E+00 -0.10000000000E+04  0.10000000000E+04  0.00000000000E+00 0.  1.
    9000005    2    1    2  501    0  0.27621473068E+02  0.80957859551E+01 -0.89802462250E+03  0.95387346409E+03  0.32030903103E+03 0.  0.
         13    1    3    3    0    0  0.56431622218E+02  0.10433506020E+03 -0.11768179696E+03  0.16709080797E+03  0.00000000000E+00 0.  1.
          3    1    3    3  501    0 -0.28810149150E+02 -0.96239274241E+02 -0.78034282554E+03  0.78678265612E+03  0.00000000000E+00 0.  1.
         21    1    1    2  502  501 -0.27621473068E+02 -0.80957859551E+01 -0.71253938405E+02  0.76847975008E+02  0.00000000000E+00 0. -1.
<mgrwt>
<rscale>  1 0.30000000E+03</rscale>
<asrwt>0</asrwt>
<pdfrwt beam="1">  1        1 0.11171456E+00 0.30000000E+03</pdfrwt>
<pdfrwt beam="2">0</pdfrwt>
<totfact> 0.29022030E+01</totfact>
</mgrwt>
</event>
<event>
 6    1  0.1950139E-004  0.3000000E+03  0.7818608E-02  0.1093470E+00
          3   -1    0    0  502    0  0.00000000000E+00  0.00000000000E+00  0.28119144162E+02  0.28119144162E+02  0.00000000000E+00 0.  1.
         13   -1    0    0    0    0 -0.00000000000E+00 -0.00000000000E+00 -0.10000000000E+04  0.10000000000E+04  0.00000000000E+00 0.  1.
    9000005    2    1    2  501    0  0.62465568731E+00  0.10035399350E+02 -0.94471936084E+03  0.99915630167E+03  0.32514234572E+03 0.  0.
         13    1    3    3    0    0  0.69388804107E+02 -0.63155488332E+02 -0.86727967401E+03  0.87234021734E+03  0.00000000000E+00 0.  1.
          1    1    3    3  501    0 -0.68764148420E+02  0.73190887682E+02 -0.77439686832E+02  0.12681608433E+03  0.00000000000E+00 0.  1.
         21    1    1    2  502  501 -0.62465568731E+00 -0.10035399350E+02 -0.27161494998E+02  0.28962842495E+02  0.00000000000E+00 0.  1.
<mgrwt>
<rscale>  1 0.30000000E+03</rscale>
<asrwt>0</asrwt>
<pdfrwt beam="1">  1        3 0.10225165E+00 0.30000000E+03</pdfrwt>
<pdfrwt beam="2">0</pdfrwt>
<totfact> 0.36924328E+00</totfact>
</mgrwt>
</event>
<event>
 6    1  0.1950139E-004  0.3000000E+03  0.7818608E-02  0.1093470E+00
          1   -1    0    0  502    0  0.00000000000E+00  0.00000000000E+00  0.14365865521E+02  0.14365865521E+02  0.00000000000E+00 0.  1.
         13   -1    0    0    0    0 -0.00000000000E+00 -0.00000000000E+00 -0.10000000000E+04  0.10000000000E+04  0.00000000000E+00 0.  1.
    9000005    2    1    2  501    0  0.80806987476E+01 -0.11105451590E+02 -0.97927507492E+03  0.99923092628E+03  0.19822750297E+03 0.  0.
         13    1    3    3    0    0 -0.49193555655E+02  0.73259486204E+02 -0.31312762289E+03  0.32532424818E+03  0.00000000000E+00 0.  1.
          1    1    3    3  501    0  0.57274254403E+02 -0.84364937794E+02 -0.66614745203E+03  0.67390667811E+03  0.00000000000E+00 0.  1.
         21    1    1    2  502  501 -0.80806987476E+01  0.11105451590E+02 -0.63590595577E+01  0.15134939237E+02  0.00000000000E+00 0.  1.
<mgrwt>
<rscale>  1 0.30000000E+03</rscale>
<asrwt>0</asrwt>
<pdfrwt beam="1">  1        1 0.52239621E-01 0.30000000E+03</pdfrwt>
<pdfrwt beam="2">0</pdfrwt>
<totfact> 0.83304296E+01</totfact>
</mgrwt>
</event>
<event>
 6    1  0.1950139E-004  0.3000000E+03  0.7818608E-02  0.1093470E+00
          1   -1    0    0  502    0  0.00000000000E+00  0.00000000000E+00  0.26795661234E+02  0.26795661234E+02  0.00000000000E+00 0.  1.
         13   -1    0    0    0    0 -0.00000000000E+00 -0.00000000000E+00 -0.10000000000E+04  0.10000000000E+04  0.00000000000E+00 0.  1.
    9000005    2    1    2  501    0 -0.29682368954E+01 -0.10364867668E+02 -0.95443566195E+03  0.10051507047E+04  0.31506232008E+03 0.  0.
         13    1    3    3    0    0  0.75599757217E+02 -0.13721037259E+03 -0.36650598192E+03  0.39858329672E+03  0.00000000000E+00 0.  1.
          1    1    3    3  501    0 -0.78567994113E+02  0.12684550493E+03 -0.58792968003E+03  0.60656740803E+03  0.00000000000E+00 0.  1.
         21    1    1    2  502  501  0.29682368954E+01  0.10364867668E+02 -0.18768676812E+02  0.21644956487E+02  0.00000000000E+00 0. -1.
<mgrwt>
<rscale>  1 0.30000000E+03</rscale>
<asrwt>0</asrwt>
<pdfrwt beam="1">  1        1 0.97438974E-01 0.30000000E+03</pdfrwt>
<pdfrwt beam="2">0</pdfrwt>
<totfact> 0.35544862E+01</totfact>
</mgrwt>
</event>
<event>
 6    1  0.1950139E-004  0.3000000E+03  0.7818608E-02  0.1093470E+00
          1   -1    0    0  502    0  0.00000000000E+00  0.00000000000E+00  0.42484658411E+02  0.42484658411E+02  0.00000000000E+00 0.  1.
         13   -1    0    0    0    0 -0.00000000000E+00 -0.00000000000E+00 -0.10000000000E+04  0.10000000000E+04  0.00000000000E+00 0.  1.
    9000005    2    1    2  501    0 -0.30754668753E+01  0.10631618103E+02 -0.97182685371E+03  0.10243929703E+04  0.32374532302E+03 0.  0.
         13    1    3    3    0    0  0.10692198549E+02  0.42277500309E+02 -0.98608773150E+03  0.98705153075E+03  0.00000000000E+00 0.  1.
          3    1    3    3  501    0 -0.13767665425E+02 -0.31645882206E+02  0.14260877785E+02  0.37341439541E+02  0.00000000000E+00 0.  1.
         21    1    1    2  502  501  0.30754668753E+01 -0.10631618103E+02  0.14311512122E+02  0.18091688124E+02  0.00000000000E+00 0.  1.
<mgrwt>
<rscale>  1 0.30000000E+03</rscale>
<asrwt>0</asrwt>
<pdfrwt beam="1">  1        1 0.15448999E+00 0.30000000E+03</pdfrwt>
<pdfrwt beam="2">0</pdfrwt>
<totfact> 0.17050229E+01</totfact>
</mgrwt>
</event>
<event>
 6    1  0.1950139E-004  0.3000000E+03  0.7818608E-02  0.1093470E+00
          1   -1    0    0  502    0  0.00000000000E+00  0.00000000000E+00  0.50151152699E+02  0.50151152699E+02  0.00000000000E+00 0.  1.
         13   -1    0    0    0    0 -0.00000000000E+00 -0.00000000000E+00 -0.10000000000E+04  0.10000000000E+04  0.00000000000E+00 0.  1.
    9000005    2    1    2  501    0  0.14538236565E+02 -0.40005023859E+01 -0.96999010468E+03  0.10249909740E+04  0.33090531774E+03 0.  0.
         13    1    3    3    0    0 -0.77419381233E+02  0.11621058473E+03 -0.71465808873E+03  0.72817226285E+03  0.00000000000E+00 0.  1.
          1    1    3    3  501    0  0.91957617798E+02 -0.12021108711E+03 -0.25533201595E+03  0.29681871118E+03  0.00000000000E+00 0.  1.
         21    1    1    2  502  501 -0.14538236565E+02  0.40005023859E+01  0.20141257383E+02  0.25160178671E+02  0.00000000000E+00 0. -1.
<mgrwt>
<rscale>  1 0.30000000E+03</rscale>
<asrwt>0</asrwt>
<pdfrwt beam="1">  1        1 0.18236821E+00 0.30000000E+03</pdfrwt>
<pdfrwt beam="2">0</pdfrwt>
<totfact> 0.12442337E+01</totfact>
</mgrwt>
</event>
<event>
 6    1  0.1950139E-004  0.3000000E+03  0.7818608E-02  0.1093470E+00
          1   -1    0    0  502    0  0.00000000000E+00  0.00000000000E+00  0.30712675361E+02  0.30712675361E+02  0.00000000000E+00 0.  1.
         13   -1    0    0    0    0 -0.00000000000E+00 -0.00000000000E+00 -0.10000000000E+04  0.10000000000E+04  0.00000000000E+00 0.  1.
    9000005    2    1    2  501    0  0.13054364157E+02 -0.44343843388E+01 -0.93477071623E+03  0.99354445716E+03  0.33636916662E+03 0.  0.
         13    1    3    3    0    0  0.10352775272E+03 -0.25211187014E+02 -0.78726690452E+02  0.13248204152E+03  0.00000000000E+00 0.  1.
          1    1    3    3  501    0 -0.90473388567E+02  0.20776802675E+02 -0.85604402578E+03  0.86106241565E+03  0.00000000000E+00 0.  1.
         21    1    1    2  502  501 -0.13054364157E+02  0.44343843388E+01 -0.34516608407E+02  0.37168218197E+02  0.00000000000E+00 0.  1.
<mgrwt>
<rscale>  1 0.30000000E+03</rscale>
<asrwt>0</asrwt>
<pdfrwt beam="1">  1        1 0.11168269E+00 0.30000000E+03</pdfrwt>
<pdfrwt beam="2">0</pdfrwt>
<totfact> 0.29034604E+01</totfact>
</mgrwt>
</event>
<event>
 6    1  0.1950139E-004  0.3000000E+03  0.7818608E-02  0.1093470E+00
          1   -1    0    0  502    0  0.00000000000E+00  0.00000000000E+00  0.44505114938E+02  0.44505114938E+02  0.00000000000E+00 0.  1.
         13   -1    0    0    0    0 -0.00000000000E+00 -0.00000000000E+00 -0.10000000000E+04  0.10000000000E+04  0.00000000000E+00 0.  1.
    9000005    2    1    2  501    0 -0.29709378484E+01  0.44765356137E+02 -0.94078339628E+03  0.99729080054E+03  0.32787616342E+03 0.  0.
         13    1    3    3    0    0 -0.11035678878E+03  0.13551267411E+02 -0.10136637744E+03  0.15045730343E+03  0.00000000000E+00 0.  1.
          3    1    3    3  501    0  0.10738585093E+03  0.31214088726E+02 -0.83941701884E+03  0.84683349712E+03  0.00000000000E+00 0.  1.
         21    1    1    2  502  501  0.29709378484E+01 -0.44765356137E+02 -0.14711488780E+02  0.47214314396E+02  0.00000000000E+00 0. -1.
<mgrwt>
<rscale>  1 0.30000000E+03</rscale>
<asrwt>0</asrwt>
<pdfrwt beam="1">  1        1 0.16183712E+00 0.30000000E+03</pdfrwt>
<pdfrwt beam="2">0</pdfrwt>
<totfact> 0.15670819E+01</totfact>
</mgrwt>
</event>
<event>
 6    1  0.1950139E-004  0.3000000E+03  0.7818608E-02  0.1093470E+00
          3   -1    0    0  502    0  0.00000000000E+00  0.00000000000E+00  0.41383817930E+02  0.41383817930E+02  0.00000000000E+00 0.  1.
         13   -1    0    0    0    0 -0.00000000000E+00 -0.00000000000E+00 -0.10000000000E+04  0.10000000000E+04  0.00000000000E+00 0.  1.
    9000005    2    1    2  501    0  0.11782715098E+02  0.76988171209E+00 -0.97123269063E+03  0.10241037317E+04  0.32458602677E+03 0.  0.
         13    1    3    3    0    0 -0.10888878246E+03  0.72573020234E+02 -0.19220274406E+03  0.23251990245E+03  0.00000000000E+00 0.  1.
          1    1    3    3  501    0  0.12067149756E+03 -0.71803138521E+02 -0.77902994657E+03  0.79158382922E+03  0.00000000000E+00 0.  1.
         21    1    1    2  502  501 -0.11782715098E+02 -0.76988171209E+00  0.12616508562E+02  0.17280086262E+02  0.00000000000E+00 0.  1.
<mgrwt>
<rscale>  1 0.30000000E+03</rscale>
<asrwt>0</asrwt>
<pdfrwt beam="1">  1        3 0.15048693E+00 0.30000000E+03</pdfrwt>
<pdfrwt beam="2">0</pdfrwt>
<totfact> 0.97477505E-01</totfact>
</mgrwt>
</event>
<event>
 6    1  0.1950139E-004  0.3000000E+03  0.7818608E-02  0.1093470E+00
          1   -1    0    0  502    0  0.00000000000E+00  0.00000000000E+00  0.49809235077E+02  0.49809235077E+02  0.00000000000E+00 0.  1.
         13   -1    0    0    0    0 -0.00000000000E+00 -0.00000000000E+00 -0.10000000000E+04  0.10000000000E+04  0.00000000000E+00 0.  1.
    9000005    2    1    2  501    0 -0.10254667857E+02 -0.15097324479E+02 -0.96582391738E+03  0.10257783617E+04  0.34506857368E+03 0.  0.
         13    1    3    3    0    0 -0.39494912799E+02 -0.17325737965E+03 -0.40334576708E+03  0.44075591381E+03  0.00000000000E+00 0.  1.
          1    1    3    3  501    0  0.29240244942E+02  0.15816005517E+03 -0.56247815030E+03  0.58502244790E+03  0.00000000000E+00 0.  1.
         21    1    1    2  502  501  0.10254667857E+02  0.15097324479E+02  0.15633152457E+02  0.24030873372E+02  0.00000000000E+00 0.  1.
<mgrwt>
<rscale>  1 0.30000000E+03</rscale>
<asrwt>0</asrwt>
<pdfrwt beam="1">  1        1 0.18112487E+00 0.30000000E+03</pdfrwt>
<pdfrwt beam="2">0</pdfrwt>
<totfact> 0.12615503E+01</totfact>
</mgrwt>
</event>
<event>
 6    1  0.1950139E-004  0.3000000E+03  0.7818608E-02  0.1093470E+00
          1   -1    0    0  502    0  0.00000000000E+00  0.00000000000E+00  0.29933705331E+02  0.29933705331E+02  0.00000000000E+00 0.  1.
         13   -1    0    0    0    0 -0.00000000000E+00 -0.00000000000E+00 -0.10000000000E+04  0.10000000000E+04  0.00000000000E+00 0.  1.
    9000005    2    1    2  501    0 -0.51235604609E+01  0.83639842368E+01 -0.96170541411E+03  0.10170452831E+04  0.33076819259E+03 0.  0.
         13    1    3    3    0    0 -0.13719260177E+03  0.48164790417E+02 -0.75277593001E+03  0.76668980548E+03  0.00000000000E+00 0.  1.
          1    1    3    3  501    0  0.13206904131E+03 -0.39800806180E+02 -0.20892948409E+03  0.25035547761E+03  0.00000000000E+00 0.  1.
         21    1    1    2  502  501  0.51235604609E+01 -0.83639842368E+01 -0.83608805596E+01  0.12888422240E+02  0.00000000000E+00 0.  1.
<mgrwt>
<rscale>  1 0.30000000E+03</rscale>
<asrwt>0</asrwt>
<pdfrwt beam="1">  1        1 0.10885007E+00 0.30000000E+03</pdfrwt>
<pdfrwt beam="2">0</pdfrwt>
<totfact> 0.30183831E+01</totfact>
</mgrwt>
</event>
<event>
 6    1  0.1950139E-004  0.3000000E+03  0.7818608E-02  0.1093470E+00
          1   -1    0    0  502    0  0.00000000000E+00  0.00000000000E+00  0.46886451980E+02  0.46886451980E+02  0.00000000000E+00 0.  1.
         13   -1    0    0    0    0 -0.00000000000E+00 -0.00000000000E+00 -0.10000000000E+04  0.10000000000E+04  0.00000000000E+00 0.  1.
    9000005    2    1    2  501    0 -0.17505317331E+02 -0.23400214503E+02 -0.96161643490E+03  0.10164511886E+04  0.32804396764E+03 0.  0.
         13    1    3    3    0    0  0.13562735411E+03  0.62003181281E+02 -0.52997487648E+03  0.55055657599E+03  0.00000000000E+00 0.  1.
          3    1    3    3  501    0 -0.15313267144E+03 -0.85403395784E+02 -0.43164155842E+03  0.46589461258E+03  0.00000000000E+00 0.  1.
         21    1    1    2  502  501  0.17505317331E+02  0.23400214503E+02  0.85028868769E+01  0.30435263411E+02  0.00000000000E+00 0.  1.
<mgrwt>
<rscale>  1 0.30000000E+03</rscale>
<asrwt>0</asrwt>
<pdfrwt beam="1">  1        1 0.17049655E+00 0.30000000E+03</pdfrwt>
<pdfrwt beam="2">0</pdfrwt>
<totfact> 0.14207606E+01</totfact>
</mgrwt>
</event>
<event>
 6    1  0.1950139E-004  0.3000000E+03  0.7818608E-02  0.1093470E+00
          1   -1    0    0  502    0  0.00000000000E+00  0.00000000000E+00  0.62522958879E+02  0.62522958879E+02  0.00000000000E+00 0.  1.
         13   -1    0    0    0    0 -0.00000000000E+00 -0.00000000000E+00 -0.10000000000E+04  0.10000000000E+04  0.00000000000E+00 0.  1.
    9000005    2    1    2  501    0 -0.92927640937E+02  0.25626985482E+02 -0.89900153789E+03  0.95873156625E+03  0.31885758915E+03 0.  0.
         13    1    3    3    0    0 -0.15695479201E+03 -0.56641442401E+02 -0.24470125159E+03  0.29617859859E+03  0.00000000000E+00 0.  1.
          3    1    3    3  501    0  0.64027151077E+02  0.82268427884E+02 -0.65430028630E+03  0.66255296766E+03  0.00000000000E+00 0.  1.
         21    1    1    2  502  501  0.92927640937E+02 -0.25626985482E+02 -0.38475503231E+02  0.10379139263E+03  0.00000000000E+00 0. -1.
<mgrwt>
<rscale>  1 0.30000000E+03</rscale>
<asrwt>0</asrwt>
<pdfrwt beam="1">  1        1 0.22735669E+00 0.30000000E+03</pdfrwt>
<pdfrwt beam="2">0</pdfrwt>
<totfact> 0.76143598E+00</totfact>
</mgrwt>
</event>
<event>
 6    1  0.1950139E-004  0.3000000E+03  0.7818608E-02  0.1093470E+00
          1   -1    0    0  502    0  0.00000000000E+00  0.00000000000E+00  0.47609127003E+02  0.47609127003E+02  0.00000000000E+00 0.  1.
         13   -1    0    0    0    0 -0.00000000000E+00 -0.00000000000E+00 -0.10000000000E+04  0.10000000000E+04  0.00000000000E+00 0.  1.
    9000005    2    1    2  501    0  0.12068084519E+03 -0.12774367080E+02 -0.87230286602E+03  0.90220919677E+03  0.19581137305E+03 0.  0.
         13    1    3    3    0    0  0.14149683033E+02 -0.12013776865E+02 -0.69579827782E+03  0.69604582305E+03  0.00000000000E+00 0.  1.
          3    1    3    3  501    0  0.10653116216E+03 -0.76059021523E+00 -0.17650458820E+03  0.20616337372E+03  0.00000000000E+00 0.  1.
         21    1    1    2  502  501 -0.12068084519E+03  0.12774367080E+02 -0.80088006978E+02  0.14539993024E+03  0.00000000000E+00 0.  1.
<mgrwt>
<rscale>  1 0.30000000E+03</rscale>
<asrwt>0</asrwt>
<pdfrwt beam="1">  1        1 0.17312446E+00 0.30000000E+03</pdfrwt>
<pdfrwt beam="2">0</pdfrwt>
<totfact> 0.13794579E+01</totfact>
</mgrwt>
</event>
<event>
 6    1  0.1950139E-004  0.3000000E+03  0.7818608E-02  0.1093470E+00
          1   -1    0    0  502    0  0.00000000000E+00  0.00000000000E+00  0.49423787508E+02  0.49423787508E+02  0.00000000000E+00 0.  1.
         13   -1    0    0    0    0 -0.00000000000E+00 -0.00000000000E+00 -0.10000000000E+04  0.10000000000E+04  0.00000000000E+00 0.  1.
    9000005    2    1    2  501    0  0.13898757102E+02 -0.94468170724E+01 -0.97135507934E+03  0.10226996578E+04  0.31953322532E+03 0.  0.
         13    1    3    3    0    0 -0.14351497479E+03 -0.42802444183E+02 -0.59158986328E+03  0.61025172147E+03  0.00000000000E+00 0.  1.
          1    1    3    3  501    0  0.15741373190E+03  0.33355627111E+02 -0.37976521606E+03  0.41244793632E+03  0.00000000000E+00 0.  1.
         21    1    1    2  502  501 -0.13898757102E+02  0.94468170724E+01  0.20778866846E+02  0.26724129718E+02  0.00000000000E+00 0.  1.
<mgrwt>
<rscale>  1 0.30000000E+03</rscale>
<asrwt>0</asrwt>
<pdfrwt beam="1">  1        1 0.17972324E+00 0.30000000E+03</pdfrwt>
<pdfrwt beam="2">0</pdfrwt>
<totfact> 0.12813891E+01</totfact>
</mgrwt>
</event>
<event>
 6    1  0.1950139E-004  0.3000000E+03  0.7818608E-02  0.1093470E+00
          1   -1    0    0  502    0  0.00000000000E+00  0.00000000000E+00  0.28526318454E+02  0.28526318454E+02  0.00000000000E+00 0.  1.
         13   -1    0    0    0    0 -0.00000000000E+00 -0.00000000000E+00 -0.10000000000E+04  0.10000000000E+04  0.00000000000E+00 0.  1.
    9000005    2    1    2  501    0  0.45684176039E+01  0.75507644267E+01 -0.94791375879E+03  0.10033677326E+04  0.32882887373E+03 0.  0.
         13    1    3    3    0    0 -0.30429247416E+02 -0.15652282058E+03 -0.51340383876E+03  0.53759541862E+03  0.00000000000E+00 0.  1.
          1    1    3    3  501    0  0.34997665020E+02  0.16407358501E+03 -0.43450992003E+03  0.46577231397E+03  0.00000000000E+00 0.  1.
         21    1    1    2  502  501 -0.45684176039E+01 -0.75507644267E+01 -0.23559922752E+02  0.25158585868E+02  0.00000000000E+00 0.  1.
<mgrwt>
<rscale>  1 0.30000000E+03</rscale>
<asrwt>0</asrwt>
<pdfrwt beam="1">  1        1 0.10373229E+00 0.30000000E+03</pdfrwt>
<pdfrwt beam="2">0</pdfrwt>
<totfact> 0.32431407E+01</totfact>
</mgrwt>
</event>
<event>
 6    1  0.1950139E-004  0.3000000E+03  0.7818608E-02  0.1093470E+00
          1   -1    0    0  502    0  0.00000000000E+00  0.00000000000E+00  0.28472484157E+02  0.28472484157E+02  0.00000000000E+00 0.  1.
         13   -1    0    0    0    0 -0.00000000000E+00 -0.00000000000E+00 -0.10000000000E+04  0.10000000000E+04  0.00000000000E+00 0.  1.
    9000005    2    1    2  501    0  0.11947139590E+02  0.47541397909E+00 -0.95505551707E+03  0.10081184451E+04  0.32253495699E+03 0.  0.
         13    1    3    3    0    0  0.28533772407E+01  0.16143336256E+03 -0.46643798706E+03  0.49359220829E+03  0.00000000000E+00 0.  1.
          1    1    3    3  501    0  0.90937623491E+01 -0.16095794858E+03 -0.48861753000E+03  0.51452623680E+03  0.00000000000E+00 0.  1.
         21    1    1    2  502  501 -0.11947139590E+02 -0.47541397909E+00 -0.16471998776E+02  0.20354039071E+02  0.00000000000E+00 0. -1.
<mgrwt>
<rscale>  1 0.30000000E+03</rscale>
<asrwt>0</asrwt>
<pdfrwt beam="1">  1        1 0.10353652E+00 0.30000000E+03</pdfrwt>
<pdfrwt beam="2">0</pdfrwt>
<totfact> 0.32522126E+01</totfact>
</mgrwt>
</event>
<event>
 6    1  0.1950139E-004  0.3000000E+03  0.7818608E-02  0.1093470E+00
          1   -1    0    0  502    0  0.00000000000E+00  0.00000000000E+00  0.40727207279E+02  0.40727207279E+02  0.00000000000E+00 0.  1.
         13   -1    0    0    0    0 -0.00000000000E+00 -0.00000000000E+00 -0.10000000000E+04  0.10000000000E+04  0.00000000000E+00 0.  1.
    9000005    2    1    2  501    0  0.62583875825E+01 -0.60756632262E+02 -0.89283844304E+03  0.95048276924E+03  0.32019755383E+03 0.  0.
         13    1    3    3    0    0  0.32625635451E+02  0.12108401610E+03 -0.51892696042E+03  0.53386417869E+03  0.00000000000E+00 0.  1.
          1    1    3    3  501    0 -0.26367247868E+02 -0.18184064836E+03 -0.37391148263E+03  0.41661859055E+03  0.00000000000E+00 0.  1.
         21    1    1    2  502  501 -0.62583875825E+01  0.60756632262E+02 -0.66434349679E+02  0.90244438034E+02  0.00000000000E+00 0.  1.
<mgrwt>
<rscale>  1 0.30000000E+03</rscale>
<asrwt>0</asrwt>
<pdfrwt beam="1">  1        1 0.14809925E+00 0.30000000E+03</pdfrwt>
<pdfrwt beam="2">0</pdfrwt>
<totfact> 0.18370342E+01</totfact>
</mgrwt>
</event>
<event>
 6    1  0.1950139E-004  0.3000000E+03  0.7818608E-02  0.1093470E+00
          1   -1    0    0  502    0  0.00000000000E+00  0.00000000000E+00  0.40176929672E+02  0.40176929672E+02  0.00000000000E+00 0.  1.
         13   -1    0    0    0    0 -0.00000000000E+00 -0.00000000000E+00 -0.10000000000E+04  0.10000000000E+04  0.00000000000E+00 0.  1.
    9000005    2    1    2  501    0  0.10323088450E+02  0.22831843088E+02 -0.96161257139E+03  0.10150559916E+04  0.32405565800E+03 0.  0.
         13    1    3    3    0    0 -0.11186870192E+03 -0.89692418598E+02 -0.60341245294E+03  0.62021441840E+03  0.00000000000E+00 0.  1.
          3    1    3    3  501    0  0.12219179037E+03  0.11252426169E+03 -0.35820011844E+03  0.39484157323E+03  0.00000000000E+00 0.  1.
         21    1    1    2  502  501 -0.10323088450E+02 -0.22831843088E+02  0.17895010604E+01  0.25120938039E+02  0.00000000000E+00 0. -1.
<mgrwt>
<rscale>  1 0.30000000E+03</rscale>
<asrwt>0</asrwt>
<pdfrwt beam="1">  1        1 0.14609823E+00 0.30000000E+03</pdfrwt>
<pdfrwt beam="2">0</pdfrwt>
<totfact> 0.18809540E+01</totfact>
</mgrwt>
</event>
<event>
 6    1  0.1950139E-004  0.3000000E+03  0.7818608E-02  0.1093470E+00
          3   -1    0    0  502    0  0.00000000000E+00  0.00000000000E+00  0.28516970535E+02  0.28516970535E+02  0.00000000000E+00 0.  1.
         13   -1    0    0    0    0 -0.00000000000E+00 -0.00000000000E+00 -0.10000000000E+04  0.10000000000E+04  0.00000000000E+00 0.  1.
    9000005    2    1    2  501    0  0.13198664511E+02  0.66597944696E+01 -0.95240301278E+03  0.10043797660E+04  0.31857284558E+03 0.  0.
         13    1    3    3    0    0 -0.11796433933E+03 -0.55396193405E+00 -0.14770737447E+03  0.18903269743E+03  0.00000000000E+00 0.  1.
          1    1    3    3  501    0  0.13116300384E+03  0.72137564036E+01 -0.80469563831E+03  0.81534706854E+03  0.00000000000E+00 0.  1.
         21    1    1    2  502  501 -0.13198664511E+02 -0.66597944696E+01 -0.19080016689E+02  0.24137204563E+02  0.00000000000E+00 0.  1.
<mgrwt>
<rscale>  1 0.30000000E+03</rscale>
<asrwt>0</asrwt>
<pdfrwt beam="1">  1        3 0.10369829E+00 0.30000000E+03</pdfrwt>
<pdfrwt beam="2">0</pdfrwt>
<totfact> 0.35550337E+00</totfact>
</mgrwt>
</event>
<event>
 6    1  0.1950139E-004  0.3000000E+03  0.7818608E-02  0.1093470E+00
          1   -1    0    0  502    0  0.00000000000E+00  0.00000000000E+00  0.33774644970E+02  0.33774644970E+02  0.00000000000E+00 0.  1.
         13   -1    0    0    0    0 -0.00000000000E+00 -0.00000000000E+00 -0.10000000000E+04  0.10000000000E+04  0.00000000000E+00 0.  1.
    9000005    2    1    2  501    0  0.33324071229E+02 -0.16546893541E+02 -0.87963125262E+03  0.93952586789E+03  0.32798387527E+03 0.  0.
         13    1    3    3    0    0  0.40180113058E+02  0.50673529788E+02 -0.78671182431E+01  0.65147061760E+02  0.00000000000E+00 0.  1.
          1    1    3    3  501    0 -0.68560418295E+01 -0.67220423329E+02 -0.87176413437E+03  0.87437880613E+03  0.00000000000E+00 0.  1.
         21    1    1    2  502  501 -0.33324071229E+02  0.16546893541E+02 -0.86594102413E+02  0.94248777084E+02  0.00000000000E+00 0.  1.
<mgrwt>
<rscale>  1 0.30000000E+03</rscale>
<asrwt>0</asrwt>
<pdfrwt beam="1">  1        1 0.12281715E+00 0.30000000E+03</pdfrwt>
<pdfrwt beam="2">0</pdfrwt>
<totfact> 0.25065330E+01</totfact>
</mgrwt>
</event>
<event>
 6    1  0.1950139E-004  0.3000000E+03  0.7818608E-02  0.1093470E+00
          3   -1    0    0  502    0  0.00000000000E+00  0.00000000000E+00  0.33052363637E+02  0.33052363637E+02  0.00000000000E+00 0.  1.
         13   -1    0    0    0    0 -0.00000000000E+00 -0.00000000000E+00 -0.10000000000E+04  0.10000000000E+04  0.00000000000E+00 0.  1.
    9000005    2    1    2  501    0  0.13029508136E+02 -0.10644428624E+02 -0.97172384701E+03  0.10155628202E+04  0.29468209124E+03 0.  0.
         13    1    3    3    0    0  0.39036271318E+02  0.12291895126E+01 -0.98376609735E+03  0.98454104825E+03  0.00000000000E+00 0.  1.
          1    1    3    3  501    0 -0.26006763182E+02 -0.11873618137E+02  0.12042250347E+02  0.31021771908E+02  0.00000000000E+00 0.  1.
         21    1    1    2  502  501 -0.13029508136E+02  0.10644428624E+02  0.47762106447E+01  0.17489543479E+02  0.00000000000E+00 0.  1.
<mgrwt>
<rscale>  1 0.30000000E+03</rscale>
<asrwt>0</asrwt>
<pdfrwt beam="1">  1        3 0.12019067E+00 0.30000000E+03</pdfrwt>
<pdfrwt beam="2">0</pdfrwt>
<totfact> 0.23012432E+00</totfact>
</mgrwt>
</event>
<event>
 6    1  0.1950139E-004  0.3000000E+03  0.7818608E-02  0.1093470E+00
          1   -1    0    0  502    0  0.00000000000E+00  0.00000000000E+00  0.30890256006E+02  0.30890256006E+02  0.00000000000E+00 0.  1.
         13   -1    0    0    0    0 -0.00000000000E+00 -0.00000000000E+00 -0.10000000000E+04  0.10000000000E+04  0.00000000000E+00 0.  1.
    9000005    2    1    2  501    0  0.49680967792E+01 -0.12463573355E+02 -0.94664428804E+03  0.10047231133E+04  0.33638237716E+03 0.  0.
         13    1    3    3    0    0 -0.84714792757E+02 -0.13101479268E+03 -0.69634900353E+03  0.71361292500E+03  0.00000000000E+00 0.  1.
          3    1    3    3  501    0  0.89682889536E+02  0.11855121933E+03 -0.25029528451E+03  0.29111018829E+03  0.00000000000E+00 0.  1.
         21    1    1    2  502  501 -0.49680967792E+01  0.12463573355E+02 -0.22465455957E+02  0.26167142713E+02  0.00000000000E+00 0. -1.
<mgrwt>
<rscale>  1 0.30000000E+03</rscale>
<asrwt>0</asrwt>
<pdfrwt beam="1">  1        1 0.11232844E+00 0.30000000E+03</pdfrwt>
<pdfrwt beam="2">0</pdfrwt>
<totfact> 0.28781302E+01</totfact>
</mgrwt>
</event>
<event>
 6    1  0.1950139E-004  0.3000000E+03  0.7818608E-02  0.1093470E+00
          1   -1    0    0  502    0  0.00000000000E+00  0.00000000000E+00  0.49830517507E+02  0.49830517507E+02  0.00000000000E+00 0.  1.
         13   -1    0    0    0    0 -0.00000000000E+00 -0.00000000000E+00 -0.10000000000E+04  0.10000000000E+04  0.00000000000E+00 0.  1.
    9000005    2    1    2  501    0 -0.34317678851E+02 -0.67054450090E+02 -0.90268071831E+03  0.96078454577E+03  0.32031306846E+03 0.  0.
         13    1    3    3    0    0 -0.16435076985E+03  0.12028331650E+01 -0.31824338736E+03  0.35817799480E+03  0.00000000000E+00 0.  1.
          3    1    3    3  501    0  0.13003309100E+03 -0.68257283255E+02 -0.58443733095E+03  0.60260655098E+03  0.00000000000E+00 0.  1.
         21    1    1    2  502  501  0.34317678851E+02  0.67054450090E+02 -0.47488764179E+02  0.89045971732E+02  0.00000000000E+00 0. -1.
<mgrwt>
<rscale>  1 0.30000000E+03</rscale>
<asrwt>0</asrwt>
<pdfrwt beam="1">  1        1 0.18120226E+00 0.30000000E+03</pdfrwt>
<pdfrwt beam="2">0</pdfrwt>
<totfact> 0.12604647E+01</totfact>
</mgrwt>
</event>
<event>
 6    1  0.1950139E-004  0.3000000E+03  0.7818608E-02  0.1093470E+00
          1   -1    0    0  502    0  0.00000000000E+00  0.00000000000E+00  0.13479014465E+02  0.13479014465E+02  0.00000000000E+00 0.  1.
         13   -1    0    0    0    0 -0.00000000000E+00 -0.00000000000E+00 -0.10000000000E+04  0.10000000000E+04  0.00000000000E+00 0.  1.
    9000005    2    1    2  501    0  0.65026324725E+01 -0.41473012619E+01 -0.95210351692E+03  0.97820797135E+03  0.22434403031E+03 0.  0.
         13    1    3    3    0    0 -0.24088533671E+02  0.70264502548E+02 -0.11281773333E+03  0.13507478938E+03  0.00000000000E+00 0.  1.
          3    1    3    3  501    0  0.30591166143E+02 -0.74411803809E+02 -0.83928578360E+03  0.84313318197E+03  0.00000000000E+00 0.  1.
         21    1    1    2  502  501 -0.65026324725E+01  0.41473012619E+01 -0.34417468611E+02  0.35271043115E+02  0.00000000000E+00 0.  1.
<mgrwt>
<rscale>  1 0.30000000E+03</rscale>
<asrwt>0</asrwt>
<pdfrwt beam="1">  1        1 0.49014701E-01 0.30000000E+03</pdfrwt>
<pdfrwt beam="2">0</pdfrwt>
<totfact> 0.90586869E+01</totfact>
</mgrwt>
</event>
<event>
 6    1  0.1950139E-004  0.3000000E+03  0.7818608E-02  0.1093470E+00
          1   -1    0    0  502    0  0.00000000000E+00  0.00000000000E+00  0.30693615567E+02  0.30693615567E+02  0.00000000000E+00 0.  1.
         13   -1    0    0    0    0 -0.00000000000E+00 -0.00000000000E+00 -0.10000000000E+04  0.10000000000E+04  0.00000000000E+00 0.  1.
    9000005    2    1    2  501    0  0.27867382702E+01  0.98415455223E+01 -0.96372534819E+03  0.10190415817E+04  0.33102050766E+03 0.  0.
         13    1    3    3    0    0 -0.50967435405E+02 -0.10158814869E+03 -0.82650688101E+03  0.83428499674E+03  0.00000000000E+00 0.  1.
          3    1    3    3  501    0  0.53754173675E+02  0.11142969421E+03 -0.13721846718E+03  0.18475658493E+03  0.00000000000E+00 0.  1.
         21    1    1    2  502  501 -0.27867382702E+01 -0.98415455223E+01 -0.55810362408E+01  0.11652033899E+02  0.00000000000E+00 0.  1.
<mgrwt>
<rscale>  1 0.30000000E+03</rscale>
<asrwt>0</asrwt>
<pdfrwt beam="1">  1        1 0.11161338E+00 0.30000000E+03</pdfrwt>
<pdfrwt beam="2">0</pdfrwt>
<totfact> 0.29061978E+01</totfact>
</mgrwt>
</event>
<event>
 6    1  0.1950139E-004  0.3000000E+03  0.7818608E-02  0.1093470E+00
          1   -1    0    0  502    0  0.00000000000E+00  0.00000000000E+00  0.61370650223E+02  0.61370650223E+02  0.00000000000E+00 0.  1.
         13   -1    0    0    0    0 -0.00000000000E+00 -0.00000000000E+00 -0.10000000000E+04  0.10000000000E+04  0.00000000000E+00 0.  1.
    9000005    2    1    2  501    0 -0.37254620573E+02  0.21466354644E+02 -0.95830313818E+03  0.10140867303E+04  0.32890466814E+03 0.  0.
         13    1    3    3    0    0 -0.17439704328E+03  0.67011090597E+02 -0.56388483031E+03  0.59402939053E+03  0.00000000000E+00 0.  1.
          3    1    3    3  501    0  0.13714242271E+03 -0.45544735953E+02 -0.39441830788E+03  0.42005733974E+03  0.00000000000E+00 0.  1.
         21    1    1    2  502  501  0.37254620573E+02 -0.21466354644E+02  0.19673788406E+02  0.47283919952E+02  0.00000000000E+00 0.  1.
<mgrwt>
<rscale>  1 0.30000000E+03</rscale>
<asrwt>0</asrwt>
<pdfrwt beam="1">  1        1 0.22316647E+00 0.30000000E+03</pdfrwt>
<pdfrwt beam="2">0</pdfrwt>
<totfact> 0.79663880E+00</totfact>
</mgrwt>
</event>
<event>
 6    1  0.1950139E-004  0.3000000E+03  0.7818608E-02  0.1093470E+00
          1   -1    0    0  502    0  0.00000000000E+00  0.00000000000E+00  0.35784434185E+02  0.35784434185E+02  0.00000000000E+00 0.  1.
         13   -1    0    0    0    0 -0.00000000000E+00 -0.00000000000E+00 -0.10000000000E+04  0.10000000000E+04  0.00000000000E+00 0.  1.
    9000005    2    1    2  501    0 -0.34662040597E+02  0.19801157036E+02 -0.93055312720E+03  0.98356659574E+03  0.31603889450E+03 0.  0.
         13    1    3    3    0    0 -0.12032399868E+03  0.55125770858E+02 -0.16082792565E+03  0.20828426955E+03  0.00000000000E+00 0.  1.
          3    1    3    3  501    0  0.85661958087E+02 -0.35324613822E+02 -0.76972520155E+03  0.77528232620E+03  0.00000000000E+00 0.  1.
         21    1    1    2  502  501  0.34662040597E+02 -0.19801157036E+02 -0.33662438613E+02  0.52217838443E+02  0.00000000000E+00 0.  1.
<mgrwt>
<rscale>  1 0.30000000E+03</rscale>
<asrwt>0</asrwt>
<pdfrwt beam="1">  1        1 0.13012549E+00 0.30000000E+03</pdfrwt>
<pdfrwt beam="2">0</pdfrwt>
<totfact> 0.22843819E+01</totfact>
</mgrwt>
</event>
<event>
 6    1  0.1950139E-004  0.3000000E+03  0.7818608E-02  0.1093470E+00
          1   -1    0    0  502    0  0.00000000000E+00  0.00000000000E+00  0.28261530431E+02  0.28261530431E+02  0.00000000000E+00 0.  1.
         13   -1    0    0    0    0 -0.00000000000E+00 -0.00000000000E+00 -0.10000000000E+04  0.10000000000E+04  0.00000000000E+00 0.  1.
    9000005    2    1    2  501    0  0.57187817009E+01 -0.79484657670E+01 -0.96479728431E+03  0.10162589213E+04  0.31914340479E+03 0.  0.
         13    1    3    3    0    0  0.15071685990E+03  0.55238479712E+02 -0.45467534492E+03  0.48217894062E+03  0.00000000000E+00 0.  1.
          1    1    3    3  501    0 -0.14499807820E+03 -0.63186945479E+02 -0.51012193939E+03  0.53407998072E+03  0.00000000000E+00 0.  1.
         21    1    1    2  502  501 -0.57187817009E+01  0.79484657670E+01 -0.69411852585E+01  0.12002609091E+02  0.00000000000E+00 0.  1.
<mgrwt>
<rscale>  1 0.30000000E+03</rscale>
<asrwt>0</asrwt>
<pdfrwt beam="1">  1        1 0.10276942E+00 0.30000000E+03</pdfrwt>
<pdfrwt beam="2">0</pdfrwt>
<totfact> 0.32881198E+01</totfact>
</mgrwt>
</event>
<event>
 6    1  0.1950139E-004  0.3000000E+03  0.7818608E-02  0.1093470E+00
          3   -1    0    0  502    0  0.00000000000E+00  0.00000000000E+00  0.37230384198E+02  0.37230384198E+02  0.00000000000E+00 0.  1.
         13   -1    0    0    0    0 -0.00000000000E+00 -0.00000000000E+00 -0.10000000000E+04  0.10000000000E+04  0.00000000000E+00 0.  1.
    9000005    2    1    2  501    0  0.26757341487E+02 -0.42808780436E+01 -0.95354851391E+03  0.10086067932E+04  0.32756467103E+03 0.  0.
         13    1    3    3    0    0  0.11388833201E+03  0.77468693249E+02 -0.18402452561E+03  0.22986295184E+03  0.00000000000E+00 0.  1.
          1    1    3    3  501    0 -0.87130990525E+02 -0.81749571293E+02 -0.76952398831E+03  0.77874384139E+03  0.00000000000E+00 0.  1.
         21    1    1    2  502  501 -0.26757341487E+02  0.42808780436E+01 -0.92211018877E+01  0.28623590975E+02  0.00000000000E+00 0.  1.
<mgrwt>
<rscale>  1 0.30000000E+03</rscale>
<asrwt>0</asrwt>
<pdfrwt beam="1">  1        3 0.13538350E+00 0.30000000E+03</pdfrwt>
<pdfrwt beam="2">0</pdfrwt>
<totfact> 0.15270429E+00</totfact>
</mgrwt>
</event>
<event>
 6    1  0.1950139E-004  0.3000000E+03  0.7818608E-02  0.1093470E+00
          1   -1    0    0  502    0  0.00000000000E+00  0.00000000000E+00  0.63537624860E+02  0.63537624860E+02  0.00000000000E+00 0.  1.
         13   -1    0    0    0    0 -0.00000000000E+00 -0.00000000000E+00 -0.10000000000E+04  0.10000000000E+04  0.00000000000E+00 0.  1.
    9000005    2    1    2  501    0  0.10174296694E+02  0.56927184083E+02 -0.94713476671E+03  0.10047318382E+04  0.33026895071E+03 0.  0.
         13    1    3    3    0    0  0.11933943609E+02  0.18246332203E+03 -0.74223954969E+03  0.76443105119E+03  0.00000000000E+00 0.  1.
          1    1    3    3  501    0 -0.17596469149E+01 -0.12553613794E+03 -0.20489521702E+03  0.24030078703E+03  0.00000000000E+00 0.  1.
         21    1    1    2  502  501 -0.10174296694E+02 -0.56927184083E+02  0.10672391575E+02  0.58805786644E+02  0.00000000000E+00 0.  1.
<mgrwt>
<rscale>  1 0.30000000E+03</rscale>
<asrwt>0</asrwt>
<pdfrwt beam="1">  1        1 0.23104640E+00 0.30000000E+03</pdfrwt>
<pdfrwt beam="2">0</pdfrwt>
<totfact> 0.73174201E+00</totfact>
</mgrwt>
</event>
<event>
 6    1  0.1950139E-004  0.3000000E+03  0.7818608E-02  0.1093470E+00
          1   -1    0    0  502    0  0.00000000000E+00  0.00000000000E+00  0.35950646417E+02  0.35950646417E+02  0.00000000000E+00 0.  1.
         13   -1    0    0    0    0 -0.00000000000E+00 -0.00000000000E+00 -0.10000000000E+04  0.10000000000E+04  0.00000000000E+00 0.  1.
    9000005    2    1    2  501    0  0.44177530918E+01  0.33518923958E+02 -0.94112244742E+03  0.99510119315E+03  0.32151498997E+03 0.  0.
         13    1    3    3    0    0  0.12901644442E+03  0.10673230459E+03 -0.63299193489E+03  0.65476394022E+03  0.00000000000E+00 0.  1.
          3    1    3    3  501    0 -0.12459869133E+03 -0.73213380629E+02 -0.30813051253E+03  0.34033725293E+03  0.00000000000E+00 0.  1.
         21    1    1    2  502  501 -0.44177530918E+01 -0.33518923958E+02 -0.22926906167E+02  0.40849453265E+02  0.00000000000E+00 0.  1.
<mgrwt>
<rscale>  1 0.30000000E+03</rscale>
<asrwt>0</asrwt>
<pdfrwt beam="1">  1        1 0.13072990E+00 0.30000000E+03</pdfrwt>
<pdfrwt beam="2">0</pdfrwt>
<totfact> 0.22671649E+01</totfact>
</mgrwt>
</event>
<event>
 6    1  0.1950139E-004  0.3000000E+03  0.7818608E-02  0.1093470E+00
          1   -1    0    0  502    0  0.00000000000E+00  0.00000000000E+00  0.30623255993E+02  0.30623255993E+02  0.00000000000E+00 0.  1.
         13   -1    0    0    0    0 -0.00000000000E+00 -0.00000000000E+00 -0.10000000000E+04  0.10000000000E+04  0.00000000000E+00 0.  1.
    9000005    2    1    2  501    0  0.53023611201E+01  0.83868839782E+01 -0.96584645705E+03  0.10200915048E+04  0.32806835385E+03 0.  0.
         13    1    3    3    0    0  0.10299064352E+03 -0.12018641692E+03 -0.59343109086E+03  0.61417612056E+03  0.00000000000E+00 0.  1.
          3    1    3    3  501    0 -0.97688282404E+02  0.12857330090E+03 -0.37241536619E+03  0.40591538429E+03  0.00000000000E+00 0.  1.
         21    1    1    2  502  501 -0.53023611201E+01 -0.83868839782E+01 -0.35302869564E+01  0.10531751151E+02  0.00000000000E+00 0.  1.
<mgrwt>
<rscale>  1 0.30000000E+03</rscale>
<asrwt>0</asrwt>
<pdfrwt beam="1">  1        1 0.11135753E+00 0.30000000E+03</pdfrwt>
<pdfrwt beam="2">0</pdfrwt>
<totfact> 0.29163345E+01</totfact>
</mgrwt>
</event>
<event>
 6    1  0.1950139E-004  0.3000000E+03  0.7818608E-02  0.1093470E+00
          1   -1    0    0  502    0  0.00000000000E+00  0.00000000000E+00  0.25135889312E+02  0.25135889312E+02  0.00000000000E+00 0.  1.
         13   -1    0    0    0    0 -0.00000000000E+00 -0.00000000000E+00 -0.10000000000E+04  0.10000000000E+04  0.00000000000E+00 0.  1.
    9000005    2    1    2  501    0  0.15412430274E+02  0.12571845475E+02 -0.93954612129E+03  0.98460251194E+03  0.29376793255E+03 0.  0.
         13    1    3    3    0    0  0.69455062191E+02  0.66520937448E+02 -0.88631716800E+03  0.89151958087E+03  0.00000000000E+00 0.  1.
          3    1    3    3  501    0 -0.54042631917E+02 -0.53949091972E+02 -0.53228953288E+02  0.93082931073E+02  0.00000000000E+00 0.  1.
         21    1    1    2  502  501 -0.15412430274E+02 -0.12571845475E+02 -0.35317989403E+02  0.40533377371E+02  0.00000000000E+00 0. -1.
<mgrwt>
<rscale>  1 0.30000000E+03</rscale>
<asrwt>0</asrwt>
<pdfrwt beam="1">  1        1 0.91403427E-01 0.30000000E+03</pdfrwt>
<pdfrwt beam="2">0</pdfrwt>
<totfact> 0.38965741E+01</totfact>
</mgrwt>
</event>
<event>
 6    1  0.1950139E-004  0.3000000E+03  0.7818608E-02  0.1093470E+00
          1   -1    0    0  502    0  0.00000000000E+00  0.00000000000E+00  0.33259760464E+02  0.33259760464E+02  0.00000000000E+00 0.  1.
         13   -1    0    0    0    0 -0.00000000000E+00 -0.00000000000E+00 -0.10000000000E+04  0.10000000000E+04  0.00000000000E+00 0.  1.
    9000005    2    1    2  501    0  0.28259375420E+01  0.26132233551E+02 -0.96105285619E+03  0.10063669011E+04  0.29742371754E+03 0.  0.
         13    1    3    3    0    0  0.12691902039E+03 -0.32148438951E+02 -0.24990896479E+03  0.28212842917E+03  0.00000000000E+00 0.  1.
          1    1    3    3  501    0 -0.12409308285E+03  0.58280672502E+02 -0.71114389141E+03  0.72423847197E+03  0.00000000000E+00 0.  1.
         21    1    1    2  502  501 -0.28259375420E+01 -0.26132233551E+02 -0.56873833411E+01  0.26892859324E+02  0.00000000000E+00 0.  1.
<mgrwt>
<rscale>  1 0.30000000E+03</rscale>
<asrwt>0</asrwt>
<pdfrwt beam="1">  1        1 0.12094484E+00 0.30000000E+03</pdfrwt>
<pdfrwt beam="2">0</pdfrwt>
<totfact> 0.25678852E+01</totfact>
</mgrwt>
</event>
<event>
 6    1  0.1950139E-004  0.3000000E+03  0.7818608E-02  0.1093470E+00
          1   -1    0    0  502    0  0.00000000000E+00  0.00000000000E+00  0.29495497870E+02  0.29495497870E+02  0.00000000000E+00 0.  1.
         13   -1    0    0    0    0 -0.00000000000E+00 -0.00000000000E+00 -0.10000000000E+04  0.10000000000E+04  0.00000000000E+00 0.  1.
    9000005    2    1    2  501    0 -0.33410377886E+01  0.15200355162E+02 -0.95918359106E+03  0.10102503333E+04  0.31674968242E+03 0.  0.
         13    1    3    3    0    0 -0.13110641060E+03  0.18293421749E+02 -0.19648090571E+03  0.23691409095E+03  0.00000000000E+00 0.  1.
          1    1    3    3  501    0  0.12776537281E+03 -0.30930665863E+01 -0.76270268535E+03  0.77333624238E+03  0.00000000000E+00 0.  1.
         21    1    1    2  502  501  0.33410377886E+01 -0.15200355162E+02 -0.11320911071E+02  0.19245164537E+02  0.00000000000E+00 0. -1.
<mgrwt>
<rscale>  1 0.30000000E+03</rscale>
<asrwt>0</asrwt>
<pdfrwt beam="1">  1        1 0.10725658E+00 0.30000000E+03</pdfrwt>
<pdfrwt beam="2">0</pdfrwt>
<totfact> 0.30858966E+01</totfact>
</mgrwt>
</event>
<event>
 6    1  0.1950139E-004  0.3000000E+03  0.7818608E-02  0.1093470E+00
          1   -1    0    0  502    0  0.00000000000E+00  0.00000000000E+00  0.31330406213E+02  0.31330406213E+02  0.00000000000E+00 0.  1.
         13   -1    0    0    0    0 -0.00000000000E+00 -0.00000000000E+00 -0.10000000000E+04  0.10000000000E+04  0.00000000000E+00 0.  1.
    9000005    2    1    2  501    0  0.14718419907E+02  0.24552362601E+01 -0.95818093762E+03  0.10130911086E+04  0.32866430443E+03 0.  0.
         13    1    3    3    0    0  0.67206213232E+02 -0.86936216627E+01 -0.16320945644E+02  0.69703855140E+02  0.00000000000E+00 0.  1.
          3    1    3    3  501    0 -0.52487793326E+02  0.11148857923E+02 -0.94185999198E+03  0.94338725345E+03  0.00000000000E+00 0.  1.
         21    1    1    2  502  501 -0.14718419907E+02 -0.24552362601E+01 -0.10488656164E+02  0.18239297623E+02  0.00000000000E+00 0.  1.
<mgrwt>
<rscale>  1 0.30000000E+03</rscale>
<asrwt>0</asrwt>
<pdfrwt beam="1">  1        1 0.11392899E+00 0.30000000E+03</pdfrwt>
<pdfrwt beam="2">0</pdfrwt>
<totfact> 0.28166909E+01</totfact>
</mgrwt>
</event>
<event>
 6    1  0.1950139E-004  0.3000000E+03  0.7818608E-02  0.1093470E+00
          1   -1    0    0  502    0  0.00000000000E+00  0.00000000000E+00  0.39301762166E+02  0.39301762166E+02  0.00000000000E+00 0.  1.
         13   -1    0    0    0    0 -0.00000000000E+00 -0.00000000000E+00 -0.10000000000E+04  0.10000000000E+04  0.00000000000E+00 0.  1.
    9000005    2    1    2  501    0  0.97616650421E+01  0.90057581921E+01 -0.95589266863E+03  0.10251777656E+04  0.37024621976E+03 0.  0.
         13    1    3    3    0    0  0.46299111064E+02 -0.13321700814E+03 -0.79474628772E+03  0.80716295801E+03  0.00000000000E+00 0.  1.
          3    1    3    3  501    0 -0.36537446022E+02  0.14222276633E+03 -0.16114638091E+03  0.21801480754E+03  0.00000000000E+00 0.  1.
         21    1    1    2  502  501 -0.97616650421E+01 -0.90057581921E+01 -0.48055692016E+01  0.14123996614E+02  0.00000000000E+00 0. -1.
<mgrwt>
<rscale>  1 0.30000000E+03</rscale>
<asrwt>0</asrwt>
<pdfrwt beam="1">  1        1 0.14291580E+00 0.30000000E+03</pdfrwt>
<pdfrwt beam="2">0</pdfrwt>
<totfact> 0.19535603E+01</totfact>
</mgrwt>
</event>
<event>
 6    1  0.1950139E-004  0.3000000E+03  0.7818608E-02  0.1093470E+00
          1   -1    0    0  502    0  0.00000000000E+00  0.00000000000E+00  0.28516658636E+02  0.28516658636E+02  0.00000000000E+00 0.  1.
         13   -1    0    0    0    0 -0.00000000000E+00 -0.00000000000E+00 -0.10000000000E+04  0.10000000000E+04  0.00000000000E+00 0.  1.
    9000005    2    1    2  501    0  0.25588508364E+01 -0.86729465066E+01 -0.95723916958E+03  0.10116446656E+04  0.32716407805E+03 0.  0.
         13    1    3    3    0    0 -0.13560224738E+03  0.55112092320E+02 -0.67812450047E+03  0.69374213534E+03  0.00000000000E+00 0.  1.
          3    1    3    3  501    0  0.13816109822E+03 -0.63785038827E+02 -0.27911466912E+03  0.31790253027E+03  0.00000000000E+00 0.  1.
         21    1    1    2  502  501 -0.25588508364E+01  0.86729465066E+01 -0.14244171784E+02  0.16871993021E+02  0.00000000000E+00 0. -1.
<mgrwt>
<rscale>  1 0.30000000E+03</rscale>
<asrwt>0</asrwt>
<pdfrwt beam="1">  1        1 0.10369716E+00 0.30000000E+03</pdfrwt>
<pdfrwt beam="2">0</pdfrwt>
<totfact> 0.32447658E+01</totfact>
</mgrwt>
</event>
<event>
 6    1  0.1950139E-004  0.3000000E+03  0.7818608E-02  0.1093470E+00
          1   -1    0    0  502    0  0.00000000000E+00  0.00000000000E+00  0.40356945274E+02  0.40356945274E+02  0.00000000000E+00 0.  1.
         13   -1    0    0    0    0 -0.00000000000E+00 -0.00000000000E+00 -0.10000000000E+04  0.10000000000E+04  0.00000000000E+00 0.  1.
    9000005    2    1    2  501    0 -0.36786810417E+02 -0.38199910177E+02 -0.90531566379E+03  0.96443614467E+03  0.32821962691E+03 0.  0.
         13    1    3    3    0    0  0.13796145702E+03  0.33706077478E+02 -0.43422385626E+03  0.45685864403E+03  0.00000000000E+00 0.  1.
          1    1    3    3  501    0 -0.17474826744E+03 -0.71905987655E+02 -0.47109180753E+03  0.50757750064E+03  0.00000000000E+00 0.  1.
         21    1    1    2  502  501  0.36786810417E+02  0.38199910177E+02 -0.54327390936E+02  0.75920800602E+02  0.00000000000E+00 0.  1.
<mgrwt>
<rscale>  1 0.30000000E+03</rscale>
<asrwt>0</asrwt>
<pdfrwt beam="1">  1        1 0.14675284E+00 0.30000000E+03</pdfrwt>
<pdfrwt beam="2">0</pdfrwt>
<totfact> 0.18664428E+01</totfact>
</mgrwt>
</event>
<event>
 6    1  0.1950139E-004  0.3000000E+03  0.7818608E-02  0.1093470E+00
          1   -1    0    0  502    0  0.00000000000E+00  0.00000000000E+00  0.42332336095E+02  0.42332336095E+02  0.00000000000E+00 0.  1.
         13   -1    0    0    0    0 -0.00000000000E+00 -0.00000000000E+00 -0.10000000000E+04  0.10000000000E+04  0.00000000000E+00 0.  1.
    9000005    2    1    2  501    0  0.64054053638E+01 -0.51530503532E+02 -0.91394202278E+03  0.97444747988E+03  0.33400815562E+03 0.  0.
         13    1    3    3    0    0  0.12674833305E+03  0.86941186942E+02 -0.45147962566E+03  0.47692532152E+03  0.00000000000E+00 0.  1.
          3    1    3    3  501    0 -0.12034292769E+03 -0.13847169047E+03 -0.46246239711E+03  0.49752215835E+03  0.00000000000E+00 0.  1.
         21    1    1    2  502  501 -0.64054053638E+01  0.51530503532E+02 -0.43725641126E+02  0.67884856220E+02  0.00000000000E+00 0.  1.
<mgrwt>
<rscale>  1 0.30000000E+03</rscale>
<asrwt>0</asrwt>
<pdfrwt beam="1">  1        1 0.15393609E+00 0.30000000E+03</pdfrwt>
<pdfrwt beam="2">0</pdfrwt>
<totfact> 0.17159956E+01</totfact>
</mgrwt>
</event>
<event>
 6    1  0.1950139E-004  0.3000000E+03  0.7818608E-02  0.1093470E+00
          1   -1    0    0  502    0  0.00000000000E+00  0.00000000000E+00  0.28408215741E+02  0.28408215741E+02  0.00000000000E+00 0.  1.
         13   -1    0    0    0    0 -0.00000000000E+00 -0.00000000000E+00 -0.10000000000E+04  0.10000000000E+04  0.00000000000E+00 0.  1.
    9000005    2    1    2  501    0  0.27290861044E+01  0.12101258230E+02 -0.94655855247E+03  0.10004698719E+04  0.32374833282E+03 0.  0.
         13    1    3    3    0    0  0.12816754994E+03 -0.94547640632E+02 -0.47587755653E+03  0.50182230522E+03  0.00000000000E+00 0.  1.
          1    1    3    3  501    0 -0.12543846383E+03  0.10664889886E+03 -0.47068099594E+03  0.49864756670E+03  0.00000000000E+00 0.  1.
         21    1    1    2  502  501 -0.27290861044E+01 -0.12101258230E+02 -0.25033231785E+02  0.27938343819E+02  0.00000000000E+00 0.  1.
<mgrwt>
<rscale>  1 0.30000000E+03</rscale>
<asrwt>0</asrwt>
<pdfrwt beam="1">  1        1 0.10330282E+00 0.30000000E+03</pdfrwt>
<pdfrwt beam="2">0</pdfrwt>
<totfact> 0.32630912E+01</totfact>
</mgrwt>
</event>
<event>
 6    1  0.1950139E-004  0.3000000E+03  0.7818608E-02  0.1093470E+00
          1   -1    0    0  502    0  0.00000000000E+00  0.00000000000E+00  0.34481131331E+02  0.34481131331E+02  0.00000000000E+00 0.  1.
         13   -1    0    0    0    0 -0.00000000000E+00 -0.00000000000E+00 -0.10000000000E+04  0.10000000000E+04  0.00000000000E+00 0.  1.
    9000005    2    1    2  501    0  0.12146800427E+02  0.11099442278E+02 -0.96457402362E+03  0.10179997748E+04  0.32503807801E+03 0.  0.
         13    1    3    3    0    0 -0.12544103424E+03  0.99754381433E+02 -0.52619626655E+03  0.55006263336E+03  0.00000000000E+00 0.  1.
          1    1    3    3  501    0  0.13758783467E+03 -0.88654939155E+02 -0.43837775707E+03  0.46793714149E+03  0.00000000000E+00 0.  1.
         21    1    1    2  502  501 -0.12146800427E+02 -0.11099442278E+02 -0.94484504934E+00  0.16481356488E+02  0.00000000000E+00 0. -1.
<mgrwt>
<rscale>  1 0.30000000E+03</rscale>
<asrwt>0</asrwt>
<pdfrwt beam="1">  1        1 0.12538620E+00 0.30000000E+03</pdfrwt>
<pdfrwt beam="2">0</pdfrwt>
<totfact> 0.24254167E+01</totfact>
</mgrwt>
</event>
<event>
 6    1  0.1950139E-004  0.3000000E+03  0.7818608E-02  0.1093470E+00
          1   -1    0    0  502    0  0.00000000000E+00  0.00000000000E+00  0.35143166832E+02  0.35143166832E+02  0.00000000000E+00 0.  1.
         13   -1    0    0    0    0 -0.00000000000E+00 -0.00000000000E+00 -0.10000000000E+04  0.10000000000E+04  0.00000000000E+00 0.  1.
    9000005    2    1    2  501    0  0.19281526236E+02  0.13672348200E+02 -0.96333636642E+03  0.10114572601E+04  0.30735992541E+03 0.  0.
         13    1    3    3    0    0  0.15626086988E+03  0.38938605727E+01 -0.35626172972E+03  0.38904375290E+03  0.00000000000E+00 0.  1.
          1    1    3    3  501    0 -0.13697934364E+03  0.97784876274E+01 -0.60707463670E+03  0.62241350719E+03  0.00000000000E+00 0.  1.
         21    1    1    2  502  501 -0.19281526236E+02 -0.13672348200E+02 -0.15204667482E+01  0.23685906747E+02  0.00000000000E+00 0.  1.
<mgrwt>
<rscale>  1 0.30000000E+03</rscale>
<asrwt>0</asrwt>
<pdfrwt beam="1">  1        1 0.12779360E+00 0.30000000E+03</pdfrwt>
<pdfrwt beam="2">0</pdfrwt>
<totfact> 0.23524189E+01</totfact>
</mgrwt>
</event>
<event>
 6    1  0.1950139E-004  0.3000000E+03  0.7818608E-02  0.1093470E+00
          1   -1    0    0  502    0  0.00000000000E+00  0.00000000000E+00  0.32963247227E+02  0.32963247227E+02  0.00000000000E+00 0.  1.
         13   -1    0    0    0    0 -0.00000000000E+00 -0.00000000000E+00 -0.10000000000E+04  0.10000000000E+04  0.00000000000E+00 0.  1.
    9000005    2    1    2  501    0  0.21673876701E+02  0.67765240924E+01 -0.95829397868E+03  0.10086298482E+04  0.31383298562E+03 0.  0.
         13    1    3    3    0    0  0.16865310711E+02  0.38894062961E+02  0.68470283879E+01  0.42942620282E+02  0.00000000000E+00 0.  1.
          1    1    3    3  501    0  0.48085659904E+01 -0.32117538868E+02 -0.96514100707E+03  0.96568722791E+03  0.00000000000E+00 0.  1.
         21    1    1    2  502  501 -0.21673876701E+02 -0.67765240924E+01 -0.87427740887E+01  0.24333399039E+02  0.00000000000E+00 0.  1.
<mgrwt>
<rscale>  1 0.30000000E+03</rscale>
<asrwt>0</asrwt>
<pdfrwt beam="1">  1        1 0.11986661E+00 0.30000000E+03</pdfrwt>
<pdfrwt beam="2">0</pdfrwt>
<totfact> 0.26041220E+01</totfact>
</mgrwt>
</event>
<event>
 6    1  0.1950139E-004  0.3000000E+03  0.7818608E-02  0.1093470E+00
          1   -1    0    0  502    0  0.00000000000E+00  0.00000000000E+00  0.10142262337E+02  0.10142262337E+02  0.00000000000E+00 0.  1.
         13   -1    0    0    0    0 -0.00000000000E+00 -0.00000000000E+00 -0.10000000000E+04  0.10000000000E+04  0.00000000000E+00 0.  1.
    9000005    2    1    2  501    0 -0.11779279211E+02 -0.12171963917E+02 -0.95663236074E+03  0.97284837818E+03  0.17607267016E+03 0.  0.
         13    1    3    3    0    0  0.22480943400E+02  0.40200996385E+02 -0.83305561705E+03  0.83432797749E+03  0.00000000000E+00 0.  1.
          1    1    3    3  501    0 -0.34260222611E+02 -0.52372960303E+02 -0.12357674369E+03  0.13852040069E+03  0.00000000000E+00 0.  1.
         21    1    1    2  502  501  0.11779279211E+02  0.12171963917E+02 -0.33225376921E+02  0.37293884162E+02  0.00000000000E+00 0.  1.
<mgrwt>
<rscale>  1 0.30000000E+03</rscale>
<asrwt>0</asrwt>
<pdfrwt beam="1">  1        1 0.36881032E-01 0.30000000E+03</pdfrwt>
<pdfrwt beam="2">0</pdfrwt>
<totfact> 0.13142272E+02</totfact>
</mgrwt>
</event>
<event>
 6    1  0.1950139E-004  0.3000000E+03  0.7818608E-02  0.1093470E+00
          1   -1    0    0  502    0  0.00000000000E+00  0.00000000000E+00  0.33147109141E+02  0.33147109141E+02  0.00000000000E+00 0.  1.
         13   -1    0    0    0    0 -0.00000000000E+00 -0.00000000000E+00 -0.10000000000E+04  0.10000000000E+04  0.00000000000E+00 0.  1.
    9000005    2    1    2  501    0 -0.30489385288E+01 -0.13004294910E+02 -0.96734516231E+03  0.10197811059E+04  0.32251888802E+03 0.  0.
         13    1    3    3    0    0 -0.68586872869E+02  0.12518751389E+03 -0.26525073026E+03  0.30122088684E+03  0.00000000000E+00 0.  1.
          1    1    3    3  501    0  0.65537934340E+02 -0.13819180880E+03 -0.70209443205E+03  0.71856021903E+03  0.00000000000E+00 0.  1.
         21    1    1    2  502  501  0.30489385288E+01  0.13004294910E+02  0.49227145238E+00  0.13366003271E+02  0.00000000000E+00 0. -1.
<mgrwt>
<rscale>  1 0.30000000E+03</rscale>
<asrwt>0</asrwt>
<pdfrwt beam="1">  1        1 0.12053520E+00 0.30000000E+03</pdfrwt>
<pdfrwt beam="2">0</pdfrwt>
<totfact> 0.25815726E+01</totfact>
</mgrwt>
</event>
<event>
 6    1  0.1950139E-004  0.3000000E+03  0.7818608E-02  0.1093470E+00
          1   -1    0    0  502    0  0.00000000000E+00  0.00000000000E+00  0.13570827846E+02  0.13570827846E+02  0.00000000000E+00 0.  1.
         13   -1    0    0    0    0 -0.00000000000E+00 -0.00000000000E+00 -0.10000000000E+04  0.10000000000E+04  0.00000000000E+00 0.  1.
    9000005    2    1    2  501    0  0.53312932044E+01 -0.12536993194E+02 -0.97956142998E+03  0.99831419754E+03  0.19210685316E+03 0.  0.
         13    1    3    3    0    0  0.12901616074E+02  0.87277645050E+02 -0.56447953120E+03  0.57133263531E+03  0.00000000000E+00 0.  1.
          3    1    3    3  501    0 -0.75703228698E+01 -0.99814638245E+02 -0.41508189878E+03  0.42698156224E+03  0.00000000000E+00 0.  1.
         21    1    1    2  502  501 -0.53312932044E+01  0.12536993194E+02 -0.68677421742E+01  0.15256630302E+02  0.00000000000E+00 0. -1.
<mgrwt>
<rscale>  1 0.30000000E+03</rscale>
<asrwt>0</asrwt>
<pdfrwt beam="1">  1        1 0.49348569E-01 0.30000000E+03</pdfrwt>
<pdfrwt beam="2">0</pdfrwt>
<totfact> 0.89783216E+01</totfact>
</mgrwt>
</event>
<event>
 6    1  0.1950139E-004  0.3000000E+03  0.7818608E-02  0.1093470E+00
          3   -1    0    0  502    0  0.00000000000E+00  0.00000000000E+00  0.33620752775E+02  0.33620752775E+02  0.00000000000E+00 0.  1.
         13   -1    0    0    0    0 -0.00000000000E+00 -0.00000000000E+00 -0.10000000000E+04  0.10000000000E+04  0.00000000000E+00 0.  1.
    9000005    2    1    2  501    0 -0.44666316559E+02 -0.98308546800E+01 -0.89308722973E+03  0.94722951845E+03  0.31232552760E+03 0.  0.
         13    1    3    3    0    0 -0.11453650518E+03 -0.12248542520E+03 -0.34860029192E+03  0.38683776177E+03  0.00000000000E+00 0.  1.
          3    1    3    3  501    0  0.69870188621E+02  0.11265457052E+03 -0.54448693781E+03  0.56039175668E+03  0.00000000000E+00 0.  1.
         21    1    1    2  502  501  0.44666316559E+02  0.98308546800E+01 -0.73292017500E+02  0.86391234323E+02  0.00000000000E+00 0.  1.
<mgrwt>
<rscale>  1 0.30000000E+03</rscale>
<asrwt>0</asrwt>
<pdfrwt beam="1">  1        3 0.12225754E+00 0.30000000E+03</pdfrwt>
<pdfrwt beam="2">0</pdfrwt>
<totfact> 0.21775651E+00</totfact>
</mgrwt>
</event>
<event>
 6    1  0.1950139E-004  0.3000000E+03  0.7818608E-02  0.1093470E+00
          1   -1    0    0  502    0  0.00000000000E+00  0.00000000000E+00  0.16711959150E+02  0.16711959150E+02  0.00000000000E+00 0.  1.
         13   -1    0    0    0    0 -0.00000000000E+00 -0.00000000000E+00 -0.10000000000E+04  0.10000000000E+04  0.00000000000E+00 0.  1.
    9000005    2    1    2  501    0 -0.42263096350E+01  0.22600493574E+02 -0.98174678225E+03  0.99366809921E+03  0.15172640812E+03 0.  0.
         13    1    3    3    0    0 -0.14977168915E+02  0.80478721850E+02 -0.36242777712E+03  0.37155757816E+03  0.00000000000E+00 0.  1.
          3    1    3    3  501    0  0.10750859280E+02 -0.57878228276E+02 -0.61931900513E+03  0.62211052105E+03  0.00000000000E+00 0.  1.
         21    1    1    2  502  501  0.42263096350E+01 -0.22600493574E+02 -0.15412585994E+01  0.23043859941E+02  0.00000000000E+00 0.  1.
<mgrwt>
<rscale>  1 0.30000000E+03</rscale>
<asrwt>0</asrwt>
<pdfrwt beam="1">  1        1 0.60770889E-01 0.30000000E+03</pdfrwt>
<pdfrwt beam="2">0</pdfrwt>
<totfact> 0.68175751E+01</totfact>
</mgrwt>
</event>
<event>
 6    1  0.1950139E-004  0.3000000E+03  0.7818608E-02  0.1093470E+00
          1   -1    0    0  502    0  0.00000000000E+00  0.00000000000E+00  0.31927537273E+02  0.31927537273E+02  0.00000000000E+00 0.  1.
         13   -1    0    0    0    0 -0.00000000000E+00 -0.00000000000E+00 -0.10000000000E+04  0.10000000000E+04  0.00000000000E+00 0.  1.
    9000005    2    1    2  501    0  0.28735080189E+02  0.82416656048E+00 -0.92715661832E+03  0.98192263344E+03  0.32206564406E+03 0.  0.
         13    1    3    3    0    0  0.71163973996E+02 -0.12121043824E+03 -0.20663284224E+03  0.24990680868E+03  0.00000000000E+00 0.  1.
          1    1    3    3  501    0 -0.42428893807E+02  0.12203460480E+03 -0.72052377608E+03  0.73201582476E+03  0.00000000000E+00 0.  1.
         21    1    1    2  502  501 -0.28735080189E+02 -0.82416656048E+00 -0.40915844410E+02  0.50004903837E+02  0.00000000000E+00 0. -1.
<mgrwt>
<rscale>  1 0.30000000E+03</rscale>
<asrwt>0</asrwt>
<pdfrwt beam="1">  1        1 0.11610038E+00 0.30000000E+03</pdfrwt>
<pdfrwt beam="2">0</pdfrwt>
<totfact> 0.27362640E+01</totfact>
</mgrwt>
</event>
<event>
 6    1  0.1950139E-004  0.3000000E+03  0.7818608E-02  0.1093470E+00
          1   -1    0    0  502    0  0.00000000000E+00  0.00000000000E+00  0.39180133770E+02  0.39180133770E+02  0.00000000000E+00 0.  1.
         13   -1    0    0    0    0 -0.00000000000E+00 -0.00000000000E+00 -0.10000000000E+04  0.10000000000E+04  0.00000000000E+00 0.  1.
    9000005    2    1    2  501    0 -0.55066206764E+01  0.33787833078E+02 -0.95436219578E+03  0.10043427682E+04  0.31100684024E+03 0.  0.
         13    1    3    3    0    0 -0.35753404570E+02 -0.13185798705E+03 -0.31853410978E+03  0.34659603832E+03  0.00000000000E+00 0.  1.
          1    1    3    3  501    0  0.30246783894E+02  0.16564582013E+03 -0.63582808600E+03  0.65774672983E+03  0.00000000000E+00 0.  1.
         21    1    1    2  502  501  0.55066206764E+01 -0.33787833078E+02 -0.64576704502E+01  0.34837365615E+02  0.00000000000E+00 0.  1.
<mgrwt>
<rscale>  1 0.30000000E+03</rscale>
<asrwt>0</asrwt>
<pdfrwt beam="1">  1        1 0.14247351E+00 0.30000000E+03</pdfrwt>
<pdfrwt beam="2">0</pdfrwt>
<totfact> 0.19639292E+01</totfact>
</mgrwt>
</event>
<event>
 6    1  0.1950139E-004  0.3000000E+03  0.7818608E-02  0.1093470E+00
          1   -1    0    0  502    0  0.00000000000E+00  0.00000000000E+00  0.45915382167E+02  0.45915382167E+02  0.00000000000E+00 0.  1.
         13   -1    0    0    0    0 -0.00000000000E+00 -0.00000000000E+00 -0.10000000000E+04  0.10000000000E+04  0.00000000000E+00 0.  1.
    9000005    2    1    2  501    0 -0.12112574065E+02 -0.14141063713E+02 -0.96079556871E+03  0.10261234395E+04  0.35979786559E+03 0.  0.
         13    1    3    3    0    0 -0.80638030216E+02  0.15417183463E+03 -0.38881348688E+03  0.42596640019E+03  0.00000000000E+00 0.  1.
          3    1    3    3  501    0  0.68525456151E+02 -0.16831289834E+03 -0.57198208182E+03  0.60015703929E+03  0.00000000000E+00 0.  1.
         21    1    1    2  502  501  0.12112574065E+02  0.14141063713E+02  0.67109508747E+01  0.19791942680E+02  0.00000000000E+00 0.  1.
<mgrwt>
<rscale>  1 0.30000000E+03</rscale>
<asrwt>0</asrwt>
<pdfrwt beam="1">  1        1 0.16696538E+00 0.30000000E+03</pdfrwt>
<pdfrwt beam="2">0</pdfrwt>
<totfact> 0.14784650E+01</totfact>
</mgrwt>
</event>
<event>
 6    1  0.1950139E-004  0.3000000E+03  0.7818608E-02  0.1093470E+00
          1   -1    0    0  502    0  0.00000000000E+00  0.00000000000E+00  0.71481141890E+02  0.71481141890E+02  0.00000000000E+00 0.  1.
         13   -1    0    0    0    0 -0.00000000000E+00 -0.00000000000E+00 -0.10000000000E+04  0.10000000000E+04  0.00000000000E+00 0.  1.
    9000005    2    1    2  501    0 -0.60639547864E+02 -0.35879070739E+01 -0.94155798744E+03  0.10093518675E+04  0.35856620154E+03 0.  0.
         13    1    3    3    0    0  0.62771039586E+02 -0.10569642045E+03 -0.11812942883E+03  0.17048899866E+03  0.00000000000E+00 0.  1.
          1    1    3    3  501    0 -0.12341058745E+03  0.10210851338E+03 -0.82342855861E+03  0.83886286884E+03  0.00000000000E+00 0.  1.
         21    1    1    2  502  501  0.60639547864E+02  0.35879070739E+01  0.13039129325E+02  0.62129274387E+02  0.00000000000E+00 0.  1.
<mgrwt>
<rscale>  1 0.30000000E+03</rscale>
<asrwt>0</asrwt>
<pdfrwt beam="1">  1        1 0.25993197E+00 0.30000000E+03</pdfrwt>
<pdfrwt beam="2">0</pdfrwt>
<totfact> 0.53622557E+00</totfact>
</mgrwt>
</event>
<event>
 6    1  0.1950139E-004  0.3000000E+03  0.7818608E-02  0.1093470E+00
          1   -1    0    0  502    0  0.00000000000E+00  0.00000000000E+00  0.49153906325E+02  0.49153906325E+02  0.00000000000E+00 0.  1.
         13   -1    0    0    0    0 -0.00000000000E+00 -0.00000000000E+00 -0.10000000000E+04  0.10000000000E+04  0.00000000000E+00 0.  1.
    9000005    2    1    2  501    0 -0.14623934563E+02 -0.45684436115E+01 -0.96996006101E+03  0.10246575007E+04  0.32994809249E+03 0.  0.
         13    1    3    3    0    0 -0.52047937276E+02  0.12197111634E+03 -0.79246937041E+03  0.80348842184E+03  0.00000000000E+00 0.  1.
          1    1    3    3  501    0  0.37424002714E+02 -0.12653955996E+03 -0.17749069060E+03  0.22116907890E+03  0.00000000000E+00 0.  1.
         21    1    1    2  502  501  0.14623934563E+02  0.45684436115E+01  0.19113967334E+02  0.24496405581E+02  0.00000000000E+00 0.  1.
<mgrwt>
<rscale>  1 0.30000000E+03</rscale>
<asrwt>0</asrwt>
<pdfrwt beam="1">  1        1 0.17874185E+00 0.30000000E+03</pdfrwt>
<pdfrwt beam="2">0</pdfrwt>
<totfact> 0.12954827E+01</totfact>
</mgrwt>
</event>
<event>
 6    1  0.1950139E-004  0.3000000E+03  0.7818608E-02  0.1093470E+00
          1   -1    0    0  502    0  0.00000000000E+00  0.00000000000E+00  0.30532651275E+02  0.30532651275E+02  0.00000000000E+00 0.  1.
         13   -1    0    0    0    0 -0.00000000000E+00 -0.00000000000E+00 -0.10000000000E+04  0.10000000000E+04  0.00000000000E+00 0.  1.
    9000005    2    1    2  501    0 -0.55430886426E+01  0.10269806271E+02 -0.96494072562E+03  0.10180152606E+04  0.32420405937E+03 0.  0.
         13    1    3    3    0    0 -0.11426487133E+01  0.10380403937E+03 -0.89535394504E+03  0.90135191304E+03  0.00000000000E+00 0.  1.
          3    1    3    3  501    0 -0.44004399293E+01 -0.93534233103E+02 -0.69586780576E+02  0.11666334756E+03  0.00000000000E+00 0.  1.
         21    1    1    2  502  501  0.55430886426E+01 -0.10269806271E+02 -0.45266231098E+01  0.12517390676E+02  0.00000000000E+00 0. -1.
<mgrwt>
<rscale>  1 0.30000000E+03</rscale>
<asrwt>0</asrwt>
<pdfrwt beam="1">  1        1 0.11102806E+00 0.30000000E+03</pdfrwt>
<pdfrwt beam="2">0</pdfrwt>
<totfact> 0.29294616E+01</totfact>
</mgrwt>
</event>
<event>
 6    1  0.1950139E-004  0.3000000E+03  0.7818608E-02  0.1093470E+00
          1   -1    0    0  502    0  0.00000000000E+00  0.00000000000E+00  0.33823710564E+02  0.33823710564E+02  0.00000000000E+00 0.  1.
         13   -1    0    0    0    0 -0.00000000000E+00 -0.00000000000E+00 -0.10000000000E+04  0.10000000000E+04  0.00000000000E+00 0.  1.
    9000005    2    1    2  501    0  0.75256191687E+01 -0.47718067460E+01 -0.95377631455E+03  0.10185539869E+04  0.35732836573E+03 0.  0.
         13    1    3    3    0    0 -0.35066144943E+02 -0.17314675772E+03 -0.58178205592E+03  0.60801298902E+03  0.00000000000E+00 0.  1.
          1    1    3    3  501    0  0.42591764112E+02  0.16837495098E+03 -0.37199425863E+03  0.41054099788E+03  0.00000000000E+00 0.  1.
         21    1    1    2  502  501 -0.75256191687E+01  0.47718067460E+01 -0.12399974889E+02  0.15269723663E+02  0.00000000000E+00 0.  1.
<mgrwt>
<rscale>  1 0.30000000E+03</rscale>
<asrwt>0</asrwt>
<pdfrwt beam="1">  1        1 0.12299557E+00 0.30000000E+03</pdfrwt>
<pdfrwt beam="2">0</pdfrwt>
<totfact> 0.25007874E+01</totfact>
</mgrwt>
</event>
<event>
 6    1  0.1950139E-004  0.3000000E+03  0.7818608E-02  0.1093470E+00
          1   -1    0    0  502    0  0.00000000000E+00  0.00000000000E+00  0.28819778651E+02  0.28819778651E+02  0.00000000000E+00 0.  1.
         13   -1    0    0    0    0 -0.00000000000E+00 -0.00000000000E+00 -0.10000000000E+04  0.10000000000E+04  0.00000000000E+00 0.  1.
    9000005    2    1    2  501    0  0.11357796222E+02  0.21091604366E+02 -0.95354642511E+03  0.99907408855E+03  0.29719420294E+03 0.  0.
         13    1    3    3    0    0 -0.79732321384E+02 -0.11040410856E+03 -0.49671355684E+03  0.51504433577E+03  0.00000000000E+00 0.  1.
          3    1    3    3  501    0  0.91090117606E+02  0.13149571293E+03 -0.45683286827E+03  0.48402975278E+03  0.00000000000E+00 0.  1.
         21    1    1    2  502  501 -0.11357796222E+02 -0.21091604366E+02 -0.17633796239E+02  0.29745690100E+02  0.00000000000E+00 0.  1.
<mgrwt>
<rscale>  1 0.30000000E+03</rscale>
<asrwt>0</asrwt>
<pdfrwt beam="1">  1        1 0.10479942E+00 0.30000000E+03</pdfrwt>
<pdfrwt beam="2">0</pdfrwt>
<totfact> 0.31943287E+01</totfact>
</mgrwt>
</event>
<event>
 6    1  0.1950139E-004  0.3000000E+03  0.7818608E-02  0.1093470E+00
          1   -1    0    0  502    0  0.00000000000E+00  0.00000000000E+00  0.27627168169E+02  0.27627168169E+02  0.00000000000E+00 0.  1.
         13   -1    0    0    0    0 -0.00000000000E+00 -0.00000000000E+00 -0.10000000000E+04  0.10000000000E+04  0.00000000000E+00 0.  1.
    9000005    2    1    2  501    0  0.27096199599E+01  0.12143397474E+02 -0.95736042678E+03  0.10081290542E+04  0.31564283460E+03 0.  0.
         13    1    3    3    0    0  0.41660773136E+02 -0.94323406581E+02 -0.10114099036E+03  0.14443692387E+03  0.00000000000E+00 0.  1.
          3    1    3    3  501    0 -0.38951153176E+02  0.10646680406E+03 -0.85621943642E+03  0.86369213033E+03  0.00000000000E+00 0.  1.
         21    1    1    2  502  501 -0.27096199599E+01 -0.12143397474E+02 -0.15012405055E+02  0.19498113962E+02  0.00000000000E+00 0.  1.
<mgrwt>
<rscale>  1 0.30000000E+03</rscale>
<asrwt>0</asrwt>
<pdfrwt beam="1">  1        1 0.10046264E+00 0.30000000E+03</pdfrwt>
<pdfrwt beam="2">0</pdfrwt>
<totfact> 0.33996575E+01</totfact>
</mgrwt>
</event>
<event>
 6    1  0.1950139E-004  0.3000000E+03  0.7818608E-02  0.1093470E+00
          1   -1    0    0  502    0  0.00000000000E+00  0.00000000000E+00  0.33708787785E+02  0.33708787785E+02  0.00000000000E+00 0.  1.
         13   -1    0    0    0    0 -0.00000000000E+00 -0.00000000000E+00 -0.10000000000E+04  0.10000000000E+04  0.00000000000E+00 0.  1.
    9000005    2    1    2  501    0 -0.26002333971E+02 -0.37834738783E+02 -0.88501255740E+03  0.94036100495E+03  0.31452186578E+03 0.  0.
         13    1    3    3    0    0 -0.13361853471E+02  0.11988675084E+03 -0.62065444592E+03  0.63226838715E+03  0.00000000000E+00 0.  1.
          1    1    3    3  501    0 -0.12640480500E+02 -0.15772148963E+03 -0.26435811148E+03  0.30809261780E+03  0.00000000000E+00 0.  1.
         21    1    1    2  502  501  0.26002333971E+02  0.37834738783E+02 -0.81278654817E+02  0.93347782832E+02  0.00000000000E+00 0. -1.
<mgrwt>
<rscale>  1 0.30000000E+03</rscale>
<asrwt>0</asrwt>
<pdfrwt beam="1">  1        1 0.12257767E+00 0.30000000E+03</pdfrwt>
<pdfrwt beam="2">0</pdfrwt>
<totfact> 0.25142722E+01</totfact>
</mgrwt>
</event>
<event>
 6    1  0.1950139E-004  0.3000000E+03  0.7818608E-02  0.1093470E+00
          3   -1    0    0  502    0  0.00000000000E+00  0.00000000000E+00  0.51347830746E+02  0.51347830746E+02  0.00000000000E+00 0.  1.
         13   -1    0    0    0    0 -0.00000000000E+00 -0.00000000000E+00 -0.10000000000E+04  0.10000000000E+04  0.00000000000E+00 0.  1.
    9000005    2    1    2  501    0 -0.13533838779E+01 -0.10451033996E+02 -0.97235205356E+03  0.10254105935E+04  0.32540330890E+03 0.  0.
         13    1    3    3    0    0  0.60451979054E+02 -0.14448593652E+03 -0.31621850269E+03  0.35288067256E+03  0.00000000000E+00 0.  1.
          1    1    3    3  501    0 -0.61805362932E+02  0.13403490253E+03 -0.65613355088E+03  0.67252992095E+03  0.00000000000E+00 0.  1.
         21    1    1    2  502  501  0.13533838779E+01  0.10451033996E+02  0.23699884308E+02  0.25937237241E+02  0.00000000000E+00 0.  1.
<mgrwt>
<rscale>  1 0.30000000E+03</rscale>
<asrwt>0</asrwt>
<pdfrwt beam="1">  1        3 0.18671978E+00 0.30000000E+03</pdfrwt>
<pdfrwt beam="2">0</pdfrwt>
<totfact> 0.24334426E-01</totfact>
</mgrwt>
</event>
<event>
 6    1  0.1950139E-004  0.3000000E+03  0.7818608E-02  0.1093470E+00
          1   -1    0    0  502    0  0.00000000000E+00  0.00000000000E+00  0.31393852827E+02  0.31393852827E+02  0.00000000000E+00 0.  1.
         13   -1    0    0    0    0 -0.00000000000E+00 -0.00000000000E+00 -0.10000000000E+04  0.10000000000E+04  0.00000000000E+00 0.  1.
    9000005    2    1    2  501    0 -0.83116245857E+01 -0.11022353477E+02 -0.95442922977E+03  0.10116059685E+04  0.33499388871E+03 0.  0.
         13    1    3    3    0    0  0.68194276251E+02  0.25905819951E+01 -0.16168279770E+02  0.70132615089E+02  0.00000000000E+00 0.  1.
          1    1    3    3  501    0 -0.76505900837E+02 -0.13612935472E+02 -0.93826095000E+03  0.94147335340E+03  0.00000000000E+00 0.  1.
         21    1    1    2  502  501  0.83116245857E+01  0.11022353477E+02 -0.14176917406E+02  0.19787884337E+02  0.00000000000E+00 0. -1.
<mgrwt>
<rscale>  1 0.30000000E+03</rscale>
<asrwt>0</asrwt>
<pdfrwt beam="1">  1        1 0.11415971E+00 0.30000000E+03</pdfrwt>
<pdfrwt beam="2">0</pdfrwt>
<totfact> 0.28079887E+01</totfact>
</mgrwt>
</event>
<event>
 6    1  0.1950139E-004  0.3000000E+03  0.7818608E-02  0.1093470E+00
          1   -1    0    0  502    0  0.00000000000E+00  0.00000000000E+00  0.82639873415E+02  0.82639873415E+02  0.00000000000E+00 0.  1.
         13   -1    0    0    0    0 -0.00000000000E+00 -0.00000000000E+00 -0.10000000000E+04  0.10000000000E+04  0.00000000000E+00 0.  1.
    9000005    2    1    2  501    0 -0.15588541914E+02 -0.57232269605E+01 -0.96436727243E+03  0.10327857891E+04  0.36927833947E+03 0.  0.
         13    1    3    3    0    0  0.10788359012E+03 -0.55558112339E+02 -0.84590983322E+03  0.85456949325E+03  0.00000000000E+00 0.  1.
          1    1    3    3  501    0 -0.12347213203E+03  0.49834885379E+02 -0.11845743921E+03  0.17821629581E+03  0.00000000000E+00 0.  1.
         21    1    1    2  502  501  0.15588541914E+02  0.57232269605E+01  0.47007145844E+02  0.49854084348E+02  0.00000000000E+00 0.  1.
<mgrwt>
<rscale>  1 0.30000000E+03</rscale>
<asrwt>0</asrwt>
<pdfrwt beam="1">  1        1 0.30050926E+00 0.30000000E+03</pdfrwt>
<pdfrwt beam="2">0</pdfrwt>
<totfact> 0.34551155E+00</totfact>
</mgrwt>
</event>
<event>
 6    1  0.1950139E-004  0.3000000E+03  0.7818608E-02  0.1093470E+00
          1   -1    0    0  502    0  0.00000000000E+00  0.00000000000E+00  0.44698034498E+02  0.44698034498E+02  0.00000000000E+00 0.  1.
         13   -1    0    0    0    0 -0.00000000000E+00 -0.00000000000E+00 -0.10000000000E+04  0.10000000000E+04  0.00000000000E+00 0.  1.
    9000005    2    1    2  501    0  0.45707773072E+02  0.26047348062E+02 -0.90515147026E+03  0.97201559485E+03  0.35035334686E+03 0.  0.
         13    1    3    3    0    0 -0.72985685606E+02 -0.12625699670E+03 -0.25456103480E+03  0.29337528859E+03  0.00000000000E+00 0.  1.
          3    1    3    3  501    0  0.11869345868E+03  0.15230434476E+03 -0.65059043546E+03  0.67864030626E+03  0.00000000000E+00 0.  1.
         21    1    1    2  502  501 -0.45707773072E+02 -0.26047348062E+02 -0.50150495238E+02  0.72682439646E+02  0.00000000000E+00 0.  1.
<mgrwt>
<rscale>  1 0.30000000E+03</rscale>
<asrwt>0</asrwt>
<pdfrwt beam="1">  1        1 0.16253865E+00 0.30000000E+03</pdfrwt>
<pdfrwt beam="2">0</pdfrwt>
<totfact> 0.15546065E+01</totfact>
</mgrwt>
</event>
<event>
 6    1  0.1950139E-004  0.3000000E+03  0.7818608E-02  0.1093470E+00
          1   -1    0    0  502    0  0.00000000000E+00  0.00000000000E+00  0.39816578340E+02  0.39816578340E+02  0.00000000000E+00 0.  1.
         13   -1    0    0    0    0 -0.00000000000E+00 -0.00000000000E+00 -0.10000000000E+04  0.10000000000E+04  0.00000000000E+00 0.  1.
    9000005    2    1    2  501    0  0.16185008118E+02  0.89767442635E+01 -0.96608232842E+03  0.10203915037E+04  0.32793477860E+03 0.  0.
         13    1    3    3    0    0 -0.41922206502E+02 -0.11744251133E+03 -0.76958770453E+03  0.77962519830E+03  0.00000000000E+00 0.  1.
          1    1    3    3  501    0  0.58107214620E+02  0.12641925559E+03 -0.19649462390E+03  0.24076630536E+03  0.00000000000E+00 0.  1.
         21    1    1    2  502  501 -0.16185008118E+02 -0.89767442635E+01  0.58989067645E+01  0.19425074681E+02  0.00000000000E+00 0. -1.
<mgrwt>
<rscale>  1 0.30000000E+03</rscale>
<asrwt>0</asrwt>
<pdfrwt beam="1">  1        1 0.14478786E+00 0.30000000E+03</pdfrwt>
<pdfrwt beam="2">0</pdfrwt>
<totfact> 0.19104307E+01</totfact>
</mgrwt>
</event>
<event>
 6    1  0.1950139E-004  0.3000000E+03  0.7818608E-02  0.1093470E+00
          1   -1    0    0  502    0  0.00000000000E+00  0.00000000000E+00  0.26800324147E+02  0.26800324147E+02  0.00000000000E+00 0.  1.
         13   -1    0    0    0    0 -0.00000000000E+00 -0.00000000000E+00 -0.10000000000E+04  0.10000000000E+04  0.00000000000E+00 0.  1.
    9000005    2    1    2  501    0 -0.70788495384E+02 -0.14492397072E+02 -0.77204489576E+03  0.81306149706E+03  0.24452941802E+03 0.  0.
         13    1    3    3    0    0  0.14329799458E+02 -0.55673318655E+02 -0.67543984643E+03  0.67788188330E+03  0.00000000000E+00 0.  1.
          3    1    3    3  501    0 -0.85118294842E+02  0.41180921582E+02 -0.96605049330E+02  0.13517961376E+03  0.00000000000E+00 0.  1.
         21    1    1    2  502  501  0.70788495384E+02  0.14492397072E+02 -0.20115478009E+03  0.21373882709E+03  0.00000000000E+00 0.  1.
<mgrwt>
<rscale>  1 0.30000000E+03</rscale>
<asrwt>0</asrwt>
<pdfrwt beam="1">  1        1 0.97455930E-01 0.30000000E+03</pdfrwt>
<pdfrwt beam="2">0</pdfrwt>
<totfact> 0.35535891E+01</totfact>
</mgrwt>
</event>
<event>
 6    1  0.1950139E-004  0.3000000E+03  0.7818608E-02  0.1093470E+00
          1   -1    0    0  502    0  0.00000000000E+00  0.00000000000E+00  0.45153432394E+02  0.45153432394E+02  0.00000000000E+00 0.  1.
         13   -1    0    0    0    0 -0.00000000000E+00 -0.00000000000E+00 -0.10000000000E+04  0.10000000000E+04  0.00000000000E+00 0.  1.
    9000005    2    1    2  501    0  0.19629505783E+01  0.42111776266E+02 -0.94625640186E+03  0.10021296503E+04  0.32723906115E+03 0.  0.
         13    1    3    3    0    0 -0.17192133722E+02  0.12570075732E+03 -0.89128060710E+03  0.90026516674E+03  0.00000000000E+00 0.  1.
          3    1    3    3  501    0  0.19155084300E+02 -0.83588981055E+02 -0.54975794759E+02  0.10186448359E+03  0.00000000000E+00 0.  1.
         21    1    1    2  502  501 -0.19629505783E+01 -0.42111776266E+02 -0.85901657482E+01  0.43023782061E+02  0.00000000000E+00 0. -1.
<mgrwt>
<rscale>  1 0.30000000E+03</rscale>
<asrwt>0</asrwt>
<pdfrwt beam="1">  1        1 0.16419465E+00 0.30000000E+03</pdfrwt>
<pdfrwt beam="2">0</pdfrwt>
<totfact> 0.15256086E+01</totfact>
</mgrwt>
</event>
<event>
 6    1  0.1950139E-004  0.3000000E+03  0.7818608E-02  0.1093470E+00
          1   -1    0    0  502    0  0.00000000000E+00  0.00000000000E+00  0.30877913476E+02  0.30877913476E+02  0.00000000000E+00 0.  1.
         13   -1    0    0    0    0 -0.00000000000E+00 -0.00000000000E+00 -0.10000000000E+04  0.10000000000E+04  0.00000000000E+00 0.  1.
    9000005    2    1    2  501    0  0.17464385713E+02 -0.28074826848E+01 -0.96730285762E+03  0.10130960035E+04  0.30062569299E+03 0.  0.
         13    1    3    3    0    0 -0.32795459751E+02 -0.12373408445E+03 -0.22103650729E+03  0.25542670845E+03  0.00000000000E+00 0.  1.
          1    1    3    3  501    0  0.50259845464E+02  0.12092660176E+03 -0.74626635033E+03  0.75766929508E+03  0.00000000000E+00 0.  1.
         21    1    1    2  502  501 -0.17464385713E+02  0.28074826848E+01 -0.18192289029E+01  0.17781909941E+02  0.00000000000E+00 0.  1.
<mgrwt>
<rscale>  1 0.30000000E+03</rscale>
<asrwt>0</asrwt>
<pdfrwt beam="1">  1        1 0.11228356E+00 0.30000000E+03</pdfrwt>
<pdfrwt beam="2">0</pdfrwt>
<totfact> 0.28798806E+01</totfact>
</mgrwt>
</event>
<event>
 6    1  0.1950139E-004  0.3000000E+03  0.7818608E-02  0.1093470E+00
          1   -1    0    0  502    0  0.00000000000E+00  0.00000000000E+00  0.32560366104E+02  0.32560366104E+02  0.00000000000E+00 0.  1.
         13   -1    0    0    0    0 -0.00000000000E+00 -0.00000000000E+00 -0.10000000000E+04  0.10000000000E+04  0.00000000000E+00 0.  1.
    9000005    2    1    2  501    0  0.38055290984E+02  0.41152643737E+01 -0.92489282936E+03  0.97532950774E+03  0.30720638387E+03 0.  0.
         13    1    3    3    0    0 -0.22239790854E+02 -0.10152841577E+03 -0.77662899475E+03  0.78355294842E+03  0.00000000000E+00 0.  1.
          3    1    3    3  501    0  0.60295081838E+02  0.10564368014E+03 -0.14826383462E+03  0.19177655932E+03  0.00000000000E+00 0.  1.
         21    1    1    2  502  501 -0.38055290984E+02 -0.41152643737E+01 -0.42546804532E+02  0.57230858360E+02  0.00000000000E+00 0.  1.
<mgrwt>
<rscale>  1 0.30000000E+03</rscale>
<asrwt>0</asrwt>
<pdfrwt beam="1">  1        1 0.11840158E+00 0.30000000E+03</pdfrwt>
<pdfrwt beam="2">0</pdfrwt>
<totfact> 0.26544674E+01</totfact>
</mgrwt>
</event>
<event>
 6    1  0.1950139E-004  0.3000000E+03  0.7818608E-02  0.1093470E+00
          1   -1    0    0  502    0  0.00000000000E+00  0.00000000000E+00  0.25842910183E+02  0.25842910183E+02  0.00000000000E+00 0.  1.
         13   -1    0    0    0    0 -0.00000000000E+00 -0.00000000000E+00 -0.10000000000E+04  0.10000000000E+04  0.00000000000E+00 0.  1.
    9000005    2    1    2  501    0  0.15350460059E+02  0.23697428291E+02 -0.94713200494E+03  0.98675889882E+03  0.27538497578E+03 0.  0.
         13    1    3    3    0    0 -0.79822553788E+02  0.11820199783E+03 -0.47660829418E+03  0.49749253106E+03  0.00000000000E+00 0.  1.
          1    1    3    3  501    0  0.95173013847E+02 -0.94504569540E+02 -0.47052371076E+03  0.48926636775E+03  0.00000000000E+00 0.  1.
         21    1    1    2  502  501 -0.15350460059E+02 -0.23697428291E+02 -0.27025084880E+02  0.39084011365E+02  0.00000000000E+00 0.  1.
<mgrwt>
<rscale>  1 0.30000000E+03</rscale>
<asrwt>0</asrwt>
<pdfrwt beam="1">  1        1 0.93974417E-01 0.30000000E+03</pdfrwt>
<pdfrwt beam="2">0</pdfrwt>
<totfact> 0.37450870E+01</totfact>
</mgrwt>
</event>
<event>
 6    1  0.1950139E-004  0.3000000E+03  0.7818608E-02  0.1093470E+00
          1   -1    0    0  502    0  0.00000000000E+00  0.00000000000E+00  0.51973793628E+02  0.51973793628E+02  0.00000000000E+00 0.  1.
         13   -1    0    0    0    0 -0.00000000000E+00 -0.00000000000E+00 -0.10000000000E+04  0.10000000000E+04  0.00000000000E+00 0.  1.
    9000005    2    1    2  501    0  0.71425410130E+01 -0.93482499035E+02 -0.78734176578E+03  0.86593755262E+03  0.34806722826E+03 0.  0.
         13    1    3    3    0    0 -0.10190759483E+02 -0.20240860971E+03 -0.68892473709E+03  0.71811586129E+03  0.00000000000E+00 0.  1.
          1    1    3    3  501    0  0.17333300496E+02  0.10892611067E+03 -0.98417028685E+02  0.14782169133E+03  0.00000000000E+00 0.  1.
         21    1    1    2  502  501 -0.71425410130E+01  0.93482499035E+02 -0.16068444059E+03  0.18603624101E+03  0.00000000000E+00 0.  1.
<mgrwt>
<rscale>  1 0.30000000E+03</rscale>
<asrwt>0</asrwt>
<pdfrwt beam="1">  1        1 0.18899601E+00 0.30000000E+03</pdfrwt>
<pdfrwt beam="2">0</pdfrwt>
<totfact> 0.11561595E+01</totfact>
</mgrwt>
</event>
<event>
 6    1  0.1950139E-004  0.3000000E+03  0.7818608E-02  0.1093470E+00
          1   -1    0    0  502    0  0.00000000000E+00  0.00000000000E+00  0.50940812486E+02  0.50940812486E+02  0.00000000000E+00 0.  1.
         13   -1    0    0    0    0 -0.00000000000E+00 -0.00000000000E+00 -0.10000000000E+04  0.10000000000E+04  0.00000000000E+00 0.  1.
    9000005    2    1    2  501    0  0.44446641166E+01  0.26688117551E+02 -0.95595068006E+03  0.10230212257E+04  0.36331627384E+03 0.  0.
         13    1    3    3    0    0  0.79856681517E+02 -0.42271194861E+02 -0.90378151522E+03  0.90828683286E+03  0.00000000000E+00 0.  1.
          1    1    3    3  501    0 -0.75412017400E+02  0.68959312412E+02 -0.52169164846E+02  0.11473439283E+03  0.00000000000E+00 0.  1.
         21    1    1    2  502  501 -0.44446641166E+01 -0.26688117551E+02  0.68914925486E+01  0.27919586800E+02  0.00000000000E+00 0.  1.
<mgrwt>
<rscale>  1 0.30000000E+03</rscale>
<asrwt>0</asrwt>
<pdfrwt beam="1">  1        1 0.18523971E+00 0.30000000E+03</pdfrwt>
<pdfrwt beam="2">0</pdfrwt>
<totfact> 0.12052341E+01</totfact>
</mgrwt>
</event>
<event>
 6    1  0.1950139E-004  0.3000000E+03  0.7818608E-02  0.1093470E+00
          1   -1    0    0  502    0  0.00000000000E+00  0.00000000000E+00  0.32727408351E+02  0.32727408351E+02  0.00000000000E+00 0.  1.
         13   -1    0    0    0    0 -0.00000000000E+00 -0.00000000000E+00 -0.10000000000E+04  0.10000000000E+04  0.00000000000E+00 0.  1.
    9000005    2    1    2  501    0  0.12745779245E+02  0.27776627721E+01 -0.96140962147E+03  0.10184254953E+04  0.33572586855E+03 0.  0.
         13    1    3    3    0    0  0.16379826417E+02  0.13650091527E+03 -0.18453312580E+03  0.23011578195E+03  0.00000000000E+00 0.  1.
          3    1    3    3  501    0 -0.36340471719E+01 -0.13372325250E+03 -0.77687649568E+03  0.78830971331E+03  0.00000000000E+00 0.  1.
         21    1    1    2  502  501 -0.12745779245E+02 -0.27776627721E+01 -0.58629701748E+01  0.14301913099E+02  0.00000000000E+00 0.  1.
<mgrwt>
<rscale>  1 0.30000000E+03</rscale>
<asrwt>0</asrwt>
<pdfrwt beam="1">  1        1 0.11900901E+00 0.30000000E+03</pdfrwt>
<pdfrwt beam="2">0</pdfrwt>
<totfact> 0.26334350E+01</totfact>
</mgrwt>
</event>
<event>
 6    1  0.1950139E-004  0.3000000E+03  0.7818608E-02  0.1093470E+00
          1   -1    0    0  502    0  0.00000000000E+00  0.00000000000E+00  0.35271682398E+02  0.35271682398E+02  0.00000000000E+00 0.  1.
         13   -1    0    0    0    0 -0.00000000000E+00 -0.00000000000E+00 -0.10000000000E+04  0.10000000000E+04  0.00000000000E+00 0.  1.
    9000005    2    1    2  501    0 -0.17192225229E+02  0.29074438728E+01 -0.96020235413E+03  0.10172575162E+04  0.33544040837E+03 0.  0.
         13    1    3    3    0    0  0.39096948285E+02  0.14278280518E+03 -0.24433053302E+03  0.28567973360E+03  0.00000000000E+00 0.  1.
          3    1    3    3  501    0 -0.56289173514E+02 -0.13987536131E+03 -0.71587182111E+03  0.73157778261E+03  0.00000000000E+00 0.  1.
         21    1    1    2  502  501  0.17192225229E+02 -0.29074438728E+01 -0.45259634763E+01  0.18014166192E+02  0.00000000000E+00 0.  1.
<mgrwt>
<rscale>  1 0.30000000E+03</rscale>
<asrwt>0</asrwt>
<pdfrwt beam="1">  1        1 0.12826093E+00 0.30000000E+03</pdfrwt>
<pdfrwt beam="2">0</pdfrwt>
<totfact> 0.23385761E+01</totfact>
</mgrwt>
</event>
<event>
 6    1  0.1950139E-004  0.3000000E+03  0.7818608E-02  0.1093470E+00
          1   -1    0    0  502    0  0.00000000000E+00  0.00000000000E+00  0.53334711894E+02  0.53334711894E+02  0.00000000000E+00 0.  1.
         13   -1    0    0    0    0 -0.00000000000E+00 -0.00000000000E+00 -0.10000000000E+04  0.10000000000E+04  0.00000000000E+00 0.  1.
    9000005    2    1    2  501    0  0.20559834070E+02 -0.24371887626E+02 -0.95885215725E+03  0.10191994594E+04  0.34402526490E+03 0.  0.
         13    1    3    3    0    0  0.18320700108E+02  0.15890612916E+03 -0.50518127828E+03  0.52990086796E+03  0.00000000000E+00 0.  1.
          1    1    3    3  501    0  0.22391339620E+01 -0.18327801679E+03 -0.45367087897E+03  0.48929859144E+03  0.00000000000E+00 0.  1.
         21    1    1    2  502  501 -0.20559834070E+02  0.24371887626E+02  0.12186869144E+02  0.34135252496E+02  0.00000000000E+00 0.  1.
<mgrwt>
<rscale>  1 0.30000000E+03</rscale>
<asrwt>0</asrwt>
<pdfrwt beam="1">  1        1 0.19394482E+00 0.30000000E+03</pdfrwt>
<pdfrwt beam="2">0</pdfrwt>
<totfact> 0.10947069E+01</totfact>
</mgrwt>
</event>
<event>
 6    1  0.1950139E-004  0.3000000E+03  0.7818608E-02  0.1093470E+00
          1   -1    0    0  502    0  0.00000000000E+00  0.00000000000E+00  0.45797212876E+02  0.45797212876E+02  0.00000000000E+00 0.  1.
         13   -1    0    0    0    0 -0.00000000000E+00 -0.00000000000E+00 -0.10000000000E+04  0.10000000000E+04  0.00000000000E+00 0.  1.
    9000005    2    1    2  501    0 -0.67854502569E+02  0.33128983774E+02 -0.87006141879E+03  0.93274177095E+03  0.32756461304E+03 0.  0.
         13    1    3    3    0    0  0.75473114252E+02  0.10554531496E+03 -0.63463579657E+03  0.64776430804E+03  0.00000000000E+00 0.  1.
          1    1    3    3  501    0 -0.14332761682E+03 -0.72416331187E+02 -0.23542562222E+03  0.28497746291E+03  0.00000000000E+00 0.  1.
         21    1    1    2  502  501  0.67854502569E+02 -0.33128983774E+02 -0.84141368334E+02  0.11305544193E+03  0.00000000000E+00 0.  1.
<mgrwt>
<rscale>  1 0.30000000E+03</rscale>
<asrwt>0</asrwt>
<pdfrwt beam="1">  1        1 0.16653567E+00 0.30000000E+03</pdfrwt>
<pdfrwt beam="2">0</pdfrwt>
<totfact> 0.14856663E+01</totfact>
</mgrwt>
</event>
<event>
 6    1  0.1950139E-004  0.3000000E+03  0.7818608E-02  0.1093470E+00
          1   -1    0    0  502    0  0.00000000000E+00  0.00000000000E+00  0.45392242942E+02  0.45392242942E+02  0.00000000000E+00 0.  1.
         13   -1    0    0    0    0 -0.00000000000E+00 -0.00000000000E+00 -0.10000000000E+04  0.10000000000E+04  0.00000000000E+00 0.  1.
    9000005    2    1    2  501    0  0.16261864777E+02  0.16053455322E+02 -0.97773782667E+03  0.10128782184E+04  0.26349357840E+03 0.  0.
         13    1    3    3    0    0  0.10542443349E+03  0.84999347405E+02 -0.70291125775E+03  0.71583757691E+03  0.00000000000E+00 0.  1.
          3    1    3    3  501    0 -0.89162568709E+02 -0.68945892083E+02 -0.27482656892E+03  0.29704064146E+03  0.00000000000E+00 0.  1.
         21    1    1    2  502  501 -0.16261864777E+02 -0.16053455322E+02  0.23130069615E+02  0.32514024577E+02  0.00000000000E+00 0.  1.
<mgrwt>
<rscale>  1 0.30000000E+03</rscale>
<asrwt>0</asrwt>
<pdfrwt beam="1">  1        1 0.16506305E+00 0.30000000E+03</pdfrwt>
<pdfrwt beam="2">0</pdfrwt>
<totfact> 0.15106506E+01</totfact>
</mgrwt>
</event>
<event>
 6    1  0.1950139E-004  0.3000000E+03  0.7818608E-02  0.1093470E+00
          3   -1    0    0  502    0  0.00000000000E+00  0.00000000000E+00  0.30989913321E+02  0.30989913321E+02  0.00000000000E+00 0.  1.
         13   -1    0    0    0    0 -0.00000000000E+00 -0.00000000000E+00 -0.10000000000E+04  0.10000000000E+04  0.00000000000E+00 0.  1.
    9000005    2    1    2  501    0 -0.74759666740E+01  0.96909940143E+01 -0.97432645803E+03  0.10176456544E+04  0.29349757338E+03 0.  0.
         13    1    3    3    0    0 -0.12723989681E+02  0.67000430138E+02 -0.35179179142E+02  0.76736772132E+02  0.00000000000E+00 0.  1.
          3    1    3    3  501    0  0.52480230075E+01 -0.57309436124E+02 -0.93914727889E+03  0.94090888223E+03  0.00000000000E+00 0.  1.
         21    1    1    2  502  501  0.74759666740E+01 -0.96909940143E+01  0.53163713546E+01  0.13344258956E+02  0.00000000000E+00 0.  1.
<mgrwt>
<rscale>  1 0.30000000E+03</rscale>
<asrwt>0</asrwt>
<pdfrwt beam="1">  1        3 0.11269083E+00 0.30000000E+03</pdfrwt>
<pdfrwt beam="2">0</pdfrwt>
<totfact> 0.28079351E+00</totfact>
</mgrwt>
</event>
<event>
 6    1  0.1950139E-004  0.3000000E+03  0.7818608E-02  0.1093470E+00
          1   -1    0    0  502    0  0.00000000000E+00  0.00000000000E+00  0.30890603197E+02  0.30890603197E+02  0.00000000000E+00 0.  1.
         13   -1    0    0    0    0 -0.00000000000E+00 -0.00000000000E+00 -0.10000000000E+04  0.10000000000E+04  0.00000000000E+00 0.  1.
    9000005    2    1    2  501    0 -0.17234984669E+01 -0.77810763753E+01 -0.94379298819E+03  0.10043493873E+04  0.34337875823E+03 0.  0.
         13    1    3    3    0    0  0.14848660017E+03 -0.72193224409E+02 -0.32765852307E+03  0.36690630932E+03  0.00000000000E+00 0.  1.
          3    1    3    3  501    0 -0.15021009863E+03  0.64412148034E+02 -0.61613446512E+03  0.63744307797E+03  0.00000000000E+00 0.  1.
         21    1    1    2  502  501  0.17234984669E+01  0.77810763753E+01 -0.25316408614E+02  0.26541215903E+02  0.00000000000E+00 0.  1.
<mgrwt>
<rscale>  1 0.30000000E+03</rscale>
<asrwt>0</asrwt>
<pdfrwt beam="1">  1        1 0.11232970E+00 0.30000000E+03</pdfrwt>
<pdfrwt beam="2">0</pdfrwt>
<totfact> 0.28780810E+01</totfact>
</mgrwt>
</event>
<event>
 6    1  0.1950139E-004  0.3000000E+03  0.7818608E-02  0.1093470E+00
          1   -1    0    0  502    0  0.00000000000E+00  0.00000000000E+00  0.30231245266E+02  0.30231245266E+02  0.00000000000E+00 0.  1.
         13   -1    0    0    0    0 -0.00000000000E+00 -0.00000000000E+00 -0.10000000000E+04  0.10000000000E+04  0.00000000000E+00 0.  1.
    9000005    2    1    2  501    0 -0.10189107835E+02  0.92144415890E+01 -0.98388697472E+03  0.10105323116E+04  0.23011573154E+03 0.  0.
         13    1    3    3    0    0  0.57357248757E+02 -0.91872023160E+02 -0.50131574216E+03  0.51288185380E+03  0.00000000000E+00 0.  1.
          3    1    3    3  501    0 -0.67546356593E+02  0.10108646475E+03 -0.48257123256E+03  0.49765045779E+03  0.00000000000E+00 0.  1.
         21    1    1    2  502  501  0.10189107835E+02 -0.92144415890E+01  0.14118219985E+02  0.19698933672E+02  0.00000000000E+00 0.  1.
<mgrwt>
<rscale>  1 0.30000000E+03</rscale>
<asrwt>0</asrwt>
<pdfrwt beam="1">  1        1 0.10993203E+00 0.30000000E+03</pdfrwt>
<pdfrwt beam="2">0</pdfrwt>
<totfact> 0.29737373E+01</totfact>
</mgrwt>
</event>
<event>
 6    1  0.1950139E-004  0.3000000E+03  0.7818608E-02  0.1093470E+00
          1   -1    0    0  502    0  0.00000000000E+00  0.00000000000E+00  0.34729577621E+02  0.34729577621E+02  0.00000000000E+00 0.  1.
         13   -1    0    0    0    0 -0.00000000000E+00 -0.00000000000E+00 -0.10000000000E+04  0.10000000000E+04  0.00000000000E+00 0.  1.
    9000005    2    1    2  501    0 -0.28770642242E+02 -0.92908646192E+00 -0.96116934325E+03  0.10056532658E+04  0.29438643249E+03 0.  0.
         13    1    3    3    0    0 -0.90362571745E+02  0.97112457730E+02 -0.77606494370E+03  0.78732015131E+03  0.00000000000E+00 0.  1.
          1    1    3    3  501    0  0.61591929503E+02 -0.98041544192E+02 -0.18510439955E+03  0.21833311453E+03  0.00000000000E+00 0.  1.
         21    1    1    2  502  501  0.28770642242E+02  0.92908646192E+00 -0.41010791264E+01  0.29076311779E+02  0.00000000000E+00 0.  1.
<mgrwt>
<rscale>  1 0.30000000E+03</rscale>
<asrwt>0</asrwt>
<pdfrwt beam="1">  1        1 0.12628964E+00 0.30000000E+03</pdfrwt>
<pdfrwt beam="2">0</pdfrwt>
<totfact> 0.23976878E+01</totfact>
</mgrwt>
</event>
<event>
 6    1  0.1950139E-004  0.3000000E+03  0.7818608E-02  0.1093470E+00
          1   -1    0    0  502    0  0.00000000000E+00  0.00000000000E+00  0.47928204223E+02  0.47928204223E+02  0.00000000000E+00 0.  1.
         13   -1    0    0    0    0 -0.00000000000E+00 -0.00000000000E+00 -0.10000000000E+04  0.10000000000E+04  0.00000000000E+00 0.  1.
    9000005    2    1    2  501    0 -0.99888514006E+01 -0.38444307328E+00 -0.97275618429E+03  0.10249549834E+04  0.32276647733E+03 0.  0.
         13    1    3    3    0    0 -0.75154558303E+02 -0.13342174713E+03 -0.67785290690E+03  0.69493462544E+03  0.00000000000E+00 0.  1.
          3    1    3    3  501    0  0.65165706902E+02  0.13303730405E+03 -0.29490327739E+03  0.33002035792E+03  0.00000000000E+00 0.  1.
         21    1    1    2  502  501  0.99888514006E+01  0.38444307328E+00  0.20684388513E+02  0.22973220865E+02  0.00000000000E+00 0.  1.
<mgrwt>
<rscale>  1 0.30000000E+03</rscale>
<asrwt>0</asrwt>
<pdfrwt beam="1">  1        1 0.17428475E+00 0.30000000E+03</pdfrwt>
<pdfrwt beam="2">0</pdfrwt>
<totfact> 0.13616433E+01</totfact>
</mgrwt>
</event>
<event>
 6    1  0.1950139E-004  0.3000000E+03  0.7818608E-02  0.1093470E+00
          1   -1    0    0  502    0  0.00000000000E+00  0.00000000000E+00  0.41208753551E+02  0.41208753551E+02  0.00000000000E+00 0.  1.
         13   -1    0    0    0    0 -0.00000000000E+00 -0.00000000000E+00 -0.10000000000E+04  0.10000000000E+04  0.00000000000E+00 0.  1.
    9000005    2    1    2  501    0 -0.84388192338E+01 -0.72179017174E+01 -0.96485098523E+03  0.10285583698E+04  0.35619037687E+03 0.  0.
         13    1    3    3    0    0  0.46804173290E+02  0.14507875281E+03 -0.22910015267E+03  0.27518240334E+03  0.00000000000E+00 0.  1.
          1    1    3    3  501    0 -0.55242992524E+02 -0.15229665453E+03 -0.73575083257E+03  0.75337596645E+03  0.00000000000E+00 0.  1.
         21    1    1    2  502  501  0.84388192338E+01  0.72179017174E+01  0.60597387845E+01  0.12650383765E+02  0.00000000000E+00 0. -1.
<mgrwt>
<rscale>  1 0.30000000E+03</rscale>
<asrwt>0</asrwt>
<pdfrwt beam="1">  1        1 0.14985033E+00 0.30000000E+03</pdfrwt>
<pdfrwt beam="2">0</pdfrwt>
<totfact> 0.17996471E+01</totfact>
</mgrwt>
</event>
<event>
 6    1  0.1950139E-004  0.3000000E+03  0.7818608E-02  0.1093470E+00
          1   -1    0    0  502    0  0.00000000000E+00  0.00000000000E+00  0.33717251497E+02  0.33717251497E+02  0.00000000000E+00 0.  1.
         13   -1    0    0    0    0 -0.00000000000E+00 -0.00000000000E+00 -0.10000000000E+04  0.10000000000E+04  0.00000000000E+00 0.  1.
    9000005    2    1    2  501    0 -0.22307531225E+02 -0.21060865357E+02 -0.94435221337E+03  0.99600605461E+03  0.31509644863E+03 0.  0.
         13    1    3    3    0    0 -0.13281150115E+03  0.89282104810E+02 -0.50271821903E+03  0.52757539444E+03  0.00000000000E+00 0.  1.
          3    1    3    3  501    0  0.11050396993E+03 -0.11034297017E+03 -0.44163399433E+03  0.46843066017E+03  0.00000000000E+00 0.  1.
         21    1    1    2  502  501  0.22307531225E+02  0.21060865357E+02 -0.21930535138E+02  0.37711196884E+02  0.00000000000E+00 0. -1.
<mgrwt>
<rscale>  1 0.30000000E+03</rscale>
<asrwt>0</asrwt>
<pdfrwt beam="1">  1        1 0.12260845E+00 0.30000000E+03</pdfrwt>
<pdfrwt beam="2">0</pdfrwt>
<totfact> 0.25132758E+01</totfact>
</mgrwt>
</event>
<event>
 6    1  0.1950139E-004  0.3000000E+03  0.7818608E-02  0.1093470E+00
          3   -1    0    0  502    0  0.00000000000E+00  0.00000000000E+00  0.37398577925E+02  0.37398577925E+02  0.00000000000E+00 0.  1.
         13   -1    0    0    0    0 -0.00000000000E+00 -0.00000000000E+00 -0.10000000000E+04  0.10000000000E+04  0.00000000000E+00 0.  1.
    9000005    2    1    2  501    0  0.15612665525E+02 -0.21208986729E+02 -0.95884996373E+03  0.10107968885E+04  0.31878444178E+03 0.  0.
         13    1    3    3    0    0 -0.11971505581E+03  0.71951168432E+02 -0.60126822276E+03  0.61727800943E+03  0.00000000000E+00 0.  1.
          3    1    3    3  501    0  0.13532772134E+03 -0.93160155161E+02 -0.35758174097E+03  0.39351887902E+03  0.00000000000E+00 0.  1.
         21    1    1    2  502  501 -0.15612665525E+02  0.21208986729E+02 -0.37514583425E+01  0.26601689469E+02  0.00000000000E+00 0. -1.
<mgrwt>
<rscale>  1 0.30000000E+03</rscale>
<asrwt>0</asrwt>
<pdfrwt beam="1">  1        3 0.13599512E+00 0.30000000E+03</pdfrwt>
<pdfrwt beam="2">0</pdfrwt>
<totfact> 0.15011726E+00</totfact>
</mgrwt>
</event>
<event>
 6    1  0.1950139E-004  0.3000000E+03  0.7818608E-02  0.1093470E+00
          1   -1    0    0  502    0  0.00000000000E+00  0.00000000000E+00  0.41442282420E+02  0.41442282420E+02  0.00000000000E+00 0.  1.
         13   -1    0    0    0    0 -0.00000000000E+00 -0.00000000000E+00 -0.10000000000E+04  0.10000000000E+04  0.00000000000E+00 0.  1.
    9000005    2    1    2  501    0  0.99033013719E+01  0.15313148183E+02 -0.96651337985E+03  0.10215460404E+04  0.33026600080E+03 0.  0.
         13    1    3    3    0    0 -0.13350616010E+03 -0.45763963627E+02 -0.68850937354E+03  0.70282529308E+03  0.00000000000E+00 0.  1.
          3    1    3    3  501    0  0.14340946147E+03  0.61077111809E+02 -0.27800400632E+03  0.31872074729E+03  0.00000000000E+00 0.  1.
         21    1    1    2  502  501 -0.99033013719E+01 -0.15313148183E+02  0.79556622735E+01  0.19896242046E+02  0.00000000000E+00 0.  1.
<mgrwt>
<rscale>  1 0.30000000E+03</rscale>
<asrwt>0</asrwt>
<pdfrwt beam="1">  1        1 0.15069953E+00 0.30000000E+03</pdfrwt>
<pdfrwt beam="2">0</pdfrwt>
<totfact> 0.17818560E+01</totfact>
</mgrwt>
</event>
<event>
 6    1  0.1950139E-004  0.3000000E+03  0.7818608E-02  0.1093470E+00
          1   -1    0    0  502    0  0.00000000000E+00  0.00000000000E+00  0.19254126161E+02  0.19254126161E+02  0.00000000000E+00 0.  1.
         13   -1    0    0    0    0 -0.00000000000E+00 -0.00000000000E+00 -0.10000000000E+04  0.10000000000E+04  0.00000000000E+00 0.  1.
    9000005    2    1    2  501    0  0.67713917155E+01 -0.11482444418E+02 -0.94803065435E+03  0.98392731111E+03  0.26300785859E+03 0.  0.
         13    1    3    3    0    0  0.12320968187E+03  0.34494596513E+02 -0.61445067414E+03  0.62763057115E+03  0.00000000000E+00 0.  1.
          3    1    3    3  501    0 -0.11643829015E+03 -0.45977040932E+02 -0.33357998021E+03  0.35629673996E+03  0.00000000000E+00 0.  1.
         21    1    1    2  502  501 -0.67713917155E+01  0.11482444418E+02 -0.32715219490E+02  0.35326815054E+02  0.00000000000E+00 0.  1.
<mgrwt>
<rscale>  1 0.30000000E+03</rscale>
<asrwt>0</asrwt>
<pdfrwt beam="1">  1        1 0.70015152E-01 0.30000000E+03</pdfrwt>
<pdfrwt beam="2">0</pdfrwt>
<totfact> 0.56367611E+01</totfact>
</mgrwt>
</event>
<event>
 6    1  0.1950139E-004  0.3000000E+03  0.7818608E-02  0.1093470E+00
          1   -1    0    0  502    0  0.00000000000E+00  0.00000000000E+00  0.31062359545E+02  0.31062359545E+02  0.00000000000E+00 0.  1.
         13   -1    0    0    0    0 -0.00000000000E+00 -0.00000000000E+00 -0.10000000000E+04  0.10000000000E+04  0.00000000000E+00 0.  1.
    9000005    2    1    2  501    0  0.16244164724E+02  0.19211086094E+02 -0.88089721764E+03  0.93949787535E+03  0.32564307305E+03 0.  0.
         13    1    3    3    0    0 -0.13885969733E+03  0.67149343679E+02 -0.54532726669E+03  0.56672116397E+03  0.00000000000E+00 0.  1.
          3    1    3    3  501    0  0.15510386205E+03 -0.47938257585E+02 -0.33556995095E+03  0.37277671138E+03  0.00000000000E+00 0.  1.
         21    1    1    2  502  501 -0.16244164724E+02 -0.19211086094E+02 -0.88040422813E+02  0.91564484193E+02  0.00000000000E+00 0.  1.
<mgrwt>
<rscale>  1 0.30000000E+03</rscale>
<asrwt>0</asrwt>
<pdfrwt beam="1">  1        1 0.11295427E+00 0.30000000E+03</pdfrwt>
<pdfrwt beam="2">0</pdfrwt>
<totfact> 0.28538812E+01</totfact>
</mgrwt>
</event>
<event>
 6    1  0.1950139E-004  0.3000000E+03  0.7818608E-02  0.1093470E+00
          1   -1    0    0  502    0  0.00000000000E+00  0.00000000000E+00  0.42690658180E+02  0.42690658180E+02  0.00000000000E+00 0.  1.
         13   -1    0    0    0    0 -0.00000000000E+00 -0.00000000000E+00 -0.10000000000E+04  0.10000000000E+04  0.00000000000E+00 0.  1.
    9000005    2    1    2  501    0  0.62508362875E+02  0.38510490426E+02 -0.84676407909E+03  0.90998569062E+03  0.32507568073E+03 0.  0.
         13    1    3    3    0    0  0.88524901796E+02  0.13809129932E+02 -0.33074059573E+02  0.95505202602E+02  0.00000000000E+00 0.  1.
          1    1    3    3  501    0 -0.26016538920E+02  0.24701360494E+02 -0.81369001951E+03  0.81448048802E+03  0.00000000000E+00 0.  1.
         21    1    1    2  502  501 -0.62508362875E+02 -0.38510490426E+02 -0.11054526273E+03  0.13270496756E+03  0.00000000000E+00 0.  1.
<mgrwt>
<rscale>  1 0.30000000E+03</rscale>
<asrwt>0</asrwt>
<pdfrwt beam="1">  1        1 0.15523908E+00 0.30000000E+03</pdfrwt>
<pdfrwt beam="2">0</pdfrwt>
<totfact> 0.16903175E+01</totfact>
</mgrwt>
</event>
<event>
 6    1  0.1950139E-004  0.3000000E+03  0.7818608E-02  0.1093470E+00
          1   -1    0    0  502    0  0.00000000000E+00  0.00000000000E+00  0.29736702184E+02  0.29736702184E+02  0.00000000000E+00 0.  1.
         13   -1    0    0    0    0 -0.00000000000E+00 -0.00000000000E+00 -0.10000000000E+04  0.10000000000E+04  0.00000000000E+00 0.  1.
    9000005    2    1    2  501    0  0.82109091973E-01  0.15087979386E+02 -0.95391129536E+03  0.10074871663E+04  0.32381472624E+03 0.  0.
         13    1    3    3    0    0 -0.81144181099E+02 -0.63702128332E+02 -0.84213073800E+03  0.84842590671E+03  0.00000000000E+00 0.  1.
          1    1    3    3  501    0  0.81226290191E+02  0.78790107718E+02 -0.11178055736E+03  0.15906125957E+03  0.00000000000E+00 0.  1.
         21    1    1    2  502  501 -0.82109091973E-01 -0.15087979386E+02 -0.16352002453E+02  0.22249535907E+02  0.00000000000E+00 0. -1.
<mgrwt>
<rscale>  1 0.30000000E+03</rscale>
<asrwt>0</asrwt>
<pdfrwt beam="1">  1        1 0.10813369E+00 0.30000000E+03</pdfrwt>
<pdfrwt beam="2">0</pdfrwt>
<totfact> 0.30484708E+01</totfact>
</mgrwt>
</event>
<event>
 6    1  0.1950139E-004  0.3000000E+03  0.7818608E-02  0.1093470E+00
          1   -1    0    0  502    0  0.00000000000E+00  0.00000000000E+00  0.31945731627E+02  0.31945731627E+02  0.00000000000E+00 0.  1.
         13   -1    0    0    0    0 -0.00000000000E+00 -0.00000000000E+00 -0.10000000000E+04  0.10000000000E+04  0.00000000000E+00 0.  1.
    9000005    2    1    2  501    0  0.14516753797E+02  0.31231742422E+01 -0.85829920883E+03  0.92119076129E+03  0.33420711611E+03 0.  0.
         13    1    3    3    0    0 -0.12163831949E+03 -0.20007444349E+02 -0.12709079553E+03  0.17705436709E+03  0.00000000000E+00 0.  1.
          3    1    3    3  501    0  0.13615507329E+03  0.23130618591E+02 -0.73120841329E+03  0.74413639420E+03  0.00000000000E+00 0.  1.
         21    1    1    2  502  501 -0.14516753797E+02 -0.31231742422E+01 -0.10975505955E+03  0.11075497034E+03  0.00000000000E+00 0.  1.
<mgrwt>
<rscale>  1 0.30000000E+03</rscale>
<asrwt>0</asrwt>
<pdfrwt beam="1">  1        1 0.11616654E+00 0.30000000E+03</pdfrwt>
<pdfrwt beam="2">0</pdfrwt>
<totfact> 0.27338641E+01</totfact>
</mgrwt>
</event>
<event>
 6    1  0.1950139E-004  0.3000000E+03  0.7818608E-02  0.1093470E+00
          1   -1    0    0  502    0  0.00000000000E+00  0.00000000000E+00  0.30660922517E+02  0.30660922517E+02  0.00000000000E+00 0.  1.
         13   -1    0    0    0    0 -0.00000000000E+00 -0.00000000000E+00 -0.10000000000E+04  0.10000000000E+04  0.00000000000E+00 0.  1.
    9000005    2    1    2  501    0  0.10099743132E+02  0.25584719188E+01 -0.96994979672E+03  0.10202242771E+04  0.31614303219E+03 0.  0.
         13    1    3    3    0    0  0.43470641519E+02 -0.84797766922E+02 -0.77332370000E+02  0.12272185379E+03  0.00000000000E+00 0.  1.
          3    1    3    3  501    0 -0.33370898386E+02  0.87356238841E+02 -0.89261742672E+03  0.89750242329E+03  0.00000000000E+00 0.  1.
         21    1    1    2  502  501 -0.10099743132E+02 -0.25584719188E+01  0.61071923779E+00  0.10436645433E+02  0.00000000000E+00 0.  1.
<mgrwt>
<rscale>  1 0.30000000E+03</rscale>
<asrwt>0</asrwt>
<pdfrwt beam="1">  1        1 0.11149450E+00 0.30000000E+03</pdfrwt>
<pdfrwt beam="2">0</pdfrwt>
<totfact> 0.29109017E+01</totfact>
</mgrwt>
</event>
<event>
 6    1  0.1950139E-004  0.3000000E+03  0.7818608E-02  0.1093470E+00
          1   -1    0    0  502    0  0.00000000000E+00  0.00000000000E+00  0.30375846984E+02  0.30375846984E+02  0.00000000000E+00 0.  1.
         13   -1    0    0    0    0 -0.00000000000E+00 -0.00000000000E+00 -0.10000000000E+04  0.10000000000E+04  0.00000000000E+00 0.  1.
    9000005    2    1    2  501    0  0.95125580684E+01 -0.13130919328E+02 -0.90855008139E+03  0.96718603746E+03  0.33124412576E+03 0.  0.
         13    1    3    3    0    0  0.10571114147E+03  0.10337697980E+03 -0.24092146654E+03  0.28267436818E+03  0.00000000000E+00 0.  1.
          1    1    3    3  501    0 -0.96198583406E+02 -0.11650789913E+03 -0.66762861486E+03  0.68451166928E+03  0.00000000000E+00 0.  1.
         21    1    1    2  502  501 -0.95125580684E+01  0.13130919328E+02 -0.61074071622E+02  0.63189809525E+02  0.00000000000E+00 0. -1.
<mgrwt>
<rscale>  1 0.30000000E+03</rscale>
<asrwt>0</asrwt>
<pdfrwt beam="1">  1        1 0.11045786E+00 0.30000000E+03</pdfrwt>
<pdfrwt beam="2">0</pdfrwt>
<totfact> 0.29523782E+01</totfact>
</mgrwt>
</event>
<event>
 6    1  0.1950139E-004  0.3000000E+03  0.7818608E-02  0.1093470E+00
          1   -1    0    0  502    0  0.00000000000E+00  0.00000000000E+00  0.55390399765E+02  0.55390399765E+02  0.00000000000E+00 0.  1.
         13   -1    0    0    0    0 -0.00000000000E+00 -0.00000000000E+00 -0.10000000000E+04  0.10000000000E+04  0.00000000000E+00 0.  1.
    9000005    2    1    2  501    0 -0.22165716046E+01  0.10842449058E+02 -0.97062178559E+03  0.10271219425E+04  0.33578320708E+03 0.  0.
         13    1    3    3    0    0 -0.28649990391E+02  0.71162208745E+02 -0.95674863783E+03  0.95981916937E+03  0.00000000000E+00 0.  1.
          1    1    3    3  501    0  0.26433418787E+02 -0.60319759688E+02 -0.13873147753E+02  0.67302773094E+02  0.00000000000E+00 0.  1.
         21    1    1    2  502  501  0.22165716046E+01 -0.10842449058E+02  0.26012185350E+02  0.28268457297E+02  0.00000000000E+00 0.  1.
<mgrwt>
<rscale>  1 0.30000000E+03</rscale>
<asrwt>0</asrwt>
<pdfrwt beam="1">  1        1 0.20142006E+00 0.30000000E+03</pdfrwt>
<pdfrwt beam="2">0</pdfrwt>
<totfact> 0.10085492E+01</totfact>
</mgrwt>
</event>
<event>
 6    1  0.1950139E-004  0.3000000E+03  0.7818608E-02  0.1093470E+00
          1   -1    0    0  502    0  0.00000000000E+00  0.00000000000E+00  0.42149781780E+02  0.42149781780E+02  0.00000000000E+00 0.  1.
         13   -1    0    0    0    0 -0.00000000000E+00 -0.00000000000E+00 -0.10000000000E+04  0.10000000000E+04  0.00000000000E+00 0.  1.
    9000005    2    1    2  501    0 -0.46788146493E+02 -0.34460803516E+02 -0.92215667215E+03  0.97395369053E+03  0.30795484356E+03 0.  0.
         13    1    3    3    0    0  0.88444257055E+02 -0.12066357908E+03 -0.51703866660E+03  0.53824814787E+03  0.00000000000E+00 0.  1.
          1    1    3    3  501    0 -0.13523240355E+03  0.86202775568E+02 -0.40511800555E+03  0.43570554266E+03  0.00000000000E+00 0.  1.
         21    1    1    2  502  501  0.46788146493E+02  0.34460803516E+02 -0.35693546074E+02  0.68196091255E+02  0.00000000000E+00 0.  1.
<mgrwt>
<rscale>  1 0.30000000E+03</rscale>
<asrwt>0</asrwt>
<pdfrwt beam="1">  1        1 0.15327226E+00 0.30000000E+03</pdfrwt>
<pdfrwt beam="2">0</pdfrwt>
<totfact> 0.17292589E+01</totfact>
</mgrwt>
</event>
<event>
 6    1  0.1950139E-004  0.3000000E+03  0.7818608E-02  0.1093470E+00
          3   -1    0    0  502    0  0.00000000000E+00  0.00000000000E+00  0.46038254239E+02  0.46038254239E+02  0.00000000000E+00 0.  1.
         13   -1    0    0    0    0 -0.00000000000E+00 -0.00000000000E+00 -0.10000000000E+04  0.10000000000E+04  0.00000000000E+00 0.  1.
    9000005    2    1    2  501    0  0.20971702665E+02  0.19505347019E+02 -0.96214644019E+03  0.10162513427E+04  0.32591524716E+03 0.  0.
         13    1    3    3    0    0  0.11753769080E+03  0.12231420307E+03 -0.67965283906E+03  0.70050257293E+03  0.00000000000E+00 0.  1.
          3    1    3    3  501    0 -0.96565988133E+02 -0.10280885606E+03 -0.28249360113E+03  0.31574876979E+03  0.00000000000E+00 0.  1.
         21    1    1    2  502  501 -0.20971702665E+02 -0.19505347019E+02  0.81846944282E+01  0.29786911520E+02  0.00000000000E+00 0.  1.
<mgrwt>
<rscale>  1 0.30000000E+03</rscale>
<asrwt>0</asrwt>
<pdfrwt beam="1">  1        3 0.16741219E+00 0.30000000E+03</pdfrwt>
<pdfrwt beam="2">0</pdfrwt>
<totfact> 0.54061067E-01</totfact>
</mgrwt>
</event>
<event>
 6    1  0.1950139E-004  0.3000000E+03  0.7818608E-02  0.1093470E+00
          1   -1    0    0  502    0  0.00000000000E+00  0.00000000000E+00  0.29624742913E+02  0.29624742913E+02  0.00000000000E+00 0.  1.
         13   -1    0    0    0    0 -0.00000000000E+00 -0.00000000000E+00 -0.10000000000E+04  0.10000000000E+04  0.00000000000E+00 0.  1.
    9000005    2    1    2  501    0 -0.46493354001E+01  0.86082077262E+01 -0.96327622835E+03  0.10175369901E+04  0.32769607335E+03 0.  0.
         13    1    3    3    0    0 -0.15867316777E+03 -0.35283662279E+02 -0.57481365909E+03  0.59735488084E+03  0.00000000000E+00 0.  1.
          3    1    3    3  501    0  0.15402383237E+03  0.43891870006E+02 -0.38846256926E+03  0.42018210922E+03  0.00000000000E+00 0.  1.
         21    1    1    2  502  501  0.46493354001E+01 -0.86082077262E+01 -0.70990287394E+01  0.12087752850E+02  0.00000000000E+00 0. -1.
<mgrwt>
<rscale>  1 0.30000000E+03</rscale>
<asrwt>0</asrwt>
<pdfrwt beam="1">  1        1 0.10772657E+00 0.30000000E+03</pdfrwt>
<pdfrwt beam="2">0</pdfrwt>
<totfact> 0.30657613E+01</totfact>
</mgrwt>
</event>
<event>
 6    1  0.1950139E-004  0.3000000E+03  0.7818608E-02  0.1093470E+00
          1   -1    0    0  502    0  0.00000000000E+00  0.00000000000E+00  0.25940687960E+02  0.25940687960E+02  0.00000000000E+00 0.  1.
         13   -1    0    0    0    0 -0.00000000000E+00 -0.00000000000E+00 -0.10000000000E+04  0.10000000000E+04  0.00000000000E+00 0.  1.
    9000005    2    1    2  501    0  0.69116321952E+01 -0.43519220720E+01 -0.94210296007E+03  0.99295708118E+03  0.31359060541E+03 0.  0.
         13    1    3    3    0    0 -0.89734883369E+02 -0.11031359078E+03 -0.67469437369E+03  0.68951717563E+03  0.00000000000E+00 0.  1.
          3    1    3    3  501    0  0.96646515564E+02  0.10596166871E+03 -0.26740858638E+03  0.30343990554E+03  0.00000000000E+00 0.  1.
         21    1    1    2  502  501 -0.69116321952E+01  0.43519220720E+01 -0.31956351968E+02  0.32983606783E+02  0.00000000000E+00 0. -1.
<mgrwt>
<rscale>  1 0.30000000E+03</rscale>
<asrwt>0</asrwt>
<pdfrwt beam="1">  1        1 0.94329973E-01 0.30000000E+03</pdfrwt>
<pdfrwt beam="2">0</pdfrwt>
<totfact> 0.37248336E+01</totfact>
</mgrwt>
</event>
<event>
 6    1  0.1950139E-004  0.3000000E+03  0.7818608E-02  0.1093470E+00
          1   -1    0    0  502    0  0.00000000000E+00  0.00000000000E+00  0.31076203951E+02  0.31076203951E+02  0.00000000000E+00 0.  1.
         13   -1    0    0    0    0 -0.00000000000E+00 -0.00000000000E+00 -0.10000000000E+04  0.10000000000E+04  0.00000000000E+00 0.  1.
    9000005    2    1    2  501    0 -0.33298091309E+00  0.12636539307E+02 -0.96223247515E+03  0.10167735197E+04  0.32829447313E+03 0.  0.
         13    1    3    3    0    0  0.64878051664E+02 -0.13319772341E+03 -0.64240677420E+03  0.65927024705E+03  0.00000000000E+00 0.  1.
          1    1    3    3  501    0 -0.65211032577E+02  0.14583426272E+03 -0.31982570095E+03  0.35750327263E+03  0.00000000000E+00 0.  1.
         21    1    1    2  502  501  0.33298091309E+00 -0.12636539307E+02 -0.66913209002E+01  0.14302684270E+02  0.00000000000E+00 0.  1.
<mgrwt>
<rscale>  1 0.30000000E+03</rscale>
<asrwt>0</asrwt>
<pdfrwt beam="1">  1        1 0.11300462E+00 0.30000000E+03</pdfrwt>
<pdfrwt beam="2">0</pdfrwt>
<totfact> 0.28519433E+01</totfact>
</mgrwt>
</event>
<event>
 6    1  0.1950139E-004  0.3000000E+03  0.7818608E-02  0.1093470E+00
          1   -1    0    0  502    0  0.00000000000E+00  0.00000000000E+00  0.39399462684E+02  0.39399462684E+02  0.00000000000E+00 0.  1.
         13   -1    0    0    0    0 -0.00000000000E+00 -0.00000000000E+00 -0.10000000000E+04  0.10000000000E+04  0.00000000000E+00 0.  1.
    9000005    2    1    2  501    0 -0.91942763094E+01  0.10881464784E+02 -0.96973298459E+03  0.10224778024E+04  0.32384541693E+03 0.  0.
         13    1    3    3    0    0 -0.15762076719E+03  0.22086004740E+02 -0.34025063132E+03  0.37563624688E+03  0.00000000000E+00 0.  1.
          3    1    3    3  501    0  0.14842649088E+03 -0.11204539956E+02 -0.62948235327E+03  0.64684155555E+03  0.00000000000E+00 0.  1.
         21    1    1    2  502  501  0.91942763094E+01 -0.10881464784E+02  0.91324472719E+01  0.16921660257E+02  0.00000000000E+00 0.  1.
<mgrwt>
<rscale>  1 0.30000000E+03</rscale>
<asrwt>0</asrwt>
<pdfrwt beam="1">  1        1 0.14327108E+00 0.30000000E+03</pdfrwt>
<pdfrwt beam="2">0</pdfrwt>
<totfact> 0.19452815E+01</totfact>
</mgrwt>
</event>
<event>
 6    1  0.1950139E-004  0.3000000E+03  0.7818608E-02  0.1093470E+00
          1   -1    0    0  502    0  0.00000000000E+00  0.00000000000E+00  0.61608965627E+02  0.61608965627E+02  0.00000000000E+00 0.  1.
         13   -1    0    0    0    0 -0.00000000000E+00 -0.00000000000E+00 -0.10000000000E+04  0.10000000000E+04  0.00000000000E+00 0.  1.
    9000005    2    1    2  501    0 -0.31184501626E+02  0.27475087099E+01 -0.96662830522E+03  0.10194501538E+04  0.32237914601E+03 0.  0.
         13    1    3    3    0    0 -0.12917993626E+03 -0.90293783560E+01 -0.87578618744E+03  0.88530809989E+03  0.00000000000E+00 0.  1.
          1    1    3    3  501    0  0.97995434637E+02  0.11776887066E+02 -0.90842117776E+02  0.13414205396E+03  0.00000000000E+00 0.  1.
         21    1    1    2  502  501  0.31184501626E+02 -0.27475087099E+01  0.28237270847E+02  0.42158811780E+02  0.00000000000E+00 0.  1.
<mgrwt>
<rscale>  1 0.30000000E+03</rscale>
<asrwt>0</asrwt>
<pdfrwt beam="1">  1        1 0.22403307E+00 0.30000000E+03</pdfrwt>
<pdfrwt beam="2">0</pdfrwt>
<totfact> 0.78922620E+00</totfact>
</mgrwt>
</event>
<event>
 6    1  0.1950139E-004  0.3000000E+03  0.7818608E-02  0.1093470E+00
          1   -1    0    0  502    0  0.00000000000E+00  0.00000000000E+00  0.35625664442E+02  0.35625664442E+02  0.00000000000E+00 0.  1.
         13   -1    0    0    0    0 -0.00000000000E+00 -0.00000000000E+00 -0.10000000000E+04  0.10000000000E+04  0.00000000000E+00 0.  1.
    9000005    2    1    2  501    0  0.40563623959E+02  0.13592108159E+02 -0.75693038972E+03  0.82381644920E+03  0.32233487883E+03 0.  0.
         13    1    3    3    0    0 -0.12407763818E+03  0.39994401436E+02 -0.17345519461E+03  0.21698275733E+03  0.00000000000E+00 0.  1.
          1    1    3    3  501    0  0.16464126214E+03 -0.26402293277E+02 -0.58347519511E+03  0.60683369188E+03  0.00000000000E+00 0.  1.
         21    1    1    2  502  501 -0.40563623959E+02 -0.13592108159E+02 -0.20744394584E+03  0.21180921524E+03  0.00000000000E+00 0.  1.
<mgrwt>
<rscale>  1 0.30000000E+03</rscale>
<asrwt>0</asrwt>
<pdfrwt beam="1">  1        1 0.12954814E+00 0.30000000E+03</pdfrwt>
<pdfrwt beam="2">0</pdfrwt>
<totfact> 0.23009872E+01</totfact>
</mgrwt>
</event>
<event>
 6    1  0.1950139E-004  0.3000000E+03  0.7818608E-02  0.1093470E+00
          1   -1    0    0  502    0  0.00000000000E+00  0.00000000000E+00  0.28855238641E+02  0.28855238641E+02  0.00000000000E+00 0.  1.
         13   -1    0    0    0    0 -0.00000000000E+00 -0.00000000000E+00 -0.10000000000E+04  0.10000000000E+04  0.00000000000E+00 0.  1.
    9000005    2    1    2  501    0  0.27221331458E+01  0.13730312282E+02 -0.93874893103E+03  0.99356471149E+03  0.32515434629E+03 0.  0.
         13    1    3    3    0    0 -0.23477687566E+01  0.77159455095E+02 -0.92531650307E+03  0.92853094961E+03  0.00000000000E+00 0.  1.
          3    1    3    3  501    0  0.50699019024E+01 -0.63429142813E+02 -0.13432427965E+02  0.65033761880E+02  0.00000000000E+00 0.  1.
         21    1    1    2  502  501 -0.27221331458E+01 -0.13730312282E+02 -0.32395830325E+02  0.35290527152E+02  0.00000000000E+00 0. -1.
<mgrwt>
<rscale>  1 0.30000000E+03</rscale>
<asrwt>0</asrwt>
<pdfrwt beam="1">  1        1 0.10492836E+00 0.30000000E+03</pdfrwt>
<pdfrwt beam="2">0</pdfrwt>
<totfact> 0.31885027E+01</totfact>
</mgrwt>
</event>
<event>
 6    1  0.1950139E-004  0.3000000E+03  0.7818608E-02  0.1093470E+00
          1   -1    0    0  502    0  0.00000000000E+00  0.00000000000E+00  0.33874683622E+02  0.33874683622E+02  0.00000000000E+00 0.  1.
         13   -1    0    0    0    0 -0.00000000000E+00 -0.00000000000E+00 -0.10000000000E+04  0.10000000000E+04  0.00000000000E+00 0.  1.
    9000005    2    1    2  501    0 -0.17996078325E+02 -0.16821817124E+02 -0.94591414674E+03  0.10020105385E+04  0.32964331313E+03 0.  0.
         13    1    3    3    0    0  0.11414129331E+01  0.96526303274E+02 -0.71640892117E+02  0.12021250963E+03  0.00000000000E+00 0.  1.
          1    1    3    3  501    0 -0.19137491258E+02 -0.11334812040E+03 -0.87427325463E+03  0.88179802887E+03  0.00000000000E+00 0.  1.
         21    1    1    2  502  501  0.17996078325E+02  0.16821817124E+02 -0.20211169634E+02  0.31864145122E+02  0.00000000000E+00 0. -1.
<mgrwt>
<rscale>  1 0.30000000E+03</rscale>
<asrwt>0</asrwt>
<pdfrwt beam="1">  1        1 0.12318093E+00 0.30000000E+03</pdfrwt>
<pdfrwt beam="2">0</pdfrwt>
<totfact> 0.24948365E+01</totfact>
</mgrwt>
</event>
<event>
 6    1  0.1950139E-004  0.3000000E+03  0.7818608E-02  0.1093470E+00
          1   -1    0    0  502    0  0.00000000000E+00  0.00000000000E+00  0.82122193910E+02  0.82122193910E+02  0.00000000000E+00 0.  1.
         13   -1    0    0    0    0 -0.00000000000E+00 -0.00000000000E+00 -0.10000000000E+04  0.10000000000E+04  0.00000000000E+00 0.  1.
    9000005    2    1    2  501    0 -0.32288218919E+01 -0.14789536722E+02 -0.97413220875E+03  0.10238666061E+04  0.31486522729E+03 0.  0.
         13    1    3    3    0    0  0.13713430515E+03  0.28867031627E+01 -0.24180434330E+03  0.27799908479E+03  0.00000000000E+00 0.  1.
          1    1    3    3  501    0 -0.14036312705E+03 -0.17676239885E+02 -0.73232786545E+03  0.74586752135E+03  0.00000000000E+00 0.  1.
         21    1    1    2  502  501  0.32288218919E+01  0.14789536722E+02  0.56254402662E+02  0.58255587768E+02  0.00000000000E+00 0. -1.
<mgrwt>
<rscale>  1 0.30000000E+03</rscale>
<asrwt>0</asrwt>
<pdfrwt beam="1">  1        1 0.29862679E+00 0.30000000E+03</pdfrwt>
<pdfrwt beam="2">0</pdfrwt>
<totfact> 0.35268831E+00</totfact>
</mgrwt>
</event>
<event>
 6    1  0.1950139E-004  0.3000000E+03  0.7818608E-02  0.1093470E+00
          1   -1    0    0  502    0  0.00000000000E+00  0.00000000000E+00  0.36458560260E+02  0.36458560260E+02  0.00000000000E+00 0.  1.
         13   -1    0    0    0    0 -0.00000000000E+00 -0.00000000000E+00 -0.10000000000E+04  0.10000000000E+04  0.00000000000E+00 0.  1.
    9000005    2    1    2  501    0  0.14420830311E+02  0.12084959575E+02 -0.96779189148E+03  0.10171693681E+04  0.31250339448E+03 0.  0.
         13    1    3    3    0    0  0.70696302079E+02  0.13381237505E+03 -0.71674643307E+03  0.73254977180E+03  0.00000000000E+00 0.  1.
          1    1    3    3  501    0 -0.56275471768E+02 -0.12172741548E+03 -0.25104545841E+03  0.28461959628E+03  0.00000000000E+00 0.  1.
         21    1    1    2  502  501 -0.14420830311E+02 -0.12084959575E+02  0.42504517391E+01  0.19289192175E+02  0.00000000000E+00 0. -1.
<mgrwt>
<rscale>  1 0.30000000E+03</rscale>
<asrwt>0</asrwt>
<pdfrwt beam="1">  1        1 0.13257686E+00 0.30000000E+03</pdfrwt>
<pdfrwt beam="2">0</pdfrwt>
<totfact> 0.22155929E+01</totfact>
</mgrwt>
</event>
<event>
 6    1  0.1950139E-004  0.3000000E+03  0.7818608E-02  0.1093470E+00
          1   -1    0    0  502    0  0.00000000000E+00  0.00000000000E+00  0.16269808884E+02  0.16269808884E+02  0.00000000000E+00 0.  1.
         13   -1    0    0    0    0 -0.00000000000E+00 -0.00000000000E+00 -0.10000000000E+04  0.10000000000E+04  0.00000000000E+00 0.  1.
    9000005    2    1    2  501    0 -0.16902910713E+02  0.30755428191E+02 -0.89797950731E+03  0.92361569658E+03  0.21323028552E+03 0.  0.
         13    1    3    3    0    0  0.66217600404E+01  0.34255358945E+02 -0.11381861184E+02  0.36699101985E+02  0.00000000000E+00 0.  1.
          3    1    3    3  501    0 -0.23524670754E+02 -0.34999307543E+01 -0.88659764613E+03  0.88691659460E+03  0.00000000000E+00 0.  1.
         21    1    1    2  502  501  0.16902910713E+02 -0.30755428191E+02 -0.85750683802E+02  0.92654112301E+02  0.00000000000E+00 0. -1.
<mgrwt>
<rscale>  1 0.30000000E+03</rscale>
<asrwt>0</asrwt>
<pdfrwt beam="1">  1        1 0.59163066E-01 0.30000000E+03</pdfrwt>
<pdfrwt beam="2">0</pdfrwt>
<totfact> 0.70650247E+01</totfact>
</mgrwt>
</event>
<event>
 6    1  0.1950139E-004  0.3000000E+03  0.7818608E-02  0.1093470E+00
          1   -1    0    0  502    0  0.00000000000E+00  0.00000000000E+00  0.46099705384E+02  0.46099705384E+02  0.00000000000E+00 0.  1.
         13   -1    0    0    0    0 -0.00000000000E+00 -0.00000000000E+00 -0.10000000000E+04  0.10000000000E+04  0.00000000000E+00 0.  1.
    9000005    2    1    2  501    0  0.54759576948E+02  0.25856195159E+02 -0.92307809123E+03  0.97815000106E+03  0.31786334795E+03 0.  0.
         13    1    3    3    0    0 -0.10262977351E+03  0.98666774787E+02 -0.52456052896E+03  0.54353633862E+03  0.00000000000E+00 0.  1.
          1    1    3    3  501    0  0.15738935046E+03 -0.72810579628E+02 -0.39851756227E+03  0.43461366244E+03  0.00000000000E+00 0.  1.
         21    1    1    2  502  501 -0.54759576948E+02 -0.25856195159E+02 -0.30822203383E+02  0.67949704319E+02  0.00000000000E+00 0.  1.
<mgrwt>
<rscale>  1 0.30000000E+03</rscale>
<asrwt>0</asrwt>
<pdfrwt beam="1">  1        1 0.16763565E+00 0.30000000E+03</pdfrwt>
<pdfrwt beam="2">0</pdfrwt>
<totfact> 0.14673111E+01</totfact>
</mgrwt>
</event>
<event>
 6    1  0.1950139E-004  0.3000000E+03  0.7818608E-02  0.1093470E+00
          1   -1    0    0  502    0  0.00000000000E+00  0.00000000000E+00  0.10506049464E+02  0.10506049464E+02  0.00000000000E+00 0.  1.
         13   -1    0    0    0    0 -0.00000000000E+00 -0.00000000000E+00 -0.10000000000E+04  0.10000000000E+04  0.00000000000E+00 0.  1.
    9000005    2    1    2  501    0 -0.94409968520E+01  0.75604902040E+01 -0.97266483422E+03  0.98978136395E+03  0.18287694021E+03 0.  0.
         13    1    3    3    0    0 -0.48254499780E+02  0.45532225845E+02 -0.13563144823E+03  0.15098864225E+03  0.00000000000E+00 0.  1.
          1    1    3    3  501    0  0.38813502929E+02 -0.37971735641E+02 -0.83703338598E+03  0.83879272169E+03  0.00000000000E+00 0.  1.
         21    1    1    2  502  501  0.94409968520E+01 -0.75604902040E+01 -0.16829116320E+02  0.20724685517E+02  0.00000000000E+00 0.  1.
<mgrwt>
<rscale>  1 0.30000000E+03</rscale>
<asrwt>0</asrwt>
<pdfrwt beam="1">  1        1 0.38203897E-01 0.30000000E+03</pdfrwt>
<pdfrwt beam="2">0</pdfrwt>
<totfact> 0.12551454E+02</totfact>
</mgrwt>
</event>
<event>
 6    1  0.1950139E-004  0.3000000E+03  0.7818608E-02  0.1093470E+00
          1   -1    0    0  502    0  0.00000000000E+00  0.00000000000E+00  0.73638811643E+02  0.73638811643E+02  0.00000000000E+00 0.  1.
         13   -1    0    0    0    0 -0.00000000000E+00 -0.00000000000E+00 -0.10000000000E+04  0.10000000000E+04  0.00000000000E+00 0.  1.
    9000005    2    1    2  501    0 -0.15253185426E+03 -0.79575939864E+02 -0.61934763341E+03  0.72170754038E+03  0.32813409769E+03 0.  0.
         13    1    3    3    0    0 -0.20575676191E+03  0.65189846900E+01 -0.18848230715E+03  0.27911274127E+03  0.00000000000E+00 0.  1.
          1    1    3    3  501    0  0.53224907645E+02 -0.86094924554E+02 -0.43086532626E+03  0.44259479911E+03  0.00000000000E+00 0.  1.
         21    1    1    2  502  501  0.15253185426E+03  0.79575939864E+02 -0.30701355495E+03  0.35193127126E+03  0.00000000000E+00 0.  1.
<mgrwt>
<rscale>  1 0.30000000E+03</rscale>
<asrwt>0</asrwt>
<pdfrwt beam="1">  1        1 0.26777806E+00 0.30000000E+03</pdfrwt>
<pdfrwt beam="2">0</pdfrwt>
<totfact> 0.49250552E+00</totfact>
</mgrwt>
</event>
<event>
 6    1  0.1950139E-004  0.3000000E+03  0.7818608E-02  0.1093470E+00
          1   -1    0    0  502    0  0.00000000000E+00  0.00000000000E+00  0.49849882551E+02  0.49849882551E+02  0.00000000000E+00 0.  1.
         13   -1    0    0    0    0 -0.00000000000E+00 -0.00000000000E+00 -0.10000000000E+04  0.10000000000E+04  0.00000000000E+00 0.  1.
    9000005    2    1    2  501    0 -0.26970673093E+01 -0.21570149671E+02 -0.96961832919E+03  0.10206684364E+04  0.31801227540E+03 0.  0.
         13    1    3    3    0    0  0.93848526120E+02 -0.10044135993E+02 -0.74391881289E+02  0.12017729621E+03  0.00000000000E+00 0.  1.
          1    1    3    3  501    0 -0.96545593430E+02 -0.11526013678E+02 -0.89522644790E+03  0.90049114023E+03  0.00000000000E+00 0.  1.
         21    1    1    2  502  501  0.26970673093E+01  0.21570149671E+02  0.19468211742E+02  0.29181446115E+02  0.00000000000E+00 0.  1.
<mgrwt>
<rscale>  1 0.30000000E+03</rscale>
<asrwt>0</asrwt>
<pdfrwt beam="1">  1        1 0.18127268E+00 0.30000000E+03</pdfrwt>
<pdfrwt beam="2">0</pdfrwt>
<totfact> 0.12594779E+01</totfact>
</mgrwt>
</event>
<event>
 6    1  0.1950139E-004  0.3000000E+03  0.7818608E-02  0.1093470E+00
          1   -1    0    0  502    0  0.00000000000E+00  0.00000000000E+00  0.31050777837E+02  0.31050777837E+02  0.00000000000E+00 0.  1.
         13   -1    0    0    0    0 -0.00000000000E+00 -0.00000000000E+00 -0.10000000000E+04  0.10000000000E+04  0.00000000000E+00 0.  1.
    9000005    2    1    2  501    0  0.33536951186E+00  0.11780373897E+02 -0.97150542428E+03  0.10189915966E+04  0.30721685328E+03 0.  0.
         13    1    3    3    0    0 -0.11697852289E+03  0.10466124718E+03 -0.45952319610E+03  0.48559192665E+03  0.00000000000E+00 0.  1.
          3    1    3    3  501    0  0.11731389240E+03 -0.92880873282E+02 -0.51198222818E+03  0.53339966999E+03  0.00000000000E+00 0.  1.
         21    1    1    2  502  501 -0.33536951186E+00 -0.11780373897E+02  0.25562021152E+01  0.12059181196E+02  0.00000000000E+00 0.  1.
<mgrwt>
<rscale>  1 0.30000000E+03</rscale>
<asrwt>0</asrwt>
<pdfrwt beam="1">  1        1 0.11291216E+00 0.30000000E+03</pdfrwt>
<pdfrwt beam="2">0</pdfrwt>
<totfact> 0.28555038E+01</totfact>
</mgrwt>
</event>
<event>
 6    1  0.1950139E-004  0.3000000E+03  0.7818608E-02  0.1093470E+00
          1   -1    0    0  502    0  0.00000000000E+00  0.00000000000E+00  0.37304789748E+02  0.37304789748E+02  0.00000000000E+00 0.  1.
         13   -1    0    0    0    0 -0.00000000000E+00 -0.00000000000E+00 -0.10000000000E+04  0.10000000000E+04  0.00000000000E+00 0.  1.
    9000005    2    1    2  501    0 -0.34357782751E+01 -0.26437292065E+02 -0.94881075827E+03  0.10072462969E+04  0.33703488347E+03 0.  0.
         13    1    3    3    0    0  0.64145147693E+02  0.14238076557E+03 -0.42731644304E+03  0.45495738797E+03  0.00000000000E+00 0.  1.
          3    1    3    3  501    0 -0.67580925968E+02 -0.16881805763E+03 -0.52149431523E+03  0.55228890895E+03  0.00000000000E+00 0.  1.
         21    1    1    2  502  501  0.34357782751E+01  0.26437292065E+02 -0.13884451986E+02  0.30058492827E+02  0.00000000000E+00 0.  1.
<mgrwt>
<rscale>  1 0.30000000E+03</rscale>
<asrwt>0</asrwt>
<pdfrwt beam="1">  1        1 0.13565407E+00 0.30000000E+03</pdfrwt>
<pdfrwt beam="2">0</pdfrwt>
<totfact> 0.21330531E+01</totfact>
</mgrwt>
</event>
<event>
 6    1  0.1950139E-004  0.3000000E+03  0.7818608E-02  0.1093470E+00
          1   -1    0    0  502    0  0.00000000000E+00  0.00000000000E+00  0.56843351470E+02  0.56843351470E+02  0.00000000000E+00 0.  1.
         13   -1    0    0    0    0 -0.00000000000E+00 -0.00000000000E+00 -0.10000000000E+04  0.10000000000E+04  0.00000000000E+00 0.  1.
    9000005    2    1    2  501    0 -0.79434435225E+00  0.19922344269E+02 -0.95321397384E+03  0.10345121944E+04  0.40149853005E+03 0.  0.
         13    1    3    3    0    0 -0.12934949598E+03 -0.64217815111E+02 -0.12149946443E+03  0.18872556728E+03  0.00000000000E+00 0.  1.
          3    1    3    3  501    0  0.12855515163E+03  0.84140159381E+02 -0.83171450941E+03  0.84578662711E+03  0.00000000000E+00 0.  1.
         21    1    1    2  502  501  0.79434435225E+00 -0.19922344269E+02  0.10057325310E+02  0.22331157080E+02  0.00000000000E+00 0.  1.
<mgrwt>
<rscale>  1 0.30000000E+03</rscale>
<asrwt>0</asrwt>
<pdfrwt beam="1">  1        1 0.20670353E+00 0.30000000E+03</pdfrwt>
<pdfrwt beam="2">0</pdfrwt>
<totfact> 0.95203858E+00</totfact>
</mgrwt>
</event>
<event>
 6    1  0.1950139E-004  0.3000000E+03  0.7818608E-02  0.1093470E+00
          1   -1    0    0  502    0  0.00000000000E+00  0.00000000000E+00  0.30862590190E+02  0.30862590190E+02  0.00000000000E+00 0.  1.
         13   -1    0    0    0    0 -0.00000000000E+00 -0.00000000000E+00 -0.10000000000E+04  0.10000000000E+04  0.00000000000E+00 0.  1.
    9000005    2    1    2  501    0  0.65296114661E+01  0.86957164142E+01 -0.97116403155E+03  0.10198010123E+04  0.31099240697E+03 0.  0.
         13    1    3    3    0    0  0.87315363827E+02  0.39722351919E+02 -0.90702816000E+03  0.91208657540E+03  0.00000000000E+00 0.  1.
          3    1    3    3  501    0 -0.80785752361E+02 -0.31026635505E+02 -0.64135871554E+02  0.10771443689E+03  0.00000000000E+00 0.  1.
         21    1    1    2  502  501 -0.65296114661E+01 -0.86957164142E+01  0.20266217399E+01  0.11061577895E+02  0.00000000000E+00 0. -1.
<mgrwt>
<rscale>  1 0.30000000E+03</rscale>
<asrwt>0</asrwt>
<pdfrwt beam="1">  1        1 0.11222784E+00 0.30000000E+03</pdfrwt>
<pdfrwt beam="2">0</pdfrwt>
<totfact> 0.28820558E+01</totfact>
</mgrwt>
</event>
<event>
 6    1  0.1950139E-004  0.3000000E+03  0.7818608E-02  0.1093470E+00
          1   -1    0    0  502    0  0.00000000000E+00  0.00000000000E+00  0.43077604727E+02  0.43077604727E+02  0.00000000000E+00 0.  1.
         13   -1    0    0    0    0 -0.00000000000E+00 -0.00000000000E+00 -0.10000000000E+04  0.10000000000E+04  0.00000000000E+00 0.  1.
    9000005    2    1    2  501    0  0.39729537920E+02  0.15266653343E+02 -0.92913137632E+03  0.99224604345E+03  0.34562347922E+03 0.  0.
         13    1    3    3    0    0 -0.67769546298E+02  0.53398317555E+02 -0.38737930499E+02  0.94576524479E+02  0.00000000000E+00 0.  1.
          1    1    3    3  501    0  0.10749908422E+03 -0.38131664213E+02 -0.89039344582E+03  0.89766951897E+03  0.00000000000E+00 0.  1.
         21    1    1    2  502  501 -0.39729537920E+02 -0.15266653343E+02 -0.27791018950E+02  0.50831561278E+02  0.00000000000E+00 0.  1.
<mgrwt>
<rscale>  1 0.30000000E+03</rscale>
<asrwt>0</asrwt>
<pdfrwt beam="1">  1        1 0.15664617E+00 0.30000000E+03</pdfrwt>
<pdfrwt beam="2">0</pdfrwt>
<totfact> 0.16631038E+01</totfact>
</mgrwt>
</event>
<event>
 6    1  0.1950139E-004  0.3000000E+03  0.7818608E-02  0.1093470E+00
          1   -1    0    0  502    0  0.00000000000E+00  0.00000000000E+00  0.43404239579E+02  0.43404239579E+02  0.00000000000E+00 0.  1.
         13   -1    0    0    0    0 -0.00000000000E+00 -0.00000000000E+00 -0.10000000000E+04  0.10000000000E+04  0.00000000000E+00 0.  1.
    9000005    2    1    2  501    0 -0.82720647306E+01  0.80218457599E+01 -0.97321751662E+03  0.10231790117E+04  0.31561080181E+03 0.  0.
         13    1    3    3    0    0  0.23106452652E-01 -0.15360216890E+03 -0.49908793395E+03  0.52218999668E+03  0.00000000000E+00 0.  1.
          3    1    3    3  501    0 -0.82951711832E+01  0.16162401466E+03 -0.47412958268E+03  0.50098901500E+03  0.00000000000E+00 0.  1.
         21    1    1    2  502  501  0.82720647306E+01 -0.80218457599E+01  0.16621756202E+02  0.20225227898E+02  0.00000000000E+00 0.  1.
<mgrwt>
<rscale>  1 0.30000000E+03</rscale>
<asrwt>0</asrwt>
<pdfrwt beam="1">  1        1 0.15783393E+00 0.30000000E+03</pdfrwt>
<pdfrwt beam="2">0</pdfrwt>
<totfact> 0.16405367E+01</totfact>
</mgrwt>
</event>
<event>
 6    1  0.1950139E-004  0.3000000E+03  0.7818608E-02  0.1093470E+00
          1   -1    0    0  502    0  0.00000000000E+00  0.00000000000E+00  0.31312364602E+02  0.31312364602E+02  0.00000000000E+00 0.  1.
         13   -1    0    0    0    0 -0.00000000000E+00 -0.00000000000E+00 -0.10000000000E+04  0.10000000000E+04  0.00000000000E+00 0.  1.
    9000005    2    1    2  501    0  0.10892137230E+02 -0.33455080175E+02 -0.92248562559E+03  0.97323907682E+03  0.30818288434E+03 0.  0.
         13    1    3    3    0    0  0.14072263876E+03 -0.31819973912E+02 -0.70771097082E+03  0.72226739509E+03  0.00000000000E+00 0.  1.
          3    1    3    3  501    0 -0.12983050153E+03 -0.16351062628E+01 -0.21477465477E+03  0.25097168173E+03  0.00000000000E+00 0.  1.
         21    1    1    2  502  501 -0.10892137230E+02  0.33455080175E+02 -0.46202009812E+02  0.58073287780E+02  0.00000000000E+00 0.  1.
<mgrwt>
<rscale>  1 0.30000000E+03</rscale>
<asrwt>0</asrwt>
<pdfrwt beam="1">  1        1 0.11386338E+00 0.30000000E+03</pdfrwt>
<pdfrwt beam="2">0</pdfrwt>
<totfact> 0.28191724E+01</totfact>
</mgrwt>
</event>
<event>
 6    1  0.1950139E-004  0.3000000E+03  0.7818608E-02  0.1093470E+00
          1   -1    0    0  502    0  0.00000000000E+00  0.00000000000E+00  0.34393533275E+02  0.34393533275E+02  0.00000000000E+00 0.  1.
         13   -1    0    0    0    0 -0.00000000000E+00 -0.00000000000E+00 -0.10000000000E+04  0.10000000000E+04  0.00000000000E+00 0.  1.
    9000005    2    1    2  501    0 -0.12114581093E+02 -0.17148030482E+02 -0.95972251811E+03  0.10125889724E+04  0.32222398606E+03 0.  0.
         13    1    3    3    0    0  0.14344033740E+02  0.31706875045E+02 -0.95629055011E+03  0.95692355675E+03  0.00000000000E+00 0.  1.
          1    1    3    3  501    0 -0.26458614834E+02 -0.48854905526E+02 -0.34319679992E+01  0.55665415630E+02  0.00000000000E+00 0.  1.
         21    1    1    2  502  501  0.12114581093E+02  0.17148030482E+02 -0.58839486113E+01  0.21804560893E+02  0.00000000000E+00 0.  1.
<mgrwt>
<rscale>  1 0.30000000E+03</rscale>
<asrwt>0</asrwt>
<pdfrwt beam="1">  1        1 0.12506766E+00 0.30000000E+03</pdfrwt>
<pdfrwt beam="2">0</pdfrwt>
<totfact> 0.24352906E+01</totfact>
</mgrwt>
</event>
<event>
 6    1  0.1950139E-004  0.3000000E+03  0.7818608E-02  0.1093470E+00
          1   -1    0    0  502    0  0.00000000000E+00  0.00000000000E+00  0.34500233079E+02  0.34500233079E+02  0.00000000000E+00 0.  1.
         13   -1    0    0    0    0 -0.00000000000E+00 -0.00000000000E+00 -0.10000000000E+04  0.10000000000E+04  0.00000000000E+00 0.  1.
    9000005    2    1    2  501    0 -0.10357936378E+02  0.14956323690E+02 -0.92186330315E+03  0.98722318331E+03  0.35277001787E+03 0.  0.
         13    1    3    3    0    0 -0.16996150191E+03  0.35513023447E+02 -0.31832922844E+03  0.36260389497E+03  0.00000000000E+00 0.  1.
          3    1    3    3  501    0  0.15960356553E+03 -0.20556699756E+02 -0.60353407471E+03  0.62461928835E+03  0.00000000000E+00 0.  1.
         21    1    1    2  502  501  0.10357936378E+02 -0.14956323690E+02 -0.43636463769E+02  0.47277049766E+02  0.00000000000E+00 0.  1.
<mgrwt>
<rscale>  1 0.30000000E+03</rscale>
<asrwt>0</asrwt>
<pdfrwt beam="1">  1        1 0.12545566E+00 0.30000000E+03</pdfrwt>
<pdfrwt beam="2">0</pdfrwt>
<totfact> 0.24232704E+01</totfact>
</mgrwt>
</event>
<event>
 6    1  0.1950139E-004  0.3000000E+03  0.7818608E-02  0.1093470E+00
          1   -1    0    0  502    0  0.00000000000E+00  0.00000000000E+00  0.35365032551E+02  0.35365032551E+02  0.00000000000E+00 0.  1.
         13   -1    0    0    0    0 -0.00000000000E+00 -0.00000000000E+00 -0.10000000000E+04  0.10000000000E+04  0.00000000000E+00 0.  1.
    9000005    2    1    2  501    0 -0.78673712237E+01 -0.14703228262E+02 -0.96598649605E+03  0.10186346087E+04  0.32281337508E+03 0.  0.
         13    1    3    3    0    0  0.48599643321E+02  0.14076491425E+03 -0.57770930957E+03  0.59659427820E+03  0.00000000000E+00 0.  1.
          3    1    3    3  501    0 -0.56467014545E+02 -0.15546814251E+03 -0.38827718648E+03  0.42204033054E+03  0.00000000000E+00 0.  1.
         21    1    1    2  502  501  0.78673712237E+01  0.14703228262E+02  0.13515285965E+01  0.16730423810E+02  0.00000000000E+00 0. -1.
<mgrwt>
<rscale>  1 0.30000000E+03</rscale>
<asrwt>0</asrwt>
<pdfrwt beam="1">  1        1 0.12860039E+00 0.30000000E+03</pdfrwt>
<pdfrwt beam="2">0</pdfrwt>
<totfact> 0.23285868E+01</totfact>
</mgrwt>
</event>
<event>
 6    1  0.1950139E-004  0.3000000E+03  0.7818608E-02  0.1093470E+00
          1   -1    0    0  502    0  0.00000000000E+00  0.00000000000E+00  0.29247831068E+02  0.29247831068E+02  0.00000000000E+00 0.  1.
         13   -1    0    0    0    0 -0.00000000000E+00 -0.00000000000E+00 -0.10000000000E+04  0.10000000000E+04  0.00000000000E+00 0.  1.
    9000005    2    1    2  501    0 -0.58158569396E+01 -0.75734101423E+01 -0.95588516984E+03  0.10115784113E+04  0.33088252227E+03 0.  0.
         13    1    3    3    0    0 -0.14426040405E+02  0.16196064895E+02  0.23435265155E+02  0.31931721105E+02  0.00000000000E+00 0.  1.
          3    1    3    3  501    0  0.86101834651E+01 -0.23769475038E+02 -0.97932043499E+03  0.97964669019E+03  0.00000000000E+00 0.  1.
         21    1    1    2  502  501  0.58158569396E+01  0.75734101423E+01 -0.14866999095E+02  0.17669419776E+02  0.00000000000E+00 0.  1.
<mgrwt>
<rscale>  1 0.30000000E+03</rscale>
<asrwt>0</asrwt>
<pdfrwt beam="1">  1        1 0.10635597E+00 0.30000000E+03</pdfrwt>
<pdfrwt beam="2">0</pdfrwt>
<totfact> 0.31250150E+01</totfact>
</mgrwt>
</event>
<event>
 6    1  0.1950139E-004  0.3000000E+03  0.7818608E-02  0.1093470E+00
          1   -1    0    0  502    0  0.00000000000E+00  0.00000000000E+00  0.29423472687E+02  0.29423472687E+02  0.00000000000E+00 0.  1.
         13   -1    0    0    0    0 -0.00000000000E+00 -0.00000000000E+00 -0.10000000000E+04  0.10000000000E+04  0.00000000000E+00 0.  1.
    9000005    2    1    2  501    0 -0.99054118490E+01 -0.71876156915E+01 -0.95818368738E+03  0.10120061972E+04  0.32540864377E+03 0.  0.
         13    1    3    3    0    0  0.72620620018E+02 -0.11512331982E+03 -0.75764069566E+03  0.76977045731E+03  0.00000000000E+00 0.  1.
          1    1    3    3  501    0 -0.82526031867E+02  0.10793570413E+03 -0.20054299172E+03  0.24223573991E+03  0.00000000000E+00 0.  1.
         21    1    1    2  502  501  0.99054118490E+01  0.71876156915E+01 -0.12392839932E+02  0.17417275470E+02  0.00000000000E+00 0.  1.
<mgrwt>
<rscale>  1 0.30000000E+03</rscale>
<asrwt>0</asrwt>
<pdfrwt beam="1">  1        1 0.10699467E+00 0.30000000E+03</pdfrwt>
<pdfrwt beam="2">0</pdfrwt>
<totfact> 0.30971999E+01</totfact>
</mgrwt>
</event>
<event>
 6    1  0.1950139E-004  0.3000000E+03  0.7818608E-02  0.1093470E+00
          1   -1    0    0  502    0  0.00000000000E+00  0.00000000000E+00  0.31197911341E+02  0.31197911341E+02  0.00000000000E+00 0.  1.
         13   -1    0    0    0    0 -0.00000000000E+00 -0.00000000000E+00 -0.10000000000E+04  0.10000000000E+04  0.00000000000E+00 0.  1.
    9000005    2    1    2  501    0  0.79358920568E+01 -0.10508311426E+02 -0.96285568701E+03  0.10167492891E+04  0.32636580690E+03 0.  0.
         13    1    3    3    0    0  0.33966601374E+02  0.14360636284E+03 -0.28305825435E+03  0.31921543323E+03  0.00000000000E+00 0.  1.
          1    1    3    3  501    0 -0.26030709317E+02 -0.15411467426E+03 -0.67979743266E+03  0.69753385588E+03  0.00000000000E+00 0.  1.
         21    1    1    2  502  501 -0.79358920568E+01  0.10508311426E+02 -0.59464016503E+01  0.14448622230E+02  0.00000000000E+00 0. -1.
<mgrwt>
<rscale>  1 0.30000000E+03</rscale>
<asrwt>0</asrwt>
<pdfrwt beam="1">  1        1 0.11344719E+00 0.30000000E+03</pdfrwt>
<pdfrwt beam="2">0</pdfrwt>
<totfact> 0.28349873E+01</totfact>
</mgrwt>
</event>
<event>
 6    1  0.1950139E-004  0.3000000E+03  0.7818608E-02  0.1093470E+00
          3   -1    0    0  502    0  0.00000000000E+00  0.00000000000E+00  0.35459240908E+02  0.35459240908E+02  0.00000000000E+00 0.  1.
         13   -1    0    0    0    0 -0.00000000000E+00 -0.00000000000E+00 -0.10000000000E+04  0.10000000000E+04  0.00000000000E+00 0.  1.
    9000005    2    1    2  501    0  0.10059049276E+02  0.58054254542E+01 -0.96577409870E+03  0.10237798332E+04  0.33951531597E+03 0.  0.
         13    1    3    3    0    0 -0.14344633750E+03 -0.68014594021E+02 -0.33998384721E+03  0.37522240485E+03  0.00000000000E+00 0.  1.
          1    1    3    3  501    0  0.15350538678E+03  0.73820019475E+02 -0.62579025149E+03  0.64855742838E+03  0.00000000000E+00 0.  1.
         21    1    1    2  502  501 -0.10059049276E+02 -0.58054254542E+01  0.12333396082E+01  0.11679407674E+02  0.00000000000E+00 0.  1.
<mgrwt>
<rscale>  1 0.30000000E+03</rscale>
<asrwt>0</asrwt>
<pdfrwt beam="1">  1        3 0.12894297E+00 0.30000000E+03</pdfrwt>
<pdfrwt beam="2">0</pdfrwt>
<totfact> 0.18205064E+00</totfact>
</mgrwt>
</event>
<event>
 6    1  0.1950139E-004  0.3000000E+03  0.7818608E-02  0.1093470E+00
          1   -1    0    0  502    0  0.00000000000E+00  0.00000000000E+00  0.40765759250E+02  0.40765759250E+02  0.00000000000E+00 0.  1.
         13   -1    0    0    0    0 -0.00000000000E+00 -0.00000000000E+00 -0.10000000000E+04  0.10000000000E+04  0.00000000000E+00 0.  1.
    9000005    2    1    2  501    0  0.68102802627E+01  0.93667159786E+01 -0.96771654519E+03  0.10264108028E+04  0.34192061802E+03 0.  0.
         13    1    3    3    0    0  0.16453796765E+03 -0.36970265437E+02 -0.37224211978E+03  0.40866090963E+03  0.00000000000E+00 0.  1.
          3    1    3    3  501    0 -0.15772768738E+03  0.46336981415E+02 -0.59547442541E+03  0.61774989319E+03  0.00000000000E+00 0.  1.
         21    1    1    2  502  501 -0.68102802627E+01 -0.93667159786E+01  0.84823044404E+01  0.14354956430E+02  0.00000000000E+00 0.  1.
<mgrwt>
<rscale>  1 0.30000000E+03</rscale>
<asrwt>0</asrwt>
<pdfrwt beam="1">  1        1 0.14823944E+00 0.30000000E+03</pdfrwt>
<pdfrwt beam="2">0</pdfrwt>
<totfact> 0.18340056E+01</totfact>
</mgrwt>
</event>
<event>
 6    1  0.1950139E-004  0.3000000E+03  0.7818608E-02  0.1093470E+00
          1   -1    0    0  502    0  0.00000000000E+00  0.00000000000E+00  0.47596808045E+02  0.47596808045E+02  0.00000000000E+00 0.  1.
         13   -1    0    0    0    0 -0.00000000000E+00 -0.00000000000E+00 -0.10000000000E+04  0.10000000000E+04  0.00000000000E+00 0.  1.
    9000005    2    1    2  501    0  0.15726067294E+02 -0.13318816169E+02 -0.96840316059E+03  0.10215065981E+04  0.32441693626E+03 0.  0.
         13    1    3    3    0    0 -0.26557253446E+02 -0.16042297316E+03 -0.61991999815E+03  0.64089127170E+03  0.00000000000E+00 0.  1.
          1    1    3    3  501    0  0.42283320741E+02  0.14710415699E+03 -0.34848316244E+03  0.38061532644E+03  0.00000000000E+00 0.  1.
         21    1    1    2  502  501 -0.15726067294E+02  0.13318816169E+02  0.15999968637E+02  0.26090209909E+02  0.00000000000E+00 0.  1.
<mgrwt>
<rscale>  1 0.30000000E+03</rscale>
<asrwt>0</asrwt>
<pdfrwt beam="1">  1        1 0.17307967E+00 0.30000000E+03</pdfrwt>
<pdfrwt beam="2">0</pdfrwt>
<totfact> 0.13801507E+01</totfact>
</mgrwt>
</event>
<event>
 6    1  0.1950139E-004  0.3000000E+03  0.7818608E-02  0.1093470E+00
          1   -1    0    0  502    0  0.00000000000E+00  0.00000000000E+00  0.34838484189E+02  0.34838484189E+02  0.00000000000E+00 0.  1.
         13   -1    0    0    0    0 -0.00000000000E+00 -0.00000000000E+00 -0.10000000000E+04  0.10000000000E+04  0.00000000000E+00 0.  1.
    9000005    2    1    2  501    0 -0.13778816178E+02  0.16113624037E+02 -0.95173599096E+03  0.10097436765E+04  0.33664727997E+03 0.  0.
         13    1    3    3    0    0 -0.14850752873E+03  0.62766598639E+02 -0.71861108387E+03  0.73647540479E+03  0.00000000000E+00 0.  1.
          3    1    3    3  501    0  0.13472871255E+03 -0.46652974602E+02 -0.23312490708E+03  0.27326827172E+03  0.00000000000E+00 0.  1.
         21    1    1    2  502  501  0.13778816178E+02 -0.16113624037E+02 -0.13425524854E+02  0.25094807680E+02  0.00000000000E+00 0. -1.
<mgrwt>
<rscale>  1 0.30000000E+03</rscale>
<asrwt>0</asrwt>
<pdfrwt beam="1">  1        1 0.12668566E+00 0.30000000E+03</pdfrwt>
<pdfrwt beam="2">0</pdfrwt>
<totfact> 0.23856602E+01</totfact>
</mgrwt>
</event>
<event>
 6    1  0.1950139E-004  0.3000000E+03  0.7818608E-02  0.1093470E+00
          1   -1    0    0  502    0  0.00000000000E+00  0.00000000000E+00  0.35307553989E+02  0.35307553989E+02  0.00000000000E+00 0.  1.
         13   -1    0    0    0    0 -0.00000000000E+00 -0.00000000000E+00 -0.10000000000E+04  0.10000000000E+04  0.00000000000E+00 0.  1.
    9000005    2    1    2  501    0 -0.11665080675E+02 -0.91565924631E+01 -0.96798944072E+03  0.10201158633E+04  0.32157876152E+03 0.  0.
         13    1    3    3    0    0  0.11606581159E+03  0.66963187132E+02 -0.70835750951E+03  0.72092003879E+03  0.00000000000E+00 0.  1.
          3    1    3    3  501    0 -0.12773089226E+03 -0.76119779595E+02 -0.25963193121E+03  0.29919582448E+03  0.00000000000E+00 0.  1.
         21    1    1    2  502  501  0.11665080675E+02  0.91565924631E+01  0.32969947097E+01  0.15191690716E+02  0.00000000000E+00 0. -1.
<mgrwt>
<rscale>  1 0.30000000E+03</rscale>
<asrwt>0</asrwt>
<pdfrwt beam="1">  1        1 0.12839138E+00 0.30000000E+03</pdfrwt>
<pdfrwt beam="2">0</pdfrwt>
<totfact> 0.23347310E+01</totfact>
</mgrwt>
</event>
<event>
 6    1  0.1950139E-004  0.3000000E+03  0.7818608E-02  0.1093470E+00
          1   -1    0    0  502    0  0.00000000000E+00  0.00000000000E+00  0.26492004107E+02  0.26492004107E+02  0.00000000000E+00 0.  1.
         13   -1    0    0    0    0 -0.00000000000E+00 -0.00000000000E+00 -0.10000000000E+04  0.10000000000E+04  0.00000000000E+00 0.  1.
    9000005    2    1    2  501    0 -0.98929124717E+01  0.35603678533E+01 -0.97090809332E+03  0.10156612410E+04  0.29798437012E+03 0.  0.
         13    1    3    3    0    0  0.54269392672E+02  0.13770664889E+03 -0.53443498069E+03  0.55455300623E+03  0.00000000000E+00 0.  1.
          3    1    3    3  501    0 -0.64162305143E+02 -0.13414628103E+03 -0.43647311262E+03  0.46110823476E+03  0.00000000000E+00 0.  1.
         21    1    1    2  502  501  0.98929124717E+01 -0.35603678533E+01 -0.25999025769E+01  0.10830763123E+02  0.00000000000E+00 0. -1.
<mgrwt>
<rscale>  1 0.30000000E+03</rscale>
<asrwt>0</asrwt>
<pdfrwt beam="1">  1        1 0.96334764E-01 0.30000000E+03</pdfrwt>
<pdfrwt beam="2">0</pdfrwt>
<totfact> 0.36136358E+01</totfact>
</mgrwt>
</event>
<event>
 6    1  0.1950139E-004  0.3000000E+03  0.7818608E-02  0.1093470E+00
          1   -1    0    0  502    0  0.00000000000E+00  0.00000000000E+00  0.31500679245E+02  0.31500679245E+02  0.00000000000E+00 0.  1.
         13   -1    0    0    0    0 -0.00000000000E+00 -0.00000000000E+00 -0.10000000000E+04  0.10000000000E+04  0.00000000000E+00 0.  1.
    9000005    2    1    2  501    0  0.15962409698E+02  0.44882382952E+01 -0.95689850867E+03  0.10112640380E+04  0.32668831617E+03 0.  0.
         13    1    3    3    0    0 -0.12885268130E+03 -0.74444112002E+02 -0.31294199414E+03  0.34652219407E+03  0.00000000000E+00 0.  1.
          3    1    3    3  501    0  0.14481509100E+03  0.78932350298E+02 -0.64395651453E+03  0.66474184396E+03  0.00000000000E+00 0.  1.
         21    1    1    2  502  501 -0.15962409698E+02 -0.44882382952E+01 -0.11600812084E+02  0.20236641208E+02  0.00000000000E+00 0.  1.
<mgrwt>
<rscale>  1 0.30000000E+03</rscale>
<asrwt>0</asrwt>
<pdfrwt beam="1">  1        1 0.11454817E+00 0.30000000E+03</pdfrwt>
<pdfrwt beam="2">0</pdfrwt>
<totfact> 0.27934223E+01</totfact>
</mgrwt>
</event>
<event>
 6    1  0.1950139E-004  0.3000000E+03  0.7818608E-02  0.1093470E+00
          1   -1    0    0  502    0  0.00000000000E+00  0.00000000000E+00  0.49823657558E+02  0.49823657558E+02  0.00000000000E+00 0.  1.
         13   -1    0    0    0    0 -0.00000000000E+00 -0.00000000000E+00 -0.10000000000E+04  0.10000000000E+04  0.00000000000E+00 0.  1.
    9000005    2    1    2  501    0 -0.94731168707E+01  0.13050113916E+02 -0.97082303626E+03  0.10236257305E+04  0.32411760672E+03 0.  0.
         13    1    3    3    0    0  0.14846079814E+03  0.73946862059E+01 -0.63942091967E+03  0.65647117414E+03  0.00000000000E+00 0.  1.
          3    1    3    3  501    0 -0.15793391501E+03  0.56554277097E+01 -0.33140211659E+03  0.36715455636E+03  0.00000000000E+00 0.  1.
         21    1    1    2  502  501  0.94731168707E+01 -0.13050113916E+02  0.20646693819E+02  0.26197927058E+02  0.00000000000E+00 0.  1.
<mgrwt>
<rscale>  1 0.30000000E+03</rscale>
<asrwt>0</asrwt>
<pdfrwt beam="1">  1        1 0.18117732E+00 0.30000000E+03</pdfrwt>
<pdfrwt beam="2">0</pdfrwt>
<totfact> 0.12608145E+01</totfact>
</mgrwt>
</event>
<event>
 6    1  0.1950139E-004  0.3000000E+03  0.7818608E-02  0.1093470E+00
          1   -1    0    0  502    0  0.00000000000E+00  0.00000000000E+00  0.38187317548E+02  0.38187317548E+02  0.00000000000E+00 0.  1.
         13   -1    0    0    0    0 -0.00000000000E+00 -0.00000000000E+00 -0.10000000000E+04  0.10000000000E+04  0.00000000000E+00 0.  1.
    9000005    2    1    2  501    0  0.99457000011E+01 -0.48296287948E+02 -0.89448718761E+03  0.95473571101E+03  0.33012346282E+03 0.  0.
         13    1    3    3    0    0  0.16941476878E+03 -0.96969819245E+01 -0.44958733970E+03  0.48054570163E+03  0.00000000000E+00 0.  1.
          3    1    3    3  501    0 -0.15946906878E+03 -0.38599306023E+02 -0.44489984791E+03  0.47419000938E+03  0.00000000000E+00 0.  1.
         21    1    1    2  502  501 -0.99457000011E+01  0.48296287948E+02 -0.67325494842E+02  0.83451606538E+02  0.00000000000E+00 0.  1.
<mgrwt>
<rscale>  1 0.30000000E+03</rscale>
<asrwt>0</asrwt>
<pdfrwt beam="1">  1        1 0.13886327E+00 0.30000000E+03</pdfrwt>
<pdfrwt beam="2">0</pdfrwt>
<totfact> 0.20512365E+01</totfact>
</mgrwt>
</event>
<event>
 6    1  0.1950139E-004  0.3000000E+03  0.7818608E-02  0.1093470E+00
          1   -1    0    0  502    0  0.00000000000E+00  0.00000000000E+00  0.41227009725E+02  0.41227009725E+02  0.00000000000E+00 0.  1.
         13   -1    0    0    0    0 -0.00000000000E+00 -0.00000000000E+00 -0.10000000000E+04  0.10000000000E+04  0.00000000000E+00 0.  1.
    9000005    2    1    2  501    0 -0.12011182602E+01  0.11668318915E+02 -0.97478097494E+03  0.10213814076E+04  0.30476948387E+03 0.  0.
         13    1    3    3    0    0  0.18474938563E+02  0.97277499667E+02 -0.90168403658E+03  0.90710436947E+03  0.00000000000E+00 0.  1.
          3    1    3    3  501    0 -0.19676056823E+02 -0.85609180752E+02 -0.73096938362E+02  0.11427703811E+03  0.00000000000E+00 0.  1.
         21    1    1    2  502  501  0.12011182602E+01 -0.11668318915E+02  0.16007984665E+02  0.19845602143E+02  0.00000000000E+00 0.  1.
<mgrwt>
<rscale>  1 0.30000000E+03</rscale>
<asrwt>0</asrwt>
<pdfrwt beam="1">  1        1 0.14991672E+00 0.30000000E+03</pdfrwt>
<pdfrwt beam="2">0</pdfrwt>
<totfact> 0.17982483E+01</totfact>
</mgrwt>
</event>
<event>
 6    1  0.1950139E-004  0.3000000E+03  0.7818608E-02  0.1093470E+00
          1   -1    0    0  502    0  0.00000000000E+00  0.00000000000E+00  0.23249492546E+02  0.23249492546E+02  0.00000000000E+00 0.  1.
         13   -1    0    0    0    0 -0.00000000000E+00 -0.00000000000E+00 -0.10000000000E+04  0.10000000000E+04  0.00000000000E+00 0.  1.
    9000005    2    1    2  501    0  0.20417400211E+01 -0.16695639957E+02 -0.97538060842E+03  0.10063737787E+04  0.24726087033E+03 0.  0.
         13    1    3    3    0    0  0.79601345541E+02  0.75105514139E+02 -0.27895637537E+03  0.29965625611E+03  0.00000000000E+00 0.  1.
          1    1    3    3  501    0 -0.77559605520E+02 -0.91801154096E+02 -0.69642423304E+03  0.70671752255E+03  0.00000000000E+00 0.  1.
         21    1    1    2  502  501 -0.20417400211E+01  0.16695639957E+02 -0.13698990373E+01  0.16875713889E+02  0.00000000000E+00 0. -1.
<mgrwt>
<rscale>  1 0.30000000E+03</rscale>
<asrwt>0</asrwt>
<pdfrwt beam="1">  1        1 0.84543788E-01 0.30000000E+03</pdfrwt>
<pdfrwt beam="2">0</pdfrwt>
<totfact> 0.43495196E+01</totfact>
</mgrwt>
</event>
<event>
 6    1  0.1950139E-004  0.3000000E+03  0.7818608E-02  0.1093470E+00
          1   -1    0    0  502    0  0.00000000000E+00  0.00000000000E+00  0.46600104987E+02  0.46600104987E+02  0.00000000000E+00 0.  1.
         13   -1    0    0    0    0 -0.00000000000E+00 -0.00000000000E+00 -0.10000000000E+04  0.10000000000E+04  0.00000000000E+00 0.  1.
    9000005    2    1    2  501    0  0.72161056656E+02 -0.41325995037E+02 -0.75400305380E+03  0.83055808072E+03  0.33821748084E+03 0.  0.
         13    1    3    3    0    0  0.18476237324E+03 -0.31401488970E+02 -0.24123882021E+03  0.30548217043E+03  0.00000000000E+00 0.  1.
          1    1    3    3  501    0 -0.11260131659E+03 -0.99245060664E+01 -0.51276423358E+03  0.52507591028E+03  0.00000000000E+00 0.  1.
         21    1    1    2  502  501 -0.72161056656E+02  0.41325995037E+02 -0.19939684121E+03  0.21604202427E+03  0.00000000000E+00 0.  1.
<mgrwt>
<rscale>  1 0.30000000E+03</rscale>
<asrwt>0</asrwt>
<pdfrwt beam="1">  1        1 0.16945528E+00 0.30000000E+03</pdfrwt>
<pdfrwt beam="2">0</pdfrwt>
<totfact> 0.14375078E+01</totfact>
</mgrwt>
</event>
<event>
 6    1  0.1950139E-004  0.3000000E+03  0.7818608E-02  0.1093470E+00
          1   -1    0    0  502    0  0.00000000000E+00  0.00000000000E+00  0.78476843930E+02  0.78476843930E+02  0.00000000000E+00 0.  1.
         13   -1    0    0    0    0 -0.00000000000E+00 -0.00000000000E+00 -0.10000000000E+04  0.10000000000E+04  0.00000000000E+00 0.  1.
    9000005    2    1    2  501    0 -0.99161301439E+02  0.60480306626E+02 -0.89360185725E+03  0.95901793836E+03  0.32817723202E+03 0.  0.
         13    1    3    3    0    0 -0.90086884327E+02 -0.12369624062E+03 -0.29027395106E+03  0.32813925906E+03  0.00000000000E+00 0.  1.
          3    1    3    3  501    0 -0.90744171115E+01  0.18417654725E+03 -0.60332790620E+03  0.63087867930E+03  0.00000000000E+00 0.  1.
         21    1    1    2  502  501  0.99161301439E+02 -0.60480306626E+02 -0.27921298817E+02  0.11945890557E+03  0.00000000000E+00 0.  1.
<mgrwt>
<rscale>  1 0.30000000E+03</rscale>
<asrwt>0</asrwt>
<pdfrwt beam="1">  1        1 0.28537094E+00 0.30000000E+03</pdfrwt>
<pdfrwt beam="2">0</pdfrwt>
<totfact> 0.40745397E+00</totfact>
</mgrwt>
</event>
<event>
 6    1  0.1950139E-004  0.3000000E+03  0.7818608E-02  0.1093470E+00
          1   -1    0    0  502    0  0.00000000000E+00  0.00000000000E+00  0.39819472628E+02  0.39819472628E+02  0.00000000000E+00 0.  1.
         13   -1    0    0    0    0 -0.00000000000E+00 -0.00000000000E+00 -0.10000000000E+04  0.10000000000E+04  0.00000000000E+00 0.  1.
    9000005    2    1    2  501    0 -0.21700994802E+02 -0.16180400456E+01 -0.96468170213E+03  0.10175975959E+04  0.32314165568E+03 0.  0.
         13    1    3    3    0    0 -0.63184908479E+02 -0.78204640984E+02 -0.90828685117E+03  0.91383439557E+03  0.00000000000E+00 0.  1.
          3    1    3    3  501    0  0.41483913677E+02  0.76586600939E+02 -0.56394850957E+02  0.10376320037E+03  0.00000000000E+00 0.  1.
         21    1    1    2  502  501  0.21700994802E+02  0.16180400456E+01  0.45011747537E+01  0.22221876680E+02  0.00000000000E+00 0.  1.
<mgrwt>
<rscale>  1 0.30000000E+03</rscale>
<asrwt>0</asrwt>
<pdfrwt beam="1">  1        1 0.14479839E+00 0.30000000E+03</pdfrwt>
<pdfrwt beam="2">0</pdfrwt>
<totfact> 0.19101916E+01</totfact>
</mgrwt>
</event>
<event>
 6    1  0.1950139E-004  0.3000000E+03  0.7818608E-02  0.1093470E+00
          1   -1    0    0  502    0  0.00000000000E+00  0.00000000000E+00  0.45366163128E+02  0.45366163128E+02  0.00000000000E+00 0.  1.
         13   -1    0    0    0    0 -0.00000000000E+00 -0.00000000000E+00 -0.10000000000E+04  0.10000000000E+04  0.00000000000E+00 0.  1.
    9000005    2    1    2  501    0 -0.13256926361E+02  0.19681694345E+02 -0.94979258024E+03  0.10211473078E+04  0.37426296038E+03 0.  0.
         13    1    3    3    0    0  0.78946721573E+02  0.38903516314E+02 -0.91730246200E+03  0.92151498915E+03  0.00000000000E+00 0.  1.
          1    1    3    3  501    0 -0.92203647934E+02 -0.19221821969E+02 -0.32490118233E+02  0.99632318626E+02  0.00000000000E+00 0.  1.
         21    1    1    2  502  501  0.13256926361E+02 -0.19681694345E+02 -0.48412566369E+01  0.24218855354E+02  0.00000000000E+00 0.  1.
<mgrwt>
<rscale>  1 0.30000000E+03</rscale>
<asrwt>0</asrwt>
<pdfrwt beam="1">  1        1 0.16496821E+00 0.30000000E+03</pdfrwt>
<pdfrwt beam="2">0</pdfrwt>
<totfact> 0.15122759E+01</totfact>
</mgrwt>
</event>
<event>
 6    1  0.1950139E-004  0.3000000E+03  0.7818608E-02  0.1093470E+00
          1   -1    0    0  502    0  0.00000000000E+00  0.00000000000E+00  0.41208616048E+02  0.41208616048E+02  0.00000000000E+00 0.  1.
         13   -1    0    0    0    0 -0.00000000000E+00 -0.00000000000E+00 -0.10000000000E+04  0.10000000000E+04  0.00000000000E+00 0.  1.
    9000005    2    1    2  501    0  0.32319501108E+02  0.33141368602E+02 -0.92303668845E+03  0.98271674725E+03  0.33405475097E+03 0.  0.
         13    1    3    3    0    0 -0.13143263909E+03 -0.54213526801E+01 -0.64065482444E+03  0.65402028544E+03  0.00000000000E+00 0.  1.
          1    1    3    3  501    0  0.16375214019E+03  0.38562721282E+02 -0.28238186400E+03  0.32869646181E+03  0.00000000000E+00 0.  1.
         21    1    1    2  502  501 -0.32319501108E+02 -0.33141368602E+02 -0.35754695507E+02  0.58491868798E+02  0.00000000000E+00 0.  1.
<mgrwt>
<rscale>  1 0.30000000E+03</rscale>
<asrwt>0</asrwt>
<pdfrwt beam="1">  1        1 0.14984983E+00 0.30000000E+03</pdfrwt>
<pdfrwt beam="2">0</pdfrwt>
<totfact> 0.17996576E+01</totfact>
</mgrwt>
</event>
<event>
 6    1  0.1950139E-004  0.3000000E+03  0.7818608E-02  0.1093470E+00
          1   -1    0    0  502    0  0.00000000000E+00  0.00000000000E+00  0.32885552968E+02  0.32885552968E+02  0.00000000000E+00 0.  1.
         13   -1    0    0    0    0 -0.00000000000E+00 -0.00000000000E+00 -0.10000000000E+04  0.10000000000E+04  0.00000000000E+00 0.  1.
    9000005    2    1    2  501    0  0.14032709523E+02 -0.19276818240E+02 -0.92960262185E+03  0.98843727194E+03  0.33508012974E+03 0.  0.
         13    1    3    3    0    0  0.14080584761E+03 -0.90359063395E+02 -0.31269134138E+03  0.35463632362E+03  0.00000000000E+00 0.  1.
          3    1    3    3  501    0 -0.12677313808E+03  0.71082245155E+02 -0.61691128047E+03  0.63380094831E+03  0.00000000000E+00 0.  1.
         21    1    1    2  502  501 -0.14032709523E+02  0.19276818240E+02 -0.37511825182E+02  0.44448281029E+02  0.00000000000E+00 0. -1.
<mgrwt>
<rscale>  1 0.30000000E+03</rscale>
<asrwt>0</asrwt>
<pdfrwt beam="1">  1        1 0.11958408E+00 0.30000000E+03</pdfrwt>
<pdfrwt beam="2">0</pdfrwt>
<totfact> 0.26137301E+01</totfact>
</mgrwt>
</event>
<event>
 6    1  0.1950139E-004  0.3000000E+03  0.7818608E-02  0.1093470E+00
          1   -1    0    0  502    0  0.00000000000E+00  0.00000000000E+00  0.35176708056E+02  0.35176708056E+02  0.00000000000E+00 0.  1.
         13   -1    0    0    0    0 -0.00000000000E+00 -0.00000000000E+00 -0.10000000000E+04  0.10000000000E+04  0.00000000000E+00 0.  1.
    9000005    2    1    2  501    0 -0.22937945976E+02 -0.25024548419E+02 -0.90060650768E+03  0.96253943959E+03  0.33799070061E+03 0.  0.
         13    1    3    3    0    0  0.15619442673E+03  0.22342056017E+01 -0.47299894905E+03  0.49812618524E+03  0.00000000000E+00 0.  1.
          1    1    3    3  501    0 -0.17913237270E+03 -0.27258754021E+02 -0.42760755862E+03  0.46441325434E+03  0.00000000000E+00 0.  1.
         21    1    1    2  502  501  0.22937945976E+02  0.25024548419E+02 -0.64216784268E+02  0.72637268471E+02  0.00000000000E+00 0. -1.
<mgrwt>
<rscale>  1 0.30000000E+03</rscale>
<asrwt>0</asrwt>
<pdfrwt beam="1">  1        1 0.12791557E+00 0.30000000E+03</pdfrwt>
<pdfrwt beam="2">0</pdfrwt>
<totfact> 0.23487959E+01</totfact>
</mgrwt>
</event>
<event>
 6    1  0.1950139E-004  0.3000000E+03  0.7818608E-02  0.1093470E+00
          1   -1    0    0  502    0  0.00000000000E+00  0.00000000000E+00  0.10655084514E+03  0.10655084514E+03  0.00000000000E+00 0.  1.
         13   -1    0    0    0    0 -0.00000000000E+00 -0.00000000000E+00 -0.10000000000E+04  0.10000000000E+04  0.00000000000E+00 0.  1.
    9000005    2    1    2  501    0  0.67016323170E+02 -0.49909529915E+02 -0.94729997355E+03  0.10071422971E+04  0.33162662439E+03 0.  0.
         13    1    3    3    0    0  0.12379237095E+03  0.53447521324E+02 -0.82975718613E+03  0.84064152679E+03  0.00000000000E+00 0.  1.
          1    1    3    3  501    0 -0.56776047780E+02 -0.10335705124E+03 -0.11754278742E+03  0.16650077032E+03  0.00000000000E+00 0.  1.
         21    1    1    2  502  501 -0.67016323170E+02  0.49909529915E+02  0.53850818684E+02  0.99408548025E+02  0.00000000000E+00 0. -1.
<mgrwt>
<rscale>  1 0.30000000E+03</rscale>
<asrwt>0</asrwt>
<pdfrwt beam="1">  1        1 0.38745844E+00 0.30000000E+03</pdfrwt>
<pdfrwt beam="2">0</pdfrwt>
<totfact> 0.12390185E+00</totfact>
</mgrwt>
</event>
<event>
 6    1  0.1950139E-004  0.3000000E+03  0.7818608E-02  0.1093470E+00
          1   -1    0    0  502    0  0.00000000000E+00  0.00000000000E+00  0.31993958921E+02  0.31993958921E+02  0.00000000000E+00 0.  1.
         13   -1    0    0    0    0 -0.00000000000E+00 -0.00000000000E+00 -0.10000000000E+04  0.10000000000E+04  0.00000000000E+00 0.  1.
    9000005    2    1    2  501    0 -0.23424962343E+01 -0.17068885174E+02 -0.95844568805E+03  0.10122902923E+04  0.32529473519E+03 0.  0.
         13    1    3    3    0    0 -0.98656351426E+02 -0.23899433504E+02 -0.88544416451E+03  0.89124386509E+03  0.00000000000E+00 0.  1.
          3    1    3    3  501    0  0.96313855192E+02  0.68305483304E+01 -0.73001523542E+02  0.12104642717E+03  0.00000000000E+00 0.  1.
         21    1    1    2  502  501  0.23424962343E+01  0.17068885174E+02 -0.95603530301E+01  0.19703666657E+02  0.00000000000E+00 0.  1.
<mgrwt>
<rscale>  1 0.30000000E+03</rscale>
<asrwt>0</asrwt>
<pdfrwt beam="1">  1        1 0.11634191E+00 0.30000000E+03</pdfrwt>
<pdfrwt beam="2">0</pdfrwt>
<totfact> 0.27275168E+01</totfact>
</mgrwt>
</event>
<event>
 6    1  0.1950139E-004  0.3000000E+03  0.7818608E-02  0.1093470E+00
          1   -1    0    0  502    0  0.00000000000E+00  0.00000000000E+00  0.44252245636E+02  0.44252245636E+02  0.00000000000E+00 0.  1.
         13   -1    0    0    0    0 -0.00000000000E+00 -0.00000000000E+00 -0.10000000000E+04  0.10000000000E+04  0.00000000000E+00 0.  1.
    9000005    2    1    2  501    0  0.11030283892E+02  0.12546470529E+02 -0.96889873101E+03  0.10229912656E+04  0.32782205152E+03 0.  0.
         13    1    3    3    0    0  0.69092106152E+02  0.14984297221E+03 -0.35844685362E+03  0.39460205565E+03  0.00000000000E+00 0.  1.
          3    1    3    3  501    0 -0.58061822260E+02 -0.13729650168E+03 -0.61045187738E+03  0.62838920995E+03  0.00000000000E+00 0.  1.
         21    1    1    2  502  501 -0.11030283892E+02 -0.12546470529E+02  0.13150976642E+02  0.21260980036E+02  0.00000000000E+00 0.  1.
<mgrwt>
<rscale>  1 0.30000000E+03</rscale>
<asrwt>0</asrwt>
<pdfrwt beam="1">  1        1 0.16091760E+00 0.30000000E+03</pdfrwt>
<pdfrwt beam="2">0</pdfrwt>
<totfact> 0.15836096E+01</totfact>
</mgrwt>
</event>
<event>
 6    1  0.1950139E-004  0.3000000E+03  0.7818608E-02  0.1093470E+00
          1   -1    0    0  502    0  0.00000000000E+00  0.00000000000E+00  0.29262369888E+02  0.29262369888E+02  0.00000000000E+00 0.  1.
         13   -1    0    0    0    0 -0.00000000000E+00 -0.00000000000E+00 -0.10000000000E+04  0.10000000000E+04  0.00000000000E+00 0.  1.
    9000005    2    1    2  501    0  0.11387823125E+02 -0.12281583634E+02 -0.89914930415E+03  0.95574088850E+03  0.32355935310E+03 0.  0.
         13    1    3    3    0    0  0.62570631373E+02 -0.11898025542E+03 -0.16842253406E+03  0.21549370077E+03  0.00000000000E+00 0.  1.
          1    1    3    3  501    0 -0.51182808248E+02  0.10669867178E+03 -0.73072677009E+03  0.74024718773E+03  0.00000000000E+00 0.  1.
         21    1    1    2  502  501 -0.11387823125E+02  0.12281583634E+02 -0.71588325957E+02  0.73521481388E+02  0.00000000000E+00 0. -1.
<mgrwt>
<rscale>  1 0.30000000E+03</rscale>
<asrwt>0</asrwt>
<pdfrwt beam="1">  1        1 0.10640884E+00 0.30000000E+03</pdfrwt>
<pdfrwt beam="2">0</pdfrwt>
<totfact> 0.31226990E+01</totfact>
</mgrwt>
</event>
<event>
 6    1  0.1950139E-004  0.3000000E+03  0.7818608E-02  0.1093470E+00
          1   -1    0    0  502    0  0.00000000000E+00  0.00000000000E+00  0.40870739138E+02  0.40870739138E+02  0.00000000000E+00 0.  1.
         13   -1    0    0    0    0 -0.00000000000E+00 -0.00000000000E+00 -0.10000000000E+04  0.10000000000E+04  0.00000000000E+00 0.  1.
    9000005    2    1    2  501    0  0.44305178595E+02  0.30179358744E+02 -0.94013746109E+03  0.98399868094E+03  0.28551920393E+03 0.  0.
         13    1    3    3    0    0  0.10085944338E+02  0.10590426723E+02  0.19041507047E+02  0.24009631442E+02  0.00000000000E+00 0.  1.
          1    1    3    3  501    0  0.34219234258E+02  0.19588932021E+02 -0.95917896814E+03  0.95998904950E+03  0.00000000000E+00 0.  1.
         21    1    1    2  502  501 -0.44305178595E+02 -0.30179358744E+02 -0.18991799773E+02  0.56872058194E+02  0.00000000000E+00 0.  1.
<mgrwt>
<rscale>  1 0.30000000E+03</rscale>
<asrwt>0</asrwt>
<pdfrwt beam="1">  1        1 0.14862118E+00 0.30000000E+03</pdfrwt>
<pdfrwt beam="2">0</pdfrwt>
<totfact> 0.18257900E+01</totfact>
</mgrwt>
</event>
<event>
 6    1  0.1950139E-004  0.3000000E+03  0.7818608E-02  0.1093470E+00
          1   -1    0    0  502    0  0.00000000000E+00  0.00000000000E+00  0.26783911649E+02  0.26783911649E+02  0.00000000000E+00 0.  1.
         13   -1    0    0    0    0 -0.00000000000E+00 -0.00000000000E+00 -0.10000000000E+04  0.10000000000E+04  0.00000000000E+00 0.  1.
    9000005    2    1    2  501    0  0.68461685496E+01  0.56849676047E+01 -0.95980753454E+03  0.10106911121E+04  0.31652303540E+03 0.  0.
         13    1    3    3    0    0  0.11918171708E+03  0.10148461083E+03 -0.35246632585E+03  0.38566296008E+03  0.00000000000E+00 0.  1.
          1    1    3    3  501    0 -0.11233554853E+03 -0.95799643225E+02 -0.60734120869E+03  0.62502815206E+03  0.00000000000E+00 0.  1.
         21    1    1    2  502  501 -0.68461685496E+01 -0.56849676047E+01 -0.13408553815E+02  0.16092799504E+02  0.00000000000E+00 0. -1.
<mgrwt>
<rscale>  1 0.30000000E+03</rscale>
<asrwt>0</asrwt>
<pdfrwt beam="1">  1        1 0.97396248E-01 0.30000000E+03</pdfrwt>
<pdfrwt beam="2">0</pdfrwt>
<totfact> 0.35567481E+01</totfact>
</mgrwt>
</event>
<event>
 6    1  0.1950139E-004  0.3000000E+03  0.7818608E-02  0.1093470E+00
          1   -1    0    0  502    0  0.00000000000E+00  0.00000000000E+00  0.33773105819E+02  0.33773105819E+02  0.00000000000E+00 0.  1.
         13   -1    0    0    0    0 -0.00000000000E+00 -0.00000000000E+00 -0.10000000000E+04  0.10000000000E+04  0.00000000000E+00 0.  1.
    9000005    2    1    2  501    0  0.21808014014E+02 -0.78911472766E+01 -0.95173030235E+03  0.10064233187E+04  0.32643447786E+03 0.  0.
         13    1    3    3    0    0 -0.14245195034E+03  0.40592301924E+02 -0.33361021472E+03  0.36501516201E+03  0.00000000000E+00 0.  1.
          1    1    3    3  501    0  0.16425996436E+03 -0.48483449201E+02 -0.61812008763E+03  0.64140815669E+03  0.00000000000E+00 0.  1.
         21    1    1    2  502  501 -0.21808014014E+02  0.78911472766E+01 -0.14496591828E+02  0.27349787114E+02  0.00000000000E+00 0.  1.
<mgrwt>
<rscale>  1 0.30000000E+03</rscale>
<asrwt>0</asrwt>
<pdfrwt beam="1">  1        1 0.12281155E+00 0.30000000E+03</pdfrwt>
<pdfrwt beam="2">0</pdfrwt>
<totfact> 0.25067136E+01</totfact>
</mgrwt>
</event>
<event>
 6    1  0.1950139E-004  0.3000000E+03  0.7818608E-02  0.1093470E+00
          1   -1    0    0  502    0  0.00000000000E+00  0.00000000000E+00  0.43264760199E+02  0.43264760199E+02  0.00000000000E+00 0.  1.
         13   -1    0    0    0    0 -0.00000000000E+00 -0.00000000000E+00 -0.10000000000E+04  0.10000000000E+04  0.00000000000E+00 0.  1.
    9000005    2    1    2  501    0  0.19272291879E+02  0.77458529738E+01 -0.90596280623E+03  0.98840804244E+03  0.39465229331E+03 0.  0.
         13    1    3    3    0    0  0.87408880265E+02  0.13545900395E+03 -0.78011548037E+03  0.79659878032E+03  0.00000000000E+00 0.  1.
          1    1    3    3  501    0 -0.68136588386E+02 -0.12771315097E+03 -0.12584732587E+03  0.19180926212E+03  0.00000000000E+00 0.  1.
         21    1    1    2  502  501 -0.19272291879E+02 -0.77458529738E+01 -0.50772433567E+02  0.54856717755E+02  0.00000000000E+00 0.  1.
<mgrwt>
<rscale>  1 0.30000000E+03</rscale>
<asrwt>0</asrwt>
<pdfrwt beam="1">  1        1 0.15732673E+00 0.30000000E+03</pdfrwt>
<pdfrwt beam="2">0</pdfrwt>
<totfact> 0.16501286E+01</totfact>
</mgrwt>
</event>
<event>
 6    1  0.1950139E-004  0.3000000E+03  0.7818608E-02  0.1093470E+00
          1   -1    0    0  502    0  0.00000000000E+00  0.00000000000E+00  0.28236184079E+02  0.28236184079E+02  0.00000000000E+00 0.  1.
         13   -1    0    0    0    0 -0.00000000000E+00 -0.00000000000E+00 -0.10000000000E+04  0.10000000000E+04  0.00000000000E+00 0.  1.
    9000005    2    1    2  501    0  0.79313843282E+01  0.70761542030E+01 -0.95706036648E+03  0.10100931347E+04  0.32281669233E+03 0.  0.
         13    1    3    3    0    0  0.14635772711E+03  0.79600340465E+02 -0.50722535019E+03  0.53388608744E+03  0.00000000000E+00 0.  1.
          3    1    3    3  501    0 -0.13842634279E+03 -0.72524186262E+02 -0.44983501629E+03  0.47620704725E+03  0.00000000000E+00 0.  1.
         21    1    1    2  502  501 -0.79313843282E+01 -0.70761542030E+01 -0.14703449442E+02  0.18143049390E+02  0.00000000000E+00 0. -1.
<mgrwt>
<rscale>  1 0.30000000E+03</rscale>
<asrwt>0</asrwt>
<pdfrwt beam="1">  1        1 0.10267725E+00 0.30000000E+03</pdfrwt>
<pdfrwt beam="2">0</pdfrwt>
<totfact> 0.32924730E+01</totfact>
</mgrwt>
</event>
<event>
 6    1  0.1950139E-004  0.3000000E+03  0.7818608E-02  0.1093470E+00
          1   -1    0    0  502    0  0.00000000000E+00  0.00000000000E+00  0.28420804286E+02  0.28420804286E+02  0.00000000000E+00 0.  1.
         13   -1    0    0    0    0 -0.00000000000E+00 -0.00000000000E+00 -0.10000000000E+04  0.10000000000E+04  0.00000000000E+00 0.  1.
    9000005    2    1    2  501    0 -0.10046795209E+02 -0.56890003898E+01 -0.96131047809E+03  0.10129692872E+04  0.31914830197E+03 0.  0.
         13    1    3    3    0    0 -0.64645818604E+02  0.28214029718E+02 -0.25572898054E+02  0.75027238059E+02  0.00000000000E+00 0.  1.
          1    1    3    3  501    0  0.54599023395E+02 -0.33903030108E+02 -0.93573758004E+03  0.93794204912E+03  0.00000000000E+00 0.  1.
         21    1    1    2  502  501  0.10046795209E+02  0.56890003898E+01 -0.10268717620E+02  0.15451517109E+02  0.00000000000E+00 0.  1.
<mgrwt>
<rscale>  1 0.30000000E+03</rscale>
<asrwt>0</asrwt>
<pdfrwt beam="1">  1        1 0.10334860E+00 0.30000000E+03</pdfrwt>
<pdfrwt beam="2">0</pdfrwt>
<totfact> 0.32609562E+01</totfact>
</mgrwt>
</event>
<event>
 6    1  0.1950139E-004  0.3000000E+03  0.7818608E-02  0.1093470E+00
          1   -1    0    0  502    0  0.00000000000E+00  0.00000000000E+00  0.47084497251E+02  0.47084497251E+02  0.00000000000E+00 0.  1.
         13   -1    0    0    0    0 -0.00000000000E+00 -0.00000000000E+00 -0.10000000000E+04  0.10000000000E+04  0.00000000000E+00 0.  1.
    9000005    2    1    2  501    0  0.11424593775E+02  0.54838280872E+02 -0.92798260590E+03  0.98577048795E+03  0.32780173833E+03 0.  0.
         13    1    3    3    0    0 -0.19541991917E+02 -0.10960465750E+03 -0.66366059191E+03  0.67293421049E+03  0.00000000000E+00 0.  1.
          1    1    3    3  501    0  0.30966585692E+02  0.16444293838E+03 -0.26432201400E+03  0.31283627746E+03  0.00000000000E+00 0.  1.
         21    1    1    2  502  501 -0.11424593775E+02 -0.54838280872E+02 -0.24932896847E+02  0.61314009305E+02  0.00000000000E+00 0. -1.
<mgrwt>
<rscale>  1 0.30000000E+03</rscale>
<asrwt>0</asrwt>
<pdfrwt beam="1">  1        1 0.17121671E+00 0.30000000E+03</pdfrwt>
<pdfrwt beam="2">0</pdfrwt>
<totfact> 0.14093059E+01</totfact>
</mgrwt>
</event>
<event>
 6    1  0.1950139E-004  0.3000000E+03  0.7818608E-02  0.1093470E+00
          1   -1    0    0  502    0  0.00000000000E+00  0.00000000000E+00  0.48780310696E+02  0.48780310696E+02  0.00000000000E+00 0.  1.
         13   -1    0    0    0    0 -0.00000000000E+00 -0.00000000000E+00 -0.10000000000E+04  0.10000000000E+04  0.00000000000E+00 0.  1.
    9000005    2    1    2  501    0 -0.55980844535E+01  0.81786055083E+02 -0.85864513079E+03  0.92512617110E+03  0.33446475818E+03 0.  0.
         13    1    3    3    0    0  0.21316001749E+02 -0.95804595530E+02 -0.81739596787E+02  0.12772726466E+03  0.00000000000E+00 0.  1.
          3    1    3    3  501    0 -0.26914086202E+02  0.17759065061E+03 -0.77690553400E+03  0.79739890643E+03  0.00000000000E+00 0.  1.
         21    1    1    2  502  501  0.55980844535E+01 -0.81786055083E+02 -0.92574558517E+02  0.12365413960E+03  0.00000000000E+00 0.  1.
<mgrwt>
<rscale>  1 0.30000000E+03</rscale>
<asrwt>0</asrwt>
<pdfrwt beam="1">  1        1 0.17738332E+00 0.30000000E+03</pdfrwt>
<pdfrwt beam="2">0</pdfrwt>
<totfact> 0.13152718E+01</totfact>
</mgrwt>
</event>
<event>
 6    1  0.1950139E-004  0.3000000E+03  0.7818608E-02  0.1093470E+00
          1   -1    0    0  502    0  0.00000000000E+00  0.00000000000E+00  0.66891380934E+02  0.66891380934E+02  0.00000000000E+00 0.  1.
         13   -1    0    0    0    0 -0.00000000000E+00 -0.00000000000E+00 -0.10000000000E+04  0.10000000000E+04  0.00000000000E+00 0.  1.
    9000005    2    1    2  501    0  0.14248795625E+02  0.35492746931E+01 -0.96932157660E+03  0.10278144847E+04  0.34147133192E+03 0.  0.
         13    1    3    3    0    0  0.14266155263E+03 -0.63201163940E+02 -0.25477785122E+03  0.29876154236E+03  0.00000000000E+00 0.  1.
          1    1    3    3  501    0 -0.12841275701E+03  0.66750438634E+02 -0.71454372538E+03  0.72905294231E+03  0.00000000000E+00 0.  1.
         21    1    1    2  502  501 -0.14248795625E+02 -0.35492746931E+01  0.36212957534E+02  0.39076896256E+02  0.00000000000E+00 0.  1.
<mgrwt>
<rscale>  1 0.30000000E+03</rscale>
<asrwt>0</asrwt>
<pdfrwt beam="1">  1        1 0.24324190E+00 0.30000000E+03</pdfrwt>
<pdfrwt beam="2">0</pdfrwt>
<totfact> 0.64154777E+00</totfact>
</mgrwt>
</event>
<event>
 6    1  0.1950139E-004  0.3000000E+03  0.7818608E-02  0.1093470E+00
          1   -1    0    0  502    0  0.00000000000E+00  0.00000000000E+00  0.34156353419E+02  0.34156353419E+02  0.00000000000E+00 0.  1.
         13   -1    0    0    0    0 -0.00000000000E+00 -0.00000000000E+00 -0.10000000000E+04  0.10000000000E+04  0.00000000000E+00 0.  1.
    9000005    2    1    2  501    0 -0.12187361527E+02  0.21764871517E+01 -0.96849311985E+03  0.10214958406E+04  0.32453283378E+03 0.  0.
         13    1    3    3    0    0 -0.77185122111E+02  0.61128111449E+02 -0.91163293028E+03  0.91693445167E+03  0.00000000000E+00 0.  1.
          1    1    3    3  501    0  0.64997760584E+02 -0.58951624298E+02 -0.56860189567E+02  0.10456138889E+03  0.00000000000E+00 0.  1.
         21    1    1    2  502  501  0.12187361527E+02 -0.21764871517E+01  0.26494732699E+01  0.12660512861E+02  0.00000000000E+00 0. -1.
<mgrwt>
<rscale>  1 0.30000000E+03</rscale>
<asrwt>0</asrwt>
<pdfrwt beam="1">  1        1 0.12420518E+00 0.30000000E+03</pdfrwt>
<pdfrwt beam="2">0</pdfrwt>
<totfact> 0.24622818E+01</totfact>
</mgrwt>
</event>
<event>
 6    1  0.1950139E-004  0.3000000E+03  0.7818608E-02  0.1093470E+00
          1   -1    0    0  502    0  0.00000000000E+00  0.00000000000E+00  0.31654825673E+02  0.31654825673E+02  0.00000000000E+00 0.  1.
         13   -1    0    0    0    0 -0.00000000000E+00 -0.00000000000E+00 -0.10000000000E+04  0.10000000000E+04  0.00000000000E+00 0.  1.
    9000005    2    1    2  501    0  0.19378595421E+02  0.84689474992E+01 -0.93404227209E+03  0.99135666028E+03  0.33152045004E+03 0.  0.
         13    1    3    3    0    0  0.10861427344E+02 -0.16087499805E+03 -0.41001241534E+03  0.44057793446E+03  0.00000000000E+00 0.  1.
          1    1    3    3  501    0  0.85171680773E+01  0.16934394555E+03 -0.52402985675E+03  0.55077872582E+03  0.00000000000E+00 0.  1.
         21    1    1    2  502  501 -0.19378595421E+02 -0.84689474992E+01 -0.34302902239E+02  0.40298165396E+02  0.00000000000E+00 0.  1.
<mgrwt>
<rscale>  1 0.30000000E+03</rscale>
<asrwt>0</asrwt>
<pdfrwt beam="1">  1        1 0.11510870E+00 0.30000000E+03</pdfrwt>
<pdfrwt beam="2">0</pdfrwt>
<totfact> 0.27725902E+01</totfact>
</mgrwt>
</event>
<event>
 6    1  0.1950139E-004  0.3000000E+03  0.7818608E-02  0.1093470E+00
          1   -1    0    0  502    0  0.00000000000E+00  0.00000000000E+00  0.52732774434E+02  0.52732774434E+02  0.00000000000E+00 0.  1.
         13   -1    0    0    0    0 -0.00000000000E+00 -0.00000000000E+00 -0.10000000000E+04  0.10000000000E+04  0.00000000000E+00 0.  1.
    9000005    2    1    2  501    0 -0.61943629151E+02  0.88459540308E+01 -0.93284831912E+03  0.98852086776E+03  0.32101753134E+03 0.  0.
         13    1    3    3    0    0 -0.18418414722E+03  0.24897421234E+02 -0.70910428241E+03  0.73305699983E+03  0.00000000000E+00 0.  1.
          1    1    3    3  501    0  0.12224051807E+03 -0.16051467203E+02 -0.22374403671E+03  0.25546386793E+03  0.00000000000E+00 0.  1.
         21    1    1    2  502  501  0.61943629151E+02 -0.88459540308E+01 -0.14418906447E+02  0.64211906670E+02  0.00000000000E+00 0. -1.
<mgrwt>
<rscale>  1 0.30000000E+03</rscale>
<asrwt>0</asrwt>
<pdfrwt beam="1">  1        1 0.19175595E+00 0.30000000E+03</pdfrwt>
<pdfrwt beam="2">0</pdfrwt>
<totfact> 0.11214410E+01</totfact>
</mgrwt>
</event>
<event>
 6    1  0.1950139E-004  0.3000000E+03  0.7818608E-02  0.1093470E+00
          1   -1    0    0  502    0  0.00000000000E+00  0.00000000000E+00  0.33360960530E+02  0.33360960530E+02  0.00000000000E+00 0.  1.
         13   -1    0    0    0    0 -0.00000000000E+00 -0.00000000000E+00 -0.10000000000E+04  0.10000000000E+04  0.00000000000E+00 0.  1.
    9000005    2    1    2  501    0 -0.72016117300E+02 -0.39118182674E+02 -0.83002986962E+03  0.87405427940E+03  0.26135176583E+03 0.  0.
         13    1    3    3    0    0 -0.16676845617E+03 -0.53044690046E+01 -0.42160261537E+03  0.45341881374E+03  0.00000000000E+00 0.  1.
          1    1    3    3  501    0  0.94752338875E+02 -0.33813713669E+02 -0.40842725425E+03  0.42063546566E+03  0.00000000000E+00 0.  1.
         21    1    1    2  502  501  0.72016117300E+02  0.39118182674E+02 -0.13660916985E+03  0.15930668113E+03  0.00000000000E+00 0.  1.
<mgrwt>
<rscale>  1 0.30000000E+03</rscale>
<asrwt>0</asrwt>
<pdfrwt beam="1">  1        1 0.12131284E+00 0.30000000E+03</pdfrwt>
<pdfrwt beam="2">0</pdfrwt>
<totfact> 0.25556714E+01</totfact>
</mgrwt>
</event>
<event>
 6    1  0.1950139E-004  0.3000000E+03  0.7818608E-02  0.1093470E+00
          1   -1    0    0  502    0  0.00000000000E+00  0.00000000000E+00  0.35425400950E+02  0.35425400950E+02  0.00000000000E+00 0.  1.
         13   -1    0    0    0    0 -0.00000000000E+00 -0.00000000000E+00 -0.10000000000E+04  0.10000000000E+04  0.00000000000E+00 0.  1.
    9000005    2    1    2  501    0 -0.34921420592E+01 -0.15778475131E+02 -0.96544082508E+03  0.10192419007E+04  0.32636928475E+03 0.  0.
         13    1    3    3    0    0 -0.13173600593E+03  0.90798592295E+02 -0.47894848494E+03  0.50496575216E+03  0.00000000000E+00 0.  1.
          1    1    3    3  501    0  0.12824386387E+03 -0.10657706743E+03 -0.48649234014E+03  0.51427614852E+03  0.00000000000E+00 0.  1.
         21    1    1    2  502  501  0.34921420592E+01  0.15778475131E+02  0.86622603011E+00  0.16183500275E+02  0.00000000000E+00 0. -1.
<mgrwt>
<rscale>  1 0.30000000E+03</rscale>
<asrwt>0</asrwt>
<pdfrwt beam="1">  1        1 0.12881991E+00 0.30000000E+03</pdfrwt>
<pdfrwt beam="2">0</pdfrwt>
<totfact> 0.23221561E+01</totfact>
</mgrwt>
</event>
<event>
 6    1  0.1950139E-004  0.3000000E+03  0.7818608E-02  0.1093470E+00
          1   -1    0    0  502    0  0.00000000000E+00  0.00000000000E+00  0.27687625338E+02  0.27687625338E+02  0.00000000000E+00 0.  1.
         13   -1    0    0    0    0 -0.00000000000E+00 -0.00000000000E+00 -0.10000000000E+04  0.10000000000E+04  0.00000000000E+00 0.  1.
    9000005    2    1    2  501    0 -0.72474422502E+01  0.44402139205E+01 -0.95016075231E+03  0.10039613679E+04  0.32413073304E+03 0.  0.
         13    1    3    3    0    0  0.28106389977E+02  0.11957051687E+03 -0.80958359235E+03  0.81884838075E+03  0.00000000000E+00 0.  1.
          3    1    3    3  501    0 -0.35353832227E+02 -0.11513030295E+03 -0.14057715996E+03  0.18511298716E+03  0.00000000000E+00 0.  1.
         21    1    1    2  502  501  0.72474422502E+01 -0.44402139205E+01 -0.22151622352E+02  0.23726257431E+02  0.00000000000E+00 0. -1.
<mgrwt>
<rscale>  1 0.30000000E+03</rscale>
<asrwt>0</asrwt>
<pdfrwt beam="1">  1        1 0.10068249E+00 0.30000000E+03</pdfrwt>
<pdfrwt beam="2">0</pdfrwt>
<totfact> 0.33887901E+01</totfact>
</mgrwt>
</event>
<event>
 6    1  0.1950139E-004  0.3000000E+03  0.7818608E-02  0.1093470E+00
          1   -1    0    0  502    0  0.00000000000E+00  0.00000000000E+00  0.34526332598E+02  0.34526332598E+02  0.00000000000E+00 0.  1.
         13   -1    0    0    0    0 -0.00000000000E+00 -0.00000000000E+00 -0.10000000000E+04  0.10000000000E+04  0.00000000000E+00 0.  1.
    9000005    2    1    2  501    0 -0.45228016858E+01  0.12922207922E+02 -0.96594078614E+03  0.10208275227E+04  0.32993906950E+03 0.  0.
         13    1    3    3    0    0 -0.35622771124E+02  0.30681301548E+02  0.67337756823E+01  0.47493871417E+02  0.00000000000E+00 0.  1.
          3    1    3    3  501    0  0.31099969439E+02 -0.17759093625E+02 -0.97267456182E+03  0.97333365128E+03  0.00000000000E+00 0.  1.
         21    1    1    2  502  501  0.45228016858E+01 -0.12922207922E+02  0.46711873858E+00  0.13698809897E+02  0.00000000000E+00 0. -1.
<mgrwt>
<rscale>  1 0.30000000E+03</rscale>
<asrwt>0</asrwt>
<pdfrwt beam="1">  1        1 0.12555057E+00 0.30000000E+03</pdfrwt>
<pdfrwt beam="2">0</pdfrwt>
<totfact> 0.24203416E+01</totfact>
</mgrwt>
</event>
<event>
 6    1  0.1950139E-004  0.3000000E+03  0.7818608E-02  0.1093470E+00
          1   -1    0    0  502    0  0.00000000000E+00  0.00000000000E+00  0.30988506880E+02  0.30988506880E+02  0.00000000000E+00 0.  1.
         13   -1    0    0    0    0 -0.00000000000E+00 -0.00000000000E+00 -0.10000000000E+04  0.10000000000E+04  0.00000000000E+00 0.  1.
    9000005    2    1    2  501    0 -0.11223478695E+02 -0.77329466589E+01 -0.96876330751E+03  0.10173566862E+04  0.31036513353E+03 0.  0.
         13    1    3    3    0    0 -0.12649756530E+03 -0.12529178161E+02 -0.81641424657E+03  0.82625107343E+03  0.00000000000E+00 0.  1.
          3    1    3    3  501    0  0.11527408660E+03  0.47962315022E+01 -0.15234906094E+03  0.19110561281E+03  0.00000000000E+00 0.  1.
         21    1    1    2  502  501  0.11223478695E+02  0.77329466589E+01 -0.24818561207E+00  0.13631820647E+02  0.00000000000E+00 0.  1.
<mgrwt>
<rscale>  1 0.30000000E+03</rscale>
<asrwt>0</asrwt>
<pdfrwt beam="1">  1        1 0.11268572E+00 0.30000000E+03</pdfrwt>
<pdfrwt beam="2">0</pdfrwt>
<totfact> 0.28642509E+01</totfact>
</mgrwt>
</event>
<event>
 6    1  0.1950139E-004  0.3000000E+03  0.7818608E-02  0.1093470E+00
          1   -1    0    0  502    0  0.00000000000E+00  0.00000000000E+00  0.47220758406E+02  0.47220758406E+02  0.00000000000E+00 0.  1.
         13   -1    0    0    0    0 -0.00000000000E+00 -0.00000000000E+00 -0.10000000000E+04  0.10000000000E+04  0.00000000000E+00 0.  1.
    9000005    2    1    2  501    0  0.14629384824E+02 -0.37403599364E+01 -0.97039419460E+03  0.10240195567E+04  0.32668509351E+03 0.  0.
         13    1    3    3    0    0  0.12126124842E+03  0.50526012022E+02 -0.17055777111E+03  0.21528381626E+03  0.00000000000E+00 0.  1.
          1    1    3    3  501    0 -0.10663186359E+03 -0.54266371958E+02 -0.79983642349E+03  0.80873574040E+03  0.00000000000E+00 0.  1.
         21    1    1    2  502  501 -0.14629384824E+02  0.37403599364E+01  0.17614953008E+02  0.23201201741E+02  0.00000000000E+00 0.  1.
<mgrwt>
<rscale>  1 0.30000000E+03</rscale>
<asrwt>0</asrwt>
<pdfrwt beam="1">  1        1 0.17171221E+00 0.30000000E+03</pdfrwt>
<pdfrwt beam="2">0</pdfrwt>
<totfact> 0.14014848E+01</totfact>
</mgrwt>
</event>
<event>
 6    1  0.1950139E-004  0.3000000E+03  0.7818608E-02  0.1093470E+00
          1   -1    0    0  502    0  0.00000000000E+00  0.00000000000E+00  0.28950707784E+02  0.28950707784E+02  0.00000000000E+00 0.  1.
         13   -1    0    0    0    0 -0.00000000000E+00 -0.00000000000E+00 -0.10000000000E+04  0.10000000000E+04  0.00000000000E+00 0.  1.
    9000005    2    1    2  501    0 -0.16976178192E+00 -0.78513580443E+01 -0.94341663213E+03  0.10002237771E+04  0.33219119477E+03 0.  0.
         13    1    3    3    0    0  0.52556440995E+02 -0.11702441295E+03 -0.14903048398E+03  0.19663920736E+03  0.00000000000E+00 0.  1.
          3    1    3    3  501    0 -0.52726202777E+02  0.10917305490E+03 -0.79438614815E+03  0.80358456976E+03  0.00000000000E+00 0.  1.
         21    1    1    2  502  501  0.16976178192E+00  0.78513580443E+01 -0.27632660087E+02  0.28726930669E+02  0.00000000000E+00 0. -1.
<mgrwt>
<rscale>  1 0.30000000E+03</rscale>
<asrwt>0</asrwt>
<pdfrwt beam="1">  1        1 0.10527552E+00 0.30000000E+03</pdfrwt>
<pdfrwt beam="2">0</pdfrwt>
<totfact> 0.31728938E+01</totfact>
</mgrwt>
</event>
<event>
 6    1  0.1950139E-004  0.3000000E+03  0.7818608E-02  0.1093470E+00
          3   -1    0    0  502    0  0.00000000000E+00  0.00000000000E+00  0.32442984434E+02  0.32442984434E+02  0.00000000000E+00 0.  1.
         13   -1    0    0    0    0 -0.00000000000E+00 -0.00000000000E+00 -0.10000000000E+04  0.10000000000E+04  0.00000000000E+00 0.  1.
    9000005    2    1    2  501    0 -0.18525089303E+01 -0.18228456701E+02 -0.96089111577E+03  0.10129457374E+04  0.32001815896E+03 0.  0.
         13    1    3    3    0    0  0.13239057811E+03 -0.37288926171E+02 -0.74801852147E+03  0.76055863524E+03  0.00000000000E+00 0.  1.
          3    1    3    3  501    0 -0.13424308704E+03  0.19060469470E+02 -0.21287259430E+03  0.25238710213E+03  0.00000000000E+00 0.  1.
         21    1    1    2  502  501  0.18525089303E+01  0.18228456701E+02 -0.66658997954E+01  0.19497247065E+02  0.00000000000E+00 0. -1.
<mgrwt>
<rscale>  1 0.30000000E+03</rscale>
<asrwt>0</asrwt>
<pdfrwt beam="1">  1        3 0.11797474E+00 0.30000000E+03</pdfrwt>
<pdfrwt beam="2">0</pdfrwt>
<totfact> 0.24412921E+00</totfact>
</mgrwt>
</event>
<event>
 6    1  0.1950139E-004  0.3000000E+03  0.7818608E-02  0.1093470E+00
          1   -1    0    0  502    0  0.00000000000E+00  0.00000000000E+00  0.35372105338E+02  0.35372105338E+02  0.00000000000E+00 0.  1.
         13   -1    0    0    0    0 -0.00000000000E+00 -0.00000000000E+00 -0.10000000000E+04  0.10000000000E+04  0.00000000000E+00 0.  1.
    9000005    2    1    2  501    0  0.31169007183E+02 -0.37246374574E+02 -0.91159278803E+03  0.96345881058E+03  0.30804653718E+03 0.  0.
         13    1    3    3    0    0 -0.87070597033E+02  0.83347236469E+02 -0.56742840284E+03  0.58008882341E+03  0.00000000000E+00 0.  1.
          3    1    3    3  501    0  0.11823960422E+03 -0.12059361104E+03 -0.34416438519E+03  0.38336998717E+03  0.00000000000E+00 0.  1.
         21    1    1    2  502  501 -0.31169007183E+02  0.37246374574E+02 -0.53035106632E+02  0.71913294759E+02  0.00000000000E+00 0.  1.
<mgrwt>
<rscale>  1 0.30000000E+03</rscale>
<asrwt>0</asrwt>
<pdfrwt beam="1">  1        1 0.12862611E+00 0.30000000E+03</pdfrwt>
<pdfrwt beam="2">0</pdfrwt>
<totfact> 0.23278322E+01</totfact>
</mgrwt>
</event>
<event>
 6    1  0.1950139E-004  0.3000000E+03  0.7818608E-02  0.1093470E+00
          1   -1    0    0  502    0  0.00000000000E+00  0.00000000000E+00  0.32983866244E+02  0.32983866244E+02  0.00000000000E+00 0.  1.
         13   -1    0    0    0    0 -0.00000000000E+00 -0.00000000000E+00 -0.10000000000E+04  0.10000000000E+04  0.00000000000E+00 0.  1.
    9000005    2    1    2  501    0 -0.17141333924E+01 -0.78089796926E+01 -0.94349936407E+03  0.10081452497E+04  0.35510825955E+03 0.  0.
         13    1    3    3    0    0  0.81386647749E+02  0.13205247967E+03 -0.68783205065E+03  0.70510607267E+03  0.00000000000E+00 0.  1.
          3    1    3    3  501    0 -0.83100781142E+02 -0.13986145936E+03 -0.25566731342E+03  0.30303917700E+03  0.00000000000E+00 0.  1.
         21    1    1    2  502  501  0.17141333924E+01  0.78089796926E+01 -0.23516769686E+02  0.24838616579E+02  0.00000000000E+00 0.  1.
<mgrwt>
<rscale>  1 0.30000000E+03</rscale>
<asrwt>0</asrwt>
<pdfrwt beam="1">  1        1 0.11994158E+00 0.30000000E+03</pdfrwt>
<pdfrwt beam="2">0</pdfrwt>
<totfact> 0.26015802E+01</totfact>
</mgrwt>
</event>
<event>
 6    1  0.1950139E-004  0.3000000E+03  0.7818608E-02  0.1093470E+00
          1   -1    0    0  502    0  0.00000000000E+00  0.00000000000E+00  0.28542445835E+02  0.28542445835E+02  0.00000000000E+00 0.  1.
         13   -1    0    0    0    0 -0.00000000000E+00 -0.00000000000E+00 -0.10000000000E+04  0.10000000000E+04  0.00000000000E+00 0.  1.
    9000005    2    1    2  501    0  0.16616729541E+02  0.45820079270E+01 -0.94563429796E+03  0.99749488461E+03  0.31697745793E+03 0.  0.
         13    1    3    3    0    0  0.11677657569E+03  0.27498775596E+02 -0.84568589325E+03  0.85415313693E+03  0.00000000000E+00 0.  1.
          1    1    3    3  501    0 -0.10015984615E+03 -0.22916767669E+02 -0.99948404713E+02  0.14334174767E+03  0.00000000000E+00 0.  1.
         21    1    1    2  502  501 -0.16616729541E+02 -0.45820079270E+01 -0.25823256204E+02  0.31047561229E+02  0.00000000000E+00 0. -1.
<mgrwt>
<rscale>  1 0.30000000E+03</rscale>
<asrwt>0</asrwt>
<pdfrwt beam="1">  1        1 0.10379093E+00 0.30000000E+03</pdfrwt>
<pdfrwt beam="2">0</pdfrwt>
<totfact> 0.32404302E+01</totfact>
</mgrwt>
</event>
<event>
 6    1  0.1950139E-004  0.3000000E+03  0.7818608E-02  0.1093470E+00
          3   -1    0    0  502    0  0.00000000000E+00  0.00000000000E+00  0.28398931603E+02  0.28398931603E+02  0.00000000000E+00 0.  1.
         13   -1    0    0    0    0 -0.00000000000E+00 -0.00000000000E+00 -0.10000000000E+04  0.10000000000E+04  0.00000000000E+00 0.  1.
    9000005    2    1    2  501    0  0.25684060403E+01  0.10486002808E+02 -0.95860752443E+03  0.10115055853E+04  0.32264316239E+03 0.  0.
         13    1    3    3    0    0 -0.63749008600E+01  0.80424606883E+02 -0.39733850462E+02  0.89930726816E+02  0.00000000000E+00 0.  1.
          3    1    3    3  501    0  0.89433069003E+01 -0.69938604075E+02 -0.91887367397E+03  0.92157485849E+03  0.00000000000E+00 0.  1.
         21    1    1    2  502  501 -0.25684060403E+01 -0.10486002808E+02 -0.12993543962E+02  0.16893346298E+02  0.00000000000E+00 0.  1.
<mgrwt>
<rscale>  1 0.30000000E+03</rscale>
<asrwt>0</asrwt>
<pdfrwt beam="1">  1        3 0.10326906E+00 0.30000000E+03</pdfrwt>
<pdfrwt beam="2">0</pdfrwt>
<totfact> 0.35952553E+00</totfact>
</mgrwt>
</event>
<event>
 6    1  0.1950139E-004  0.3000000E+03  0.7818608E-02  0.1093470E+00
          1   -1    0    0  502    0  0.00000000000E+00  0.00000000000E+00  0.28891002638E+02  0.28891002638E+02  0.00000000000E+00 0.  1.
         13   -1    0    0    0    0 -0.00000000000E+00 -0.00000000000E+00 -0.10000000000E+04  0.10000000000E+04  0.00000000000E+00 0.  1.
    9000005    2    1    2  501    0  0.34630113392E+01 -0.96276718486E+01 -0.94202002782E+03  0.99805510372E+03  0.32955663056E+03 0.  0.
         13    1    3    3    0    0 -0.48640187176E+02 -0.47195223903E+02 -0.15774758455E+02  0.69585199375E+02  0.00000000000E+00 0.  1.
          1    1    3    3  501    0  0.52103198515E+02  0.37567552054E+02 -0.92624526936E+03  0.92846990435E+03  0.00000000000E+00 0.  1.
         21    1    1    2  502  501 -0.34630113392E+01  0.96276718486E+01 -0.29088969542E+02  0.30835898913E+02  0.00000000000E+00 0. -1.
<mgrwt>
<rscale>  1 0.30000000E+03</rscale>
<asrwt>0</asrwt>
<pdfrwt beam="1">  1        1 0.10505841E+00 0.30000000E+03</pdfrwt>
<pdfrwt beam="2">0</pdfrwt>
<totfact> 0.31826424E+01</totfact>
</mgrwt>
</event>
<event>
 6    1  0.1950139E-004  0.3000000E+03  0.7818608E-02  0.1093470E+00
          1   -1    0    0  502    0  0.00000000000E+00  0.00000000000E+00  0.32848745193E+02  0.32848745193E+02  0.00000000000E+00 0.  1.
         13   -1    0    0    0    0 -0.00000000000E+00 -0.00000000000E+00 -0.10000000000E+04  0.10000000000E+04  0.00000000000E+00 0.  1.
    9000005    2    1    2  501    0 -0.67619948483E+01 -0.86064874940E+01 -0.95901206841E+03  0.10192090034E+04  0.34491020429E+03 0.  0.
         13    1    3    3    0    0  0.52361235633E+02  0.14181427789E+03 -0.68147684535E+03  0.69804274880E+03  0.00000000000E+00 0.  1.
          3    1    3    3  501    0 -0.59123230481E+02 -0.15042076539E+03 -0.27753522306E+03  0.32116625458E+03  0.00000000000E+00 0.  1.
         21    1    1    2  502  501  0.67619948483E+01  0.86064874940E+01 -0.81391863952E+01  0.13639741804E+02  0.00000000000E+00 0.  1.
<mgrwt>
<rscale>  1 0.30000000E+03</rscale>
<asrwt>0</asrwt>
<pdfrwt beam="1">  1        1 0.11945023E+00 0.30000000E+03</pdfrwt>
<pdfrwt beam="2">0</pdfrwt>
<totfact> 0.26182986E+01</totfact>
</mgrwt>
</event>
<event>
 6    1  0.1950139E-004  0.3000000E+03  0.7818608E-02  0.1093470E+00
          1   -1    0    0  502    0  0.00000000000E+00  0.00000000000E+00  0.68117141727E+02  0.68117141727E+02  0.00000000000E+00 0.  1.
         13   -1    0    0    0    0 -0.00000000000E+00 -0.00000000000E+00 -0.10000000000E+04  0.10000000000E+04  0.00000000000E+00 0.  1.
    9000005    2    1    2  501    0  0.50841839070E+02 -0.14220613323E+03 -0.75139817995E+03  0.83278291974E+03  0.32576170685E+03 0.  0.
         13    1    3    3    0    0  0.10948565578E+03 -0.16307967206E+03 -0.74470784129E+03  0.77017651038E+03  0.00000000000E+00 0.  1.
          1    1    3    3  501    0 -0.58643816709E+02  0.20873538830E+02 -0.66903386585E+01  0.62606409360E+02  0.00000000000E+00 0.  1.
         21    1    1    2  502  501 -0.50841839070E+02  0.14220613323E+03 -0.18048467832E+03  0.23533422199E+03  0.00000000000E+00 0.  1.
<mgrwt>
<rscale>  1 0.30000000E+03</rscale>
<asrwt>0</asrwt>
<pdfrwt beam="1">  1        1 0.24769922E+00 0.30000000E+03</pdfrwt>
<pdfrwt beam="2">0</pdfrwt>
<totfact> 0.61151471E+00</totfact>
</mgrwt>
</event>
<event>
 6    1  0.1950139E-004  0.3000000E+03  0.7818608E-02  0.1093470E+00
          1   -1    0    0  502    0  0.00000000000E+00  0.00000000000E+00  0.33280530457E+02  0.33280530457E+02  0.00000000000E+00 0.  1.
         13   -1    0    0    0    0 -0.00000000000E+00 -0.00000000000E+00 -0.10000000000E+04  0.10000000000E+04  0.00000000000E+00 0.  1.
    9000005    2    1    2  501    0 -0.10773487035E+02  0.11492442173E+02 -0.96220230026E+03  0.10168930637E+04  0.32861845965E+03 0.  0.
         13    1    3    3    0    0 -0.86526157405E+02  0.85386913648E+02 -0.86404374477E+03  0.87255331861E+03  0.00000000000E+00 0.  1.
          3    1    3    3  501    0  0.75752670370E+02 -0.73894471474E+02 -0.98158555492E+02  0.14433974504E+03  0.00000000000E+00 0.  1.
         21    1    1    2  502  501  0.10773487035E+02 -0.11492442173E+02 -0.45171692801E+01  0.16387466805E+02  0.00000000000E+00 0.  1.
<mgrwt>
<rscale>  1 0.30000000E+03</rscale>
<asrwt>0</asrwt>
<pdfrwt beam="1">  1        1 0.12102037E+00 0.30000000E+03</pdfrwt>
<pdfrwt beam="2">0</pdfrwt>
<totfact> 0.25653722E+01</totfact>
</mgrwt>
</event>
<event>
 6    1  0.1950139E-004  0.3000000E+03  0.7818608E-02  0.1093470E+00
          3   -1    0    0  502    0  0.00000000000E+00  0.00000000000E+00  0.33852683128E+02  0.33852683128E+02  0.00000000000E+00 0.  1.
         13   -1    0    0    0    0 -0.00000000000E+00 -0.00000000000E+00 -0.10000000000E+04  0.10000000000E+04  0.00000000000E+00 0.  1.
    9000005    2    1    2  501    0 -0.10359334328E+02  0.30442090547E+02 -0.94531349435E+03  0.99553708780E+03  0.31055185380E+03 0.  0.
         13    1    3    3    0    0  0.10991843278E+02  0.12549893192E+03 -0.84985149748E+03  0.85913815553E+03  0.00000000000E+00 0.  1.
          1    1    3    3  501    0 -0.21351177606E+02 -0.95056841369E+02 -0.95461996870E+02  0.13639893226E+03  0.00000000000E+00 0.  1.
         21    1    1    2  502  501  0.10359334328E+02 -0.30442090547E+02 -0.20833822526E+02  0.38315595331E+02  0.00000000000E+00 0. -1.
<mgrwt>
<rscale>  1 0.30000000E+03</rscale>
<asrwt>0</asrwt>
<pdfrwt beam="1">  1        3 0.12310093E+00 0.30000000E+03</pdfrwt>
<pdfrwt beam="2">0</pdfrwt>
<totfact> 0.21289724E+00</totfact>
</mgrwt>
</event>
<event>
 6    1  0.1950139E-004  0.3000000E+03  0.7818608E-02  0.1093470E+00
          1   -1    0    0  502    0  0.00000000000E+00  0.00000000000E+00  0.29203881073E+02  0.29203881073E+02  0.00000000000E+00 0.  1.
         13   -1    0    0    0    0 -0.00000000000E+00 -0.00000000000E+00 -0.10000000000E+04  0.10000000000E+04  0.00000000000E+00 0.  1.
    9000005    2    1    2  501    0  0.35592894310E+01  0.13323486139E+02 -0.95558074720E+03  0.10086687560E+04  0.32262658155E+03 0.  0.
         13    1    3    3    0    0 -0.69199145580E+02 -0.70379614431E+02 -0.84944654760E+03  0.85516153393E+03  0.00000000000E+00 0.  1.
          1    1    3    3  501    0  0.72758435011E+02  0.83703100570E+02 -0.10613419960E+03  0.15350722210E+03  0.00000000000E+00 0.  1.
         21    1    1    2  502  501 -0.35592894310E+01 -0.13323486139E+02 -0.15215371723E+02  0.20535125050E+02  0.00000000000E+00 0.  1.
<mgrwt>
<rscale>  1 0.30000000E+03</rscale>
<asrwt>0</asrwt>
<pdfrwt beam="1">  1        1 0.10619616E+00 0.30000000E+03</pdfrwt>
<pdfrwt beam="2">0</pdfrwt>
<totfact> 0.31320312E+01</totfact>
</mgrwt>
</event>
<event>
 6    1  0.1950139E-004  0.3000000E+03  0.7818608E-02  0.1093470E+00
          1   -1    0    0  502    0  0.00000000000E+00  0.00000000000E+00  0.39016280519E+02  0.39016280519E+02  0.00000000000E+00 0.  1.
         13   -1    0    0    0    0 -0.00000000000E+00 -0.00000000000E+00 -0.10000000000E+04  0.10000000000E+04  0.00000000000E+00 0.  1.
    9000005    2    1    2  501    0  0.37174318243E+02 -0.50256316651E+01 -0.93657849622E+03  0.99426360649E+03  0.33162275660E+03 0.  0.
         13    1    3    3    0    0 -0.52651004317E+02  0.79236785418E+02 -0.67857700484E+02  0.11685573984E+03  0.00000000000E+00 0.  1.
          3    1    3    3  501    0  0.89825322560E+02 -0.84262417084E+02 -0.86872079574E+03  0.87740786665E+03  0.00000000000E+00 0.  1.
         21    1    1    2  502  501 -0.37174318243E+02  0.50256316651E+01 -0.24405223259E+02  0.44752674030E+02  0.00000000000E+00 0. -1.
<mgrwt>
<rscale>  1 0.30000000E+03</rscale>
<asrwt>0</asrwt>
<pdfrwt beam="1">  1        1 0.14187768E+00 0.30000000E+03</pdfrwt>
<pdfrwt beam="2">0</pdfrwt>
<totfact> 0.19780083E+01</totfact>
</mgrwt>
</event>
<event>
 6    1  0.1950139E-004  0.3000000E+03  0.7818608E-02  0.1093470E+00
          1   -1    0    0  502    0  0.00000000000E+00  0.00000000000E+00  0.39788473379E+02  0.39788473379E+02  0.00000000000E+00 0.  1.
         13   -1    0    0    0    0 -0.00000000000E+00 -0.00000000000E+00 -0.10000000000E+04  0.10000000000E+04  0.00000000000E+00 0.  1.
    9000005    2    1    2  501    0  0.19914956315E+02  0.16612106500E+02 -0.96042000891E+03  0.10138537277E+04  0.32375950971E+03 0.  0.
         13    1    3    3    0    0  0.68582815055E+02  0.15884777189E+03 -0.46597198494E+03  0.49705744930E+03  0.00000000000E+00 0.  1.
          1    1    3    3  501    0 -0.48667858740E+02 -0.14223566539E+03 -0.49444802397E+03  0.51679627843E+03  0.00000000000E+00 0.  1.
         21    1    1    2  502  501 -0.19914956315E+02 -0.16612106500E+02  0.20848229040E+00  0.25934745656E+02  0.00000000000E+00 0.  1.
<mgrwt>
<rscale>  1 0.30000000E+03</rscale>
<asrwt>0</asrwt>
<pdfrwt beam="1">  1        1 0.14468566E+00 0.30000000E+03</pdfrwt>
<pdfrwt beam="2">0</pdfrwt>
<totfact> 0.19127540E+01</totfact>
</mgrwt>
</event>
<event>
 6    1  0.1950139E-004  0.3000000E+03  0.7818608E-02  0.1093470E+00
          1   -1    0    0  502    0  0.00000000000E+00  0.00000000000E+00  0.33231211916E+02  0.33231211916E+02  0.00000000000E+00 0.  1.
         13   -1    0    0    0    0 -0.00000000000E+00 -0.00000000000E+00 -0.10000000000E+04  0.10000000000E+04  0.00000000000E+00 0.  1.
    9000005    2    1    2  501    0  0.23081218215E+01 -0.97298225883E+01 -0.96877423948E+03  0.10230322556E+04  0.32859012784E+03 0.  0.
         13    1    3    3    0    0 -0.27165132422E+02 -0.62411498834E+02 -0.18085421950E+02  0.70428844186E+02  0.00000000000E+00 0.  1.
          3    1    3    3  501    0  0.29473254244E+02  0.52681676246E+02 -0.95068881753E+03  0.95260341145E+03  0.00000000000E+00 0.  1.
         21    1    1    2  502  501 -0.23081218215E+01  0.97298225883E+01  0.20054513951E+01  0.10198956282E+02  0.00000000000E+00 0. -1.
<mgrwt>
<rscale>  1 0.30000000E+03</rscale>
<asrwt>0</asrwt>
<pdfrwt beam="1">  1        1 0.12084103E+00 0.30000000E+03</pdfrwt>
<pdfrwt beam="2">0</pdfrwt>
<totfact> 0.25713448E+01</totfact>
</mgrwt>
</event>
<event>
 6    1  0.1950139E-004  0.3000000E+03  0.7818608E-02  0.1093470E+00
          1   -1    0    0  502    0  0.00000000000E+00  0.00000000000E+00  0.14912278776E+02  0.14912278776E+02  0.00000000000E+00 0.  1.
         13   -1    0    0    0    0 -0.00000000000E+00 -0.00000000000E+00 -0.10000000000E+04  0.10000000000E+04  0.00000000000E+00 0.  1.
    9000005    2    1    2  501    0  0.12031181432E+02 -0.20154115327E+02 -0.97376525969E+03  0.98885204420E+03  0.17046596913E+03 0.  0.
         13    1    3    3    0    0  0.11773252331E+02  0.68173022670E+02 -0.63513613561E+03  0.63889285585E+03  0.00000000000E+00 0.  1.
          3    1    3    3  501    0  0.25792910136E+00 -0.88327137997E+02 -0.33862912408E+03  0.34995918835E+03  0.00000000000E+00 0.  1.
         21    1    1    2  502  501 -0.12031181432E+02  0.20154115327E+02 -0.11322461530E+02  0.26060234580E+02  0.00000000000E+00 0.  1.
<mgrwt>
<rscale>  1 0.30000000E+03</rscale>
<asrwt>0</asrwt>
<pdfrwt beam="1">  1        1 0.54226583E-01 0.30000000E+03</pdfrwt>
<pdfrwt beam="2">0</pdfrwt>
<totfact> 0.79295953E+01</totfact>
</mgrwt>
</event>
<event>
 6    1  0.1950139E-004  0.3000000E+03  0.7818608E-02  0.1093470E+00
          1   -1    0    0  502    0  0.00000000000E+00  0.00000000000E+00  0.29640855243E+02  0.29640855243E+02  0.00000000000E+00 0.  1.
         13   -1    0    0    0    0 -0.00000000000E+00 -0.00000000000E+00 -0.10000000000E+04  0.10000000000E+04  0.00000000000E+00 0.  1.
    9000005    2    1    2  501    0  0.72020256403E+01 -0.18453717781E+02 -0.92858788264E+03  0.98341048415E+03  0.32315370284E+03 0.  0.
         13    1    3    3    0    0 -0.13222152686E+03 -0.35984897490E+02 -0.20686017626E+03  0.24813016249E+03  0.00000000000E+00 0.  1.
          3    1    3    3  501    0  0.13942355251E+03  0.17531179709E+02 -0.72172770639E+03  0.73528032166E+03  0.00000000000E+00 0.  1.
         21    1    1    2  502  501 -0.72020256403E+01  0.18453717781E+02 -0.41771262112E+02  0.46230371096E+02  0.00000000000E+00 0. -1.
<mgrwt>
<rscale>  1 0.30000000E+03</rscale>
<asrwt>0</asrwt>
<pdfrwt beam="1">  1        1 0.10778516E+00 0.30000000E+03</pdfrwt>
<pdfrwt beam="2">0</pdfrwt>
<totfact> 0.30632644E+01</totfact>
</mgrwt>
</event>
<event>
 6    1  0.1950139E-004  0.3000000E+03  0.7818608E-02  0.1093470E+00
          1   -1    0    0  502    0  0.00000000000E+00  0.00000000000E+00  0.29461076325E+02  0.29461076325E+02  0.00000000000E+00 0.  1.
         13   -1    0    0    0    0 -0.00000000000E+00 -0.00000000000E+00 -0.10000000000E+04  0.10000000000E+04  0.00000000000E+00 0.  1.
    9000005    2    1    2  501    0  0.85618032609E+01 -0.75435253493E+01 -0.96431799153E+03  0.10164645673E+04  0.32118657905E+03 0.  0.
         13    1    3    3    0    0 -0.14762855829E+03  0.24911798099E+02 -0.32965662521E+03  0.36206115430E+03  0.00000000000E+00 0.  1.
          3    1    3    3  501    0  0.15619036156E+03 -0.32455323448E+02 -0.63466136632E+03  0.65440341301E+03  0.00000000000E+00 0.  1.
         21    1    1    2  502  501 -0.85618032609E+01  0.75435253493E+01 -0.62209321457E+01  0.12996509013E+02  0.00000000000E+00 0. -1.
<mgrwt>
<rscale>  1 0.30000000E+03</rscale>
<asrwt>0</asrwt>
<pdfrwt beam="1">  1        1 0.10713141E+00 0.30000000E+03</pdfrwt>
<pdfrwt beam="2">0</pdfrwt>
<totfact> 0.30912912E+01</totfact>
</mgrwt>
</event>
<event>
 6    1  0.1950139E-004  0.3000000E+03  0.7818608E-02  0.1093470E+00
          1   -1    0    0  502    0  0.00000000000E+00  0.00000000000E+00  0.38895890470E+02  0.38895890470E+02  0.00000000000E+00 0.  1.
         13   -1    0    0    0    0 -0.00000000000E+00 -0.00000000000E+00 -0.10000000000E+04  0.10000000000E+04  0.00000000000E+00 0.  1.
    9000005    2    1    2  501    0  0.27169243107E+02  0.61277601774E+01 -0.94758396071E+03  0.10079360513E+04  0.34240911749E+03 0.  0.
         13    1    3    3    0    0 -0.12003194426E+03  0.10911360437E+03 -0.49950923952E+03  0.52518846776E+03  0.00000000000E+00 0.  1.
          1    1    3    3  501    0  0.14720118737E+03 -0.10298584419E+03 -0.44807472120E+03  0.48274758357E+03  0.00000000000E+00 0.  1.
         21    1    1    2  502  501 -0.27169243107E+02 -0.61277601774E+01 -0.13520148816E+02  0.30959839144E+02  0.00000000000E+00 0.  1.
<mgrwt>
<rscale>  1 0.30000000E+03</rscale>
<asrwt>0</asrwt>
<pdfrwt beam="1">  1        1 0.14143990E+00 0.30000000E+03</pdfrwt>
<pdfrwt beam="2">0</pdfrwt>
<totfact> 0.19884344E+01</totfact>
</mgrwt>
</event>
<event>
 6    1  0.1950139E-004  0.3000000E+03  0.7818608E-02  0.1093470E+00
          1   -1    0    0  502    0  0.00000000000E+00  0.00000000000E+00  0.30336570128E+02  0.30336570128E+02  0.00000000000E+00 0.  1.
         13   -1    0    0    0    0 -0.00000000000E+00 -0.00000000000E+00 -0.10000000000E+04  0.10000000000E+04  0.00000000000E+00 0.  1.
    9000005    2    1    2  501    0  0.36149776281E+00  0.16717631319E+02 -0.94458322779E+03  0.10001931394E+04  0.32843451717E+03 0.  0.
         13    1    3    3    0    0  0.77623253064E+02 -0.53924504798E+02 -0.65724941282E+02  0.11512162933E+03  0.00000000000E+00 0.  1.
          3    1    3    3  501    0 -0.77261755301E+02  0.70642136117E+02 -0.87885828651E+03  0.88507151010E+03  0.00000000000E+00 0.  1.
         21    1    1    2  502  501 -0.36149776281E+00 -0.16717631319E+02 -0.25080202081E+02  0.30143430693E+02  0.00000000000E+00 0.  1.
<mgrwt>
<rscale>  1 0.30000000E+03</rscale>
<asrwt>0</asrwt>
<pdfrwt beam="1">  1        1 0.11031503E+00 0.30000000E+03</pdfrwt>
<pdfrwt beam="2">0</pdfrwt>
<totfact> 0.29581582E+01</totfact>
</mgrwt>
</event>
