<event>
 6    1  0.3927553E-003  0.6486961E+03  0.7818608E-02  0.9809229E-01
          1   -1    0    0  502    0  0.00000000000E+00  0.00000000000E+00  0.10520231831E+03  0.10520231831E+03  0.00000000000E+00 0.  1.
         13   -1    0    0    0    0 -0.00000000000E+00 -0.00000000000E+00 -0.10000000000E+04  0.10000000000E+04  0.00000000000E+00 0.  1.
    9000005    2    1    2  501    0 -0.87122356035E-04  0.84890605535E-04 -0.89479833772E+03  0.11052016511E+04  0.64869609555E+03 0.  0.
         13    1    3    3    0    0 -0.24056427088E+03  0.21517909595E+03 -0.39276073322E+03  0.50836424472E+03  0.00000000000E+00 0.  1.
          3    1    3    3  501    0  0.24056418376E+03 -0.21517901105E+03 -0.50203760451E+03  0.59683740637E+03  0.00000000000E+00 0.  1.
         21    1    1    2  502  501  0.87122356047E-04 -0.84890605539E-04  0.65603784296E-03  0.66721988221E-03  0.00000000000E+00 0.  1.
<mgrwt>
<rscale>  1 0.64869610E+03</rscale>
<asrwt>0</asrwt>
<pdfrwt beam="1">  1        1 0.38255469E+00 0.64869610E+03</pdfrwt>
<pdfrwt beam="2">0</pdfrwt>
<totfact> 0.15992861E+00</totfact>
</mgrwt>
</event>
<event>
 6    1  0.3927553E-003  0.6305427E+03  0.7818608E-02  0.9843990E-01
          1   -1    0    0  502    0  0.00000000000E+00  0.00000000000E+00  0.99397826739E+02  0.99397826739E+02  0.00000000000E+00 0.  1.
         13   -1    0    0    0    0 -0.00000000000E+00 -0.00000000000E+00 -0.10000000000E+04  0.10000000000E+04  0.00000000000E+00 0.  1.
    9000005    2    1    2  501    0  0.52405289551E-04  0.11988986233E-03 -0.90060397330E+03  0.10993960220E+04  0.63054269988E+03 0.  0.
         13    1    3    3    0    0  0.94561358709E+02  0.27283006721E+03 -0.67097209373E+03  0.73046673209E+03  0.00000000000E+00 0.  1.
          1    1    3    3  501    0 -0.94561306304E+02 -0.27282994732E+03 -0.22963187957E+03  0.36892928986E+03  0.00000000000E+00 0.  1.
         21    1    1    2  502  501 -0.52405289556E-04 -0.11988986232E-03  0.18000366666E-02  0.18047858307E-02  0.00000000000E+00 0. -1.
<mgrwt>
<rscale>  1 0.63054270E+03</rscale>
<asrwt>0</asrwt>
<pdfrwt beam="1">  1        1 0.36144740E+00 0.63054270E+03</pdfrwt>
<pdfrwt beam="2">0</pdfrwt>
<totfact> 0.19868045E+00</totfact>
</mgrwt>
</event>
<event>
 6    1  0.3927553E-003  0.6540590E+03  0.7818608E-02  0.9799192E-01
          1   -1    0    0  502    0  0.00000000000E+00  0.00000000000E+00  0.11293816314E+03  0.11293816314E+03  0.00000000000E+00 0.  1.
         13   -1    0    0    0    0 -0.00000000000E+00 -0.00000000000E+00 -0.10000000000E+04  0.10000000000E+04  0.00000000000E+00 0.  1.
    9000005    2    1    2  501    0 -0.58092639793E-01  0.14988536754E+01 -0.89294757874E+03  0.11068642933E+04  0.65405728764E+03 0.  0.
         13    1    3    3    0    0  0.19411398057E+03  0.26369530240E+03 -0.42904406079E+03  0.53971682951E+03  0.00000000000E+00 0.  1.
          1    1    3    3  501    0 -0.19417207321E+03 -0.26219644872E+03 -0.46390351795E+03  0.56714746381E+03  0.00000000000E+00 0.  1.
         21    1    1    2  502  501  0.58092639793E-01 -0.14988536754E+01  0.58857418832E+01  0.60738698216E+01  0.00000000000E+00 0.  1.
<mgrwt>
<rscale>  1 0.65405901E+03</rscale>
<asrwt>0</asrwt>
<pdfrwt beam="1">  1        1 0.41068510E+00 0.65405901E+03</pdfrwt>
<pdfrwt beam="2">0</pdfrwt>
<totfact> 0.11975797E+00</totfact>
</mgrwt>
</event>
<event>
 6    1  0.3927553E-003  0.6468951E+03  0.7818608E-02  0.9812623E-01
          1   -1    0    0  502    0  0.00000000000E+00  0.00000000000E+00  0.10461840273E+03  0.10461840273E+03  0.00000000000E+00 0.  1.
         13   -1    0    0    0    0 -0.00000000000E+00 -0.00000000000E+00 -0.10000000000E+04  0.10000000000E+04  0.00000000000E+00 0.  1.
    9000005    2    1    2  501    0 -0.35369747934E-04  0.12247932233E-04 -0.89538166863E+03  0.11046183222E+04  0.64689512683E+03 0.  0.
         13    1    3    3    0    0  0.21971253949E+03  0.13718207050E+03 -0.77847394273E+03  0.82043537222E+03  0.00000000000E+00 0.  1.
          1    1    3    3  501    0 -0.21971257486E+03 -0.13718205826E+03 -0.11690772590E+03  0.28418294994E+03  0.00000000000E+00 0.  1.
         21    1    1    2  502  501  0.35369747932E-04 -0.12247932241E-04  0.71361559395E-04  0.80582275174E-04  0.00000000000E+00 0.  1.
<mgrwt>
<rscale>  1 0.64689513E+03</rscale>
<asrwt>0</asrwt>
<pdfrwt beam="1">  1        1 0.38043136E+00 0.64689513E+03</pdfrwt>
<pdfrwt beam="2">0</pdfrwt>
<totfact> 0.16347286E+00</totfact>
</mgrwt>
</event>
<event>
 6    1  0.3927553E-003  0.6455132E+03  0.7818608E-02  0.9815235E-01
          1   -1    0    0  502    0  0.00000000000E+00  0.00000000000E+00  0.10551079094E+03  0.10551079094E+03  0.00000000000E+00 0.  1.
         13   -1    0    0    0    0 -0.00000000000E+00 -0.00000000000E+00 -0.10000000000E+04  0.10000000000E+04  0.00000000000E+00 0.  1.
    9000005    2    1    2  501    0 -0.20213974397E-01 -0.54930786508E-02 -0.89582809375E+03  0.11041717424E+04  0.64551317781E+03 0.  0.
         13    1    3    3    0    0  0.13150544095E+02  0.19979652504E+03 -0.88091213387E+03  0.90338130146E+03  0.00000000000E+00 0.  1.
          1    1    3    3  501    0 -0.13170758069E+02 -0.19980201812E+03 -0.14915959876E+02  0.20079044094E+03  0.00000000000E+00 0.  1.
         21    1    1    2  502  501  0.20213974397E-01  0.54930786508E-02  0.13388846889E+01  0.13390485387E+01  0.00000000000E+00 0. -1.
<mgrwt>
<rscale>  1 0.64551318E+03</rscale>
<asrwt>0</asrwt>
<pdfrwt beam="1">  1        1 0.38367641E+00 0.64551318E+03</pdfrwt>
<pdfrwt beam="2">0</pdfrwt>
<totfact> 0.15820674E+00</totfact>
</mgrwt>
</event>
<event>
 6    1  0.3927553E-003  0.6594104E+03  0.7818608E-02  0.9789280E-01
          1   -1    0    0  502    0  0.00000000000E+00  0.00000000000E+00  0.10982976392E+03  0.10982976392E+03  0.00000000000E+00 0.  1.
         13   -1    0    0    0    0 -0.00000000000E+00 -0.00000000000E+00 -0.10000000000E+04  0.10000000000E+04  0.00000000000E+00 0.  1.
    9000005    2    1    2  501    0 -0.32096804596E+01  0.79227408915E+00 -0.88426984817E+03  0.11030663089E+04  0.65940214407E+03 0.  0.
         13    1    3    3    0    0  0.47648780549E+02 -0.89947835299E+02 -0.96564632901E+03  0.97099631930E+03  0.00000000000E+00 0.  1.
          3    1    3    3  501    0 -0.50858461008E+02  0.90740109388E+02  0.81376480839E+02  0.13206998956E+03  0.00000000000E+00 0.  1.
         21    1    1    2  502  501  0.32096804596E+01 -0.79227408915E+00 -0.59003879080E+01  0.67634550600E+01  0.00000000000E+00 0. -1.
<mgrwt>
<rscale>  1 0.65941043E+03</rscale>
<asrwt>0</asrwt>
<pdfrwt beam="1">  1        1 0.39938180E+00 0.65941043E+03</pdfrwt>
<pdfrwt beam="2">0</pdfrwt>
<totfact> 0.13439958E+00</totfact>
</mgrwt>
</event>
<event>
 6    1  0.3927553E-003  0.6507524E+03  0.7818608E-02  0.9805368E-01
          1   -1    0    0  502    0  0.00000000000E+00  0.00000000000E+00  0.10587455549E+03  0.10587455549E+03  0.00000000000E+00 0.  1.
         13   -1    0    0    0    0 -0.00000000000E+00 -0.00000000000E+00 -0.10000000000E+04  0.10000000000E+04  0.00000000000E+00 0.  1.
    9000005    2    1    2  501    0 -0.16191823671E-02  0.14403745009E-02 -0.89413004863E+03  0.11058694668E+04  0.65075243667E+03 0.  0.
         13    1    3    3    0    0  0.15722075929E+03  0.26874140359E+03 -0.28648147812E+03  0.42309803410E+03  0.00000000000E+00 0.  1.
          3    1    3    3  501    0 -0.15722237848E+03 -0.26873996322E+03 -0.60764857051E+03  0.68277143274E+03  0.00000000000E+00 0.  1.
         21    1    1    2  502  501  0.16191823671E-02 -0.14403745009E-02  0.46041143206E-02  0.50886441139E-02  0.00000000000E+00 0.  1.
<mgrwt>
<rscale>  1 0.65075244E+03</rscale>
<asrwt>0</asrwt>
<pdfrwt beam="1">  1        1 0.38499920E+00 0.65075244E+03</pdfrwt>
<pdfrwt beam="2">0</pdfrwt>
<totfact> 0.15593926E+00</totfact>
</mgrwt>
</event>
<event>
 6    1  0.3927553E-003  0.6541619E+03  0.7818608E-02  0.9799001E-01
          1   -1    0    0  502    0  0.00000000000E+00  0.00000000000E+00  0.11938108298E+03  0.11938108298E+03  0.00000000000E+00 0.  1.
         13   -1    0    0    0    0 -0.00000000000E+00 -0.00000000000E+00 -0.10000000000E+04  0.10000000000E+04  0.00000000000E+00 0.  1.
    9000005    2    1    2  501    0 -0.11876038612E+02 -0.35500776587E+01 -0.88949044056E+03  0.11041381412E+04  0.65404445387E+03 0.  0.
         13    1    3    3    0    0 -0.17512113706E+03 -0.26644976192E+03 -0.60453750903E+03  0.68346798615E+03  0.00000000000E+00 0.  1.
          3    1    3    3  501    0  0.16324509845E+03  0.26289968426E+03 -0.28495293153E+03  0.42067015504E+03  0.00000000000E+00 0.  1.
         21    1    1    2  502  501  0.11876038612E+02  0.35500776587E+01  0.88715235388E+01  0.15242941790E+02  0.00000000000E+00 0.  1.
<mgrwt>
<rscale>  1 0.65416190E+03</rscale>
<asrwt>0</asrwt>
<pdfrwt beam="1">  1        1 0.43411394E+00 0.65416190E+03</pdfrwt>
<pdfrwt beam="2">0</pdfrwt>
<totfact> 0.93852104E-01</totfact>
</mgrwt>
</event>
<event>
 6    1  0.3927553E-003  0.6469311E+03  0.7818608E-02  0.9812555E-01
          1   -1    0    0  502    0  0.00000000000E+00  0.00000000000E+00  0.10857665190E+03  0.10857665190E+03  0.00000000000E+00 0.  1.
         13   -1    0    0    0    0 -0.00000000000E+00 -0.00000000000E+00 -0.10000000000E+04  0.10000000000E+04  0.00000000000E+00 0.  1.
    9000005    2    1    2  501    0  0.18339275104E+00 -0.10849945603E+00 -0.89536686945E+03  0.11046273778E+04  0.64693103771E+03 0.  0.
         13    1    3    3    0    0  0.30892762263E+02  0.65632446364E+02 -0.98592250985E+03  0.98858746512E+03  0.00000000000E+00 0.  1.
          1    1    3    3  501    0 -0.30709369512E+02 -0.65740945820E+02  0.90555640400E+02  0.11603991271E+03  0.00000000000E+00 0.  1.
         21    1    1    2  502  501 -0.18339275104E+00  0.10849945603E+00  0.39435213517E+01  0.39492740706E+01  0.00000000000E+00 0.  1.
<mgrwt>
<rscale>  1 0.64693107E+03</rscale>
<asrwt>0</asrwt>
<pdfrwt beam="1">  1        1 0.39482502E+00 0.64693107E+03</pdfrwt>
<pdfrwt beam="2">0</pdfrwt>
<totfact> 0.14115643E+00</totfact>
</mgrwt>
</event>
<event>
 6    1  0.3927553E-003  0.6600605E+03  0.7818608E-02  0.9788082E-01
          1   -1    0    0  502    0  0.00000000000E+00  0.00000000000E+00  0.10895451954E+03  0.10895451954E+03  0.00000000000E+00 0.  1.
         13   -1    0    0    0    0 -0.00000000000E+00 -0.00000000000E+00 -0.10000000000E+04  0.10000000000E+04  0.00000000000E+00 0.  1.
    9000005    2    1    2  501    0 -0.60014796041E-02  0.49831222938E-02 -0.89107952943E+03  0.11089195884E+04  0.66006054707E+03 0.  0.
         13    1    3    3    0    0  0.17415310874E+03  0.27674334973E+03 -0.37032984789E+03  0.49402467868E+03  0.00000000000E+00 0.  1.
          3    1    3    3  501    0 -0.17415911022E+03 -0.27673836661E+03 -0.52074968154E+03  0.61489490976E+03  0.00000000000E+00 0.  1.
         21    1    1    2  502  501  0.60014796041E-02 -0.49831222937E-02  0.34048972183E-01  0.34931100354E-01  0.00000000000E+00 0. -1.
<mgrwt>
<rscale>  1 0.66006055E+03</rscale>
<asrwt>0</asrwt>
<pdfrwt beam="1">  1        1 0.39619909E+00 0.66006055E+03</pdfrwt>
<pdfrwt beam="2">0</pdfrwt>
<totfact> 0.13884151E+00</totfact>
</mgrwt>
</event>
<event>
 6    1  0.3927553E-003  0.4886119E+03  0.7818608E-02  0.1016795E+00
          1   -1    0    0  502    0  0.00000000000E+00  0.00000000000E+00  0.59685470039E+02  0.59685470039E+02  0.00000000000E+00 0.  1.
         13   -1    0    0    0    0 -0.00000000000E+00 -0.00000000000E+00 -0.10000000000E+04  0.10000000000E+04  0.00000000000E+00 0.  1.
    9000005    2    1    2  501    0 -0.10516262350E-05  0.14750904995E-04 -0.94031460196E+03  0.10596853965E+04  0.48861190017E+03 0.  0.
         13    1    3    3    0    0  0.45194419657E+02 -0.21318897504E+03 -0.70963984433E+03  0.74234815505E+03  0.00000000000E+00 0.  1.
          1    1    3    3  501    0 -0.45194420708E+02  0.21318898979E+03 -0.23067475763E+03  0.31733724149E+03  0.00000000000E+00 0.  1.
         21    1    1    2  502  501  0.10516262346E-05 -0.14750904985E-04  0.71995519604E-04  0.73498639162E-04  0.00000000000E+00 0.  1.
<mgrwt>
<rscale>  1 0.48861190E+03</rscale>
<asrwt>0</asrwt>
<pdfrwt beam="1">  1        1 0.21703853E+00 0.48861190E+03</pdfrwt>
<pdfrwt beam="2">0</pdfrwt>
<totfact> 0.86357419E+00</totfact>
</mgrwt>
</event>
<event>
 6    1  0.3927553E-003  0.6499468E+03  0.7818608E-02  0.9806879E-01
          1   -1    0    0  502    0  0.00000000000E+00  0.00000000000E+00  0.10560807934E+03  0.10560807934E+03  0.00000000000E+00 0.  1.
         13   -1    0    0    0    0 -0.00000000000E+00 -0.00000000000E+00 -0.10000000000E+04  0.10000000000E+04  0.00000000000E+00 0.  1.
    9000005    2    1    2  501    0  0.27249043711E-04 -0.48943202344E-04 -0.89439228446E+03  0.11056077112E+04  0.64994680756E+03 0.  0.
         13    1    3    3    0    0 -0.24112041023E+03  0.88629033358E+02 -0.10862875237E+03  0.27891640975E+03  0.00000000000E+00 0.  1.
          3    1    3    3  501    0  0.24112043748E+03 -0.88629082302E+02 -0.78576353210E+03  0.82669130150E+03  0.00000000000E+00 0.  1.
         21    1    1    2  502  501 -0.27249043693E-04  0.48943202350E-04  0.36380586970E-03  0.36809327387E-03  0.00000000000E+00 0.  1.
<mgrwt>
<rscale>  1 0.64994681E+03</rscale>
<asrwt>0</asrwt>
<pdfrwt beam="1">  1        1 0.38403019E+00 0.64994681E+03</pdfrwt>
<pdfrwt beam="2">0</pdfrwt>
<totfact> 0.15750892E+00</totfact>
</mgrwt>
</event>
<event>
 6    1  0.3927553E-003  0.6570085E+03  0.7818608E-02  0.9793716E-01
          1   -1    0    0  502    0  0.00000000000E+00  0.00000000000E+00  0.10791650234E+03  0.10791650234E+03  0.00000000000E+00 0.  1.
         13   -1    0    0    0    0 -0.00000000000E+00 -0.00000000000E+00 -0.10000000000E+04  0.10000000000E+04  0.00000000000E+00 0.  1.
    9000005    2    1    2  501    0 -0.77914799496E-03 -0.29691133915E-02 -0.89208290299E+03  0.11079133756E+04  0.65700847946E+03 0.  0.
         13    1    3    3    0    0  0.13494425834E+03  0.19385556962E+03 -0.61044725870E+02  0.24395981900E+03  0.00000000000E+00 0.  1.
          3    1    3    3  501    0 -0.13494503749E+03 -0.19385853873E+03 -0.83103817712E+03  0.86395355663E+03  0.00000000000E+00 0.  1.
         21    1    1    2  502  501  0.77914799494E-03  0.29691133915E-02 -0.59466608737E-03  0.31267129202E-02  0.00000000000E+00 0.  1.
<mgrwt>
<rscale>  1 0.65700848E+03</rscale>
<asrwt>0</asrwt>
<pdfrwt beam="1">  1        1 0.39242447E+00 0.65700848E+03</pdfrwt>
<pdfrwt beam="2">0</pdfrwt>
<totfact> 0.14439254E+00</totfact>
</mgrwt>
</event>
<event>
 6    1  0.3927553E-003  0.6497676E+03  0.7818608E-02  0.9807215E-01
          1   -1    0    0  502    0  0.00000000000E+00  0.00000000000E+00  0.10555413733E+03  0.10555413733E+03  0.00000000000E+00 0.  1.
         13   -1    0    0    0    0 -0.00000000000E+00 -0.00000000000E+00 -0.10000000000E+04  0.10000000000E+04  0.00000000000E+00 0.  1.
    9000005    2    1    2  501    0  0.20880038048E-03 -0.15125879600E-03 -0.89445051773E+03  0.11055494751E+04  0.64976758408E+03 0.  0.
         13    1    3    3    0    0  0.20717047588E+03  0.11020107080E+03 -0.64925576900E+02  0.24347322772E+03  0.00000000000E+00 0.  1.
          1    1    3    3  501    0 -0.20717026708E+03 -0.11020122206E+03 -0.82952494083E+03  0.86207624742E+03  0.00000000000E+00 0.  1.
         21    1    1    2  502  501 -0.20880038049E-03  0.15125879601E-03  0.46550536626E-02  0.46621884801E-02  0.00000000000E+00 0.  1.
<mgrwt>
<rscale>  1 0.64976758E+03</rscale>
<asrwt>0</asrwt>
<pdfrwt beam="1">  1        1 0.38383404E+00 0.64976758E+03</pdfrwt>
<pdfrwt beam="2">0</pdfrwt>
<totfact> 0.15782895E+00</totfact>
</mgrwt>
</event>
<event>
 6    1  0.3927553E-003  0.6668732E+03  0.7818608E-02  0.9775623E-01
          1   -1    0    0  502    0  0.00000000000E+00  0.00000000000E+00  0.11119692462E+03  0.11119692462E+03  0.00000000000E+00 0.  1.
         13   -1    0    0    0    0 -0.00000000000E+00 -0.00000000000E+00 -0.10000000000E+04  0.10000000000E+04  0.00000000000E+00 0.  1.
    9000005    2    1    2  501    0  0.24495508628E-02 -0.51975651985E-03 -0.88881991636E+03  0.11111798985E+04  0.66687324364E+03 0.  0.
         13    1    3    3    0    0  0.17421162044E+03 -0.26087527149E+03 -0.63274157325E+03  0.70623473044E+03  0.00000000000E+00 0.  1.
          1    1    3    3  501    0 -0.17420917089E+03  0.26087475173E+03 -0.25607834311E+03  0.40494516805E+03  0.00000000000E+00 0.  1.
         21    1    1    2  502  501 -0.24495508629E-02  0.51975651986E-03  0.16840978482E-01  0.17026127055E-01  0.00000000000E+00 0.  1.
<mgrwt>
<rscale>  1 0.66687324E+03</rscale>
<asrwt>0</asrwt>
<pdfrwt beam="1">  1        1 0.40435331E+00 0.66687324E+03</pdfrwt>
<pdfrwt beam="2">0</pdfrwt>
<totfact> 0.12752552E+00</totfact>
</mgrwt>
</event>
<event>
 6    1  0.3927553E-003  0.6488170E+03  0.7818608E-02  0.9809001E-01
          1   -1    0    0  502    0  0.00000000000E+00  0.00000000000E+00  0.10536155600E+03  0.10536155600E+03  0.00000000000E+00 0.  1.
         13   -1    0    0    0    0 -0.00000000000E+00 -0.00000000000E+00 -0.10000000000E+04  0.10000000000E+04  0.00000000000E+00 0.  1.
    9000005    2    1    2  501    0  0.37087322818E+00 -0.24642109094E-01 -0.89410616164E+03  0.11047123421E+04  0.64881691742E+03 0.  0.
         13    1    3    3    0    0  0.11504016772E+03  0.21426044137E+03 -0.81412145430E+02  0.25645606709E+03  0.00000000000E+00 0.  1.
          1    1    3    3  501    0 -0.11466929449E+03 -0.21428508348E+03 -0.81269401621E+03  0.84825627500E+03  0.00000000000E+00 0.  1.
         21    1    1    2  502  501 -0.37087322818E+00  0.24642109094E-01 -0.53228235986E+00  0.64921390584E+00  0.00000000000E+00 0. -1.
<mgrwt>
<rscale>  1 0.64881702E+03</rscale>
<asrwt>0</asrwt>
<pdfrwt beam="1">  1        1 0.38313374E+00 0.64881702E+03</pdfrwt>
<pdfrwt beam="2">0</pdfrwt>
<totfact> 0.15898567E+00</totfact>
</mgrwt>
</event>
<event>
 6    1  0.3927553E-003  0.6131930E+03  0.7818608E-02  0.9878407E-01
          3   -1    0    0  502    0  0.00000000000E+00  0.00000000000E+00  0.95856917702E+02  0.95856917702E+02  0.00000000000E+00 0.  1.
         13   -1    0    0    0    0 -0.00000000000E+00 -0.00000000000E+00 -0.10000000000E+04  0.10000000000E+04  0.00000000000E+00 0.  1.
    9000005    2    1    2  501    0 -0.71734943582E-01  0.45037005269E+00 -0.90596790059E+03  0.10939759762E+04  0.61319278505E+03 0.  0.
         13    1    3    3    0    0 -0.17574848655E+03  0.19200836132E+03 -0.74280018572E+03  0.78708757915E+03  0.00000000000E+00 0.  1.
          1    1    3    3  501    0  0.17567675160E+03 -0.19155799127E+03 -0.16316771487E+03  0.30688839706E+03  0.00000000000E+00 0.  1.
         21    1    1    2  502  501  0.71734943582E-01 -0.45037005269E+00  0.18248182954E+01  0.18809414923E+01  0.00000000000E+00 0.  1.
<mgrwt>
<rscale>  1 0.61319295E+03</rscale>
<asrwt>0</asrwt>
<pdfrwt beam="1">  1        3 0.34857134E+00 0.61319295E+03</pdfrwt>
<pdfrwt beam="2">0</pdfrwt>
<totfact> 0.11147204E-01</totfact>
</mgrwt>
</event>
<event>
 6    1  0.3927553E-003  0.6541046E+03  0.7818608E-02  0.9799108E-01
          1   -1    0    0  502    0  0.00000000000E+00  0.00000000000E+00  0.10702058037E+03  0.10702058037E+03  0.00000000000E+00 0.  1.
         13   -1    0    0    0    0 -0.00000000000E+00 -0.00000000000E+00 -0.10000000000E+04  0.10000000000E+04  0.00000000000E+00 0.  1.
    9000005    2    1    2  501    0 -0.14756513831E-02  0.10063441296E-02 -0.89303678119E+03  0.11069631910E+04  0.65410458925E+03 0.  0.
         13    1    3    3    0    0  0.93016496672E+02 -0.15340067980E+03  0.16263757938E+02  0.18013424727E+03  0.00000000000E+00 0.  1.
          1    1    3    3  501    0 -0.93017972323E+02  0.15340168615E+03 -0.90930053913E+03  0.92682894374E+03  0.00000000000E+00 0.  1.
         21    1    1    2  502  501  0.14756513831E-02 -0.10063441296E-02  0.57361557917E-01  0.57389359660E-01  0.00000000000E+00 0.  1.
<mgrwt>
<rscale>  1 0.65410459E+03</rscale>
<asrwt>0</asrwt>
<pdfrwt beam="1">  1        1 0.38916657E+00 0.65410459E+03</pdfrwt>
<pdfrwt beam="2">0</pdfrwt>
<totfact> 0.14935956E+00</totfact>
</mgrwt>
</event>
<event>
 6    1  0.3927553E-003  0.6521631E+03  0.7818608E-02  0.9802729E-01
          1   -1    0    0  502    0  0.00000000000E+00  0.00000000000E+00  0.10632921707E+03  0.10632921707E+03  0.00000000000E+00 0.  1.
         13   -1    0    0    0    0 -0.00000000000E+00 -0.00000000000E+00 -0.10000000000E+04  0.10000000000E+04  0.00000000000E+00 0.  1.
    9000005    2    1    2  501    0  0.14644062958E-05 -0.10765713114E-04 -0.89367080556E+03  0.11063291920E+04  0.65216314851E+03 0.  0.
         13    1    3    3    0    0  0.39767646882E+02  0.19768843794E+03 -0.12123299516E+02  0.20201276847E+03  0.00000000000E+00 0.  1.
          3    1    3    3  501    0 -0.39767645418E+02 -0.19768844871E+03 -0.88154750605E+03  0.90431642349E+03  0.00000000000E+00 0.  1.
         21    1    1    2  502  501 -0.14644063020E-05  0.10765713098E-04  0.22635881729E-04  0.25108329415E-04  0.00000000000E+00 0. -1.
<mgrwt>
<rscale>  1 0.65216315E+03</rscale>
<asrwt>0</asrwt>
<pdfrwt beam="1">  1        1 0.38665251E+00 0.65216315E+03</pdfrwt>
<pdfrwt beam="2">0</pdfrwt>
<totfact> 0.15329434E+00</totfact>
</mgrwt>
</event>
<event>
 6    1  0.3927553E-003  0.6497265E+03  0.7818608E-02  0.9807292E-01
          3   -1    0    0  502    0  0.00000000000E+00  0.00000000000E+00  0.10566691190E+03  0.10566691190E+03  0.00000000000E+00 0.  1.
         13   -1    0    0    0    0 -0.00000000000E+00 -0.00000000000E+00 -0.10000000000E+04  0.10000000000E+04  0.00000000000E+00 0.  1.
    9000005    2    1    2  501    0  0.68685979316E-02 -0.12980717848E-01 -0.89446339863E+03  0.11055357764E+04  0.64972654345E+03 0.  0.
         13    1    3    3    0    0 -0.42549392395E+02  0.28099056784E+03 -0.71499871237E+03  0.76940841476E+03  0.00000000000E+00 0.  1.
          3    1    3    3  501    0  0.42556260993E+02 -0.28100354856E+03 -0.17946468626E+03  0.33612736167E+03  0.00000000000E+00 0.  1.
         21    1    1    2  502  501 -0.68685979316E-02  0.12980717848E-01  0.13031052876E+00  0.13113546652E+00  0.00000000000E+00 0. -1.
<mgrwt>
<rscale>  1 0.64972654E+03</rscale>
<asrwt>0</asrwt>
<pdfrwt beam="1">  1        3 0.38424413E+00 0.64972654E+03</pdfrwt>
<pdfrwt beam="2">0</pdfrwt>
<totfact> 0.71687918E-02</totfact>
</mgrwt>
</event>
<event>
 6    1  0.3927553E-003  0.6429825E+03  0.7818608E-02  0.9820037E-01
          1   -1    0    0  502    0  0.00000000000E+00  0.00000000000E+00  0.10596738731E+03  0.10596738731E+03  0.00000000000E+00 0.  1.
         13   -1    0    0    0    0 -0.00000000000E+00 -0.00000000000E+00 -0.10000000000E+04  0.10000000000E+04  0.00000000000E+00 0.  1.
    9000005    2    1    2  501    0 -0.82001054738E-01  0.80504127128E-01 -0.89664198710E+03  0.11033554838E+04  0.64298247055E+03 0.  0.
         13    1    3    3    0    0 -0.31936622793E+03 -0.36507165133E+02 -0.46078140205E+03  0.56182476016E+03  0.00000000000E+00 0.  1.
          3    1    3    3  501    0  0.31928422687E+03  0.36587669260E+02 -0.43586058504E+03  0.54153072366E+03  0.00000000000E+00 0.  1.
         21    1    1    2  502  501  0.82001054738E-01 -0.80504127128E-01  0.26093744081E+01  0.26119034992E+01  0.00000000000E+00 0.  1.
<mgrwt>
<rscale>  1 0.64298248E+03</rscale>
<asrwt>0</asrwt>
<pdfrwt beam="1">  1        1 0.38533677E+00 0.64298248E+03</pdfrwt>
<pdfrwt beam="2">0</pdfrwt>
<totfact> 0.15562834E+00</totfact>
</mgrwt>
</event>
<event>
 6    1  0.3927553E-003  0.6478725E+03  0.7818608E-02  0.9810779E-01
          1   -1    0    0  502    0  0.00000000000E+00  0.00000000000E+00  0.10547720502E+03  0.10547720502E+03  0.00000000000E+00 0.  1.
         13   -1    0    0    0    0 -0.00000000000E+00 -0.00000000000E+00 -0.10000000000E+04  0.10000000000E+04  0.00000000000E+00 0.  1.
    9000005    2    1    2  501    0  0.18930512628E+00 -0.30754468574E+00 -0.89499810010E+03  0.11048802669E+04  0.64787242152E+03 0.  0.
         13    1    3    3    0    0 -0.10967240969E+03 -0.22719709615E+03 -0.10086984528E+03  0.27170072439E+03  0.00000000000E+00 0.  1.
          1    1    3    3  501    0  0.10986171481E+03  0.22688955146E+03 -0.79412825483E+03  0.83317954251E+03  0.00000000000E+00 0.  1.
         21    1    1    2  502  501 -0.18930512628E+00  0.30754468574E+00  0.47530512647E+00  0.59693812729E+00  0.00000000000E+00 0.  1.
<mgrwt>
<rscale>  1 0.64787252E+03</rscale>
<asrwt>0</asrwt>
<pdfrwt beam="1">  1        1 0.38355428E+00 0.64787252E+03</pdfrwt>
<pdfrwt beam="2">0</pdfrwt>
<totfact> 0.15833435E+00</totfact>
</mgrwt>
</event>
<event>
 6    1  0.3927553E-003  0.5689307E+03  0.7818608E-02  0.9972048E-01
          1   -1    0    0  502    0  0.00000000000E+00  0.00000000000E+00  0.81293099545E+02  0.81293099545E+02  0.00000000000E+00 0.  1.
         13   -1    0    0    0    0 -0.00000000000E+00 -0.00000000000E+00 -0.10000000000E+04  0.10000000000E+04  0.00000000000E+00 0.  1.
    9000005    2    1    2  501    0 -0.59322931871E-02 -0.90938763515E-02 -0.91907938488E+03  0.10809204569E+04  0.56893067970E+03 0.  0.
         13    1    3    3    0    0  0.44170117008E+01  0.14265530725E+03  0.79714137705E+01  0.14294610913E+03  0.00000000000E+00 0.  1.
          1    1    3    3  501    0 -0.44229439940E+01 -0.14266440113E+03 -0.92705079865E+03  0.93797434777E+03  0.00000000000E+00 0.  1.
         21    1    1    2  502  501  0.59322931871E-02  0.90938763515E-02  0.37248442892E+00  0.37264264447E+00  0.00000000000E+00 0. -1.
<mgrwt>
<rscale>  1 0.56893068E+03</rscale>
<asrwt>0</asrwt>
<pdfrwt beam="1">  1        1 0.29561189E+00 0.56893068E+03</pdfrwt>
<pdfrwt beam="2">0</pdfrwt>
<totfact> 0.38754479E+00</totfact>
</mgrwt>
</event>
<event>
 6    1  0.3927553E-003  0.6279337E+03  0.7818608E-02  0.9849089E-01
          1   -1    0    0  502    0  0.00000000000E+00  0.00000000000E+00  0.98711754832E+02  0.98711754832E+02  0.00000000000E+00 0.  1.
         13   -1    0    0    0    0 -0.00000000000E+00 -0.00000000000E+00 -0.10000000000E+04  0.10000000000E+04  0.00000000000E+00 0.  1.
    9000005    2    1    2  501    0  0.84602306031E-02  0.64253840909E-02 -0.90142459062E+03  0.10985749961E+04  0.62793369827E+03 0.  0.
         13    1    3    3    0    0 -0.56424228804E+01 -0.75347751575E+02 -0.98385343952E+03  0.98675058199E+03  0.00000000000E+00 0.  1.
          3    1    3    3  501    0  0.56508831110E+01  0.75354176959E+02  0.82428848900E+02  0.11182441413E+03  0.00000000000E+00 0.  1.
         21    1    1    2  502  501 -0.84602306031E-02 -0.64253840909E-02  0.13634545370E+00  0.13675870652E+00  0.00000000000E+00 0. -1.
<mgrwt>
<rscale>  1 0.62793370E+03</rscale>
<asrwt>0</asrwt>
<pdfrwt beam="1">  1        1 0.35895259E+00 0.62793370E+03</pdfrwt>
<pdfrwt beam="2">0</pdfrwt>
<totfact> 0.20383156E+00</totfact>
</mgrwt>
</event>
<event>
 6    1  0.3927553E-003  0.6460736E+03  0.7818608E-02  0.9814175E-01
          1   -1    0    0  502    0  0.00000000000E+00  0.00000000000E+00  0.10435372268E+03  0.10435372268E+03  0.00000000000E+00 0.  1.
         13   -1    0    0    0    0 -0.00000000000E+00 -0.00000000000E+00 -0.10000000000E+04  0.10000000000E+04  0.00000000000E+00 0.  1.
    9000005    2    1    2  501    0 -0.32095557174E-04  0.43909877677E-03 -0.89564715922E+03  0.11043527370E+04  0.64607362885E+03 0.  0.
         13    1    3    3    0    0  0.30225955295E+03  0.10550861199E+03 -0.37410585074E+03  0.49239018279E+03  0.00000000000E+00 0.  1.
          1    1    3    3  501    0 -0.30225958504E+03 -0.10550817289E+03 -0.52154130848E+03  0.61196255420E+03  0.00000000000E+00 0.  1.
         21    1    1    2  502  501  0.32095557169E-04 -0.43909877676E-03  0.88190180992E-03  0.98569197160E-03  0.00000000000E+00 0. -1.
<mgrwt>
<rscale>  1 0.64607363E+03</rscale>
<asrwt>0</asrwt>
<pdfrwt beam="1">  1        1 0.37946888E+00 0.64607363E+03</pdfrwt>
<pdfrwt beam="2">0</pdfrwt>
<totfact> 0.16510408E+00</totfact>
</mgrwt>
</event>
<event>
 6    1  0.3927553E-003  0.6366188E+03  0.7818608E-02  0.9832217E-01
          1   -1    0    0  502    0  0.00000000000E+00  0.00000000000E+00  0.10141709449E+03  0.10141709449E+03  0.00000000000E+00 0.  1.
         13   -1    0    0    0    0 -0.00000000000E+00 -0.00000000000E+00 -0.10000000000E+04  0.10000000000E+04  0.00000000000E+00 0.  1.
    9000005    2    1    2  501    0 -0.43648203245E-01  0.53849383300E-01 -0.89866520924E+03  0.11013094895E+04  0.63661874668E+03 0.  0.
         13    1    3    3    0    0 -0.22948004627E+03 -0.22041244832E+03 -0.46443591865E+03  0.56297731885E+03  0.00000000000E+00 0.  1.
          1    1    3    3  501    0  0.22943639807E+03  0.22046629770E+03 -0.43422929059E+03  0.53833217068E+03  0.00000000000E+00 0.  1.
         21    1    1    2  502  501  0.43648203245E-01 -0.53849383300E-01  0.82303736410E-01  0.10760495693E+00  0.00000000000E+00 0.  1.
<mgrwt>
<rscale>  1 0.63661875E+03</rscale>
<asrwt>0</asrwt>
<pdfrwt beam="1">  1        1 0.36879021E+00 0.63661875E+03</pdfrwt>
<pdfrwt beam="2">0</pdfrwt>
<totfact> 0.18428749E+00</totfact>
</mgrwt>
</event>
<event>
 6    1  0.3927553E-003  0.6521194E+03  0.7818608E-02  0.9802810E-01
          1   -1    0    0  502    0  0.00000000000E+00  0.00000000000E+00  0.10631722432E+03  0.10631722432E+03  0.00000000000E+00 0.  1.
         13   -1    0    0    0    0 -0.00000000000E+00 -0.00000000000E+00 -0.10000000000E+04  0.10000000000E+04  0.00000000000E+00 0.  1.
    9000005    2    1    2  501    0  0.10264885732E-02  0.55785967777E-03 -0.89368492355E+03  0.11063147793E+04  0.65211935126E+03 0.  0.
         13    1    3    3    0    0 -0.12103861413E+03  0.19007389151E+03 -0.47044313356E+02  0.23019903945E+03  0.00000000000E+00 0.  1.
          1    1    3    3  501    0  0.12103964062E+03 -0.19007333365E+03 -0.84664061019E+03  0.87611573983E+03  0.00000000000E+00 0.  1.
         21    1    1    2  502  501 -0.10264885732E-02 -0.55785967777E-03  0.21478676388E-02  0.24450402052E-02  0.00000000000E+00 0.  1.
<mgrwt>
<rscale>  1 0.65211935E+03</rscale>
<asrwt>0</asrwt>
<pdfrwt beam="1">  1        1 0.38660890E+00 0.65211935E+03</pdfrwt>
<pdfrwt beam="2">0</pdfrwt>
<totfact> 0.15336374E+00</totfact>
</mgrwt>
</event>
<event>
 6    1  0.3927553E-003  0.6470268E+03  0.7818608E-02  0.9812374E-01
          1   -1    0    0  502    0  0.00000000000E+00  0.00000000000E+00  0.10467306710E+03  0.10467306710E+03  0.00000000000E+00 0.  1.
         13   -1    0    0    0    0 -0.00000000000E+00 -0.00000000000E+00 -0.10000000000E+04  0.10000000000E+04  0.00000000000E+00 0.  1.
    9000005    2    1    2  501    0  0.28881917288E-01  0.23354814507E-01 -0.89528444659E+03  0.11046166340E+04  0.64702678951E+03 0.  0.
         13    1    3    3    0    0 -0.22466069139E+02  0.22834773758E+02 -0.99723575221E+03  0.99775011734E+03  0.00000000000E+00 0.  1.
          1    1    3    3  501    0  0.22494951056E+02 -0.22811418943E+02  0.10195130562E+03  0.10686651663E+03  0.00000000000E+00 0.  1.
         21    1    1    2  502  501 -0.28881917288E-01 -0.23354814507E-01 -0.42486312625E-01  0.56433139797E-01  0.00000000000E+00 0. -1.
<mgrwt>
<rscale>  1 0.64702679E+03</rscale>
<asrwt>0</asrwt>
<pdfrwt beam="1">  1        1 0.38063014E+00 0.64702679E+03</pdfrwt>
<pdfrwt beam="2">0</pdfrwt>
<totfact> 0.16313902E+00</totfact>
</mgrwt>
</event>
<event>
 6    1  0.3927553E-003  0.6492247E+03  0.7818608E-02  0.9808235E-01
          1   -1    0    0  502    0  0.00000000000E+00  0.00000000000E+00  0.10599333379E+03  0.10599333379E+03  0.00000000000E+00 0.  1.
         13   -1    0    0    0    0 -0.00000000000E+00 -0.00000000000E+00 -0.10000000000E+04  0.10000000000E+04  0.00000000000E+00 0.  1.
    9000005    2    1    2  501    0  0.77460754148E-01  0.13047117883E-01 -0.89462408398E+03  0.11053709391E+04  0.64922465703E+03 0.  0.
         13    1    3    3    0    0 -0.25631344966E+03 -0.19806404780E+03 -0.48235508907E+03  0.58102700751E+03  0.00000000000E+00 0.  1.
          3    1    3    3  501    0  0.25639091041E+03  0.19807709492E+03 -0.41226899491E+03  0.52434393163E+03  0.00000000000E+00 0.  1.
         21    1    1    2  502  501 -0.77460754148E-01 -0.13047117883E-01  0.61741776403E+00  0.62239464253E+00  0.00000000000E+00 0. -1.
<mgrwt>
<rscale>  1 0.64922466E+03</rscale>
<asrwt>0</asrwt>
<pdfrwt beam="1">  1        1 0.38543112E+00 0.64922466E+03</pdfrwt>
<pdfrwt beam="2">0</pdfrwt>
<totfact> 0.15529856E+00</totfact>
</mgrwt>
</event>
<event>
 6    1  0.3927553E-003  0.4950478E+03  0.7818608E-02  0.1015080E+00
          1   -1    0    0  502    0  0.00000000000E+00  0.00000000000E+00  0.61271984002E+02  0.61271984002E+02  0.00000000000E+00 0.  1.
         13   -1    0    0    0    0 -0.00000000000E+00 -0.00000000000E+00 -0.10000000000E+04  0.10000000000E+04  0.00000000000E+00 0.  1.
    9000005    2    1    2  501    0  0.64764348895E-02  0.68124220130E-03 -0.93872891798E+03  0.10612654097E+04  0.49504776362E+03 0.  0.
         13    1    3    3    0    0 -0.57890978575E+02  0.98077579613E+02  0.17635370759E+01  0.11390209430E+03  0.00000000000E+00 0.  1.
          3    1    3    3  501    0  0.57897455009E+02 -0.98076898371E+02 -0.94049245505E+03  0.94736331537E+03  0.00000000000E+00 0.  1.
         21    1    1    2  502  501 -0.64764348895E-02 -0.68124220130E-03  0.90197933825E-03  0.65743339238E-02  0.00000000000E+00 0.  1.
<mgrwt>
<rscale>  1 0.49504776E+03</rscale>
<asrwt>0</asrwt>
<pdfrwt beam="1">  1        1 0.22280768E+00 0.49504776E+03</pdfrwt>
<pdfrwt beam="2">0</pdfrwt>
<totfact> 0.81328919E+00</totfact>
</mgrwt>
</event>
<event>
 6    1  0.3927553E-003  0.5876395E+03  0.7818608E-02  0.9931387E-01
          1   -1    0    0  502    0  0.00000000000E+00  0.00000000000E+00  0.87357768710E+02  0.87357768710E+02  0.00000000000E+00 0.  1.
         13   -1    0    0    0    0 -0.00000000000E+00 -0.00000000000E+00 -0.10000000000E+04  0.10000000000E+04  0.00000000000E+00 0.  1.
    9000005    2    1    2  501    0  0.12311526682E-01  0.39254459297E-01 -0.91366949482E+03  0.10863296817E+04  0.58763954081E+03 0.  0.
         13    1    3    3    0    0  0.17104466393E+03  0.51053885778E-01 -0.89848902799E+03  0.91462495761E+03  0.00000000000E+00 0.  1.
          3    1    3    3  501    0 -0.17103235241E+03 -0.11799426481E-01 -0.15180466834E+02  0.17170472411E+03  0.00000000000E+00 0.  1.
         21    1    1    2  502  501 -0.12311526682E-01 -0.39254459297E-01  0.10272635329E+01  0.10280869867E+01  0.00000000000E+00 0. -1.
<mgrwt>
<rscale>  1 0.58763954E+03</rscale>
<asrwt>0</asrwt>
<pdfrwt beam="1">  1        1 0.31766528E+00 0.58763954E+03</pdfrwt>
<pdfrwt beam="2">0</pdfrwt>
<totfact> 0.31024083E+00</totfact>
</mgrwt>
</event>
<event>
 6    1  0.3927553E-003  0.6442076E+03  0.7818608E-02  0.9817709E-01
          1   -1    0    0  502    0  0.00000000000E+00  0.00000000000E+00  0.10586894883E+03  0.10586894883E+03  0.00000000000E+00 0.  1.
         13   -1    0    0    0    0 -0.00000000000E+00 -0.00000000000E+00 -0.10000000000E+04  0.10000000000E+04  0.00000000000E+00 0.  1.
    9000005    2    1    2  501    0  0.38648604925E+00 -0.12013316830E+00 -0.89622778819E+03  0.11037335075E+04  0.64420745376E+03 0.  0.
         13    1    3    3    0    0 -0.19646846734E+03  0.20435266427E+03 -0.70936996979E+03  0.76391467069E+03  0.00000000000E+00 0.  1.
          3    1    3    3  501    0  0.19685495339E+03 -0.20447279743E+03 -0.18685781841E+03  0.33981883683E+03  0.00000000000E+00 0.  1.
         21    1    1    2  502  501 -0.38648604925E+00  0.12013316830E+00  0.20967370293E+01  0.21354413161E+01  0.00000000000E+00 0. -1.
<mgrwt>
<rscale>  1 0.64420758E+03</rscale>
<asrwt>0</asrwt>
<pdfrwt beam="1">  1        1 0.38497881E+00 0.64420758E+03</pdfrwt>
<pdfrwt beam="2">0</pdfrwt>
<totfact> 0.15616099E+00</totfact>
</mgrwt>
</event>
<event>
 6    1  0.3927553E-003  0.6786975E+03  0.7818608E-02  0.9754372E-01
          1   -1    0    0  502    0  0.00000000000E+00  0.00000000000E+00  0.11515763530E+03  0.11515763530E+03  0.00000000000E+00 0.  1.
         13   -1    0    0    0    0 -0.00000000000E+00 -0.00000000000E+00 -0.10000000000E+04  0.10000000000E+04  0.00000000000E+00 0.  1.
    9000005    2    1    2  501    0 -0.83148046826E-04  0.82370907251E-06 -0.88484240722E+03  0.11151575419E+04  0.67869747137E+03 0.  0.
         13    1    3    3    0    0  0.31705085063E+03  0.12015710884E+03 -0.46557439693E+03  0.57595007750E+03  0.00000000000E+00 0.  1.
          1    1    3    3  501    0 -0.31705093378E+03 -0.12015710802E+03 -0.41926801030E+03  0.53920746441E+03  0.00000000000E+00 0.  1.
         21    1    1    2  502  501  0.83148046813E-04 -0.82370907104E-06  0.42523660208E-04  0.93394528014E-04  0.00000000000E+00 0.  1.
<mgrwt>
<rscale>  1 0.67869747E+03</rscale>
<asrwt>0</asrwt>
<pdfrwt beam="1">  1        1 0.41875592E+00 0.67869747E+03</pdfrwt>
<pdfrwt beam="2">0</pdfrwt>
<totfact> 0.10963594E+00</totfact>
</mgrwt>
</event>
<event>
 6    1  0.3927553E-003  0.6477906E+03  0.7818608E-02  0.9810934E-01
          1   -1    0    0  502    0  0.00000000000E+00  0.00000000000E+00  0.10490916872E+03  0.10490916872E+03  0.00000000000E+00 0.  1.
         13   -1    0    0    0    0 -0.00000000000E+00 -0.00000000000E+00 -0.10000000000E+04  0.10000000000E+04  0.00000000000E+00 0.  1.
    9000005    2    1    2  501    0 -0.13178646100E-04 -0.12123882016E-04 -0.89509182038E+03  0.11049081795E+04  0.64779064373E+03 0.  0.
         13    1    3    3    0    0  0.21441775046E+03 -0.22029979340E+03 -0.62149951051E+03  0.69337479926E+03  0.00000000000E+00 0.  1.
          3    1    3    3  501    0 -0.21441776364E+03  0.22029978127E+03 -0.27359230987E+03  0.41153338020E+03  0.00000000000E+00 0.  1.
         21    1    1    2  502  501  0.13178646092E-04  0.12123882024E-04  0.98909900053E-03  0.98926108692E-03  0.00000000000E+00 0.  1.
<mgrwt>
<rscale>  1 0.64779064E+03</rscale>
<asrwt>0</asrwt>
<pdfrwt beam="1">  1        1 0.38148869E+00 0.64779064E+03</pdfrwt>
<pdfrwt beam="2">0</pdfrwt>
<totfact> 0.16169876E+00</totfact>
</mgrwt>
</event>
<event>
 6    1  0.3927553E-003  0.6511811E+03  0.7818608E-02  0.9804565E-01
          1   -1    0    0  502    0  0.00000000000E+00  0.00000000000E+00  0.10600921410E+03  0.10600921410E+03  0.00000000000E+00 0.  1.
         13   -1    0    0    0    0 -0.00000000000E+00 -0.00000000000E+00 -0.10000000000E+04  0.10000000000E+04  0.00000000000E+00 0.  1.
    9000005    2    1    2  501    0  0.21050858834E-05  0.16498033233E-05 -0.89399079999E+03  0.11060091998E+04  0.65118108041E+03 0.  0.
         13    1    3    3    0    0 -0.11645184419E+03 -0.17185095166E+03 -0.20969984294E+02  0.20864688313E+03  0.00000000000E+00 0.  1.
          1    1    3    3  501    0  0.11645184629E+03  0.17185095331E+03 -0.87302081570E+03  0.89736231662E+03  0.00000000000E+00 0.  1.
         21    1    1    2  502  501 -0.21050858759E-05 -0.16498033188E-05  0.14087858119E-04  0.14339490365E-04  0.00000000000E+00 0.  1.
<mgrwt>
<rscale>  1 0.65118108E+03</rscale>
<asrwt>0</asrwt>
<pdfrwt beam="1">  1        1 0.38548886E+00 0.65118108E+03</pdfrwt>
<pdfrwt beam="2">0</pdfrwt>
<totfact> 0.15515111E+00</totfact>
</mgrwt>
</event>
<event>
 6    1  0.3927553E-003  0.5203929E+03  0.7818608E-02  0.1008589E+00
          1   -1    0    0  502    0  0.00000000000E+00  0.00000000000E+00  0.69523501780E+02  0.69523501780E+02  0.00000000000E+00 0.  1.
         13   -1    0    0    0    0 -0.00000000000E+00 -0.00000000000E+00 -0.10000000000E+04  0.10000000000E+04  0.00000000000E+00 0.  1.
    9000005    2    1    2  501    0  0.16702580848E+00  0.34467685121E+00 -0.93227628225E+03  0.10676834142E+04  0.52039279379E+03 0.  0.
         13    1    3    3    0    0  0.42059829940E+02  0.10702419144E+03  0.12782450021E+02  0.11570046619E+03  0.00000000000E+00 0.  1.
          1    1    3    3  501    0 -0.41892804132E+02 -0.10667951459E+03 -0.94505873227E+03  0.95198294801E+03  0.00000000000E+00 0.  1.
         21    1    1    2  502  501 -0.16702580848E+00 -0.34467685121E+00  0.17997840249E+01  0.18400875763E+01  0.00000000000E+00 0.  1.
<mgrwt>
<rscale>  1 0.52039293E+03</rscale>
<asrwt>0</asrwt>
<pdfrwt beam="1">  1        1 0.25281327E+00 0.52039293E+03</pdfrwt>
<pdfrwt beam="2">0</pdfrwt>
<totfact> 0.59837369E+00</totfact>
</mgrwt>
</event>
<event>
 6    1  0.3927553E-003  0.6482093E+03  0.7818608E-02  0.9810145E-01
          1   -1    0    0  502    0  0.00000000000E+00  0.00000000000E+00  0.10504432771E+03  0.10504432771E+03  0.00000000000E+00 0.  1.
         13   -1    0    0    0    0 -0.00000000000E+00 -0.00000000000E+00 -0.10000000000E+04  0.10000000000E+04  0.00000000000E+00 0.  1.
    9000005    2    1    2  501    0  0.41526044203E-03 -0.10953296319E-03 -0.89495608664E+03  0.11050437309E+04  0.64820926426E+03 0.  0.
         13    1    3    3    0    0 -0.31540456839E+03  0.62689482295E+02 -0.51638188785E+03  0.60832579023E+03  0.00000000000E+00 0.  1.
          3    1    3    3  501    0  0.31540498365E+03 -0.62689591828E+02 -0.37857419879E+03  0.49671794071E+03  0.00000000000E+00 0.  1.
         21    1    1    2  502  501 -0.41526044205E-03  0.10953296319E-03  0.41435341300E-03  0.59676415410E-03  0.00000000000E+00 0. -1.
<mgrwt>
<rscale>  1 0.64820926E+03</rscale>
<asrwt>0</asrwt>
<pdfrwt beam="1">  1        1 0.38198018E+00 0.64820926E+03</pdfrwt>
<pdfrwt beam="2">0</pdfrwt>
<totfact> 0.16088028E+00</totfact>
</mgrwt>
</event>
<event>
 6    1  0.3927553E-003  0.6415859E+03  0.7818608E-02  0.9822697E-01
          1   -1    0    0  502    0  0.00000000000E+00  0.00000000000E+00  0.10291725555E+03  0.10291725555E+03  0.00000000000E+00 0.  1.
         13   -1    0    0    0    0 -0.00000000000E+00 -0.00000000000E+00 -0.10000000000E+04  0.10000000000E+04  0.00000000000E+00 0.  1.
    9000005    2    1    2  501    0 -0.15103380219E-02 -0.43095862797E-02 -0.89709124115E+03  0.11029076094E+04  0.64158592563E+03 0.  0.
         13    1    3    3    0    0  0.30653663556E+03 -0.89857324249E+02 -0.39787035802E+03  0.51023511193E+03  0.00000000000E+00 0.  1.
          1    1    3    3  501    0 -0.30653814590E+03  0.89853014663E+02 -0.49922088313E+03  0.59267249750E+03  0.00000000000E+00 0.  1.
         21    1    1    2  502  501  0.15103380220E-02  0.43095862797E-02  0.84967001831E-02  0.96461167754E-02  0.00000000000E+00 0.  1.
<mgrwt>
<rscale>  1 0.64158593E+03</rscale>
<asrwt>0</asrwt>
<pdfrwt beam="1">  1        1 0.37424535E+00 0.64158593E+03</pdfrwt>
<pdfrwt beam="2">0</pdfrwt>
<totfact> 0.17423200E+00</totfact>
</mgrwt>
</event>
<event>
 6    1  0.3927553E-003  0.6822791E+03  0.7818608E-02  0.9748027E-01
          1   -1    0    0  502    0  0.00000000000E+00  0.00000000000E+00  0.11637659969E+03  0.11637659969E+03  0.00000000000E+00 0.  1.
         13   -1    0    0    0    0 -0.00000000000E+00 -0.00000000000E+00 -0.10000000000E+04  0.10000000000E+04  0.00000000000E+00 0.  1.
    9000005    2    1    2  501    0  0.39901147491E-03 -0.76284297774E-03 -0.88362324283E+03  0.11163757245E+04  0.68227906535E+03 0.  0.
         13    1    3    3    0    0  0.20826834985E+02  0.17380738845E+03 -0.92090798271E+03  0.93739760932E+03  0.00000000000E+00 0.  1.
          1    1    3    3  501    0 -0.20826435973E+02 -0.17380815130E+03  0.37284739880E+02  0.17897811520E+03  0.00000000000E+00 0.  1.
         21    1    1    2  502  501 -0.39901147491E-03  0.76284297774E-03 -0.15747715992E-03  0.87517919405E-03  0.00000000000E+00 0. -1.
<mgrwt>
<rscale>  1 0.68227907E+03</rscale>
<asrwt>0</asrwt>
<pdfrwt beam="1">  1        1 0.42318853E+00 0.68227907E+03</pdfrwt>
<pdfrwt beam="2">0</pdfrwt>
<totfact> 0.10462428E+00</totfact>
</mgrwt>
</event>
<event>
 6    1  0.6652483E-003  0.6576891E+03  0.7818608E-02  0.9792457E-01
          3   -1    0    0  502    0  0.00000000000E+00  0.00000000000E+00  0.10813874482E+03  0.10813874482E+03  0.00000000000E+00 0.  1.
         13   -1    0    0    0    0 -0.00000000000E+00 -0.00000000000E+00 -0.10000000000E+04  0.10000000000E+04  0.00000000000E+00 0.  1.
    9000005    2    1    2  501    0  0.39694288034E-05 -0.22619565243E-05 -0.89186125534E+03  0.11081387402E+04  0.65768911262E+03 0.  0.
         13    1    3    3    0    0  0.18538862513E+03  0.24215571214E+03 -0.23867857081E+03  0.38726708021E+03  0.00000000000E+00 0.  1.
          1    1    3    3  501    0 -0.18538862116E+03 -0.24215571440E+03 -0.65318268453E+03  0.72087166004E+03  0.00000000000E+00 0.  1.
         21    1    1    2  502  501 -0.39694287850E-05  0.22619565024E-05  0.15531153452E-06  0.45713164155E-05  0.00000000000E+00 0.  1.
<mgrwt>
<rscale>  1 0.65768911E+03</rscale>
<asrwt>0</asrwt>
<pdfrwt beam="1">  1        3 0.39323263E+00 0.65768911E+03</pdfrwt>
<pdfrwt beam="2">0</pdfrwt>
<totfact> 0.64202302E-02</totfact>
</mgrwt>
</event>
<event>
 6    1  0.3927553E-003  0.6489623E+03  0.7818608E-02  0.9808728E-01
          1   -1    0    0  502    0  0.00000000000E+00  0.00000000000E+00  0.11065712003E+03  0.11065712003E+03  0.00000000000E+00 0.  1.
         13   -1    0    0    0    0 -0.00000000000E+00 -0.00000000000E+00 -0.10000000000E+04  0.10000000000E+04  0.00000000000E+00 0.  1.
    9000005    2    1    2  501    0  0.10666584507E+01  0.11697887411E+01 -0.89458271527E+03  0.11051833608E+04  0.64896033807E+03 0.  0.
         13    1    3    3    0    0 -0.21273554254E+03  0.19080328733E+03 -0.70901565659E+03  0.76443803333E+03  0.00000000000E+00 0.  1.
          1    1    3    3  501    0  0.21380220099E+03 -0.18963349859E+03 -0.18556705868E+03  0.34074532748E+03  0.00000000000E+00 0.  1.
         21    1    1    2  502  501 -0.10666584507E+01 -0.11697887411E+01  0.52398353028E+01  0.54737592155E+01  0.00000000000E+00 0.  1.
<mgrwt>
<rscale>  1 0.64896227E+03</rscale>
<asrwt>0</asrwt>
<pdfrwt beam="1">  1        1 0.40239038E+00 0.64896227E+03</pdfrwt>
<pdfrwt beam="2">0</pdfrwt>
<totfact> 0.13056885E+00</totfact>
</mgrwt>
</event>
<event>
 6    1  0.3927553E-003  0.6354787E+03  0.7818608E-02  0.9834416E-01
          1   -1    0    0  502    0  0.00000000000E+00  0.00000000000E+00  0.10095830362E+03  0.10095830362E+03  0.00000000000E+00 0.  1.
         13   -1    0    0    0    0 -0.00000000000E+00 -0.00000000000E+00 -0.10000000000E+04  0.10000000000E+04  0.00000000000E+00 0.  1.
    9000005    2    1    2  501    0 -0.40664202743E-05 -0.62782177110E-05 -0.89904171738E+03  0.11009582813E+04  0.63547866025E+03 0.  0.
         13    1    3    3    0    0 -0.35686624847E+02  0.27168425378E+03 -0.17085205648E+03  0.32291840169E+03  0.00000000000E+00 0.  1.
          3    1    3    3  501    0  0.35686620780E+02 -0.27168426006E+03 -0.72818966090E+03  0.77803987964E+03  0.00000000000E+00 0.  1.
         21    1    1    2  502  501  0.40664202730E-05  0.62782177279E-05  0.21000118563E-04  0.22292527253E-04  0.00000000000E+00 0.  1.
<mgrwt>
<rscale>  1 0.63547866E+03</rscale>
<asrwt>0</asrwt>
<pdfrwt beam="1">  1        1 0.36712188E+00 0.63547866E+03</pdfrwt>
<pdfrwt beam="2">0</pdfrwt>
<totfact> 0.18745902E+00</totfact>
</mgrwt>
</event>
<event>
 6    1  0.3927553E-003  0.6492740E+03  0.7818608E-02  0.9808143E-01
          1   -1    0    0  502    0  0.00000000000E+00  0.00000000000E+00  0.10539067996E+03  0.10539067996E+03  0.00000000000E+00 0.  1.
         13   -1    0    0    0    0 -0.00000000000E+00 -0.00000000000E+00 -0.10000000000E+04  0.10000000000E+04  0.00000000000E+00 0.  1.
    9000005    2    1    2  501    0 -0.11198483662E-04  0.46607992260E-04 -0.89461083235E+03  0.11053891669E+04  0.64927395521E+03 0.  0.
         13    1    3    3    0    0 -0.28490779954E+03  0.15533862656E+03 -0.43145896217E+03  0.53986977983E+03  0.00000000000E+00 0.  1.
          3    1    3    3  501    0  0.28490778834E+03 -0.15533857995E+03 -0.46315187018E+03  0.56551938705E+03  0.00000000000E+00 0.  1.
         21    1    1    2  502  501  0.11198483667E-04 -0.46607992251E-04  0.15123111945E-02  0.15130706725E-02  0.00000000000E+00 0. -1.
<mgrwt>
<rscale>  1 0.64927396E+03</rscale>
<asrwt>0</asrwt>
<pdfrwt beam="1">  1        1 0.38323964E+00 0.64927396E+03</pdfrwt>
<pdfrwt beam="2">0</pdfrwt>
<totfact> 0.15880106E+00</totfact>
</mgrwt>
</event>
<event>
 6    1  0.3927553E-003  0.6563119E+03  0.7818608E-02  0.9795007E-01
          1   -1    0    0  502    0  0.00000000000E+00  0.00000000000E+00  0.14222125141E+03  0.14222125141E+03  0.00000000000E+00 0.  1.
         13   -1    0    0    0    0 -0.00000000000E+00 -0.00000000000E+00 -0.10000000000E+04  0.10000000000E+04  0.00000000000E+00 0.  1.
    9000005    2    1    2  501    0 -0.35696796382E+02 -0.47943449501E+02 -0.86069425554E+03  0.10823769885E+04  0.65358435423E+03 0.  0.
         13    1    3    3    0    0 -0.17656433534E+03 -0.17492612968E+03 -0.85739771156E+03  0.89269532940E+03  0.00000000000E+00 0.  1.
          1    1    3    3  501    0  0.14086753896E+03  0.12698268018E+03 -0.32965439871E+01  0.18968165910E+03  0.00000000000E+00 0.  1.
         21    1    1    2  502  501  0.35696796382E+02  0.47943449501E+02  0.29155069529E+01  0.59844262906E+02  0.00000000000E+00 0.  1.
<mgrwt>
<rscale>  1 0.65631193E+03</rscale>
<asrwt>0</asrwt>
<pdfrwt beam="1">  1        1 0.51716928E+00 0.65631193E+03</pdfrwt>
<pdfrwt beam="2">0</pdfrwt>
<totfact> 0.38111922E-01</totfact>
</mgrwt>
</event>
<event>
 6    1  0.3927553E-003  0.5346283E+03  0.7818608E-02  0.1005116E+00
          1   -1    0    0  502    0  0.00000000000E+00  0.00000000000E+00  0.72645715282E+02  0.72645715282E+02  0.00000000000E+00 0.  1.
         13   -1    0    0    0    0 -0.00000000000E+00 -0.00000000000E+00 -0.10000000000E+04  0.10000000000E+04  0.00000000000E+00 0.  1.
    9000005    2    1    2  501    0  0.13662825483E+00  0.99201245457E-01 -0.92853672721E+03  0.10714512788E+04  0.53462824527E+03 0.  0.
         13    1    3    3    0    0  0.47130593047E+02  0.10704407957E+03  0.17471503401E+02  0.11825811263E+03  0.00000000000E+00 0.  1.
          3    1    3    3  501    0 -0.46993964792E+02 -0.10694487832E+03 -0.94600823061E+03  0.95319316621E+03  0.00000000000E+00 0.  1.
         21    1    1    2  502  501 -0.13662825483E+00 -0.99201245457E-01  0.11824424935E+01  0.11944364435E+01  0.00000000000E+00 0.  1.
<mgrwt>
<rscale>  1 0.53462827E+03</rscale>
<asrwt>0</asrwt>
<pdfrwt beam="1">  1        1 0.26416679E+00 0.53462827E+03</pdfrwt>
<pdfrwt beam="2">0</pdfrwt>
<totfact> 0.53294614E+00</totfact>
</mgrwt>
</event>
<event>
 6    1  0.3927553E-003  0.6551517E+03  0.7818608E-02  0.9797160E-01
          1   -1    0    0  502    0  0.00000000000E+00  0.00000000000E+00  0.10730597199E+03  0.10730597199E+03  0.00000000000E+00 0.  1.
         13   -1    0    0    0    0 -0.00000000000E+00 -0.00000000000E+00 -0.10000000000E+04  0.10000000000E+04  0.00000000000E+00 0.  1.
    9000005    2    1    2  501    0  0.16506868860E-04  0.35406842329E-04 -0.89269405758E+03  0.11073059230E+04  0.65515168217E+03 0.  0.
         13    1    3    3    0    0  0.25791689007E+03 -0.14916132736E+03 -0.21623975719E+03  0.36814379847E+03  0.00000000000E+00 0.  1.
          1    1    3    3  501    0 -0.25791687356E+03  0.14916136277E+03 -0.67645430039E+03  0.73916212452E+03  0.00000000000E+00 0.  1.
         21    1    1    2  502  501 -0.16506868849E-04 -0.35406842348E-04  0.29574750266E-04  0.48997827070E-04  0.00000000000E+00 0.  1.
<mgrwt>
<rscale>  1 0.65515168E+03</rscale>
<asrwt>0</asrwt>
<pdfrwt beam="1">  1        1 0.39020436E+00 0.65515168E+03</pdfrwt>
<pdfrwt beam="2">0</pdfrwt>
<totfact> 0.14775668E+00</totfact>
</mgrwt>
</event>
<event>
 6    1  0.3927553E-003  0.6442896E+03  0.7818608E-02  0.9817554E-01
          1   -1    0    0  502    0  0.00000000000E+00  0.00000000000E+00  0.10510587250E+03  0.10510587250E+03  0.00000000000E+00 0.  1.
         13   -1    0    0    0    0 -0.00000000000E+00 -0.00000000000E+00 -0.10000000000E+04  0.10000000000E+04  0.00000000000E+00 0.  1.
    9000005    2    1    2  501    0 -0.59661943937E+00 -0.23605429712E+00 -0.89613670349E+03  0.11037074193E+04  0.64428927067E+03 0.  0.
         13    1    3    3    0    0  0.22133046638E+03 -0.17650860699E+03 -0.71072711679E+03  0.76503300467E+03  0.00000000000E+00 0.  1.
          3    1    3    3  501    0 -0.22192708582E+03  0.17627255270E+03 -0.18540958670E+03  0.33867441459E+03  0.00000000000E+00 0.  1.
         21    1    1    2  502  501  0.59661943937E+00  0.23605429712E+00  0.12425759867E+01  0.13984532417E+01  0.00000000000E+00 0. -1.
<mgrwt>
<rscale>  1 0.64428959E+03</rscale>
<asrwt>0</asrwt>
<pdfrwt beam="1">  1        1 0.38220398E+00 0.64428959E+03</pdfrwt>
<pdfrwt beam="2">0</pdfrwt>
<totfact> 0.16063074E+00</totfact>
</mgrwt>
</event>
<event>
 6    1  0.3927553E-003  0.6769455E+03  0.7818608E-02  0.9757491E-01
          1   -1    0    0  502    0  0.00000000000E+00  0.00000000000E+00  0.12095018160E+03  0.12095018160E+03  0.00000000000E+00 0.  1.
         13   -1    0    0    0    0 -0.00000000000E+00 -0.00000000000E+00 -0.10000000000E+04  0.10000000000E+04  0.00000000000E+00 0.  1.
    9000005    2    1    2  501    0 -0.56713260044E+01 -0.59359037376E+00 -0.88398328641E+03  0.11134099300E+04  0.67692149116E+03 0.  0.
         13    1    3    3    0    0  0.11832465160E+03 -0.31567664460E+03 -0.47441014750E+03  0.58199437727E+03  0.00000000000E+00 0.  1.
          3    1    3    3  501    0 -0.12399597761E+03  0.31508305423E+03 -0.40957313891E+03  0.53141555269E+03  0.00000000000E+00 0.  1.
         21    1    1    2  502  501  0.56713260044E+01  0.59359037376E+00  0.49334680138E+01  0.75402516419E+01  0.00000000000E+00 0.  1.
<mgrwt>
<rscale>  1 0.67694551E+03</rscale>
<asrwt>0</asrwt>
<pdfrwt beam="1">  1        1 0.43981977E+00 0.67694551E+03</pdfrwt>
<pdfrwt beam="2">0</pdfrwt>
<totfact> 0.87988776E-01</totfact>
</mgrwt>
</event>
<event>
 6    1  0.3927553E-003  0.6481554E+03  0.7818608E-02  0.9810247E-01
          1   -1    0    0  502    0  0.00000000000E+00  0.00000000000E+00  0.10502707955E+03  0.10502707955E+03  0.00000000000E+00 0.  1.
         13   -1    0    0    0    0 -0.00000000000E+00 -0.00000000000E+00 -0.10000000000E+04  0.10000000000E+04  0.00000000000E+00 0.  1.
    9000005    2    1    2  501    0  0.15628884498E-04 -0.12060230432E-04 -0.89497362867E+03  0.11050263711E+04  0.64815544796E+03 0.  0.
         13    1    3    3    0    0 -0.75809558949E+02 -0.14820362538E+03  0.26564391537E+02  0.16857363584E+03  0.00000000000E+00 0.  1.
          3    1    3    3  501    0  0.75809574578E+02  0.14820361332E+03 -0.92153802021E+03  0.93645273521E+03  0.00000000000E+00 0.  1.
         21    1    1    2  502  501 -0.15628884496E-04  0.12060230446E-04  0.70822076829E-03  0.70849584884E-03  0.00000000000E+00 0. -1.
<mgrwt>
<rscale>  1 0.64815545E+03</rscale>
<asrwt>0</asrwt>
<pdfrwt beam="1">  1        1 0.38191746E+00 0.64815545E+03</pdfrwt>
<pdfrwt beam="2">0</pdfrwt>
<totfact> 0.16098452E+00</totfact>
</mgrwt>
</event>
<event>
 6    1  0.3927553E-003  0.6555294E+03  0.7818608E-02  0.9796459E-01
          1   -1    0    0  502    0  0.00000000000E+00  0.00000000000E+00  0.10742976923E+03  0.10742976923E+03  0.00000000000E+00 0.  1.
         13   -1    0    0    0    0 -0.00000000000E+00 -0.00000000000E+00 -0.10000000000E+04  0.10000000000E+04  0.00000000000E+00 0.  1.
    9000005    2    1    2  501    0  0.88288007845E-04 -0.56301592195E-04 -0.89257027830E+03  0.11074296542E+04  0.65552935661E+03 0.  0.
         13    1    3    3    0    0  0.22003684824E+03 -0.19943354665E+03 -0.68061301533E+03  0.74257930940E+03  0.00000000000E+00 0.  1.
          1    1    3    3  501    0 -0.22003675995E+03  0.19943349035E+03 -0.21195726297E+03  0.36485034484E+03  0.00000000000E+00 0.  1.
         21    1    1    2  502  501 -0.88288007871E-04  0.56301592175E-04  0.47535761307E-04  0.11499691395E-03  0.00000000000E+00 0.  1.
<mgrwt>
<rscale>  1 0.65552936E+03</rscale>
<asrwt>0</asrwt>
<pdfrwt beam="1">  1        1 0.39065453E+00 0.65552936E+03</pdfrwt>
<pdfrwt beam="2">0</pdfrwt>
<totfact> 0.14706855E+00</totfact>
</mgrwt>
</event>
<event>
 6    1  0.3927553E-003  0.6480622E+03  0.7818608E-02  0.9810422E-01
          1   -1    0    0  502    0  0.00000000000E+00  0.00000000000E+00  0.10536825803E+03  0.10536825803E+03  0.00000000000E+00 0.  1.
         13   -1    0    0    0    0 -0.00000000000E+00 -0.00000000000E+00 -0.10000000000E+04  0.10000000000E+04  0.00000000000E+00 0.  1.
    9000005    2    1    2  501    0 -0.77496463015E-02 -0.30667820424E-01 -0.89500310318E+03  0.11049955521E+04  0.64806219952E+03 0.  0.
         13    1    3    3    0    0  0.31703186710E+03  0.56984621981E+02 -0.38755977361E+03  0.50394347899E+03  0.00000000000E+00 0.  1.
          1    1    3    3  501    0 -0.31703961674E+03 -0.57015289801E+02 -0.50744332956E+03  0.60105207310E+03  0.00000000000E+00 0.  1.
         21    1    1    2  502  501  0.77496463015E-02  0.30667820424E-01  0.37136120227E+00  0.37270593607E+00  0.00000000000E+00 0.  1.
<mgrwt>
<rscale>  1 0.64806220E+03</rscale>
<asrwt>0</asrwt>
<pdfrwt beam="1">  1        1 0.38315811E+00 0.64806220E+03</pdfrwt>
<pdfrwt beam="2">0</pdfrwt>
<totfact> 0.15896838E+00</totfact>
</mgrwt>
</event>
<event>
 6    1  0.3927553E-003  0.6419360E+03  0.7818608E-02  0.9822030E-01
          1   -1    0    0  502    0  0.00000000000E+00  0.00000000000E+00  0.10370801298E+03  0.10370801298E+03  0.00000000000E+00 0.  1.
         13   -1    0    0    0    0 -0.00000000000E+00 -0.00000000000E+00 -0.10000000000E+04  0.10000000000E+04  0.00000000000E+00 0.  1.
    9000005    2    1    2  501    0 -0.22258448759E+00  0.33962679198E+00 -0.89691281495E+03  0.11029661791E+04  0.64193584546E+03 0.  0.
         13    1    3    3    0    0  0.11897811048E+03 -0.10709212653E+02 -0.96016757960E+03  0.96757028630E+03  0.00000000000E+00 0.  1.
          3    1    3    3  501    0 -0.11920069496E+03  0.11048839445E+02  0.63254764650E+02  0.13539589279E+03  0.00000000000E+00 0.  1.
         21    1    1    2  502  501  0.22258448759E+00 -0.33962679198E+00  0.62082792371E+00  0.74183389165E+00  0.00000000000E+00 0. -1.
<mgrwt>
<rscale>  1 0.64193597E+03</rscale>
<asrwt>0</asrwt>
<pdfrwt beam="1">  1        1 0.37712084E+00 0.64193597E+03</pdfrwt>
<pdfrwt beam="2">0</pdfrwt>
<totfact> 0.16921513E+00</totfact>
</mgrwt>
</event>
<event>
 6    1  0.3927553E-003  0.6164039E+03  0.7818608E-02  0.9871946E-01
          1   -1    0    0  502    0  0.00000000000E+00  0.00000000000E+00  0.95508283645E+02  0.95508283645E+02  0.00000000000E+00 0.  1.
         13   -1    0    0    0    0 -0.00000000000E+00 -0.00000000000E+00 -0.10000000000E+04  0.10000000000E+04  0.00000000000E+00 0.  1.
    9000005    2    1    2  501    0 -0.43781063298E+00 -0.42317304210E+00 -0.90480948677E+03  0.10948214564E+04  0.61640363674E+03 0.  0.
         13    1    3    3    0    0  0.26517653166E+03  0.15521776478E+03 -0.41665220831E+03  0.51769702543E+03  0.00000000000E+00 0.  1.
          3    1    3    3  501    0 -0.26561434230E+03 -0.15564093782E+03 -0.48815727845E+03  0.57712443101E+03  0.00000000000E+00 0.  1.
         21    1    1    2  502  501  0.43781063298E+00  0.42317304210E+00  0.31777041155E+00  0.68682720416E+00  0.00000000000E+00 0.  1.
<mgrwt>
<rscale>  1 0.61640394E+03</rscale>
<asrwt>0</asrwt>
<pdfrwt beam="1">  1        1 0.34730358E+00 0.61640394E+03</pdfrwt>
<pdfrwt beam="2">0</pdfrwt>
<totfact> 0.22960698E+00</totfact>
</mgrwt>
</event>
<event>
 6    1  0.3927553E-003  0.6474508E+03  0.7818608E-02  0.9811574E-01
          1   -1    0    0  502    0  0.00000000000E+00  0.00000000000E+00  0.10615072358E+03  0.10615072358E+03  0.00000000000E+00 0.  1.
         13   -1    0    0    0    0 -0.00000000000E+00 -0.00000000000E+00 -0.10000000000E+04  0.10000000000E+04  0.00000000000E+00 0.  1.
    9000005    2    1    2  501    0  0.48536419007E+00 -0.34930774567E+01 -0.89189023374E+03  0.11021164930E+04  0.64744122345E+03 0.  0.
         13    1    3    3    0    0  0.16668140037E+03 -0.35410433971E+01 -0.91875859844E+03  0.93376259853E+03  0.00000000000E+00 0.  1.
          3    1    3    3  501    0 -0.16619603618E+03  0.47965940383E-01  0.26868364697E+02  0.16835389442E+03  0.00000000000E+00 0.  1.
         21    1    1    2  502  501 -0.48536419007E+00  0.34930774567E+01 -0.19590426815E+01  0.40342306260E+01  0.00000000000E+00 0.  1.
<mgrwt>
<rscale>  1 0.64745083E+03</rscale>
<asrwt>0</asrwt>
<pdfrwt beam="1">  1        1 0.38600345E+00 0.64745083E+03</pdfrwt>
<pdfrwt beam="2">0</pdfrwt>
<totfact> 0.15444650E+00</totfact>
</mgrwt>
</event>
<event>
 6    1  0.3927553E-003  0.6196908E+03  0.7818608E-02  0.9865376E-01
          1   -1    0    0  502    0  0.00000000000E+00  0.00000000000E+00  0.96005312106E+02  0.96005312106E+02  0.00000000000E+00 0.  1.
         13   -1    0    0    0    0 -0.00000000000E+00 -0.00000000000E+00 -0.10000000000E+04  0.10000000000E+04  0.00000000000E+00 0.  1.
    9000005    2    1    2  501    0  0.16038279978E-03 -0.82215670923E-03 -0.90399567205E+03  0.10960040197E+04  0.61969075852E+03 0.  0.
         13    1    3    3    0    0  0.30852953354E+03  0.28502774271E+02 -0.45401746127E+03  0.54966784183E+03  0.00000000000E+00 0.  1.
          1    1    3    3  501    0 -0.30852937316E+03 -0.28503596427E+02 -0.44997821078E+03  0.54633617790E+03  0.00000000000E+00 0.  1.
         21    1    1    2  502  501 -0.16038279980E-03  0.82215670923E-03  0.98415165121E-03  0.12923694401E-02  0.00000000000E+00 0.  1.
<mgrwt>
<rscale>  1 0.61969076E+03</rscale>
<asrwt>0</asrwt>
<pdfrwt beam="1">  1        1 0.34911096E+00 0.61969076E+03</pdfrwt>
<pdfrwt beam="2">0</pdfrwt>
<totfact> 0.22535110E+00</totfact>
</mgrwt>
</event>
<event>
 6    1  0.3927553E-003  0.6547904E+03  0.7818608E-02  0.9797832E-01
          1   -1    0    0  502    0  0.00000000000E+00  0.00000000000E+00  0.10840968089E+03  0.10840968089E+03  0.00000000000E+00 0.  1.
         13   -1    0    0    0    0 -0.00000000000E+00 -0.00000000000E+00 -0.10000000000E+04  0.10000000000E+04  0.00000000000E+00 0.  1.
    9000005    2    1    2  501    0 -0.19696201954E-01  0.73911819794E-03 -0.89281228457E+03  0.11071875565E+04  0.65479043162E+03 0.  0.
         13    1    3    3    0    0 -0.22820280190E+03 -0.82279450601E+02 -0.81820520269E+03  0.85340856598E+03  0.00000000000E+00 0.  1.
          1    1    3    3  501    0  0.22818310570E+03  0.82280189719E+02 -0.74607081884E+02  0.25377899049E+03  0.00000000000E+00 0.  1.
         21    1    1    2  502  501  0.19696201954E-01 -0.73911819795E-03  0.12219654663E+01  0.12221244157E+01  0.00000000000E+00 0. -1.
<mgrwt>
<rscale>  1 0.65479043E+03</rscale>
<asrwt>0</asrwt>
<pdfrwt beam="1">  1        1 0.39421785E+00 0.65479043E+03</pdfrwt>
<pdfrwt beam="2">0</pdfrwt>
<totfact> 0.14182646E+00</totfact>
</mgrwt>
</event>
<event>
 6    1  0.3927553E-003  0.6458486E+03  0.7818608E-02  0.9814600E-01
          1   -1    0    0  502    0  0.00000000000E+00  0.00000000000E+00  0.10428212123E+03  0.10428212123E+03  0.00000000000E+00 0.  1.
         13   -1    0    0    0    0 -0.00000000000E+00 -0.00000000000E+00 -0.10000000000E+04  0.10000000000E+04  0.00000000000E+00 0.  1.
    9000005    2    1    2  501    0 -0.88096045118E-04  0.99955953687E-04 -0.89571989227E+03  0.11042801033E+04  0.64584860547E+03 0.  0.
         13    1    3    3    0    0  0.43602163437E+02  0.18248099520E+02 -0.99405332175E+03  0.99517644078E+03  0.00000000000E+00 0.  1.
          1    1    3    3  501    0 -0.43602251533E+02 -0.18247999564E+02  0.98333429483E+02  0.10910366255E+03  0.00000000000E+00 0.  1.
         21    1    1    2  502  501  0.88096045123E-04 -0.99955953687E-04  0.20134984261E-02  0.20179018851E-02  0.00000000000E+00 0.  1.
<mgrwt>
<rscale>  1 0.64584861E+03</rscale>
<asrwt>0</asrwt>
<pdfrwt beam="1">  1        1 0.37920851E+00 0.64584861E+03</pdfrwt>
<pdfrwt beam="2">0</pdfrwt>
<totfact> 0.16554810E+00</totfact>
</mgrwt>
</event>
<event>
 6    1  0.3927553E-003  0.6510993E+03  0.7818608E-02  0.9804719E-01
          1   -1    0    0  502    0  0.00000000000E+00  0.00000000000E+00  0.10605112042E+03  0.10605112042E+03  0.00000000000E+00 0.  1.
         13   -1    0    0    0    0 -0.00000000000E+00 -0.00000000000E+00 -0.10000000000E+04  0.10000000000E+04  0.00000000000E+00 0.  1.
    9000005    2    1    2  501    0 -0.93063501041E-02  0.16229513938E-02 -0.89401707425E+03  0.11059822745E+04  0.65109927236E+03 0.  0.
         13    1    3    3    0    0 -0.88531317416E+02 -0.31087156250E+03 -0.38113438921E+03  0.49974227876E+03  0.00000000000E+00 0.  1.
          1    1    3    3  501    0  0.88522011066E+02  0.31087318546E+03 -0.51288268504E+03  0.60623999579E+03  0.00000000000E+00 0.  1.
         21    1    1    2  502  501  0.93063501041E-02 -0.16229513938E-02  0.68194667169E-01  0.68845876810E-01  0.00000000000E+00 0. -1.
<mgrwt>
<rscale>  1 0.65109927E+03</rscale>
<asrwt>0</asrwt>
<pdfrwt beam="1">  1        1 0.38564125E+00 0.65109927E+03</pdfrwt>
<pdfrwt beam="2">0</pdfrwt>
<totfact> 0.15491276E+00</totfact>
</mgrwt>
</event>
<event>
 6    1  0.3927553E-003  0.6527247E+03  0.7818608E-02  0.9801680E-01
          1   -1    0    0  502    0  0.00000000000E+00  0.00000000000E+00  0.10652692860E+03  0.10652692860E+03  0.00000000000E+00 0.  1.
         13   -1    0    0    0    0 -0.00000000000E+00 -0.00000000000E+00 -0.10000000000E+04  0.10000000000E+04  0.00000000000E+00 0.  1.
    9000005    2    1    2  501    0 -0.14611915449E-02  0.10191371776E-02 -0.89348755221E+03  0.11065123386E+04  0.65272471192E+03 0.  0.
         13    1    3    3    0    0 -0.28108930020E+03  0.84516802266E+02 -0.20486470814E+03  0.35794389672E+03  0.00000000000E+00 0.  1.
          1    1    3    3  501    0  0.28108783901E+03 -0.84515783129E+02 -0.68862284407E+03  0.74856844190E+03  0.00000000000E+00 0.  1.
         21    1    1    2  502  501  0.14611915449E-02 -0.10191371776E-02  0.14480805749E-01  0.14589977946E-01  0.00000000000E+00 0. -1.
<mgrwt>
<rscale>  1 0.65272471E+03</rscale>
<asrwt>0</asrwt>
<pdfrwt beam="1">  1        1 0.38737147E+00 0.65272471E+03</pdfrwt>
<pdfrwt beam="2">0</pdfrwt>
<totfact> 0.15215899E+00</totfact>
</mgrwt>
</event>
<event>
 6    1  0.3927553E-003  0.6332924E+03  0.7818608E-02  0.9838645E-01
          1   -1    0    0  502    0  0.00000000000E+00  0.00000000000E+00  0.10087473981E+03  0.10087473981E+03  0.00000000000E+00 0.  1.
         13   -1    0    0    0    0 -0.00000000000E+00 -0.00000000000E+00 -0.10000000000E+04  0.10000000000E+04  0.00000000000E+00 0.  1.
    9000005    2    1    2  501    0  0.17808610852E-01 -0.82422794414E-02 -0.89973500778E+03  0.11002646765E+04  0.63329240781E+03 0.  0.
         13    1    3    3    0    0  0.24783884323E+03 -0.59353908510E+02 -0.77640625352E+03  0.81716194795E+03  0.00000000000E+00 0.  1.
          1    1    3    3  501    0 -0.24782103462E+03  0.59345666230E+02 -0.12332875426E+03  0.28310272858E+03  0.00000000000E+00 0.  1.
         21    1    1    2  502  501 -0.17808610852E-01  0.82422794414E-02  0.60974758964E+00  0.61006327939E+00  0.00000000000E+00 0.  1.
<mgrwt>
<rscale>  1 0.63329241E+03</rscale>
<asrwt>0</asrwt>
<pdfrwt beam="1">  1        1 0.36681801E+00 0.63329241E+03</pdfrwt>
<pdfrwt beam="2">0</pdfrwt>
<totfact> 0.18810994E+00</totfact>
</mgrwt>
</event>
<event>
 6    1  0.3927553E-003  0.6512076E+03  0.7818608E-02  0.9804516E-01
          1   -1    0    0  502    0  0.00000000000E+00  0.00000000000E+00  0.10602376811E+03  0.10602376811E+03  0.00000000000E+00 0.  1.
         13   -1    0    0    0    0 -0.00000000000E+00 -0.00000000000E+00 -0.10000000000E+04  0.10000000000E+04  0.00000000000E+00 0.  1.
    9000005    2    1    2  501    0 -0.12040210211E-03  0.34363853942E-03 -0.89398216200E+03  0.11060178268E+04  0.65120759154E+03 0.  0.
         13    1    3    3    0    0  0.17031645064E+03  0.10357763261E+03 -0.88425127298E+03  0.90644157733E+03  0.00000000000E+00 0.  1.
          3    1    3    3  501    0 -0.17031657104E+03 -0.10357728897E+03 -0.97308890221E+01  0.19957624950E+03  0.00000000000E+00 0.  1.
         21    1    1    2  502  501  0.12040210213E-03 -0.34363853942E-03  0.59301184489E-02  0.59412868076E-02  0.00000000000E+00 0.  1.
<mgrwt>
<rscale>  1 0.65120759E+03</rscale>
<asrwt>0</asrwt>
<pdfrwt beam="1">  1        1 0.38554179E+00 0.65120759E+03</pdfrwt>
<pdfrwt beam="2">0</pdfrwt>
<totfact> 0.15506672E+00</totfact>
</mgrwt>
</event>
<event>
 6    1  0.3927553E-003  0.6575127E+03  0.7818608E-02  0.9792783E-01
          1   -1    0    0  502    0  0.00000000000E+00  0.00000000000E+00  0.10808165429E+03  0.10808165429E+03  0.00000000000E+00 0.  1.
         13   -1    0    0    0    0 -0.00000000000E+00 -0.00000000000E+00 -0.10000000000E+04  0.10000000000E+04  0.00000000000E+00 0.  1.
    9000005    2    1    2  501    0  0.24238959566E-03  0.36178695932E-04 -0.89191923635E+03  0.11080807305E+04  0.65751272325E+03 0.  0.
         13    1    3    3    0    0  0.35630991832E+02 -0.12448189755E+02 -0.99633673143E+03  0.99705135645E+03  0.00000000000E+00 0.  1.
          1    1    3    3  501    0 -0.35630749443E+02  0.12448225933E+02  0.10441749507E+03  0.11102937410E+03  0.00000000000E+00 0.  1.
         21    1    1    2  502  501 -0.24238959566E-03 -0.36178695931E-04  0.89064046935E-03  0.92374350323E-03  0.00000000000E+00 0.  1.
<mgrwt>
<rscale>  1 0.65751272E+03</rscale>
<asrwt>0</asrwt>
<pdfrwt beam="1">  1        1 0.39302503E+00 0.65751272E+03</pdfrwt>
<pdfrwt beam="2">0</pdfrwt>
<totfact> 0.14349502E+00</totfact>
</mgrwt>
</event>
<event>
 6    1  0.3927553E-003  0.6592505E+03  0.7818608E-02  0.9789574E-01
          1   -1    0    0  502    0  0.00000000000E+00  0.00000000000E+00  0.10881910085E+03  0.10881910085E+03  0.00000000000E+00 0.  1.
         13   -1    0    0    0    0 -0.00000000000E+00 -0.00000000000E+00 -0.10000000000E+04  0.10000000000E+04  0.00000000000E+00 0.  1.
    9000005    2    1    2  501    0  0.87305757242E-03 -0.84195607101E-02 -0.89134707183E+03  0.11086527127E+04  0.65925050998E+03 0.  0.
         13    1    3    3    0    0  0.17372517008E+02 -0.11003740785E+03  0.76037028258E+02  0.13487648105E+03  0.00000000000E+00 0.  1.
          1    1    3    3  501    0 -0.17371643950E+02  0.11002898829E+03 -0.96738410008E+03  0.97377623167E+03  0.00000000000E+00 0.  1.
         21    1    1    2  502  501 -0.87305757242E-03  0.84195607101E-02  0.16617267504E+00  0.16638812807E+00  0.00000000000E+00 0.  1.
<mgrwt>
<rscale>  1 0.65925051E+03</rscale>
<asrwt>0</asrwt>
<pdfrwt beam="1">  1        1 0.39570666E+00 0.65925051E+03</pdfrwt>
<pdfrwt beam="2">0</pdfrwt>
<totfact> 0.13956477E+00</totfact>
</mgrwt>
</event>
<event>
 6    1  0.3927553E-003  0.6483524E+03  0.7818608E-02  0.9809876E-01
          1   -1    0    0  502    0  0.00000000000E+00  0.00000000000E+00  0.10520231105E+03  0.10520231105E+03  0.00000000000E+00 0.  1.
         13   -1    0    0    0    0 -0.00000000000E+00 -0.00000000000E+00 -0.10000000000E+04  0.10000000000E+04  0.00000000000E+00 0.  1.
    9000005    2    1    2  501    0 -0.69300219027E-02 -0.26997339398E-01 -0.89490788336E+03  0.11050886462E+04  0.64835236991E+03 0.  0.
         13    1    3    3    0    0 -0.18849004946E+03  0.24877539048E+03 -0.29819685706E+03  0.43167008145E+03  0.00000000000E+00 0.  1.
          1    1    3    3  501    0  0.18848311944E+03 -0.24880238782E+03 -0.59671102630E+03  0.67341856479E+03  0.00000000000E+00 0.  1.
         21    1    1    2  502  501  0.69300219027E-02  0.26997339398E-01  0.11019440740E+00  0.11366480969E+00  0.00000000000E+00 0.  1.
<mgrwt>
<rscale>  1 0.64835237E+03</rscale>
<asrwt>0</asrwt>
<pdfrwt beam="1">  1        1 0.38255467E+00 0.64835237E+03</pdfrwt>
<pdfrwt beam="2">0</pdfrwt>
<totfact> 0.15993877E+00</totfact>
</mgrwt>
</event>
<event>
 6    1  0.3927553E-003  0.6526404E+03  0.7818608E-02  0.9801837E-01
          1   -1    0    0  502    0  0.00000000000E+00  0.00000000000E+00  0.10648580189E+03  0.10648580189E+03  0.00000000000E+00 0.  1.
         13   -1    0    0    0    0 -0.00000000000E+00 -0.00000000000E+00 -0.10000000000E+04  0.10000000000E+04  0.00000000000E+00 0.  1.
    9000005    2    1    2  501    0 -0.19840708164E-02 -0.12993384030E-02 -0.89351298779E+03  0.11064831392E+04  0.65264038955E+03 0.  0.
         13    1    3    3    0    0 -0.68630734793E+02  0.65472813220E+02  0.82597830276E+02  0.12577467390E+03  0.00000000000E+00 0.  1.
          3    1    3    3  501    0  0.68628750722E+02 -0.65474112559E+02 -0.97611081807E+03  0.98070846534E+03  0.00000000000E+00 0.  1.
         21    1    1    2  502  501  0.19840708164E-02  0.12993384030E-02 -0.12103142458E-02  0.26626449000E-02  0.00000000000E+00 0.  1.
<mgrwt>
<rscale>  1 0.65264039E+03</rscale>
<asrwt>0</asrwt>
<pdfrwt beam="1">  1        1 0.38722191E+00 0.65264039E+03</pdfrwt>
<pdfrwt beam="2">0</pdfrwt>
<totfact> 0.15239358E+00</totfact>
</mgrwt>
</event>
<event>
 6    1  0.3927553E-003  0.6012200E+03  0.7818608E-02  0.9902878E-01
          1   -1    0    0  502    0  0.00000000000E+00  0.00000000000E+00  0.91775468862E+02  0.91775468862E+02  0.00000000000E+00 0.  1.
         13   -1    0    0    0    0 -0.00000000000E+00 -0.00000000000E+00 -0.10000000000E+04  0.10000000000E+04  0.00000000000E+00 0.  1.
    9000005    2    1    2  501    0 -0.14226078319E+01  0.47026682620E+00 -0.90918762540E+03  0.10899943135E+04  0.60121811373E+03 0.  0.
         13    1    3    3    0    0 -0.10449238519E+01  0.26328233825E+03 -0.71870372219E+03  0.76541081897E+03  0.00000000000E+00 0.  1.
          1    1    3    3  501    0 -0.37768398001E+00 -0.26281207142E+03 -0.19048390321E+03  0.32458349451E+03  0.00000000000E+00 0.  1.
         21    1    1    2  502  501  0.14226078319E+01 -0.47026682619E+00  0.96309426153E+00  0.17811553800E+01  0.00000000000E+00 0.  1.
<mgrwt>
<rscale>  1 0.60121998E+03</rscale>
<asrwt>0</asrwt>
<pdfrwt beam="1">  1        1 0.33372968E+00 0.60121998E+03</pdfrwt>
<pdfrwt beam="2">0</pdfrwt>
<totfact> 0.26370632E+00</totfact>
</mgrwt>
</event>
<event>
 6    1  0.3927553E-003  0.6550892E+03  0.7818608E-02  0.9797276E-01
          1   -1    0    0  502    0  0.00000000000E+00  0.00000000000E+00  0.10738650212E+03  0.10738650212E+03  0.00000000000E+00 0.  1.
         13   -1    0    0    0    0 -0.00000000000E+00 -0.00000000000E+00 -0.10000000000E+04  0.10000000000E+04  0.00000000000E+00 0.  1.
    9000005    2    1    2  501    0 -0.66755816117E-02 -0.22520685612E-02 -0.89271439975E+03  0.11072853546E+04  0.65508919768E+03 0.  0.
         13    1    3    3    0    0  0.16078371883E+03  0.22055841281E+03 -0.75241387521E+03  0.80038994079E+03  0.00000000000E+00 0.  1.
          3    1    3    3  501    0 -0.16079039442E+03 -0.22056066488E+03 -0.14030052454E+03  0.30689541380E+03  0.00000000000E+00 0.  1.
         21    1    1    2  502  501  0.66755816117E-02  0.22520685612E-02  0.10090187430E+00  0.10114753304E+00  0.00000000000E+00 0. -1.
<mgrwt>
<rscale>  1 0.65508920E+03</rscale>
<asrwt>0</asrwt>
<pdfrwt beam="1">  1        1 0.39049719E+00 0.65508920E+03</pdfrwt>
<pdfrwt beam="2">0</pdfrwt>
<totfact> 0.14731713E+00</totfact>
</mgrwt>
</event>
<event>
 6    1  0.3927553E-003  0.4922969E+03  0.7818608E-02  0.1015809E+00
          1   -1    0    0  502    0  0.00000000000E+00  0.00000000000E+00  0.60616092554E+02  0.60616092554E+02  0.00000000000E+00 0.  1.
         13   -1    0    0    0    0 -0.00000000000E+00 -0.00000000000E+00 -0.10000000000E+04  0.10000000000E+04  0.00000000000E+00 0.  1.
    9000005    2    1    2  501    0  0.55120868673E-02  0.46720570924E-02 -0.93941043634E+03  0.10605885972E+04  0.49229686631E+03 0.  0.
         13    1    3    3    0    0 -0.13997348882E+03 -0.63028210556E+02 -0.55172181239E+02  0.16312296736E+03  0.00000000000E+00 0.  1.
          3    1    3    3  501    0  0.13997900090E+03  0.63032882613E+02 -0.88423825510E+03  0.89746562986E+03  0.00000000000E+00 0.  1.
         21    1    1    2  502  501 -0.55120868673E-02 -0.46720570924E-02  0.26528897997E-01  0.27495338660E-01  0.00000000000E+00 0. -1.
<mgrwt>
<rscale>  1 0.49229687E+03</rscale>
<asrwt>0</asrwt>
<pdfrwt beam="1">  1        1 0.22042262E+00 0.49229687E+03</pdfrwt>
<pdfrwt beam="2">0</pdfrwt>
<totfact> 0.83369416E+00</totfact>
</mgrwt>
</event>
<event>
 6    1  0.3927553E-003  0.6523853E+03  0.7818608E-02  0.9802314E-01
          1   -1    0    0  502    0  0.00000000000E+00  0.00000000000E+00  0.10640328725E+03  0.10640328725E+03  0.00000000000E+00 0.  1.
         13   -1    0    0    0    0 -0.00000000000E+00 -0.00000000000E+00 -0.10000000000E+04  0.10000000000E+04  0.00000000000E+00 0.  1.
    9000005    2    1    2  501    0  0.25920201607E-03  0.26861740906E-03 -0.89359832073E+03  0.11064016365E+04  0.65238533280E+03 0.  0.
         13    1    3    3    0    0 -0.53566496947E+02  0.31816760427E+03 -0.36543459489E+03  0.48748583276E+03  0.00000000000E+00 0.  1.
          1    1    3    3  501    0  0.53566756149E+02 -0.31816733565E+03 -0.52816372584E+03  0.61891580375E+03  0.00000000000E+00 0.  1.
         21    1    1    2  502  501 -0.25920201607E-03 -0.26861740908E-03  0.16079844423E-02  0.16507437609E-02  0.00000000000E+00 0.  1.
<mgrwt>
<rscale>  1 0.65238533E+03</rscale>
<asrwt>0</asrwt>
<pdfrwt beam="1">  1        1 0.38692186E+00 0.65238533E+03</pdfrwt>
<pdfrwt beam="2">0</pdfrwt>
<totfact> 0.15286772E+00</totfact>
</mgrwt>
</event>
<event>
 6    1  0.3927553E-003  0.6582219E+03  0.7818608E-02  0.9791472E-01
          1   -1    0    0  502    0  0.00000000000E+00  0.00000000000E+00  0.10902836909E+03  0.10902836909E+03  0.00000000000E+00 0.  1.
         13   -1    0    0    0    0 -0.00000000000E+00 -0.00000000000E+00 -0.10000000000E+04  0.10000000000E+04  0.00000000000E+00 0.  1.
    9000005    2    1    2  501    0 -0.50224605051E-01 -0.27326536679E-01 -0.89168470882E+03  0.11083130025E+04  0.65822191418E+03 0.  0.
         13    1    3    3    0    0  0.12342149424E+03  0.29781191175E+03 -0.33444151620E+03  0.46451687566E+03  0.00000000000E+00 0.  1.
          1    1    3    3  501    0 -0.12347171885E+03 -0.29783923828E+03 -0.55724319262E+03  0.64379612684E+03  0.00000000000E+00 0.  1.
         21    1    1    2  502  501  0.50224605051E-01  0.27326536679E-01  0.71307791165E+00  0.71536659039E+00  0.00000000000E+00 0. -1.
<mgrwt>
<rscale>  1 0.65822192E+03</rscale>
<asrwt>0</asrwt>
<pdfrwt beam="1">  1        1 0.39646763E+00 0.65822192E+03</pdfrwt>
<pdfrwt beam="2">0</pdfrwt>
<totfact> 0.13850753E+00</totfact>
</mgrwt>
</event>
<event>
 6    1  0.3927553E-003  0.6671678E+03  0.7818608E-02  0.9775088E-01
          3   -1    0    0  502    0  0.00000000000E+00  0.00000000000E+00  0.11127992770E+03  0.11127992770E+03  0.00000000000E+00 0.  1.
         13   -1    0    0    0    0 -0.00000000000E+00 -0.00000000000E+00 -0.10000000000E+04  0.10000000000E+04  0.00000000000E+00 0.  1.
    9000005    2    1    2  501    0  0.50710335262E-02  0.81475546874E-03 -0.88871344768E+03  0.11112715453E+04  0.66716778645E+03 0.  0.
         13    1    3    3    0    0 -0.29670909383E+03 -0.12049998037E+03 -0.28881235960E+03  0.43124136013E+03  0.00000000000E+00 0.  1.
          3    1    3    3  501    0  0.29671416487E+03  0.12050079512E+03 -0.59990108808E+03  0.68003018517E+03  0.00000000000E+00 0.  1.
         21    1    1    2  502  501 -0.50710335262E-02 -0.81475546874E-03 -0.66246145865E-02  0.83824057357E-02  0.00000000000E+00 0. -1.
<mgrwt>
<rscale>  1 0.66716779E+03</rscale>
<asrwt>0</asrwt>
<pdfrwt beam="1">  1        3 0.40465514E+00 0.66716779E+03</pdfrwt>
<pdfrwt beam="2">0</pdfrwt>
<totfact> 0.55843171E-02</totfact>
</mgrwt>
</event>
<event>
 6    1  0.3927553E-003  0.6290738E+03  0.7818608E-02  0.9846858E-01
          1   -1    0    0  502    0  0.00000000000E+00  0.00000000000E+00  0.98998838370E+02  0.98998838370E+02  0.00000000000E+00 0.  1.
         13   -1    0    0    0    0 -0.00000000000E+00 -0.00000000000E+00 -0.10000000000E+04  0.10000000000E+04  0.00000000000E+00 0.  1.
    9000005    2    1    2  501    0  0.10139717802E+00 -0.17831576141E+00 -0.90064601836E+03  0.10985887108E+04  0.62907381362E+03 0.  0.
         13    1    3    3    0    0  0.18292223569E+02 -0.18420287271E+03 -0.89461898891E+03  0.91356906640E+03  0.00000000000E+00 0.  1.
          3    1    3    3  501    0 -0.18190826391E+02  0.18402455695E+03 -0.60270294500E+01  0.18501964438E+03  0.00000000000E+00 0.  1.
         21    1    1    2  502  501 -0.10139717802E+00  0.17831576141E+00 -0.35514326614E+00  0.41012758742E+00  0.00000000000E+00 0.  1.
<mgrwt>
<rscale>  1 0.62907385E+03</rscale>
<asrwt>0</asrwt>
<pdfrwt beam="1">  1        1 0.35999654E+00 0.62907385E+03</pdfrwt>
<pdfrwt beam="2">0</pdfrwt>
<totfact> 0.20165892E+00</totfact>
</mgrwt>
</event>
<event>
 6    1  0.3927553E-003  0.6828531E+03  0.7818608E-02  0.9747014E-01
          1   -1    0    0  502    0  0.00000000000E+00  0.00000000000E+00  0.11658586038E+03  0.11658586038E+03  0.00000000000E+00 0.  1.
         13   -1    0    0    0    0 -0.00000000000E+00 -0.00000000000E+00 -0.10000000000E+04  0.10000000000E+04  0.00000000000E+00 0.  1.
    9000005    2    1    2  501    0  0.32350425982E-03 -0.71077888379E-04 -0.88342792357E+03  0.11165720725E+04  0.68285305655E+03 0.  0.
         13    1    3    3    0    0 -0.17849261299E+03 -0.29104176050E+03 -0.43735139015E+03  0.55483435160E+03  0.00000000000E+00 0.  1.
          3    1    3    3  501    0  0.17849293649E+03  0.29104168943E+03 -0.44607653342E+03  0.56173772085E+03  0.00000000000E+00 0.  1.
         21    1    1    2  502  501 -0.32350425981E-03  0.71077888374E-04  0.13783954415E-01  0.13787933362E-01  0.00000000000E+00 0. -1.
<mgrwt>
<rscale>  1 0.68285306E+03</rscale>
<asrwt>0</asrwt>
<pdfrwt beam="1">  1        1 0.42394948E+00 0.68285306E+03</pdfrwt>
<pdfrwt beam="2">0</pdfrwt>
<totfact> 0.10378663E+00</totfact>
</mgrwt>
</event>
<event>
 6    1  0.3927553E-003  0.6154627E+03  0.7818608E-02  0.9873835E-01
          1   -1    0    0  502    0  0.00000000000E+00  0.00000000000E+00  0.94719323655E+02  0.94719323655E+02  0.00000000000E+00 0.  1.
         13   -1    0    0    0    0 -0.00000000000E+00 -0.00000000000E+00 -0.10000000000E+04  0.10000000000E+04  0.00000000000E+00 0.  1.
    9000005    2    1    2  501    0  0.37107555279E-01 -0.46955383851E-02 -0.90528124546E+03  0.10946819159E+04  0.61546272197E+03 0.  0.
         13    1    3    3    0    0  0.10782764069E+03 -0.28590104940E+03 -0.38760007939E+03  0.49355853927E+03  0.00000000000E+00 0.  1.
          3    1    3    3  501    0 -0.10779053314E+03  0.28589635386E+03 -0.51768116607E+03  0.60112337659E+03  0.00000000000E+00 0.  1.
         21    1    1    2  502  501 -0.37107555279E-01  0.46955383851E-02  0.56911677305E-03  0.37407788406E-01  0.00000000000E+00 0.  1.
<mgrwt>
<rscale>  1 0.61546272E+03</rscale>
<asrwt>0</asrwt>
<pdfrwt beam="1">  1        1 0.34443463E+00 0.61546272E+03</pdfrwt>
<pdfrwt beam="2">0</pdfrwt>
<totfact> 0.23634219E+00</totfact>
</mgrwt>
</event>
<event>
 6    1  0.3927553E-003  0.6544806E+03  0.7818608E-02  0.9798408E-01
          1   -1    0    0  502    0  0.00000000000E+00  0.00000000000E+00  0.11695841879E+03  0.11695841879E+03  0.00000000000E+00 0.  1.
         13   -1    0    0    0    0 -0.00000000000E+00 -0.00000000000E+00 -0.10000000000E+04  0.10000000000E+04  0.00000000000E+00 0.  1.
    9000005    2    1    2  501    0 -0.24167584750E+02 -0.13894868271E+02 -0.86046992469E+03  0.10810889444E+04  0.65388659173E+03 0.  0.
         13    1    3    3    0    0 -0.25848364308E+03  0.13242808945E+03 -0.16793563799E+03  0.33548974816E+03  0.00000000000E+00 0.  1.
          3    1    3    3  501    0  0.23431605833E+03 -0.14632295772E+03 -0.69253428670E+03  0.74559919621E+03  0.00000000000E+00 0.  1.
         21    1    1    2  502  501  0.24167584750E+02  0.13894868271E+02 -0.22571656519E+02  0.35869474417E+02  0.00000000000E+00 0. -1.
<mgrwt>
<rscale>  1 0.65448057E+03</rscale>
<asrwt>0</asrwt>
<pdfrwt beam="1">  1        1 0.42530424E+00 0.65448057E+03</pdfrwt>
<pdfrwt beam="2">0</pdfrwt>
<totfact> 0.10289791E+00</totfact>
</mgrwt>
</event>
<event>
 6    1  0.3927553E-003  0.6443196E+03  0.7818608E-02  0.9817497E-01
          1   -1    0    0  502    0  0.00000000000E+00  0.00000000000E+00  0.10378693287E+03  0.10378693287E+03  0.00000000000E+00 0.  1.
         13   -1    0    0    0    0 -0.00000000000E+00 -0.00000000000E+00 -0.10000000000E+04  0.10000000000E+04  0.00000000000E+00 0.  1.
    9000005    2    1    2  501    0 -0.26024233790E-05  0.26900125647E-05 -0.89621307334E+03  0.11037869256E+04  0.64431956694E+03 0.  0.
         13    1    3    3    0    0 -0.10749639437E+03 -0.23245585631E+03 -0.78291105297E+03  0.82373595089E+03  0.00000000000E+00 0.  1.
          1    1    3    3  501    0  0.10749639176E+03  0.23245585900E+03 -0.11330202037E+03  0.28005097473E+03  0.00000000000E+00 0.  1.
         21    1    1    2  502  501  0.26024233769E-05 -0.26900125584E-05  0.62121724633E-05  0.72525762120E-05  0.00000000000E+00 0. -1.
<mgrwt>
<rscale>  1 0.64431957E+03</rscale>
<asrwt>0</asrwt>
<pdfrwt beam="1">  1        1 0.37740782E+00 0.64431957E+03</pdfrwt>
<pdfrwt beam="2">0</pdfrwt>
<totfact> 0.16864934E+00</totfact>
</mgrwt>
</event>
<event>
 6    1  0.3927553E-003  0.6485148E+03  0.7818608E-02  0.9809570E-01
          1   -1    0    0  502    0  0.00000000000E+00  0.00000000000E+00  0.10838457597E+03  0.10838457597E+03  0.00000000000E+00 0.  1.
         13   -1    0    0    0    0 -0.00000000000E+00 -0.00000000000E+00 -0.10000000000E+04  0.10000000000E+04  0.00000000000E+00 0.  1.
    9000005    2    1    2  501    0  0.98935798034E+00 -0.79056744726E+00 -0.89471989408E+03  0.11050317323E+04  0.64851355945E+03 0.  0.
         13    1    3    3    0    0 -0.26098618756E+03 -0.19212806581E+03 -0.44208218276E+03  0.54814563765E+03  0.00000000000E+00 0.  1.
          1    1    3    3  501    0  0.26197554554E+03  0.19133749836E+03 -0.45263771133E+03  0.55688609469E+03  0.00000000000E+00 0.  1.
         21    1    1    2  502  501 -0.98935798034E+00  0.79056744726E+00  0.31044700486E+01  0.33528436266E+01  0.00000000000E+00 0. -1.
<mgrwt>
<rscale>  1 0.64851480E+03</rscale>
<asrwt>0</asrwt>
<pdfrwt beam="1">  1        1 0.39412656E+00 0.64851480E+03</pdfrwt>
<pdfrwt beam="2">0</pdfrwt>
<totfact> 0.14212635E+00</totfact>
</mgrwt>
</event>
<event>
 6    1  0.3927553E-003  0.6490644E+03  0.7818608E-02  0.9808536E-01
          1   -1    0    0  502    0  0.00000000000E+00  0.00000000000E+00  0.10733572793E+03  0.10733572793E+03  0.00000000000E+00 0.  1.
         13   -1    0    0    0    0 -0.00000000000E+00 -0.00000000000E+00 -0.10000000000E+04  0.10000000000E+04  0.00000000000E+00 0.  1.
    9000005    2    1    2  501    0 -0.14635211596E+00  0.55626573862E-01 -0.89467549748E+03  0.11053184176E+04  0.64906435274E+03 0.  0.
         13    1    3    3    0    0 -0.67510513070E+02  0.29509657142E+01 -0.98793167761E+03  0.99024006039E+03  0.00000000000E+00 0.  1.
          1    1    3    3  501    0  0.67364160955E+02 -0.28953391403E+01  0.93256180124E+02  0.11507835722E+03  0.00000000000E+00 0.  1.
         21    1    1    2  502  501  0.14635211596E+00 -0.55626573862E-01  0.20112254124E+01  0.20173103175E+01  0.00000000000E+00 0. -1.
<mgrwt>
<rscale>  1 0.64906437E+03</rscale>
<asrwt>0</asrwt>
<pdfrwt beam="1">  1        1 0.39031256E+00 0.64906437E+03</pdfrwt>
<pdfrwt beam="2">0</pdfrwt>
<totfact> 0.14776087E+00</totfact>
</mgrwt>
</event>
<event>
 6    1  0.3927553E-003  0.6663797E+03  0.7818608E-02  0.9776520E-01
          1   -1    0    0  502    0  0.00000000000E+00  0.00000000000E+00  0.11279774591E+03  0.11279774591E+03  0.00000000000E+00 0.  1.
         13   -1    0    0    0    0 -0.00000000000E+00 -0.00000000000E+00 -0.10000000000E+04  0.10000000000E+04  0.00000000000E+00 0.  1.
    9000005    2    1    2  501    0  0.20859846410E+01 -0.64550348206E+00 -0.88820754248E+03  0.11103938717E+04  0.66637612779E+03 0.  0.
         13    1    3    3    0    0 -0.33135830868E+03  0.22047400610E+02 -0.43446284704E+03  0.54684767721E+03  0.00000000000E+00 0.  1.
          1    1    3    3  501    0  0.33344429332E+03 -0.22692904093E+02 -0.45374469544E+03  0.56354619445E+03  0.00000000000E+00 0.  1.
         21    1    1    2  502  501 -0.20859846410E+01  0.64550348206E+00  0.10052883934E+01  0.24038742524E+01  0.00000000000E+00 0.  1.
<mgrwt>
<rscale>  1 0.66637971E+03</rscale>
<asrwt>0</asrwt>
<pdfrwt beam="1">  1        1 0.41017449E+00 0.66637971E+03</pdfrwt>
<pdfrwt beam="2">0</pdfrwt>
<totfact> 0.12010741E+00</totfact>
</mgrwt>
</event>
<event>
 6    1  0.3927553E-003  0.6549886E+03  0.7818608E-02  0.9797463E-01
          1   -1    0    0  502    0  0.00000000000E+00  0.00000000000E+00  0.10725292410E+03  0.10725292410E+03  0.00000000000E+00 0.  1.
         13   -1    0    0    0    0 -0.00000000000E+00 -0.00000000000E+00 -0.10000000000E+04  0.10000000000E+04  0.00000000000E+00 0.  1.
    9000005    2    1    2  501    0  0.10914001109E-04  0.36761496460E-05 -0.89274749449E+03  0.11072525054E+04  0.65498856607E+03 0.  0.
         13    1    3    3    0    0 -0.20955771630E+03  0.22516645091E+03 -0.63641788320E+03  0.70685365468E+03  0.00000000000E+00 0.  1.
          3    1    3    3  501    0  0.20955772721E+03 -0.22516644724E+03 -0.25632961129E+03  0.40039885067E+03  0.00000000000E+00 0.  1.
         21    1    1    2  502  501 -0.10914001109E-04 -0.36761496278E-05  0.41859116140E-03  0.41874955510E-03  0.00000000000E+00 0. -1.
<mgrwt>
<rscale>  1 0.65498857E+03</rscale>
<asrwt>0</asrwt>
<pdfrwt beam="1">  1        1 0.39001146E+00 0.65498857E+03</pdfrwt>
<pdfrwt beam="2">0</pdfrwt>
<totfact> 0.14805251E+00</totfact>
</mgrwt>
</event>
<event>
 6    1  0.3927553E-003  0.6687131E+03  0.7818608E-02  0.9772285E-01
          1   -1    0    0  502    0  0.00000000000E+00  0.00000000000E+00  0.11179527287E+03  0.11179527287E+03  0.00000000000E+00 0.  1.
         13   -1    0    0    0    0 -0.00000000000E+00 -0.00000000000E+00 -0.10000000000E+04  0.10000000000E+04  0.00000000000E+00 0.  1.
    9000005    2    1    2  501    0  0.38690870952E-07  0.34031674460E-04 -0.88820570148E+03  0.11117942979E+04  0.66871308704E+03 0.  0.
         13    1    3    3    0    0 -0.27691990466E+03 -0.17630122208E+03 -0.33859021430E+03  0.47160374015E+03  0.00000000000E+00 0.  1.
          3    1    3    3  501    0  0.27691990470E+03  0.17630125611E+03 -0.54961548718E+03  0.64019055778E+03  0.00000000000E+00 0.  1.
         21    1    1    2  502  501 -0.38690870158E-07 -0.34031674452E-04  0.97435052254E-03  0.97494466362E-03  0.00000000000E+00 0.  1.
<mgrwt>
<rscale>  1 0.66871309E+03</rscale>
<asrwt>0</asrwt>
<pdfrwt beam="1">  1        1 0.40652912E+00 0.66871309E+03</pdfrwt>
<pdfrwt beam="2">0</pdfrwt>
<totfact> 0.12465604E+00</totfact>
</mgrwt>
</event>
<event>
 6    1  0.3927553E-003  0.5340160E+03  0.7818608E-02  0.1005263E+00
          1   -1    0    0  502    0  0.00000000000E+00  0.00000000000E+00  0.71333466347E+02  0.71333466347E+02  0.00000000000E+00 0.  1.
         13   -1    0    0    0    0 -0.00000000000E+00 -0.00000000000E+00 -0.10000000000E+04  0.10000000000E+04  0.00000000000E+00 0.  1.
    9000005    2    1    2  501    0  0.11950238049E-02 -0.14248550991E-03 -0.92870672982E+03  0.10712932522E+04  0.53401595680E+03 0.  0.
         13    1    3    3    0    0 -0.16669669122E+03  0.20846965437E+03 -0.45079870198E+03  0.52389584209E+03  0.00000000000E+00 0.  1.
          1    1    3    3  501    0  0.16669788624E+03 -0.20846979686E+03 -0.47790802785E+03  0.54739741008E+03  0.00000000000E+00 0.  1.
         21    1    1    2  502  501 -0.11950238050E-02  0.14248550990E-03  0.40196168108E-01  0.40214180516E-01  0.00000000000E+00 0. -1.
<mgrwt>
<rscale>  1 0.53401596E+03</rscale>
<asrwt>0</asrwt>
<pdfrwt beam="1">  1        1 0.25939497E+00 0.53401596E+03</pdfrwt>
<pdfrwt beam="2">0</pdfrwt>
<totfact> 0.55899496E+00</totfact>
</mgrwt>
</event>
<event>
 6    1  0.3927553E-003  0.6447657E+03  0.7818608E-02  0.9816651E-01
          1   -1    0    0  502    0  0.00000000000E+00  0.00000000000E+00  0.10393125501E+03  0.10393125501E+03  0.00000000000E+00 0.  1.
         13   -1    0    0    0    0 -0.00000000000E+00 -0.00000000000E+00 -0.10000000000E+04  0.10000000000E+04  0.00000000000E+00 0.  1.
    9000005    2    1    2  501    0  0.27437263014E-04  0.14265198139E-04 -0.89606928666E+03  0.11039307125E+04  0.64476573373E+03 0.  0.
         13    1    3    3    0    0 -0.18971765890E+03  0.60794365025E+02 -0.88199420457E+03  0.90421375892E+03  0.00000000000E+00 0.  1.
          3    1    3    3  501    0  0.18971768634E+03 -0.60794350760E+02 -0.14075082094E+02  0.19971695354E+03  0.00000000000E+00 0.  1.
         21    1    1    2  502  501 -0.27437263021E-04 -0.14265198144E-04  0.54166969284E-03  0.54255170760E-03  0.00000000000E+00 0.  1.
<mgrwt>
<rscale>  1 0.64476573E+03</rscale>
<asrwt>0</asrwt>
<pdfrwt beam="1">  1        1 0.37793263E+00 0.64476573E+03</pdfrwt>
<pdfrwt beam="2">0</pdfrwt>
<totfact> 0.16773980E+00</totfact>
</mgrwt>
</event>
<event>
 6    1  0.3927553E-003  0.6519859E+03  0.7818608E-02  0.9803060E-01
          1   -1    0    0  502    0  0.00000000000E+00  0.00000000000E+00  0.10627646079E+03  0.10627646079E+03  0.00000000000E+00 0.  1.
         13   -1    0    0    0    0 -0.00000000000E+00 -0.00000000000E+00 -0.10000000000E+04  0.10000000000E+04  0.00000000000E+00 0.  1.
    9000005    2    1    2  501    0  0.25388771938E-04 -0.17077247757E-03 -0.89372858863E+03  0.11062714084E+04  0.65198591928E+03 0.  0.
         13    1    3    3    0    0 -0.58730152532E+02 -0.80493520063E+02 -0.97352818188E+03  0.97861410091E+03  0.00000000000E+00 0.  1.
          3    1    3    3  501    0  0.58730177921E+02  0.80493349290E+02  0.79799593243E+02  0.12765730751E+03  0.00000000000E+00 0.  1.
         21    1    1    2  502  501 -0.25388771939E-04  0.17077247758E-03  0.50494238558E-02  0.50523746006E-02  0.00000000000E+00 0. -1.
<mgrwt>
<rscale>  1 0.65198592E+03</rscale>
<asrwt>0</asrwt>
<pdfrwt beam="1">  1        1 0.38646067E+00 0.65198592E+03</pdfrwt>
<pdfrwt beam="2">0</pdfrwt>
<totfact> 0.15359942E+00</totfact>
</mgrwt>
</event>
<event>
 6    1  0.3927553E-003  0.6412790E+03  0.7818608E-02  0.9823283E-01
          1   -1    0    0  502    0  0.00000000000E+00  0.00000000000E+00  0.10284690538E+03  0.10284690538E+03  0.00000000000E+00 0.  1.
         13   -1    0    0    0    0 -0.00000000000E+00 -0.00000000000E+00 -0.10000000000E+04  0.10000000000E+04  0.00000000000E+00 0.  1.
    9000005    2    1    2  501    0 -0.41805677006E-01 -0.33990111021E-01 -0.89716749621E+03  0.11027911340E+04  0.64127900795E+03 0.  0.
         13    1    3    3    0    0 -0.29030733800E+03 -0.71747797325E+02 -0.64766865651E+03  0.71337282366E+03  0.00000000000E+00 0.  1.
          3    1    3    3  501    0  0.29026553233E+03  0.71713807214E+02 -0.24949883971E+03  0.38941831032E+03  0.00000000000E+00 0.  1.
         21    1    1    2  502  501  0.41805677006E-01  0.33990111021E-01  0.14401591201E-01  0.55771391467E-01  0.00000000000E+00 0. -1.
<mgrwt>
<rscale>  1 0.64127901E+03</rscale>
<asrwt>0</asrwt>
<pdfrwt beam="1">  1        1 0.37398954E+00 0.64127901E+03</pdfrwt>
<pdfrwt beam="2">0</pdfrwt>
<totfact> 0.17469397E+00</totfact>
</mgrwt>
</event>
<event>
 6    1  0.3927553E-003  0.6509834E+03  0.7818608E-02  0.9804936E-01
          1   -1    0    0  502    0  0.00000000000E+00  0.00000000000E+00  0.10620071367E+03  0.10620071367E+03  0.00000000000E+00 0.  1.
         13   -1    0    0    0    0 -0.00000000000E+00 -0.00000000000E+00 -0.10000000000E+04  0.10000000000E+04  0.00000000000E+00 0.  1.
    9000005    2    1    2  501    0  0.24275043926E+00  0.94073143928E-01 -0.89397978903E+03  0.11058839192E+04  0.65098334210E+03 0.  0.
         13    1    3    3    0    0 -0.25005084100E+03  0.10675687715E+03 -0.75063733301E+03  0.79836010647E+03  0.00000000000E+00 0.  1.
          3    1    3    3  501    0  0.25029359144E+03 -0.10666280400E+03 -0.14334245603E+03  0.30752381269E+03  0.00000000000E+00 0.  1.
         21    1    1    2  502  501 -0.24275043926E+00 -0.94073143928E-01  0.18050270902E+00  0.31679450774E+00  0.00000000000E+00 0.  1.
<mgrwt>
<rscale>  1 0.65098339E+03</rscale>
<asrwt>0</asrwt>
<pdfrwt beam="1">  1        1 0.38618523E+00 0.65098339E+03</pdfrwt>
<pdfrwt beam="2">0</pdfrwt>
<totfact> 0.15405977E+00</totfact>
</mgrwt>
</event>
<event>
 6    1  0.6375391E-003  0.6738738E+03  0.7818608E-02  0.9762985E-01
          1   -1    0    0  502    0  0.00000000000E+00  0.00000000000E+00  0.11352648569E+03  0.11352648569E+03  0.00000000000E+00 0.  1.
         13   -1    0    0    0    0 -0.00000000000E+00 -0.00000000000E+00 -0.10000000000E+04  0.10000000000E+04  0.00000000000E+00 0.  1.
    9000005    2    1    2  501    0 -0.21945317030E-05  0.49275571996E-05 -0.88647352147E+03  0.11135264767E+04  0.67387380875E+03 0.  0.
         13    1    3    3    0    0 -0.26969047281E+03 -0.19301399298E+03 -0.54154046694E+03  0.63502238538E+03  0.00000000000E+00 0.  1.
          1    1    3    3  501    0  0.26969047061E+03  0.19301399791E+03 -0.34493305453E+03  0.47850409134E+03  0.00000000000E+00 0.  1.
         21    1    1    2  502  501  0.21945317360E-05 -0.49275571949E-05  0.71595378330E-05  0.89641380752E-05  0.00000000000E+00 0.  1.
<mgrwt>
<rscale>  1 0.67387381E+03</rscale>
<asrwt>0</asrwt>
<pdfrwt beam="1">  1        1 0.41282445E+00 0.67387381E+03</pdfrwt>
<pdfrwt beam="2">0</pdfrwt>
<totfact> 0.11669591E+00</totfact>
</mgrwt>
</event>
<event>
 6    1  0.3927553E-003  0.6421096E+03  0.7818608E-02  0.9821699E-01
          1   -1    0    0  502    0  0.00000000000E+00  0.00000000000E+00  0.10363625052E+03  0.10363625052E+03  0.00000000000E+00 0.  1.
         13   -1    0    0    0    0 -0.00000000000E+00 -0.00000000000E+00 -0.10000000000E+04  0.10000000000E+04  0.00000000000E+00 0.  1.
    9000005    2    1    2  501    0 -0.42487983160E+00  0.78620289831E+00 -0.89650070660E+03  0.11027321515E+04  0.64210893335E+03 0.  0.
         13    1    3    3    0    0  0.37382414428E+02 -0.14779423875E+03  0.36877938987E+02  0.15684567033E+03  0.00000000000E+00 0.  1.
          1    1    3    3  501    0 -0.37807294260E+02  0.14858044165E+03 -0.93337864559E+03  0.94588648113E+03  0.00000000000E+00 0.  1.
         21    1    1    2  502  501  0.42487983160E+00 -0.78620289831E+00  0.13695711934E+00  0.90409906600E+00  0.00000000000E+00 0.  1.
<mgrwt>
<rscale>  1 0.64210956E+03</rscale>
<asrwt>0</asrwt>
<pdfrwt beam="1">  1        1 0.37685989E+00 0.64210956E+03</pdfrwt>
<pdfrwt beam="2">0</pdfrwt>
<totfact> 0.16965825E+00</totfact>
</mgrwt>
</event>
<event>
 6    1  0.3927553E-003  0.6591880E+03  0.7818608E-02  0.9789690E-01
          1   -1    0    0  502    0  0.00000000000E+00  0.00000000000E+00  0.10863280984E+03  0.10863280984E+03  0.00000000000E+00 0.  1.
         13   -1    0    0    0    0 -0.00000000000E+00 -0.00000000000E+00 -0.10000000000E+04  0.10000000000E+04  0.00000000000E+00 0.  1.
    9000005    2    1    2  501    0 -0.16827025291E-04 -0.28251400575E-04 -0.89136780222E+03  0.11086321969E+04  0.65918797711E+03 0.  0.
         13    1    3    3    0    0 -0.17228510493E+03  0.88750271831E+01  0.26637516500E+02  0.17455795821E+03  0.00000000000E+00 0.  1.
          1    1    3    3  501    0  0.17228508810E+03 -0.88750554345E+01 -0.91800531872E+03  0.93407423869E+03  0.00000000000E+00 0.  1.
         21    1    1    2  502  501  0.16827025305E-04  0.28251400576E-04  0.61206004865E-03  0.61294273270E-03  0.00000000000E+00 0.  1.
<mgrwt>
<rscale>  1 0.65918798E+03</rscale>
<asrwt>0</asrwt>
<pdfrwt beam="1">  1        1 0.39502923E+00 0.65918798E+03</pdfrwt>
<pdfrwt beam="2">0</pdfrwt>
<totfact> 0.14053803E+00</totfact>
</mgrwt>
</event>
<event>
 6    1  0.3927553E-003  0.6757613E+03  0.7818608E-02  0.9759606E-01
          1   -1    0    0  502    0  0.00000000000E+00  0.00000000000E+00  0.11417193067E+03  0.11417193067E+03  0.00000000000E+00 0.  1.
         13   -1    0    0    0    0 -0.00000000000E+00 -0.00000000000E+00 -0.10000000000E+04  0.10000000000E+04  0.00000000000E+00 0.  1.
    9000005    2    1    2  501    0  0.29515135229E-02  0.27440125454E-02 -0.88583612935E+03  0.11141629193E+04  0.67576132077E+03 0.  0.
         13    1    3    3    0    0 -0.32497011614E+03 -0.36370016213E+02 -0.58314649634E+03  0.66857175431E+03  0.00000000000E+00 0.  1.
          3    1    3    3  501    0  0.32497306765E+03  0.36372760225E+02 -0.30268963300E+03  0.44559116499E+03  0.00000000000E+00 0.  1.
         21    1    1    2  502  501 -0.29515135229E-02 -0.27440125454E-02  0.80600121453E-02  0.90113724097E-02  0.00000000000E+00 0.  1.
<mgrwt>
<rscale>  1 0.67576132E+03</rscale>
<asrwt>0</asrwt>
<pdfrwt beam="1">  1        1 0.41517153E+00 0.67576132E+03</pdfrwt>
<pdfrwt beam="2">0</pdfrwt>
<totfact> 0.11385318E+00</totfact>
</mgrwt>
</event>
<event>
 6    1  0.3927553E-003  0.6626261E+03  0.7818608E-02  0.9783371E-01
          1   -1    0    0  502    0  0.00000000000E+00  0.00000000000E+00  0.10981544646E+03  0.10981544646E+03  0.00000000000E+00 0.  1.
         13   -1    0    0    0    0 -0.00000000000E+00 -0.00000000000E+00 -0.10000000000E+04  0.10000000000E+04  0.00000000000E+00 0.  1.
    9000005    2    1    2  501    0  0.26425415843E-02  0.10209754009E-01 -0.89023100236E+03  0.11097678154E+04  0.66262611364E+03 0.  0.
         13    1    3    3    0    0 -0.47287037239E+02 -0.20653394569E+03 -0.18533262746E+02  0.21268713276E+03  0.00000000000E+00 0.  1.
          1    1    3    3  501    0  0.47289679780E+02  0.20654415544E+03 -0.87169773962E+03  0.89708068267E+03  0.00000000000E+00 0.  1.
         21    1    1    2  502  501 -0.26425415843E-02 -0.10209754009E-01  0.46448827498E-01  0.47631036928E-01  0.00000000000E+00 0.  1.
<mgrwt>
<rscale>  1 0.66262611E+03</rscale>
<asrwt>0</asrwt>
<pdfrwt beam="1">  1        1 0.39932974E+00 0.66262611E+03</pdfrwt>
<pdfrwt beam="2">0</pdfrwt>
<totfact> 0.13439045E+00</totfact>
</mgrwt>
</event>
<event>
 6    1  0.3927553E-003  0.6530955E+03  0.7818608E-02  0.9800988E-01
          1   -1    0    0  502    0  0.00000000000E+00  0.00000000000E+00  0.10664382722E+03  0.10664382722E+03  0.00000000000E+00 0.  1.
         13   -1    0    0    0    0 -0.00000000000E+00 -0.00000000000E+00 -0.10000000000E+04  0.10000000000E+04  0.00000000000E+00 0.  1.
    9000005    2    1    2  501    0 -0.54223010167E-02 -0.16444898165E-01 -0.89335791730E+03  0.11066264238E+04  0.65309545483E+03 0.  0.
         13    1    3    3    0    0  0.25961013630E+03  0.10559904200E+03 -0.73061854702E+03  0.78252925938E+03  0.00000000000E+00 0.  1.
          1    1    3    3  501    0 -0.25961555860E+03 -0.10561548690E+03 -0.16273937028E+03  0.32409716441E+03  0.00000000000E+00 0.  1.
         21    1    1    2  502  501  0.54223010167E-02  0.16444898165E-01  0.17445195490E-02  0.17403429904E-01  0.00000000000E+00 0. -1.
<mgrwt>
<rscale>  1 0.65309546E+03</rscale>
<asrwt>0</asrwt>
<pdfrwt beam="1">  1        1 0.38779655E+00 0.65309546E+03</pdfrwt>
<pdfrwt beam="2">0</pdfrwt>
<totfact> 0.15149037E+00</totfact>
</mgrwt>
</event>
<event>
 6    1  0.3927553E-003  0.6545977E+03  0.7818608E-02  0.9798190E-01
          1   -1    0    0  502    0  0.00000000000E+00  0.00000000000E+00  0.10719807298E+03  0.10719807298E+03  0.00000000000E+00 0.  1.
         13   -1    0    0    0    0 -0.00000000000E+00 -0.00000000000E+00 -0.10000000000E+04  0.10000000000E+04  0.00000000000E+00 0.  1.
    9000005    2    1    2  501    0  0.11568727276E+00  0.84752614741E-01 -0.89278795756E+03  0.11070539838E+04  0.65459771255E+03 0.  0.
         13    1    3    3    0    0 -0.11732129586E+03  0.21754146856E+03 -0.83521740336E+02  0.26089165972E+03  0.00000000000E+00 0.  1.
          3    1    3    3  501    0  0.11743698313E+03 -0.21745671594E+03 -0.80926621723E+03  0.84616232406E+03  0.00000000000E+00 0.  1.
         21    1    1    2  502  501 -0.11568727276E+00 -0.84752614741E-01 -0.13969454317E-01  0.14408919612E+00  0.00000000000E+00 0. -1.
<mgrwt>
<rscale>  1 0.65459773E+03</rscale>
<asrwt>0</asrwt>
<pdfrwt beam="1">  1        1 0.38981200E+00 0.65459773E+03</pdfrwt>
<pdfrwt beam="2">0</pdfrwt>
<totfact> 0.14836511E+00</totfact>
</mgrwt>
</event>
<event>
 6    1  0.3927553E-003  0.6470523E+03  0.7818608E-02  0.9812326E-01
          1   -1    0    0  502    0  0.00000000000E+00  0.00000000000E+00  0.10514009899E+03  0.10514009899E+03  0.00000000000E+00 0.  1.
         13   -1    0    0    0    0 -0.00000000000E+00 -0.00000000000E+00 -0.10000000000E+04  0.10000000000E+04  0.00000000000E+00 0.  1.
    9000005    2    1    2  501    0  0.97727562421E-02 -0.25340510700E-02 -0.89533075788E+03  0.11046691339E+04  0.64705233888E+03 0.  0.
         13    1    3    3    0    0  0.18003771715E+03 -0.19876979771E+03 -0.75662012811E+03  0.80274343992E+03  0.00000000000E+00 0.  1.
          1    1    3    3  501    0 -0.18002794440E+03  0.19876726366E+03 -0.13871062978E+03  0.30192569397E+03  0.00000000000E+00 0.  1.
         21    1    1    2  502  501 -0.97727562421E-02  0.25340510700E-02  0.47085687881E+00  0.47096510328E+00  0.00000000000E+00 0. -1.
<mgrwt>
<rscale>  1 0.64705234E+03</rscale>
<asrwt>0</asrwt>
<pdfrwt beam="1">  1        1 0.38232844E+00 0.64705234E+03</pdfrwt>
<pdfrwt beam="2">0</pdfrwt>
<totfact> 0.16034565E+00</totfact>
</mgrwt>
</event>
<event>
 6    1  0.3927553E-003  0.6492711E+03  0.7818608E-02  0.9808148E-01
          1   -1    0    0  502    0  0.00000000000E+00  0.00000000000E+00  0.10538847834E+03  0.10538847834E+03  0.00000000000E+00 0.  1.
         13   -1    0    0    0    0 -0.00000000000E+00 -0.00000000000E+00 -0.10000000000E+04  0.10000000000E+04  0.00000000000E+00 0.  1.
    9000005    2    1    2  501    0 -0.39832600294E-04 -0.11583486869E-03 -0.89461172571E+03  0.11053882403E+04  0.64927114684E+03 0.  0.
         13    1    3    3    0    0 -0.76038184529E+02  0.18851541130E+03 -0.87823964087E+03  0.90145700541E+03  0.00000000000E+00 0.  1.
          1    1    3    3  501    0  0.76038144697E+02 -0.18851552714E+03 -0.16372084845E+02  0.20393123494E+03  0.00000000000E+00 0.  1.
         21    1    1    2  502  501  0.39832600298E-04  0.11583486871E-03  0.20405414921E-03  0.23799674087E-03  0.00000000000E+00 0.  1.
<mgrwt>
<rscale>  1 0.64927115E+03</rscale>
<asrwt>0</asrwt>
<pdfrwt beam="1">  1        1 0.38323164E+00 0.64927115E+03</pdfrwt>
<pdfrwt beam="2">0</pdfrwt>
<totfact> 0.15881408E+00</totfact>
</mgrwt>
</event>
<event>
 6    1  0.3927553E-003  0.4861373E+03  0.7818608E-02  0.1017462E+00
          1   -1    0    0  502    0  0.00000000000E+00  0.00000000000E+00  0.59082643327E+02  0.59082643327E+02  0.00000000000E+00 0.  1.
         13   -1    0    0    0    0 -0.00000000000E+00 -0.00000000000E+00 -0.10000000000E+04  0.10000000000E+04  0.00000000000E+00 0.  1.
    9000005    2    1    2  501    0 -0.51265866329E-04 -0.27437613772E-03 -0.94091756727E+03  0.10590822937E+04  0.48613726083E+03 0.  0.
         13    1    3    3    0    0 -0.31406990382E+02 -0.24042037689E+03 -0.50781813143E+03  0.56273227318E+03  0.00000000000E+00 0.  1.
          1    1    3    3  501    0  0.31406939116E+02  0.24042010251E+03 -0.43309943584E+03  0.49635002049E+03  0.00000000000E+00 0.  1.
         21    1    1    2  502  501  0.51265866333E-04  0.27437613771E-03  0.21059565723E-03  0.34965838305E-03  0.00000000000E+00 0.  1.
<mgrwt>
<rscale>  1 0.48613726E+03</rscale>
<asrwt>0</asrwt>
<pdfrwt beam="1">  1        1 0.21484643E+00 0.48613726E+03</pdfrwt>
<pdfrwt beam="2">0</pdfrwt>
<totfact> 0.88355979E+00</totfact>
</mgrwt>
</event>
<event>
 6    1  0.3927553E-003  0.5568025E+03  0.7818608E-02  0.9999316E-01
          1   -1    0    0  502    0  0.00000000000E+00  0.00000000000E+00  0.92307093943E+02  0.92307093943E+02  0.00000000000E+00 0.  1.
         13   -1    0    0    0    0 -0.00000000000E+00 -0.00000000000E+00 -0.10000000000E+04  0.10000000000E+04  0.00000000000E+00 0.  1.
    9000005    2    1    2  501    0  0.80453865573E+01 -0.12338048028E+02 -0.91846362217E+03  0.10740597928E+04  0.55660763339E+03 0.  0.
         13    1    3    3    0    0 -0.82962336725E+02 -0.26333900991E+03 -0.34811949881E+03  0.44431674390E+03  0.00000000000E+00 0.  1.
          1    1    3    3  501    0  0.91007723282E+02  0.25100096188E+03 -0.57034412337E+03  0.62974304889E+03  0.00000000000E+00 0.  1.
         21    1    1    2  502  501 -0.80453865573E+01  0.12338048028E+02  0.10770716116E+02  0.18247301160E+02  0.00000000000E+00 0. -1.
<mgrwt>
<rscale>  1 0.55680249E+03</rscale>
<asrwt>0</asrwt>
<pdfrwt beam="1">  1        1 0.33566287E+00 0.55680249E+03</pdfrwt>
<pdfrwt beam="2">0</pdfrwt>
<totfact> 0.26086365E+00</totfact>
</mgrwt>
</event>
<event>
 6    1  0.3927553E-003  0.6446765E+03  0.7818608E-02  0.9816820E-01
          1   -1    0    0  502    0  0.00000000000E+00  0.00000000000E+00  0.10453067384E+03  0.10453067384E+03  0.00000000000E+00 0.  1.
         13   -1    0    0    0    0 -0.00000000000E+00 -0.00000000000E+00 -0.10000000000E+04  0.10000000000E+04  0.00000000000E+00 0.  1.
    9000005    2    1    2  501    0 -0.52204198991E+00  0.24616761270E+00 -0.89594847563E+03  0.11037805335E+04  0.64467624588E+03 0.  0.
         13    1    3    3    0    0 -0.17466497149E+03  0.43769499011E+02  0.98819369897E+01  0.18033655755E+03  0.00000000000E+00 0.  1.
          3    1    3    3  501    0  0.17414292950E+03 -0.43523331398E+02 -0.90583041262E+03  0.92344397594E+03  0.00000000000E+00 0.  1.
         21    1    1    2  502  501  0.52204198991E+00 -0.24616761270E+00  0.47914946429E+00  0.75014034813E+00  0.00000000000E+00 0.  1.
<mgrwt>
<rscale>  1 0.64467650E+03</rscale>
<asrwt>0</asrwt>
<pdfrwt beam="1">  1        1 0.38011234E+00 0.64467650E+03</pdfrwt>
<pdfrwt beam="2">0</pdfrwt>
<totfact> 0.16407057E+00</totfact>
</mgrwt>
</event>
<event>
 6    1  0.3927553E-003  0.6632344E+03  0.7818608E-02  0.9782258E-01
          1   -1    0    0  502    0  0.00000000000E+00  0.00000000000E+00  0.10999717827E+03  0.10999717827E+03  0.00000000000E+00 0.  1.
         13   -1    0    0    0    0 -0.00000000000E+00 -0.00000000000E+00 -0.10000000000E+04  0.10000000000E+04  0.00000000000E+00 0.  1.
    9000005    2    1    2  501    0 -0.81072930047E-03 -0.16443952396E-02 -0.89003001053E+03  0.11099699277E+04  0.66323436341E+03 0.  0.
         13    1    3    3    0    0 -0.17362113159E+03 -0.90996010229E+01  0.27581186828E+02  0.17603358185E+03  0.00000000000E+00 0.  1.
          3    1    3    3  501    0  0.17362032086E+03  0.90979566277E+01 -0.91761119736E+03  0.93393634587E+03  0.00000000000E+00 0.  1.
         21    1    1    2  502  501  0.81072930048E-03  0.16443952396E-02  0.27188802972E-01  0.27250547237E-01  0.00000000000E+00 0.  1.
<mgrwt>
<rscale>  1 0.66323436E+03</rscale>
<asrwt>0</asrwt>
<pdfrwt beam="1">  1        1 0.39999058E+00 0.66323436E+03</pdfrwt>
<pdfrwt beam="2">0</pdfrwt>
<totfact> 0.13346662E+00</totfact>
</mgrwt>
</event>
<event>
 6    1  0.3927553E-003  0.6527788E+03  0.7818608E-02  0.9801579E-01
          1   -1    0    0  502    0  0.00000000000E+00  0.00000000000E+00  0.10653882997E+03  0.10653882997E+03  0.00000000000E+00 0.  1.
         13   -1    0    0    0    0 -0.00000000000E+00 -0.00000000000E+00 -0.10000000000E+04  0.10000000000E+04  0.00000000000E+00 0.  1.
    9000005    2    1    2  501    0 -0.77085301607E-03  0.20562427442E-02 -0.89346982234E+03  0.11065299033E+04  0.65277875543E+03 0.  0.
         13    1    3    3    0    0 -0.59178652938E+02 -0.21895187041E+03 -0.48879798958E+02  0.23201566599E+03  0.00000000000E+00 0.  1.
          3    1    3    3  501    0  0.59177882085E+02  0.21895392665E+03 -0.84459002338E+03  0.87451423735E+03  0.00000000000E+00 0.  1.
         21    1    1    2  502  501  0.77085301607E-03 -0.20562427442E-02  0.86523118134E-02  0.89266370102E-02  0.00000000000E+00 0. -1.
<mgrwt>
<rscale>  1 0.65277876E+03</rscale>
<asrwt>0</asrwt>
<pdfrwt beam="1">  1        1 0.38741474E+00 0.65277876E+03</pdfrwt>
<pdfrwt beam="2">0</pdfrwt>
<totfact> 0.15209033E+00</totfact>
</mgrwt>
</event>
<event>
 6    1  0.3927553E-003  0.6528796E+03  0.7818608E-02  0.9801391E-01
          1   -1    0    0  502    0  0.00000000000E+00  0.00000000000E+00  0.10656304869E+03  0.10656304869E+03  0.00000000000E+00 0.  1.
         13   -1    0    0    0    0 -0.00000000000E+00 -0.00000000000E+00 -0.10000000000E+04  0.10000000000E+04  0.00000000000E+00 0.  1.
    9000005    2    1    2  501    0  0.19279291848E-04 -0.80498288128E-04 -0.89343703317E+03  0.11065629323E+04  0.65287961437E+03 0.  0.
         13    1    3    3    0    0  0.21866041930E+03 -0.21213950295E+03 -0.64544407626E+03  0.71373216493E+03  0.00000000000E+00 0.  1.
          3    1    3    3  501    0 -0.21866040002E+03  0.21213942246E+03 -0.24799295691E+03  0.39283076734E+03  0.00000000000E+00 0.  1.
         21    1    1    2  502  501 -0.19279291859E-04  0.80498288109E-04  0.81861473526E-04  0.11641720805E-03  0.00000000000E+00 0.  1.
<mgrwt>
<rscale>  1 0.65287961E+03</rscale>
<asrwt>0</asrwt>
<pdfrwt beam="1">  1        1 0.38750281E+00 0.65287961E+03</pdfrwt>
<pdfrwt beam="2">0</pdfrwt>
<totfact> 0.15195096E+00</totfact>
</mgrwt>
</event>
<event>
 6    1  0.3927553E-003  0.6823893E+03  0.7818608E-02  0.9747832E-01
          1   -1    0    0  502    0  0.00000000000E+00  0.00000000000E+00  0.11649809929E+03  0.11649809929E+03  0.00000000000E+00 0.  1.
         13   -1    0    0    0    0 -0.00000000000E+00 -0.00000000000E+00 -0.10000000000E+04  0.10000000000E+04  0.00000000000E+00 0.  1.
    9000005    2    1    2  501    0  0.11113782784E+00 -0.70545744700E-01 -0.88352406133E+03  0.11163646099E+04  0.68238930091E+03 0.  0.
         13    1    3    3    0    0 -0.10893699101E+03 -0.27557612083E+03 -0.16505289227E+03  0.33919304773E+03  0.00000000000E+00 0.  1.
          3    1    3    3  501    0  0.10904812884E+03  0.27550557508E+03 -0.71847116906E+03  0.77717156219E+03  0.00000000000E+00 0.  1.
         21    1    1    2  502  501 -0.11113782784E+00  0.70545744700E-01  0.22160629538E-01  0.13348937177E+00  0.00000000000E+00 0.  1.
<mgrwt>
<rscale>  1 0.68238931E+03</rscale>
<asrwt>0</asrwt>
<pdfrwt beam="1">  1        1 0.42363035E+00 0.68238931E+03</pdfrwt>
<pdfrwt beam="2">0</pdfrwt>
<totfact> 0.10414159E+00</totfact>
</mgrwt>
</event>
<event>
 6    1  0.3927553E-003  0.6580564E+03  0.7818608E-02  0.9791778E-01
          1   -1    0    0  502    0  0.00000000000E+00  0.00000000000E+00  0.10825957760E+03  0.10825957760E+03  0.00000000000E+00 0.  1.
         13   -1    0    0    0    0 -0.00000000000E+00 -0.00000000000E+00 -0.10000000000E+04  0.10000000000E+04  0.00000000000E+00 0.  1.
    9000005    2    1    2  501    0  0.10289749071E-05  0.30893593532E-05 -0.89174042674E+03  0.11082595722E+04  0.65805644944E+03 0.  0.
         13    1    3    3    0    0  0.17302420094E+03 -0.14889704060E+03 -0.46789764431E+02  0.23301713428E+03  0.00000000000E+00 0.  1.
          3    1    3    3  501    0 -0.17302419991E+03  0.14889704369E+03 -0.84495066231E+03  0.87524243790E+03  0.00000000000E+00 0.  1.
         21    1    1    2  502  501 -0.10289749260E-05 -0.30893593533E-05  0.43374107678E-05  0.54236576939E-05  0.00000000000E+00 0.  1.
<mgrwt>
<rscale>  1 0.65805645E+03</rscale>
<asrwt>0</asrwt>
<pdfrwt beam="1">  1        1 0.39367202E+00 0.65805645E+03</pdfrwt>
<pdfrwt beam="2">0</pdfrwt>
<totfact> 0.14253399E+00</totfact>
</mgrwt>
</event>
<event>
 6    1  0.3927553E-003  0.6620991E+03  0.7818608E-02  0.9784337E-01
          1   -1    0    0  502    0  0.00000000000E+00  0.00000000000E+00  0.10959669011E+03  0.10959669011E+03  0.00000000000E+00 0.  1.
         13   -1    0    0    0    0 -0.00000000000E+00 -0.00000000000E+00 -0.10000000000E+04  0.10000000000E+04  0.00000000000E+00 0.  1.
    9000005    2    1    2  501    0 -0.98418222996E-03 -0.60848550667E-02 -0.89040190322E+03  0.11095903677E+04  0.66209911253E+03 0.  0.
         13    1    3    3    0    0  0.23673061522E+03  0.22280358382E+03 -0.54998164962E+03  0.63887607254E+03  0.00000000000E+00 0.  1.
          3    1    3    3  501    0 -0.23673159940E+03 -0.22280966868E+03 -0.34042025360E+03  0.47071429517E+03  0.00000000000E+00 0.  1.
         21    1    1    2  502  501  0.98418222994E-03  0.60848550667E-02 -0.14066694527E-02  0.63224041941E-02  0.00000000000E+00 0. -1.
<mgrwt>
<rscale>  1 0.66209911E+03</rscale>
<asrwt>0</asrwt>
<pdfrwt beam="1">  1        1 0.39853426E+00 0.66209911E+03</pdfrwt>
<pdfrwt beam="2">0</pdfrwt>
<totfact> 0.13550532E+00</totfact>
</mgrwt>
</event>
<event>
 6    1  0.3927553E-003  0.6498612E+03  0.7818608E-02  0.9807040E-01
          1   -1    0    0  502    0  0.00000000000E+00  0.00000000000E+00  0.10564838128E+03  0.10564838128E+03  0.00000000000E+00 0.  1.
         13   -1    0    0    0    0 -0.00000000000E+00 -0.00000000000E+00 -0.10000000000E+04  0.10000000000E+04  0.00000000000E+00 0.  1.
    9000005    2    1    2  501    0  0.15955555153E-01  0.19321136667E-02 -0.89441906437E+03  0.11055790471E+04  0.64986119012E+03 0.  0.
         13    1    3    3    0    0  0.14308450064E+03 -0.28688313067E+03 -0.35708661089E+03  0.47988118599E+03  0.00000000000E+00 0.  1.
          3    1    3    3  501    0 -0.14306854509E+03  0.28688506278E+03 -0.53733245348E+03  0.62569786111E+03  0.00000000000E+00 0.  1.
         21    1    1    2  502  501 -0.15955555153E-01 -0.19321136667E-02  0.67445655148E-01  0.69334184944E-01  0.00000000000E+00 0. -1.
<mgrwt>
<rscale>  1 0.64986119E+03</rscale>
<asrwt>0</asrwt>
<pdfrwt beam="1">  1        1 0.38417674E+00 0.64986119E+03</pdfrwt>
<pdfrwt beam="2">0</pdfrwt>
<totfact> 0.15727658E+00</totfact>
</mgrwt>
</event>
<event>
 6    1  0.3927553E-003  0.6574640E+03  0.7818608E-02  0.9792873E-01
          1   -1    0    0  502    0  0.00000000000E+00  0.00000000000E+00  0.10817613692E+03  0.10817613692E+03  0.00000000000E+00 0.  1.
         13   -1    0    0    0    0 -0.00000000000E+00 -0.00000000000E+00 -0.10000000000E+04  0.10000000000E+04  0.00000000000E+00 0.  1.
    9000005    2    1    2  501    0  0.75034142168E-03  0.60425941594E-02 -0.89193517173E+03  0.11080646618E+04  0.65746402504E+03 0.  0.
         13    1    3    3    0    0  0.27477285855E+02 -0.26191251775E+03 -0.77755688552E+03  0.82094328574E+03  0.00000000000E+00 0.  1.
          3    1    3    3  501    0 -0.27476535513E+02  0.26191856034E+03 -0.11437828622E+03  0.28712137610E+03  0.00000000000E+00 0.  1.
         21    1    1    2  502  501 -0.75034142168E-03 -0.60425941594E-02  0.11130865415E+00  0.11147507545E+00  0.00000000000E+00 0. -1.
<mgrwt>
<rscale>  1 0.65746403E+03</rscale>
<asrwt>0</asrwt>
<pdfrwt beam="1">  1        1 0.39336860E+00 0.65746403E+03</pdfrwt>
<pdfrwt beam="2">0</pdfrwt>
<totfact> 0.14299289E+00</totfact>
</mgrwt>
</event>
<event>
 6    1  0.3927553E-003  0.6400466E+03  0.7818608E-02  0.9825637E-01
          1   -1    0    0  502    0  0.00000000000E+00  0.00000000000E+00  0.10243014618E+03  0.10243014618E+03  0.00000000000E+00 0.  1.
         13   -1    0    0    0    0 -0.00000000000E+00 -0.00000000000E+00 -0.10000000000E+04  0.10000000000E+04  0.00000000000E+00 0.  1.
    9000005    2    1    2  501    0 -0.64742443570E-03  0.11894770296E-04 -0.89758509582E+03  0.11024148904E+04  0.64004655017E+03 0.  0.
         13    1    3    3    0    0 -0.18519929418E+03 -0.26062971092E+03 -0.42515207613E+03  0.53195950280E+03  0.00000000000E+00 0.  1.
          3    1    3    3  501    0  0.18519864676E+03  0.26062972281E+03 -0.47243301970E+03  0.57045538763E+03  0.00000000000E+00 0.  1.
         21    1    1    2  502  501  0.64742443568E-03 -0.11894770328E-04  0.15242005622E-01  0.15255754169E-01  0.00000000000E+00 0. -1.
<mgrwt>
<rscale>  1 0.64004655E+03</rscale>
<asrwt>0</asrwt>
<pdfrwt beam="1">  1        1 0.37247404E+00 0.64004655E+03</pdfrwt>
<pdfrwt beam="2">0</pdfrwt>
<totfact> 0.17743577E+00</totfact>
</mgrwt>
</event>
<event>
 6    1  0.3927553E-003  0.5048879E+03  0.7818608E-02  0.1012511E+00
          1   -1    0    0  502    0  0.00000000000E+00  0.00000000000E+00  0.64887742983E+02  0.64887742983E+02  0.00000000000E+00 0.  1.
         13   -1    0    0    0    0 -0.00000000000E+00 -0.00000000000E+00 -0.10000000000E+04  0.10000000000E+04  0.00000000000E+00 0.  1.
    9000005    2    1    2  501    0  0.62774320001E-01  0.80324398676E-01 -0.93626965920E+03  0.10637258598E+04  0.50488792793E+03 0.  0.
         13    1    3    3    0    0 -0.80914963571E+02  0.12497232535E+03 -0.38604544621E+02  0.15380385007E+03  0.00000000000E+00 0.  1.
          1    1    3    3  501    0  0.80977737891E+02 -0.12489200095E+03 -0.89766511458E+03  0.90992200977E+03  0.00000000000E+00 0.  1.
         21    1    1    2  502  501 -0.62774320001E-01 -0.80324398676E-01  0.11574021801E+01  0.11618831399E+01  0.00000000000E+00 0. -1.
<mgrwt>
<rscale>  1 0.50488794E+03</rscale>
<asrwt>0</asrwt>
<pdfrwt beam="1">  1        1 0.23595593E+00 0.50488794E+03</pdfrwt>
<pdfrwt beam="2">0</pdfrwt>
<totfact> 0.71063527E+00</totfact>
</mgrwt>
</event>
<event>
 6    1  0.3927553E-003  0.6525929E+03  0.7818608E-02  0.9801926E-01
          1   -1    0    0  502    0  0.00000000000E+00  0.00000000000E+00  0.10647094851E+03  0.10647094851E+03  0.00000000000E+00 0.  1.
         13   -1    0    0    0    0 -0.00000000000E+00 -0.00000000000E+00 -0.10000000000E+04  0.10000000000E+04  0.00000000000E+00 0.  1.
    9000005    2    1    2  501    0  0.37136808118E-04  0.89407672391E-03 -0.89353049816E+03  0.11064692474E+04  0.65259286267E+03 0.  0.
         13    1    3    3    0    0  0.19210401691E+03 -0.23527146756E+03 -0.64889580915E+03  0.71646520355E+03  0.00000000000E+00 0.  1.
          3    1    3    3  501    0 -0.19210397977E+03  0.23527236164E+03 -0.24463468901E+03  0.39000404390E+03  0.00000000000E+00 0.  1.
         21    1    1    2  502  501 -0.37136808121E-04 -0.89407672390E-03  0.14466740223E-02  0.17010638017E-02  0.00000000000E+00 0. -1.
<mgrwt>
<rscale>  1 0.65259286E+03</rscale>
<asrwt>0</asrwt>
<pdfrwt beam="1">  1        1 0.38716790E+00 0.65259286E+03</pdfrwt>
<pdfrwt beam="2">0</pdfrwt>
<totfact> 0.15247887E+00</totfact>
</mgrwt>
</event>
<event>
 6    1  0.3927553E-003  0.6561057E+03  0.7818608E-02  0.9795389E-01
          1   -1    0    0  502    0  0.00000000000E+00  0.00000000000E+00  0.10849312557E+03  0.10849312557E+03  0.00000000000E+00 0.  1.
         13   -1    0    0    0    0 -0.00000000000E+00 -0.00000000000E+00 -0.10000000000E+04  0.10000000000E+04  0.00000000000E+00 0.  1.
    9000005    2    1    2  501    0  0.44566646418E+00 -0.52715155825E+00 -0.89222782821E+03  0.11074949864E+04  0.65610530486E+03 0.  0.
         13    1    3    3    0    0 -0.28602289354E+02  0.11809209191E+02  0.10515473345E+03  0.10961325807E+03  0.00000000000E+00 0.  1.
          3    1    3    3  501    0  0.29047955819E+02 -0.12336360749E+02 -0.99738256165E+03  0.99788172838E+03  0.00000000000E+00 0.  1.
         21    1    1    2  502  501 -0.44566646418E+00  0.52715155825E+00  0.72095377458E+00  0.99813912243E+00  0.00000000000E+00 0.  1.
<mgrwt>
<rscale>  1 0.65610567E+03</rscale>
<asrwt>0</asrwt>
<pdfrwt beam="1">  1        1 0.39452129E+00 0.65610567E+03</pdfrwt>
<pdfrwt beam="2">0</pdfrwt>
<totfact> 0.14135195E+00</totfact>
</mgrwt>
</event>
<event>
 6    1  0.3927553E-003  0.6330799E+03  0.7818608E-02  0.9839057E-01
          1   -1    0    0  502    0  0.00000000000E+00  0.00000000000E+00  0.10339745589E+03  0.10339745589E+03  0.00000000000E+00 0.  1.
         13   -1    0    0    0    0 -0.00000000000E+00 -0.00000000000E+00 -0.10000000000E+04  0.10000000000E+04  0.00000000000E+00 0.  1.
    9000005    2    1    2  501    0 -0.39823924903E+00 -0.38594211570E+00 -0.89977600783E+03  0.11001759007E+04  0.63307964798E+03 0.  0.
         13    1    3    3    0    0 -0.24264134962E+03  0.18072460303E+03 -0.61192934029E+03  0.68263732991E+03  0.00000000000E+00 0.  1.
          3    1    3    3  501    0  0.24224311037E+03 -0.18111054515E+03 -0.28784666754E+03  0.41753857079E+03  0.00000000000E+00 0.  1.
         21    1    1    2  502  501  0.39823924903E+00  0.38594211570E+00  0.31734637230E+01  0.32215551862E+01  0.00000000000E+00 0. -1.
<mgrwt>
<rscale>  1 0.63307989E+03</rscale>
<asrwt>0</asrwt>
<pdfrwt beam="1">  1        1 0.37599154E+00 0.63307989E+03</pdfrwt>
<pdfrwt beam="2">0</pdfrwt>
<totfact> 0.17144432E+00</totfact>
</mgrwt>
</event>
<event>
 6    1  0.3927553E-003  0.6457508E+03  0.7818608E-02  0.9814785E-01
          1   -1    0    0  502    0  0.00000000000E+00  0.00000000000E+00  0.10424859851E+03  0.10424859851E+03  0.00000000000E+00 0.  1.
         13   -1    0    0    0    0 -0.00000000000E+00 -0.00000000000E+00 -0.10000000000E+04  0.10000000000E+04  0.00000000000E+00 0.  1.
    9000005    2    1    2  501    0 -0.42598230721E-04 -0.99783944776E-04 -0.89575140260E+03  0.11042484900E+04  0.64575084393E+03 0.  0.
         13    1    3    3    0    0  0.31421064830E+03  0.31044741536E+02 -0.33244706618E+03  0.45849008637E+03  0.00000000000E+00 0.  1.
          3    1    3    3  501    0 -0.31421069090E+03 -0.31044841320E+02 -0.56330433642E+03  0.64575840364E+03  0.00000000000E+00 0.  1.
         21    1    1    2  502  501  0.42598230713E-04  0.99783944774E-04  0.11123119626E-05  0.10850199138E-03  0.00000000000E+00 0. -1.
<mgrwt>
<rscale>  1 0.64575084E+03</rscale>
<asrwt>0</asrwt>
<pdfrwt beam="1">  1        1 0.37908661E+00 0.64575084E+03</pdfrwt>
<pdfrwt beam="2">0</pdfrwt>
<totfact> 0.16575614E+00</totfact>
</mgrwt>
</event>
<event>
 6    1  0.3927553E-003  0.6517812E+03  0.7818608E-02  0.9803443E-01
          1   -1    0    0  502    0  0.00000000000E+00  0.00000000000E+00  0.10648133365E+03  0.10648133365E+03  0.00000000000E+00 0.  1.
         13   -1    0    0    0    0 -0.00000000000E+00 -0.00000000000E+00 -0.10000000000E+04  0.10000000000E+04  0.00000000000E+00 0.  1.
    9000005    2    1    2  501    0  0.29116052684E-01 -0.35584935878E-01 -0.89379321027E+03  0.11062029663E+04  0.65178117321E+03 0.  0.
         13    1    3    3    0    0 -0.10484537253E+03 -0.15092382011E+03  0.98832275857E+01  0.18403323016E+03  0.00000000000E+00 0.  1.
          3    1    3    3  501    0  0.10487448858E+03  0.15088823517E+03 -0.90367643785E+03  0.92216973611E+03  0.00000000000E+00 0.  1.
         21    1    1    2  502  501 -0.29116052684E-01  0.35584935878E-01  0.27454392373E+00  0.27836737999E+00  0.00000000000E+00 0.  1.
<mgrwt>
<rscale>  1 0.65178117E+03</rscale>
<asrwt>0</asrwt>
<pdfrwt beam="1">  1        1 0.38720567E+00 0.65178117E+03</pdfrwt>
<pdfrwt beam="2">0</pdfrwt>
<totfact> 0.15244306E+00</totfact>
</mgrwt>
</event>
<event>
 6    1  0.3927553E-003  0.6538959E+03  0.7818608E-02  0.9799496E-01
          1   -1    0    0  502    0  0.00000000000E+00  0.00000000000E+00  0.10689511647E+03  0.10689511647E+03  0.00000000000E+00 0.  1.
         13   -1    0    0    0    0 -0.00000000000E+00 -0.00000000000E+00 -0.10000000000E+04  0.10000000000E+04  0.00000000000E+00 0.  1.
    9000005    2    1    2  501    0  0.88663525631E-04 -0.17035748252E-03 -0.89310497683E+03  0.11068949030E+04  0.65389588358E+03 0.  0.
         13    1    3    3    0    0 -0.49268110301E+02 -0.24603150138E+03 -0.91732010447E+02  0.26715839516E+03  0.00000000000E+00 0.  1.
          1    1    3    3  501    0  0.49268198965E+02  0.24603133103E+03 -0.80137296638E+03  0.83973650779E+03  0.00000000000E+00 0.  1.
         21    1    1    2  502  501 -0.88663525635E-04  0.17035748251E-03  0.93298068136E-04  0.21351211240E-03  0.00000000000E+00 0.  1.
<mgrwt>
<rscale>  1 0.65389588E+03</rscale>
<asrwt>0</asrwt>
<pdfrwt beam="1">  1        1 0.38871033E+00 0.65389588E+03</pdfrwt>
<pdfrwt beam="2">0</pdfrwt>
<totfact> 0.15006243E+00</totfact>
</mgrwt>
</event>
<event>
 6    1  0.3927553E-003  0.6653195E+03  0.7818608E-02  0.9778450E-01
          1   -1    0    0  502    0  0.00000000000E+00  0.00000000000E+00  0.11066258200E+03  0.11066258200E+03  0.00000000000E+00 0.  1.
         13   -1    0    0    0    0 -0.00000000000E+00 -0.00000000000E+00 -0.10000000000E+04  0.10000000000E+04  0.00000000000E+00 0.  1.
    9000005    2    1    2  501    0 -0.37276120878E-04  0.36302737328E-04 -0.88933748852E+03  0.11106624944E+04  0.66531947807E+03 0.  0.
         13    1    3    3    0    0  0.10020511809E+03 -0.13089286906E+03 -0.92702192004E+03  0.94156446890E+03  0.00000000000E+00 0.  1.
          1    1    3    3  501    0 -0.10020515536E+03  0.13089290536E+03  0.37684431520E+02  0.16909802546E+03  0.00000000000E+00 0.  1.
         21    1    1    2  502  501  0.37276120875E-04 -0.36302737340E-04  0.70521275020E-04  0.87639307141E-04  0.00000000000E+00 0. -1.
<mgrwt>
<rscale>  1 0.66531948E+03</rscale>
<asrwt>0</asrwt>
<pdfrwt beam="1">  1        1 0.40241024E+00 0.66531948E+03</pdfrwt>
<pdfrwt beam="2">0</pdfrwt>
<totfact> 0.13013842E+00</totfact>
</mgrwt>
</event>
<event>
 6    1  0.3927553E-003  0.6500810E+03  0.7818608E-02  0.9806627E-01
          1   -1    0    0  502    0  0.00000000000E+00  0.00000000000E+00  0.10567432208E+03  0.10567432208E+03  0.00000000000E+00 0.  1.
         13   -1    0    0    0    0 -0.00000000000E+00 -0.00000000000E+00 -0.10000000000E+04  0.10000000000E+04  0.00000000000E+00 0.  1.
    9000005    2    1    2  501    0  0.80783823799E-03  0.13291456972E-03 -0.89434866071E+03  0.11056513247E+04  0.65008101412E+03 0.  0.
         13    1    3    3    0    0 -0.20959286711E+03  0.19200904816E+03 -0.17903896938E+03  0.33593391772E+03  0.00000000000E+00 0.  1.
          3    1    3    3  501    0  0.20959367494E+03 -0.19200891525E+03 -0.71530969133E+03  0.76971740699E+03  0.00000000000E+00 0.  1.
         21    1    1    2  502  501 -0.80783823798E-03 -0.13291456972E-03  0.22982792842E-01  0.22997370192E-01  0.00000000000E+00 0. -1.
<mgrwt>
<rscale>  1 0.65008101E+03</rscale>
<asrwt>0</asrwt>
<pdfrwt beam="1">  1        1 0.38427107E+00 0.65008101E+03</pdfrwt>
<pdfrwt beam="2">0</pdfrwt>
<totfact> 0.15711924E+00</totfact>
</mgrwt>
</event>
<event>
 6    1  0.3927553E-003  0.6505125E+03  0.7818608E-02  0.9805818E-01
          1   -1    0    0  502    0  0.00000000000E+00  0.00000000000E+00  0.10702393877E+03  0.10702393877E+03  0.00000000000E+00 0.  1.
         13   -1    0    0    0    0 -0.00000000000E+00 -0.00000000000E+00 -0.10000000000E+04  0.10000000000E+04  0.00000000000E+00 0.  1.
    9000005    2    1    2  501    0  0.20815849817E+00 -0.42937126107E+00 -0.89415710467E+03  0.11057501439E+04  0.65051227915E+03 0.  0.
         13    1    3    3    0    0  0.17719938187E+02 -0.83028613285E+02  0.86653478127E+02  0.12131187949E+03  0.00000000000E+00 0.  1.
          1    1    3    3  501    0 -0.17511779688E+02  0.82599242024E+02 -0.98081058280E+03  0.98443826446E+03  0.00000000000E+00 0.  1.
         21    1    1    2  502  501 -0.20815849817E+00  0.42937126107E+00  0.11810434354E+01  0.12737948172E+01  0.00000000000E+00 0.  1.
<mgrwt>
<rscale>  1 0.65051245E+03</rscale>
<asrwt>0</asrwt>
<pdfrwt beam="1">  1        1 0.38917878E+00 0.65051245E+03</pdfrwt>
<pdfrwt beam="2">0</pdfrwt>
<totfact> 0.14944061E+00</totfact>
</mgrwt>
</event>
<event>
 6    1  0.3927553E-003  0.6493510E+03  0.7818608E-02  0.9807998E-01
          1   -1    0    0  502    0  0.00000000000E+00  0.00000000000E+00  0.10541833335E+03  0.10541833335E+03  0.00000000000E+00 0.  1.
         13   -1    0    0    0    0 -0.00000000000E+00 -0.00000000000E+00 -0.10000000000E+04  0.10000000000E+04  0.00000000000E+00 0.  1.
    9000005    2    1    2  501    0 -0.55135311784E-02 -0.77192157434E-03 -0.89458367354E+03  0.11054124154E+04  0.64935095216E+03 0.  0.
         13    1    3    3    0    0  0.16652091945E+03 -0.19458896900E+03 -0.10759318535E+03  0.27779556693E+03  0.00000000000E+00 0.  1.
          3    1    3    3  501    0 -0.16652643298E+03  0.19458819708E+03 -0.78699048818E+03  0.82761684844E+03  0.00000000000E+00 0.  1.
         21    1    1    2  502  501  0.55135311784E-02  0.77192157435E-03  0.20068842176E-02  0.59179788133E-02  0.00000000000E+00 0. -1.
<mgrwt>
<rscale>  1 0.64935095E+03</rscale>
<asrwt>0</asrwt>
<pdfrwt beam="1">  1        1 0.38334020E+00 0.64935095E+03</pdfrwt>
<pdfrwt beam="2">0</pdfrwt>
<totfact> 0.15863639E+00</totfact>
</mgrwt>
</event>
<event>
 6    1  0.3927553E-003  0.6533568E+03  0.7818608E-02  0.9800501E-01
          1   -1    0    0  502    0  0.00000000000E+00  0.00000000000E+00  0.10722562919E+03  0.10722562919E+03  0.00000000000E+00 0.  1.
         13   -1    0    0    0    0 -0.00000000000E+00 -0.00000000000E+00 -0.10000000000E+04  0.10000000000E+04  0.00000000000E+00 0.  1.
    9000005    2    1    2  501    0  0.44506089670E+00  0.21033818428E+00 -0.89314542198E+03  0.11066091875E+04  0.65335664594E+03 0.  0.
         13    1    3    3    0    0  0.27082321960E+03  0.10831610986E+03 -0.69685905716E+03  0.75544036262E+03  0.00000000000E+00 0.  1.
          1    1    3    3  501    0 -0.27037815870E+03 -0.10810577167E+03 -0.19628636482E+03  0.35116882490E+03  0.00000000000E+00 0.  1.
         21    1    1    2  502  501 -0.44506089670E+00 -0.21033818428E+00  0.37105116991E+00  0.61644166328E+00  0.00000000000E+00 0. -1.
<mgrwt>
<rscale>  1 0.65335683E+03</rscale>
<asrwt>0</asrwt>
<pdfrwt beam="1">  1        1 0.38991220E+00 0.65335683E+03</pdfrwt>
<pdfrwt beam="2">0</pdfrwt>
<totfact> 0.14824752E+00</totfact>
</mgrwt>
</event>
<event>
 6    1  0.3927553E-003  0.5596927E+03  0.7818608E-02  0.9992750E-01
          3   -1    0    0  502    0  0.00000000000E+00  0.00000000000E+00  0.78337152283E+02  0.78337152283E+02  0.00000000000E+00 0.  1.
         13   -1    0    0    0    0 -0.00000000000E+00 -0.00000000000E+00 -0.10000000000E+04  0.10000000000E+04  0.00000000000E+00 0.  1.
    9000005    2    1    2  501    0  0.22003238163E-02 -0.34524977695E-02 -0.92168583811E+03  0.10783138002E+04  0.55969265453E+03 0.  0.
         13    1    3    3    0    0  0.22727686213E+03 -0.61143910599E+02 -0.75253091820E+03  0.78847709714E+03  0.00000000000E+00 0.  1.
          1    1    3    3  501    0 -0.22727466181E+03  0.61140458101E+02 -0.16915491991E+03  0.28983670307E+03  0.00000000000E+00 0.  1.
         21    1    1    2  502  501 -0.22003238164E-02  0.34524977695E-02  0.22990392987E-01  0.23352073472E-01  0.00000000000E+00 0. -1.
<mgrwt>
<rscale>  1 0.55969265E+03</rscale>
<asrwt>0</asrwt>
<pdfrwt beam="1">  1        3 0.28486297E+00 0.55969265E+03</pdfrwt>
<pdfrwt beam="2">0</pdfrwt>
<totfact> 0.24741449E-01</totfact>
</mgrwt>
</event>
<event>
 6    1  0.3927553E-003  0.6406902E+03  0.7818608E-02  0.9824407E-01
          1   -1    0    0  502    0  0.00000000000E+00  0.00000000000E+00  0.10262509823E+03  0.10262509823E+03  0.00000000000E+00 0.  1.
         13   -1    0    0    0    0 -0.00000000000E+00 -0.00000000000E+00 -0.10000000000E+04  0.10000000000E+04  0.00000000000E+00 0.  1.
    9000005    2    1    2  501    0  0.11701096776E-03  0.16030595947E-03 -0.89737900690E+03  0.11026209883E+04  0.64069022297E+03 0.  0.
         13    1    3    3    0    0  0.42431357153E+02  0.15977934041E+03  0.23536720202E+02  0.16698453488E+03  0.00000000000E+00 0.  1.
          1    1    3    3  501    0 -0.42431240142E+02 -0.15977918011E+03 -0.92091572711E+03  0.93563645342E+03  0.00000000000E+00 0.  1.
         21    1    1    2  502  501 -0.11701096776E-03 -0.16030595946E-03  0.41051323628E-02  0.41099271627E-02  0.00000000000E+00 0.  1.
<mgrwt>
<rscale>  1 0.64069022E+03</rscale>
<asrwt>0</asrwt>
<pdfrwt beam="1">  1        1 0.37318296E+00 0.64069022E+03</pdfrwt>
<pdfrwt beam="2">0</pdfrwt>
<totfact> 0.17614597E+00</totfact>
</mgrwt>
</event>
<event>
 6    1  0.3927553E-003  0.6523831E+03  0.7818608E-02  0.9802318E-01
          1   -1    0    0  502    0  0.00000000000E+00  0.00000000000E+00  0.10640099910E+03  0.10640099910E+03  0.00000000000E+00 0.  1.
         13   -1    0    0    0    0 -0.00000000000E+00 -0.00000000000E+00 -0.10000000000E+04  0.10000000000E+04  0.00000000000E+00 0.  1.
    9000005    2    1    2  501    0 -0.16419793099E-05 -0.92904362191E-04 -0.89359905368E+03  0.11064008922E+04  0.65238306661E+03 0.  0.
         13    1    3    3    0    0 -0.90824531510E+02 -0.31179373404E+03 -0.49869963650E+03  0.59511827023E+03  0.00000000000E+00 0.  1.
          1    1    3    3  501    0  0.90824529868E+02  0.31179364114E+03 -0.39489941718E+03  0.51128262201E+03  0.00000000000E+00 0.  1.
         21    1    1    2  502  501  0.16419793205E-05  0.92904362224E-04  0.52788094861E-04  0.10686673746E-03  0.00000000000E+00 0. -1.
<mgrwt>
<rscale>  1 0.65238307E+03</rscale>
<asrwt>0</asrwt>
<pdfrwt beam="1">  1        1 0.38691354E+00 0.65238307E+03</pdfrwt>
<pdfrwt beam="2">0</pdfrwt>
<totfact> 0.15288075E+00</totfact>
</mgrwt>
</event>
<event>
 6    1  0.3927553E-003  0.6557788E+03  0.7818608E-02  0.9795996E-01
          1   -1    0    0  502    0  0.00000000000E+00  0.00000000000E+00  0.10752348740E+03  0.10752348740E+03  0.00000000000E+00 0.  1.
         13   -1    0    0    0    0 -0.00000000000E+00 -0.00000000000E+00 -0.10000000000E+04  0.10000000000E+04  0.00000000000E+00 0.  1.
    9000005    2    1    2  501    0 -0.14267615281E-01 -0.59579864730E-02 -0.89248277450E+03  0.11075068059E+04  0.65577879045E+03 0.  0.
         13    1    3    3    0    0  0.22652314229E+03 -0.18041299084E+02 -0.84542411359E+03  0.87543141039E+03  0.00000000000E+00 0.  1.
          1    1    3    3  501    0 -0.22653740990E+03  0.18035341097E+02 -0.47058660910E+02  0.23207539547E+03  0.00000000000E+00 0.  1.
         21    1    1    2  502  501  0.14267615281E-01  0.59579864730E-02  0.62618954852E-02  0.16681540207E-01  0.00000000000E+00 0.  1.
<mgrwt>
<rscale>  1 0.65577879E+03</rscale>
<asrwt>0</asrwt>
<pdfrwt beam="1">  1        1 0.39099532E+00 0.65577879E+03</pdfrwt>
<pdfrwt beam="2">0</pdfrwt>
<totfact> 0.14655063E+00</totfact>
</mgrwt>
</event>
<event>
 6    1  0.3927553E-003  0.6445429E+03  0.7818608E-02  0.9817073E-01
          1   -1    0    0  502    0  0.00000000000E+00  0.00000000000E+00  0.10388878960E+03  0.10388878960E+03  0.00000000000E+00 0.  1.
         13   -1    0    0    0    0 -0.00000000000E+00 -0.00000000000E+00 -0.10000000000E+04  0.10000000000E+04  0.00000000000E+00 0.  1.
    9000005    2    1    2  501    0 -0.24674404446E-02  0.35218641870E-06 -0.89614106866E+03  0.11038588296E+04  0.64454286177E+03 0.  0.
         13    1    3    3    0    0 -0.18093514906E+03  0.26354026344E+03 -0.51802376757E+03  0.60871965829E+03  0.00000000000E+00 0.  1.
          3    1    3    3  501    0  0.18093268161E+03 -0.26354026309E+03 -0.37811730109E+03  0.49513917127E+03  0.00000000000E+00 0.  1.
         21    1    1    2  502  501  0.24674404446E-02 -0.35218644648E-06  0.29858259815E-01  0.29960039079E-01  0.00000000000E+00 0.  1.
<mgrwt>
<rscale>  1 0.64454286E+03</rscale>
<asrwt>0</asrwt>
<pdfrwt beam="1">  1        1 0.37777821E+00 0.64454286E+03</pdfrwt>
<pdfrwt beam="2">0</pdfrwt>
<totfact> 0.16800976E+00</totfact>
</mgrwt>
</event>
<event>
 6    1  0.3927553E-003  0.6510707E+03  0.7818608E-02  0.9804772E-01
          1   -1    0    0  502    0  0.00000000000E+00  0.00000000000E+00  0.10597346353E+03  0.10597346353E+03  0.00000000000E+00 0.  1.
         13   -1    0    0    0    0 -0.00000000000E+00 -0.00000000000E+00 -0.10000000000E+04  0.10000000000E+04  0.00000000000E+00 0.  1.
    9000005    2    1    2  501    0 -0.95865013414E-04 -0.22886427644E-04 -0.89402671959E+03  0.11059732556E+04  0.65107070791E+03 0.  0.
         13    1    3    3    0    0  0.58752037230E+02  0.31614419355E+03 -0.36082546908E+03  0.48331560303E+03  0.00000000000E+00 0.  1.
          1    1    3    3  501    0 -0.58752133095E+02 -0.31614421643E+03 -0.53320125051E+03  0.62265765254E+03  0.00000000000E+00 0.  1.
         21    1    1    2  502  501  0.95865013413E-04  0.22886427594E-04  0.18312256611E-03  0.20796096649E-03  0.00000000000E+00 0. -1.
<mgrwt>
<rscale>  1 0.65107071E+03</rscale>
<asrwt>0</asrwt>
<pdfrwt beam="1">  1        1 0.38535886E+00 0.65107071E+03</pdfrwt>
<pdfrwt beam="2">0</pdfrwt>
<totfact> 0.15535989E+00</totfact>
</mgrwt>
</event>
<event>
 6    1  0.3927553E-003  0.6398322E+03  0.7818608E-02  0.9826048E-01
          1   -1    0    0  502    0  0.00000000000E+00  0.00000000000E+00  0.10234630636E+03  0.10234630636E+03  0.00000000000E+00 0.  1.
         13   -1    0    0    0    0 -0.00000000000E+00 -0.00000000000E+00 -0.10000000000E+04  0.10000000000E+04  0.00000000000E+00 0.  1.
    9000005    2    1    2  501    0 -0.35680251926E-05  0.23837772005E-05 -0.89765369417E+03  0.11023463020E+04  0.63983217719E+03 0.  0.
         13    1    3    3    0    0  0.39998043208E+02  0.31421620982E+03 -0.52615721921E+03  0.61414419259E+03  0.00000000000E+00 0.  1.
          3    1    3    3  501    0 -0.39998046776E+02 -0.31421620743E+03 -0.37149647496E+03  0.48820210945E+03  0.00000000000E+00 0.  1.
         21    1    1    2  502  501  0.35680251936E-05 -0.23837772286E-05  0.53298986594E-06  0.43240346732E-05  0.00000000000E+00 0. -1.
<mgrwt>
<rscale>  1 0.63983218E+03</rscale>
<asrwt>0</asrwt>
<pdfrwt beam="1">  1        1 0.37216917E+00 0.63983218E+03</pdfrwt>
<pdfrwt beam="2">0</pdfrwt>
<totfact> 0.17799120E+00</totfact>
</mgrwt>
</event>
<event>
 6    1  0.3927553E-003  0.6415718E+03  0.7818608E-02  0.9822724E-01
          1   -1    0    0  502    0  0.00000000000E+00  0.00000000000E+00  0.10290370701E+03  0.10290370701E+03  0.00000000000E+00 0.  1.
         13   -1    0    0    0    0 -0.00000000000E+00 -0.00000000000E+00 -0.10000000000E+04  0.10000000000E+04  0.00000000000E+00 0.  1.
    9000005    2    1    2  501    0  0.24437403272E-03  0.22298460630E-03 -0.89709556507E+03  0.11029029074E+04  0.64157179674E+03 0.  0.
         13    1    3    3    0    0  0.29901552698E+03 -0.14435165833E+02 -0.25040762086E+03  0.39028532635E+03  0.00000000000E+00 0.  1.
          3    1    3    3  501    0 -0.29901528260E+03  0.14435388817E+02 -0.64668794422E+03  0.71261758109E+03  0.00000000000E+00 0.  1.
         21    1    1    2  502  501 -0.24437403272E-03 -0.22298460630E-03 -0.72791727148E-03  0.79956510469E-03  0.00000000000E+00 0.  1.
<mgrwt>
<rscale>  1 0.64157180E+03</rscale>
<asrwt>0</asrwt>
<pdfrwt beam="1">  1        1 0.37419609E+00 0.64157180E+03</pdfrwt>
<pdfrwt beam="2">0</pdfrwt>
<totfact> 0.17431945E+00</totfact>
</mgrwt>
</event>
<event>
 6    1  0.3927553E-003  0.6311085E+03  0.7818608E-02  0.9842888E-01
          3   -1    0    0  502    0  0.00000000000E+00  0.00000000000E+00  0.99574776034E+02  0.99574776034E+02  0.00000000000E+00 0.  1.
         13   -1    0    0    0    0 -0.00000000000E+00 -0.00000000000E+00 -0.10000000000E+04  0.10000000000E+04  0.00000000000E+00 0.  1.
    9000005    2    1    2  501    0  0.92849006714E-03 -0.76928270204E-04 -0.90042384551E+03  0.10995731123E+04  0.63110849118E+03 0.  0.
         13    1    3    3    0    0 -0.10855563416E+03  0.18171836608E+03 -0.85795363598E+03  0.88367999398E+03  0.00000000000E+00 0.  1.
          3    1    3    3  501    0  0.10855656265E+03 -0.18171844300E+03 -0.42470209536E+02  0.21589311828E+03  0.00000000000E+00 0.  1.
         21    1    1    2  502  501 -0.92849006715E-03  0.76928270211E-04 -0.13784523257E-02  0.16637735957E-02  0.00000000000E+00 0.  1.
<mgrwt>
<rscale>  1 0.63110849E+03</rscale>
<asrwt>0</asrwt>
<pdfrwt beam="1">  1        3 0.36209086E+00 0.63110849E+03</pdfrwt>
<pdfrwt beam="2">0</pdfrwt>
<totfact> 0.94193360E-02</totfact>
</mgrwt>
</event>
<event>
 6    1  0.3927553E-003  0.6531028E+03  0.7818608E-02  0.9800974E-01
          1   -1    0    0  502    0  0.00000000000E+00  0.00000000000E+00  0.10840495515E+03  0.10840495515E+03  0.00000000000E+00 0.  1.
         13   -1    0    0    0    0 -0.00000000000E+00 -0.00000000000E+00 -0.10000000000E+04  0.10000000000E+04  0.00000000000E+00 0.  1.
    9000005    2    1    2  501    0  0.14909363579E+01 -0.12013596979E+00 -0.89300738042E+03  0.11063477688E+04  0.65310103869E+03 0.  0.
         13    1    3    3    0    0  0.24243804809E+03  0.53787909873E+02 -0.86617678030E+02  0.26300564358E+03  0.00000000000E+00 0.  1.
          3    1    3    3  501    0 -0.24094711173E+03 -0.53908045843E+02 -0.80638970239E+03  0.84334212523E+03  0.00000000000E+00 0.  1.
         21    1    1    2  502  501 -0.14909363579E+01  0.12013596979E+00  0.14123355718E+01  0.20571863411E+01  0.00000000000E+00 0.  1.
<mgrwt>
<rscale>  1 0.65310275E+03</rscale>
<asrwt>0</asrwt>
<pdfrwt beam="1">  1        1 0.39420067E+00 0.65310275E+03</pdfrwt>
<pdfrwt beam="2">0</pdfrwt>
<totfact> 0.14189622E+00</totfact>
</mgrwt>
</event>
<event>
 6    1  0.3927553E-003  0.5416560E+03  0.7818608E-02  0.1003444E+00
          1   -1    0    0  502    0  0.00000000000E+00  0.00000000000E+00  0.73355537292E+02  0.73355537292E+02  0.00000000000E+00 0.  1.
         13   -1    0    0    0    0 -0.00000000000E+00 -0.00000000000E+00 -0.10000000000E+04  0.10000000000E+04  0.00000000000E+00 0.  1.
    9000005    2    1    2  501    0  0.63218554777E-03  0.49425921483E-03 -0.92665216711E+03  0.10733477912E+04  0.54165601825E+03 0.  0.
         13    1    3    3    0    0  0.14000948314E+03 -0.20420115541E+03 -0.68082486460E+03  0.72444686727E+03  0.00000000000E+00 0.  1.
          1    1    3    3  501    0 -0.14000885095E+03  0.20420164967E+03 -0.24582730251E+03  0.34890092395E+03  0.00000000000E+00 0.  1.
         21    1    1    2  502  501 -0.63218554778E-03 -0.49425921486E-03  0.77043981544E-02  0.77460765333E-02  0.00000000000E+00 0.  1.
<mgrwt>
<rscale>  1 0.54165602E+03</rscale>
<asrwt>0</asrwt>
<pdfrwt beam="1">  1        1 0.26674797E+00 0.54165602E+03</pdfrwt>
<pdfrwt beam="2">0</pdfrwt>
<totfact> 0.51879198E+00</totfact>
</mgrwt>
</event>
<event>
 6    1  0.3927553E-003  0.6929617E+03  0.7818608E-02  0.9729345E-01
          1   -1    0    0  502    0  0.00000000000E+00  0.00000000000E+00  0.12070530672E+03  0.12070530672E+03  0.00000000000E+00 0.  1.
         13   -1    0    0    0    0 -0.00000000000E+00 -0.00000000000E+00 -0.10000000000E+04  0.10000000000E+04  0.00000000000E+00 0.  1.
    9000005    2    1    2  501    0  0.37303783232E-02  0.33715980994E-01 -0.87995051490E+03  0.11200486084E+04  0.69296174162E+03 0.  0.
         13    1    3    3    0    0 -0.65309478984E+02 -0.29406282956E+02  0.10795195705E+03  0.12955185276E+03  0.00000000000E+00 0.  1.
          3    1    3    3  501    0  0.65313209363E+02  0.29439998937E+02 -0.98790247195E+03  0.99049675564E+03  0.00000000000E+00 0.  1.
         21    1    1    2  502  501 -0.37303783232E-02 -0.33715980994E-01  0.65582162516E+00  0.65669832277E+00  0.00000000000E+00 0. -1.
<mgrwt>
<rscale>  1 0.69296174E+03</rscale>
<asrwt>0</asrwt>
<pdfrwt beam="1">  1        1 0.43892931E+00 0.69296174E+03</pdfrwt>
<pdfrwt beam="2">0</pdfrwt>
<totfact> 0.88540004E-01</totfact>
</mgrwt>
</event>
<event>
 6    1  0.3927553E-003  0.6561946E+03  0.7818608E-02  0.9795224E-01
          1   -1    0    0  502    0  0.00000000000E+00  0.00000000000E+00  0.10777430900E+03  0.10777430900E+03  0.00000000000E+00 0.  1.
         13   -1    0    0    0    0 -0.00000000000E+00 -0.00000000000E+00 -0.10000000000E+04  0.10000000000E+04  0.00000000000E+00 0.  1.
    9000005    2    1    2  501    0 -0.35819391948E-02  0.15933743676E-02 -0.89235211375E+03  0.11076478255E+04  0.65619464367E+03 0.  0.
         13    1    3    3    0    0 -0.14988613998E+03 -0.27708488634E+03 -0.60093857381E+03  0.67850501743E+03  0.00000000000E+00 0.  1.
          1    1    3    3  501    0  0.14988255804E+03  0.27708647971E+03 -0.29141353994E+03  0.42914280805E+03  0.00000000000E+00 0.  1.
         21    1    1    2  502  501  0.35819391948E-02 -0.15933743676E-02  0.12642274571E+00  0.12648351577E+00  0.00000000000E+00 0. -1.
<mgrwt>
<rscale>  1 0.65619464E+03</rscale>
<asrwt>0</asrwt>
<pdfrwt beam="1">  1        1 0.39190740E+00 0.65619464E+03</pdfrwt>
<pdfrwt beam="2">0</pdfrwt>
<totfact> 0.14517979E+00</totfact>
</mgrwt>
</event>
<event>
 6    1  0.3927553E-003  0.6715628E+03  0.7818608E-02  0.9767139E-01
          1   -1    0    0  502    0  0.00000000000E+00  0.00000000000E+00  0.11308744904E+03  0.11308744904E+03  0.00000000000E+00 0.  1.
         13   -1    0    0    0    0 -0.00000000000E+00 -0.00000000000E+00 -0.10000000000E+04  0.10000000000E+04  0.00000000000E+00 0.  1.
    9000005    2    1    2  501    0  0.45850355043E+00  0.18600572669E+00 -0.88703565987E+03  0.11125775672E+04  0.67156260798E+03 0.  0.
         13    1    3    3    0    0 -0.26396993864E+03 -0.16413232132E+03 -0.65263287019E+03  0.72287565366E+03  0.00000000000E+00 0.  1.
          3    1    3    3  501    0  0.26442844219E+03  0.16431832704E+03 -0.23440278969E+03  0.38970191359E+03  0.00000000000E+00 0.  1.
         21    1    1    2  502  501 -0.45850355043E+00 -0.18600572669E+00  0.12310891462E+00  0.50988179118E+00  0.00000000000E+00 0. -1.
<mgrwt>
<rscale>  1 0.67156279E+03</rscale>
<asrwt>0</asrwt>
<pdfrwt beam="1">  1        1 0.41122795E+00 0.67156279E+03</pdfrwt>
<pdfrwt beam="2">0</pdfrwt>
<totfact> 0.11869053E+00</totfact>
</mgrwt>
</event>
<event>
 6    1  0.3927553E-003  0.5635294E+03  0.7818608E-02  0.9984100E-01
          1   -1    0    0  502    0  0.00000000000E+00  0.00000000000E+00  0.80980510382E+02  0.80980510382E+02  0.00000000000E+00 0.  1.
         13   -1    0    0    0    0 -0.00000000000E+00 -0.00000000000E+00 -0.10000000000E+04  0.10000000000E+04  0.00000000000E+00 0.  1.
    9000005    2    1    2  501    0 -0.85317234938E-01 -0.52916802293E+00 -0.92055975745E+03  0.10793496447E+04  0.56352914850E+03 0.  0.
         13    1    3    3    0    0 -0.21533967966E+03  0.61777658104E+02 -0.78747079641E+03  0.81871723561E+03  0.00000000000E+00 0.  1.
          3    1    3    3  501    0  0.21525436243E+03 -0.62306826127E+02 -0.13308896104E+03  0.26063240911E+03  0.00000000000E+00 0.  1.
         21    1    1    2  502  501  0.85317234938E-01  0.52916802293E+00  0.15402678327E+01  0.16308656669E+01  0.00000000000E+00 0.  1.
<mgrwt>
<rscale>  1 0.56352940E+03</rscale>
<asrwt>0</asrwt>
<pdfrwt beam="1">  1        1 0.29447520E+00 0.56352940E+03</pdfrwt>
<pdfrwt beam="2">0</pdfrwt>
<totfact> 0.39231675E+00</totfact>
</mgrwt>
</event>
<event>
 6    1  0.3927553E-003  0.6497546E+03  0.7818608E-02  0.9807240E-01
          1   -1    0    0  502    0  0.00000000000E+00  0.00000000000E+00  0.10554544463E+03  0.10554544463E+03  0.00000000000E+00 0.  1.
         13   -1    0    0    0    0 -0.00000000000E+00 -0.00000000000E+00 -0.10000000000E+04  0.10000000000E+04  0.00000000000E+00 0.  1.
    9000005    2    1    2  501    0 -0.98046622668E-04 -0.95212652980E-05 -0.89445473094E+03  0.11055452433E+04  0.64975458391E+03 0.  0.
         13    1    3    3    0    0 -0.24834338262E+03  0.20941391175E+03 -0.45417126143E+03  0.55839068477E+03  0.00000000000E+00 0.  1.
          1    1    3    3  501    0  0.24834328457E+03 -0.20941392127E+03 -0.44028346951E+03  0.54715455854E+03  0.00000000000E+00 0.  1.
         21    1    1    2  502  501  0.98046622652E-04  0.95212653007E-05  0.17557040885E-03  0.20131756796E-03  0.00000000000E+00 0. -1.
<mgrwt>
<rscale>  1 0.64975458E+03</rscale>
<asrwt>0</asrwt>
<pdfrwt beam="1">  1        1 0.38380243E+00 0.64975458E+03</pdfrwt>
<pdfrwt beam="2">0</pdfrwt>
<totfact> 0.15788012E+00</totfact>
</mgrwt>
</event>
<event>
 6    1  0.3927553E-003  0.6558495E+03  0.7818608E-02  0.9795865E-01
          1   -1    0    0  502    0  0.00000000000E+00  0.00000000000E+00  0.10756424808E+03  0.10756424808E+03  0.00000000000E+00 0.  1.
         13   -1    0    0    0    0 -0.00000000000E+00 -0.00000000000E+00 -0.10000000000E+04  0.10000000000E+04  0.00000000000E+00 0.  1.
    9000005    2    1    2  501    0 -0.53012028962E-03 -0.52683556160E-03 -0.89246535468E+03  0.11075346359E+04  0.65584949521E+03 0.  0.
         13    1    3    3    0    0  0.21783566803E+03  0.10881721296E+03 -0.75328894181E+02  0.25488822335E+03  0.00000000000E+00 0.  1.
          1    1    3    3  501    0 -0.21783619815E+03 -0.10881773980E+03 -0.81713646050E+03  0.85264641253E+03  0.00000000000E+00 0.  1.
         21    1    1    2  502  501  0.53012028965E-03  0.52683556161E-03  0.29602760158E-01  0.29612193302E-01  0.00000000000E+00 0. -1.
<mgrwt>
<rscale>  1 0.65584950E+03</rscale>
<asrwt>0</asrwt>
<pdfrwt beam="1">  1        1 0.39114355E+00 0.65584950E+03</pdfrwt>
<pdfrwt beam="2">0</pdfrwt>
<totfact> 0.14632694E+00</totfact>
</mgrwt>
</event>
<event>
 6    1  0.3927553E-003  0.6707212E+03  0.7818608E-02  0.9768656E-01
          1   -1    0    0  502    0  0.00000000000E+00  0.00000000000E+00  0.11281877904E+03  0.11281877904E+03  0.00000000000E+00 0.  1.
         13   -1    0    0    0    0 -0.00000000000E+00 -0.00000000000E+00 -0.10000000000E+04  0.10000000000E+04  0.00000000000E+00 0.  1.
    9000005    2    1    2  501    0 -0.32510290128E-01  0.36042550428E-01 -0.88753140202E+03  0.11124652500E+04  0.67072120930E+03 0.  0.
         13    1    3    3    0    0  0.13594020667E+03  0.17835894460E+03 -0.30189583367E+02  0.22628094010E+03  0.00000000000E+00 0.  1.
          1    1    3    3  501    0 -0.13597271697E+03 -0.17832290205E+03 -0.85734181865E+03  0.88618430993E+03  0.00000000000E+00 0.  1.
         21    1    1    2  502  501  0.32510290128E-01 -0.36042550428E-01  0.35018105945E+00  0.35352900702E+00  0.00000000000E+00 0. -1.
<mgrwt>
<rscale>  1 0.67072121E+03</rscale>
<asrwt>0</asrwt>
<pdfrwt beam="1">  1        1 0.41025097E+00 0.67072121E+03</pdfrwt>
<pdfrwt beam="2">0</pdfrwt>
<totfact> 0.11991394E+00</totfact>
</mgrwt>
</event>
<event>
 6    1  0.3927553E-003  0.6538657E+03  0.7818608E-02  0.9799552E-01
          1   -1    0    0  502    0  0.00000000000E+00  0.00000000000E+00  0.10688525530E+03  0.10688525530E+03  0.00000000000E+00 0.  1.
         13   -1    0    0    0    0 -0.00000000000E+00 -0.00000000000E+00 -0.10000000000E+04  0.10000000000E+04  0.00000000000E+00 0.  1.
    9000005    2    1    2  501    0 -0.26466237557E-05  0.21913329590E-04 -0.89311491576E+03  0.11068850828E+04  0.65386568484E+03 0.  0.
         13    1    3    3    0    0  0.25382996022E+03 -0.18387294855E+03 -0.28914979466E+03  0.42643465345E+03  0.00000000000E+00 0.  1.
          1    1    3    3  501    0 -0.25382996287E+03  0.18387297046E+03 -0.60396512111E+03  0.68045042937E+03  0.00000000000E+00 0.  1.
         21    1    1    2  502  501  0.26466237580E-05 -0.21913329599E-04  0.17106031328E-03  0.17247848970E-03  0.00000000000E+00 0. -1.
<mgrwt>
<rscale>  1 0.65386568E+03</rscale>
<asrwt>0</asrwt>
<pdfrwt beam="1">  1        1 0.38867448E+00 0.65386568E+03</pdfrwt>
<pdfrwt beam="2">0</pdfrwt>
<totfact> 0.15011819E+00</totfact>
</mgrwt>
</event>
<event>
 6    1  0.3927553E-003  0.6471446E+03  0.7818608E-02  0.9812152E-01
          3   -1    0    0  502    0  0.00000000000E+00  0.00000000000E+00  0.14916744151E+03  0.14916744151E+03  0.00000000000E+00 0.  1.
         13   -1    0    0    0    0 -0.00000000000E+00 -0.00000000000E+00 -0.10000000000E+04  0.10000000000E+04  0.00000000000E+00 0.  1.
    9000005    2    1    2  501    0 -0.50541478115E+02  0.10369434927E+03 -0.78117567448E+03  0.10144119571E+04  0.63678035874E+03 0.  0.
         13    1    3    3    0    0 -0.32972526694E+03 -0.27490145889E+02 -0.48244244664E+03  0.58500014881E+03  0.00000000000E+00 0.  1.
          1    1    3    3  501    0  0.27918378882E+03  0.13118449516E+03 -0.29873322784E+03  0.42941180832E+03  0.00000000000E+00 0.  1.
         21    1    1    2  502  501  0.50541478115E+02 -0.10369434927E+03 -0.69656884013E+02  0.13475548438E+03  0.00000000000E+00 0.  1.
<mgrwt>
<rscale>  1 0.64714464E+03</rscale>
<asrwt>0</asrwt>
<pdfrwt beam="1">  1        3 0.54242820E+00 0.64714464E+03</pdfrwt>
<pdfrwt beam="2">0</pdfrwt>
<totfact> 0.11588234E-02</totfact>
</mgrwt>
</event>
<event>
 6    1  0.3927553E-003  0.6492178E+03  0.7818608E-02  0.9808248E-01
          1   -1    0    0  502    0  0.00000000000E+00  0.00000000000E+00  0.10537094428E+03  0.10537094428E+03  0.00000000000E+00 0.  1.
         13   -1    0    0    0    0 -0.00000000000E+00 -0.00000000000E+00 -0.10000000000E+04  0.10000000000E+04  0.00000000000E+00 0.  1.
    9000005    2    1    2  501    0  0.44390144751E-05  0.48524464660E-05 -0.89462905552E+03  0.11053709377E+04  0.64921780856E+03 0.  0.
         13    1    3    3    0    0 -0.18933916275E+03  0.23074237042E+03 -0.23007481126E+03  0.37686307704E+03  0.00000000000E+00 0.  1.
          1    1    3    3  501    0  0.18933916719E+03 -0.23074236556E+03 -0.66455424425E+03  0.72850786067E+03  0.00000000000E+00 0.  1.
         21    1    1    2  502  501 -0.44390144683E-05 -0.48524464517E-05 -0.19674301818E-06  0.65794979924E-05  0.00000000000E+00 0.  1.
<mgrwt>
<rscale>  1 0.64921781E+03</rscale>
<asrwt>0</asrwt>
<pdfrwt beam="1">  1        1 0.38316788E+00 0.64921781E+03</pdfrwt>
<pdfrwt beam="2">0</pdfrwt>
<totfact> 0.15891871E+00</totfact>
</mgrwt>
</event>
<event>
 6    1  0.3927553E-003  0.6521818E+03  0.7818608E-02  0.9802694E-01
          1   -1    0    0  502    0  0.00000000000E+00  0.00000000000E+00  0.10638455816E+03  0.10638455816E+03  0.00000000000E+00 0.  1.
         13   -1    0    0    0    0 -0.00000000000E+00 -0.00000000000E+00 -0.10000000000E+04  0.10000000000E+04  0.00000000000E+00 0.  1.
    9000005    2    1    2  501    0 -0.48046220756E-01  0.18053223768E-01 -0.89364950719E+03  0.11063229562E+04  0.65218175305E+03 0.  0.
         13    1    3    3    0    0 -0.84658141234E+02  0.31483219842E+03 -0.43384894689E+03  0.54268888211E+03  0.00000000000E+00 0.  1.
          3    1    3    3  501    0  0.84610095013E+02 -0.31481414520E+03 -0.45980056029E+03  0.56363407406E+03  0.00000000000E+00 0.  1.
         21    1    1    2  502  501  0.48046220756E-01 -0.18053223768E-01  0.34065347818E-01  0.61601997852E-01  0.00000000000E+00 0. -1.
<mgrwt>
<rscale>  1 0.65218176E+03</rscale>
<asrwt>0</asrwt>
<pdfrwt beam="1">  1        1 0.38685375E+00 0.65218176E+03</pdfrwt>
<pdfrwt beam="2">0</pdfrwt>
<totfact> 0.15297966E+00</totfact>
</mgrwt>
</event>
<event>
 6    1  0.3927553E-003  0.6489801E+03  0.7818608E-02  0.9808695E-01
          1   -1    0    0  502    0  0.00000000000E+00  0.00000000000E+00  0.10529383872E+03  0.10529383872E+03  0.00000000000E+00 0.  1.
         13   -1    0    0    0    0 -0.00000000000E+00 -0.00000000000E+00 -0.10000000000E+04  0.10000000000E+04  0.00000000000E+00 0.  1.
    9000005    2    1    2  501    0 -0.54535566392E-05 -0.18215581719E-05 -0.89470619490E+03  0.11052938046E+04  0.64898013784E+03 0.  0.
         13    1    3    3    0    0  0.31147239908E+03  0.89509813411E+02 -0.41953732114E+03  0.53013076303E+03  0.00000000000E+00 0.  1.
          1    1    3    3  501    0 -0.31147240453E+03 -0.89509815232E+02 -0.47516887376E+03  0.57516304158E+03  0.00000000000E+00 0.  1.
         21    1    1    2  502  501  0.54535566089E-05  0.18215581798E-05  0.33623610196E-04  0.34111677129E-04  0.00000000000E+00 0. -1.
<mgrwt>
<rscale>  1 0.64898014E+03</rscale>
<asrwt>0</asrwt>
<pdfrwt beam="1">  1        1 0.38288749E+00 0.64898014E+03</pdfrwt>
<pdfrwt beam="2">0</pdfrwt>
<totfact> 0.15937971E+00</totfact>
</mgrwt>
</event>
<event>
 6    1  0.3927553E-003  0.6529520E+03  0.7818608E-02  0.9801256E-01
          1   -1    0    0  502    0  0.00000000000E+00  0.00000000000E+00  0.14499742925E+03  0.14499742925E+03  0.00000000000E+00 0.  1.
         13   -1    0    0    0    0 -0.00000000000E+00 -0.00000000000E+00 -0.10000000000E+04  0.10000000000E+04  0.00000000000E+00 0.  1.
    9000005    2    1    2  501    0  0.32661435506E+00 -0.51709917129E+00 -0.89341073070E+03  0.11065844000E+04  0.65295170300E+03 0.  0.
         13    1    3    3    0    0  0.15692239327E+02  0.15126552522E+03 -0.93593533220E+03  0.94821013049E+03  0.00000000000E+00 0.  1.
          3    1    3    3  501    0 -0.15365624972E+02 -0.15178262439E+03  0.42524601507E+02  0.15837426948E+03  0.00000000000E+00 0.  1.
         21    1    1    2  502  501 -0.32661435506E+00  0.51709917129E+00  0.38408159950E+02  0.38413029290E+02  0.00000000000E+00 0. -1.
<mgrwt>
<rscale>  1 0.65295199E+03</rscale>
<asrwt>0</asrwt>
<pdfrwt beam="1">  1        1 0.52726449E+00 0.65295199E+03</pdfrwt>
<pdfrwt beam="2">0</pdfrwt>
<totfact> 0.34018287E-01</totfact>
</mgrwt>
</event>
<event>
 6    1  0.3927553E-003  0.6253935E+03  0.7818608E-02  0.9854080E-01
          1   -1    0    0  502    0  0.00000000000E+00  0.00000000000E+00  0.97779268829E+02  0.97779268829E+02  0.00000000000E+00 0.  1.
         13   -1    0    0    0    0 -0.00000000000E+00 -0.00000000000E+00 -0.10000000000E+04  0.10000000000E+04  0.00000000000E+00 0.  1.
    9000005    2    1    2  501    0 -0.20863583927E-05  0.23065604182E-06 -0.90222074602E+03  0.10977792538E+04  0.62539348861E+03 0.  0.
         13    1    3    3    0    0 -0.11567703113E+03  0.22706632910E+03 -0.76920502517E+03  0.81031886569E+03  0.00000000000E+00 0.  1.
          3    1    3    3  501    0  0.11567702905E+03 -0.22706632887E+03 -0.13301572085E+03  0.28746038814E+03  0.00000000000E+00 0.  1.
         21    1    1    2  502  501  0.20863583934E-05 -0.23065602412E-06  0.14850570546E-04  0.14998184527E-04  0.00000000000E+00 0. -1.
<mgrwt>
<rscale>  1 0.62539349E+03</rscale>
<asrwt>0</asrwt>
<pdfrwt beam="1">  1        1 0.35556173E+00 0.62539349E+03</pdfrwt>
<pdfrwt beam="2">0</pdfrwt>
<totfact> 0.21100082E+00</totfact>
</mgrwt>
</event>
<event>
 6    1  0.3927553E-003  0.6322978E+03  0.7818608E-02  0.9840575E-01
          1   -1    0    0  502    0  0.00000000000E+00  0.00000000000E+00  0.99952093736E+02  0.99952093736E+02  0.00000000000E+00 0.  1.
         13   -1    0    0    0    0 -0.00000000000E+00 -0.00000000000E+00 -0.10000000000E+04  0.10000000000E+04  0.00000000000E+00 0.  1.
    9000005    2    1    2  501    0 -0.11751453811E-03  0.37003289492E-04 -0.90004986525E+03  0.10999501309E+04  0.63229781787E+03 0.  0.
         13    1    3    3    0    0 -0.19698845364E+02  0.30347735723E+03 -0.60031332620E+03  0.67295069691E+03  0.00000000000E+00 0.  1.
          1    1    3    3  501    0  0.19698727850E+02 -0.30347732022E+03 -0.29973653905E+03  0.42699943397E+03  0.00000000000E+00 0.  1.
         21    1    1    2  502  501  0.11751453810E-03 -0.37003289508E-04  0.19589854687E-02  0.19628558217E-02  0.00000000000E+00 0. -1.
<mgrwt>
<rscale>  1 0.63229782E+03</rscale>
<asrwt>0</asrwt>
<pdfrwt beam="1">  1        1 0.36346293E+00 0.63229782E+03</pdfrwt>
<pdfrwt beam="2">0</pdfrwt>
<totfact> 0.19462283E+00</totfact>
</mgrwt>
</event>
<event>
 6    1  0.3927553E-003  0.6350704E+03  0.7818608E-02  0.9835204E-01
          1   -1    0    0  502    0  0.00000000000E+00  0.00000000000E+00  0.10084672834E+03  0.10084672834E+03  0.00000000000E+00 0.  1.
         13   -1    0    0    0    0 -0.00000000000E+00 -0.00000000000E+00 -0.10000000000E+04  0.10000000000E+04  0.00000000000E+00 0.  1.
    9000005    2    1    2  501    0  0.22722249629E-01 -0.15912544022E-01 -0.89915893079E+03  0.11008184169E+04  0.63507039254E+03 0.  0.
         13    1    3    3    0    0  0.31702045506E+03 -0.89443411459E+01 -0.42197159154E+03  0.52786550771E+03  0.00000000000E+00 0.  1.
          1    1    3    3  501    0 -0.31699773281E+03  0.89284286018E+01 -0.47718733925E+03  0.57295290922E+03  0.00000000000E+00 0.  1.
         21    1    1    2  502  501 -0.22722249629E-01  0.15912544022E-01  0.56591264280E-02  0.28311400485E-01  0.00000000000E+00 0.  1.
<mgrwt>
<rscale>  1 0.63507039E+03</rscale>
<asrwt>0</asrwt>
<pdfrwt beam="1">  1        1 0.36671615E+00 0.63507039E+03</pdfrwt>
<pdfrwt beam="2">0</pdfrwt>
<totfact> 0.18824266E+00</totfact>
</mgrwt>
</event>
<event>
 6    1  0.3927553E-003  0.6461077E+03  0.7818608E-02  0.9814110E-01
          1   -1    0    0  502    0  0.00000000000E+00  0.00000000000E+00  0.10445897435E+03  0.10445897435E+03  0.00000000000E+00 0.  1.
         13   -1    0    0    0    0 -0.00000000000E+00 -0.00000000000E+00 -0.10000000000E+04  0.10000000000E+04  0.00000000000E+00 0.  1.
    9000005    2    1    2  501    0 -0.21665571293E-02 -0.12323284121E-02 -0.89563618886E+03  0.11043637785E+04  0.64610770967E+03 0.  0.
         13    1    3    3    0    0 -0.51095100297E+02  0.31792515464E+03 -0.49227126634E+03  0.58823304301E+03  0.00000000000E+00 0.  1.
          1    1    3    3  501    0  0.51092933740E+02 -0.31792638697E+03 -0.40336492252E+03  0.51613073550E+03  0.00000000000E+00 0.  1.
         21    1    1    2  502  501  0.21665571293E-02  0.12323284121E-02  0.95163203463E-01  0.95195839701E-01  0.00000000000E+00 0. -1.
<mgrwt>
<rscale>  1 0.64610771E+03</rscale>
<asrwt>0</asrwt>
<pdfrwt beam="1">  1        1 0.37985162E+00 0.64610771E+03</pdfrwt>
<pdfrwt beam="2">0</pdfrwt>
<totfact> 0.16446241E+00</totfact>
</mgrwt>
</event>
<event>
 6    1  0.3927553E-003  0.5878598E+03  0.7818608E-02  0.9930918E-01
          1   -1    0    0  502    0  0.00000000000E+00  0.00000000000E+00  0.86395079963E+02  0.86395079963E+02  0.00000000000E+00 0.  1.
         13   -1    0    0    0    0 -0.00000000000E+00 -0.00000000000E+00 -0.10000000000E+04  0.10000000000E+04  0.00000000000E+00 0.  1.
    9000005    2    1    2  501    0 -0.19026240523E-04 -0.14533581492E-04 -0.91360522639E+03  0.10863947727E+04  0.58785975575E+03 0.  0.
         13    1    3    3    0    0 -0.17574047807E+03 -0.69398161152E+02 -0.40708068703E+02  0.19328209245E+03  0.00000000000E+00 0.  1.
          3    1    3    3  501    0  0.17574045904E+03  0.69398146618E+02 -0.87289715768E+03  0.89311268023E+03  0.00000000000E+00 0.  1.
         21    1    1    2  502  501  0.19026240522E-04  0.14533581487E-04  0.30634855935E-03  0.30728270799E-03  0.00000000000E+00 0.  1.
<mgrwt>
<rscale>  1 0.58785976E+03</rscale>
<asrwt>0</asrwt>
<pdfrwt beam="1">  1        1 0.31416459E+00 0.58785976E+03</pdfrwt>
<pdfrwt beam="2">0</pdfrwt>
<totfact> 0.32122173E+00</totfact>
</mgrwt>
</event>
