<event>
 6    1  0.1105159E-002  0.6520145E+03  0.7818608E-02  0.9803006E-01
          1   -1    0    0  502    0  0.00000000000E+00  0.00000000000E+00  0.10628107837E+03  0.10628107837E+03  0.00000000000E+00 0.  1.
         13   -1    0    0    0    0 -0.00000000000E+00 -0.00000000000E+00 -0.10000000000E+04  0.10000000000E+04  0.00000000000E+00 0.  1.
    9000005    2    1    2  501    0  0.15465661590E-04 -0.21988196821E-04 -0.89371926872E+03  0.11062807302E+04  0.65201451119E+03 0.  0.
         13    1    3    3    0    0 -0.28748978145E+03 -0.61479586249E+02 -0.20780615650E+03  0.36001876707E+03  0.00000000000E+00 0.  1.
          1    1    3    3  501    0  0.28748979691E+03  0.61479564261E+02 -0.68591311223E+03  0.74626196317E+03  0.00000000000E+00 0.  1.
         21    1    1    2  502  501 -0.15465661639E-04  0.21988196819E-04  0.34708961752E-03  0.34812909973E-03  0.00000000000E+00 0.  1.
<mgrwt>
<rscale>  1 0.65201451E+03</rscale>
<asrwt>0</asrwt>
<pdfrwt beam="1">  1        1 0.38647746E+00 0.65201451E+03</pdfrwt>
<pdfrwt beam="2">0</pdfrwt>
<totfact> 0.15357233E+00</totfact>
</mgrwt>
</event>
<event>
 6    1  0.1105159E-002  0.6773314E+03  0.7818608E-02  0.9756804E-01
          1   -1    0    0  502    0  0.00000000000E+00  0.00000000000E+00  0.11470022858E+03  0.11470022858E+03  0.00000000000E+00 0.  1.
         13   -1    0    0    0    0 -0.00000000000E+00 -0.00000000000E+00 -0.10000000000E+04  0.10000000000E+04  0.00000000000E+00 0.  1.
    9000005    2    1    2  501    0 -0.10912367823E-03 -0.32492219873E-04 -0.88530554729E+03  0.11146944516E+04  0.67733138740E+03 0.  0.
         13    1    3    3    0    0 -0.86793542144E+02 -0.28232385925E+03 -0.71533835772E+03  0.77391785513E+03  0.00000000000E+00 0.  1.
          3    1    3    3  501    0  0.86793433020E+02  0.28232382675E+03 -0.16996718956E+03  0.34077659646E+03  0.00000000000E+00 0.  1.
         21    1    1    2  502  501  0.10912367823E-03  0.32492219881E-04  0.57758620837E-02  0.57769842073E-02  0.00000000000E+00 0. -1.
<mgrwt>
<rscale>  1 0.67733139E+03</rscale>
<asrwt>0</asrwt>
<pdfrwt beam="1">  1        1 0.41709262E+00 0.67733139E+03</pdfrwt>
<pdfrwt beam="2">0</pdfrwt>
<totfact> 0.11157442E+00</totfact>
</mgrwt>
</event>
<event>
 6    1  0.1105159E-002  0.6701498E+03  0.7818608E-02  0.9769687E-01
          1   -1    0    0  502    0  0.00000000000E+00  0.00000000000E+00  0.11335043416E+03  0.11335043416E+03  0.00000000000E+00 0.  1.
         13   -1    0    0    0    0 -0.00000000000E+00 -0.00000000000E+00 -0.10000000000E+04  0.10000000000E+04  0.00000000000E+00 0.  1.
    9000005    2    1    2  501    0  0.33553708853E+00 -0.65666900944E-01 -0.88769447745E+03  0.11122510082E+04  0.67014976158E+03 0.  0.
         13    1    3    3    0    0 -0.19351727668E+02  0.33370202137E+03 -0.40611847033E+03  0.52598834623E+03  0.00000000000E+00 0.  1.
          3    1    3    3  501    0  0.19687264757E+02 -0.33376768827E+03 -0.48157600712E+03  0.58626266192E+03  0.00000000000E+00 0.  1.
         21    1    1    2  502  501 -0.33553708853E+00  0.65666900944E-01  0.10449116110E+01  0.10994260114E+01  0.00000000000E+00 0.  1.
<mgrwt>
<rscale>  1 0.67014985E+03</rscale>
<asrwt>0</asrwt>
<pdfrwt beam="1">  1        1 0.41218427E+00 0.67014985E+03</pdfrwt>
<pdfrwt beam="2">0</pdfrwt>
<totfact> 0.11755417E+00</totfact>
</mgrwt>
</event>
<event>
 6    1  0.1105159E-002  0.5720867E+03  0.7818608E-02  0.9965072E-01
          1   -1    0    0  502    0  0.00000000000E+00  0.00000000000E+00  0.81822527489E+02  0.81822527489E+02  0.00000000000E+00 0.  1.
         13   -1    0    0    0    0 -0.00000000000E+00 -0.00000000000E+00 -0.10000000000E+04  0.10000000000E+04  0.00000000000E+00 0.  1.
    9000005    2    1    2  501    0  0.50384039767E-04  0.75865899873E-04 -0.91817920121E+03  0.10818207964E+04  0.57208669795E+03 0.  0.
         13    1    3    3    0    0  0.84301859413E+02  0.18456377188E+03 -0.77826388991E+02  0.21731897344E+03  0.00000000000E+00 0.  1.
          3    1    3    3  501    0 -0.84301809029E+02 -0.18456369602E+03 -0.84035281222E+03  0.86450182296E+03  0.00000000000E+00 0.  1.
         21    1    1    2  502  501 -0.50384039770E-04 -0.75865899872E-04  0.17286985860E-02  0.17310958920E-02  0.00000000000E+00 0. -1.
<mgrwt>
<rscale>  1 0.57208670E+03</rscale>
<asrwt>0</asrwt>
<pdfrwt beam="1">  1        1 0.29753709E+00 0.57208670E+03</pdfrwt>
<pdfrwt beam="2">0</pdfrwt>
<totfact> 0.37999447E+00</totfact>
</mgrwt>
</event>
<event>
 6    1  0.1105159E-002  0.6484805E+03  0.7818608E-02  0.9809635E-01
          1   -1    0    0  502    0  0.00000000000E+00  0.00000000000E+00  0.10513176720E+03  0.10513176720E+03  0.00000000000E+00 0.  1.
         13   -1    0    0    0    0 -0.00000000000E+00 -0.00000000000E+00 -0.10000000000E+04  0.10000000000E+04  0.00000000000E+00 0.  1.
    9000005    2    1    2  501    0  0.19567987977E-04 -0.16735540271E-04 -0.89486826603E+03  0.11051317252E+04  0.64848046726E+03 0.  0.
         13    1    3    3    0    0 -0.78253468477E+02  0.65440012296E+02 -0.97194092165E+03  0.97727946654E+03  0.00000000000E+00 0.  1.
          1    1    3    3  501    0  0.78253488045E+02 -0.65440029032E+02  0.77072655622E+02  0.12785225863E+03  0.00000000000E+00 0.  1.
         21    1    1    2  502  501 -0.19567987978E-04  0.16735540260E-04  0.33230173648E-04  0.42038421735E-04  0.00000000000E+00 0.  1.
<mgrwt>
<rscale>  1 0.64848047E+03</rscale>
<asrwt>0</asrwt>
<pdfrwt beam="1">  1        1 0.38229814E+00 0.64848047E+03</pdfrwt>
<pdfrwt beam="2">0</pdfrwt>
<totfact> 0.16035286E+00</totfact>
</mgrwt>
</event>
<event>
 6    1  0.1105159E-002  0.6246432E+03  0.7818608E-02  0.9855558E-01
          1   -1    0    0  502    0  0.00000000000E+00  0.00000000000E+00  0.97544792048E+02  0.97544792048E+02  0.00000000000E+00 0.  1.
         13   -1    0    0    0    0 -0.00000000000E+00 -0.00000000000E+00 -0.10000000000E+04  0.10000000000E+04  0.00000000000E+00 0.  1.
    9000005    2    1    2  501    0  0.71799123518E-05 -0.52409419879E-05 -0.90245522233E+03  0.10975447751E+04  0.62464318224E+03 0.  0.
         13    1    3    3    0    0 -0.61572021280E+02 -0.18701240246E+03 -0.87722322208E+03  0.89904690302E+03  0.00000000000E+00 0.  1.
          1    1    3    3  501    0  0.61572028460E+02  0.18701239721E+03 -0.25232000257E+02  0.19849787212E+03  0.00000000000E+00 0.  1.
         21    1    1    2  502  501 -0.71799123536E-05  0.52409419879E-05  0.14380420304E-04  0.16906067031E-04  0.00000000000E+00 0. -1.
<mgrwt>
<rscale>  1 0.62464318E+03</rscale>
<asrwt>0</asrwt>
<pdfrwt beam="1">  1        1 0.35470908E+00 0.62464318E+03</pdfrwt>
<pdfrwt beam="2">0</pdfrwt>
<totfact> 0.21284568E+00</totfact>
</mgrwt>
</event>
<event>
 6    1  0.1105159E-002  0.6522354E+03  0.7818608E-02  0.9802594E-01
          1   -1    0    0  502    0  0.00000000000E+00  0.00000000000E+00  0.10653597134E+03  0.10653597134E+03  0.00000000000E+00 0.  1.
         13   -1    0    0    0    0 -0.00000000000E+00 -0.00000000000E+00 -0.10000000000E+04  0.10000000000E+04  0.00000000000E+00 0.  1.
    9000005    2    1    2  501    0  0.26611888495E-02 -0.46264198379E-01 -0.89364399771E+03  0.11063501319E+04  0.65223540035E+03 0.  0.
         13    1    3    3    0    0  0.30589774447E+03 -0.11157407179E+03 -0.47795154976E+03  0.57832507078E+03  0.00000000000E+00 0.  1.
          1    1    3    3  501    0 -0.30589508328E+03  0.11152780760E+03 -0.41569244794E+03  0.52802506107E+03  0.00000000000E+00 0.  1.
         21    1    1    2  502  501 -0.26611888495E-02  0.46264198379E-01  0.17996904326E+00  0.18583948588E+00  0.00000000000E+00 0. -1.
<mgrwt>
<rscale>  1 0.65223540E+03</rscale>
<asrwt>0</asrwt>
<pdfrwt beam="1">  1        1 0.38740435E+00 0.65223540E+03</pdfrwt>
<pdfrwt beam="2">0</pdfrwt>
<totfact> 0.15212174E+00</totfact>
</mgrwt>
</event>
<event>
 6    1  0.1105159E-002  0.6518595E+03  0.7818608E-02  0.9803296E-01
          1   -1    0    0  502    0  0.00000000000E+00  0.00000000000E+00  0.10623601360E+03  0.10623601360E+03  0.00000000000E+00 0.  1.
         13   -1    0    0    0    0 -0.00000000000E+00 -0.00000000000E+00 -0.10000000000E+04  0.10000000000E+04  0.00000000000E+00 0.  1.
    9000005    2    1    2  501    0  0.77177718441E-03 -0.42418011617E-04 -0.89376977895E+03  0.11062301697E+04  0.65185947150E+03 0.  0.
         13    1    3    3    0    0  0.11558098710E+03  0.29112096282E+03 -0.59980586102E+03  0.67666642483E+03  0.00000000000E+00 0.  1.
          1    1    3    3  501    0 -0.11558021533E+03 -0.29112100524E+03 -0.29396391794E+03  0.42956374488E+03  0.00000000000E+00 0.  1.
         21    1    1    2  502  501 -0.77177718441E-03  0.42418011632E-04  0.57925523172E-02  0.58438943914E-02  0.00000000000E+00 0. -1.
<mgrwt>
<rscale>  1 0.65185947E+03</rscale>
<asrwt>0</asrwt>
<pdfrwt beam="1">  1        1 0.38631359E+00 0.65185947E+03</pdfrwt>
<pdfrwt beam="2">0</pdfrwt>
<totfact> 0.15383345E+00</totfact>
</mgrwt>
</event>
<event>
 6    1  0.1105159E-002  0.6545733E+03  0.7818608E-02  0.9798235E-01
          1   -1    0    0  502    0  0.00000000000E+00  0.00000000000E+00  0.10711656867E+03  0.10711656867E+03  0.00000000000E+00 0.  1.
         13   -1    0    0    0    0 -0.00000000000E+00 -0.00000000000E+00 -0.10000000000E+04  0.10000000000E+04  0.00000000000E+00 0.  1.
    9000005    2    1    2  501    0 -0.57259537414E-05  0.36991170305E-05 -0.89288344150E+03  0.11071165564E+04  0.65457331860E+03 0.  0.
         13    1    3    3    0    0  0.14133668036E+03 -0.27538665633E+03 -0.26662671868E+03  0.40853846185E+03  0.00000000000E+00 0.  1.
          1    1    3    3  501    0 -0.14133668609E+03  0.27538666003E+03 -0.62625672282E+03  0.69857809458E+03  0.00000000000E+00 0.  1.
         21    1    1    2  502  501  0.57259537282E-05 -0.36991170323E-05  0.10165990843E-04  0.12239991125E-04  0.00000000000E+00 0. -1.
<mgrwt>
<rscale>  1 0.65457332E+03</rscale>
<asrwt>0</asrwt>
<pdfrwt beam="1">  1        1 0.38951562E+00 0.65457332E+03</pdfrwt>
<pdfrwt beam="2">0</pdfrwt>
<totfact> 0.14881540E+00</totfact>
</mgrwt>
</event>
<event>
 6    1  0.1105159E-002  0.6501327E+03  0.7818608E-02  0.9806530E-01
          1   -1    0    0  502    0  0.00000000000E+00  0.00000000000E+00  0.11122553344E+03  0.11122553344E+03  0.00000000000E+00 0.  1.
         13   -1    0    0    0    0 -0.00000000000E+00 -0.00000000000E+00 -0.10000000000E+04  0.10000000000E+04  0.00000000000E+00 0.  1.
    9000005    2    1    2  501    0  0.84996158290E+01  0.61302074916E+00 -0.89046009415E+03  0.11025387271E+04  0.65007680028E+03 0.  0.
         13    1    3    3    0    0 -0.11026294536E+03 -0.21883463167E+03 -0.85085170157E+02  0.25939544968E+03  0.00000000000E+00 0.  1.
          3    1    3    3  501    0  0.11876256119E+03  0.21944765241E+03 -0.80537492399E+03  0.84314327744E+03  0.00000000000E+00 0.  1.
         21    1    1    2  502  501 -0.84996158290E+01 -0.61302074916E+00  0.16856275863E+01  0.86868063199E+01  0.00000000000E+00 0. -1.
<mgrwt>
<rscale>  1 0.65013265E+03</rscale>
<asrwt>0</asrwt>
<pdfrwt beam="1">  1        1 0.40445734E+00 0.65013265E+03</pdfrwt>
<pdfrwt beam="2">0</pdfrwt>
<totfact> 0.12779442E+00</totfact>
</mgrwt>
</event>
<event>
 6    1  0.1105159E-002  0.6633907E+03  0.7818608E-02  0.9781972E-01
          1   -1    0    0  502    0  0.00000000000E+00  0.00000000000E+00  0.13494861501E+03  0.13494861501E+03  0.00000000000E+00 0.  1.
         13   -1    0    0    0    0 -0.00000000000E+00 -0.00000000000E+00 -0.10000000000E+04  0.10000000000E+04  0.00000000000E+00 0.  1.
    9000005    2    1    2  501    0  0.10750254734E+02 -0.42748947884E+02 -0.86596008058E+03  0.10908593164E+04  0.66192457769E+03 0.  0.
         13    1    3    3    0    0  0.15001901981E+03  0.60229022593E+02 -0.89994653248E+03  0.91435059074E+03  0.00000000000E+00 0.  1.
          3    1    3    3  501    0 -0.13926876507E+03 -0.10297797048E+03  0.33986451904E+02  0.17650872568E+03  0.00000000000E+00 0.  1.
         21    1    1    2  502  501 -0.10750254734E+02  0.42748947884E+02  0.90869558726E+00  0.44089298585E+02  0.00000000000E+00 0. -1.
<mgrwt>
<rscale>  1 0.66339067E+03</rscale>
<asrwt>0</asrwt>
<pdfrwt beam="1">  1        1 0.49072327E+00 0.66339067E+03</pdfrwt>
<pdfrwt beam="2">0</pdfrwt>
<totfact> 0.51063655E-01</totfact>
</mgrwt>
</event>
<event>
 6    1  0.1105159E-002  0.6529781E+03  0.7818608E-02  0.9801207E-01
          1   -1    0    0  502    0  0.00000000000E+00  0.00000000000E+00  0.10968145174E+03  0.10968145174E+03  0.00000000000E+00 0.  1.
         13   -1    0    0    0    0 -0.00000000000E+00 -0.00000000000E+00 -0.10000000000E+04  0.10000000000E+04  0.00000000000E+00 0.  1.
    9000005    2    1    2  501    0  0.50922978719E-01  0.17346744018E+00 -0.89340198471E+03  0.11065927199E+04  0.65297803082E+03 0.  0.
         13    1    3    3    0    0 -0.44096132211E+00 -0.48500248353E+02  0.10045142842E+03  0.11154800764E+03  0.00000000000E+00 0.  1.
          1    1    3    3  501    0  0.49188430082E+00  0.48673715793E+02 -0.99385341314E+03  0.99504471224E+03  0.00000000000E+00 0.  1.
         21    1    1    2  502  501 -0.50922978719E-01 -0.17346744018E+00  0.30834364489E+01  0.30887318493E+01  0.00000000000E+00 0. -1.
<mgrwt>
<rscale>  1 0.65297806E+03</rscale>
<asrwt>0</asrwt>
<pdfrwt beam="1">  1        1 0.39884248E+00 0.65297806E+03</pdfrwt>
<pdfrwt beam="2">0</pdfrwt>
<totfact> 0.13530925E+00</totfact>
</mgrwt>
</event>
<event>
 6    1  0.1105159E-002  0.6440732E+03  0.7818608E-02  0.9817964E-01
          1   -1    0    0  502    0  0.00000000000E+00  0.00000000000E+00  0.10370759229E+03  0.10370759229E+03  0.00000000000E+00 0.  1.
         13   -1    0    0    0    0 -0.00000000000E+00 -0.00000000000E+00 -0.10000000000E+04  0.10000000000E+04  0.00000000000E+00 0.  1.
    9000005    2    1    2  501    0  0.16513575645E-05 -0.66008764179E-05 -0.89629241416E+03  0.11037075829E+04  0.64407323877E+03 0.  0.
         13    1    3    3    0    0  0.19516870102E+03  0.23351155825E+03 -0.26769192640E+03  0.40531153099E+03  0.00000000000E+00 0.  1.
          1    1    3    3  501    0 -0.19516869936E+03 -0.23351156485E+03 -0.62860048776E+03  0.69839605193E+03  0.00000000000E+00 0.  1.
         21    1    1    2  502  501 -0.16513575715E-05  0.66008764412E-05  0.64521618186E-05  0.93770434442E-05  0.00000000000E+00 0.  1.
<mgrwt>
<rscale>  1 0.64407324E+03</rscale>
<asrwt>0</asrwt>
<pdfrwt beam="1">  1        1 0.37711931E+00 0.64407324E+03</pdfrwt>
<pdfrwt beam="2">0</pdfrwt>
<totfact> 0.16915139E+00</totfact>
</mgrwt>
</event>
<event>
 6    1  0.1105159E-002  0.6525902E+03  0.7818608E-02  0.9801931E-01
          1   -1    0    0  502    0  0.00000000000E+00  0.00000000000E+00  0.10876808626E+03  0.10876808626E+03  0.00000000000E+00 0.  1.
         13   -1    0    0    0    0 -0.00000000000E+00 -0.00000000000E+00 -0.10000000000E+04  0.10000000000E+04  0.00000000000E+00 0.  1.
    9000005    2    1    2  501    0  0.42771939940E-02  0.45608334757E-01 -0.89353125800E+03  0.11064682857E+04  0.65259019010E+03 0.  0.
         13    1    3    3    0    0  0.31245563743E+03  0.85543251742E+02 -0.51304350892E+03  0.60676174511E+03  0.00000000000E+00 0.  1.
          1    1    3    3  501    0 -0.31245136024E+03 -0.85497643407E+02 -0.38048774908E+03  0.49970654063E+03  0.00000000000E+00 0.  1.
         21    1    1    2  502  501 -0.42771939940E-02 -0.45608334757E-01  0.22993442677E+01  0.22998005296E+01  0.00000000000E+00 0.  1.
<mgrwt>
<rscale>  1 0.65259019E+03</rscale>
<asrwt>0</asrwt>
<pdfrwt beam="1">  1        1 0.39552115E+00 0.65259019E+03</pdfrwt>
<pdfrwt beam="2">0</pdfrwt>
<totfact> 0.14000462E+00</totfact>
</mgrwt>
</event>
<event>
 6    1  0.1105159E-002  0.6536714E+03  0.7818608E-02  0.9799914E-01
          1   -1    0    0  502    0  0.00000000000E+00  0.00000000000E+00  0.10682341698E+03  0.10682341698E+03  0.00000000000E+00 0.  1.
         13   -1    0    0    0    0 -0.00000000000E+00 -0.00000000000E+00 -0.10000000000E+04  0.10000000000E+04  0.00000000000E+00 0.  1.
    9000005    2    1    2  501    0  0.24300931869E-04 -0.96329464697E-04 -0.89317842037E+03  0.11068215769E+04  0.65367141025E+03 0.  0.
         13    1    3    3    0    0  0.17547548552E+03 -0.15979056457E+03 -0.82708569530E+03  0.86046232800E+03  0.00000000000E+00 0.  1.
          3    1    3    3  501    0 -0.17547546122E+03  0.15979046825E+03 -0.66092725070E+02  0.24635924894E+03  0.00000000000E+00 0.  1.
         21    1    1    2  502  501 -0.24300931875E-04  0.96329464682E-04  0.18373510209E-02  0.18400349658E-02  0.00000000000E+00 0.  1.
<mgrwt>
<rscale>  1 0.65367141E+03</rscale>
<asrwt>0</asrwt>
<pdfrwt beam="1">  1        1 0.38844961E+00 0.65367141E+03</pdfrwt>
<pdfrwt beam="2">0</pdfrwt>
<totfact> 0.15046845E+00</totfact>
</mgrwt>
</event>
<event>
 6    1  0.1105159E-002  0.6384816E+03  0.7818608E-02  0.9828636E-01
          1   -1    0    0  502    0  0.00000000000E+00  0.00000000000E+00  0.10338229577E+03  0.10338229577E+03  0.00000000000E+00 0.  1.
         13   -1    0    0    0    0 -0.00000000000E+00 -0.00000000000E+00 -0.10000000000E+04  0.10000000000E+04  0.00000000000E+00 0.  1.
    9000005    2    1    2  501    0  0.18788789729E+00 -0.40581682591E-01 -0.89807838274E+03  0.11019090238E+04  0.63848154095E+03 0.  0.
         13    1    3    3    0    0 -0.27384947344E+03 -0.15024860825E+03 -0.56212419211E+03  0.64307992174E+03  0.00000000000E+00 0.  1.
          3    1    3    3  501    0  0.27403736134E+03  0.15020802657E+03 -0.33595419063E+03  0.45882910202E+03  0.00000000000E+00 0.  1.
         21    1    1    2  502  501 -0.18788789729E+00  0.40581682591E-01  0.14606785107E+01  0.14732720206E+01  0.00000000000E+00 0.  1.
<mgrwt>
<rscale>  1 0.63848157E+03</rscale>
<asrwt>0</asrwt>
<pdfrwt beam="1">  1        1 0.37593641E+00 0.63848157E+03</pdfrwt>
<pdfrwt beam="2">0</pdfrwt>
<totfact> 0.17136887E+00</totfact>
</mgrwt>
</event>
<event>
 6    1  0.1105159E-002  0.6481600E+03  0.7818608E-02  0.9810238E-01
          1   -1    0    0  502    0  0.00000000000E+00  0.00000000000E+00  0.10503487129E+03  0.10503487129E+03  0.00000000000E+00 0.  1.
         13   -1    0    0    0    0 -0.00000000000E+00 -0.00000000000E+00 -0.10000000000E+04  0.10000000000E+04  0.00000000000E+00 0.  1.
    9000005    2    1    2  501    0 -0.88335877905E-03 -0.66576407363E-03 -0.89497210694E+03  0.11050278059E+04  0.64815999544E+03 0.  0.
         13    1    3    3    0    0 -0.15660716853E+03  0.27358774386E+03 -0.31931720712E+03  0.44870874472E+03  0.00000000000E+00 0.  1.
          1    1    3    3  501    0  0.15660628517E+03 -0.27358840962E+03 -0.57565489982E+03  0.65631906122E+03  0.00000000000E+00 0.  1.
         21    1    1    2  502  501  0.88335877906E-03  0.66576407364E-03  0.69782232115E-02  0.70653495118E-02  0.00000000000E+00 0. -1.
<mgrwt>
<rscale>  1 0.64816000E+03</rscale>
<asrwt>0</asrwt>
<pdfrwt beam="1">  1        1 0.38194579E+00 0.64816000E+03</pdfrwt>
<pdfrwt beam="2">0</pdfrwt>
<totfact> 0.16093801E+00</totfact>
</mgrwt>
</event>
<event>
 6    1  0.1105159E-002  0.5873825E+03  0.7818608E-02  0.9931935E-01
          1   -1    0    0  502    0  0.00000000000E+00  0.00000000000E+00  0.86264268867E+02  0.86264268867E+02  0.00000000000E+00 0.  1.
         13   -1    0    0    0    0 -0.00000000000E+00 -0.00000000000E+00 -0.10000000000E+04  0.10000000000E+04  0.00000000000E+00 0.  1.
    9000005    2    1    2  501    0 -0.37694805832E-03  0.49360369087E-03 -0.91374543579E+03  0.10862545444E+04  0.58738251055E+03 0.  0.
         13    1    3    3    0    0  0.25618506863E+03 -0.12393756100E+02 -0.72146042690E+03  0.76569546307E+03  0.00000000000E+00 0.  1.
          3    1    3    3  501    0 -0.25618544558E+03  0.12394249704E+02 -0.19228500889E+03  0.32055908129E+03  0.00000000000E+00 0.  1.
         21    1    1    2  502  501  0.37694805829E-03 -0.49360369087E-03  0.97046599042E-02  0.97245132679E-02  0.00000000000E+00 0. -1.
<mgrwt>
<rscale>  1 0.58738251E+03</rscale>
<asrwt>0</asrwt>
<pdfrwt beam="1">  1        1 0.31368891E+00 0.58738251E+03</pdfrwt>
<pdfrwt beam="2">0</pdfrwt>
<totfact> 0.32277249E+00</totfact>
</mgrwt>
</event>
<event>
 6    1  0.1105159E-002  0.6512765E+03  0.7818608E-02  0.9804387E-01
          1   -1    0    0  502    0  0.00000000000E+00  0.00000000000E+00  0.10604101691E+03  0.10604101691E+03  0.00000000000E+00 0.  1.
         13   -1    0    0    0    0 -0.00000000000E+00 -0.00000000000E+00 -0.10000000000E+04  0.10000000000E+04  0.00000000000E+00 0.  1.
    9000005    2    1    2  501    0  0.25302171520E-03 -0.72266458119E-03 -0.89395948969E+03  0.11060400988E+04  0.65127653955E+03 0.  0.
         13    1    3    3    0    0  0.12257333652E+03 -0.29830867144E+03 -0.52346335643E+03  0.61483832981E+03  0.00000000000E+00 0.  1.
          1    1    3    3  501    0 -0.12257308350E+03  0.29830794878E+03 -0.37049613326E+03  0.49120176900E+03  0.00000000000E+00 0.  1.
         21    1    1    2  502  501 -0.25302171520E-03  0.72266458119E-03  0.50660325339E-03  0.91810181441E-03  0.00000000000E+00 0.  1.
<mgrwt>
<rscale>  1 0.65127654E+03</rscale>
<asrwt>0</asrwt>
<pdfrwt beam="1">  1        1 0.38560451E+00 0.65127654E+03</pdfrwt>
<pdfrwt beam="2">0</pdfrwt>
<totfact> 0.15496569E+00</totfact>
</mgrwt>
</event>
<event>
 6    1  0.1105159E-002  0.6392254E+03  0.7818608E-02  0.9827210E-01
          1   -1    0    0  502    0  0.00000000000E+00  0.00000000000E+00  0.10215240214E+03  0.10215240214E+03  0.00000000000E+00 0.  1.
         13   -1    0    0    0    0 -0.00000000000E+00 -0.00000000000E+00 -0.10000000000E+04  0.10000000000E+04  0.00000000000E+00 0.  1.
    9000005    2    1    2  501    0 -0.24197445265E-03 -0.16641591000E-03 -0.89784752675E+03  0.11021521000E+04  0.63922536729E+03 0.  0.
         13    1    3    3    0    0 -0.26524922116E+03 -0.16260881702E+03 -0.32276742534E+03  0.44830523928E+03  0.00000000000E+00 0.  1.
          3    1    3    3  501    0  0.26524897919E+03  0.16260865060E+03 -0.57508010141E+03  0.65384686070E+03  0.00000000000E+00 0.  1.
         21    1    1    2  502  501  0.24197445267E-03  0.16641591001E-03 -0.71111414692E-04  0.30216340637E-03  0.00000000000E+00 0. -1.
<mgrwt>
<rscale>  1 0.63922537E+03</rscale>
<asrwt>0</asrwt>
<pdfrwt beam="1">  1        1 0.37146406E+00 0.63922537E+03</pdfrwt>
<pdfrwt beam="2">0</pdfrwt>
<totfact> 0.17928578E+00</totfact>
</mgrwt>
</event>
<event>
 6    1  0.1105159E-002  0.6585143E+03  0.7818608E-02  0.9790933E-01
          1   -1    0    0  502    0  0.00000000000E+00  0.00000000000E+00  0.11655771868E+03  0.11655771868E+03  0.00000000000E+00 0.  1.
         13   -1    0    0    0    0 -0.00000000000E+00 -0.00000000000E+00 -0.10000000000E+04  0.10000000000E+04  0.00000000000E+00 0.  1.
    9000005    2    1    2  501    0 -0.12629442368E+00  0.39749553337E+00 -0.89158381903E+03  0.11084055049E+04  0.65851414791E+03 0.  0.
         13    1    3    3    0    0  0.18983244395E+03 -0.26372885248E+03 -0.53286077525E+03  0.62412328126E+03  0.00000000000E+00 0.  1.
          3    1    3    3  501    0 -0.18995873838E+03  0.26412634802E+03 -0.35872304379E+03  0.48428222366E+03  0.00000000000E+00 0.  1.
         21    1    1    2  502  501  0.12629442368E+00 -0.39749553337E+00  0.81415377155E+01  0.81522137701E+01  0.00000000000E+00 0. -1.
<mgrwt>
<rscale>  1 0.65851428E+03</rscale>
<asrwt>0</asrwt>
<pdfrwt beam="1">  1        1 0.42384714E+00 0.65851428E+03</pdfrwt>
<pdfrwt beam="2">0</pdfrwt>
<totfact> 0.10438847E+00</totfact>
</mgrwt>
</event>
<event>
 6    1  0.1105159E-002  0.6397818E+03  0.7818608E-02  0.9826144E-01
          1   -1    0    0  502    0  0.00000000000E+00  0.00000000000E+00  0.10233064617E+03  0.10233064617E+03  0.00000000000E+00 0.  1.
         13   -1    0    0    0    0 -0.00000000000E+00 -0.00000000000E+00 -0.10000000000E+04  0.10000000000E+04  0.00000000000E+00 0.  1.
    9000005    2    1    2  501    0 -0.80906680132E-04  0.74236511608E-04 -0.89766980166E+03  0.11023301851E+04  0.63978180978E+03 0.  0.
         13    1    3    3    0    0  0.49340519081E+02 -0.16389221696E+03  0.16799918520E+02  0.17198076307E+03  0.00000000000E+00 0.  1.
          3    1    3    3  501    0 -0.49340599987E+02  0.16389229119E+03 -0.91446972018E+03  0.93034942201E+03  0.00000000000E+00 0.  1.
         21    1    1    2  502  501  0.80906680132E-04 -0.74236511618E-04  0.44782169630E-03  0.46108700071E-03  0.00000000000E+00 0.  1.
<mgrwt>
<rscale>  1 0.63978181E+03</rscale>
<asrwt>0</asrwt>
<pdfrwt beam="1">  1        1 0.37211223E+00 0.63978181E+03</pdfrwt>
<pdfrwt beam="2">0</pdfrwt>
<totfact> 0.17809546E+00</totfact>
</mgrwt>
</event>
<event>
 6    1  0.1105160E-002  0.6155344E+03  0.7818608E-02  0.9873691E-01
          1   -1    0    0  502    0  0.00000000000E+00  0.00000000000E+00  0.94720643698E+02  0.94720643698E+02  0.00000000000E+00 0.  1.
         13   -1    0    0    0    0 -0.00000000000E+00 -0.00000000000E+00 -0.10000000000E+04  0.10000000000E+04  0.00000000000E+00 0.  1.
    9000005    2    1    2  501    0  0.63895208200E-05 -0.20008486871E-04 -0.90527933140E+03  0.10947206111E+04  0.61553436017E+03 0.  0.
         13    1    3    3    0    0 -0.23030786817E+03 -0.19217337132E+03 -0.33008749818E+03  0.44601577914E+03  0.00000000000E+00 0.  1.
          1    1    3    3  501    0  0.23030787456E+03  0.19217335131E+03 -0.57519183322E+03  0.64870483198E+03  0.00000000000E+00 0.  1.
         21    1    1    2  502  501 -0.63895208146E-05  0.20008486869E-04 -0.24904121100E-04  0.32578839310E-04  0.00000000000E+00 0. -1.
<mgrwt>
<rscale>  1 0.61553436E+03</rscale>
<asrwt>0</asrwt>
<pdfrwt beam="1">  1        1 0.34443943E+00 0.61553436E+03</pdfrwt>
<pdfrwt beam="2">0</pdfrwt>
<totfact> 0.23632782E+00</totfact>
</mgrwt>
</event>
<event>
 6    1  0.1105159E-002  0.6429904E+03  0.7818608E-02  0.9820022E-01
          1   -1    0    0  502    0  0.00000000000E+00  0.00000000000E+00  0.10339220045E+03  0.10339220045E+03  0.00000000000E+00 0.  1.
         13   -1    0    0    0    0 -0.00000000000E+00 -0.00000000000E+00 -0.10000000000E+04  0.10000000000E+04  0.00000000000E+00 0.  1.
    9000005    2    1    2  501    0 -0.90545599864E-02  0.66748938358E-02 -0.89663977952E+03  0.11033582997E+04  0.64299039127E+03 0.  0.
         13    1    3    3    0    0  0.93816957963E+02 -0.30749435403E+03 -0.45065355229E+03  0.55357296137E+03  0.00000000000E+00 0.  1.
          1    1    3    3  501    0 -0.93826012523E+02  0.30750102893E+03 -0.44598622723E+03  0.54978533838E+03  0.00000000000E+00 0.  1.
         21    1    1    2  502  501  0.90545599864E-02 -0.66748938358E-02  0.31979969904E-01  0.33900704113E-01  0.00000000000E+00 0.  1.
<mgrwt>
<rscale>  1 0.64299039E+03</rscale>
<asrwt>0</asrwt>
<pdfrwt beam="1">  1        1 0.37597243E+00 0.64299039E+03</pdfrwt>
<pdfrwt beam="2">0</pdfrwt>
<totfact> 0.17116449E+00</totfact>
</mgrwt>
</event>
<event>
 6    1  0.1105159E-002  0.6448156E+03  0.7818608E-02  0.9816556E-01
          1   -1    0    0  502    0  0.00000000000E+00  0.00000000000E+00  0.10394978292E+03  0.10394978292E+03  0.00000000000E+00 0.  1.
         13   -1    0    0    0    0 -0.00000000000E+00 -0.00000000000E+00 -0.10000000000E+04  0.10000000000E+04  0.00000000000E+00 0.  1.
    9000005    2    1    2  501    0 -0.39916458867E-02 -0.90005833168E-03 -0.89605159738E+03  0.11039454645E+04  0.64481557321E+03 0.  0.
         13    1    3    3    0    0  0.14642407149E+03  0.66146168977E+02 -0.92656994973E+03  0.94039736076E+03  0.00000000000E+00 0.  1.
          1    1    3    3  501    0 -0.14642806314E+03 -0.66147069036E+02  0.30518352346E+02  0.16354810377E+03  0.00000000000E+00 0.  1.
         21    1    1    2  502  501  0.39916458867E-02  0.90005833169E-03  0.13803028677E-02  0.43183999226E-02  0.00000000000E+00 0. -1.
<mgrwt>
<rscale>  1 0.64481557E+03</rscale>
<asrwt>0</asrwt>
<pdfrwt beam="1">  1        1 0.37800001E+00 0.64481557E+03</pdfrwt>
<pdfrwt beam="2">0</pdfrwt>
<totfact> 0.16762360E+00</totfact>
</mgrwt>
</event>
<event>
 6    1  0.1105159E-002  0.6537696E+03  0.7818608E-02  0.9799731E-01
          1   -1    0    0  502    0  0.00000000000E+00  0.00000000000E+00  0.10686415747E+03  0.10686415747E+03  0.00000000000E+00 0.  1.
         13   -1    0    0    0    0 -0.00000000000E+00 -0.00000000000E+00 -0.10000000000E+04  0.10000000000E+04  0.00000000000E+00 0.  1.
    9000005    2    1    2  501    0 -0.22793448447E-02 -0.28914433116E-02 -0.89314598510E+03  0.11068533673E+04  0.65376955114E+03 0.  0.
         13    1    3    3    0    0 -0.60143223167E+02  0.28584506447E+03 -0.69498257491E+03  0.75387358861E+03  0.00000000000E+00 0.  1.
          3    1    3    3  501    0  0.60140943822E+02 -0.28584795592E+03 -0.19816341019E+03  0.35297977869E+03  0.00000000000E+00 0.  1.
         21    1    1    2  502  501  0.22793448447E-02  0.28914433117E-02  0.10142577931E-01  0.10790168879E-01  0.00000000000E+00 0.  1.
<mgrwt>
<rscale>  1 0.65376955E+03</rscale>
<asrwt>0</asrwt>
<pdfrwt beam="1">  1        1 0.38859776E+00 0.65376955E+03</pdfrwt>
<pdfrwt beam="2">0</pdfrwt>
<totfact> 0.15023843E+00</totfact>
</mgrwt>
</event>
<event>
 6    1  0.1105159E-002  0.6570315E+03  0.7818608E-02  0.9793674E-01
          1   -1    0    0  502    0  0.00000000000E+00  0.00000000000E+00  0.11521568380E+03  0.11521568380E+03  0.00000000000E+00 0.  1.
         13   -1    0    0    0    0 -0.00000000000E+00 -0.00000000000E+00 -0.10000000000E+04  0.10000000000E+04  0.00000000000E+00 0.  1.
    9000005    2    1    2  501    0  0.15061204335E+01 -0.72327238265E+01 -0.88994315768E+03  0.11062048937E+04  0.65699000165E+03 0.  0.
         13    1    3    3    0    0  0.22992010600E+03  0.19793488482E+03 -0.23805223879E+03  0.38562979938E+03  0.00000000000E+00 0.  1.
          1    1    3    3  501    0 -0.22841398557E+03 -0.20516760865E+03 -0.65189091889E+03  0.72057509433E+03  0.00000000000E+00 0.  1.
         21    1    1    2  502  501 -0.15061204335E+01  0.72327238265E+01  0.51588414788E+01  0.90107900938E+01  0.00000000000E+00 0. -1.
<mgrwt>
<rscale>  1 0.65703154E+03</rscale>
<asrwt>0</asrwt>
<pdfrwt beam="1">  1        1 0.41896701E+00 0.65703154E+03</pdfrwt>
<pdfrwt beam="2">0</pdfrwt>
<totfact> 0.10985350E+00</totfact>
</mgrwt>
</event>
<event>
 6    1  0.1105159E-002  0.6408378E+03  0.7818608E-02  0.9824125E-01
          1   -1    0    0  502    0  0.00000000000E+00  0.00000000000E+00  0.10287029046E+03  0.10287029046E+03  0.00000000000E+00 0.  1.
         13   -1    0    0    0    0 -0.00000000000E+00 -0.00000000000E+00 -0.10000000000E+04  0.10000000000E+04  0.00000000000E+00 0.  1.
    9000005    2    1    2  501    0 -0.54466482396E-02  0.92713661491E-02 -0.89733157386E+03  0.11026681399E+04  0.64083779015E+03 0.  0.
         13    1    3    3    0    0 -0.84245451831E+02  0.71288762035E+02 -0.96627151004E+03  0.97255334808E+03  0.00000000000E+00 0.  1.
          1    1    3    3  501    0  0.84240005182E+02 -0.71279490669E+02  0.68939936175E+02  0.13011479187E+03  0.00000000000E+00 0.  1.
         21    1    1    2  502  501  0.54466482396E-02 -0.92713661491E-02  0.20186431993E+00  0.20215050796E+00  0.00000000000E+00 0.  1.
<mgrwt>
<rscale>  1 0.64083779E+03</rscale>
<asrwt>0</asrwt>
<pdfrwt beam="1">  1        1 0.37407457E+00 0.64083779E+03</pdfrwt>
<pdfrwt beam="2">0</pdfrwt>
<totfact> 0.17455762E+00</totfact>
</mgrwt>
</event>
<event>
 6    1  0.1105159E-002  0.6400540E+03  0.7818608E-02  0.9825623E-01
          1   -1    0    0  502    0  0.00000000000E+00  0.00000000000E+00  0.10242162794E+03  0.10242162794E+03  0.00000000000E+00 0.  1.
         13   -1    0    0    0    0 -0.00000000000E+00 -0.00000000000E+00 -0.10000000000E+04  0.10000000000E+04  0.00000000000E+00 0.  1.
    9000005    2    1    2  501    0  0.17021728621E-02  0.11548039971E-04 -0.89758254415E+03  0.11024171220E+04  0.64005397210E+03 0.  0.
         13    1    3    3    0    0  0.13626381811E+03 -0.17494310847E+01  0.49945830063E+02  0.14513950040E+03  0.00000000000E+00 0.  1.
          3    1    3    3  501    0 -0.13626211594E+03  0.17494426327E+01 -0.94752837422E+03  0.95727762156E+03  0.00000000000E+00 0.  1.
         21    1    1    2  502  501 -0.17021728621E-02 -0.11548039971E-04  0.41720959326E-02  0.45059860497E-02  0.00000000000E+00 0.  1.
<mgrwt>
<rscale>  1 0.64005397E+03</rscale>
<asrwt>0</asrwt>
<pdfrwt beam="1">  1        1 0.37244307E+00 0.64005397E+03</pdfrwt>
<pdfrwt beam="2">0</pdfrwt>
<totfact> 0.17749118E+00</totfact>
</mgrwt>
</event>
<event>
 6    1  0.1105159E-002  0.6185069E+03  0.7818608E-02  0.9867737E-01
          1   -1    0    0  502    0  0.00000000000E+00  0.00000000000E+00  0.95637712336E+02  0.95637712336E+02  0.00000000000E+00 0.  1.
         13   -1    0    0    0    0 -0.00000000000E+00 -0.00000000000E+00 -0.10000000000E+04  0.10000000000E+04  0.00000000000E+00 0.  1.
    9000005    2    1    2  501    0  0.47835561929E-05  0.24667658209E-05 -0.90436229375E+03  0.10956377042E+04  0.61850692845E+03 0.  0.
         13    1    3    3    0    0  0.69018413864E+02 -0.65256777705E+02  0.69158498174E+02  0.11749419713E+03  0.00000000000E+00 0.  1.
          1    1    3    3  501    0 -0.69018409080E+02  0.65256780172E+02 -0.97352079192E+03  0.97814350709E+03  0.00000000000E+00 0.  1.
         21    1    1    2  502  501 -0.47835561910E-05 -0.24667658089E-05  0.60841885954E-05  0.81230963463E-05  0.00000000000E+00 0.  1.
<mgrwt>
<rscale>  1 0.61850693E+03</rscale>
<asrwt>0</asrwt>
<pdfrwt beam="1">  1        1 0.34777423E+00 0.61850693E+03</pdfrwt>
<pdfrwt beam="2">0</pdfrwt>
<totfact> 0.22844043E+00</totfact>
</mgrwt>
</event>
<event>
 6    1  0.1105159E-002  0.6530594E+03  0.7818608E-02  0.9801055E-01
          1   -1    0    0  502    0  0.00000000000E+00  0.00000000000E+00  0.10740800680E+03  0.10740800680E+03  0.00000000000E+00 0.  1.
         13   -1    0    0    0    0 -0.00000000000E+00 -0.00000000000E+00 -0.10000000000E+04  0.10000000000E+04  0.00000000000E+00 0.  1.
    9000005    2    1    2  501    0  0.92705657296E-01 -0.25735231701E-01 -0.89337510899E+03  0.11066190030E+04  0.65305935657E+03 0.  0.
         13    1    3    3    0    0  0.13213404170E+03  0.28793558832E+03 -0.58076971078E+03  0.66155858770E+03  0.00000000000E+00 0.  1.
          3    1    3    3  501    0 -0.13204133605E+03 -0.28796132355E+03 -0.31260539821E+03  0.44506041531E+03  0.00000000000E+00 0.  1.
         21    1    1    2  502  501 -0.92705657296E-01  0.25735231701E-01  0.78311578489E+00  0.78900378553E+00  0.00000000000E+00 0. -1.
<mgrwt>
<rscale>  1 0.65305936E+03</rscale>
<asrwt>0</asrwt>
<pdfrwt beam="1">  1        1 0.39057539E+00 0.65305936E+03</pdfrwt>
<pdfrwt beam="2">0</pdfrwt>
<totfact> 0.14725503E+00</totfact>
</mgrwt>
</event>
<event>
 6    1  0.1105159E-002  0.6509327E+03  0.7818608E-02  0.9805031E-01
          1   -1    0    0  502    0  0.00000000000E+00  0.00000000000E+00  0.10616738624E+03  0.10616738624E+03  0.00000000000E+00 0.  1.
         13   -1    0    0    0    0 -0.00000000000E+00 -0.00000000000E+00 -0.10000000000E+04  0.10000000000E+04  0.00000000000E+00 0.  1.
    9000005    2    1    2  501    0  0.13510829152E+00 -0.30496086527E-01 -0.89404924976E+03  0.11059102571E+04  0.65093272807E+03 0.  0.
         13    1    3    3    0    0  0.26003585189E+03  0.79804504399E+02 -0.14329913223E+03  0.30744437626E+03  0.00000000000E+00 0.  1.
          1    1    3    3  501    0 -0.25990074360E+03 -0.79835000486E+02 -0.75075011753E+03  0.79846588080E+03  0.00000000000E+00 0.  1.
         21    1    1    2  502  501 -0.13510829152E+00  0.30496086527E-01  0.21663599844E+00  0.25712918456E+00  0.00000000000E+00 0.  1.
<mgrwt>
<rscale>  1 0.65093274E+03</rscale>
<asrwt>0</asrwt>
<pdfrwt beam="1">  1        1 0.38606404E+00 0.65093274E+03</pdfrwt>
<pdfrwt beam="2">0</pdfrwt>
<totfact> 0.15425160E+00</totfact>
</mgrwt>
</event>
<event>
 6    1  0.1105159E-002  0.6596934E+03  0.7818608E-02  0.9788758E-01
          1   -1    0    0  502    0  0.00000000000E+00  0.00000000000E+00  0.10879883786E+03  0.10879883786E+03  0.00000000000E+00 0.  1.
         13   -1    0    0    0    0 -0.00000000000E+00 -0.00000000000E+00 -0.10000000000E+04  0.10000000000E+04  0.00000000000E+00 0.  1.
    9000005    2    1    2  501    0 -0.18817721923E-05 -0.14418870933E-05 -0.89120116494E+03  0.11087988342E+04  0.65969336689E+03 0.  0.
         13    1    3    3    0    0 -0.11385213292E+03 -0.29554789297E+03 -0.29075010174E+03  0.42993777092E+03  0.00000000000E+00 0.  1.
          1    1    3    3  501    0  0.11385213103E+03  0.29554789152E+03 -0.60045106320E+03  0.67886106327E+03  0.00000000000E+00 0.  1.
         21    1    1    2  502  501  0.18817722037E-05  0.14418871156E-05  0.27961596234E-05  0.36658714817E-05  0.00000000000E+00 0. -1.
<mgrwt>
<rscale>  1 0.65969337E+03</rscale>
<asrwt>0</asrwt>
<pdfrwt beam="1">  1        1 0.39563297E+00 0.65969337E+03</pdfrwt>
<pdfrwt beam="2">0</pdfrwt>
<totfact> 0.13965862E+00</totfact>
</mgrwt>
</event>
<event>
 6    1  0.1105159E-002  0.6457109E+03  0.7818608E-02  0.9814861E-01
          1   -1    0    0  502    0  0.00000000000E+00  0.00000000000E+00  0.10423564971E+03  0.10423564971E+03  0.00000000000E+00 0.  1.
         13   -1    0    0    0    0 -0.00000000000E+00 -0.00000000000E+00 -0.10000000000E+04  0.10000000000E+04  0.00000000000E+00 0.  1.
    9000005    2    1    2  501    0 -0.16763315660E-05  0.61239890865E-05 -0.89576436533E+03  0.11042356334E+04  0.64571087635E+03 0.  0.
         13    1    3    3    0    0  0.41201993555E+01  0.14135256935E+02  0.10366120843E+03  0.10470161252E+03  0.00000000000E+00 0.  1.
          1    1    3    3  501    0 -0.41202010318E+01 -0.14135250811E+02 -0.99942557376E+03  0.99953402086E+03  0.00000000000E+00 0.  1.
         21    1    1    2  502  501  0.16763315662E-05 -0.61239890862E-05  0.15038419022E-04  0.16323828489E-04  0.00000000000E+00 0. -1.
<mgrwt>
<rscale>  1 0.64571088E+03</rscale>
<asrwt>0</asrwt>
<pdfrwt beam="1">  1        1 0.37903953E+00 0.64571088E+03</pdfrwt>
<pdfrwt beam="2">0</pdfrwt>
<totfact> 0.16583663E+00</totfact>
</mgrwt>
</event>
<event>
 6    1  0.1105159E-002  0.6536400E+03  0.7818608E-02  0.9799973E-01
          3   -1    0    0  502    0  0.00000000000E+00  0.00000000000E+00  0.10684940522E+03  0.10684940522E+03  0.00000000000E+00 0.  1.
         13   -1    0    0    0    0 -0.00000000000E+00 -0.00000000000E+00 -0.10000000000E+04  0.10000000000E+04  0.00000000000E+00 0.  1.
    9000005    2    1    2  501    0 -0.40994261876E-02 -0.23828698346E-02 -0.89318852984E+03  0.11068111750E+04  0.65363998284E+03 0.  0.
         13    1    3    3    0    0  0.31084133528E+03  0.10042381676E+03 -0.46373571214E+03  0.56723724261E+03  0.00000000000E+00 0.  1.
          1    1    3    3  501    0 -0.31084543470E+03 -0.10042619962E+03 -0.42945281770E+03  0.53957393236E+03  0.00000000000E+00 0.  1.
         21    1    1    2  502  501  0.40994261876E-02  0.23828698346E-02  0.37935060247E-01  0.38230251891E-01  0.00000000000E+00 0.  1.
<mgrwt>
<rscale>  1 0.65363998E+03</rscale>
<asrwt>0</asrwt>
<pdfrwt beam="1">  1        3 0.38854411E+00 0.65363998E+03</pdfrwt>
<pdfrwt beam="2">0</pdfrwt>
<totfact> 0.67999383E-02</totfact>
</mgrwt>
</event>
<event>
 6    1  0.1105159E-002  0.6479185E+03  0.7818608E-02  0.9810693E-01
          1   -1    0    0  502    0  0.00000000000E+00  0.00000000000E+00  0.10519406241E+03  0.10519406241E+03  0.00000000000E+00 0.  1.
         13   -1    0    0    0    0 -0.00000000000E+00 -0.00000000000E+00 -0.10000000000E+04  0.10000000000E+04  0.00000000000E+00 0.  1.
    9000005    2    1    2  501    0 -0.73603350017E-01  0.20695164866E-01 -0.89504379413E+03  0.11049442195E+04  0.64791845858E+03 0.  0.
         13    1    3    3    0    0  0.21082132579E+03 -0.23856356354E+03 -0.34556983076E+03  0.46986882551E+03  0.00000000000E+00 0.  1.
          1    1    3    3  501    0 -0.21089492914E+03  0.23858425870E+03 -0.54947396337E+03  0.63507539399E+03  0.00000000000E+00 0.  1.
         21    1    1    2  502  501  0.73603350017E-01 -0.20695164866E-01  0.23785654147E+00  0.24984290525E+00  0.00000000000E+00 0. -1.
<mgrwt>
<rscale>  1 0.64791846E+03</rscale>
<asrwt>0</asrwt>
<pdfrwt beam="1">  1        1 0.38252467E+00 0.64791846E+03</pdfrwt>
<pdfrwt beam="2">0</pdfrwt>
<totfact> 0.16000038E+00</totfact>
</mgrwt>
</event>
<event>
 6    1  0.1105159E-002  0.5280854E+03  0.7818608E-02  0.1006698E+00
          1   -1    0    0  502    0  0.00000000000E+00  0.00000000000E+00  0.69719979643E+02  0.69719979643E+02  0.00000000000E+00 0.  1.
         13   -1    0    0    0    0 -0.00000000000E+00 -0.00000000000E+00 -0.10000000000E+04  0.10000000000E+04  0.00000000000E+00 0.  1.
    9000005    2    1    2  501    0  0.69811456097E-03  0.13487896524E-03 -0.93028135769E+03  0.10697184650E+04  0.52808540027E+03 0.  0.
         13    1    3    3    0    0 -0.11880661319E+02  0.25631808088E+03 -0.59129309584E+03  0.64456778844E+03  0.00000000000E+00 0.  1.
          1    1    3    3  501    0  0.11881359433E+02 -0.25631794600E+03 -0.33898826185E+03  0.42515067660E+03  0.00000000000E+00 0.  1.
         21    1    1    2  502  501 -0.69811456097E-03 -0.13487896524E-03  0.13373343306E-02  0.15146020558E-02  0.00000000000E+00 0. -1.
<mgrwt>
<rscale>  1 0.52808540E+03</rscale>
<asrwt>0</asrwt>
<pdfrwt beam="1">  1        1 0.25352773E+00 0.52808540E+03</pdfrwt>
<pdfrwt beam="2">0</pdfrwt>
<totfact> 0.59334991E+00</totfact>
</mgrwt>
</event>
<event>
 6    1  0.1105159E-002  0.6554184E+03  0.7818608E-02  0.9796665E-01
          1   -1    0    0  502    0  0.00000000000E+00  0.00000000000E+00  0.10739451556E+03  0.10739451556E+03  0.00000000000E+00 0.  1.
         13   -1    0    0    0    0 -0.00000000000E+00 -0.00000000000E+00 -0.10000000000E+04  0.10000000000E+04  0.00000000000E+00 0.  1.
    9000005    2    1    2  501    0  0.15114389496E-02  0.12351687988E-02 -0.89260575174E+03  0.11073925454E+04  0.65541835613E+03 0.  0.
         13    1    3    3    0    0  0.20004926260E+03 -0.37146058804E+00 -0.77441337382E+01  0.20019944320E+03  0.00000000000E+00 0.  1.
          1    1    3    3  501    0 -0.20004775116E+03  0.37269575684E+00 -0.88486161801E+03  0.90719310219E+03  0.00000000000E+00 0.  1.
         21    1    1    2  502  501 -0.15114389496E-02 -0.12351687988E-02  0.26730254732E-03  0.19701625089E-02  0.00000000000E+00 0. -1.
<mgrwt>
<rscale>  1 0.65541836E+03</rscale>
<asrwt>0</asrwt>
<pdfrwt beam="1">  1        1 0.39052633E+00 0.65541836E+03</pdfrwt>
<pdfrwt beam="2">0</pdfrwt>
<totfact> 0.14726429E+00</totfact>
</mgrwt>
</event>
<event>
 6    1  0.1105159E-002  0.6254565E+03  0.7818608E-02  0.9853956E-01
          1   -1    0    0  502    0  0.00000000000E+00  0.00000000000E+00  0.97821979227E+02  0.97821979227E+02  0.00000000000E+00 0.  1.
         13   -1    0    0    0    0 -0.00000000000E+00 -0.00000000000E+00 -0.10000000000E+04  0.10000000000E+04  0.00000000000E+00 0.  1.
    9000005    2    1    2  501    0 -0.74543807171E-02 -0.72772554455E-02 -0.90219975775E+03  0.10977978748E+04  0.62545645009E+03 0.  0.
         13    1    3    3    0    0  0.92245882899E+02 -0.46565531489E+02 -0.96916686506E+03  0.97465997351E+03  0.00000000000E+00 0.  1.
          3    1    3    3  501    0 -0.92253337280E+02  0.46558254233E+02  0.66967107309E+02  0.12313790131E+03  0.00000000000E+00 0.  1.
         21    1    1    2  502  501  0.74543807171E-02  0.72772554455E-02  0.21736980135E-01  0.24104409225E-01  0.00000000000E+00 0. -1.
<mgrwt>
<rscale>  1 0.62545645E+03</rscale>
<asrwt>0</asrwt>
<pdfrwt beam="1">  1        1 0.35571704E+00 0.62545645E+03</pdfrwt>
<pdfrwt beam="2">0</pdfrwt>
<totfact> 0.21066923E+00</totfact>
</mgrwt>
</event>
<event>
 6    1  0.1105159E-002  0.6579877E+03  0.7818608E-02  0.9791905E-01
          1   -1    0    0  502    0  0.00000000000E+00  0.00000000000E+00  0.10823703548E+03  0.10823703548E+03  0.00000000000E+00 0.  1.
         13   -1    0    0    0    0 -0.00000000000E+00 -0.00000000000E+00 -0.10000000000E+04  0.10000000000E+04  0.00000000000E+00 0.  1.
    9000005    2    1    2  501    0  0.14148440980E-03  0.10046973472E-03 -0.89176290022E+03  0.11082368504E+04  0.65798772512E+03 0.  0.
         13    1    3    3    0    0  0.81177064367E+02 -0.29267322457E+03 -0.65885892618E+03  0.72549460148E+03  0.00000000000E+00 0.  1.
          1    1    3    3  501    0 -0.81176922882E+02  0.29267332504E+03 -0.23290397404E+03  0.38274224894E+03  0.00000000000E+00 0.  1.
         21    1    1    2  502  501 -0.14148440980E-03 -0.10046973472E-03 -0.64302334728E-04  0.18505889890E-03  0.00000000000E+00 0. -1.
<mgrwt>
<rscale>  1 0.65798773E+03</rscale>
<asrwt>0</asrwt>
<pdfrwt beam="1">  1        1 0.39359005E+00 0.65798773E+03</pdfrwt>
<pdfrwt beam="2">0</pdfrwt>
<totfact> 0.14265541E+00</totfact>
</mgrwt>
</event>
<event>
 6    1  0.1105159E-002  0.6526805E+03  0.7818608E-02  0.9801762E-01
          1   -1    0    0  502    0  0.00000000000E+00  0.00000000000E+00  0.10774377297E+03  0.10774377297E+03  0.00000000000E+00 0.  1.
         13   -1    0    0    0    0 -0.00000000000E+00 -0.00000000000E+00 -0.10000000000E+04  0.10000000000E+04  0.00000000000E+00 0.  1.
    9000005    2    1    2  501    0 -0.71786158021E+00  0.14796171074E+01 -0.89287067206E+03  0.11059881720E+04  0.65267840090E+03 0.  0.
         13    1    3    3    0    0 -0.16897629911E+03  0.13354732439E+03 -0.86365217862E+03  0.89010278235E+03  0.00000000000E+00 0.  1.
          3    1    3    3  501    0  0.16825843753E+03 -0.13206770729E+03 -0.29218493442E+02  0.21588538966E+03  0.00000000000E+00 0.  1.
         21    1    1    2  502  501  0.71786158021E+00 -0.14796171074E+01  0.61444502958E+00  0.17556009590E+01  0.00000000000E+00 0.  1.
<mgrwt>
<rscale>  1 0.65268047E+03</rscale>
<asrwt>0</asrwt>
<pdfrwt beam="1">  1        1 0.39179636E+00 0.65268047E+03</pdfrwt>
<pdfrwt beam="2">0</pdfrwt>
<totfact> 0.14543978E+00</totfact>
</mgrwt>
</event>
<event>
 6    1  0.1105159E-002  0.5758324E+03  0.7818608E-02  0.9956855E-01
          1   -1    0    0  502    0  0.00000000000E+00  0.00000000000E+00  0.82962469534E+02  0.82962469534E+02  0.00000000000E+00 0.  1.
         13   -1    0    0    0    0 -0.00000000000E+00 -0.00000000000E+00 -0.10000000000E+04  0.10000000000E+04  0.00000000000E+00 0.  1.
    9000005    2    1    2  501    0 -0.91704393033E-02  0.72505071933E-02 -0.91710371553E+03  0.10828952599E+04  0.57583237041E+03 0.  0.
         13    1    3    3    0    0 -0.24371113119E+03  0.90037829757E+02 -0.22521184767E+03  0.34383470241E+03  0.00000000000E+00 0.  1.
          1    1    3    3  501    0  0.24370196075E+03 -0.90030579250E+02 -0.69189186787E+03  0.73906055753E+03  0.00000000000E+00 0.  1.
         21    1    1    2  502  501  0.91704393033E-02 -0.72505071933E-02  0.66185066436E-01  0.67209596269E-01  0.00000000000E+00 0.  1.
<mgrwt>
<rscale>  1 0.57583237E+03</rscale>
<asrwt>0</asrwt>
<pdfrwt beam="1">  1        1 0.30168234E+00 0.57583237E+03</pdfrwt>
<pdfrwt beam="2">0</pdfrwt>
<totfact> 0.36442569E+00</totfact>
</mgrwt>
</event>
<event>
 6    1  0.1105159E-002  0.5548967E+03  0.7818608E-02  0.1000367E+00
          1   -1    0    0  502    0  0.00000000000E+00  0.00000000000E+00  0.80901099285E+02  0.80901099285E+02  0.00000000000E+00 0.  1.
         13   -1    0    0    0    0 -0.00000000000E+00 -0.00000000000E+00 -0.10000000000E+04  0.10000000000E+04  0.00000000000E+00 0.  1.
    9000005    2    1    2  501    0 -0.24908583722E+01 -0.34083918016E+01 -0.92177075999E+03  0.10759050667E+04  0.55488066912E+03 0.  0.
         13    1    3    3    0    0 -0.25089387196E+03  0.46694759116E+02 -0.24715423237E+03  0.35526518277E+03  0.00000000000E+00 0.  1.
          3    1    3    3  501    0  0.24840301359E+03 -0.50103150918E+02 -0.67461652762E+03  0.72063988388E+03  0.00000000000E+00 0.  1.
         21    1    1    2  502  501  0.24908583722E+01  0.34083918016E+01  0.26718592743E+01  0.49960326345E+01  0.00000000000E+00 0.  1.
<mgrwt>
<rscale>  1 0.55489673E+03</rscale>
<asrwt>0</asrwt>
<pdfrwt beam="1">  1        1 0.29418644E+00 0.55489673E+03</pdfrwt>
<pdfrwt beam="2">0</pdfrwt>
<totfact> 0.39404666E+00</totfact>
</mgrwt>
</event>
<event>
 6    1  0.1105159E-002  0.6587711E+03  0.7818608E-02  0.9790459E-01
          1   -1    0    0  502    0  0.00000000000E+00  0.00000000000E+00  0.10849694590E+03  0.10849694590E+03  0.00000000000E+00 0.  1.
         13   -1    0    0    0    0 -0.00000000000E+00 -0.00000000000E+00 -0.10000000000E+04  0.10000000000E+04  0.00000000000E+00 0.  1.
    9000005    2    1    2  501    0 -0.52474137436E-03 -0.19264306653E-03 -0.89150510908E+03  0.11084948162E+04  0.65877112728E+03 0.  0.
         13    1    3    3    0    0  0.16973437836E+03  0.96189111035E+02 -0.89231877773E+03  0.91339745202E+03  0.00000000000E+00 0.  1.
          1    1    3    3  501    0 -0.16973490310E+03 -0.96189303679E+02  0.81366864463E+00  0.19509736423E+03  0.00000000000E+00 0.  1.
         21    1    1    2  502  501  0.52474137437E-03  0.19264306652E-03  0.20549768649E-02  0.21296466318E-02  0.00000000000E+00 0.  1.
<mgrwt>
<rscale>  1 0.65877113E+03</rscale>
<asrwt>0</asrwt>
<pdfrwt beam="1">  1        1 0.39453518E+00 0.65877113E+03</pdfrwt>
<pdfrwt beam="2">0</pdfrwt>
<totfact> 0.14126165E+00</totfact>
</mgrwt>
</event>
<event>
 6    1  0.1105159E-002  0.6493956E+03  0.7818608E-02  0.9807914E-01
          1   -1    0    0  502    0  0.00000000000E+00  0.00000000000E+00  0.10775636532E+03  0.10775636532E+03  0.00000000000E+00 0.  1.
         13   -1    0    0    0    0 -0.00000000000E+00 -0.00000000000E+00 -0.10000000000E+04  0.10000000000E+04  0.00000000000E+00 0.  1.
    9000005    2    1    2  501    0 -0.31446022474E-01  0.28069241440E-02 -0.89457122855E+03  0.11054285574E+04  0.64939557395E+03 0.  0.
         13    1    3    3    0    0 -0.10839995014E+02 -0.22460967271E+03 -0.48577310936E+02  0.23005817896E+03  0.00000000000E+00 0.  1.
          1    1    3    3  501    0  0.10808548991E+02  0.22461247963E+03 -0.84599391761E+03  0.87537037840E+03  0.00000000000E+00 0.  1.
         21    1    1    2  502  501  0.31446022474E-01 -0.28069241440E-02  0.23275938681E+01  0.23278079702E+01  0.00000000000E+00 0. -1.
<mgrwt>
<rscale>  1 0.64939557E+03</rscale>
<asrwt>0</asrwt>
<pdfrwt beam="1">  1        1 0.39184215E+00 0.64939557E+03</pdfrwt>
<pdfrwt beam="2">0</pdfrwt>
<totfact> 0.14546107E+00</totfact>
</mgrwt>
</event>
<event>
 6    1  0.1105159E-002  0.6478410E+03  0.7818608E-02  0.9810839E-01
          1   -1    0    0  502    0  0.00000000000E+00  0.00000000000E+00  0.10492450666E+03  0.10492450666E+03  0.00000000000E+00 0.  1.
         13   -1    0    0    0    0 -0.00000000000E+00 -0.00000000000E+00 -0.10000000000E+04  0.10000000000E+04  0.00000000000E+00 0.  1.
    9000005    2    1    2  501    0 -0.12795139043E-04 -0.54022881955E-05 -0.89507552068E+03  0.11049244760E+04  0.64784096038E+03 0.  0.
         13    1    3    3    0    0  0.11675446395E+03  0.28918151334E+03 -0.59687726002E+03  0.67343894753E+03  0.00000000000E+00 0.  1.
          3    1    3    3  501    0 -0.11675447674E+03 -0.28918151875E+03 -0.29819826065E+03  0.43148552847E+03  0.00000000000E+00 0.  1.
         21    1    1    2  502  501  0.12795139040E-04  0.54022881773E-05  0.27334331409E-04  0.30660495335E-04  0.00000000000E+00 0. -1.
<mgrwt>
<rscale>  1 0.64784096E+03</rscale>
<asrwt>0</asrwt>
<pdfrwt beam="1">  1        1 0.38154447E+00 0.64784096E+03</pdfrwt>
<pdfrwt beam="2">0</pdfrwt>
<totfact> 0.16160560E+00</totfact>
</mgrwt>
</event>
<event>
 6    1  0.1105159E-002  0.6588460E+03  0.7818608E-02  0.9790320E-01
          1   -1    0    0  502    0  0.00000000000E+00  0.00000000000E+00  0.10875203267E+03  0.10875203267E+03  0.00000000000E+00 0.  1.
         13   -1    0    0    0    0 -0.00000000000E+00 -0.00000000000E+00 -0.10000000000E+04  0.10000000000E+04  0.00000000000E+00 0.  1.
    9000005    2    1    2  501    0 -0.54842999616E-02 -0.25440772288E-01 -0.89147967979E+03  0.11085188633E+04  0.65884599874E+03 0.  0.
         13    1    3    3    0    0  0.21139197411E+03  0.25176117667E+03 -0.48108482233E+03  0.58267732328E+03  0.00000000000E+00 0.  1.
          3    1    3    3  501    0 -0.21139745841E+03 -0.25178661744E+03 -0.41039485746E+03  0.52584153998E+03  0.00000000000E+00 0.  1.
         21    1    1    2  502  501  0.54842999616E-02  0.25440772288E-01  0.23171245464E+00  0.23316940639E+00  0.00000000000E+00 0.  1.
<mgrwt>
<rscale>  1 0.65884600E+03</rscale>
<asrwt>0</asrwt>
<pdfrwt beam="1">  1        1 0.39546277E+00 0.65884600E+03</pdfrwt>
<pdfrwt beam="2">0</pdfrwt>
<totfact> 0.13992439E+00</totfact>
</mgrwt>
</event>
<event>
 6    1  0.1105159E-002  0.6499595E+03  0.7818608E-02  0.9806855E-01
          1   -1    0    0  502    0  0.00000000000E+00  0.00000000000E+00  0.10561225336E+03  0.10561225336E+03  0.00000000000E+00 0.  1.
         13   -1    0    0    0    0 -0.00000000000E+00 -0.00000000000E+00 -0.10000000000E+04  0.10000000000E+04  0.00000000000E+00 0.  1.
    9000005    2    1    2  501    0 -0.27871012122E-04  0.76544389174E-04 -0.89438816408E+03  0.11056118280E+04  0.64995948049E+03 0.  0.
         13    1    3    3    0    0  0.10081960335E+03 -0.29095768751E+03 -0.27049100462E+03  0.40986138135E+03  0.00000000000E+00 0.  1.
          3    1    3    3  501    0 -0.10081963122E+03  0.29095776406E+03 -0.62389715946E+03  0.69575044670E+03  0.00000000000E+00 0.  1.
         21    1    1    2  502  501  0.27871012122E-04 -0.76544389196E-04  0.41743497185E-03  0.42530905535E-03  0.00000000000E+00 0. -1.
<mgrwt>
<rscale>  1 0.64995948E+03</rscale>
<asrwt>0</asrwt>
<pdfrwt beam="1">  1        1 0.38404537E+00 0.64995948E+03</pdfrwt>
<pdfrwt beam="2">0</pdfrwt>
<totfact> 0.15748421E+00</totfact>
</mgrwt>
</event>
<event>
 6    1  0.1105159E-002  0.6575297E+03  0.7818608E-02  0.9792752E-01
          1   -1    0    0  502    0  0.00000000000E+00  0.00000000000E+00  0.10808666018E+03  0.10808666018E+03  0.00000000000E+00 0.  1.
         13   -1    0    0    0    0 -0.00000000000E+00 -0.00000000000E+00 -0.10000000000E+04  0.10000000000E+04  0.00000000000E+00 0.  1.
    9000005    2    1    2  501    0 -0.55048399943E-04  0.19332972101E-04 -0.89191366245E+03  0.11080863323E+04  0.65752972449E+03 0.  0.
         13    1    3    3    0    0  0.82998809698E+02 -0.16793916708E+03  0.93474011207E+01  0.18756262996E+03  0.00000000000E+00 0.  1.
          3    1    3    3  501    0 -0.82998864746E+02  0.16793918641E+03 -0.90126106357E+03  0.92052370235E+03  0.00000000000E+00 0.  1.
         21    1    1    2  502  501  0.55048399939E-04 -0.19332972115E-04  0.32262949367E-03  0.32786259368E-03  0.00000000000E+00 0.  1.
<mgrwt>
<rscale>  1 0.65752972E+03</rscale>
<asrwt>0</asrwt>
<pdfrwt beam="1">  1        1 0.39304323E+00 0.65752972E+03</pdfrwt>
<pdfrwt beam="2">0</pdfrwt>
<totfact> 0.14346785E+00</totfact>
</mgrwt>
</event>
<event>
 6    1  0.1105159E-002  0.6122580E+03  0.7818608E-02  0.9880296E-01
          1   -1    0    0  502    0  0.00000000000E+00  0.00000000000E+00  0.10226892998E+03  0.10226892998E+03  0.00000000000E+00 0.  1.
         13   -1    0    0    0    0 -0.00000000000E+00 -0.00000000000E+00 -0.10000000000E+04  0.10000000000E+04  0.00000000000E+00 0.  1.
    9000005    2    1    2  501    0 -0.43927861584E+00  0.38247547919E+00 -0.90627419302E+03  0.10937059747E+04  0.61225771275E+03 0.  0.
         13    1    3    3    0    0 -0.21340314186E+03  0.12092888080E+03 -0.78135713420E+03  0.81895278639E+03  0.00000000000E+00 0.  1.
          3    1    3    3  501    0  0.21296386324E+03 -0.12054640532E+03 -0.12491705882E+03  0.27475318827E+03  0.00000000000E+00 0.  1.
         21    1    1    2  502  501  0.43927861584E+00 -0.38247547919E+00  0.85431229958E+01  0.85629553144E+01  0.00000000000E+00 0.  1.
<mgrwt>
<rscale>  1 0.61225799E+03</rscale>
<asrwt>0</asrwt>
<pdfrwt beam="1">  1        1 0.37188780E+00 0.61225799E+03</pdfrwt>
<pdfrwt beam="2">0</pdfrwt>
<totfact> 0.17941632E+00</totfact>
</mgrwt>
</event>
<event>
 6    1  0.1105159E-002  0.6300801E+03  0.7818608E-02  0.9844893E-01
          1   -1    0    0  502    0  0.00000000000E+00  0.00000000000E+00  0.99260428285E+02  0.99260428285E+02  0.00000000000E+00 0.  1.
         13   -1    0    0    0    0 -0.00000000000E+00 -0.00000000000E+00 -0.10000000000E+04  0.10000000000E+04  0.00000000000E+00 0.  1.
    9000005    2    1    2  501    0  0.17988182450E-02  0.11990375848E-01 -0.90074567095E+03  0.10992468561E+04  0.63008006369E+03 0.  0.
         13    1    3    3    0    0  0.17628661009E+03  0.23901924149E+03 -0.63374094020E+03  0.69988195147E+03  0.00000000000E+00 0.  1.
          1    1    3    3  501    0 -0.17628481128E+03 -0.23900725112E+03 -0.26700473075E+03  0.39936490459E+03  0.00000000000E+00 0.  1.
         21    1    1    2  502  501 -0.17988182450E-02 -0.11990375848E-01  0.60992323522E-02  0.13572232511E-01  0.00000000000E+00 0.  1.
<mgrwt>
<rscale>  1 0.63008006E+03</rscale>
<asrwt>0</asrwt>
<pdfrwt beam="1">  1        1 0.36094777E+00 0.63008006E+03</pdfrwt>
<pdfrwt beam="2">0</pdfrwt>
<totfact> 0.19969978E+00</totfact>
</mgrwt>
</event>
