<event>
 5    1  0.2311484E-004  0.6110103E+03  0.7818608E-02  0.9882823E-01
         13   -1    0    0    0    0  0.00000000000E+00  0.00000000000E+00  0.10000000000E+04  0.10000000000E+04  0.00000000000E+00 0. -1.
          2   -1    0    0  501    0 -0.00000000000E+00 -0.00000000000E+00 -0.93333397145E+02  0.93333397145E+02  0.00000000000E+00 0. -1.
    9000006    2    1    2  501    0  0.00000000000E+00  0.00000000000E+00  0.90666660285E+03  0.10933333971E+04  0.61101030153E+03 0.  0.
         13    1    3    3    0    0  0.63082224002E+02 -0.24064522097E+03  0.13603164530E+03  0.28353852981E+03  0.00000000000E+00 0. -1.
          2    1    3    3  501    0 -0.63082224002E+02  0.24064522097E+03  0.77063495755E+03  0.80979486734E+03  0.00000000000E+00 0. -1.
<mgrwt>
<rscale>  0 0.61101030E+03</rscale>
<asrwt>0</asrwt>
<pdfrwt beam="1">0</pdfrwt>
<pdfrwt beam="2">  1        2 0.33939489E+00 0.61101030E+03</pdfrwt>
<totfact> 0.66622974E+00</totfact>
</mgrwt>
</event>
<event>
 5    1  0.2311484E-004  0.6273706E+03  0.7818608E-02  0.9850193E-01
         13   -1    0    0    0    0  0.00000000000E+00  0.00000000000E+00  0.10000000000E+04  0.10000000000E+04  0.00000000000E+00 0. -1.
          2   -1    0    0  501    0 -0.00000000000E+00 -0.00000000000E+00 -0.98398480616E+02  0.98398480616E+02  0.00000000000E+00 0. -1.
    9000006    2    1    2  501    0  0.00000000000E+00  0.00000000000E+00  0.90160151938E+03  0.10983984806E+04  0.62737064202E+03 0.  0.
         13    1    3    3    0    0  0.19836007603E+02  0.15982971019E+02  0.99818606293E+03  0.99851106093E+03  0.00000000000E+00 0. -1.
          2    1    3    3  501    0 -0.19836007603E+02 -0.15982971019E+02 -0.96584543547E+02  0.99887419691E+02  0.00000000000E+00 0. -1.
<mgrwt>
<rscale>  0 0.62737064E+03</rscale>
<asrwt>0</asrwt>
<pdfrwt beam="1">0</pdfrwt>
<pdfrwt beam="2">  1        2 0.35781341E+00 0.62737064E+03</pdfrwt>
<totfact> 0.57088311E+00</totfact>
</mgrwt>
</event>
<event>
 5    1  0.2311484E-004  0.6039255E+03  0.7818608E-02  0.9897295E-01
         13   -1    0    0    0    0  0.00000000000E+00  0.00000000000E+00  0.10000000000E+04  0.10000000000E+04  0.00000000000E+00 0. -1.
          2   -1    0    0  501    0 -0.00000000000E+00 -0.00000000000E+00 -0.91181497722E+02  0.91181497722E+02  0.00000000000E+00 0. -1.
    9000006    2    1    2  501    0  0.00000000000E+00  0.00000000000E+00  0.90881850228E+03  0.10911814977E+04  0.60392548455E+03 0.  0.
         13    1    3    3    0    0  0.24645121179E+03 -0.38309518152E+02  0.14684883067E+03  0.28943116288E+03  0.00000000000E+00 0. -1.
          4    1    3    3  501    0 -0.24645121179E+03  0.38309518152E+02  0.76196967161E+03  0.80175033485E+03  0.00000000000E+00 0. -1.
<mgrwt>
<rscale>  0 0.60392548E+03</rscale>
<asrwt>0</asrwt>
<pdfrwt beam="1">0</pdfrwt>
<pdfrwt beam="2">  1        2 0.33156978E+00 0.60392548E+03</pdfrwt>
<totfact> 0.71109618E+00</totfact>
</mgrwt>
</event>
<event>
 5    1  0.2311484E-004  0.6439529E+03  0.7818608E-02  0.9818193E-01
         13   -1    0    0    0    0  0.00000000000E+00  0.00000000000E+00  0.10000000000E+04  0.10000000000E+04  0.00000000000E+00 0. -1.
          2   -1    0    0  501    0 -0.00000000000E+00 -0.00000000000E+00 -0.10366884384E+03  0.10366884384E+03  0.00000000000E+00 0. -1.
    9000006    2    1    2  501    0  0.00000000000E+00  0.00000000000E+00  0.89633115616E+03  0.11036688438E+04  0.64395292946E+03 0.  0.
         13    1    3    3    0    0 -0.20315293218E+03  0.50906606948E+02  0.86730444585E+03  0.89223292826E+03  0.00000000000E+00 0. -1.
          4    1    3    3  501    0  0.20315293218E+03 -0.50906606948E+02  0.29026710315E+02  0.21143591558E+03  0.00000000000E+00 0. -1.
<mgrwt>
<rscale>  0 0.64395293E+03</rscale>
<asrwt>0</asrwt>
<pdfrwt beam="1">0</pdfrwt>
<pdfrwt beam="2">  1        2 0.37697841E+00 0.64395293E+03</pdfrwt>
<totfact> 0.48520745E+00</totfact>
</mgrwt>
</event>
<event>
 5    1  0.2311484E-004  0.6528272E+03  0.7818608E-02  0.9801489E-01
         13   -1    0    0    0    0  0.00000000000E+00  0.00000000000E+00  0.10000000000E+04  0.10000000000E+04  0.00000000000E+00 0. -1.
          2   -1    0    0  501    0 -0.00000000000E+00 -0.00000000000E+00 -0.10654583144E+03  0.10654583144E+03  0.00000000000E+00 0. -1.
    9000006    2    1    2  501    0  0.00000000000E+00  0.00000000000E+00  0.89345416856E+03  0.11065458314E+04  0.65282717909E+03 0.  0.
         13    1    3    3    0    0  0.38370116625E+02 -0.14129759368E+03  0.94121739864E+03  0.95253738369E+03  0.00000000000E+00 0. -1.
          4    1    3    3  501    0 -0.38370116625E+02  0.14129759368E+03 -0.47763230079E+02  0.15400844775E+03  0.00000000000E+00 0. -1.
<mgrwt>
<rscale>  0 0.65282718E+03</rscale>
<asrwt>0</asrwt>
<pdfrwt beam="1">0</pdfrwt>
<pdfrwt beam="2">  1        2 0.38744020E+00 0.65282718E+03</pdfrwt>
<totfact> 0.44356771E+00</totfact>
</mgrwt>
</event>
<event>
 5    1  0.2311484E-004  0.6646455E+03  0.7818608E-02  0.9779680E-01
         13   -1    0    0    0    0  0.00000000000E+00  0.00000000000E+00  0.10000000000E+04  0.10000000000E+04  0.00000000000E+00 0. -1.
          2   -1    0    0  501    0 -0.00000000000E+00 -0.00000000000E+00 -0.11043840373E+03  0.11043840373E+03  0.00000000000E+00 0. -1.
    9000006    2    1    2  501    0  0.00000000000E+00  0.00000000000E+00  0.88956159627E+03  0.11104384037E+04  0.66464548063E+03 0.  0.
         13    1    3    3    0    0 -0.67968014387E+02 -0.17287164291E+03 -0.15606124387E+02  0.18640763670E+03  0.00000000000E+00 0. -1.
          2    1    3    3  501    0  0.67968014387E+02  0.17287164291E+03  0.90516772066E+03  0.92403076703E+03  0.00000000000E+00 0. -1.
<mgrwt>
<rscale>  0 0.66464548E+03</rscale>
<asrwt>0</asrwt>
<pdfrwt beam="1">0</pdfrwt>
<pdfrwt beam="2">  1        2 0.40159504E+00 0.66464548E+03</pdfrwt>
<totfact> 0.39237622E+00</totfact>
</mgrwt>
</event>
<event>
 5    1  0.2311484E-004  0.6843046E+03  0.7818608E-02  0.9744456E-01
         13   -1    0    0    0    0  0.00000000000E+00  0.00000000000E+00  0.10000000000E+04  0.10000000000E+04  0.00000000000E+00 0. -1.
          2   -1    0    0  501    0 -0.00000000000E+00 -0.00000000000E+00 -0.11706820837E+03  0.11706820837E+03  0.00000000000E+00 0. -1.
    9000006    2    1    2  501    0  0.00000000000E+00  0.00000000000E+00  0.88293179163E+03  0.11170682084E+04  0.68430463501E+03 0.  0.
         13    1    3    3    0    0 -0.23611607225E+03 -0.19232949864E+03  0.69607413857E+03  0.75977670536E+03  0.00000000000E+00 0. -1.
          4    1    3    3  501    0  0.23611607225E+03  0.19232949864E+03  0.18685765305E+03  0.35729150301E+03  0.00000000000E+00 0. -1.
<mgrwt>
<rscale>  0 0.68430464E+03</rscale>
<asrwt>0</asrwt>
<pdfrwt beam="1">0</pdfrwt>
<pdfrwt beam="2">  1        2 0.42570347E+00 0.68430464E+03</pdfrwt>
<totfact> 0.31724736E+00</totfact>
</mgrwt>
</event>
<event>
 5    1  0.2311484E-004  0.7883367E+03  0.7818608E-02  0.9577054E-01
         13   -1    0    0    0    0  0.00000000000E+00  0.00000000000E+00  0.10000000000E+04  0.10000000000E+04  0.00000000000E+00 0. -1.
          2   -1    0    0  501    0 -0.00000000000E+00 -0.00000000000E+00 -0.15536868731E+03  0.15536868731E+03  0.00000000000E+00 0. -1.
    9000006    2    1    2  501    0  0.00000000000E+00  0.00000000000E+00  0.84463131269E+03  0.11553686873E+04  0.78833669790E+03 0.  0.
         13    1    3    3    0    0 -0.93895047507E+02  0.11339754764E+03  0.95819107905E+03  0.96943562330E+03  0.00000000000E+00 0. -1.
          2    1    3    3  501    0  0.93895047507E+02 -0.11339754764E+03 -0.11355976636E+03  0.18593306401E+03  0.00000000000E+00 0. -1.
<mgrwt>
<rscale>  0 0.78833670E+03</rscale>
<asrwt>0</asrwt>
<pdfrwt beam="1">0</pdfrwt>
<pdfrwt beam="2">  1        2 0.56497824E+00 0.78833670E+03</pdfrwt>
<totfact> 0.81466025E-01</totfact>
</mgrwt>
</event>
<event>
 5    1  0.2311484E-004  0.6405342E+03  0.7818608E-02  0.9824705E-01
         13   -1    0    0    0    0  0.00000000000E+00  0.00000000000E+00  0.10000000000E+04  0.10000000000E+04  0.00000000000E+00 0. -1.
          2   -1    0    0  501    0 -0.00000000000E+00 -0.00000000000E+00 -0.10257101900E+03  0.10257101900E+03  0.00000000000E+00 0. -1.
    9000006    2    1    2  501    0  0.00000000000E+00  0.00000000000E+00  0.89742898100E+03  0.11025710190E+04  0.64053421143E+03 0.  0.
         13    1    3    3    0    0 -0.14032472123E+03 -0.22827695695E+03  0.75065774134E+03  0.79704983602E+03  0.00000000000E+00 0. -1.
          2    1    3    3  501    0  0.14032472123E+03  0.22827695695E+03  0.14677123965E+03  0.30552118298E+03  0.00000000000E+00 0. -1.
<mgrwt>
<rscale>  0 0.64053421E+03</rscale>
<asrwt>0</asrwt>
<pdfrwt beam="1">0</pdfrwt>
<pdfrwt beam="2">  1        2 0.37298631E+00 0.64053421E+03</pdfrwt>
<totfact> 0.50201408E+00</totfact>
</mgrwt>
</event>
<event>
 5    1  0.2311484E-004  0.6086695E+03  0.7818608E-02  0.9887581E-01
         13   -1    0    0    0    0  0.00000000000E+00  0.00000000000E+00  0.10000000000E+04  0.10000000000E+04  0.00000000000E+00 0. -1.
          2   -1    0    0  501    0 -0.00000000000E+00 -0.00000000000E+00 -0.92619631562E+02  0.92619631562E+02  0.00000000000E+00 0. -1.
    9000006    2    1    2  501    0  0.00000000000E+00  0.00000000000E+00  0.90738036844E+03  0.10926196316E+04  0.60866947208E+03 0.  0.
         13    1    3    3    0    0 -0.23934849367E+03 -0.92661234440E+02  0.74726276100E+03  0.79011103003E+03  0.00000000000E+00 0. -1.
          2    1    3    3  501    0  0.23934849367E+03  0.92661234440E+02  0.16011760744E+03  0.30250860153E+03  0.00000000000E+00 0. -1.
<mgrwt>
<rscale>  0 0.60866947E+03</rscale>
<asrwt>0</asrwt>
<pdfrwt beam="1">0</pdfrwt>
<pdfrwt beam="2">  1        2 0.33679937E+00 0.60866947E+03</pdfrwt>
<totfact> 0.68080667E+00</totfact>
</mgrwt>
</event>
<event>
 5    1  0.2311484E-004  0.6432945E+03  0.7818608E-02  0.9819444E-01
         13   -1    0    0    0    0  0.00000000000E+00  0.00000000000E+00  0.10000000000E+04  0.10000000000E+04  0.00000000000E+00 0. -1.
          2   -1    0    0  501    0 -0.00000000000E+00 -0.00000000000E+00 -0.10345694674E+03  0.10345694674E+03  0.00000000000E+00 0. -1.
    9000006    2    1    2  501    0  0.00000000000E+00  0.00000000000E+00  0.89654305326E+03  0.11034569467E+04  0.64329447921E+03 0.  0.
         13    1    3    3    0    0  0.17747120151E+03  0.12709949868E+03  0.43053745531E+02  0.22249479754E+03  0.00000000000E+00 0. -1.
          2    1    3    3  501    0 -0.17747120151E+03 -0.12709949868E+03  0.85348930772E+03  0.88096214920E+03  0.00000000000E+00 0. -1.
<mgrwt>
<rscale>  0 0.64329448E+03</rscale>
<asrwt>0</asrwt>
<pdfrwt beam="1">0</pdfrwt>
<pdfrwt beam="2">  1        2 0.37620787E+00 0.64329448E+03</pdfrwt>
<totfact> 0.48841062E+00</totfact>
</mgrwt>
</event>
<event>
 5    1  0.2311484E-004  0.6556953E+03  0.7818608E-02  0.9796151E-01
         13   -1    0    0    0    0  0.00000000000E+00  0.00000000000E+00  0.10000000000E+04  0.10000000000E+04  0.00000000000E+00 0. -1.
          2   -1    0    0  501    0 -0.00000000000E+00 -0.00000000000E+00 -0.10748409044E+03  0.10748409044E+03  0.00000000000E+00 0. -1.
    9000006    2    1    2  501    0  0.00000000000E+00  0.00000000000E+00  0.89251590956E+03  0.11074840904E+04  0.65569532693E+03 0.  0.
         13    1    3    3    0    0  0.21734352130E+03 -0.24146028929E+03  0.37181032171E+03  0.49374506872E+03  0.00000000000E+00 0. -1.
          4    1    3    3  501    0 -0.21734352130E+03  0.24146028929E+03  0.52070558785E+03  0.61373902171E+03  0.00000000000E+00 0. -1.
<mgrwt>
<rscale>  0 0.65569533E+03</rscale>
<asrwt>0</asrwt>
<pdfrwt beam="1">0</pdfrwt>
<pdfrwt beam="2">  1        2 0.39085206E+00 0.65569533E+03</pdfrwt>
<totfact> 0.43070585E+00</totfact>
</mgrwt>
</event>
<event>
 5    1  0.2311484E-004  0.6247086E+03  0.7818608E-02  0.9855429E-01
         13   -1    0    0    0    0  0.00000000000E+00  0.00000000000E+00  0.10000000000E+04  0.10000000000E+04  0.00000000000E+00 0. -1.
          2   -1    0    0  501    0 -0.00000000000E+00 -0.00000000000E+00 -0.97565218121E+02  0.97565218121E+02  0.00000000000E+00 0. -1.
    9000006    2    1    2  501    0  0.00000000000E+00  0.00000000000E+00  0.90243478188E+03  0.10975652181E+04  0.62470863007E+03 0.  0.
         13    1    3    3    0    0  0.11187226092E+02  0.28511419389E+03  0.22794318016E+03  0.36520316396E+03  0.00000000000E+00 0. -1.
          2    1    3    3  501    0 -0.11187226092E+02 -0.28511419389E+03  0.67449160172E+03  0.73236205416E+03  0.00000000000E+00 0. -1.
<mgrwt>
<rscale>  0 0.62470863E+03</rscale>
<asrwt>0</asrwt>
<pdfrwt beam="1">0</pdfrwt>
<pdfrwt beam="2">  1        2 0.35478336E+00 0.62470863E+03</pdfrwt>
<totfact> 0.58564067E+00</totfact>
</mgrwt>
</event>
<event>
 5    1  0.2311484E-004  0.5104306E+03  0.7818608E-02  0.1011092E+00
         13   -1    0    0    0    0  0.00000000000E+00  0.00000000000E+00  0.10000000000E+04  0.10000000000E+04  0.00000000000E+00 0. -1.
          2   -1    0    0  501    0 -0.00000000000E+00 -0.00000000000E+00 -0.65134849496E+02  0.65134849496E+02  0.00000000000E+00 0. -1.
    9000006    2    1    2  501    0  0.00000000000E+00  0.00000000000E+00  0.93486515050E+03  0.10651348495E+04  0.51043060056E+03 0.  0.
         13    1    3    3    0    0  0.22092808529E+03 -0.63391491445E+02  0.23593490288E+03  0.32938272337E+03  0.00000000000E+00 0. -1.
          2    1    3    3  501    0 -0.22092808529E+03  0.63391491445E+02  0.69893024763E+03  0.73575212613E+03  0.00000000000E+00 0. -1.
<mgrwt>
<rscale>  0 0.51043060E+03</rscale>
<asrwt>0</asrwt>
<pdfrwt beam="1">0</pdfrwt>
<pdfrwt beam="2">  1        2 0.23685450E+00 0.51043060E+03</pdfrwt>
<totfact> 0.15547983E+01</totfact>
</mgrwt>
</event>
<event>
 5    1  0.2311484E-004  0.5899308E+03  0.7818608E-02  0.9926520E-01
         13   -1    0    0    0    0  0.00000000000E+00  0.00000000000E+00  0.10000000000E+04  0.10000000000E+04  0.00000000000E+00 0. -1.
          2   -1    0    0  501    0 -0.00000000000E+00 -0.00000000000E+00 -0.87004572646E+02  0.87004572646E+02  0.00000000000E+00 0. -1.
    9000006    2    1    2  501    0  0.00000000000E+00  0.00000000000E+00  0.91299542735E+03  0.10870045726E+04  0.58993075067E+03 0.  0.
         13    1    3    3    0    0  0.98902854506E+02 -0.13429078290E+03  0.82170111913E+01  0.16698295803E+03  0.00000000000E+00 0. -1.
          4    1    3    3  501    0 -0.98902854506E+02  0.13429078290E+03  0.90477841616E+03  0.92002161461E+03  0.00000000000E+00 0. -1.
<mgrwt>
<rscale>  0 0.58993075E+03</rscale>
<asrwt>0</asrwt>
<pdfrwt beam="1">0</pdfrwt>
<pdfrwt beam="2">  1        2 0.31638093E+00 0.58993075E+03</pdfrwt>
<totfact> 0.80652713E+00</totfact>
</mgrwt>
</event>
<event>
 5    1  0.2311484E-004  0.6479370E+03  0.7818608E-02  0.9810658E-01
         13   -1    0    0    0    0  0.00000000000E+00  0.00000000000E+00  0.10000000000E+04  0.10000000000E+04  0.00000000000E+00 0. -1.
          2   -1    0    0  501    0 -0.00000000000E+00 -0.00000000000E+00 -0.10495560310E+03  0.10495560310E+03  0.00000000000E+00 0. -1.
    9000006    2    1    2  501    0  0.00000000000E+00  0.00000000000E+00  0.89504439690E+03  0.11049556031E+04  0.64793704355E+03 0.  0.
         13    1    3    3    0    0  0.17867740842E+02 -0.29815253862E+03  0.66148281610E+03  0.72579178037E+03  0.00000000000E+00 0. -1.
          2    1    3    3  501    0 -0.17867740842E+02  0.29815253862E+03  0.23356158080E+03  0.37916382274E+03  0.00000000000E+00 0. -1.
<mgrwt>
<rscale>  0 0.64793704E+03</rscale>
<asrwt>0</asrwt>
<pdfrwt beam="1">0</pdfrwt>
<pdfrwt beam="2">  1        2 0.38165754E+00 0.64793704E+03</pdfrwt>
<totfact> 0.46616356E+00</totfact>
</mgrwt>
</event>
<event>
 5    1  0.2311484E-004  0.6164381E+03  0.7818608E-02  0.9871877E-01
         13   -1    0    0    0    0  0.00000000000E+00  0.00000000000E+00  0.10000000000E+04  0.10000000000E+04  0.00000000000E+00 0. -1.
          2   -1    0    0  501    0 -0.00000000000E+00 -0.00000000000E+00 -0.94998981202E+02  0.94998981202E+02  0.00000000000E+00 0. -1.
    9000006    2    1    2  501    0  0.00000000000E+00  0.00000000000E+00  0.90500101880E+03  0.10949989812E+04  0.61643809487E+03 0.  0.
         13    1    3    3    0    0 -0.96739469695E+02 -0.23287721117E+03  0.76731082496E+03  0.80768572018E+03  0.00000000000E+00 0. -1.
          2    1    3    3  501    0  0.96739469695E+02  0.23287721117E+03  0.13769019383E+03  0.28731326102E+03  0.00000000000E+00 0. -1.
<mgrwt>
<rscale>  0 0.61643809E+03</rscale>
<asrwt>0</asrwt>
<pdfrwt beam="1">0</pdfrwt>
<pdfrwt beam="2">  1        2 0.34545157E+00 0.61643809E+03</pdfrwt>
<totfact> 0.63334856E+00</totfact>
</mgrwt>
</event>
<event>
 5    1  0.2311484E-004  0.6164245E+03  0.7818608E-02  0.9871904E-01
         13   -1    0    0    0    0  0.00000000000E+00  0.00000000000E+00  0.10000000000E+04  0.10000000000E+04  0.00000000000E+00 0. -1.
          2   -1    0    0  501    0 -0.00000000000E+00 -0.00000000000E+00 -0.94994791411E+02  0.94994791411E+02  0.00000000000E+00 0. -1.
    9000006    2    1    2  501    0  0.00000000000E+00  0.00000000000E+00  0.90500520859E+03  0.10949947914E+04  0.61642450117E+03 0.  0.
         13    1    3    3    0    0 -0.45785734126E+02 -0.23251632620E+03  0.10244326511E+03  0.25817590508E+03  0.00000000000E+00 0. -1.
          2    1    3    3  501    0  0.45785734126E+02  0.23251632620E+03  0.80256194348E+03  0.83681888633E+03  0.00000000000E+00 0. -1.
<mgrwt>
<rscale>  0 0.61642450E+03</rscale>
<asrwt>0</asrwt>
<pdfrwt beam="1">0</pdfrwt>
<pdfrwt beam="2">  1        2 0.34543633E+00 0.61642450E+03</pdfrwt>
<totfact> 0.63342933E+00</totfact>
</mgrwt>
</event>
<event>
 5    1  0.2311484E-004  0.6418291E+03  0.7818608E-02  0.9822233E-01
         13   -1    0    0    0    0  0.00000000000E+00  0.00000000000E+00  0.10000000000E+04  0.10000000000E+04  0.00000000000E+00 0. -1.
          2   -1    0    0  501    0 -0.00000000000E+00 -0.00000000000E+00 -0.10298615994E+03  0.10298615994E+03  0.00000000000E+00 0. -1.
    9000006    2    1    2  501    0  0.00000000000E+00  0.00000000000E+00  0.89701384006E+03  0.11029861599E+04  0.64182913594E+03 0.  0.
         13    1    3    3    0    0 -0.92392398660E+02  0.30338573256E+03  0.36419677649E+03  0.48292706494E+03  0.00000000000E+00 0. -1.
          4    1    3    3  501    0  0.92392398660E+02 -0.30338573256E+03  0.53281706358E+03  0.62005909499E+03  0.00000000000E+00 0. -1.
<mgrwt>
<rscale>  0 0.64182914E+03</rscale>
<asrwt>0</asrwt>
<pdfrwt beam="1">0</pdfrwt>
<pdfrwt beam="2">  1        2 0.37449592E+00 0.64182914E+03</pdfrwt>
<totfact> 0.49559693E+00</totfact>
</mgrwt>
</event>
<event>
 5    1  0.2311484E-004  0.6464294E+03  0.7818608E-02  0.9813502E-01
         13   -1    0    0    0    0  0.00000000000E+00  0.00000000000E+00  0.10000000000E+04  0.10000000000E+04  0.00000000000E+00 0. -1.
          2   -1    0    0  501    0 -0.00000000000E+00 -0.00000000000E+00 -0.10446772937E+03  0.10446772937E+03  0.00000000000E+00 0. -1.
    9000006    2    1    2  501    0  0.00000000000E+00  0.00000000000E+00  0.89553227063E+03  0.11044677294E+04  0.64642936002E+03 0.  0.
         13    1    3    3    0    0 -0.25648432564E+03  0.21369320203E+02  0.11371239391E+03  0.28137406717E+03  0.00000000000E+00 0. -1.
          4    1    3    3  501    0  0.25648432564E+03 -0.21369320203E+02  0.78181987671E+03  0.82309366221E+03  0.00000000000E+00 0. -1.
<mgrwt>
<rscale>  0 0.64642936E+03</rscale>
<asrwt>0</asrwt>
<pdfrwt beam="1">0</pdfrwt>
<pdfrwt beam="2">  1        2 0.37988345E+00 0.64642936E+03</pdfrwt>
<totfact> 0.47330244E+00</totfact>
</mgrwt>
</event>
<event>
 5    1  0.2311484E-004  0.7119272E+03  0.7818608E-02  0.9697050E-01
         13   -1    0    0    0    0  0.00000000000E+00  0.00000000000E+00  0.10000000000E+04  0.10000000000E+04  0.00000000000E+00 0. -1.
          2   -1    0    0  501    0 -0.00000000000E+00 -0.00000000000E+00 -0.12671007658E+03  0.12671007658E+03  0.00000000000E+00 0. -1.
    9000006    2    1    2  501    0  0.00000000000E+00  0.00000000000E+00  0.87328992342E+03  0.11267100766E+04  0.71192717768E+03 0.  0.
         13    1    3    3    0    0  0.24813955095E+02  0.14716930906E+02 -0.12485677312E+03  0.12814653416E+03  0.00000000000E+00 0. -1.
          2    1    3    3  501    0 -0.24813955095E+02 -0.14716930906E+02  0.99814669654E+03  0.99856354242E+03  0.00000000000E+00 0. -1.
<mgrwt>
<rscale>  0 0.71192718E+03</rscale>
<asrwt>0</asrwt>
<pdfrwt beam="1">0</pdfrwt>
<pdfrwt beam="2">  1        2 0.46076489E+00 0.71192718E+03</pdfrwt>
<totfact> 0.23063749E+00</totfact>
</mgrwt>
</event>
<event>
 5    1  0.2311484E-004  0.6488342E+03  0.7818608E-02  0.9808969E-01
         13   -1    0    0    0    0  0.00000000000E+00  0.00000000000E+00  0.10000000000E+04  0.10000000000E+04  0.00000000000E+00 0. -1.
          2   -1    0    0  501    0 -0.00000000000E+00 -0.00000000000E+00 -0.10524645334E+03  0.10524645334E+03  0.00000000000E+00 0. -1.
    9000006    2    1    2  501    0  0.00000000000E+00  0.00000000000E+00  0.89475354666E+03  0.11052464533E+04  0.64883419558E+03 0.  0.
         13    1    3    3    0    0  0.21121444646E+03 -0.20287276042E+03  0.20964205590E+03  0.36016481077E+03  0.00000000000E+00 0. -1.
          4    1    3    3  501    0 -0.21121444646E+03  0.20287276042E+03  0.68511149076E+03  0.74508164257E+03  0.00000000000E+00 0. -1.
<mgrwt>
<rscale>  0 0.64883420E+03</rscale>
<asrwt>0</asrwt>
<pdfrwt beam="1">0</pdfrwt>
<pdfrwt beam="2">  1        2 0.38271518E+00 0.64883420E+03</pdfrwt>
<totfact> 0.46195436E+00</totfact>
</mgrwt>
</event>
<event>
 5    1  0.2311484E-004  0.6091489E+03  0.7818608E-02  0.9886605E-01
         13   -1    0    0    0    0  0.00000000000E+00  0.00000000000E+00  0.10000000000E+04  0.10000000000E+04  0.00000000000E+00 0. -1.
          2   -1    0    0  501    0 -0.00000000000E+00 -0.00000000000E+00 -0.92765581278E+02  0.92765581278E+02  0.00000000000E+00 0. -1.
    9000006    2    1    2  501    0  0.00000000000E+00  0.00000000000E+00  0.90723441872E+03  0.10927655813E+04  0.60914885300E+03 0.  0.
         13    1    3    3    0    0 -0.22511105900E+03 -0.20485202700E+03  0.47377305798E+03  0.56311655305E+03  0.00000000000E+00 0. -1.
          2    1    3    3  501    0  0.22511105900E+03  0.20485202700E+03  0.43346136074E+03  0.52964902823E+03  0.00000000000E+00 0. -1.
<mgrwt>
<rscale>  0 0.60914885E+03</rscale>
<asrwt>0</asrwt>
<pdfrwt beam="1">0</pdfrwt>
<pdfrwt beam="2">  1        2 0.33733010E+00 0.60914885E+03</pdfrwt>
<totfact> 0.67780173E+00</totfact>
</mgrwt>
</event>
<event>
 5    1  0.2311484E-004  0.6588139E+03  0.7818608E-02  0.9790380E-01
         13   -1    0    0    0    0  0.00000000000E+00  0.00000000000E+00  0.10000000000E+04  0.10000000000E+04  0.00000000000E+00 0. -1.
          2   -1    0    0  501    0 -0.00000000000E+00 -0.00000000000E+00 -0.10850893063E+03  0.10850893063E+03  0.00000000000E+00 0. -1.
    9000006    2    1    2  501    0  0.00000000000E+00  0.00000000000E+00  0.89149106937E+03  0.11085089306E+04  0.65881387547E+03 0.  0.
         13    1    3    3    0    0  0.90816807513E+02  0.77404588528E+02  0.96235537887E+03  0.96972523846E+03  0.00000000000E+00 0. -1.
          2    1    3    3  501    0 -0.90816807513E+02 -0.77404588528E+02 -0.70864309500E+02  0.13878369217E+03  0.00000000000E+00 0. -1.
<mgrwt>
<rscale>  0 0.65881388E+03</rscale>
<asrwt>0</asrwt>
<pdfrwt beam="1">0</pdfrwt>
<pdfrwt beam="2">  1        2 0.39457876E+00 0.65881388E+03</pdfrwt>
<totfact> 0.41704307E+00</totfact>
</mgrwt>
</event>
<event>
 5    1  0.2311484E-004  0.6771648E+03  0.7818608E-02  0.9757100E-01
         13   -1    0    0    0    0  0.00000000000E+00  0.00000000000E+00  0.10000000000E+04  0.10000000000E+04  0.00000000000E+00 0. -1.
          2   -1    0    0  501    0 -0.00000000000E+00 -0.00000000000E+00 -0.11463805708E+03  0.11463805708E+03  0.00000000000E+00 0. -1.
    9000006    2    1    2  501    0  0.00000000000E+00  0.00000000000E+00  0.88536194292E+03  0.11146380571E+04  0.67716484574E+03 0.  0.
         13    1    3    3    0    0 -0.17841293118E+03 -0.27410008700E+03  0.29846689150E+03  0.44276914643E+03  0.00000000000E+00 0. -1.
          4    1    3    3  501    0  0.17841293118E+03  0.27410008700E+03  0.58689505142E+03  0.67186891065E+03  0.00000000000E+00 0. -1.
<mgrwt>
<rscale>  0 0.67716485E+03</rscale>
<asrwt>0</asrwt>
<pdfrwt beam="1">0</pdfrwt>
<pdfrwt beam="2">  1        2 0.41686654E+00 0.67716485E+03</pdfrwt>
<totfact> 0.34314854E+00</totfact>
</mgrwt>
</event>
<event>
 5    1  0.2311484E-004  0.6501075E+03  0.7818608E-02  0.9806577E-01
         13   -1    0    0    0    0  0.00000000000E+00  0.00000000000E+00  0.10000000000E+04  0.10000000000E+04  0.00000000000E+00 0. -1.
          2   -1    0    0  501    0 -0.00000000000E+00 -0.00000000000E+00 -0.10565994013E+03  0.10565994013E+03  0.00000000000E+00 0. -1.
    9000006    2    1    2  501    0  0.00000000000E+00  0.00000000000E+00  0.89434005987E+03  0.11056599401E+04  0.65010749919E+03 0.  0.
         13    1    3    3    0    0  0.21638064467E+03  0.21800341293E+03  0.26626861413E+03  0.40650343948E+03  0.00000000000E+00 0. -1.
          4    1    3    3  501    0 -0.21638064467E+03 -0.21800341293E+03  0.62807144574E+03  0.69915650065E+03  0.00000000000E+00 0. -1.
<mgrwt>
<rscale>  0 0.65010750E+03</rscale>
<asrwt>0</asrwt>
<pdfrwt beam="1">0</pdfrwt>
<pdfrwt beam="2">  1        2 0.38421877E+00 0.65010750E+03</pdfrwt>
<totfact> 0.45602977E+00</totfact>
</mgrwt>
</event>
<event>
 5    1  0.2311484E-004  0.6402190E+03  0.7818608E-02  0.9825308E-01
         13   -1    0    0    0    0  0.00000000000E+00  0.00000000000E+00  0.10000000000E+04  0.10000000000E+04  0.00000000000E+00 0. -1.
          2   -1    0    0  501    0 -0.00000000000E+00 -0.00000000000E+00 -0.10247009258E+03  0.10247009258E+03  0.00000000000E+00 0. -1.
    9000006    2    1    2  501    0  0.00000000000E+00  0.00000000000E+00  0.89752990742E+03  0.11024700926E+04  0.64021900186E+03 0.  0.
         13    1    3    3    0    0 -0.23041163698E+03  0.15240805567E+02  0.83052674000E+03  0.86203043477E+03  0.00000000000E+00 0. -1.
          4    1    3    3  501    0  0.23041163698E+03 -0.15240805567E+02  0.67003167414E+02  0.24043965782E+03  0.00000000000E+00 0. -1.
<mgrwt>
<rscale>  0 0.64021900E+03</rscale>
<asrwt>0</asrwt>
<pdfrwt beam="1">0</pdfrwt>
<pdfrwt beam="2">  1        2 0.37261930E+00 0.64021900E+03</pdfrwt>
<totfact> 0.50358562E+00</totfact>
</mgrwt>
</event>
<event>
 5    1  0.2311484E-004  0.6153324E+03  0.7818608E-02  0.9874097E-01
         13   -1    0    0    0    0  0.00000000000E+00  0.00000000000E+00  0.10000000000E+04  0.10000000000E+04  0.00000000000E+00 0. -1.
          2   -1    0    0  501    0 -0.00000000000E+00 -0.00000000000E+00 -0.94658479731E+02  0.94658479731E+02  0.00000000000E+00 0. -1.
    9000006    2    1    2  501    0  0.00000000000E+00  0.00000000000E+00  0.90534152027E+03  0.10946584797E+04  0.61533236460E+03 0.  0.
         13    1    3    3    0    0  0.34095385319E+02  0.20960591925E+03  0.84871200845E+03  0.87487668273E+03  0.00000000000E+00 0. -1.
          4    1    3    3  501    0 -0.34095385319E+02 -0.20960591925E+03  0.56629511816E+02  0.21978179701E+03  0.00000000000E+00 0. -1.
<mgrwt>
<rscale>  0 0.61533236E+03</rscale>
<asrwt>0</asrwt>
<pdfrwt beam="1">0</pdfrwt>
<pdfrwt beam="2">  1        2 0.34421338E+00 0.61533236E+03</pdfrwt>
<totfact> 0.63994432E+00</totfact>
</mgrwt>
</event>
<event>
 5    1  0.2311484E-004  0.5006161E+03  0.7818608E-02  0.1013618E+00
         13   -1    0    0    0    0  0.00000000000E+00  0.00000000000E+00  0.10000000000E+04  0.10000000000E+04  0.00000000000E+00 0. -1.
          2   -1    0    0  501    0 -0.00000000000E+00 -0.00000000000E+00 -0.62654124744E+02  0.62654124744E+02  0.00000000000E+00 0. -1.
    9000006    2    1    2  501    0  0.00000000000E+00  0.00000000000E+00  0.93734587526E+03  0.10626541247E+04  0.50061611937E+03 0.  0.
         13    1    3    3    0    0 -0.47068100566E+02 -0.22723858737E+03  0.66781434758E+03  0.70698570319E+03  0.00000000000E+00 0. -1.
          4    1    3    3  501    0  0.47068100566E+02  0.22723858737E+03  0.26953152767E+03  0.35566842155E+03  0.00000000000E+00 0. -1.
<mgrwt>
<rscale>  0 0.50061612E+03</rscale>
<asrwt>0</asrwt>
<pdfrwt beam="1">0</pdfrwt>
<pdfrwt beam="2">  1        2 0.22783366E+00 0.50061612E+03</pdfrwt>
<totfact> 0.16766208E+01</totfact>
</mgrwt>
</event>
<event>
 5    1  0.2311484E-004  0.6540676E+03  0.7818608E-02  0.9799176E-01
         13   -1    0    0    0    0  0.00000000000E+00  0.00000000000E+00  0.10000000000E+04  0.10000000000E+04  0.00000000000E+00 0. -1.
          2   -1    0    0  501    0 -0.00000000000E+00 -0.00000000000E+00 -0.10695110795E+03  0.10695110795E+03  0.00000000000E+00 0. -1.
    9000006    2    1    2  501    0  0.00000000000E+00  0.00000000000E+00  0.89304889205E+03  0.11069511079E+04  0.65406760491E+03 0.  0.
         13    1    3    3    0    0  0.13834754449E+02  0.15775602268E+03  0.93078096401E+03  0.94415653686E+03  0.00000000000E+00 0. -1.
          2    1    3    3  501    0 -0.13834754449E+02 -0.15775602268E+03 -0.37732071958E+02  0.16279457109E+03  0.00000000000E+00 0. -1.
<mgrwt>
<rscale>  0 0.65406760E+03</rscale>
<asrwt>0</asrwt>
<pdfrwt beam="1">0</pdfrwt>
<pdfrwt beam="2">  1        2 0.38891394E+00 0.65406760E+03</pdfrwt>
<totfact> 0.43797008E+00</totfact>
</mgrwt>
</event>
<event>
 5    1  0.2311484E-004  0.6224876E+03  0.7818608E-02  0.9859819E-01
         13   -1    0    0    0    0  0.00000000000E+00  0.00000000000E+00  0.10000000000E+04  0.10000000000E+04  0.00000000000E+00 0. -1.
          2   -1    0    0  501    0 -0.00000000000E+00 -0.00000000000E+00 -0.96872692556E+02  0.96872692556E+02  0.00000000000E+00 0. -1.
    9000006    2    1    2  501    0  0.00000000000E+00  0.00000000000E+00  0.90312730744E+03  0.10968726926E+04  0.62248756632E+03 0.  0.
         13    1    3    3    0    0  0.14881573534E+03  0.25989018207E+03  0.60091134403E+03  0.67140410574E+03  0.00000000000E+00 0. -1.
          2    1    3    3  501    0 -0.14881573534E+03 -0.25989018207E+03  0.30221596341E+03  0.42546858681E+03  0.00000000000E+00 0. -1.
<mgrwt>
<rscale>  0 0.62248757E+03</rscale>
<asrwt>0</asrwt>
<pdfrwt beam="1">0</pdfrwt>
<pdfrwt beam="2">  1        2 0.35226508E+00 0.62248757E+03</pdfrwt>
<totfact> 0.59817439E+00</totfact>
</mgrwt>
</event>
<event>
 5    1  0.2311484E-004  0.6588114E+03  0.7818608E-02  0.9790384E-01
         13   -1    0    0    0    0  0.00000000000E+00  0.00000000000E+00  0.10000000000E+04  0.10000000000E+04  0.00000000000E+00 0. -1.
          2   -1    0    0  501    0 -0.00000000000E+00 -0.00000000000E+00 -0.10850810436E+03  0.10850810436E+03  0.00000000000E+00 0. -1.
    9000006    2    1    2  501    0  0.00000000000E+00  0.00000000000E+00  0.89149189564E+03  0.11085081044E+04  0.65881136713E+03 0.  0.
         13    1    3    3    0    0  0.80903347340E+02 -0.21433901252E+03  0.84399551467E+03  0.87453701619E+03  0.00000000000E+00 0. -1.
          4    1    3    3  501    0 -0.80903347340E+02  0.21433901252E+03  0.47496380966E+02  0.23397108818E+03  0.00000000000E+00 0. -1.
<mgrwt>
<rscale>  0 0.65881137E+03</rscale>
<asrwt>0</asrwt>
<pdfrwt beam="1">0</pdfrwt>
<pdfrwt beam="2">  1        2 0.39457576E+00 0.65881137E+03</pdfrwt>
<totfact> 0.41705392E+00</totfact>
</mgrwt>
</event>
<event>
 5    1  0.2311484E-004  0.6367225E+03  0.7818608E-02  0.9832017E-01
         13   -1    0    0    0    0  0.00000000000E+00  0.00000000000E+00  0.10000000000E+04  0.10000000000E+04  0.00000000000E+00 0. -1.
          2   -1    0    0  501    0 -0.00000000000E+00 -0.00000000000E+00 -0.10135388981E+03  0.10135388981E+03  0.00000000000E+00 0. -1.
    9000006    2    1    2  501    0  0.00000000000E+00  0.00000000000E+00  0.89864611019E+03  0.11013538898E+04  0.63672251354E+03 0.  0.
         13    1    3    3    0    0  0.21903274496E+03 -0.16549059705E+03  0.72818650338E+03  0.77821466497E+03  0.00000000000E+00 0. -1.
          2    1    3    3  501    0 -0.21903274496E+03  0.16549059705E+03  0.17045960681E+03  0.32313922484E+03  0.00000000000E+00 0. -1.
<mgrwt>
<rscale>  0 0.63672251E+03</rscale>
<asrwt>0</asrwt>
<pdfrwt beam="1">0</pdfrwt>
<pdfrwt beam="2">  1        2 0.36856038E+00 0.63672251E+03</pdfrwt>
<totfact> 0.52126909E+00</totfact>
</mgrwt>
</event>
<event>
 5    1  0.2311484E-004  0.6549681E+03  0.7818608E-02  0.9797501E-01
         13   -1    0    0    0    0  0.00000000000E+00  0.00000000000E+00  0.10000000000E+04  0.10000000000E+04  0.00000000000E+00 0. -1.
          2   -1    0    0  501    0 -0.00000000000E+00 -0.00000000000E+00 -0.10724580773E+03  0.10724580773E+03  0.00000000000E+00 0. -1.
    9000006    2    1    2  501    0  0.00000000000E+00  0.00000000000E+00  0.89275419227E+03  0.11072458077E+04  0.65496811443E+03 0.  0.
         13    1    3    3    0    0  0.31373916945E+03 -0.68877522002E+02  0.33853443785E+03  0.46667113163E+03  0.00000000000E+00 0. -1.
          2    1    3    3  501    0 -0.31373916945E+03  0.68877522002E+02  0.55421975442E+03  0.64057467610E+03  0.00000000000E+00 0. -1.
<mgrwt>
<rscale>  0 0.65496811E+03</rscale>
<asrwt>0</asrwt>
<pdfrwt beam="1">0</pdfrwt>
<pdfrwt beam="2">  1        2 0.38998558E+00 0.65496811E+03</pdfrwt>
<totfact> 0.43393993E+00</totfact>
</mgrwt>
</event>
<event>
 5    1  0.2311484E-004  0.6478187E+03  0.7818608E-02  0.9810881E-01
         13   -1    0    0    0    0  0.00000000000E+00  0.00000000000E+00  0.10000000000E+04  0.10000000000E+04  0.00000000000E+00 0. -1.
          2   -1    0    0  501    0 -0.00000000000E+00 -0.00000000000E+00 -0.10491726287E+03  0.10491726287E+03  0.00000000000E+00 0. -1.
    9000006    2    1    2  501    0  0.00000000000E+00  0.00000000000E+00  0.89508273713E+03  0.11049172629E+04  0.64781868719E+03 0.  0.
         13    1    3    3    0    0  0.19825978180E+03  0.19330759811E+03  0.16090729739E+03  0.32025915587E+03  0.00000000000E+00 0. -1.
          2    1    3    3  501    0 -0.19825978180E+03 -0.19330759811E+03  0.73417543974E+03  0.78465810700E+03  0.00000000000E+00 0. -1.
<mgrwt>
<rscale>  0 0.64781869E+03</rscale>
<asrwt>0</asrwt>
<pdfrwt beam="1">0</pdfrwt>
<pdfrwt beam="2">  1        2 0.38151812E+00 0.64781869E+03</pdfrwt>
<totfact> 0.46672101E+00</totfact>
</mgrwt>
</event>
<event>
 5    1  0.2311484E-004  0.6742772E+03  0.7818608E-02  0.9762262E-01
         13   -1    0    0    0    0  0.00000000000E+00  0.00000000000E+00  0.10000000000E+04  0.10000000000E+04  0.00000000000E+00 0. -1.
          2   -1    0    0  501    0 -0.00000000000E+00 -0.00000000000E+00 -0.11366243421E+03  0.11366243421E+03  0.00000000000E+00 0. -1.
    9000006    2    1    2  501    0  0.00000000000E+00  0.00000000000E+00  0.88633756579E+03  0.11136624342E+04  0.67427719585E+03 0.  0.
         13    1    3    3    0    0 -0.40820279735E+02 -0.14143816491E+03 -0.57774636515E+02  0.15814220927E+03  0.00000000000E+00 0. -1.
          4    1    3    3  501    0  0.40820279735E+02  0.14143816491E+03  0.94411220230E+03  0.95552022494E+03  0.00000000000E+00 0. -1.
<mgrwt>
<rscale>  0 0.67427720E+03</rscale>
<asrwt>0</asrwt>
<pdfrwt beam="1">0</pdfrwt>
<pdfrwt beam="2">  1        2 0.41331881E+00 0.67427720E+03</pdfrwt>
<totfact> 0.35406406E+00</totfact>
</mgrwt>
</event>
<event>
 5    1  0.2311484E-004  0.6479399E+03  0.7818608E-02  0.9810652E-01
         13   -1    0    0    0    0  0.00000000000E+00  0.00000000000E+00  0.10000000000E+04  0.10000000000E+04  0.00000000000E+00 0. -1.
          2   -1    0    0  501    0 -0.00000000000E+00 -0.00000000000E+00 -0.10495654295E+03  0.10495654295E+03  0.00000000000E+00 0. -1.
    9000006    2    1    2  501    0  0.00000000000E+00  0.00000000000E+00  0.89504345705E+03  0.11049565430E+04  0.64793994460E+03 0.  0.
         13    1    3    3    0    0 -0.14091696858E+03  0.26454319088E+03  0.65718711829E+03  0.72231267490E+03  0.00000000000E+00 0. -1.
          2    1    3    3  501    0  0.14091696858E+03 -0.26454319088E+03  0.23785633876E+03  0.38264386806E+03  0.00000000000E+00 0. -1.
<mgrwt>
<rscale>  0 0.64793994E+03</rscale>
<asrwt>0</asrwt>
<pdfrwt beam="1">0</pdfrwt>
<pdfrwt beam="2">  1        2 0.38166096E+00 0.64793994E+03</pdfrwt>
<totfact> 0.46614990E+00</totfact>
</mgrwt>
</event>
<event>
 5    1  0.2311484E-004  0.6438365E+03  0.7818608E-02  0.9818414E-01
         13   -1    0    0    0    0  0.00000000000E+00  0.00000000000E+00  0.10000000000E+04  0.10000000000E+04  0.00000000000E+00 0. -1.
          2   -1    0    0  501    0 -0.00000000000E+00 -0.00000000000E+00 -0.10363134852E+03  0.10363134852E+03  0.00000000000E+00 0. -1.
    9000006    2    1    2  501    0  0.00000000000E+00  0.00000000000E+00  0.89636865148E+03  0.11036313485E+04  0.64383646533E+03 0.  0.
         13    1    3    3    0    0  0.23895717469E+03 -0.25719102173E+01  0.78451571344E+02  0.25151897563E+03  0.00000000000E+00 0. -1.
          2    1    3    3  501    0 -0.23895717469E+03  0.25719102173E+01  0.81791708013E+03  0.85211237289E+03  0.00000000000E+00 0. -1.
<mgrwt>
<rscale>  0 0.64383647E+03</rscale>
<asrwt>0</asrwt>
<pdfrwt beam="1">0</pdfrwt>
<pdfrwt beam="2">  1        2 0.37684206E+00 0.64383647E+03</pdfrwt>
<totfact> 0.48577285E+00</totfact>
</mgrwt>
</event>
<event>
 5    1  0.2311484E-004  0.6508733E+03  0.7818608E-02  0.9805142E-01
         13   -1    0    0    0    0  0.00000000000E+00  0.00000000000E+00  0.10000000000E+04  0.10000000000E+04  0.00000000000E+00 0. -1.
          2   -1    0    0  501    0 -0.00000000000E+00 -0.00000000000E+00 -0.10590902748E+03  0.10590902748E+03  0.00000000000E+00 0. -1.
    9000006    2    1    2  501    0  0.00000000000E+00  0.00000000000E+00  0.89409097252E+03  0.11059090275E+04  0.65087334399E+03 0.  0.
         13    1    3    3    0    0 -0.36057678146E+02  0.28633119561E+03  0.19148066938E+03  0.34633878859E+03  0.00000000000E+00 0. -1.
          2    1    3    3  501    0  0.36057678146E+02 -0.28633119561E+03  0.70261030314E+03  0.75957023889E+03  0.00000000000E+00 0. -1.
<mgrwt>
<rscale>  0 0.65087334E+03</rscale>
<asrwt>0</asrwt>
<pdfrwt beam="1">0</pdfrwt>
<pdfrwt beam="2">  1        2 0.38512455E+00 0.65087334E+03</pdfrwt>
<totfact> 0.45249412E+00</totfact>
</mgrwt>
</event>
<event>
 5    1  0.2311484E-004  0.6559403E+03  0.7818608E-02  0.9795696E-01
         13   -1    0    0    0    0  0.00000000000E+00  0.00000000000E+00  0.10000000000E+04  0.10000000000E+04  0.00000000000E+00 0. -1.
          2   -1    0    0  501    0 -0.00000000000E+00 -0.00000000000E+00 -0.10756442729E+03  0.10756442729E+03  0.00000000000E+00 0. -1.
    9000006    2    1    2  501    0  0.00000000000E+00  0.00000000000E+00  0.89243557271E+03  0.11075644273E+04  0.65594032439E+03 0.  0.
         13    1    3    3    0    0 -0.32214173604E+03 -0.75597941187E+01  0.54936897732E+03  0.63689773263E+03  0.00000000000E+00 0. -1.
          2    1    3    3  501    0  0.32214173604E+03  0.75597941187E+01  0.34306659539E+03  0.47066669466E+03  0.00000000000E+00 0. -1.
<mgrwt>
<rscale>  0 0.65594032E+03</rscale>
<asrwt>0</asrwt>
<pdfrwt beam="1">0</pdfrwt>
<pdfrwt beam="2">  1        2 0.39114420E+00 0.65594032E+03</pdfrwt>
<totfact> 0.42962040E+00</totfact>
</mgrwt>
</event>
<event>
 5    1  0.2311484E-004  0.6465026E+03  0.7818608E-02  0.9813364E-01
         13   -1    0    0    0    0  0.00000000000E+00  0.00000000000E+00  0.10000000000E+04  0.10000000000E+04  0.00000000000E+00 0. -1.
          2   -1    0    0  501    0 -0.00000000000E+00 -0.00000000000E+00 -0.10449139168E+03  0.10449139168E+03  0.00000000000E+00 0. -1.
    9000006    2    1    2  501    0  0.00000000000E+00  0.00000000000E+00  0.89550860832E+03  0.11044913917E+04  0.64650256513E+03 0.  0.
         13    1    3    3    0    0 -0.12865297601E+03 -0.26784047925E+03  0.66520798426E+03  0.72855457784E+03  0.00000000000E+00 0. -1.
          2    1    3    3  501    0  0.12865297601E+03  0.26784047925E+03  0.23030062406E+03  0.37593681384E+03  0.00000000000E+00 0. -1.
<mgrwt>
<rscale>  0 0.64650257E+03</rscale>
<asrwt>0</asrwt>
<pdfrwt beam="1">0</pdfrwt>
<pdfrwt beam="2">  1        2 0.37996950E+00 0.64650257E+03</pdfrwt>
<totfact> 0.47295391E+00</totfact>
</mgrwt>
</event>
<event>
 5    1  0.2311484E-004  0.6473896E+03  0.7818608E-02  0.9811690E-01
         13   -1    0    0    0    0  0.00000000000E+00  0.00000000000E+00  0.10000000000E+04  0.10000000000E+04  0.00000000000E+00 0. -1.
          2   -1    0    0  501    0 -0.00000000000E+00 -0.00000000000E+00 -0.10477831736E+03  0.10477831736E+03  0.00000000000E+00 0. -1.
    9000006    2    1    2  501    0  0.00000000000E+00  0.00000000000E+00  0.89522168264E+03  0.11047783174E+04  0.64738958088E+03 0.  0.
         13    1    3    3    0    0 -0.30077748139E+03 -0.16944258790E+02  0.64970194064E+03  0.71614720058E+03  0.00000000000E+00 0. -1.
          4    1    3    3  501    0  0.30077748139E+03  0.16944258790E+02  0.24551974200E+03  0.38863111678E+03  0.00000000000E+00 0. -1.
<mgrwt>
<rscale>  0 0.64738958E+03</rscale>
<asrwt>0</asrwt>
<pdfrwt beam="1">0</pdfrwt>
<pdfrwt beam="2">  1        2 0.38101287E+00 0.64738958E+03</pdfrwt>
<totfact> 0.46874631E+00</totfact>
</mgrwt>
</event>
<event>
 5    1  0.2311484E-004  0.6402824E+03  0.7818608E-02  0.9825186E-01
         13   -1    0    0    0    0  0.00000000000E+00  0.00000000000E+00  0.10000000000E+04  0.10000000000E+04  0.00000000000E+00 0. -1.
          2   -1    0    0  501    0 -0.00000000000E+00 -0.00000000000E+00 -0.10249038797E+03  0.10249038797E+03  0.00000000000E+00 0. -1.
    9000006    2    1    2  501    0  0.00000000000E+00  0.00000000000E+00  0.89750961203E+03  0.11024903880E+04  0.64028240010E+03 0.  0.
         13    1    3    3    0    0 -0.25370050726E+03 -0.16238311787E+03  0.63546713540E+03  0.70324299110E+03  0.00000000000E+00 0. -1.
          4    1    3    3  501    0  0.25370050726E+03  0.16238311787E+03  0.26204247663E+03  0.39924739687E+03  0.00000000000E+00 0. -1.
<mgrwt>
<rscale>  0 0.64028240E+03</rscale>
<asrwt>0</asrwt>
<pdfrwt beam="1">0</pdfrwt>
<pdfrwt beam="2">  1        2 0.37269311E+00 0.64028240E+03</pdfrwt>
<totfact> 0.50326923E+00</totfact>
</mgrwt>
</event>
<event>
 5    1  0.2311484E-004  0.6500909E+03  0.7818608E-02  0.9806609E-01
         13   -1    0    0    0    0  0.00000000000E+00  0.00000000000E+00  0.10000000000E+04  0.10000000000E+04  0.00000000000E+00 0. -1.
          2   -1    0    0  501    0 -0.00000000000E+00 -0.00000000000E+00 -0.10565453693E+03  0.10565453693E+03  0.00000000000E+00 0. -1.
    9000006    2    1    2  501    0  0.00000000000E+00  0.00000000000E+00  0.89434546307E+03  0.11056545369E+04  0.65009087652E+03 0.  0.
         13    1    3    3    0    0 -0.11682378690E+03 -0.27109933463E+03  0.67857668140E+03  0.74000605333E+03  0.00000000000E+00 0. -1.
          2    1    3    3  501    0  0.11682378690E+03  0.27109933463E+03  0.21576878166E+03  0.36564848360E+03  0.00000000000E+00 0. -1.
<mgrwt>
<rscale>  0 0.65009088E+03</rscale>
<asrwt>0</asrwt>
<pdfrwt beam="1">0</pdfrwt>
<pdfrwt beam="2">  1        2 0.38419913E+00 0.65009088E+03</pdfrwt>
<totfact> 0.45610674E+00</totfact>
</mgrwt>
</event>
<event>
 5    1  0.2311484E-004  0.6392524E+03  0.7818608E-02  0.9827158E-01
         13   -1    0    0    0    0  0.00000000000E+00  0.00000000000E+00  0.10000000000E+04  0.10000000000E+04  0.00000000000E+00 0. -1.
          2   -1    0    0  501    0 -0.00000000000E+00 -0.00000000000E+00 -0.10216092053E+03  0.10216092053E+03  0.00000000000E+00 0. -1.
    9000006    2    1    2  501    0  0.00000000000E+00  0.00000000000E+00  0.89783907947E+03  0.11021609205E+04  0.63925244005E+03 0.  0.
         13    1    3    3    0    0 -0.19019149313E+03 -0.11878963796E+03  0.84161928502E+03  0.87098036893E+03  0.00000000000E+00 0. -1.
          2    1    3    3  501    0  0.19019149313E+03  0.11878963796E+03  0.56219794457E+02  0.23118055160E+03  0.00000000000E+00 0. -1.
<mgrwt>
<rscale>  0 0.63925244E+03</rscale>
<asrwt>0</asrwt>
<pdfrwt beam="1">0</pdfrwt>
<pdfrwt beam="2">  1        2 0.37149504E+00 0.63925244E+03</pdfrwt>
<totfact> 0.50842782E+00</totfact>
</mgrwt>
</event>
<event>
 5    1  0.2311484E-004  0.6376000E+03  0.7818608E-02  0.9830329E-01
         13   -1    0    0    0    0  0.00000000000E+00  0.00000000000E+00  0.10000000000E+04  0.10000000000E+04  0.00000000000E+00 0. -1.
          2   -1    0    0  501    0 -0.00000000000E+00 -0.00000000000E+00 -0.10163344834E+03  0.10163344834E+03  0.00000000000E+00 0. -1.
    9000006    2    1    2  501    0  0.00000000000E+00  0.00000000000E+00  0.89836655166E+03  0.11016334483E+04  0.63760002616E+03 0.  0.
         13    1    3    3    0    0 -0.30588080403E+03  0.73841367786E+02  0.53758482553E+03  0.62290694210E+03  0.00000000000E+00 0. -1.
          2    1    3    3  501    0  0.30588080403E+03 -0.73841367786E+02  0.36078172613E+03  0.47872650624E+03  0.00000000000E+00 0. -1.
<mgrwt>
<rscale>  0 0.63760003E+03</rscale>
<asrwt>0</asrwt>
<pdfrwt beam="1">0</pdfrwt>
<pdfrwt beam="2">  1        2 0.36957696E+00 0.63760003E+03</pdfrwt>
<totfact> 0.51678755E+00</totfact>
</mgrwt>
</event>
<event>
 5    1  0.2311484E-004  0.6349312E+03  0.7818608E-02  0.9835473E-01
         13   -1    0    0    0    0  0.00000000000E+00  0.00000000000E+00  0.10000000000E+04  0.10000000000E+04  0.00000000000E+00 0. -1.
          2   -1    0    0  501    0 -0.00000000000E+00 -0.00000000000E+00 -0.10078441321E+03  0.10078441321E+03  0.00000000000E+00 0. -1.
    9000006    2    1    2  501    0  0.00000000000E+00  0.00000000000E+00  0.89921558679E+03  0.11007844132E+04  0.63493121898E+03 0.  0.
         13    1    3    3    0    0  0.22344328140E+03 -0.38960029650E+02  0.83470780444E+03  0.86497508791E+03  0.00000000000E+00 0. -1.
          2    1    3    3  501    0 -0.22344328140E+03  0.38960029650E+02  0.64507782346E+02  0.23580932529E+03  0.00000000000E+00 0. -1.
<mgrwt>
<rscale>  0 0.63493122E+03</rscale>
<asrwt>0</asrwt>
<pdfrwt beam="1">0</pdfrwt>
<pdfrwt beam="2">  1        2 0.36648955E+00 0.63493122E+03</pdfrwt>
<totfact> 0.53050877E+00</totfact>
</mgrwt>
</event>
<event>
 5    1  0.2311484E-004  0.6454689E+03  0.7818608E-02  0.9815319E-01
         13   -1    0    0    0    0  0.00000000000E+00  0.00000000000E+00  0.10000000000E+04  0.10000000000E+04  0.00000000000E+00 0. -1.
          2   -1    0    0  501    0 -0.00000000000E+00 -0.00000000000E+00 -0.10415751571E+03  0.10415751571E+03  0.00000000000E+00 0. -1.
    9000006    2    1    2  501    0  0.00000000000E+00  0.00000000000E+00  0.89584248429E+03  0.11041575157E+04  0.64546887056E+03 0.  0.
         13    1    3    3    0    0  0.24935110377E+03 -0.18736165544E+02  0.79695026256E+03  0.83525848565E+03  0.00000000000E+00 0. -1.
          4    1    3    3  501    0 -0.24935110377E+03  0.18736165544E+02  0.98892221724E+02  0.26889903007E+03  0.00000000000E+00 0. -1.
<mgrwt>
<rscale>  0 0.64546887E+03</rscale>
<asrwt>0</asrwt>
<pdfrwt beam="1">0</pdfrwt>
<pdfrwt beam="2">  1        2 0.37875540E+00 0.64546887E+03</pdfrwt>
<totfact> 0.47789327E+00</totfact>
</mgrwt>
</event>
<event>
 5    1  0.2311484E-004  0.6151566E+03  0.7818608E-02  0.9874450E-01
         13   -1    0    0    0    0  0.00000000000E+00  0.00000000000E+00  0.10000000000E+04  0.10000000000E+04  0.00000000000E+00 0. -1.
          2   -1    0    0  501    0 -0.00000000000E+00 -0.00000000000E+00 -0.94604423025E+02  0.94604423025E+02  0.00000000000E+00 0. -1.
    9000006    2    1    2  501    0  0.00000000000E+00  0.00000000000E+00  0.90539557698E+03  0.10946044230E+04  0.61515664030E+03 0.  0.
         13    1    3    3    0    0  0.11074000725E+03 -0.17618009539E+03  0.49668006367E+02  0.21393851003E+03  0.00000000000E+00 0. -1.
          4    1    3    3  501    0 -0.11074000725E+03  0.17618009539E+03  0.85572757061E+03  0.88066591300E+03  0.00000000000E+00 0. -1.
<mgrwt>
<rscale>  0 0.61515664E+03</rscale>
<asrwt>0</asrwt>
<pdfrwt beam="1">0</pdfrwt>
<pdfrwt beam="2">  1        2 0.34401681E+00 0.61515664E+03</pdfrwt>
<totfact> 0.64099733E+00</totfact>
</mgrwt>
</event>
<event>
 5    1  0.2311484E-004  0.6520899E+03  0.7818608E-02  0.9802866E-01
         13   -1    0    0    0    0  0.00000000000E+00  0.00000000000E+00  0.10000000000E+04  0.10000000000E+04  0.00000000000E+00 0. -1.
          2   -1    0    0  501    0 -0.00000000000E+00 -0.00000000000E+00 -0.10630530466E+03  0.10630530466E+03  0.00000000000E+00 0. -1.
    9000006    2    1    2  501    0  0.00000000000E+00  0.00000000000E+00  0.89369469534E+03  0.11063053047E+04  0.65208988540E+03 0.  0.
         13    1    3    3    0    0  0.32600549410E+03 -0.47945620539E+00  0.43828141644E+03  0.54623292839E+03  0.00000000000E+00 0. -1.
          4    1    3    3  501    0 -0.32600549410E+03  0.47945620539E+00  0.45541327890E+03  0.56007237627E+03  0.00000000000E+00 0. -1.
<mgrwt>
<rscale>  0 0.65208989E+03</rscale>
<asrwt>0</asrwt>
<pdfrwt beam="1">0</pdfrwt>
<pdfrwt beam="2">  1        2 0.38656556E+00 0.65208989E+03</pdfrwt>
<totfact> 0.44692037E+00</totfact>
</mgrwt>
</event>
<event>
 5    1  0.2311484E-004  0.6609416E+03  0.7818608E-02  0.9786462E-01
         13   -1    0    0    0    0  0.00000000000E+00  0.00000000000E+00  0.10000000000E+04  0.10000000000E+04  0.00000000000E+00 0. -1.
          2   -1    0    0  501    0 -0.00000000000E+00 -0.00000000000E+00 -0.10921096469E+03  0.10921096469E+03  0.00000000000E+00 0. -1.
    9000006    2    1    2  501    0  0.00000000000E+00  0.00000000000E+00  0.89078903531E+03  0.11092109647E+04  0.66094164550E+03 0.  0.
         13    1    3    3    0    0 -0.27101308594E+02 -0.17150659369E+03  0.91727808955E+03  0.93356739777E+03  0.00000000000E+00 0. -1.
          2    1    3    3  501    0  0.27101308594E+02  0.17150659369E+03 -0.26489054235E+02  0.17564356692E+03  0.00000000000E+00 0. -1.
<mgrwt>
<rscale>  0 0.66094165E+03</rscale>
<asrwt>0</asrwt>
<pdfrwt beam="1">0</pdfrwt>
<pdfrwt beam="2">  1        2 0.39713162E+00 0.66094165E+03</pdfrwt>
<totfact> 0.40791124E+00</totfact>
</mgrwt>
</event>
<event>
 5    1  0.2311484E-004  0.6532100E+03  0.7818608E-02  0.9800774E-01
         13   -1    0    0    0    0  0.00000000000E+00  0.00000000000E+00  0.10000000000E+04  0.10000000000E+04  0.00000000000E+00 0. -1.
          2   -1    0    0  501    0 -0.00000000000E+00 -0.00000000000E+00 -0.10667083442E+03  0.10667083442E+03  0.00000000000E+00 0. -1.
    9000006    2    1    2  501    0  0.00000000000E+00  0.00000000000E+00  0.89332916558E+03  0.11066708344E+04  0.65321002572E+03 0.  0.
         13    1    3    3    0    0  0.26975756740E+03  0.83824260862E+02  0.72440643931E+03  0.77753478455E+03  0.00000000000E+00 0. -1.
          4    1    3    3  501    0 -0.26975756740E+03 -0.83824260862E+02  0.16892272627E+03  0.32913604987E+03  0.00000000000E+00 0. -1.
<mgrwt>
<rscale>  0 0.65321003E+03</rscale>
<asrwt>0</asrwt>
<pdfrwt beam="1">0</pdfrwt>
<pdfrwt beam="2">  1        2 0.38789476E+00 0.65321003E+03</pdfrwt>
<totfact> 0.44183432E+00</totfact>
</mgrwt>
</event>
<event>
 5    1  0.2311484E-004  0.6310144E+03  0.7818608E-02  0.9843071E-01
         13   -1    0    0    0    0  0.00000000000E+00  0.00000000000E+00  0.10000000000E+04  0.10000000000E+04  0.00000000000E+00 0. -1.
          2   -1    0    0  501    0 -0.00000000000E+00 -0.00000000000E+00 -0.99544798315E+02  0.99544798315E+02  0.00000000000E+00 0. -1.
    9000006    2    1    2  501    0  0.00000000000E+00  0.00000000000E+00  0.90045520168E+03  0.10995447983E+04  0.63101441605E+03 0.  0.
         13    1    3    3    0    0  0.14947933021E+03  0.20331168866E+03  0.12023091227E+03  0.27952671638E+03  0.00000000000E+00 0. -1.
          4    1    3    3  501    0 -0.14947933021E+03 -0.20331168866E+03  0.78022428942E+03  0.82001808193E+03  0.00000000000E+00 0. -1.
<mgrwt>
<rscale>  0 0.63101442E+03</rscale>
<asrwt>0</asrwt>
<pdfrwt beam="1">0</pdfrwt>
<pdfrwt beam="2">  1        2 0.36198185E+00 0.63101442E+03</pdfrwt>
<totfact> 0.55114434E+00</totfact>
</mgrwt>
</event>
<event>
 5    1  0.2311484E-004  0.6698354E+03  0.7818608E-02  0.9770255E-01
         13   -1    0    0    0    0  0.00000000000E+00  0.00000000000E+00  0.10000000000E+04  0.10000000000E+04  0.00000000000E+00 0. -1.
          2   -1    0    0  501    0 -0.00000000000E+00 -0.00000000000E+00 -0.11216985986E+03  0.11216985986E+03  0.00000000000E+00 0. -1.
    9000006    2    1    2  501    0  0.00000000000E+00  0.00000000000E+00  0.88783014014E+03  0.11121698599E+04  0.66983538234E+03 0.  0.
         13    1    3    3    0    0 -0.74793099056E+02  0.27744548519E+02 -0.96165277455E+02  0.12494610129E+03  0.00000000000E+00 0. -1.
          2    1    3    3  501    0  0.74793099056E+02 -0.27744548519E+02  0.98399541760E+03  0.98722375857E+03  0.00000000000E+00 0. -1.
<mgrwt>
<rscale>  0 0.66983538E+03</rscale>
<asrwt>0</asrwt>
<pdfrwt beam="1">0</pdfrwt>
<pdfrwt beam="2">  1        2 0.40789126E+00 0.66983538E+03</pdfrwt>
<totfact> 0.37136385E+00</totfact>
</mgrwt>
</event>
<event>
 5    1  0.2311484E-004  0.6549828E+03  0.7818608E-02  0.9797474E-01
         13   -1    0    0    0    0  0.00000000000E+00  0.00000000000E+00  0.10000000000E+04  0.10000000000E+04  0.00000000000E+00 0. -1.
          2   -1    0    0  501    0 -0.00000000000E+00 -0.00000000000E+00 -0.10725061924E+03  0.10725061924E+03  0.00000000000E+00 0. -1.
    9000006    2    1    2  501    0  0.00000000000E+00  0.00000000000E+00  0.89274938076E+03  0.11072506192E+04  0.65498280662E+03 0.  0.
         13    1    3    3    0    0 -0.18945035527E+03  0.11955115206E+01 -0.52073012495E+01  0.18952567727E+03  0.00000000000E+00 0. -1.
          2    1    3    3  501    0  0.18945035527E+03 -0.11955115206E+01  0.89795668201E+03  0.91772494197E+03  0.00000000000E+00 0. -1.
<mgrwt>
<rscale>  0 0.65498281E+03</rscale>
<asrwt>0</asrwt>
<pdfrwt beam="1">0</pdfrwt>
<pdfrwt beam="2">  1        2 0.39000307E+00 0.65498281E+03</pdfrwt>
<totfact> 0.43387441E+00</totfact>
</mgrwt>
</event>
<event>
 5    1  0.2311484E-004  0.6416985E+03  0.7818608E-02  0.9822482E-01
         13   -1    0    0    0    0  0.00000000000E+00  0.00000000000E+00  0.10000000000E+04  0.10000000000E+04  0.00000000000E+00 0. -1.
          2   -1    0    0  501    0 -0.00000000000E+00 -0.00000000000E+00 -0.10294424820E+03  0.10294424820E+03  0.00000000000E+00 0. -1.
    9000006    2    1    2  501    0  0.00000000000E+00  0.00000000000E+00  0.89705575180E+03  0.11029442482E+04  0.64169852173E+03 0.  0.
         13    1    3    3    0    0 -0.24532231960E+02 -0.27284170635E+03  0.73562129032E+03  0.78497331796E+03  0.00000000000E+00 0. -1.
          2    1    3    3  501    0  0.24532231960E+02  0.27284170635E+03  0.16143446148E+03  0.31797093024E+03  0.00000000000E+00 0. -1.
<mgrwt>
<rscale>  0 0.64169852E+03</rscale>
<asrwt>0</asrwt>
<pdfrwt beam="1">0</pdfrwt>
<pdfrwt beam="2">  1        2 0.37434351E+00 0.64169852E+03</pdfrwt>
<totfact> 0.49624137E+00</totfact>
</mgrwt>
</event>
<event>
 5    1  0.2311484E-004  0.6357042E+03  0.7818608E-02  0.9833980E-01
         13   -1    0    0    0    0  0.00000000000E+00  0.00000000000E+00  0.10000000000E+04  0.10000000000E+04  0.00000000000E+00 0. -1.
          2   -1    0    0  501    0 -0.00000000000E+00 -0.00000000000E+00 -0.10102995387E+03  0.10102995387E+03  0.00000000000E+00 0. -1.
    9000006    2    1    2  501    0  0.00000000000E+00  0.00000000000E+00  0.89897004613E+03  0.11010299539E+04  0.63570418866E+03 0.  0.
         13    1    3    3    0    0 -0.10783618967E+01 -0.10552893270E+03  0.96876985171E+03  0.97450117706E+03  0.00000000000E+00 0. -1.
          4    1    3    3  501    0  0.10783618967E+01  0.10552893270E+03 -0.69799805583E+02  0.12652877681E+03  0.00000000000E+00 0. -1.
<mgrwt>
<rscale>  0 0.63570419E+03</rscale>
<asrwt>0</asrwt>
<pdfrwt beam="1">0</pdfrwt>
<pdfrwt beam="2">  1        2 0.36738243E+00 0.63570419E+03</pdfrwt>
<totfact> 0.52650662E+00</totfact>
</mgrwt>
</event>
<event>
 5    1  0.2311484E-004  0.6459010E+03  0.7818608E-02  0.9814501E-01
         13   -1    0    0    0    0  0.00000000000E+00  0.00000000000E+00  0.10000000000E+04  0.10000000000E+04  0.00000000000E+00 0. -1.
          2   -1    0    0  501    0 -0.00000000000E+00 -0.00000000000E+00 -0.10429701366E+03  0.10429701366E+03  0.00000000000E+00 0. -1.
    9000006    2    1    2  501    0  0.00000000000E+00  0.00000000000E+00  0.89570298634E+03  0.11042970137E+04  0.64590096350E+03 0.  0.
         13    1    3    3    0    0  0.21614195176E+03  0.21712468781E+03  0.62251341819E+03  0.69381800870E+03  0.00000000000E+00 0. -1.
          2    1    3    3  501    0 -0.21614195176E+03 -0.21712468781E+03  0.27318956815E+03  0.41047900496E+03  0.00000000000E+00 0. -1.
<mgrwt>
<rscale>  0 0.64590096E+03</rscale>
<asrwt>0</asrwt>
<pdfrwt beam="1">0</pdfrwt>
<pdfrwt beam="2">  1        2 0.37926267E+00 0.64590096E+03</pdfrwt>
<totfact> 0.47582386E+00</totfact>
</mgrwt>
</event>
<event>
 5    1  0.2311484E-004  0.6554915E+03  0.7818608E-02  0.9796529E-01
         13   -1    0    0    0    0  0.00000000000E+00  0.00000000000E+00  0.10000000000E+04  0.10000000000E+04  0.00000000000E+00 0. -1.
          2   -1    0    0  501    0 -0.00000000000E+00 -0.00000000000E+00 -0.10741728228E+03  0.10741728228E+03  0.00000000000E+00 0. -1.
    9000006    2    1    2  501    0  0.00000000000E+00  0.00000000000E+00  0.89258271772E+03  0.11074172823E+04  0.65549151721E+03 0.  0.
         13    1    3    3    0    0 -0.10616101539E+03 -0.21799514032E+03  0.73749480923E+02  0.25343841131E+03  0.00000000000E+00 0. -1.
          2    1    3    3  501    0  0.10616101539E+03  0.21799514032E+03  0.81883323679E+03  0.85397887097E+03  0.00000000000E+00 0. -1.
<mgrwt>
<rscale>  0 0.65549152E+03</rscale>
<asrwt>0</asrwt>
<pdfrwt beam="1">0</pdfrwt>
<pdfrwt beam="2">  1        2 0.39060912E+00 0.65549152E+03</pdfrwt>
<totfact> 0.43161040E+00</totfact>
</mgrwt>
</event>
<event>
 5    1  0.2311484E-004  0.6456667E+03  0.7818608E-02  0.9814944E-01
         13   -1    0    0    0    0  0.00000000000E+00  0.00000000000E+00  0.10000000000E+04  0.10000000000E+04  0.00000000000E+00 0. -1.
          2   -1    0    0  501    0 -0.00000000000E+00 -0.00000000000E+00 -0.10422138046E+03  0.10422138046E+03  0.00000000000E+00 0. -1.
    9000006    2    1    2  501    0  0.00000000000E+00  0.00000000000E+00  0.89577861954E+03  0.11042213805E+04  0.64566672660E+03 0.  0.
         13    1    3    3    0    0  0.16112171293E+03 -0.13583359735E+03  0.29639138225E+02  0.21281318348E+03  0.00000000000E+00 0. -1.
          2    1    3    3  501    0 -0.16112171293E+03  0.13583359735E+03  0.86613948132E+03  0.89140819698E+03  0.00000000000E+00 0. -1.
<mgrwt>
<rscale>  0 0.64566673E+03</rscale>
<asrwt>0</asrwt>
<pdfrwt beam="1">0</pdfrwt>
<pdfrwt beam="2">  1        2 0.37898764E+00 0.64566673E+03</pdfrwt>
<totfact> 0.47694484E+00</totfact>
</mgrwt>
</event>
<event>
 5    1  0.2311484E-004  0.6355423E+03  0.7818608E-02  0.9834293E-01
         13   -1    0    0    0    0  0.00000000000E+00  0.00000000000E+00  0.10000000000E+04  0.10000000000E+04  0.00000000000E+00 0. -1.
          2   -1    0    0  501    0 -0.00000000000E+00 -0.00000000000E+00 -0.10097851707E+03  0.10097851707E+03  0.00000000000E+00 0. -1.
    9000006    2    1    2  501    0  0.00000000000E+00  0.00000000000E+00  0.89902148293E+03  0.11009785171E+04  0.63554234185E+03 0.  0.
         13    1    3    3    0    0 -0.28898677291E+03  0.11257845961E+03  0.56942170374E+03  0.64840445802E+03  0.00000000000E+00 0. -1.
          2    1    3    3  501    0  0.28898677291E+03 -0.11257845961E+03  0.32959977919E+03  0.45257405905E+03  0.00000000000E+00 0. -1.
<mgrwt>
<rscale>  0 0.63554234E+03</rscale>
<asrwt>0</asrwt>
<pdfrwt beam="1">0</pdfrwt>
<pdfrwt beam="2">  1        2 0.36719538E+00 0.63554234E+03</pdfrwt>
<totfact> 0.52734270E+00</totfact>
</mgrwt>
</event>
<event>
 5    1  0.2311484E-004  0.5979898E+03  0.7818608E-02  0.9909585E-01
         13   -1    0    0    0    0  0.00000000000E+00  0.00000000000E+00  0.10000000000E+04  0.10000000000E+04  0.00000000000E+00 0. -1.
          2   -1    0    0  501    0 -0.00000000000E+00 -0.00000000000E+00 -0.89397953712E+02  0.89397953712E+02  0.00000000000E+00 0. -1.
    9000006    2    1    2  501    0  0.00000000000E+00  0.00000000000E+00  0.91060204629E+03  0.10893979537E+04  0.59798981166E+03 0.  0.
         13    1    3    3    0    0  0.17206750675E+03  0.17498577672E+03  0.76644846268E+03  0.80477978037E+03  0.00000000000E+00 0. -1.
          4    1    3    3  501    0 -0.17206750675E+03 -0.17498577672E+03  0.14415358360E+03  0.28461817335E+03  0.00000000000E+00 0. -1.
<mgrwt>
<rscale>  0 0.59798981E+03</rscale>
<asrwt>0</asrwt>
<pdfrwt beam="1">0</pdfrwt>
<pdfrwt beam="2">  1        2 0.32508415E+00 0.59798981E+03</pdfrwt>
<totfact> 0.75043528E+00</totfact>
</mgrwt>
</event>
<event>
 5    1  0.2311484E-004  0.6467228E+03  0.7818608E-02  0.9812948E-01
         13   -1    0    0    0    0  0.00000000000E+00  0.00000000000E+00  0.10000000000E+04  0.10000000000E+04  0.00000000000E+00 0. -1.
          2   -1    0    0  501    0 -0.00000000000E+00 -0.00000000000E+00 -0.10456260938E+03  0.10456260938E+03  0.00000000000E+00 0. -1.
    9000006    2    1    2  501    0  0.00000000000E+00  0.00000000000E+00  0.89543739062E+03  0.11045626094E+04  0.64672284444E+03 0.  0.
         13    1    3    3    0    0  0.12272215189E+02 -0.31993038372E+03  0.37026503436E+03  0.48949183176E+03  0.00000000000E+00 0. -1.
          4    1    3    3  501    0 -0.12272215189E+02  0.31993038372E+03  0.52517235627E+03  0.61507077762E+03  0.00000000000E+00 0. -1.
<mgrwt>
<rscale>  0 0.64672284E+03</rscale>
<asrwt>0</asrwt>
<pdfrwt beam="1">0</pdfrwt>
<pdfrwt beam="2">  1        2 0.38022847E+00 0.64672284E+03</pdfrwt>
<totfact> 0.47190635E+00</totfact>
</mgrwt>
</event>
<event>
 5    1  0.2311484E-004  0.6489474E+03  0.7818608E-02  0.9808756E-01
         13   -1    0    0    0    0  0.00000000000E+00  0.00000000000E+00  0.10000000000E+04  0.10000000000E+04  0.00000000000E+00 0. -1.
          2   -1    0    0  501    0 -0.00000000000E+00 -0.00000000000E+00 -0.10528319404E+03  0.10528319404E+03  0.00000000000E+00 0. -1.
    9000006    2    1    2  501    0  0.00000000000E+00  0.00000000000E+00  0.89471680596E+03  0.11052831940E+04  0.64894743712E+03 0.  0.
         13    1    3    3    0    0  0.65630808460E+02  0.64794434067E+02  0.97720626027E+03  0.98154867267E+03  0.00000000000E+00 0. -1.
          4    1    3    3  501    0 -0.65630808460E+02 -0.64794434067E+02 -0.82489454310E+02  0.12373452137E+03  0.00000000000E+00 0. -1.
<mgrwt>
<rscale>  0 0.64894744E+03</rscale>
<asrwt>0</asrwt>
<pdfrwt beam="1">0</pdfrwt>
<pdfrwt beam="2">  1        2 0.38284879E+00 0.64894744E+03</pdfrwt>
<totfact> 0.46142511E+00</totfact>
</mgrwt>
</event>
<event>
 5    1  0.2311484E-004  0.6430787E+03  0.7818608E-02  0.9819854E-01
         13   -1    0    0    0    0  0.00000000000E+00  0.00000000000E+00  0.10000000000E+04  0.10000000000E+04  0.00000000000E+00 0. -1.
          2   -1    0    0  501    0 -0.00000000000E+00 -0.00000000000E+00 -0.10338755747E+03  0.10338755747E+03  0.00000000000E+00 0. -1.
    9000006    2    1    2  501    0  0.00000000000E+00  0.00000000000E+00  0.89661244253E+03  0.11033875575E+04  0.64307871203E+03 0.  0.
         13    1    3    3    0    0 -0.95520063953E+02 -0.30217747655E+03  0.54153292564E+03  0.62744977448E+03  0.00000000000E+00 0. -1.
          2    1    3    3  501    0  0.95520063953E+02  0.30217747655E+03  0.35507951690E+03  0.47593778298E+03  0.00000000000E+00 0. -1.
<mgrwt>
<rscale>  0 0.64307871E+03</rscale>
<asrwt>0</asrwt>
<pdfrwt beam="1">0</pdfrwt>
<pdfrwt beam="2">  1        2 0.37595555E+00 0.64307871E+03</pdfrwt>
<totfact> 0.48946374E+00</totfact>
</mgrwt>
</event>
<event>
 5    1  0.2311484E-004  0.6765107E+03  0.7818608E-02  0.9758267E-01
         13   -1    0    0    0    0  0.00000000000E+00  0.00000000000E+00  0.10000000000E+04  0.10000000000E+04  0.00000000000E+00 0. -1.
          2   -1    0    0  501    0 -0.00000000000E+00 -0.00000000000E+00 -0.11441667109E+03  0.11441667109E+03  0.00000000000E+00 0. -1.
    9000006    2    1    2  501    0  0.00000000000E+00  0.00000000000E+00  0.88558332891E+03  0.11144166711E+04  0.67651066832E+03 0.  0.
         13    1    3    3    0    0  0.64831033438E+02 -0.34763434526E+02 -0.10107993763E+03  0.12501485139E+03  0.00000000000E+00 0. -1.
          4    1    3    3  501    0 -0.64831033438E+02  0.34763434526E+02  0.98666326654E+03  0.98940181970E+03  0.00000000000E+00 0. -1.
<mgrwt>
<rscale>  0 0.67651067E+03</rscale>
<asrwt>0</asrwt>
<pdfrwt beam="1">0</pdfrwt>
<pdfrwt beam="2">  1        2 0.41606150E+00 0.67651067E+03</pdfrwt>
<totfact> 0.34559885E+00</totfact>
</mgrwt>
</event>
<event>
 5    1  0.2311484E-004  0.6635916E+03  0.7818608E-02  0.9781604E-01
         13   -1    0    0    0    0  0.00000000000E+00  0.00000000000E+00  0.10000000000E+04  0.10000000000E+04  0.00000000000E+00 0. -1.
          2   -1    0    0  501    0 -0.00000000000E+00 -0.00000000000E+00 -0.11008846613E+03  0.11008846613E+03  0.00000000000E+00 0. -1.
    9000006    2    1    2  501    0  0.00000000000E+00  0.00000000000E+00  0.88991153387E+03  0.11100884661E+04  0.66359163989E+03 0.  0.
         13    1    3    3    0    0 -0.22962475441E+03  0.19206161796E+03  0.68431507748E+03  0.74692858976E+03  0.00000000000E+00 0. -1.
          2    1    3    3  501    0  0.22962475441E+03 -0.19206161796E+03  0.20559645638E+03  0.36315987637E+03  0.00000000000E+00 0. -1.
<mgrwt>
<rscale>  0 0.66359164E+03</rscale>
<asrwt>0</asrwt>
<pdfrwt beam="1">0</pdfrwt>
<pdfrwt beam="2">  1        2 0.40032254E+00 0.66359164E+03</pdfrwt>
<totfact> 0.39675010E+00</totfact>
</mgrwt>
</event>
<event>
 5    1  0.2311484E-004  0.6530599E+03  0.7818608E-02  0.9801054E-01
         13   -1    0    0    0    0  0.00000000000E+00  0.00000000000E+00  0.10000000000E+04  0.10000000000E+04  0.00000000000E+00 0. -1.
          2   -1    0    0  501    0 -0.00000000000E+00 -0.00000000000E+00 -0.10662179815E+03  0.10662179815E+03  0.00000000000E+00 0. -1.
    9000006    2    1    2  501    0  0.00000000000E+00  0.00000000000E+00  0.89337820185E+03  0.11066217982E+04  0.65305986908E+03 0.  0.
         13    1    3    3    0    0 -0.17140897667E+03  0.22142622684E+03  0.73130352305E+03  0.78308074555E+03  0.00000000000E+00 0. -1.
          4    1    3    3  501    0  0.17140897667E+03 -0.22142622684E+03  0.16207467879E+03  0.32354105261E+03  0.00000000000E+00 0. -1.
<mgrwt>
<rscale>  0 0.65305987E+03</rscale>
<asrwt>0</asrwt>
<pdfrwt beam="1">0</pdfrwt>
<pdfrwt beam="2">  1        2 0.38771645E+00 0.65305987E+03</pdfrwt>
<totfact> 0.44251356E+00</totfact>
</mgrwt>
</event>
<event>
 5    1  0.2311484E-004  0.6455284E+03  0.7818608E-02  0.9815206E-01
         13   -1    0    0    0    0  0.00000000000E+00  0.00000000000E+00  0.10000000000E+04  0.10000000000E+04  0.00000000000E+00 0. -1.
          2   -1    0    0  501    0 -0.00000000000E+00 -0.00000000000E+00 -0.10417672557E+03  0.10417672557E+03  0.00000000000E+00 0. -1.
    9000006    2    1    2  501    0  0.00000000000E+00  0.00000000000E+00  0.89582327443E+03  0.11041767256E+04  0.64552839000E+03 0.  0.
         13    1    3    3    0    0  0.30364615061E+03  0.47635932622E+02  0.61643335780E+03  0.68881075156E+03  0.00000000000E+00 0. -1.
          4    1    3    3  501    0 -0.30364615061E+03 -0.47635932622E+02  0.27938991663E+03  0.41536597402E+03  0.00000000000E+00 0. -1.
<mgrwt>
<rscale>  0 0.64552839E+03</rscale>
<asrwt>0</asrwt>
<pdfrwt beam="1">0</pdfrwt>
<pdfrwt beam="2">  1        2 0.37882526E+00 0.64552839E+03</pdfrwt>
<totfact> 0.47760782E+00</totfact>
</mgrwt>
</event>
<event>
 5    1  0.2311484E-004  0.6703251E+03  0.7818608E-02  0.9769371E-01
         13   -1    0    0    0    0  0.00000000000E+00  0.00000000000E+00  0.10000000000E+04  0.10000000000E+04  0.00000000000E+00 0. -1.
          2   -1    0    0  501    0 -0.00000000000E+00 -0.00000000000E+00 -0.11233392528E+03  0.11233392528E+03  0.00000000000E+00 0. -1.
    9000006    2    1    2  501    0  0.00000000000E+00  0.00000000000E+00  0.88766607472E+03  0.11123339253E+04  0.67032507124E+03 0.  0.
         13    1    3    3    0    0 -0.29728415206E+03 -0.41623915368E+02  0.19645791283E+03  0.35875636427E+03  0.00000000000E+00 0. -1.
          2    1    3    3  501    0  0.29728415206E+03  0.41623915368E+02  0.69120816189E+03  0.75357756101E+03  0.00000000000E+00 0. -1.
<mgrwt>
<rscale>  0 0.67032507E+03</rscale>
<asrwt>0</asrwt>
<pdfrwt beam="1">0</pdfrwt>
<pdfrwt beam="2">  1        2 0.40848786E+00 0.67032507E+03</pdfrwt>
<totfact> 0.36942600E+00</totfact>
</mgrwt>
</event>
<event>
 5    1  0.2311484E-004  0.4575089E+03  0.7818608E-02  0.1025506E+00
         13   -1    0    0    0    0  0.00000000000E+00  0.00000000000E+00  0.10000000000E+04  0.10000000000E+04  0.00000000000E+00 0. -1.
          2   -1    0    0  501    0 -0.00000000000E+00 -0.00000000000E+00 -0.52328588236E+02  0.52328588236E+02  0.00000000000E+00 0. -1.
    9000006    2    1    2  501    0  0.00000000000E+00  0.00000000000E+00  0.94767141176E+03  0.10523285882E+04  0.45750885559E+03 0.  0.
         13    1    3    3    0    0 -0.13587947033E+03 -0.13606472738E+03  0.75882646418E+03  0.78281188240E+03  0.00000000000E+00 0. -1.
          2    1    3    3  501    0  0.13587947033E+03  0.13606472738E+03  0.18884494759E+03  0.26951670584E+03  0.00000000000E+00 0. -1.
<mgrwt>
<rscale>  0 0.45750886E+03</rscale>
<asrwt>0</asrwt>
<pdfrwt beam="1">0</pdfrwt>
<pdfrwt beam="2">  1        2 0.19028618E+00 0.45750886E+03</pdfrwt>
<totfact> 0.23118913E+01</totfact>
</mgrwt>
</event>
<event>
 5    1  0.2311484E-004  0.6515823E+03  0.7818608E-02  0.9803815E-01
         13   -1    0    0    0    0  0.00000000000E+00  0.00000000000E+00  0.10000000000E+04  0.10000000000E+04  0.00000000000E+00 0. -1.
          2   -1    0    0  501    0 -0.00000000000E+00 -0.00000000000E+00 -0.10613986561E+03  0.10613986561E+03  0.00000000000E+00 0. -1.
    9000006    2    1    2  501    0  0.00000000000E+00  0.00000000000E+00  0.89386013439E+03  0.11061398656E+04  0.65158227604E+03 0.  0.
         13    1    3    3    0    0 -0.32025678877E+02 -0.22418994568E+03  0.49334686486E+02  0.23177723603E+03  0.00000000000E+00 0. -1.
          2    1    3    3  501    0  0.32025678877E+02  0.22418994568E+03  0.84452544790E+03  0.87436262958E+03  0.00000000000E+00 0. -1.
<mgrwt>
<rscale>  0 0.65158228E+03</rscale>
<asrwt>0</asrwt>
<pdfrwt beam="1">0</pdfrwt>
<pdfrwt beam="2">  1        2 0.38596396E+00 0.65158228E+03</pdfrwt>
<totfact> 0.44923971E+00</totfact>
</mgrwt>
</event>
<event>
 5    1  0.2311484E-004  0.6555128E+03  0.7818608E-02  0.9796489E-01
         13   -1    0    0    0    0  0.00000000000E+00  0.00000000000E+00  0.10000000000E+04  0.10000000000E+04  0.00000000000E+00 0. -1.
          2   -1    0    0  501    0 -0.00000000000E+00 -0.00000000000E+00 -0.10742426467E+03  0.10742426467E+03  0.00000000000E+00 0. -1.
    9000006    2    1    2  501    0  0.00000000000E+00  0.00000000000E+00  0.89257573533E+03  0.11074242647E+04  0.65551282114E+03 0.  0.
         13    1    3    3    0    0  0.25478895009E+03 -0.20615968831E+03  0.44249573661E+03  0.55065570286E+03  0.00000000000E+00 0. -1.
          4    1    3    3  501    0 -0.25478895009E+03  0.20615968831E+03  0.45007999872E+03  0.55676856181E+03  0.00000000000E+00 0. -1.
<mgrwt>
<rscale>  0 0.65551282E+03</rscale>
<asrwt>0</asrwt>
<pdfrwt beam="1">0</pdfrwt>
<pdfrwt beam="2">  1        2 0.39063451E+00 0.65551282E+03</pdfrwt>
<totfact> 0.43151578E+00</totfact>
</mgrwt>
</event>
<event>
 5    1  0.2311484E-004  0.6647203E+03  0.7818608E-02  0.9779543E-01
         13   -1    0    0    0    0  0.00000000000E+00  0.00000000000E+00  0.10000000000E+04  0.10000000000E+04  0.00000000000E+00 0. -1.
          4   -1    0    0  501    0 -0.00000000000E+00 -0.00000000000E+00 -0.11046326783E+03  0.11046326783E+03  0.00000000000E+00 0. -1.
    9000006    2    1    2  501    0  0.00000000000E+00  0.00000000000E+00  0.88953673217E+03  0.11104632678E+04  0.66472029554E+03 0.  0.
         13    1    3    3    0    0  0.61712896824E+02 -0.15699189261E+03 -0.33635022681E+02  0.17200654270E+03  0.00000000000E+00 0. -1.
          4    1    3    3  501    0 -0.61712896824E+02  0.15699189261E+03  0.92317175485E+03  0.93845672513E+03  0.00000000000E+00 0. -1.
<mgrwt>
<rscale>  0 0.66472030E+03</rscale>
<asrwt>0</asrwt>
<pdfrwt beam="1">0</pdfrwt>
<pdfrwt beam="2">  1        4 0.40168546E+00 0.66472030E+03</pdfrwt>
<totfact> 0.31195202E-02</totfact>
</mgrwt>
</event>
<event>
 5    1  0.2311484E-004  0.6578501E+03  0.7818608E-02  0.9792160E-01
         13   -1    0    0    0    0  0.00000000000E+00  0.00000000000E+00  0.10000000000E+04  0.10000000000E+04  0.00000000000E+00 0. -1.
          2   -1    0    0  501    0 -0.00000000000E+00 -0.00000000000E+00 -0.10819168398E+03  0.10819168398E+03  0.00000000000E+00 0. -1.
    9000006    2    1    2  501    0  0.00000000000E+00  0.00000000000E+00  0.89180831602E+03  0.11081916840E+04  0.65785008620E+03 0.  0.
         13    1    3    3    0    0  0.18588272101E+03 -0.57402965561E+02  0.89269276565E+03  0.91364536898E+03  0.00000000000E+00 0. -1.
          2    1    3    3  501    0 -0.18588272101E+03  0.57402965561E+02 -0.88444962380E+00  0.19454631500E+03  0.00000000000E+00 0. -1.
<mgrwt>
<rscale>  0 0.65785009E+03</rscale>
<asrwt>0</asrwt>
<pdfrwt beam="1">0</pdfrwt>
<pdfrwt beam="2">  1        2 0.39342513E+00 0.65785009E+03</pdfrwt>
<totfact> 0.42122994E+00</totfact>
</mgrwt>
</event>
<event>
 5    1  0.2311484E-004  0.6514108E+03  0.7818608E-02  0.9804135E-01
         13   -1    0    0    0    0  0.00000000000E+00  0.00000000000E+00  0.10000000000E+04  0.10000000000E+04  0.00000000000E+00 0. -1.
          2   -1    0    0  501    0 -0.00000000000E+00 -0.00000000000E+00 -0.10608401813E+03  0.10608401813E+03  0.00000000000E+00 0. -1.
    9000006    2    1    2  501    0  0.00000000000E+00  0.00000000000E+00  0.89391598187E+03  0.11060840181E+04  0.65141083238E+03 0.  0.
         13    1    3    3    0    0  0.10114134227E+03  0.29449219271E+03  0.60919124485E+03  0.68415582691E+03  0.00000000000E+00 0. -1.
          2    1    3    3  501    0 -0.10114134227E+03 -0.29449219271E+03  0.28472473701E+03  0.42192819123E+03  0.00000000000E+00 0. -1.
<mgrwt>
<rscale>  0 0.65141083E+03</rscale>
<asrwt>0</asrwt>
<pdfrwt beam="1">0</pdfrwt>
<pdfrwt beam="2">  1        2 0.38576088E+00 0.65141083E+03</pdfrwt>
<totfact> 0.45002511E+00</totfact>
</mgrwt>
</event>
<event>
 5    1  0.2311484E-004  0.6517658E+03  0.7818608E-02  0.9803472E-01
         13   -1    0    0    0    0  0.00000000000E+00  0.00000000000E+00  0.10000000000E+04  0.10000000000E+04  0.00000000000E+00 0. -1.
          2   -1    0    0  501    0 -0.00000000000E+00 -0.00000000000E+00 -0.10619964953E+03  0.10619964953E+03  0.00000000000E+00 0. -1.
    9000006    2    1    2  501    0  0.00000000000E+00  0.00000000000E+00  0.89380035047E+03  0.11061996495E+04  0.65176575401E+03 0.  0.
         13    1    3    3    0    0 -0.45262962618E+02  0.31037710559E+03  0.29684150540E+03  0.43185363584E+03  0.00000000000E+00 0. -1.
          4    1    3    3  501    0  0.45262962618E+02 -0.31037710559E+03  0.59695884507E+03  0.67434601368E+03  0.00000000000E+00 0. -1.
<mgrwt>
<rscale>  0 0.65176575E+03</rscale>
<asrwt>0</asrwt>
<pdfrwt beam="1">0</pdfrwt>
<pdfrwt beam="2">  1        2 0.38618136E+00 0.65176575E+03</pdfrwt>
<totfact> 0.44840033E+00</totfact>
</mgrwt>
</event>
<event>
 5    1  0.2311484E-004  0.5053412E+03  0.7818608E-02  0.1012394E+00
         13   -1    0    0    0    0  0.00000000000E+00  0.00000000000E+00  0.10000000000E+04  0.10000000000E+04  0.00000000000E+00 0. -1.
          2   -1    0    0  501    0 -0.00000000000E+00 -0.00000000000E+00 -0.63842426510E+02  0.63842426510E+02  0.00000000000E+00 0. -1.
    9000006    2    1    2  501    0  0.00000000000E+00  0.00000000000E+00  0.93615757349E+03  0.10638424265E+04  0.50534117786E+03 0.  0.
         13    1    3    3    0    0  0.23660619578E+03  0.52171551803E+02  0.61897987251E+03  0.66471079822E+03  0.00000000000E+00 0. -1.
          2    1    3    3  501    0 -0.23660619578E+03 -0.52171551803E+02  0.31717770098E+03  0.39913162829E+03  0.00000000000E+00 0. -1.
<mgrwt>
<rscale>  0 0.50534118E+03</rscale>
<asrwt>0</asrwt>
<pdfrwt beam="1">0</pdfrwt>
<pdfrwt beam="2">  1        2 0.23215477E+00 0.50534118E+03</pdfrwt>
<totfact> 0.16170233E+01</totfact>
</mgrwt>
</event>
<event>
 5    1  0.2311484E-004  0.6190799E+03  0.7818608E-02  0.9866593E-01
         13   -1    0    0    0    0  0.00000000000E+00  0.00000000000E+00  0.10000000000E+04  0.10000000000E+04  0.00000000000E+00 0. -1.
          2   -1    0    0  501    0 -0.00000000000E+00 -0.00000000000E+00 -0.95814988502E+02  0.95814988502E+02  0.00000000000E+00 0. -1.
    9000006    2    1    2  501    0  0.00000000000E+00  0.00000000000E+00  0.90418501150E+03  0.10958149885E+04  0.61907992538E+03 0.  0.
         13    1    3    3    0    0  0.28995020650E+03 -0.30538193166E+02  0.63613968813E+03  0.69976953799E+03  0.00000000000E+00 0. -1.
          4    1    3    3  501    0 -0.28995020650E+03  0.30538193166E+02  0.26804532337E+03  0.39604545051E+03  0.00000000000E+00 0. -1.
<mgrwt>
<rscale>  0 0.61907993E+03</rscale>
<asrwt>0</asrwt>
<pdfrwt beam="1">0</pdfrwt>
<pdfrwt beam="2">  1        2 0.34841887E+00 0.61907993E+03</pdfrwt>
<totfact> 0.61779955E+00</totfact>
</mgrwt>
</event>
<event>
 5    1  0.2311484E-004  0.6541201E+03  0.7818608E-02  0.9799079E-01
         13   -1    0    0    0    0  0.00000000000E+00  0.00000000000E+00  0.10000000000E+04  0.10000000000E+04  0.00000000000E+00 0. -1.
          2   -1    0    0  501    0 -0.00000000000E+00 -0.00000000000E+00 -0.10696829222E+03  0.10696829222E+03  0.00000000000E+00 0. -1.
    9000006    2    1    2  501    0  0.00000000000E+00  0.00000000000E+00  0.89303170778E+03  0.11069682922E+04  0.65412014866E+03 0.  0.
         13    1    3    3    0    0  0.15598242537E+03  0.28527058110E+03  0.38648158605E+03  0.50505231196E+03  0.00000000000E+00 0. -1.
          4    1    3    3  501    0 -0.15598242537E+03 -0.28527058110E+03  0.50655012173E+03  0.60191598026E+03  0.00000000000E+00 0. -1.
<mgrwt>
<rscale>  0 0.65412015E+03</rscale>
<asrwt>0</asrwt>
<pdfrwt beam="1">0</pdfrwt>
<pdfrwt beam="2">  1        2 0.38897643E+00 0.65412015E+03</pdfrwt>
<totfact> 0.43773415E+00</totfact>
</mgrwt>
</event>
<event>
 5    1  0.2311484E-004  0.6562962E+03  0.7818608E-02  0.9795036E-01
         13   -1    0    0    0    0  0.00000000000E+00  0.00000000000E+00  0.10000000000E+04  0.10000000000E+04  0.00000000000E+00 0. -1.
          2   -1    0    0  501    0 -0.00000000000E+00 -0.00000000000E+00 -0.10768118082E+03  0.10768118082E+03  0.00000000000E+00 0. -1.
    9000006    2    1    2  501    0  0.00000000000E+00  0.00000000000E+00  0.89231881918E+03  0.11076811808E+04  0.65629621611E+03 0.  0.
         13    1    3    3    0    0 -0.19232277047E+03  0.23614264883E+03  0.23993426692E+03  0.38771104070E+03  0.00000000000E+00 0. -1.
          2    1    3    3  501    0  0.19232277047E+03 -0.23614264883E+03  0.65238455226E+03  0.71997014012E+03  0.00000000000E+00 0. -1.
<mgrwt>
<rscale>  0 0.65629622E+03</rscale>
<asrwt>0</asrwt>
<pdfrwt beam="1">0</pdfrwt>
<pdfrwt beam="2">  1        2 0.39156876E+00 0.65629622E+03</pdfrwt>
<totfact> 0.42804732E+00</totfact>
</mgrwt>
</event>
<event>
 5    1  0.2311484E-004  0.6493465E+03  0.7818608E-02  0.9808006E-01
         13   -1    0    0    0    0  0.00000000000E+00  0.00000000000E+00  0.10000000000E+04  0.10000000000E+04  0.00000000000E+00 0. -1.
          2   -1    0    0  501    0 -0.00000000000E+00 -0.00000000000E+00 -0.10541271606E+03  0.10541271606E+03  0.00000000000E+00 0. -1.
    9000006    2    1    2  501    0  0.00000000000E+00  0.00000000000E+00  0.89458728394E+03  0.11054127161E+04  0.64934649012E+03 0.  0.
         13    1    3    3    0    0 -0.98042183340E+02 -0.24219421502E+03  0.11921119900E+03  0.28719613067E+03  0.00000000000E+00 0. -1.
          4    1    3    3  501    0  0.98042183340E+02  0.24219421502E+03  0.77537608495E+03  0.81821658539E+03  0.00000000000E+00 0. -1.
<mgrwt>
<rscale>  0 0.64934649E+03</rscale>
<asrwt>0</asrwt>
<pdfrwt beam="1">0</pdfrwt>
<pdfrwt beam="2">  1        2 0.38331978E+00 0.64934649E+03</pdfrwt>
<totfact> 0.45956374E+00</totfact>
</mgrwt>
</event>
<event>
 5    1  0.2311484E-004  0.6445764E+03  0.7818608E-02  0.9817010E-01
         13   -1    0    0    0    0  0.00000000000E+00  0.00000000000E+00  0.10000000000E+04  0.10000000000E+04  0.00000000000E+00 0. -1.
          2   -1    0    0  501    0 -0.00000000000E+00 -0.00000000000E+00 -0.10386967216E+03  0.10386967216E+03  0.00000000000E+00 0. -1.
    9000006    2    1    2  501    0  0.00000000000E+00  0.00000000000E+00  0.89613032784E+03  0.11038696722E+04  0.64457636370E+03 0.  0.
         13    1    3    3    0    0 -0.15876356344E+03  0.27818036352E+03  0.38680733407E+03  0.50220523436E+03  0.00000000000E+00 0. -1.
          4    1    3    3  501    0  0.15876356344E+03 -0.27818036352E+03  0.50932299377E+03  0.60166443780E+03  0.00000000000E+00 0. -1.
<mgrwt>
<rscale>  0 0.64457636E+03</rscale>
<asrwt>0</asrwt>
<pdfrwt beam="1">0</pdfrwt>
<pdfrwt beam="2">  1        2 0.37770870E+00 0.64457636E+03</pdfrwt>
<totfact> 0.48218930E+00</totfact>
</mgrwt>
</event>
<event>
 5    1  0.2311484E-004  0.6716739E+03  0.7818608E-02  0.9766939E-01
         13   -1    0    0    0    0  0.00000000000E+00  0.00000000000E+00  0.10000000000E+04  0.10000000000E+04  0.00000000000E+00 0. -1.
          2   -1    0    0  501    0 -0.00000000000E+00 -0.00000000000E+00 -0.11278644120E+03  0.11278644120E+03  0.00000000000E+00 0. -1.
    9000006    2    1    2  501    0  0.00000000000E+00  0.00000000000E+00  0.88721355880E+03  0.11127864412E+04  0.67167385301E+03 0.  0.
         13    1    3    3    0    0 -0.37481239756E+02 -0.12371827030E+03 -0.69915694949E+02  0.14696686069E+03  0.00000000000E+00 0. -1.
          2    1    3    3  501    0  0.37481239756E+02  0.12371827030E+03  0.95712925374E+03  0.96581958052E+03  0.00000000000E+00 0. -1.
<mgrwt>
<rscale>  0 0.67167385E+03</rscale>
<asrwt>0</asrwt>
<pdfrwt beam="1">0</pdfrwt>
<pdfrwt beam="2">  1        2 0.41013338E+00 0.67167385E+03</pdfrwt>
<totfact> 0.36412785E+00</totfact>
</mgrwt>
</event>
<event>
 5    1  0.2311484E-004  0.6555363E+03  0.7818608E-02  0.9796446E-01
         13   -1    0    0    0    0  0.00000000000E+00  0.00000000000E+00  0.10000000000E+04  0.10000000000E+04  0.00000000000E+00 0. -1.
          2   -1    0    0  501    0 -0.00000000000E+00 -0.00000000000E+00 -0.10743196751E+03  0.10743196751E+03  0.00000000000E+00 0. -1.
    9000006    2    1    2  501    0  0.00000000000E+00  0.00000000000E+00  0.89256803249E+03  0.11074319675E+04  0.65553632243E+03 0.  0.
         13    1    3    3    0    0 -0.27240998780E+03  0.18041779625E+03  0.40241985905E+03  0.51836234973E+03  0.00000000000E+00 0. -1.
          4    1    3    3  501    0  0.27240998780E+03 -0.18041779625E+03  0.49014817344E+03  0.58906961777E+03  0.00000000000E+00 0. -1.
<mgrwt>
<rscale>  0 0.65553632E+03</rscale>
<asrwt>0</asrwt>
<pdfrwt beam="1">0</pdfrwt>
<pdfrwt beam="2">  1        2 0.39066252E+00 0.65553632E+03</pdfrwt>
<totfact> 0.43141142E+00</totfact>
</mgrwt>
</event>
<event>
 5    1  0.2311484E-004  0.6517593E+03  0.7818608E-02  0.9803484E-01
         13   -1    0    0    0    0  0.00000000000E+00  0.00000000000E+00  0.10000000000E+04  0.10000000000E+04  0.00000000000E+00 0. -1.
          2   -1    0    0  501    0 -0.00000000000E+00 -0.00000000000E+00 -0.10619753942E+03  0.10619753942E+03  0.00000000000E+00 0. -1.
    9000006    2    1    2  501    0  0.00000000000E+00  0.00000000000E+00  0.89380246058E+03  0.11061975394E+04  0.65175927892E+03 0.  0.
         13    1    3    3    0    0  0.83619136947E+01  0.32571923313E+03  0.45688459930E+03  0.56116528538E+03  0.00000000000E+00 0. -1.
          2    1    3    3  501    0 -0.83619136947E+01 -0.32571923313E+03  0.43691786128E+03  0.54503225404E+03  0.00000000000E+00 0. -1.
<mgrwt>
<rscale>  0 0.65175928E+03</rscale>
<asrwt>0</asrwt>
<pdfrwt beam="1">0</pdfrwt>
<pdfrwt beam="2">  1        2 0.38617368E+00 0.65175928E+03</pdfrwt>
<totfact> 0.44842993E+00</totfact>
</mgrwt>
</event>
<event>
 5    1  0.2311484E-004  0.7052056E+03  0.7818608E-02  0.9708371E-01
         13   -1    0    0    0    0  0.00000000000E+00  0.00000000000E+00  0.10000000000E+04  0.10000000000E+04  0.00000000000E+00 0. -1.
          2   -1    0    0  501    0 -0.00000000000E+00 -0.00000000000E+00 -0.12432872836E+03  0.12432872836E+03  0.00000000000E+00 0. -1.
    9000006    2    1    2  501    0  0.00000000000E+00  0.00000000000E+00  0.87567127164E+03  0.11243287284E+04  0.70520558240E+03 0.  0.
         13    1    3    3    0    0 -0.46109673228E+02 -0.11240851099E+03  0.96557241045E+03  0.97318644418E+03  0.00000000000E+00 0. -1.
          4    1    3    3  501    0  0.46109673228E+02  0.11240851099E+03 -0.89901138816E+02  0.15114228418E+03  0.00000000000E+00 0. -1.
<mgrwt>
<rscale>  0 0.70520558E+03</rscale>
<asrwt>0</asrwt>
<pdfrwt beam="1">0</pdfrwt>
<pdfrwt beam="2">  1        2 0.45210542E+00 0.70520558E+03</pdfrwt>
<totfact> 0.24982960E+00</totfact>
</mgrwt>
</event>
<event>
 5    1  0.2311484E-004  0.6143688E+03  0.7818608E-02  0.9876036E-01
         13   -1    0    0    0    0  0.00000000000E+00  0.00000000000E+00  0.10000000000E+04  0.10000000000E+04  0.00000000000E+00 0. -1.
          2   -1    0    0  501    0 -0.00000000000E+00 -0.00000000000E+00 -0.94362251716E+02  0.94362251716E+02  0.00000000000E+00 0. -1.
    9000006    2    1    2  501    0  0.00000000000E+00  0.00000000000E+00  0.90563774828E+03  0.10943622517E+04  0.61436878735E+03 0.  0.
         13    1    3    3    0    0 -0.22749593760E+03 -0.20155948107E+03  0.53211332066E+03  0.61280111950E+03  0.00000000000E+00 0. -1.
          4    1    3    3  501    0  0.22749593760E+03  0.20155948107E+03  0.37352442762E+03  0.48156113222E+03  0.00000000000E+00 0. -1.
<mgrwt>
<rscale>  0 0.61436879E+03</rscale>
<asrwt>0</asrwt>
<pdfrwt beam="1">0</pdfrwt>
<pdfrwt beam="2">  1        2 0.34313618E+00 0.61436879E+03</pdfrwt>
<totfact> 0.64573471E+00</totfact>
</mgrwt>
</event>
<event>
 5    1  0.2311484E-004  0.6574168E+03  0.7818608E-02  0.9792961E-01
         13   -1    0    0    0    0  0.00000000000E+00  0.00000000000E+00  0.10000000000E+04  0.10000000000E+04  0.00000000000E+00 0. -1.
          2   -1    0    0  501    0 -0.00000000000E+00 -0.00000000000E+00 -0.10804922401E+03  0.10804922401E+03  0.00000000000E+00 0. -1.
    9000006    2    1    2  501    0  0.00000000000E+00  0.00000000000E+00  0.89195077599E+03  0.11080492240E+04  0.65741683582E+03 0.  0.
         13    1    3    3    0    0  0.30266001218E+03  0.12723582463E+03  0.41894564835E+03  0.53226637533E+03  0.00000000000E+00 0. -1.
          4    1    3    3  501    0 -0.30266001218E+03 -0.12723582463E+03  0.47300512765E+03  0.57578284867E+03  0.00000000000E+00 0. -1.
<mgrwt>
<rscale>  0 0.65741684E+03</rscale>
<asrwt>0</asrwt>
<pdfrwt beam="1">0</pdfrwt>
<pdfrwt beam="2">  1        2 0.39290710E+00 0.65741684E+03</pdfrwt>
<totfact> 0.42312246E+00</totfact>
</mgrwt>
</event>
<event>
 5    1  0.2311484E-004  0.6379650E+03  0.7818608E-02  0.9829628E-01
         13   -1    0    0    0    0  0.00000000000E+00  0.00000000000E+00  0.10000000000E+04  0.10000000000E+04  0.00000000000E+00 0. -1.
          4   -1    0    0  501    0 -0.00000000000E+00 -0.00000000000E+00 -0.10174984576E+03  0.10174984576E+03  0.00000000000E+00 0. -1.
    9000006    2    1    2  501    0  0.00000000000E+00  0.00000000000E+00  0.89825015424E+03  0.11017498458E+04  0.63796503277E+03 0.  0.
         13    1    3    3    0    0 -0.30830958978E+03 -0.74776490157E+02  0.39175623885E+03  0.50410244724E+03  0.00000000000E+00 0. -1.
          4    1    3    3  501    0  0.30830958978E+03  0.74776490157E+02  0.50649391539E+03  0.59764739852E+03  0.00000000000E+00 0. -1.
<mgrwt>
<rscale>  0 0.63796503E+03</rscale>
<asrwt>0</asrwt>
<pdfrwt beam="1">0</pdfrwt>
<pdfrwt beam="2">  1        4 0.37000022E+00 0.63796503E+03</pdfrwt>
<totfact> 0.51162280E-02</totfact>
</mgrwt>
</event>
<event>
 5    1  0.2311484E-004  0.6236213E+03  0.7818608E-02  0.9857576E-01
         13   -1    0    0    0    0  0.00000000000E+00  0.00000000000E+00  0.10000000000E+04  0.10000000000E+04  0.00000000000E+00 0. -1.
          2   -1    0    0  501    0 -0.00000000000E+00 -0.00000000000E+00 -0.97225893019E+02  0.97225893019E+02  0.00000000000E+00 0. -1.
    9000006    2    1    2  501    0  0.00000000000E+00  0.00000000000E+00  0.90277410698E+03  0.10972258930E+04  0.62362133709E+03 0.  0.
         13    1    3    3    0    0  0.90051193518E+02  0.61594253133E+02 -0.62547350284E+02  0.12575865974E+03  0.00000000000E+00 0. -1.
          2    1    3    3  501    0 -0.90051193518E+02 -0.61594253133E+02  0.96532145726E+03  0.97146723328E+03  0.00000000000E+00 0. -1.
<mgrwt>
<rscale>  0 0.62362134E+03</rscale>
<asrwt>0</asrwt>
<pdfrwt beam="1">0</pdfrwt>
<pdfrwt beam="2">  1        2 0.35354945E+00 0.62362134E+03</pdfrwt>
<totfact> 0.59175117E+00</totfact>
</mgrwt>
</event>
<event>
 5    1  0.2311484E-004  0.6614842E+03  0.7818608E-02  0.9785465E-01
         13   -1    0    0    0    0  0.00000000000E+00  0.00000000000E+00  0.10000000000E+04  0.10000000000E+04  0.00000000000E+00 0. -1.
          2   -1    0    0  501    0 -0.00000000000E+00 -0.00000000000E+00 -0.10939034019E+03  0.10939034019E+03  0.00000000000E+00 0. -1.
    9000006    2    1    2  501    0  0.00000000000E+00  0.00000000000E+00  0.89060965981E+03  0.11093903402E+04  0.66148421052E+03 0.  0.
         13    1    3    3    0    0 -0.23004231564E+03 -0.13541815067E+03  0.11780262180E+03  0.29177902636E+03  0.00000000000E+00 0. -1.
          2    1    3    3  501    0  0.23004231564E+03  0.13541815067E+03  0.77280703800E+03  0.81761131383E+03  0.00000000000E+00 0. -1.
<mgrwt>
<rscale>  0 0.66148421E+03</rscale>
<asrwt>0</asrwt>
<pdfrwt beam="1">0</pdfrwt>
<pdfrwt beam="2">  1        2 0.39778389E+00 0.66148421E+03</pdfrwt>
<totfact> 0.40560704E+00</totfact>
</mgrwt>
</event>
<event>
 5    1  0.2311484E-004  0.6571569E+03  0.7818608E-02  0.9793442E-01
         13   -1    0    0    0    0  0.00000000000E+00  0.00000000000E+00  0.10000000000E+04  0.10000000000E+04  0.00000000000E+00 0. -1.
          2   -1    0    0  501    0 -0.00000000000E+00 -0.00000000000E+00 -0.10796378708E+03  0.10796378708E+03  0.00000000000E+00 0. -1.
    9000006    2    1    2  501    0  0.00000000000E+00  0.00000000000E+00  0.89203621292E+03  0.11079637871E+04  0.65715686736E+03 0.  0.
         13    1    3    3    0    0  0.12430057762E+03 -0.56844832531E+02  0.94979475061E+03  0.95957909360E+03  0.00000000000E+00 0. -1.
          4    1    3    3  501    0 -0.12430057762E+03  0.56844832531E+02 -0.57758537691E+02  0.14838469348E+03  0.00000000000E+00 0. -1.
<mgrwt>
<rscale>  0 0.65715687E+03</rscale>
<asrwt>0</asrwt>
<pdfrwt beam="1">0</pdfrwt>
<pdfrwt beam="2">  1        2 0.39259642E+00 0.65715687E+03</pdfrwt>
<totfact> 0.42426113E+00</totfact>
</mgrwt>
</event>
<event>
 5    1  0.2311484E-004  0.6590521E+03  0.7818608E-02  0.9789940E-01
         13   -1    0    0    0    0  0.00000000000E+00  0.00000000000E+00  0.10000000000E+04  0.10000000000E+04  0.00000000000E+00 0. -1.
          2   -1    0    0  501    0 -0.00000000000E+00 -0.00000000000E+00 -0.10858743102E+03  0.10858743102E+03  0.00000000000E+00 0. -1.
    9000006    2    1    2  501    0  0.00000000000E+00  0.00000000000E+00  0.89141256898E+03  0.11085874310E+04  0.65905214063E+03 0.  0.
         13    1    3    3    0    0 -0.11671225659E+03 -0.28966962838E+03  0.62258374498E+03  0.69652046916E+03  0.00000000000E+00 0. -1.
          4    1    3    3  501    0  0.11671225659E+03  0.28966962838E+03  0.26882882400E+03  0.41206696186E+03  0.00000000000E+00 0. -1.
<mgrwt>
<rscale>  0 0.65905214E+03</rscale>
<asrwt>0</asrwt>
<pdfrwt beam="1">0</pdfrwt>
<pdfrwt beam="2">  1        2 0.39486422E+00 0.65905214E+03</pdfrwt>
<totfact> 0.41601290E+00</totfact>
</mgrwt>
</event>
<event>
 5    1  0.2311484E-004  0.6562948E+03  0.7818608E-02  0.9795039E-01
         13   -1    0    0    0    0  0.00000000000E+00  0.00000000000E+00  0.10000000000E+04  0.10000000000E+04  0.00000000000E+00 0. -1.
          2   -1    0    0  501    0 -0.00000000000E+00 -0.00000000000E+00 -0.10768073023E+03  0.10768073023E+03  0.00000000000E+00 0. -1.
    9000006    2    1    2  501    0  0.00000000000E+00  0.00000000000E+00  0.89231926977E+03  0.11076807302E+04  0.65629484299E+03 0.  0.
         13    1    3    3    0    0  0.41793841689E+02  0.26217012239E+03  0.77169032220E+03  0.81607956208E+03  0.00000000000E+00 0. -1.
          2    1    3    3  501    0 -0.41793841689E+02 -0.26217012239E+03  0.12062894757E+03  0.29160116815E+03  0.00000000000E+00 0. -1.
<mgrwt>
<rscale>  0 0.65629484E+03</rscale>
<asrwt>0</asrwt>
<pdfrwt beam="1">0</pdfrwt>
<pdfrwt beam="2">  1        2 0.39156712E+00 0.65629484E+03</pdfrwt>
<totfact> 0.42805338E+00</totfact>
</mgrwt>
</event>
<event>
 5    1  0.2311484E-004  0.6495997E+03  0.7818608E-02  0.9807531E-01
         13   -1    0    0    0    0  0.00000000000E+00  0.00000000000E+00  0.10000000000E+04  0.10000000000E+04  0.00000000000E+00 0. -1.
          2   -1    0    0  501    0 -0.00000000000E+00 -0.00000000000E+00 -0.10549492668E+03  0.10549492668E+03  0.00000000000E+00 0. -1.
    9000006    2    1    2  501    0  0.00000000000E+00  0.00000000000E+00  0.89450507332E+03  0.11054949267E+04  0.64959965110E+03 0.  0.
         13    1    3    3    0    0 -0.12995116763E+03 -0.11880677363E+03  0.91173300180E+03  0.92857924917E+03  0.00000000000E+00 0. -1.
          4    1    3    3  501    0  0.12995116763E+03  0.11880677363E+03 -0.17227928477E+02  0.17691567750E+03  0.00000000000E+00 0. -1.
<mgrwt>
<rscale>  0 0.64959965E+03</rscale>
<asrwt>0</asrwt>
<pdfrwt beam="1">0</pdfrwt>
<pdfrwt beam="2">  1        2 0.38361872E+00 0.64959965E+03</pdfrwt>
<totfact> 0.45838582E+00</totfact>
</mgrwt>
</event>
<event>
 5    1  0.2311484E-004  0.6477007E+03  0.7818608E-02  0.9811103E-01
         13   -1    0    0    0    0  0.00000000000E+00  0.00000000000E+00  0.10000000000E+04  0.10000000000E+04  0.00000000000E+00 0. -1.
          2   -1    0    0  501    0 -0.00000000000E+00 -0.00000000000E+00 -0.10487905159E+03  0.10487905159E+03  0.00000000000E+00 0. -1.
    9000006    2    1    2  501    0  0.00000000000E+00  0.00000000000E+00  0.89512094841E+03  0.11048790516E+04  0.64770070738E+03 0.  0.
         13    1    3    3    0    0 -0.81181311974E+02 -0.78130695232E+02  0.96548766216E+03  0.97203973002E+03  0.00000000000E+00 0. -1.
          4    1    3    3  501    0  0.81181311974E+02  0.78130695232E+02 -0.70366713746E+02  0.13283932157E+03  0.00000000000E+00 0. -1.
<mgrwt>
<rscale>  0 0.64770071E+03</rscale>
<asrwt>0</asrwt>
<pdfrwt beam="1">0</pdfrwt>
<pdfrwt beam="2">  1        2 0.38137917E+00 0.64770071E+03</pdfrwt>
<totfact> 0.46727719E+00</totfact>
</mgrwt>
</event>
<event>
 5    1  0.2311484E-004  0.6516827E+03  0.7818608E-02  0.9803627E-01
         13   -1    0    0    0    0  0.00000000000E+00  0.00000000000E+00  0.10000000000E+04  0.10000000000E+04  0.00000000000E+00 0. -1.
          2   -1    0    0  501    0 -0.00000000000E+00 -0.00000000000E+00 -0.10617258505E+03  0.10617258505E+03  0.00000000000E+00 0. -1.
    9000006    2    1    2  501    0  0.00000000000E+00  0.00000000000E+00  0.89382741495E+03  0.11061725850E+04  0.65168269901E+03 0.  0.
         13    1    3    3    0    0 -0.28426057215E+03 -0.15924444649E+03  0.44162213510E+03  0.54881051086E+03  0.00000000000E+00 0. -1.
          2    1    3    3  501    0  0.28426057215E+03  0.15924444649E+03  0.45220527985E+03  0.55736207419E+03  0.00000000000E+00 0. -1.
<mgrwt>
<rscale>  0 0.65168270E+03</rscale>
<asrwt>0</asrwt>
<pdfrwt beam="1">0</pdfrwt>
<pdfrwt beam="2">  1        2 0.38608294E+00 0.65168270E+03</pdfrwt>
<totfact> 0.44878014E+00</totfact>
</mgrwt>
</event>
<event>
 5    1  0.2311484E-004  0.5305846E+03  0.7818608E-02  0.1006090E+00
         13   -1    0    0    0    0  0.00000000000E+00  0.00000000000E+00  0.10000000000E+04  0.10000000000E+04  0.00000000000E+00 0. -1.
          2   -1    0    0  501    0 -0.00000000000E+00 -0.00000000000E+00 -0.70380010986E+02  0.70380010986E+02  0.00000000000E+00 0. -1.
    9000006    2    1    2  501    0  0.00000000000E+00  0.00000000000E+00  0.92961998901E+03  0.10703800110E+04  0.53058462468E+03 0.  0.
         13    1    3    3    0    0 -0.26323656409E+03 -0.32029029296E+02  0.48052257063E+03  0.54883630371E+03  0.00000000000E+00 0. -1.
          2    1    3    3  501    0  0.26323656409E+03  0.32029029296E+02  0.44909741839E+03  0.52154370727E+03  0.00000000000E+00 0. -1.
<mgrwt>
<rscale>  0 0.53058462E+03</rscale>
<asrwt>0</asrwt>
<pdfrwt beam="1">0</pdfrwt>
<pdfrwt beam="2">  1        2 0.25592785E+00 0.53058462E+03</pdfrwt>
<totfact> 0.13272569E+01</totfact>
</mgrwt>
</event>
<event>
 5    1  0.2311484E-004  0.6525754E+03  0.7818608E-02  0.9801959E-01
         13   -1    0    0    0    0  0.00000000000E+00  0.00000000000E+00  0.10000000000E+04  0.10000000000E+04  0.00000000000E+00 0. -1.
          2   -1    0    0  501    0 -0.00000000000E+00 -0.00000000000E+00 -0.10646365442E+03  0.10646365442E+03  0.00000000000E+00 0. -1.
    9000006    2    1    2  501    0  0.00000000000E+00  0.00000000000E+00  0.89353634558E+03  0.11064636544E+04  0.65257537317E+03 0.  0.
         13    1    3    3    0    0  0.31262522842E+03  0.74337513865E+02  0.35080851944E+03  0.47573860125E+03  0.00000000000E+00 0. -1.
          4    1    3    3  501    0 -0.31262522842E+03 -0.74337513865E+02  0.54272782615E+03  0.63072505316E+03  0.00000000000E+00 0. -1.
<mgrwt>
<rscale>  0 0.65257537E+03</rscale>
<asrwt>0</asrwt>
<pdfrwt beam="1">0</pdfrwt>
<pdfrwt beam="2">  1        2 0.38714138E+00 0.65257537E+03</pdfrwt>
<totfact> 0.44471059E+00</totfact>
</mgrwt>
</event>
<event>
 5    1  0.2311484E-004  0.6367188E+03  0.7818608E-02  0.9832025E-01
         13   -1    0    0    0    0  0.00000000000E+00  0.00000000000E+00  0.10000000000E+04  0.10000000000E+04  0.00000000000E+00 0. -1.
          2   -1    0    0  501    0 -0.00000000000E+00 -0.00000000000E+00 -0.10135269553E+03  0.10135269553E+03  0.00000000000E+00 0. -1.
    9000006    2    1    2  501    0  0.00000000000E+00  0.00000000000E+00  0.89864730447E+03  0.11013526955E+04  0.63671876220E+03 0.  0.
         13    1    3    3    0    0 -0.17372426203E+03  0.26586185591E+03  0.48761484712E+03  0.58191999861E+03  0.00000000000E+00 0. -1.
          4    1    3    3  501    0  0.17372426203E+03 -0.26586185591E+03  0.41103245734E+03  0.51943269692E+03  0.00000000000E+00 0. -1.
<mgrwt>
<rscale>  0 0.63671876E+03</rscale>
<asrwt>0</asrwt>
<pdfrwt beam="1">0</pdfrwt>
<pdfrwt beam="2">  1        2 0.36855603E+00 0.63671876E+03</pdfrwt>
<totfact> 0.52128831E+00</totfact>
</mgrwt>
</event>
<event>
 5    1  0.2311484E-004  0.6725306E+03  0.7818608E-02  0.9765397E-01
         13   -1    0    0    0    0  0.00000000000E+00  0.00000000000E+00  0.10000000000E+04  0.10000000000E+04  0.00000000000E+00 0. -1.
          2   -1    0    0  501    0 -0.00000000000E+00 -0.00000000000E+00 -0.11307435591E+03  0.11307435591E+03  0.00000000000E+00 0. -1.
    9000006    2    1    2  501    0  0.00000000000E+00  0.00000000000E+00  0.88692564409E+03  0.11130743559E+04  0.67253061166E+03 0.  0.
         13    1    3    3    0    0  0.30370815277E+03  0.11612137561E+03  0.30155665108E+03  0.44346277154E+03  0.00000000000E+00 0. -1.
          4    1    3    3  501    0 -0.30370815277E+03 -0.11612137561E+03  0.58536899301E+03  0.66961158436E+03  0.00000000000E+00 0. -1.
<mgrwt>
<rscale>  0 0.67253061E+03</rscale>
<asrwt>0</asrwt>
<pdfrwt beam="1">0</pdfrwt>
<pdfrwt beam="2">  1        2 0.41118034E+00 0.67253061E+03</pdfrwt>
<totfact> 0.36079228E+00</totfact>
</mgrwt>
</event>
<event>
 5    1  0.2311484E-004  0.6228892E+03  0.7818608E-02  0.9859024E-01
         13   -1    0    0    0    0  0.00000000000E+00  0.00000000000E+00  0.10000000000E+04  0.10000000000E+04  0.00000000000E+00 0. -1.
          2   -1    0    0  501    0 -0.00000000000E+00 -0.00000000000E+00 -0.96997735660E+02  0.96997735660E+02  0.00000000000E+00 0. -1.
    9000006    2    1    2  501    0  0.00000000000E+00  0.00000000000E+00  0.90300226434E+03  0.10969977357E+04  0.62288918969E+03 0.  0.
         13    1    3    3    0    0  0.11043548764E+02  0.20085037861E+03  0.32752640408E+02  0.20380277233E+03  0.00000000000E+00 0. -1.
          2    1    3    3  501    0 -0.11043548764E+02 -0.20085037861E+03  0.87024962393E+03  0.89319496333E+03  0.00000000000E+00 0. -1.
<mgrwt>
<rscale>  0 0.62288919E+03</rscale>
<asrwt>0</asrwt>
<pdfrwt beam="1">0</pdfrwt>
<pdfrwt beam="2">  1        2 0.35271978E+00 0.62288919E+03</pdfrwt>
<totfact> 0.59589301E+00</totfact>
</mgrwt>
</event>
<event>
 5    1  0.2311484E-004  0.6517349E+03  0.7818608E-02  0.9803529E-01
         13   -1    0    0    0    0  0.00000000000E+00  0.00000000000E+00  0.10000000000E+04  0.10000000000E+04  0.00000000000E+00 0. -1.
          2   -1    0    0  501    0 -0.00000000000E+00 -0.00000000000E+00 -0.10618958214E+03  0.10618958214E+03  0.00000000000E+00 0. -1.
    9000006    2    1    2  501    0  0.00000000000E+00  0.00000000000E+00  0.89381041786E+03  0.11061895821E+04  0.65173486063E+03 0.  0.
         13    1    3    3    0    0 -0.13302769764E+03  0.40389643494E+02  0.94713926020E+03  0.95728808091E+03  0.00000000000E+00 0. -1.
          4    1    3    3  501    0  0.13302769764E+03 -0.40389643494E+02 -0.53328842343E+02  0.14890150123E+03  0.00000000000E+00 0. -1.
<mgrwt>
<rscale>  0 0.65173486E+03</rscale>
<asrwt>0</asrwt>
<pdfrwt beam="1">0</pdfrwt>
<pdfrwt beam="2">  1        2 0.38614475E+00 0.65173486E+03</pdfrwt>
<totfact> 0.44854157E+00</totfact>
</mgrwt>
</event>
<event>
 5    1  0.2311484E-004  0.6589364E+03  0.7818608E-02  0.9790154E-01
         13   -1    0    0    0    0  0.00000000000E+00  0.00000000000E+00  0.10000000000E+04  0.10000000000E+04  0.00000000000E+00 0. -1.
          2   -1    0    0  501    0 -0.00000000000E+00 -0.00000000000E+00 -0.10854928949E+03  0.10854928949E+03  0.00000000000E+00 0. -1.
    9000006    2    1    2  501    0  0.00000000000E+00  0.00000000000E+00  0.89145071051E+03  0.11085492895E+04  0.65893638385E+03 0.  0.
         13    1    3    3    0    0  0.19629639914E+03 -0.16585095983E+02  0.89000718913E+03  0.91154820960E+03  0.00000000000E+00 0. -1.
          4    1    3    3  501    0 -0.19629639914E+03  0.16585095983E+02  0.14435213807E+01  0.19700107989E+03  0.00000000000E+00 0. -1.
<mgrwt>
<rscale>  0 0.65893638E+03</rscale>
<asrwt>0</asrwt>
<pdfrwt beam="1">0</pdfrwt>
<pdfrwt beam="2">  1        2 0.39472552E+00 0.65893638E+03</pdfrwt>
<totfact> 0.41651315E+00</totfact>
</mgrwt>
</event>
<event>
 5    1  0.2311484E-004  0.6476031E+03  0.7818608E-02  0.9811287E-01
         13   -1    0    0    0    0  0.00000000000E+00  0.00000000000E+00  0.10000000000E+04  0.10000000000E+04  0.00000000000E+00 0. -1.
          2   -1    0    0  501    0 -0.00000000000E+00 -0.00000000000E+00 -0.10484745264E+03  0.10484745264E+03  0.00000000000E+00 0. -1.
    9000006    2    1    2  501    0  0.00000000000E+00  0.00000000000E+00  0.89515254736E+03  0.11048474526E+04  0.64760312735E+03 0.  0.
         13    1    3    3    0    0  0.30599704940E+03  0.83737741437E+02  0.33699474347E+03  0.46283005596E+03  0.00000000000E+00 0. -1.
          4    1    3    3  501    0 -0.30599704940E+03 -0.83737741437E+02  0.55815780390E+03  0.64201739667E+03  0.00000000000E+00 0. -1.
<mgrwt>
<rscale>  0 0.64760313E+03</rscale>
<asrwt>0</asrwt>
<pdfrwt beam="1">0</pdfrwt>
<pdfrwt beam="2">  1        2 0.38126427E+00 0.64760313E+03</pdfrwt>
<totfact> 0.46773758E+00</totfact>
</mgrwt>
</event>
<event>
 5    1  0.2311484E-004  0.6408115E+03  0.7818608E-02  0.9824175E-01
         13   -1    0    0    0    0  0.00000000000E+00  0.00000000000E+00  0.10000000000E+04  0.10000000000E+04  0.00000000000E+00 0. -1.
          2   -1    0    0  501    0 -0.00000000000E+00 -0.00000000000E+00 -0.10265985191E+03  0.10265985191E+03  0.00000000000E+00 0. -1.
    9000006    2    1    2  501    0  0.00000000000E+00  0.00000000000E+00  0.89734014809E+03  0.11026598519E+04  0.64081152273E+03 0.  0.
         13    1    3    3    0    0  0.23644822253E+03  0.19461546528E+03  0.28654799143E+03  0.41939562785E+03  0.00000000000E+00 0. -1.
          2    1    3    3  501    0 -0.23644822253E+03 -0.19461546528E+03  0.61079215665E+03  0.68326422407E+03  0.00000000000E+00 0. -1.
<mgrwt>
<rscale>  0 0.64081152E+03</rscale>
<asrwt>0</asrwt>
<pdfrwt beam="1">0</pdfrwt>
<pdfrwt beam="2">  1        2 0.37330934E+00 0.64081152E+03</pdfrwt>
<totfact> 0.50063457E+00</totfact>
</mgrwt>
</event>
<event>
 5    1  0.2311484E-004  0.6720472E+03  0.7818608E-02  0.9766267E-01
         13   -1    0    0    0    0  0.00000000000E+00  0.00000000000E+00  0.10000000000E+04  0.10000000000E+04  0.00000000000E+00 0. -1.
          2   -1    0    0  501    0 -0.00000000000E+00 -0.00000000000E+00 -0.11291185176E+03  0.11291185176E+03  0.00000000000E+00 0. -1.
    9000006    2    1    2  501    0  0.00000000000E+00  0.00000000000E+00  0.88708814824E+03  0.11129118518E+04  0.67204717621E+03 0.  0.
         13    1    3    3    0    0  0.25024376868E+03 -0.10875116212E+03  0.76831946025E+03  0.81533033307E+03  0.00000000000E+00 0. -1.
          4    1    3    3  501    0 -0.25024376868E+03  0.10875116212E+03  0.11876868799E+03  0.29758151870E+03  0.00000000000E+00 0. -1.
<mgrwt>
<rscale>  0 0.67204718E+03</rscale>
<asrwt>0</asrwt>
<pdfrwt beam="1">0</pdfrwt>
<pdfrwt beam="2">  1        2 0.41058942E+00 0.67204718E+03</pdfrwt>
<totfact> 0.36267157E+00</totfact>
</mgrwt>
</event>
<event>
 5    1  0.2311484E-004  0.6520315E+03  0.7818608E-02  0.9802975E-01
         13   -1    0    0    0    0  0.00000000000E+00  0.00000000000E+00  0.10000000000E+04  0.10000000000E+04  0.00000000000E+00 0. -1.
          2   -1    0    0  501    0 -0.00000000000E+00 -0.00000000000E+00 -0.10628627940E+03  0.10628627940E+03  0.00000000000E+00 0. -1.
    9000006    2    1    2  501    0  0.00000000000E+00  0.00000000000E+00  0.89371372060E+03  0.11062862794E+04  0.65203153113E+03 0.  0.
         13    1    3    3    0    0  0.31616237224E+03  0.79544815347E+02  0.44771553343E+03  0.55383681906E+03  0.00000000000E+00 0. -1.
          2    1    3    3  501    0 -0.31616237224E+03 -0.79544815347E+02  0.44599818717E+03  0.55244946034E+03  0.00000000000E+00 0. -1.
<mgrwt>
<rscale>  0 0.65203153E+03</rscale>
<asrwt>0</asrwt>
<pdfrwt beam="1">0</pdfrwt>
<pdfrwt beam="2">  1        2 0.38649638E+00 0.65203153E+03</pdfrwt>
<totfact> 0.44718654E+00</totfact>
</mgrwt>
</event>
<event>
 5    1  0.2311484E-004  0.6245033E+03  0.7818608E-02  0.9855834E-01
         13   -1    0    0    0    0  0.00000000000E+00  0.00000000000E+00  0.10000000000E+04  0.10000000000E+04  0.00000000000E+00 0. -1.
          2   -1    0    0  501    0 -0.00000000000E+00 -0.00000000000E+00 -0.97501083071E+02  0.97501083071E+02  0.00000000000E+00 0. -1.
    9000006    2    1    2  501    0  0.00000000000E+00  0.00000000000E+00  0.90249891693E+03  0.10975010831E+04  0.62450326843E+03 0.  0.
         13    1    3    3    0    0 -0.15979907138E+03 -0.23131150189E+03  0.69002506648E+03  0.74510089685E+03  0.00000000000E+00 0. -1.
          4    1    3    3  501    0  0.15979907138E+03  0.23131150189E+03  0.21247385045E+03  0.35240018622E+03  0.00000000000E+00 0. -1.
<mgrwt>
<rscale>  0 0.62450327E+03</rscale>
<asrwt>0</asrwt>
<pdfrwt beam="1">0</pdfrwt>
<pdfrwt beam="2">  1        2 0.35455014E+00 0.62450327E+03</pdfrwt>
<totfact> 0.58679109E+00</totfact>
</mgrwt>
</event>
<event>
 5    1  0.2311484E-004  0.6630475E+03  0.7818608E-02  0.9782600E-01
         13   -1    0    0    0    0  0.00000000000E+00  0.00000000000E+00  0.10000000000E+04  0.10000000000E+04  0.00000000000E+00 0. -1.
          2   -1    0    0  501    0 -0.00000000000E+00 -0.00000000000E+00 -0.10990799232E+03  0.10990799232E+03  0.00000000000E+00 0. -1.
    9000006    2    1    2  501    0  0.00000000000E+00  0.00000000000E+00  0.89009200768E+03  0.11099079923E+04  0.66304748643E+03 0.  0.
         13    1    3    3    0    0 -0.49494903338E+01  0.30872539761E+03  0.24297510617E+03  0.39290300432E+03  0.00000000000E+00 0. -1.
          4    1    3    3  501    0  0.49494903338E+01 -0.30872539761E+03  0.64711690151E+03  0.71700498799E+03  0.00000000000E+00 0. -1.
<mgrwt>
<rscale>  0 0.66304749E+03</rscale>
<asrwt>0</asrwt>
<pdfrwt beam="1">0</pdfrwt>
<pdfrwt beam="2">  1        2 0.39966627E+00 0.66304749E+03</pdfrwt>
<totfact> 0.39902292E+00</totfact>
</mgrwt>
</event>
<event>
 5    1  0.2311484E-004  0.6466341E+03  0.7818608E-02  0.9813116E-01
         13   -1    0    0    0    0  0.00000000000E+00  0.00000000000E+00  0.10000000000E+04  0.10000000000E+04  0.00000000000E+00 0. -1.
          2   -1    0    0  501    0 -0.00000000000E+00 -0.00000000000E+00 -0.10453390514E+03  0.10453390514E+03  0.00000000000E+00 0. -1.
    9000006    2    1    2  501    0  0.00000000000E+00  0.00000000000E+00  0.89546609486E+03  0.11045339051E+04  0.64663407006E+03 0.  0.
         13    1    3    3    0    0  0.22901535795E+03 -0.13994864292E+03  0.13979467638E+03  0.30261561158E+03  0.00000000000E+00 0. -1.
          2    1    3    3  501    0 -0.22901535795E+03  0.13994864292E+03  0.75567141848E+03  0.80191829355E+03  0.00000000000E+00 0. -1.
<mgrwt>
<rscale>  0 0.64663407E+03</rscale>
<asrwt>0</asrwt>
<pdfrwt beam="1">0</pdfrwt>
<pdfrwt beam="2">  1        2 0.38012409E+00 0.64663407E+03</pdfrwt>
<totfact> 0.47232832E+00</totfact>
</mgrwt>
</event>
<event>
 5    1  0.2311484E-004  0.6376371E+03  0.7818608E-02  0.9830258E-01
         13   -1    0    0    0    0  0.00000000000E+00  0.00000000000E+00  0.10000000000E+04  0.10000000000E+04  0.00000000000E+00 0. -1.
          2   -1    0    0  501    0 -0.00000000000E+00 -0.00000000000E+00 -0.10164527494E+03  0.10164527494E+03  0.00000000000E+00 0. -1.
    9000006    2    1    2  501    0  0.00000000000E+00  0.00000000000E+00  0.89835472506E+03  0.11016452749E+04  0.63763712232E+03 0.  0.
         13    1    3    3    0    0  0.15088234635E+03  0.25330721307E+03  0.23959632772E+03  0.37991634197E+03  0.00000000000E+00 0. -1.
          4    1    3    3  501    0 -0.15088234635E+03 -0.25330721307E+03  0.65875839733E+03  0.72172893297E+03  0.00000000000E+00 0. -1.
<mgrwt>
<rscale>  0 0.63763712E+03</rscale>
<asrwt>0</asrwt>
<pdfrwt beam="1">0</pdfrwt>
<pdfrwt beam="2">  1        2 0.36961996E+00 0.63763712E+03</pdfrwt>
<totfact> 0.51659875E+00</totfact>
</mgrwt>
</event>
<event>
 5    1  0.2311484E-004  0.6509083E+03  0.7818608E-02  0.9805076E-01
         13   -1    0    0    0    0  0.00000000000E+00  0.00000000000E+00  0.10000000000E+04  0.10000000000E+04  0.00000000000E+00 0. -1.
          2   -1    0    0  501    0 -0.00000000000E+00 -0.00000000000E+00 -0.10592041414E+03  0.10592041414E+03  0.00000000000E+00 0. -1.
    9000006    2    1    2  501    0  0.00000000000E+00  0.00000000000E+00  0.89407958586E+03  0.11059204141E+04  0.65090833191E+03 0.  0.
         13    1    3    3    0    0 -0.19262586554E+03 -0.12785308179E+03  0.83622524205E+03  0.86759655949E+03  0.00000000000E+00 0. -1.
          4    1    3    3  501    0  0.19262586554E+03  0.12785308179E+03  0.57854343810E+02  0.23832385465E+03  0.00000000000E+00 0. -1.
<mgrwt>
<rscale>  0 0.65090833E+03</rscale>
<asrwt>0</asrwt>
<pdfrwt beam="1">0</pdfrwt>
<pdfrwt beam="2">  1        2 0.38516595E+00 0.65090833E+03</pdfrwt>
<totfact> 0.45233308E+00</totfact>
</mgrwt>
</event>
<event>
 5    1  0.2311484E-004  0.6523715E+03  0.7818608E-02  0.9802339E-01
         13   -1    0    0    0    0  0.00000000000E+00  0.00000000000E+00  0.10000000000E+04  0.10000000000E+04  0.00000000000E+00 0. -1.
          2   -1    0    0  501    0 -0.00000000000E+00 -0.00000000000E+00 -0.10639715027E+03  0.10639715027E+03  0.00000000000E+00 0. -1.
    9000006    2    1    2  501    0  0.00000000000E+00  0.00000000000E+00  0.89360284973E+03  0.11063971503E+04  0.65237152074E+03 0.  0.
         13    1    3    3    0    0 -0.18538723735E+03  0.24543675922E+03  0.63094819735E+03  0.70192824297E+03  0.00000000000E+00 0. -1.
          2    1    3    3  501    0  0.18538723735E+03 -0.24543675922E+03  0.26265465238E+03  0.40446890729E+03  0.00000000000E+00 0. -1.
<mgrwt>
<rscale>  0 0.65237152E+03</rscale>
<asrwt>0</asrwt>
<pdfrwt beam="1">0</pdfrwt>
<pdfrwt beam="2">  1        2 0.38689954E+00 0.65237152E+03</pdfrwt>
<totfact> 0.44563745E+00</totfact>
</mgrwt>
</event>
<event>
 5    1  0.2311484E-004  0.6493277E+03  0.7818608E-02  0.9808042E-01
         13   -1    0    0    0    0  0.00000000000E+00  0.00000000000E+00  0.10000000000E+04  0.10000000000E+04  0.00000000000E+00 0. -1.
          2   -1    0    0  501    0 -0.00000000000E+00 -0.00000000000E+00 -0.10540660528E+03  0.10540660528E+03  0.00000000000E+00 0. -1.
    9000006    2    1    2  501    0  0.00000000000E+00  0.00000000000E+00  0.89459339472E+03  0.11054066053E+04  0.64932766853E+03 0.  0.
         13    1    3    3    0    0 -0.63968655804E+02 -0.25082587607E+03  0.78089927075E+03  0.82268419220E+03  0.00000000000E+00 0. -1.
          4    1    3    3  501    0  0.63968655804E+02  0.25082587607E+03  0.11369412397E+03  0.28272241308E+03  0.00000000000E+00 0. -1.
<mgrwt>
<rscale>  0 0.64932767E+03</rscale>
<asrwt>0</asrwt>
<pdfrwt beam="1">0</pdfrwt>
<pdfrwt beam="2">  1        2 0.38329755E+00 0.64932767E+03</pdfrwt>
<totfact> 0.45965141E+00</totfact>
</mgrwt>
</event>
<event>
 5    1  0.2311484E-004  0.6423789E+03  0.7818608E-02  0.9821186E-01
         13   -1    0    0    0    0  0.00000000000E+00  0.00000000000E+00  0.10000000000E+04  0.10000000000E+04  0.00000000000E+00 0. -1.
          2   -1    0    0  501    0 -0.00000000000E+00 -0.00000000000E+00 -0.10316266979E+03  0.10316266979E+03  0.00000000000E+00 0. -1.
    9000006    2    1    2  501    0  0.00000000000E+00  0.00000000000E+00  0.89683733021E+03  0.11031626698E+04  0.64237892179E+03 0.  0.
         13    1    3    3    0    0  0.26880288013E+03  0.79113471512E+02  0.17880267987E+03  0.33239182912E+03  0.00000000000E+00 0. -1.
          2    1    3    3  501    0 -0.26880288013E+03 -0.79113471512E+02  0.71803465034E+03  0.77077084067E+03  0.00000000000E+00 0. -1.
<mgrwt>
<rscale>  0 0.64237892E+03</rscale>
<asrwt>0</asrwt>
<pdfrwt beam="1">0</pdfrwt>
<pdfrwt beam="2">  1        2 0.37513777E+00 0.64237892E+03</pdfrwt>
<totfact> 0.49289126E+00</totfact>
</mgrwt>
</event>
<event>
 5    1  0.2311484E-004  0.6479182E+03  0.7818608E-02  0.9810693E-01
         13   -1    0    0    0    0  0.00000000000E+00  0.00000000000E+00  0.10000000000E+04  0.10000000000E+04  0.00000000000E+00 0. -1.
          2   -1    0    0  501    0 -0.00000000000E+00 -0.00000000000E+00 -0.10494951002E+03  0.10494951002E+03  0.00000000000E+00 0. -1.
    9000006    2    1    2  501    0  0.00000000000E+00  0.00000000000E+00  0.89505048998E+03  0.11049495100E+04  0.64791823565E+03 0.  0.
         13    1    3    3    0    0  0.80460596100E+02  0.26432409296E+03  0.73597411088E+03  0.78612914049E+03  0.00000000000E+00 0. -1.
          2    1    3    3  501    0 -0.80460596100E+02 -0.26432409296E+03  0.15907637910E+03  0.31882036954E+03  0.00000000000E+00 0. -1.
<mgrwt>
<rscale>  0 0.64791824E+03</rscale>
<asrwt>0</asrwt>
<pdfrwt beam="1">0</pdfrwt>
<pdfrwt beam="2">  1        2 0.38163539E+00 0.64791824E+03</pdfrwt>
<totfact> 0.46625211E+00</totfact>
</mgrwt>
</event>
<event>
 5    1  0.2311484E-004  0.6492413E+03  0.7818608E-02  0.9808204E-01
         13   -1    0    0    0    0  0.00000000000E+00  0.00000000000E+00  0.10000000000E+04  0.10000000000E+04  0.00000000000E+00 0. -1.
          2   -1    0    0  501    0 -0.00000000000E+00 -0.00000000000E+00 -0.10537855133E+03  0.10537855133E+03  0.00000000000E+00 0. -1.
    9000006    2    1    2  501    0  0.00000000000E+00  0.00000000000E+00  0.89462144867E+03  0.11053785513E+04  0.64924125356E+03 0.  0.
         13    1    3    3    0    0 -0.23321980522E+03  0.17870049611E+03  0.68232214216E+03  0.74289222000E+03  0.00000000000E+00 0. -1.
          4    1    3    3  501    0  0.23321980522E+03 -0.17870049611E+03  0.21229930651E+03  0.36248633133E+03  0.00000000000E+00 0. -1.
<mgrwt>
<rscale>  0 0.64924125E+03</rscale>
<asrwt>0</asrwt>
<pdfrwt beam="1">0</pdfrwt>
<pdfrwt beam="2">  1        2 0.38319554E+00 0.64924125E+03</pdfrwt>
<totfact> 0.46005406E+00</totfact>
</mgrwt>
</event>
<event>
 5    1  0.2311484E-004  0.6269909E+03  0.7818608E-02  0.9850939E-01
         13   -1    0    0    0    0  0.00000000000E+00  0.00000000000E+00  0.10000000000E+04  0.10000000000E+04  0.00000000000E+00 0. -1.
          2   -1    0    0  501    0 -0.00000000000E+00 -0.00000000000E+00 -0.98279383379E+02  0.98279383379E+02  0.00000000000E+00 0. -1.
    9000006    2    1    2  501    0  0.00000000000E+00  0.00000000000E+00  0.90172061662E+03  0.10982793834E+04  0.62699085601E+03 0.  0.
         13    1    3    3    0    0  0.77082738256E+02  0.30306332233E+03  0.41207531253E+03  0.51729603620E+03  0.00000000000E+00 0. -1.
          4    1    3    3  501    0 -0.77082738256E+02 -0.30306332233E+03  0.48964530410E+03  0.58098334718E+03  0.00000000000E+00 0. -1.
<mgrwt>
<rscale>  0 0.62699086E+03</rscale>
<asrwt>0</asrwt>
<pdfrwt beam="1">0</pdfrwt>
<pdfrwt beam="2">  1        2 0.35738033E+00 0.62699086E+03</pdfrwt>
<totfact> 0.57297093E+00</totfact>
</mgrwt>
</event>
<event>
 5    1  0.2311484E-004  0.6505994E+03  0.7818608E-02  0.9805655E-01
         13   -1    0    0    0    0  0.00000000000E+00  0.00000000000E+00  0.10000000000E+04  0.10000000000E+04  0.00000000000E+00 0. -1.
          2   -1    0    0  501    0 -0.00000000000E+00 -0.00000000000E+00 -0.10581989720E+03  0.10581989720E+03  0.00000000000E+00 0. -1.
    9000006    2    1    2  501    0  0.00000000000E+00  0.00000000000E+00  0.89418010280E+03  0.11058198972E+04  0.65059940730E+03 0.  0.
         13    1    3    3    0    0  0.60260606640E+02 -0.29394454043E+03  0.23354216326E+03  0.38023239680E+03  0.00000000000E+00 0. -1.
          2    1    3    3  501    0 -0.60260606640E+02  0.29394454043E+03  0.66063793955E+03  0.72558750039E+03  0.00000000000E+00 0. -1.
<mgrwt>
<rscale>  0 0.65059941E+03</rscale>
<asrwt>0</asrwt>
<pdfrwt beam="1">0</pdfrwt>
<pdfrwt beam="2">  1        2 0.38480044E+00 0.65059941E+03</pdfrwt>
<totfact> 0.45375640E+00</totfact>
</mgrwt>
</event>
<event>
 5    1  0.2311484E-004  0.6523394E+03  0.7818608E-02  0.9802399E-01
         13   -1    0    0    0    0  0.00000000000E+00  0.00000000000E+00  0.10000000000E+04  0.10000000000E+04  0.00000000000E+00 0. -1.
          2   -1    0    0  501    0 -0.00000000000E+00 -0.00000000000E+00 -0.10638666274E+03  0.10638666274E+03  0.00000000000E+00 0. -1.
    9000006    2    1    2  501    0  0.00000000000E+00  0.00000000000E+00  0.89361333726E+03  0.11063866627E+04  0.65233936795E+03 0.  0.
         13    1    3    3    0    0  0.18414007203E+03  0.49228297557E+02 -0.20989001130E+01  0.19061845868E+03  0.00000000000E+00 0. -1.
          4    1    3    3  501    0 -0.18414007203E+03 -0.49228297557E+02  0.89571223737E+03  0.91576820407E+03  0.00000000000E+00 0. -1.
<mgrwt>
<rscale>  0 0.65233937E+03</rscale>
<asrwt>0</asrwt>
<pdfrwt beam="1">0</pdfrwt>
<pdfrwt beam="2">  1        2 0.38686141E+00 0.65233937E+03</pdfrwt>
<totfact> 0.44578378E+00</totfact>
</mgrwt>
</event>
<event>
 5    1  0.2311484E-004  0.6492173E+03  0.7818608E-02  0.9808249E-01
         13   -1    0    0    0    0  0.00000000000E+00  0.00000000000E+00  0.10000000000E+04  0.10000000000E+04  0.00000000000E+00 0. -1.
          2   -1    0    0  501    0 -0.00000000000E+00 -0.00000000000E+00 -0.10537076595E+03  0.10537076595E+03  0.00000000000E+00 0. -1.
    9000006    2    1    2  501    0  0.00000000000E+00  0.00000000000E+00  0.89462923405E+03  0.11053707660E+04  0.64921727011E+03 0.  0.
         13    1    3    3    0    0 -0.15180589690E+03 -0.96865805693E+02 -0.12527748421E+02  0.18051304420E+03  0.00000000000E+00 0. -1.
          2    1    3    3  501    0  0.15180589690E+03  0.96865805693E+02  0.90715698247E+03  0.92485772175E+03  0.00000000000E+00 0. -1.
<mgrwt>
<rscale>  0 0.64921727E+03</rscale>
<asrwt>0</asrwt>
<pdfrwt beam="1">0</pdfrwt>
<pdfrwt beam="2">  1        2 0.38316723E+00 0.64921727E+03</pdfrwt>
<totfact> 0.46016586E+00</totfact>
</mgrwt>
</event>
<event>
 5    1  0.2311484E-004  0.6447099E+03  0.7818608E-02  0.9816757E-01
         13   -1    0    0    0    0  0.00000000000E+00  0.00000000000E+00  0.10000000000E+04  0.10000000000E+04  0.00000000000E+00 0. -1.
          2   -1    0    0  501    0 -0.00000000000E+00 -0.00000000000E+00 -0.10391272959E+03  0.10391272959E+03  0.00000000000E+00 0. -1.
    9000006    2    1    2  501    0  0.00000000000E+00  0.00000000000E+00  0.89608727041E+03  0.11039127296E+04  0.64470994901E+03 0.  0.
         13    1    3    3    0    0  0.59915374269E+02 -0.21307328400E+03  0.46764920776E+02  0.22622341666E+03  0.00000000000E+00 0. -1.
          4    1    3    3  501    0 -0.59915374269E+02  0.21307328400E+03  0.84932234964E+03  0.87768931293E+03  0.00000000000E+00 0. -1.
<mgrwt>
<rscale>  0 0.64470995E+03</rscale>
<asrwt>0</asrwt>
<pdfrwt beam="1">0</pdfrwt>
<pdfrwt beam="2">  1        2 0.37786527E+00 0.64470995E+03</pdfrwt>
<totfact> 0.48154444E+00</totfact>
</mgrwt>
</event>
<event>
 5    1  0.2311484E-004  0.5633702E+03  0.7818608E-02  0.9984458E-01
         13   -1    0    0    0    0  0.00000000000E+00  0.00000000000E+00  0.10000000000E+04  0.10000000000E+04  0.00000000000E+00 0. -1.
          2   -1    0    0  501    0 -0.00000000000E+00 -0.00000000000E+00 -0.79346489340E+02  0.79346489340E+02  0.00000000000E+00 0. -1.
    9000006    2    1    2  501    0  0.00000000000E+00  0.00000000000E+00  0.92065351066E+03  0.10793464893E+04  0.56337017791E+03 0.  0.
         13    1    3    3    0    0 -0.25801341918E+03  0.68809670025E+02  0.63212412180E+03  0.68621177527E+03  0.00000000000E+00 0. -1.
          4    1    3    3  501    0  0.25801341918E+03 -0.68809670025E+02  0.28852938886E+03  0.39313471407E+03  0.00000000000E+00 0. -1.
<mgrwt>
<rscale>  0 0.56337018E+03</rscale>
<asrwt>0</asrwt>
<pdfrwt beam="1">0</pdfrwt>
<pdfrwt beam="2">  1        2 0.28853330E+00 0.56337018E+03</pdfrwt>
<totfact> 0.10146741E+01</totfact>
</mgrwt>
</event>
<event>
 5    1  0.2311484E-004  0.6474746E+03  0.7818608E-02  0.9811530E-01
         13   -1    0    0    0    0  0.00000000000E+00  0.00000000000E+00  0.10000000000E+04  0.10000000000E+04  0.00000000000E+00 0. -1.
          2   -1    0    0  501    0 -0.00000000000E+00 -0.00000000000E+00 -0.10480582498E+03  0.10480582498E+03  0.00000000000E+00 0. -1.
    9000006    2    1    2  501    0  0.00000000000E+00  0.00000000000E+00  0.89519417502E+03  0.11048058250E+04  0.64747455541E+03 0.  0.
         13    1    3    3    0    0 -0.28630945352E+03  0.20270704417E+02  0.19209251099E+03  0.34537448865E+03  0.00000000000E+00 0. -1.
          4    1    3    3  501    0  0.28630945352E+03 -0.20270704417E+02  0.70310166403E+03  0.75943133633E+03  0.00000000000E+00 0. -1.
<mgrwt>
<rscale>  0 0.64747456E+03</rscale>
<asrwt>0</asrwt>
<pdfrwt beam="1">0</pdfrwt>
<pdfrwt beam="2">  1        2 0.38111289E+00 0.64747456E+03</pdfrwt>
<totfact> 0.46834472E+00</totfact>
</mgrwt>
</event>
<event>
 5    1  0.2311484E-004  0.6588195E+03  0.7818608E-02  0.9790369E-01
         13   -1    0    0    0    0  0.00000000000E+00  0.00000000000E+00  0.10000000000E+04  0.10000000000E+04  0.00000000000E+00 0. -1.
          2   -1    0    0  501    0 -0.00000000000E+00 -0.00000000000E+00 -0.10851078939E+03  0.10851078939E+03  0.00000000000E+00 0. -1.
    9000006    2    1    2  501    0  0.00000000000E+00  0.00000000000E+00  0.89148921061E+03  0.11085107894E+04  0.65881951821E+03 0.  0.
         13    1    3    3    0    0 -0.40578271097E+02 -0.31627664199E+03  0.58483208744E+03  0.66611266378E+03  0.00000000000E+00 0. -1.
          2    1    3    3  501    0  0.40578271097E+02  0.31627664199E+03  0.30665712317E+03  0.44239812561E+03  0.00000000000E+00 0. -1.
<mgrwt>
<rscale>  0 0.65881952E+03</rscale>
<asrwt>0</asrwt>
<pdfrwt beam="1">0</pdfrwt>
<pdfrwt beam="2">  1        2 0.39458552E+00 0.65881952E+03</pdfrwt>
<totfact> 0.41701865E+00</totfact>
</mgrwt>
</event>
<event>
 5    1  0.2311484E-004  0.6558564E+03  0.7818608E-02  0.9795852E-01
         13   -1    0    0    0    0  0.00000000000E+00  0.00000000000E+00  0.10000000000E+04  0.10000000000E+04  0.00000000000E+00 0. -1.
          2   -1    0    0  501    0 -0.00000000000E+00 -0.00000000000E+00 -0.10753689216E+03  0.10753689216E+03  0.00000000000E+00 0. -1.
    9000006    2    1    2  501    0  0.00000000000E+00  0.00000000000E+00  0.89246310784E+03  0.11075368922E+04  0.65585636281E+03 0.  0.
         13    1    3    3    0    0  0.29758761877E+03  0.75816202693E+02  0.64047037350E+03  0.71028781967E+03  0.00000000000E+00 0. -1.
          4    1    3    3  501    0 -0.29758761877E+03 -0.75816202693E+02  0.25199273434E+03  0.39724907249E+03  0.00000000000E+00 0. -1.
<mgrwt>
<rscale>  0 0.65585636E+03</rscale>
<asrwt>0</asrwt>
<pdfrwt beam="1">0</pdfrwt>
<pdfrwt beam="2">  1        2 0.39104407E+00 0.65585636E+03</pdfrwt>
<totfact> 0.42999216E+00</totfact>
</mgrwt>
</event>
<event>
 5    1  0.2311484E-004  0.5109785E+03  0.7818608E-02  0.1010952E+00
         13   -1    0    0    0    0  0.00000000000E+00  0.00000000000E+00  0.10000000000E+04  0.10000000000E+04  0.00000000000E+00 0. -1.
          2   -1    0    0  501    0 -0.00000000000E+00 -0.00000000000E+00 -0.65274758076E+02  0.65274758076E+02  0.00000000000E+00 0. -1.
    9000006    2    1    2  501    0  0.00000000000E+00  0.00000000000E+00  0.93472524192E+03  0.10652747581E+04  0.51097850474E+03 0.  0.
         13    1    3    3    0    0 -0.15298777288E+03  0.19940826723E+03  0.37169346628E+03  0.44869248775E+03  0.00000000000E+00 0. -1.
          2    1    3    3  501    0  0.15298777288E+03 -0.19940826723E+03  0.56303177565E+03  0.61658227032E+03  0.00000000000E+00 0. -1.
<mgrwt>
<rscale>  0 0.51097850E+03</rscale>
<asrwt>0</asrwt>
<pdfrwt beam="1">0</pdfrwt>
<pdfrwt beam="2">  1        2 0.23736326E+00 0.51097850E+03</pdfrwt>
<totfact> 0.15482185E+01</totfact>
</mgrwt>
</event>
<event>
 5    1  0.2311484E-004  0.6435729E+03  0.7818608E-02  0.9818914E-01
         13   -1    0    0    0    0  0.00000000000E+00  0.00000000000E+00  0.10000000000E+04  0.10000000000E+04  0.00000000000E+00 0. -1.
          2   -1    0    0  501    0 -0.00000000000E+00 -0.00000000000E+00 -0.10354651730E+03  0.10354651730E+03  0.00000000000E+00 0. -1.
    9000006    2    1    2  501    0  0.00000000000E+00  0.00000000000E+00  0.89645348270E+03  0.11035465173E+04  0.64357289347E+03 0.  0.
         13    1    3    3    0    0 -0.14334881137E+03  0.26166704237E+03  0.65490544758E+03  0.71966635885E+03  0.00000000000E+00 0. -1.
          2    1    3    3  501    0  0.14334881137E+03 -0.26166704237E+03  0.24154803512E+03  0.38388015845E+03  0.00000000000E+00 0. -1.
<mgrwt>
<rscale>  0 0.64357289E+03</rscale>
<asrwt>0</asrwt>
<pdfrwt beam="1">0</pdfrwt>
<pdfrwt beam="2">  1        2 0.37653358E+00 0.64357289E+03</pdfrwt>
<totfact> 0.48705427E+00</totfact>
</mgrwt>
</event>
<event>
 5    1  0.2311484E-004  0.6418949E+03  0.7818608E-02  0.9822108E-01
         13   -1    0    0    0    0  0.00000000000E+00  0.00000000000E+00  0.10000000000E+04  0.10000000000E+04  0.00000000000E+00 0. -1.
          2   -1    0    0  501    0 -0.00000000000E+00 -0.00000000000E+00 -0.10300727971E+03  0.10300727971E+03  0.00000000000E+00 0. -1.
    9000006    2    1    2  501    0  0.00000000000E+00  0.00000000000E+00  0.89699272029E+03  0.11030072797E+04  0.64189494377E+03 0.  0.
         13    1    3    3    0    0  0.81629797170E+02 -0.12742372757E+03 -0.37854616425E+02  0.15599103217E+03  0.00000000000E+00 0. -1.
          4    1    3    3  501    0 -0.81629797170E+02  0.12742372757E+03  0.93484733672E+03  0.94701624754E+03  0.00000000000E+00 0. -1.
<mgrwt>
<rscale>  0 0.64189494E+03</rscale>
<asrwt>0</asrwt>
<pdfrwt beam="1">0</pdfrwt>
<pdfrwt beam="2">  1        2 0.37457272E+00 0.64189494E+03</pdfrwt>
<totfact> 0.49527248E+00</totfact>
</mgrwt>
</event>
<event>
 5    1  0.2311484E-004  0.6370514E+03  0.7818608E-02  0.9831384E-01
         13   -1    0    0    0    0  0.00000000000E+00  0.00000000000E+00  0.10000000000E+04  0.10000000000E+04  0.00000000000E+00 0. -1.
          2   -1    0    0  501    0 -0.00000000000E+00 -0.00000000000E+00 -0.10145861379E+03  0.10145861379E+03  0.00000000000E+00 0. -1.
    9000006    2    1    2  501    0  0.00000000000E+00  0.00000000000E+00  0.89854138621E+03  0.11014586138E+04  0.63705137560E+03 0.  0.
         13    1    3    3    0    0 -0.22554972473E+03  0.22133168771E+03  0.51839199919E+03  0.60711667670E+03  0.00000000000E+00 0. -1.
          4    1    3    3  501    0  0.22554972473E+03 -0.22133168771E+03  0.38014938702E+03  0.49434193709E+03  0.00000000000E+00 0. -1.
<mgrwt>
<rscale>  0 0.63705138E+03</rscale>
<asrwt>0</asrwt>
<pdfrwt beam="1">0</pdfrwt>
<pdfrwt beam="2">  1        2 0.36894119E+00 0.63705138E+03</pdfrwt>
<totfact> 0.51958613E+00</totfact>
</mgrwt>
</event>
<event>
 5    1  0.2311484E-004  0.6500917E+03  0.7818608E-02  0.9806607E-01
         13   -1    0    0    0    0  0.00000000000E+00  0.00000000000E+00  0.10000000000E+04  0.10000000000E+04  0.00000000000E+00 0. -1.
          2   -1    0    0  501    0 -0.00000000000E+00 -0.00000000000E+00 -0.10565479917E+03  0.10565479917E+03  0.00000000000E+00 0. -1.
    9000006    2    1    2  501    0  0.00000000000E+00  0.00000000000E+00  0.89434520083E+03  0.11056547992E+04  0.65009168330E+03 0.  0.
         13    1    3    3    0    0 -0.26084473567E+03  0.99771249437E+02  0.16431026553E+03  0.32402490908E+03  0.00000000000E+00 0. -1.
          2    1    3    3  501    0  0.26084473567E+03 -0.99771249437E+02  0.73003493529E+03  0.78162989010E+03  0.00000000000E+00 0. -1.
<mgrwt>
<rscale>  0 0.65009168E+03</rscale>
<asrwt>0</asrwt>
<pdfrwt beam="1">0</pdfrwt>
<pdfrwt beam="2">  1        2 0.38420008E+00 0.65009168E+03</pdfrwt>
<totfact> 0.45610301E+00</totfact>
</mgrwt>
</event>
<event>
 5    1  0.2311484E-004  0.6490632E+03  0.7818608E-02  0.9808539E-01
         13   -1    0    0    0    0  0.00000000000E+00  0.00000000000E+00  0.10000000000E+04  0.10000000000E+04  0.00000000000E+00 0. -1.
          2   -1    0    0  501    0 -0.00000000000E+00 -0.00000000000E+00 -0.10532074618E+03  0.10532074618E+03  0.00000000000E+00 0. -1.
    9000006    2    1    2  501    0  0.00000000000E+00  0.00000000000E+00  0.89467925382E+03  0.11053207462E+04  0.64906315928E+03 0.  0.
         13    1    3    3    0    0 -0.49700074872E+02 -0.30283852330E+03  0.62707508933E+03  0.69814356425E+03  0.00000000000E+00 0. -1.
          4    1    3    3  501    0  0.49700074872E+02  0.30283852330E+03  0.26760416449E+03  0.40717718194E+03  0.00000000000E+00 0. -1.
<mgrwt>
<rscale>  0 0.64906316E+03</rscale>
<asrwt>0</asrwt>
<pdfrwt beam="1">0</pdfrwt>
<pdfrwt beam="2">  1        2 0.38298534E+00 0.64906316E+03</pdfrwt>
<totfact> 0.46088475E+00</totfact>
</mgrwt>
</event>
<event>
 5    1  0.2311484E-004  0.6500502E+03  0.7818608E-02  0.9806685E-01
         13   -1    0    0    0    0  0.00000000000E+00  0.00000000000E+00  0.10000000000E+04  0.10000000000E+04  0.00000000000E+00 0. -1.
          2   -1    0    0  501    0 -0.00000000000E+00 -0.00000000000E+00 -0.10564131687E+03  0.10564131687E+03  0.00000000000E+00 0. -1.
    9000006    2    1    2  501    0  0.00000000000E+00  0.00000000000E+00  0.89435868313E+03  0.11056413169E+04  0.65005020381E+03 0.  0.
         13    1    3    3    0    0  0.32233799463E+03 -0.40413942995E+02  0.46471113338E+03  0.56700221081E+03  0.00000000000E+00 0. -1.
          4    1    3    3  501    0 -0.32233799463E+03  0.40413942995E+02  0.42964754975E+03  0.53863910606E+03  0.00000000000E+00 0. -1.
<mgrwt>
<rscale>  0 0.65005020E+03</rscale>
<asrwt>0</asrwt>
<pdfrwt beam="1">0</pdfrwt>
<pdfrwt beam="2">  1        2 0.38415105E+00 0.65005020E+03</pdfrwt>
<totfact> 0.45629512E+00</totfact>
</mgrwt>
</event>
<event>
 5    1  0.2311484E-004  0.6228305E+03  0.7818608E-02  0.9859140E-01
         13   -1    0    0    0    0  0.00000000000E+00  0.00000000000E+00  0.10000000000E+04  0.10000000000E+04  0.00000000000E+00 0. -1.
          2   -1    0    0  501    0 -0.00000000000E+00 -0.00000000000E+00 -0.96979463145E+02  0.96979463145E+02  0.00000000000E+00 0. -1.
    9000006    2    1    2  501    0  0.00000000000E+00  0.00000000000E+00  0.90302053686E+03  0.10969794631E+04  0.62283051674E+03 0.  0.
         13    1    3    3    0    0  0.20608546103E+03 -0.11169353907E+03  0.90414191356E+02  0.25123970609E+03  0.00000000000E+00 0. -1.
          2    1    3    3  501    0 -0.20608546103E+03  0.11169353907E+03  0.81260634550E+03  0.84573975705E+03  0.00000000000E+00 0. -1.
<mgrwt>
<rscale>  0 0.62283052E+03</rscale>
<asrwt>0</asrwt>
<pdfrwt beam="1">0</pdfrwt>
<pdfrwt beam="2">  1        2 0.35265334E+00 0.62283052E+03</pdfrwt>
<totfact> 0.59622589E+00</totfact>
</mgrwt>
</event>
<event>
 5    1  0.2311484E-004  0.5609520E+03  0.7818608E-02  0.9989903E-01
         13   -1    0    0    0    0  0.00000000000E+00  0.00000000000E+00  0.10000000000E+04  0.10000000000E+04  0.00000000000E+00 0. -1.
          2   -1    0    0  501    0 -0.00000000000E+00 -0.00000000000E+00 -0.78666788078E+02  0.78666788078E+02  0.00000000000E+00 0. -1.
    9000006    2    1    2  501    0  0.00000000000E+00  0.00000000000E+00  0.92133321192E+03  0.10786667881E+04  0.56095200536E+03 0.  0.
         13    1    3    3    0    0 -0.10703410457E+03 -0.20646210526E+03  0.76216630519E+03  0.79685656000E+03  0.00000000000E+00 0. -1.
          2    1    3    3  501    0  0.10703410457E+03  0.20646210526E+03  0.15916690673E+03  0.28181022808E+03  0.00000000000E+00 0. -1.
<mgrwt>
<rscale>  0 0.56095201E+03</rscale>
<asrwt>0</asrwt>
<pdfrwt beam="1">0</pdfrwt>
<pdfrwt beam="2">  1        2 0.28606165E+00 0.56095201E+03</pdfrwt>
<totfact> 0.10355173E+01</totfact>
</mgrwt>
</event>
<event>
 5    1  0.2311484E-004  0.6387400E+03  0.7818608E-02  0.9828140E-01
         13   -1    0    0    0    0  0.00000000000E+00  0.00000000000E+00  0.10000000000E+04  0.10000000000E+04  0.00000000000E+00 0. -1.
          2   -1    0    0  501    0 -0.00000000000E+00 -0.00000000000E+00 -0.10199719476E+03  0.10199719476E+03  0.00000000000E+00 0. -1.
    9000006    2    1    2  501    0  0.00000000000E+00  0.00000000000E+00  0.89800280524E+03  0.11019971948E+04  0.63873999331E+03 0.  0.
         13    1    3    3    0    0  0.23059342477E+03  0.20251191125E+03  0.29650502100E+03  0.42673133143E+03  0.00000000000E+00 0. -1.
          4    1    3    3  501    0 -0.23059342477E+03 -0.20251191125E+03  0.60149778424E+03  0.67526586333E+03  0.00000000000E+00 0. -1.
<mgrwt>
<rscale>  0 0.63873999E+03</rscale>
<asrwt>0</asrwt>
<pdfrwt beam="1">0</pdfrwt>
<pdfrwt beam="2">  1        2 0.37089967E+00 0.63873999E+03</pdfrwt>
<totfact> 0.51100930E+00</totfact>
</mgrwt>
</event>
<event>
 5    1  0.2311484E-004  0.6426464E+03  0.7818608E-02  0.9820676E-01
         13   -1    0    0    0    0  0.00000000000E+00  0.00000000000E+00  0.10000000000E+04  0.10000000000E+04  0.00000000000E+00 0. -1.
          2   -1    0    0  501    0 -0.00000000000E+00 -0.00000000000E+00 -0.10324860890E+03  0.10324860890E+03  0.00000000000E+00 0. -1.
    9000006    2    1    2  501    0  0.00000000000E+00  0.00000000000E+00  0.89675139110E+03  0.11032486089E+04  0.64264643125E+03 0.  0.
         13    1    3    3    0    0  0.21878876375E+01  0.30835441927E+03  0.60346538729E+03  0.67768555274E+03  0.00000000000E+00 0. -1.
          2    1    3    3  501    0 -0.21878876375E+01 -0.30835441927E+03  0.29328600381E+03  0.42556305616E+03  0.00000000000E+00 0. -1.
<mgrwt>
<rscale>  0 0.64264643E+03</rscale>
<asrwt>0</asrwt>
<pdfrwt beam="1">0</pdfrwt>
<pdfrwt beam="2">  1        2 0.37545028E+00 0.64264643E+03</pdfrwt>
<totfact> 0.49157882E+00</totfact>
</mgrwt>
</event>
<event>
 5    1  0.2311484E-004  0.6496033E+03  0.7818608E-02  0.9807524E-01
         13   -1    0    0    0    0  0.00000000000E+00  0.00000000000E+00  0.10000000000E+04  0.10000000000E+04  0.00000000000E+00 0. -1.
          2   -1    0    0  501    0 -0.00000000000E+00 -0.00000000000E+00 -0.10549610415E+03  0.10549610415E+03  0.00000000000E+00 0. -1.
    9000006    2    1    2  501    0  0.00000000000E+00  0.00000000000E+00  0.89450389585E+03  0.11054961042E+04  0.64960327633E+03 0.  0.
         13    1    3    3    0    0  0.18355136906E+03 -0.26790974085E+03  0.43802921360E+03  0.54528554565E+03  0.00000000000E+00 0. -1.
          4    1    3    3  501    0 -0.18355136906E+03  0.26790974085E+03  0.45647468225E+03  0.56021055851E+03  0.00000000000E+00 0. -1.
<mgrwt>
<rscale>  0 0.64960328E+03</rscale>
<asrwt>0</asrwt>
<pdfrwt beam="1">0</pdfrwt>
<pdfrwt beam="2">  1        2 0.38362301E+00 0.64960328E+03</pdfrwt>
<totfact> 0.45836897E+00</totfact>
</mgrwt>
</event>
<event>
 5    1  0.2311484E-004  0.6538377E+03  0.7818608E-02  0.9799605E-01
         13   -1    0    0    0    0  0.00000000000E+00  0.00000000000E+00  0.10000000000E+04  0.10000000000E+04  0.00000000000E+00 0. -1.
          2   -1    0    0  501    0 -0.00000000000E+00 -0.00000000000E+00 -0.10687592325E+03  0.10687592325E+03  0.00000000000E+00 0. -1.
    9000006    2    1    2  501    0  0.00000000000E+00  0.00000000000E+00  0.89312407675E+03  0.11068759233E+04  0.65383766563E+03 0.  0.
         13    1    3    3    0    0  0.31303438651E+03 -0.23507888449E+02  0.60109596529E+03  0.67812941791E+03  0.00000000000E+00 0. -1.
          4    1    3    3  501    0 -0.31303438651E+03  0.23507888449E+02  0.29202811146E+03  0.42874650534E+03  0.00000000000E+00 0. -1.
<mgrwt>
<rscale>  0 0.65383767E+03</rscale>
<asrwt>0</asrwt>
<pdfrwt beam="1">0</pdfrwt>
<pdfrwt beam="2">  1        2 0.38864054E+00 0.65383767E+03</pdfrwt>
<totfact> 0.43900367E+00</totfact>
</mgrwt>
</event>
<event>
 5    1  0.2311484E-004  0.6436824E+03  0.7818608E-02  0.9818706E-01
         13   -1    0    0    0    0  0.00000000000E+00  0.00000000000E+00  0.10000000000E+04  0.10000000000E+04  0.00000000000E+00 0. -1.
          2   -1    0    0  501    0 -0.00000000000E+00 -0.00000000000E+00 -0.10358176861E+03  0.10358176861E+03  0.00000000000E+00 0. -1.
    9000006    2    1    2  501    0  0.00000000000E+00  0.00000000000E+00  0.89641823139E+03  0.11035817686E+04  0.64368243292E+03 0.  0.
         13    1    3    3    0    0  0.21075731682E+03  0.24193527083E+03  0.40516071062E+03  0.51682349336E+03  0.00000000000E+00 0. -1.
          2    1    3    3  501    0 -0.21075731682E+03 -0.24193527083E+03  0.49125752077E+03  0.58675827525E+03  0.00000000000E+00 0. -1.
<mgrwt>
<rscale>  0 0.64368243E+03</rscale>
<asrwt>0</asrwt>
<pdfrwt beam="1">0</pdfrwt>
<pdfrwt beam="2">  1        2 0.37666177E+00 0.64368243E+03</pdfrwt>
<totfact> 0.48652141E+00</totfact>
</mgrwt>
</event>
<event>
 5    1  0.2311484E-004  0.6502730E+03  0.7818608E-02  0.9806267E-01
         13   -1    0    0    0    0  0.00000000000E+00  0.00000000000E+00  0.10000000000E+04  0.10000000000E+04  0.00000000000E+00 0. -1.
          2   -1    0    0  501    0 -0.00000000000E+00 -0.00000000000E+00 -0.10571373480E+03  0.10571373480E+03  0.00000000000E+00 0. -1.
    9000006    2    1    2  501    0  0.00000000000E+00  0.00000000000E+00  0.89428626520E+03  0.11057137348E+04  0.65027297285E+03 0.  0.
         13    1    3    3    0    0 -0.13167177638E+03  0.26423688150E+03  0.21552144672E+03  0.36552439076E+03  0.00000000000E+00 0. -1.
          4    1    3    3  501    0  0.13167177638E+03 -0.26423688150E+03  0.67876481848E+03  0.74018934405E+03  0.00000000000E+00 0. -1.
<mgrwt>
<rscale>  0 0.65027297E+03</rscale>
<asrwt>0</asrwt>
<pdfrwt beam="1">0</pdfrwt>
<pdfrwt beam="2">  1        2 0.38441439E+00 0.65027297E+03</pdfrwt>
<totfact> 0.45526407E+00</totfact>
</mgrwt>
</event>
<event>
 5    1  0.2311484E-004  0.6599218E+03  0.7818608E-02  0.9788338E-01
         13   -1    0    0    0    0  0.00000000000E+00  0.00000000000E+00  0.10000000000E+04  0.10000000000E+04  0.00000000000E+00 0. -1.
          2   -1    0    0  501    0 -0.00000000000E+00 -0.00000000000E+00 -0.10887418514E+03  0.10887418514E+03  0.00000000000E+00 0. -1.
    9000006    2    1    2  501    0  0.00000000000E+00  0.00000000000E+00  0.89112581486E+03  0.11088741851E+04  0.65992176852E+03 0.  0.
         13    1    3    3    0    0 -0.22386089096E+03  0.91621259424E+02  0.68461038429E+02  0.25138629132E+03  0.00000000000E+00 0. -1.
          2    1    3    3  501    0  0.22386089096E+03 -0.91621259424E+02  0.82266477643E+03  0.85748789382E+03  0.00000000000E+00 0. -1.
<mgrwt>
<rscale>  0 0.65992177E+03</rscale>
<asrwt>0</asrwt>
<pdfrwt beam="1">0</pdfrwt>
<pdfrwt beam="2">  1        2 0.39590696E+00 0.65992177E+03</pdfrwt>
<totfact> 0.41226924E+00</totfact>
</mgrwt>
</event>
<event>
 5    1  0.2311484E-004  0.6608702E+03  0.7818608E-02  0.9786593E-01
         13   -1    0    0    0    0  0.00000000000E+00  0.00000000000E+00  0.10000000000E+04  0.10000000000E+04  0.00000000000E+00 0. -1.
          2   -1    0    0  501    0 -0.00000000000E+00 -0.00000000000E+00 -0.10918735114E+03  0.10918735114E+03  0.00000000000E+00 0. -1.
    9000006    2    1    2  501    0  0.00000000000E+00  0.00000000000E+00  0.89081264886E+03  0.11091873511E+04  0.66087018739E+03 0.  0.
         13    1    3    3    0    0 -0.25567376491E+03  0.85906430469E+02  0.76578837174E+03  0.81189951297E+03  0.00000000000E+00 0. -1.
          4    1    3    3  501    0  0.25567376491E+03 -0.85906430469E+02  0.12502427711E+03  0.29728783818E+03  0.00000000000E+00 0. -1.
<mgrwt>
<rscale>  0 0.66087019E+03</rscale>
<asrwt>0</asrwt>
<pdfrwt beam="1">0</pdfrwt>
<pdfrwt beam="2">  1        2 0.39704575E+00 0.66087019E+03</pdfrwt>
<totfact> 0.40821545E+00</totfact>
</mgrwt>
</event>
<event>
 5    1  0.2311484E-004  0.6330477E+03  0.7818608E-02  0.9839119E-01
         13   -1    0    0    0    0  0.00000000000E+00  0.00000000000E+00  0.10000000000E+04  0.10000000000E+04  0.00000000000E+00 0. -1.
          2   -1    0    0  501    0 -0.00000000000E+00 -0.00000000000E+00 -0.10018733701E+03  0.10018733701E+03  0.00000000000E+00 0. -1.
    9000006    2    1    2  501    0  0.00000000000E+00  0.00000000000E+00  0.89981266299E+03  0.11001873370E+04  0.63304766649E+03 0.  0.
         13    1    3    3    0    0  0.18599290880E+03  0.93319465143E+02  0.86441234693E+03  0.88910662478E+03  0.00000000000E+00 0. -1.
          2    1    3    3  501    0 -0.18599290880E+03 -0.93319465143E+02  0.35400316056E+02  0.21108071223E+03  0.00000000000E+00 0. -1.
<mgrwt>
<rscale>  0 0.63304767E+03</rscale>
<asrwt>0</asrwt>
<pdfrwt beam="1">0</pdfrwt>
<pdfrwt beam="2">  1        2 0.36431836E+00 0.63304767E+03</pdfrwt>
<totfact> 0.54035768E+00</totfact>
</mgrwt>
</event>
<event>
 5    1  0.2311484E-004  0.6542262E+03  0.7818608E-02  0.9798881E-01
         13   -1    0    0    0    0  0.00000000000E+00  0.00000000000E+00  0.10000000000E+04  0.10000000000E+04  0.00000000000E+00 0. -1.
          2   -1    0    0  501    0 -0.00000000000E+00 -0.00000000000E+00 -0.10700298282E+03  0.10700298282E+03  0.00000000000E+00 0. -1.
    9000006    2    1    2  501    0  0.00000000000E+00  0.00000000000E+00  0.89299701718E+03  0.11070029828E+04  0.65422620804E+03 0.  0.
         13    1    3    3    0    0 -0.20734462176E+01  0.20398151899E+03  0.87918891320E+03  0.90254412876E+03  0.00000000000E+00 0. -1.
          4    1    3    3  501    0  0.20734462176E+01 -0.20398151899E+03  0.13808103980E+02  0.20445885406E+03  0.00000000000E+00 0. -1.
<mgrwt>
<rscale>  0 0.65422621E+03</rscale>
<asrwt>0</asrwt>
<pdfrwt beam="1">0</pdfrwt>
<pdfrwt beam="2">  1        2 0.38910258E+00 0.65422621E+03</pdfrwt>
<totfact> 0.43725822E+00</totfact>
</mgrwt>
</event>
<event>
 5    1  0.2311484E-004  0.6552140E+03  0.7818608E-02  0.9797044E-01
         13   -1    0    0    0    0  0.00000000000E+00  0.00000000000E+00  0.10000000000E+04  0.10000000000E+04  0.00000000000E+00 0. -1.
          2   -1    0    0  501    0 -0.00000000000E+00 -0.00000000000E+00 -0.10732635417E+03  0.10732635417E+03  0.00000000000E+00 0. -1.
    9000006    2    1    2  501    0  0.00000000000E+00  0.00000000000E+00  0.89267364583E+03  0.11073263542E+04  0.65521402357E+03 0.  0.
         13    1    3    3    0    0 -0.49823719432E+02 -0.29550687220E+03  0.22264246180E+03  0.37333146175E+03  0.00000000000E+00 0. -1.
          4    1    3    3  501    0  0.49823719432E+02  0.29550687220E+03  0.67003118403E+03  0.73399489242E+03  0.00000000000E+00 0. -1.
<mgrwt>
<rscale>  0 0.65521402E+03</rscale>
<asrwt>0</asrwt>
<pdfrwt beam="1">0</pdfrwt>
<pdfrwt beam="2">  1        2 0.39027847E+00 0.65521402E+03</pdfrwt>
<totfact> 0.43284427E+00</totfact>
</mgrwt>
</event>
<event>
 5    1  0.2311484E-004  0.6559534E+03  0.7818608E-02  0.9795672E-01
         13   -1    0    0    0    0  0.00000000000E+00  0.00000000000E+00  0.10000000000E+04  0.10000000000E+04  0.00000000000E+00 0. -1.
          2   -1    0    0  501    0 -0.00000000000E+00 -0.00000000000E+00 -0.10756870476E+03  0.10756870476E+03  0.00000000000E+00 0. -1.
    9000006    2    1    2  501    0  0.00000000000E+00  0.00000000000E+00  0.89243129524E+03  0.11075687048E+04  0.65595336651E+03 0.  0.
         13    1    3    3    0    0 -0.92399631030E+02 -0.30440937267E+03  0.31149653539E+03  0.44523347757E+03  0.00000000000E+00 0. -1.
          4    1    3    3  501    0  0.92399631030E+02  0.30440937267E+03  0.58093475985E+03  0.66233522719E+03  0.00000000000E+00 0. -1.
<mgrwt>
<rscale>  0 0.65595337E+03</rscale>
<asrwt>0</asrwt>
<pdfrwt beam="1">0</pdfrwt>
<pdfrwt beam="2">  1        2 0.39115975E+00 0.65595337E+03</pdfrwt>
<totfact> 0.42956268E+00</totfact>
</mgrwt>
</event>
<event>
 5    1  0.2311484E-004  0.6915519E+03  0.7818608E-02  0.9731790E-01
         13   -1    0    0    0    0  0.00000000000E+00  0.00000000000E+00  0.10000000000E+04  0.10000000000E+04  0.00000000000E+00 0. -1.
          2   -1    0    0  501    0 -0.00000000000E+00 -0.00000000000E+00 -0.11956101803E+03  0.11956101803E+03  0.00000000000E+00 0. -1.
    9000006    2    1    2  501    0  0.00000000000E+00  0.00000000000E+00  0.88043898197E+03  0.11195610180E+04  0.69155193017E+03 0.  0.
         13    1    3    3    0    0 -0.32127299417E+03  0.11682625683E+03  0.35615595817E+03  0.49367173061E+03  0.00000000000E+00 0. -1.
          2    1    3    3  501    0  0.32127299417E+03 -0.11682625683E+03  0.52428302380E+03  0.62588928742E+03  0.00000000000E+00 0. -1.
<mgrwt>
<rscale>  0 0.69155193E+03</rscale>
<asrwt>0</asrwt>
<pdfrwt beam="1">0</pdfrwt>
<pdfrwt beam="2">  1        2 0.43476826E+00 0.69155193E+03</pdfrwt>
<totfact> 0.29249052E+00</totfact>
</mgrwt>
</event>
<event>
 5    1  0.2311484E-004  0.6647052E+03  0.7818608E-02  0.9779570E-01
         13   -1    0    0    0    0  0.00000000000E+00  0.00000000000E+00  0.10000000000E+04  0.10000000000E+04  0.00000000000E+00 0. -1.
          4   -1    0    0  501    0 -0.00000000000E+00 -0.00000000000E+00 -0.11045826366E+03  0.11045826366E+03  0.00000000000E+00 0. -1.
    9000006    2    1    2  501    0  0.00000000000E+00  0.00000000000E+00  0.88954173634E+03  0.11104582637E+04  0.66470523892E+03 0.  0.
         13    1    3    3    0    0  0.12145647431E+03  0.21398971390E+03  0.71530476449E+02  0.25624184254E+03  0.00000000000E+00 0. -1.
          2    1    3    3  501    0 -0.12145647431E+03 -0.21398971390E+03  0.81801125989E+03  0.85421642112E+03  0.00000000000E+00 0. -1.
<mgrwt>
<rscale>  0 0.66470524E+03</rscale>
<asrwt>0</asrwt>
<pdfrwt beam="1">0</pdfrwt>
<pdfrwt beam="2">  1        4 0.40166726E+00 0.66470524E+03</pdfrwt>
<totfact> 0.31204276E-02</totfact>
</mgrwt>
</event>
<event>
 5    1  0.2311484E-004  0.6375470E+03  0.7818608E-02  0.9830431E-01
         13   -1    0    0    0    0  0.00000000000E+00  0.00000000000E+00  0.10000000000E+04  0.10000000000E+04  0.00000000000E+00 0. -1.
          2   -1    0    0  501    0 -0.00000000000E+00 -0.00000000000E+00 -0.10161654690E+03  0.10161654690E+03  0.00000000000E+00 0. -1.
    9000006    2    1    2  501    0  0.00000000000E+00  0.00000000000E+00  0.89838345310E+03  0.11016165469E+04  0.63754700814E+03 0.  0.
         13    1    3    3    0    0  0.31862910543E+03 -0.77523655961E+01  0.45895716639E+03  0.55877212402E+03  0.00000000000E+00 0. -1.
          4    1    3    3  501    0 -0.31862910543E+03  0.77523655961E+01  0.43942628671E+03  0.54284442288E+03  0.00000000000E+00 0. -1.
<mgrwt>
<rscale>  0 0.63754701E+03</rscale>
<asrwt>0</asrwt>
<pdfrwt beam="1">0</pdfrwt>
<pdfrwt beam="2">  1        2 0.36951550E+00 0.63754701E+03</pdfrwt>
<totfact> 0.51705749E+00</totfact>
</mgrwt>
</event>
<event>
 5    1  0.2311484E-004  0.6067715E+03  0.7818608E-02  0.9891456E-01
         13   -1    0    0    0    0  0.00000000000E+00  0.00000000000E+00  0.10000000000E+04  0.10000000000E+04  0.00000000000E+00 0. -1.
          2   -1    0    0  501    0 -0.00000000000E+00 -0.00000000000E+00 -0.92042917025E+02  0.92042917025E+02  0.00000000000E+00 0. -1.
    9000006    2    1    2  501    0  0.00000000000E+00  0.00000000000E+00  0.90795708298E+03  0.10920429170E+04  0.60677151227E+03 0.  0.
         13    1    3    3    0    0 -0.77472272812E+02  0.22984872429E+03  0.12599472633E+03  0.27332592299E+03  0.00000000000E+00 0. -1.
          4    1    3    3  501    0  0.77472272812E+02 -0.22984872429E+03  0.78196235665E+03  0.81871699404E+03  0.00000000000E+00 0. -1.
<mgrwt>
<rscale>  0 0.60677151E+03</rscale>
<asrwt>0</asrwt>
<pdfrwt beam="1">0</pdfrwt>
<pdfrwt beam="2">  1        2 0.33470222E+00 0.60677151E+03</pdfrwt>
<totfact> 0.69280389E+00</totfact>
</mgrwt>
</event>
<event>
 5    1  0.2311484E-004  0.6152111E+03  0.7818608E-02  0.9874341E-01
         13   -1    0    0    0    0  0.00000000000E+00  0.00000000000E+00  0.10000000000E+04  0.10000000000E+04  0.00000000000E+00 0. -1.
          2   -1    0    0  501    0 -0.00000000000E+00 -0.00000000000E+00 -0.94621163161E+02  0.94621163161E+02  0.00000000000E+00 0. -1.
    9000006    2    1    2  501    0  0.00000000000E+00  0.00000000000E+00  0.90537883684E+03  0.10946211632E+04  0.61521106349E+03 0.  0.
         13    1    3    3    0    0  0.29857684058E+03 -0.43076974977E+02  0.55970288440E+03  0.63582314704E+03  0.00000000000E+00 0. -1.
          4    1    3    3  501    0 -0.29857684058E+03  0.43076974977E+02  0.34567595244E+03  0.45879801612E+03  0.00000000000E+00 0. -1.
<mgrwt>
<rscale>  0 0.61521106E+03</rscale>
<asrwt>0</asrwt>
<pdfrwt beam="1">0</pdfrwt>
<pdfrwt beam="2">  1        2 0.34407768E+00 0.61521106E+03</pdfrwt>
<totfact> 0.64067106E+00</totfact>
</mgrwt>
</event>
<event>
 5    1  0.2311484E-004  0.6446551E+03  0.7818608E-02  0.9816861E-01
         13   -1    0    0    0    0  0.00000000000E+00  0.00000000000E+00  0.10000000000E+04  0.10000000000E+04  0.00000000000E+00 0. -1.
          2   -1    0    0  501    0 -0.00000000000E+00 -0.00000000000E+00 -0.10389503472E+03  0.10389503472E+03  0.00000000000E+00 0. -1.
    9000006    2    1    2  501    0  0.00000000000E+00  0.00000000000E+00  0.89610496528E+03  0.11038950347E+04  0.64465505419E+03 0.  0.
         13    1    3    3    0    0 -0.30632052184E+03  0.42893718989E+02  0.60333155641E+03  0.67799786149E+03  0.00000000000E+00 0. -1.
          4    1    3    3  501    0  0.30632052184E+03 -0.42893718989E+02  0.29277340886E+03  0.42589717323E+03  0.00000000000E+00 0. -1.
<mgrwt>
<rscale>  0 0.64465505E+03</rscale>
<asrwt>0</asrwt>
<pdfrwt beam="1">0</pdfrwt>
<pdfrwt beam="2">  1        2 0.37780092E+00 0.64465505E+03</pdfrwt>
<totfact> 0.48180936E+00</totfact>
</mgrwt>
</event>
<event>
 5    1  0.2311484E-004  0.6425402E+03  0.7818608E-02  0.9820878E-01
         13   -1    0    0    0    0  0.00000000000E+00  0.00000000000E+00  0.10000000000E+04  0.10000000000E+04  0.00000000000E+00 0. -1.
          2   -1    0    0  501    0 -0.00000000000E+00 -0.00000000000E+00 -0.10321449301E+03  0.10321449301E+03  0.00000000000E+00 0. -1.
    9000006    2    1    2  501    0  0.00000000000E+00  0.00000000000E+00  0.89678550699E+03  0.11032144930E+04  0.64254024936E+03 0.  0.
         13    1    3    3    0    0  0.60609681355E+02  0.26785749318E+03  0.73463244654E+03  0.78428693832E+03  0.00000000000E+00 0. -1.
          4    1    3    3  501    0 -0.60609681355E+02 -0.26785749318E+03  0.16215306045E+03  0.31892755469E+03  0.00000000000E+00 0. -1.
<mgrwt>
<rscale>  0 0.64254025E+03</rscale>
<asrwt>0</asrwt>
<pdfrwt beam="1">0</pdfrwt>
<pdfrwt beam="2">  1        2 0.37532622E+00 0.64254025E+03</pdfrwt>
<totfact> 0.49209945E+00</totfact>
</mgrwt>
</event>
<event>
 5    1  0.2311484E-004  0.6607305E+03  0.7818608E-02  0.9786850E-01
         13   -1    0    0    0    0  0.00000000000E+00  0.00000000000E+00  0.10000000000E+04  0.10000000000E+04  0.00000000000E+00 0. -1.
          2   -1    0    0  501    0 -0.00000000000E+00 -0.00000000000E+00 -0.10914119432E+03  0.10914119432E+03  0.00000000000E+00 0. -1.
    9000006    2    1    2  501    0  0.00000000000E+00  0.00000000000E+00  0.89085880568E+03  0.11091411943E+04  0.66073048764E+03 0.  0.
         13    1    3    3    0    0  0.15258727992E+03 -0.60447585865E+01 -0.46339701959E+02  0.15958316039E+03  0.00000000000E+00 0. -1.
          4    1    3    3  501    0 -0.15258727992E+03  0.60447585865E+01  0.93719850764E+03  0.94955803394E+03  0.00000000000E+00 0. -1.
<mgrwt>
<rscale>  0 0.66073049E+03</rscale>
<asrwt>0</asrwt>
<pdfrwt beam="1">0</pdfrwt>
<pdfrwt beam="2">  1        2 0.39687791E+00 0.66073049E+03</pdfrwt>
<totfact> 0.40881067E+00</totfact>
</mgrwt>
</event>
<event>
 5    1  0.2311484E-004  0.6498907E+03  0.7818608E-02  0.9806984E-01
         13   -1    0    0    0    0  0.00000000000E+00  0.00000000000E+00  0.10000000000E+04  0.10000000000E+04  0.00000000000E+00 0. -1.
          2   -1    0    0  501    0 -0.00000000000E+00 -0.00000000000E+00 -0.10558946863E+03  0.10558946863E+03  0.00000000000E+00 0. -1.
    9000006    2    1    2  501    0  0.00000000000E+00  0.00000000000E+00  0.89441053137E+03  0.11055894686E+04  0.64989066350E+03 0.  0.
         13    1    3    3    0    0 -0.19926969516E+03  0.55267527138E+02  0.20797379870E+02  0.20783513172E+03  0.00000000000E+00 0. -1.
          4    1    3    3  501    0  0.19926969516E+03 -0.55267527138E+02  0.87361315150E+03  0.89775433691E+03  0.00000000000E+00 0. -1.
<mgrwt>
<rscale>  0 0.64989066E+03</rscale>
<asrwt>0</asrwt>
<pdfrwt beam="1">0</pdfrwt>
<pdfrwt beam="2">  1        2 0.38396251E+00 0.64989066E+03</pdfrwt>
<totfact> 0.45703461E+00</totfact>
</mgrwt>
</event>
<event>
 5    1  0.2311484E-004  0.6480570E+03  0.7818608E-02  0.9810432E-01
         13   -1    0    0    0    0  0.00000000000E+00  0.00000000000E+00  0.10000000000E+04  0.10000000000E+04  0.00000000000E+00 0. -1.
          2   -1    0    0  501    0 -0.00000000000E+00 -0.00000000000E+00 -0.10499445604E+03  0.10499445604E+03  0.00000000000E+00 0. -1.
    9000006    2    1    2  501    0  0.00000000000E+00  0.00000000000E+00  0.89500554396E+03  0.11049944560E+04  0.64805696057E+03 0.  0.
         13    1    3    3    0    0 -0.95706391672E+02  0.27698876689E+03  0.21178105405E+03  0.36157116208E+03  0.00000000000E+00 0. -1.
          2    1    3    3  501    0  0.95706391672E+02 -0.27698876689E+03  0.68322448991E+03  0.74342329396E+03  0.00000000000E+00 0. -1.
<mgrwt>
<rscale>  0 0.64805696E+03</rscale>
<asrwt>0</asrwt>
<pdfrwt beam="1">0</pdfrwt>
<pdfrwt beam="2">  1        2 0.38179883E+00 0.64805696E+03</pdfrwt>
<totfact> 0.46559927E+00</totfact>
</mgrwt>
</event>
<event>
 5    1  0.2311484E-004  0.6460593E+03  0.7818608E-02  0.9814202E-01
         13   -1    0    0    0    0  0.00000000000E+00  0.00000000000E+00  0.10000000000E+04  0.10000000000E+04  0.00000000000E+00 0. -1.
          2   -1    0    0  501    0 -0.00000000000E+00 -0.00000000000E+00 -0.10434813907E+03  0.10434813907E+03  0.00000000000E+00 0. -1.
    9000006    2    1    2  501    0  0.00000000000E+00  0.00000000000E+00  0.89565186093E+03  0.11043481391E+04  0.64605925136E+03 0.  0.
         13    1    3    3    0    0  0.12756767616E+03  0.29187248252E+03  0.53964072361E+03  0.62663798850E+03  0.00000000000E+00 0. -1.
          2    1    3    3  501    0 -0.12756767616E+03 -0.29187248252E+03  0.35601113732E+03  0.47771015056E+03  0.00000000000E+00 0. -1.
<mgrwt>
<rscale>  0 0.64605925E+03</rscale>
<asrwt>0</asrwt>
<pdfrwt beam="1">0</pdfrwt>
<pdfrwt beam="2">  1        2 0.37944858E+00 0.64605925E+03</pdfrwt>
<totfact> 0.47506747E+00</totfact>
</mgrwt>
</event>
<event>
 5    1  0.2311484E-004  0.6372389E+03  0.7818608E-02  0.9831024E-01
         13   -1    0    0    0    0  0.00000000000E+00  0.00000000000E+00  0.10000000000E+04  0.10000000000E+04  0.00000000000E+00 0. -1.
          2   -1    0    0  501    0 -0.00000000000E+00 -0.00000000000E+00 -0.10151835664E+03  0.10151835664E+03  0.00000000000E+00 0. -1.
    9000006    2    1    2  501    0  0.00000000000E+00  0.00000000000E+00  0.89848164336E+03  0.11015183566E+04  0.63723890855E+03 0.  0.
         13    1    3    3    0    0 -0.67739059143E+01  0.12519667642E+03  0.95556504107E+03  0.96375548834E+03  0.00000000000E+00 0. -1.
          4    1    3    3  501    0  0.67739059143E+01 -0.12519667642E+03 -0.57083397714E+02  0.13776286830E+03  0.00000000000E+00 0. -1.
<mgrwt>
<rscale>  0 0.63723891E+03</rscale>
<asrwt>0</asrwt>
<pdfrwt beam="1">0</pdfrwt>
<pdfrwt beam="2">  1        2 0.36915844E+00 0.63723891E+03</pdfrwt>
<totfact> 0.51862826E+00</totfact>
</mgrwt>
</event>
<event>
 5    1  0.2311484E-004  0.6806736E+03  0.7818608E-02  0.9750866E-01
         13   -1    0    0    0    0  0.00000000000E+00  0.00000000000E+00  0.10000000000E+04  0.10000000000E+04  0.00000000000E+00 0. -1.
          2   -1    0    0  501    0 -0.00000000000E+00 -0.00000000000E+00 -0.11582915144E+03  0.11582915144E+03  0.00000000000E+00 0. -1.
    9000006    2    1    2  501    0  0.00000000000E+00  0.00000000000E+00  0.88417084856E+03  0.11158291514E+04  0.68067364115E+03 0.  0.
         13    1    3    3    0    0  0.29082257627E+03  0.14207667720E+03  0.61452868325E+03  0.69455673318E+03  0.00000000000E+00 0. -1.
          4    1    3    3  501    0 -0.29082257627E+03 -0.14207667720E+03  0.26964216532E+03  0.42127241826E+03  0.00000000000E+00 0. -1.
<mgrwt>
<rscale>  0 0.68067364E+03</rscale>
<asrwt>0</asrwt>
<pdfrwt beam="1">0</pdfrwt>
<pdfrwt beam="2">  1        2 0.42119780E+00 0.68067364E+03</pdfrwt>
<totfact> 0.33022837E+00</totfact>
</mgrwt>
</event>
<event>
 5    1  0.2311484E-004  0.6496507E+03  0.7818608E-02  0.9807435E-01
         13   -1    0    0    0    0  0.00000000000E+00  0.00000000000E+00  0.10000000000E+04  0.10000000000E+04  0.00000000000E+00 0. -1.
          2   -1    0    0  501    0 -0.00000000000E+00 -0.00000000000E+00 -0.10551151809E+03  0.10551151809E+03  0.00000000000E+00 0. -1.
    9000006    2    1    2  501    0  0.00000000000E+00  0.00000000000E+00  0.89448848191E+03  0.11055115181E+04  0.64965073107E+03 0.  0.
         13    1    3    3    0    0 -0.11814556717E+03 -0.25357222362E+03  0.72817585925E+03  0.78006238829E+03  0.00000000000E+00 0. -1.
          4    1    3    3  501    0  0.11814556717E+03  0.25357222362E+03  0.16631262266E+03  0.32544912980E+03  0.00000000000E+00 0. -1.
<mgrwt>
<rscale>  0 0.64965073E+03</rscale>
<asrwt>0</asrwt>
<pdfrwt beam="1">0</pdfrwt>
<pdfrwt beam="2">  1        2 0.38367906E+00 0.64965073E+03</pdfrwt>
<totfact> 0.45814843E+00</totfact>
</mgrwt>
</event>
<event>
 5    1  0.2311484E-004  0.6423359E+03  0.7818608E-02  0.9821268E-01
         13   -1    0    0    0    0  0.00000000000E+00  0.00000000000E+00  0.10000000000E+04  0.10000000000E+04  0.00000000000E+00 0. -1.
          2   -1    0    0  501    0 -0.00000000000E+00 -0.00000000000E+00 -0.10314884138E+03  0.10314884138E+03  0.00000000000E+00 0. -1.
    9000006    2    1    2  501    0  0.00000000000E+00  0.00000000000E+00  0.89685115862E+03  0.11031488414E+04  0.64233586659E+03 0.  0.
         13    1    3    3    0    0  0.29283835622E+03 -0.47631228869E+02  0.65964370402E+03  0.72329306169E+03  0.00000000000E+00 0. -1.
          4    1    3    3  501    0 -0.29283835622E+03  0.47631228869E+02  0.23720745460E+03  0.37985577968E+03  0.00000000000E+00 0. -1.
<mgrwt>
<rscale>  0 0.64233587E+03</rscale>
<asrwt>0</asrwt>
<pdfrwt beam="1">0</pdfrwt>
<pdfrwt beam="2">  1        2 0.37508749E+00 0.64233587E+03</pdfrwt>
<totfact> 0.49310275E+00</totfact>
</mgrwt>
</event>
<event>
 5    1  0.2311484E-004  0.6474194E+03  0.7818608E-02  0.9811634E-01
         13   -1    0    0    0    0  0.00000000000E+00  0.00000000000E+00  0.10000000000E+04  0.10000000000E+04  0.00000000000E+00 0. -1.
          2   -1    0    0  501    0 -0.00000000000E+00 -0.00000000000E+00 -0.10478797208E+03  0.10478797208E+03  0.00000000000E+00 0. -1.
    9000006    2    1    2  501    0  0.00000000000E+00  0.00000000000E+00  0.89521202792E+03  0.11047879721E+04  0.64741940681E+03 0.  0.
         13    1    3    3    0    0  0.14769854883E+03  0.25205371150E+03  0.20966784806E+03  0.35959218750E+03  0.00000000000E+00 0. -1.
          4    1    3    3  501    0 -0.14769854883E+03 -0.25205371150E+03  0.68554417986E+03  0.74519578457E+03  0.00000000000E+00 0. -1.
<mgrwt>
<rscale>  0 0.64741941E+03</rscale>
<asrwt>0</asrwt>
<pdfrwt beam="1">0</pdfrwt>
<pdfrwt beam="2">  1        2 0.38104797E+00 0.64741941E+03</pdfrwt>
<totfact> 0.46860532E+00</totfact>
</mgrwt>
</event>
<event>
 5    1  0.2311484E-004  0.4588177E+03  0.7818608E-02  0.1025125E+00
         13   -1    0    0    0    0  0.00000000000E+00  0.00000000000E+00  0.10000000000E+04  0.10000000000E+04  0.00000000000E+00 0. -1.
          2   -1    0    0  501    0 -0.00000000000E+00 -0.00000000000E+00 -0.52628430702E+02  0.52628430702E+02  0.00000000000E+00 0. -1.
    9000006    2    1    2  501    0  0.00000000000E+00  0.00000000000E+00  0.94737156930E+03  0.10526284307E+04  0.45881774465E+03 0.  0.
         13    1    3    3    0    0  0.21116290499E+03  0.83438839949E+02  0.54896338355E+03  0.59406448214E+03  0.00000000000E+00 0. -1.
          2    1    3    3  501    0 -0.21116290499E+03 -0.83438839949E+02  0.39840818574E+03  0.45856394856E+03  0.00000000000E+00 0. -1.
<mgrwt>
<rscale>  0 0.45881774E+03</rscale>
<asrwt>0</asrwt>
<pdfrwt beam="1">0</pdfrwt>
<pdfrwt beam="2">  1        2 0.19137652E+00 0.45881774E+03</pdfrwt>
<totfact> 0.22899115E+01</totfact>
</mgrwt>
</event>
<event>
 5    1  0.2311484E-004  0.6415818E+03  0.7818608E-02  0.9822705E-01
         13   -1    0    0    0    0  0.00000000000E+00  0.00000000000E+00  0.10000000000E+04  0.10000000000E+04  0.00000000000E+00 0. -1.
          2   -1    0    0  501    0 -0.00000000000E+00 -0.00000000000E+00 -0.10290680123E+03  0.10290680123E+03  0.00000000000E+00 0. -1.
    9000006    2    1    2  501    0  0.00000000000E+00  0.00000000000E+00  0.89709319877E+03  0.11029068012E+04  0.64158179909E+03 0.  0.
         13    1    3    3    0    0 -0.19692196771E+03 -0.21439064026E+03  0.68023633332E+03  0.73990747879E+03  0.00000000000E+00 0. -1.
          4    1    3    3  501    0  0.19692196771E+03  0.21439064026E+03  0.21685686545E+03  0.36299932244E+03  0.00000000000E+00 0. -1.
<mgrwt>
<rscale>  0 0.64158180E+03</rscale>
<asrwt>0</asrwt>
<pdfrwt beam="1">0</pdfrwt>
<pdfrwt beam="2">  1        2 0.37420734E+00 0.64158180E+03</pdfrwt>
<totfact> 0.49681781E+00</totfact>
</mgrwt>
</event>
<event>
 5    1  0.2311484E-004  0.6457944E+03  0.7818608E-02  0.9814703E-01
         13   -1    0    0    0    0  0.00000000000E+00  0.00000000000E+00  0.10000000000E+04  0.10000000000E+04  0.00000000000E+00 0. -1.
          2   -1    0    0  501    0 -0.00000000000E+00 -0.00000000000E+00 -0.10426259953E+03  0.10426259953E+03  0.00000000000E+00 0. -1.
    9000006    2    1    2  501    0  0.00000000000E+00  0.00000000000E+00  0.89573740047E+03  0.11042625995E+04  0.64579439308E+03 0.  0.
         13    1    3    3    0    0 -0.55499138813E+02 -0.13010728421E+03 -0.48466124889E+02  0.14952265740E+03  0.00000000000E+00 0. -1.
          4    1    3    3  501    0  0.55499138813E+02  0.13010728421E+03  0.94420352535E+03  0.95473994213E+03  0.00000000000E+00 0. -1.
<mgrwt>
<rscale>  0 0.64579439E+03</rscale>
<asrwt>0</asrwt>
<pdfrwt beam="1">0</pdfrwt>
<pdfrwt beam="2">  1        2 0.37913753E+00 0.64579439E+03</pdfrwt>
<totfact> 0.47633362E+00</totfact>
</mgrwt>
</event>
<event>
 5    1  0.2311484E-004  0.6292839E+03  0.7818608E-02  0.9846447E-01
         13   -1    0    0    0    0  0.00000000000E+00  0.00000000000E+00  0.10000000000E+04  0.10000000000E+04  0.00000000000E+00 0. -1.
          2   -1    0    0  501    0 -0.00000000000E+00 -0.00000000000E+00 -0.98999544357E+02  0.98999544357E+02  0.00000000000E+00 0. -1.
    9000006    2    1    2  501    0  0.00000000000E+00  0.00000000000E+00  0.90100045564E+03  0.10989995444E+04  0.62928386077E+03 0.  0.
         13    1    3    3    0    0 -0.10735406775E+03 -0.11490684247E+03  0.92644958831E+03  0.93970065339E+03  0.00000000000E+00 0. -1.
          2    1    3    3  501    0  0.10735406775E+03  0.11490684247E+03 -0.25449132664E+02  0.15929889097E+03  0.00000000000E+00 0. -1.
<mgrwt>
<rscale>  0 0.62928386E+03</rscale>
<asrwt>0</asrwt>
<pdfrwt beam="1">0</pdfrwt>
<pdfrwt beam="2">  1        2 0.35999910E+00 0.62928386E+03</pdfrwt>
<totfact> 0.56045322E+00</totfact>
</mgrwt>
</event>
<event>
 5    1  0.2311484E-004  0.6657824E+03  0.7818608E-02  0.9777607E-01
         13   -1    0    0    0    0  0.00000000000E+00  0.00000000000E+00  0.10000000000E+04  0.10000000000E+04  0.00000000000E+00 0. -1.
          2   -1    0    0  501    0 -0.00000000000E+00 -0.00000000000E+00 -0.11081655538E+03  0.11081655538E+03  0.00000000000E+00 0. -1.
    9000006    2    1    2  501    0  0.00000000000E+00  0.00000000000E+00  0.88918344462E+03  0.11108165554E+04  0.66578241303E+03 0.  0.
         13    1    3    3    0    0  0.21664117586E+03 -0.24954081032E+03  0.37759318658E+03  0.50177747025E+03  0.00000000000E+00 0. -1.
          4    1    3    3  501    0 -0.21664117586E+03  0.24954081032E+03  0.51159025804E+03  0.60903908513E+03  0.00000000000E+00 0. -1.
<mgrwt>
<rscale>  0 0.66578241E+03</rscale>
<asrwt>0</asrwt>
<pdfrwt beam="1">0</pdfrwt>
<pdfrwt beam="2">  1        2 0.40297014E+00 0.66578241E+03</pdfrwt>
<totfact> 0.38769835E+00</totfact>
</mgrwt>
</event>
<event>
 5    1  0.2311484E-004  0.6389136E+03  0.7818608E-02  0.9827807E-01
         13   -1    0    0    0    0  0.00000000000E+00  0.00000000000E+00  0.10000000000E+04  0.10000000000E+04  0.00000000000E+00 0. -1.
          2   -1    0    0  501    0 -0.00000000000E+00 -0.00000000000E+00 -0.10205264158E+03  0.10205264158E+03  0.00000000000E+00 0. -1.
    9000006    2    1    2  501    0  0.00000000000E+00  0.00000000000E+00  0.89794735842E+03  0.11020526416E+04  0.63891358283E+03 0.  0.
         13    1    3    3    0    0 -0.15965788643E+03  0.56298713829E+02  0.91626307811E+03  0.93177154613E+03  0.00000000000E+00 0. -1.
          4    1    3    3  501    0  0.15965788643E+03 -0.56298713829E+02 -0.18315719689E+02  0.17028109545E+03  0.00000000000E+00 0. -1.
<mgrwt>
<rscale>  0 0.63891358E+03</rscale>
<asrwt>0</asrwt>
<pdfrwt beam="1">0</pdfrwt>
<pdfrwt beam="2">  1        2 0.37110130E+00 0.63891358E+03</pdfrwt>
<totfact> 0.51013373E+00</totfact>
</mgrwt>
</event>
<event>
 5    1  0.2311484E-004  0.6237201E+03  0.7818608E-02  0.9857381E-01
         13   -1    0    0    0    0  0.00000000000E+00  0.00000000000E+00  0.10000000000E+04  0.10000000000E+04  0.00000000000E+00 0. -1.
          2   -1    0    0  501    0 -0.00000000000E+00 -0.00000000000E+00 -0.97256686048E+02  0.97256686048E+02  0.00000000000E+00 0. -1.
    9000006    2    1    2  501    0  0.00000000000E+00  0.00000000000E+00  0.90274331395E+03  0.10972566860E+04  0.62372008481E+03 0.  0.
         13    1    3    3    0    0  0.23642415909E+03 -0.90239482265E+02  0.77199830725E+03  0.81241672407E+03  0.00000000000E+00 0. -1.
          2    1    3    3  501    0 -0.23642415909E+03  0.90239482265E+02  0.13074500671E+03  0.28483996198E+03  0.00000000000E+00 0. -1.
<mgrwt>
<rscale>  0 0.62372008E+03</rscale>
<asrwt>0</asrwt>
<pdfrwt beam="1">0</pdfrwt>
<pdfrwt beam="2">  1        2 0.35366142E+00 0.62372008E+03</pdfrwt>
<totfact> 0.59119423E+00</totfact>
</mgrwt>
</event>
<event>
 5    1  0.2311484E-004  0.6425314E+03  0.7818608E-02  0.9820895E-01
         13   -1    0    0    0    0  0.00000000000E+00  0.00000000000E+00  0.10000000000E+04  0.10000000000E+04  0.00000000000E+00 0. -1.
          2   -1    0    0  501    0 -0.00000000000E+00 -0.00000000000E+00 -0.10321163526E+03  0.10321163526E+03  0.00000000000E+00 0. -1.
    9000006    2    1    2  501    0  0.00000000000E+00  0.00000000000E+00  0.89678836474E+03  0.11032116353E+04  0.64253135414E+03 0.  0.
         13    1    3    3    0    0  0.11930045524E+03 -0.13794844977E+03 -0.57106007402E+01  0.18246913266E+03  0.00000000000E+00 0. -1.
          2    1    3    3  501    0 -0.11930045524E+03  0.13794844977E+03  0.90249896548E+03  0.92074250260E+03  0.00000000000E+00 0. -1.
<mgrwt>
<rscale>  0 0.64253135E+03</rscale>
<asrwt>0</asrwt>
<pdfrwt beam="1">0</pdfrwt>
<pdfrwt beam="2">  1        2 0.37531583E+00 0.64253135E+03</pdfrwt>
<totfact> 0.49214308E+00</totfact>
</mgrwt>
</event>
<event>
 5    1  0.2311484E-004  0.6579541E+03  0.7818608E-02  0.9791967E-01
         13   -1    0    0    0    0  0.00000000000E+00  0.00000000000E+00  0.10000000000E+04  0.10000000000E+04  0.00000000000E+00 0. -1.
          2   -1    0    0  501    0 -0.00000000000E+00 -0.00000000000E+00 -0.10822588614E+03  0.10822588614E+03  0.00000000000E+00 0. -1.
    9000006    2    1    2  501    0  0.00000000000E+00  0.00000000000E+00  0.89177411386E+03  0.11082258861E+04  0.65795405961E+03 0.  0.
         13    1    3    3    0    0  0.26998156001E+03 -0.16036213737E+03  0.61108946729E+03  0.68704904838E+03  0.00000000000E+00 0. -1.
          2    1    3    3  501    0 -0.26998156001E+03  0.16036213737E+03  0.28068464656E+03  0.42117683776E+03  0.00000000000E+00 0. -1.
<mgrwt>
<rscale>  0 0.65795406E+03</rscale>
<asrwt>0</asrwt>
<pdfrwt beam="1">0</pdfrwt>
<pdfrwt beam="2">  1        2 0.39354951E+00 0.65795406E+03</pdfrwt>
<totfact> 0.42077672E+00</totfact>
</mgrwt>
</event>
<event>
 5    1  0.2311484E-004  0.6454578E+03  0.7818608E-02  0.9815340E-01
         13   -1    0    0    0    0  0.00000000000E+00  0.00000000000E+00  0.10000000000E+04  0.10000000000E+04  0.00000000000E+00 0. -1.
          2   -1    0    0  501    0 -0.00000000000E+00 -0.00000000000E+00 -0.10415393901E+03  0.10415393901E+03  0.00000000000E+00 0. -1.
    9000006    2    1    2  501    0  0.00000000000E+00  0.00000000000E+00  0.89584606099E+03  0.11041539390E+04  0.64545778797E+03 0.  0.
         13    1    3    3    0    0  0.22649095460E+03 -0.86780451639E+01  0.84092836057E+03  0.87093855615E+03  0.00000000000E+00 0. -1.
          4    1    3    3  501    0 -0.22649095460E+03  0.86780451639E+01  0.54917700419E+02  0.23321538286E+03  0.00000000000E+00 0. -1.
<mgrwt>
<rscale>  0 0.64545779E+03</rscale>
<asrwt>0</asrwt>
<pdfrwt beam="1">0</pdfrwt>
<pdfrwt beam="2">  1        2 0.37874240E+00 0.64545779E+03</pdfrwt>
<totfact> 0.47794644E+00</totfact>
</mgrwt>
</event>
<event>
 5    1  0.2311484E-004  0.6496792E+03  0.7818608E-02  0.9807381E-01
         13   -1    0    0    0    0  0.00000000000E+00  0.00000000000E+00  0.10000000000E+04  0.10000000000E+04  0.00000000000E+00 0. -1.
          2   -1    0    0  501    0 -0.00000000000E+00 -0.00000000000E+00 -0.10552076446E+03  0.10552076446E+03  0.00000000000E+00 0. -1.
    9000006    2    1    2  501    0  0.00000000000E+00  0.00000000000E+00  0.89447923554E+03  0.11055207645E+04  0.64967919609E+03 0.  0.
         13    1    3    3    0    0  0.30680734723E+03  0.59782092568E+02  0.59767967334E+03  0.67448175575E+03  0.00000000000E+00 0. -1.
          4    1    3    3  501    0 -0.30680734723E+03 -0.59782092568E+02  0.29679956220E+03  0.43103900871E+03  0.00000000000E+00 0. -1.
<mgrwt>
<rscale>  0 0.64967920E+03</rscale>
<asrwt>0</asrwt>
<pdfrwt beam="1">0</pdfrwt>
<pdfrwt beam="2">  1        2 0.38371268E+00 0.64967920E+03</pdfrwt>
<totfact> 0.45801619E+00</totfact>
</mgrwt>
</event>
<event>
 5    1  0.2311484E-004  0.6457995E+03  0.7818608E-02  0.9814693E-01
         13   -1    0    0    0    0  0.00000000000E+00  0.00000000000E+00  0.10000000000E+04  0.10000000000E+04  0.00000000000E+00 0. -1.
          2   -1    0    0  501    0 -0.00000000000E+00 -0.00000000000E+00 -0.10426425494E+03  0.10426425494E+03  0.00000000000E+00 0. -1.
    9000006    2    1    2  501    0  0.00000000000E+00  0.00000000000E+00  0.89573574506E+03  0.11042642549E+04  0.64579951978E+03 0.  0.
         13    1    3    3    0    0  0.13531143545E+03  0.29262339975E+03  0.41696532957E+03  0.52706519968E+03  0.00000000000E+00 0. -1.
          4    1    3    3  501    0 -0.13531143545E+03 -0.29262339975E+03  0.47877041549E+03  0.57719905526E+03  0.00000000000E+00 0. -1.
<mgrwt>
<rscale>  0 0.64579952E+03</rscale>
<asrwt>0</asrwt>
<pdfrwt beam="1">0</pdfrwt>
<pdfrwt beam="2">  1        2 0.37914354E+00 0.64579952E+03</pdfrwt>
<totfact> 0.47630909E+00</totfact>
</mgrwt>
</event>
<event>
 5    1  0.2311484E-004  0.6590035E+03  0.7818608E-02  0.9790030E-01
         13   -1    0    0    0    0  0.00000000000E+00  0.00000000000E+00  0.10000000000E+04  0.10000000000E+04  0.00000000000E+00 0. -1.
          2   -1    0    0  501    0 -0.00000000000E+00 -0.00000000000E+00 -0.10857139650E+03  0.10857139650E+03  0.00000000000E+00 0. -1.
    9000006    2    1    2  501    0  0.00000000000E+00  0.00000000000E+00  0.89142860350E+03  0.11085713965E+04  0.65900347949E+03 0.  0.
         13    1    3    3    0    0 -0.17944637465E+03 -0.56341699582E+02 -0.93991363017E+01  0.18831816760E+03  0.00000000000E+00 0. -1.
          2    1    3    3  501    0  0.17944637465E+03  0.56341699582E+02  0.90082773981E+03  0.92025322889E+03  0.00000000000E+00 0. -1.
<mgrwt>
<rscale>  0 0.65900348E+03</rscale>
<asrwt>0</asrwt>
<pdfrwt beam="1">0</pdfrwt>
<pdfrwt beam="2">  1        2 0.39480591E+00 0.65900348E+03</pdfrwt>
<totfact> 0.41622313E+00</totfact>
</mgrwt>
</event>
<event>
 5    1  0.2311484E-004  0.6439498E+03  0.7818608E-02  0.9818199E-01
         13   -1    0    0    0    0  0.00000000000E+00  0.00000000000E+00  0.10000000000E+04  0.10000000000E+04  0.00000000000E+00 0. -1.
          2   -1    0    0  501    0 -0.00000000000E+00 -0.00000000000E+00 -0.10366782187E+03  0.10366782187E+03  0.00000000000E+00 0. -1.
    9000006    2    1    2  501    0  0.00000000000E+00  0.00000000000E+00  0.89633217813E+03  0.11036678219E+04  0.64394975541E+03 0.  0.
         13    1    3    3    0    0  0.27194261473E+03  0.15759713289E+03  0.56787191927E+03  0.64905173807E+03  0.00000000000E+00 0. -1.
          4    1    3    3  501    0 -0.27194261473E+03 -0.15759713289E+03  0.32846025886E+03  0.45461608380E+03  0.00000000000E+00 0. -1.
<mgrwt>
<rscale>  0 0.64394976E+03</rscale>
<asrwt>0</asrwt>
<pdfrwt beam="1">0</pdfrwt>
<pdfrwt beam="2">  1        2 0.37697469E+00 0.64394976E+03</pdfrwt>
<totfact> 0.48522285E+00</totfact>
</mgrwt>
</event>
<event>
 5    1  0.2311484E-004  0.5924596E+03  0.7818608E-02  0.9921175E-01
         13   -1    0    0    0    0  0.00000000000E+00  0.00000000000E+00  0.10000000000E+04  0.10000000000E+04  0.00000000000E+00 0. -1.
          2   -1    0    0  501    0 -0.00000000000E+00 -0.00000000000E+00 -0.87752106239E+02  0.87752106239E+02  0.00000000000E+00 0. -1.
    9000006    2    1    2  501    0  0.00000000000E+00  0.00000000000E+00  0.91224789376E+03  0.10877521062E+04  0.59245963994E+03 0.  0.
         13    1    3    3    0    0 -0.20983067075E+03  0.28077660288E+02  0.83655511544E+03  0.86292625789E+03  0.00000000000E+00 0. -1.
          2    1    3    3  501    0  0.20983067075E+03 -0.28077660288E+02  0.75692778322E+02  0.22482584835E+03  0.00000000000E+00 0. -1.
<mgrwt>
<rscale>  0 0.59245964E+03</rscale>
<asrwt>0</asrwt>
<pdfrwt beam="1">0</pdfrwt>
<pdfrwt beam="2">  1        2 0.31909924E+00 0.59245964E+03</pdfrwt>
<totfact> 0.78858725E+00</totfact>
</mgrwt>
</event>
<event>
 5    1  0.2311484E-004  0.6489245E+03  0.7818608E-02  0.9808799E-01
         13   -1    0    0    0    0  0.00000000000E+00  0.00000000000E+00  0.10000000000E+04  0.10000000000E+04  0.00000000000E+00 0. -1.
          2   -1    0    0  501    0 -0.00000000000E+00 -0.00000000000E+00 -0.10527576257E+03  0.10527576257E+03  0.00000000000E+00 0. -1.
    9000006    2    1    2  501    0  0.00000000000E+00  0.00000000000E+00  0.89472423743E+03  0.11052757626E+04  0.64892453359E+03 0.  0.
         13    1    3    3    0    0 -0.26563217837E+03  0.15953015838E+03  0.28341287953E+03  0.41992045187E+03  0.00000000000E+00 0. -1.
          2    1    3    3  501    0  0.26563217837E+03 -0.15953015838E+03  0.61131135789E+03  0.68535531070E+03  0.00000000000E+00 0. -1.
<mgrwt>
<rscale>  0 0.64892453E+03</rscale>
<asrwt>0</asrwt>
<pdfrwt beam="1">0</pdfrwt>
<pdfrwt beam="2">  1        2 0.38282176E+00 0.64892453E+03</pdfrwt>
<totfact> 0.46153212E+00</totfact>
</mgrwt>
</event>
<event>
 5    1  0.2311484E-004  0.6509228E+03  0.7818608E-02  0.9805049E-01
         13   -1    0    0    0    0  0.00000000000E+00  0.00000000000E+00  0.10000000000E+04  0.10000000000E+04  0.00000000000E+00 0. -1.
          2   -1    0    0  501    0 -0.00000000000E+00 -0.00000000000E+00 -0.10592513533E+03  0.10592513533E+03  0.00000000000E+00 0. -1.
    9000006    2    1    2  501    0  0.00000000000E+00  0.00000000000E+00  0.89407486467E+03  0.11059251353E+04  0.65092283824E+03 0.  0.
         13    1    3    3    0    0  0.98166634218E+02  0.26681485666E+03  0.71620218944E+03  0.77056630602E+03  0.00000000000E+00 0. -1.
          2    1    3    3  501    0 -0.98166634218E+02 -0.26681485666E+03  0.17787267523E+03  0.33535882932E+03  0.00000000000E+00 0. -1.
<mgrwt>
<rscale>  0 0.65092284E+03</rscale>
<asrwt>0</asrwt>
<pdfrwt beam="1">0</pdfrwt>
<pdfrwt beam="2">  1        2 0.38518312E+00 0.65092284E+03</pdfrwt>
<totfact> 0.45226633E+00</totfact>
</mgrwt>
</event>
<event>
 5    1  0.2311484E-004  0.6611056E+03  0.7818608E-02  0.9786161E-01
         13   -1    0    0    0    0  0.00000000000E+00  0.00000000000E+00  0.10000000000E+04  0.10000000000E+04  0.00000000000E+00 0. -1.
          2   -1    0    0  501    0 -0.00000000000E+00 -0.00000000000E+00 -0.10926515505E+03  0.10926515505E+03  0.00000000000E+00 0. -1.
    9000006    2    1    2  501    0  0.00000000000E+00  0.00000000000E+00  0.89073484495E+03  0.11092651550E+04  0.66110560442E+03 0.  0.
         13    1    3    3    0    0  0.15838215891E+03  0.27380714094E+03  0.60639190179E+03  0.68393449777E+03  0.00000000000E+00 0. -1.
          2    1    3    3  501    0 -0.15838215891E+03 -0.27380714094E+03  0.28434294316E+03  0.42533065728E+03  0.00000000000E+00 0. -1.
<mgrwt>
<rscale>  0 0.66110560E+03</rscale>
<asrwt>0</asrwt>
<pdfrwt beam="1">0</pdfrwt>
<pdfrwt beam="2">  1        2 0.39732867E+00 0.66110560E+03</pdfrwt>
<totfact> 0.40721389E+00</totfact>
</mgrwt>
</event>
<event>
 5    1  0.2311484E-004  0.6426537E+03  0.7818608E-02  0.9820662E-01
         13   -1    0    0    0    0  0.00000000000E+00  0.00000000000E+00  0.10000000000E+04  0.10000000000E+04  0.00000000000E+00 0. -1.
          2   -1    0    0  501    0 -0.00000000000E+00 -0.00000000000E+00 -0.10325095324E+03  0.10325095324E+03  0.00000000000E+00 0. -1.
    9000006    2    1    2  501    0  0.00000000000E+00  0.00000000000E+00  0.89674904676E+03  0.11032509532E+04  0.64265372711E+03 0.  0.
         13    1    3    3    0    0  0.22456028438E+03  0.22075570165E+03  0.33857808680E+03  0.46238027856E+03  0.00000000000E+00 0. -1.
          4    1    3    3  501    0 -0.22456028438E+03 -0.22075570165E+03  0.55817095996E+03  0.64087067469E+03  0.00000000000E+00 0. -1.
<mgrwt>
<rscale>  0 0.64265373E+03</rscale>
<asrwt>0</asrwt>
<pdfrwt beam="1">0</pdfrwt>
<pdfrwt beam="2">  1        2 0.37545880E+00 0.64265373E+03</pdfrwt>
<totfact> 0.49154306E+00</totfact>
</mgrwt>
</event>
<event>
 5    1  0.2311484E-004  0.4845533E+03  0.7818608E-02  0.1017891E+00
         13   -1    0    0    0    0  0.00000000000E+00  0.00000000000E+00  0.10000000000E+04  0.10000000000E+04  0.00000000000E+00 0. -1.
          2   -1    0    0  501    0 -0.00000000000E+00 -0.00000000000E+00 -0.58697981372E+02  0.58697981372E+02  0.00000000000E+00 0. -1.
    9000006    2    1    2  501    0  0.00000000000E+00  0.00000000000E+00  0.94130201863E+03  0.10586979814E+04  0.48455332574E+03 0.  0.
         13    1    3    3    0    0  0.18505999217E+03 -0.13483681093E+03  0.29764632092E+03  0.37552829274E+03  0.00000000000E+00 0. -1.
          2    1    3    3  501    0 -0.18505999217E+03  0.13483681093E+03  0.64365569770E+03  0.68316968864E+03  0.00000000000E+00 0. -1.
<mgrwt>
<rscale>  0 0.48455333E+03</rscale>
<asrwt>0</asrwt>
<pdfrwt beam="1">0</pdfrwt>
<pdfrwt beam="2">  1        2 0.21344766E+00 0.48455333E+03</pdfrwt>
<totfact> 0.18931920E+01</totfact>
</mgrwt>
</event>
<event>
 5    1  0.2311484E-004  0.6473882E+03  0.7818608E-02  0.9811692E-01
         13   -1    0    0    0    0  0.00000000000E+00  0.00000000000E+00  0.10000000000E+04  0.10000000000E+04  0.00000000000E+00 0. -1.
          2   -1    0    0  501    0 -0.00000000000E+00 -0.00000000000E+00 -0.10477787321E+03  0.10477787321E+03  0.00000000000E+00 0. -1.
    9000006    2    1    2  501    0  0.00000000000E+00  0.00000000000E+00  0.89522212679E+03  0.11047778732E+04  0.64738820876E+03 0.  0.
         13    1    3    3    0    0  0.24958584237E+03 -0.80615121905E+02  0.77133652986E+03  0.81470972309E+03  0.00000000000E+00 0. -1.
          2    1    3    3  501    0 -0.24958584237E+03  0.80615121905E+02  0.12388559693E+03  0.29006815012E+03  0.00000000000E+00 0. -1.
<mgrwt>
<rscale>  0 0.64738821E+03</rscale>
<asrwt>0</asrwt>
<pdfrwt beam="1">0</pdfrwt>
<pdfrwt beam="2">  1        2 0.38101125E+00 0.64738821E+03</pdfrwt>
<totfact> 0.46875280E+00</totfact>
</mgrwt>
</event>
<event>
 5    1  0.2311484E-004  0.6462432E+03  0.7818608E-02  0.9813854E-01
         13   -1    0    0    0    0  0.00000000000E+00  0.00000000000E+00  0.10000000000E+04  0.10000000000E+04  0.00000000000E+00 0. -1.
          2   -1    0    0  501    0 -0.00000000000E+00 -0.00000000000E+00 -0.10440756783E+03  0.10440756783E+03  0.00000000000E+00 0. -1.
    9000006    2    1    2  501    0  0.00000000000E+00  0.00000000000E+00  0.89559243217E+03  0.11044075678E+04  0.64624319829E+03 0.  0.
         13    1    3    3    0    0  0.20719828025E+03 -0.22578190374E+03  0.62290453817E+03  0.69420361499E+03  0.00000000000E+00 0. -1.
          4    1    3    3  501    0 -0.20719828025E+03  0.22578190374E+03  0.27268789400E+03  0.41020395284E+03  0.00000000000E+00 0. -1.
<mgrwt>
<rscale>  0 0.64624320E+03</rscale>
<asrwt>0</asrwt>
<pdfrwt beam="1">0</pdfrwt>
<pdfrwt beam="2">  1        2 0.37966468E+00 0.64624320E+03</pdfrwt>
<totfact> 0.47418962E+00</totfact>
</mgrwt>
</event>
<event>
 5    1  0.2311484E-004  0.6460267E+03  0.7818608E-02  0.9814264E-01
         13   -1    0    0    0    0  0.00000000000E+00  0.00000000000E+00  0.10000000000E+04  0.10000000000E+04  0.00000000000E+00 0. -1.
          2   -1    0    0  501    0 -0.00000000000E+00 -0.00000000000E+00 -0.10433760922E+03  0.10433760922E+03  0.00000000000E+00 0. -1.
    9000006    2    1    2  501    0  0.00000000000E+00  0.00000000000E+00  0.89566239078E+03  0.11043376092E+04  0.64602665338E+03 0.  0.
         13    1    3    3    0    0  0.85692387868E+02 -0.23039220855E+03  0.80605315385E+03  0.84270127680E+03  0.00000000000E+00 0. -1.
          4    1    3    3  501    0 -0.85692387868E+02  0.23039220855E+03  0.89609236933E+02  0.26163633242E+03  0.00000000000E+00 0. -1.
<mgrwt>
<rscale>  0 0.64602665E+03</rscale>
<asrwt>0</asrwt>
<pdfrwt beam="1">0</pdfrwt>
<pdfrwt beam="2">  1        2 0.37941029E+00 0.64602665E+03</pdfrwt>
<totfact> 0.47522317E+00</totfact>
</mgrwt>
</event>
<event>
 5    1  0.2311484E-004  0.6085764E+03  0.7818608E-02  0.9887771E-01
         13   -1    0    0    0    0  0.00000000000E+00  0.00000000000E+00  0.10000000000E+04  0.10000000000E+04  0.00000000000E+00 0. -1.
          2   -1    0    0  501    0 -0.00000000000E+00 -0.00000000000E+00 -0.92591293524E+02  0.92591293524E+02  0.00000000000E+00 0. -1.
    9000006    2    1    2  501    0  0.00000000000E+00  0.00000000000E+00  0.90740870648E+03  0.10925912935E+04  0.60857635026E+03 0.  0.
         13    1    3    3    0    0  0.12442483882E+03  0.16721849525E+03  0.85171472225E+03  0.87684749744E+03  0.00000000000E+00 0. -1.
          2    1    3    3  501    0 -0.12442483882E+03 -0.16721849525E+03  0.55693984225E+02  0.21574379608E+03  0.00000000000E+00 0. -1.
<mgrwt>
<rscale>  0 0.60857635E+03</rscale>
<asrwt>0</asrwt>
<pdfrwt beam="1">0</pdfrwt>
<pdfrwt beam="2">  1        2 0.33669632E+00 0.60857635E+03</pdfrwt>
<totfact> 0.68139157E+00</totfact>
</mgrwt>
</event>
<event>
 5    1  0.2311484E-004  0.6468991E+03  0.7818608E-02  0.9812615E-01
         13   -1    0    0    0    0  0.00000000000E+00  0.00000000000E+00  0.10000000000E+04  0.10000000000E+04  0.00000000000E+00 0. -1.
          2   -1    0    0  501    0 -0.00000000000E+00 -0.00000000000E+00 -0.10461962726E+03  0.10461962726E+03  0.00000000000E+00 0. -1.
    9000006    2    1    2  501    0  0.00000000000E+00  0.00000000000E+00  0.89538037274E+03  0.11046196273E+04  0.64689914905E+03 0.  0.
         13    1    3    3    0    0  0.21442536123E+03 -0.23917376746E+03  0.51242680213E+03  0.60478389043E+03  0.00000000000E+00 0. -1.
          2    1    3    3  501    0 -0.21442536123E+03  0.23917376746E+03  0.38295357060E+03  0.49983573683E+03  0.00000000000E+00 0. -1.
<mgrwt>
<rscale>  0 0.64689915E+03</rscale>
<asrwt>0</asrwt>
<pdfrwt beam="1">0</pdfrwt>
<pdfrwt beam="2">  1        2 0.38043581E+00 0.64689915E+03</pdfrwt>
<totfact> 0.47106918E+00</totfact>
</mgrwt>
</event>
<event>
 5    1  0.2311484E-004  0.6602623E+03  0.7818608E-02  0.9787711E-01
         13   -1    0    0    0    0  0.00000000000E+00  0.00000000000E+00  0.10000000000E+04  0.10000000000E+04  0.00000000000E+00 0. -1.
          2   -1    0    0  501    0 -0.00000000000E+00 -0.00000000000E+00 -0.10898656371E+03  0.10898656371E+03  0.00000000000E+00 0. -1.
    9000006    2    1    2  501    0  0.00000000000E+00  0.00000000000E+00  0.89101343629E+03  0.11089865637E+04  0.66026226215E+03 0.  0.
         13    1    3    3    0    0 -0.71258778849E+02  0.82485706002E+02  0.96890258476E+03  0.97501483271E+03  0.00000000000E+00 0. -1.
          4    1    3    3  501    0  0.71258778849E+02 -0.82485706002E+02 -0.77889148462E+02  0.13397173100E+03  0.00000000000E+00 0. -1.
<mgrwt>
<rscale>  0 0.66026226E+03</rscale>
<asrwt>0</asrwt>
<pdfrwt beam="1">0</pdfrwt>
<pdfrwt beam="2">  1        2 0.39631561E+00 0.66026226E+03</pdfrwt>
<totfact> 0.41081040E+00</totfact>
</mgrwt>
</event>
<event>
 5    1  0.2311484E-004  0.6458012E+03  0.7818608E-02  0.9814690E-01
         13   -1    0    0    0    0  0.00000000000E+00  0.00000000000E+00  0.10000000000E+04  0.10000000000E+04  0.00000000000E+00 0. -1.
          2   -1    0    0  501    0 -0.00000000000E+00 -0.00000000000E+00 -0.10426478981E+03  0.10426478981E+03  0.00000000000E+00 0. -1.
    9000006    2    1    2  501    0  0.00000000000E+00  0.00000000000E+00  0.89573521019E+03  0.11042647898E+04  0.64580117624E+03 0.  0.
         13    1    3    3    0    0  0.30600112886E+03 -0.45631340919E+02  0.28979639439E+03  0.42391138264E+03  0.00000000000E+00 0. -1.
          4    1    3    3  501    0 -0.30600112886E+03  0.45631340919E+02  0.60593881581E+03  0.68035340716E+03  0.00000000000E+00 0. -1.
<mgrwt>
<rscale>  0 0.64580118E+03</rscale>
<asrwt>0</asrwt>
<pdfrwt beam="1">0</pdfrwt>
<pdfrwt beam="2">  1        2 0.37914549E+00 0.64580118E+03</pdfrwt>
<totfact> 0.47630116E+00</totfact>
</mgrwt>
</event>
<event>
 5    1  0.2311484E-004  0.6552342E+03  0.7818608E-02  0.9797007E-01
         13   -1    0    0    0    0  0.00000000000E+00  0.00000000000E+00  0.10000000000E+04  0.10000000000E+04  0.00000000000E+00 0. -1.
          2   -1    0    0  501    0 -0.00000000000E+00 -0.00000000000E+00 -0.10733297135E+03  0.10733297135E+03  0.00000000000E+00 0. -1.
    9000006    2    1    2  501    0  0.00000000000E+00  0.00000000000E+00  0.89266702865E+03  0.11073329713E+04  0.65523422178E+03 0.  0.
         13    1    3    3    0    0  0.21813078583E+03 -0.16450585129E+03  0.75188718300E+03  0.79998596912E+03  0.00000000000E+00 0. -1.
          2    1    3    3  501    0 -0.21813078583E+03  0.16450585129E+03  0.14077984565E+03  0.30734700223E+03  0.00000000000E+00 0. -1.
<mgrwt>
<rscale>  0 0.65523422E+03</rscale>
<asrwt>0</asrwt>
<pdfrwt beam="1">0</pdfrwt>
<pdfrwt beam="2">  1        2 0.39030254E+00 0.65523422E+03</pdfrwt>
<totfact> 0.43275437E+00</totfact>
</mgrwt>
</event>
<event>
 5    1  0.2311484E-004  0.6375547E+03  0.7818608E-02  0.9830416E-01
         13   -1    0    0    0    0  0.00000000000E+00  0.00000000000E+00  0.10000000000E+04  0.10000000000E+04  0.00000000000E+00 0. -1.
          2   -1    0    0  501    0 -0.00000000000E+00 -0.00000000000E+00 -0.10161898551E+03  0.10161898551E+03  0.00000000000E+00 0. -1.
    9000006    2    1    2  501    0  0.00000000000E+00  0.00000000000E+00  0.89838101449E+03  0.11016189855E+04  0.63755465808E+03 0.  0.
         13    1    3    3    0    0 -0.11865494198E+03 -0.72673289230E+02 -0.46379029204E+02  0.14666770802E+03  0.00000000000E+00 0. -1.
          4    1    3    3  501    0  0.11865494198E+03  0.72673289230E+02  0.94476004369E+03  0.95495127749E+03  0.00000000000E+00 0. -1.
<mgrwt>
<rscale>  0 0.63755466E+03</rscale>
<asrwt>0</asrwt>
<pdfrwt beam="1">0</pdfrwt>
<pdfrwt beam="2">  1        2 0.36952436E+00 0.63755466E+03</pdfrwt>
<totfact> 0.51701853E+00</totfact>
</mgrwt>
</event>
<event>
 5    1  0.2311484E-004  0.6476834E+03  0.7818608E-02  0.9811136E-01
         13   -1    0    0    0    0  0.00000000000E+00  0.00000000000E+00  0.10000000000E+04  0.10000000000E+04  0.00000000000E+00 0. -1.
          2   -1    0    0  501    0 -0.00000000000E+00 -0.00000000000E+00 -0.10487345522E+03  0.10487345522E+03  0.00000000000E+00 0. -1.
    9000006    2    1    2  501    0  0.00000000000E+00  0.00000000000E+00  0.89512654478E+03  0.11048734552E+04  0.64768342643E+03 0.  0.
         13    1    3    3    0    0 -0.22699896019E+03 -0.11241243497E+03  0.10337852419E+03  0.27359130601E+03  0.00000000000E+00 0. -1.
          2    1    3    3  501    0  0.22699896019E+03  0.11241243497E+03  0.79174802060E+03  0.83128214920E+03  0.00000000000E+00 0. -1.
<mgrwt>
<rscale>  0 0.64768343E+03</rscale>
<asrwt>0</asrwt>
<pdfrwt beam="1">0</pdfrwt>
<pdfrwt beam="2">  1        2 0.38135882E+00 0.64768343E+03</pdfrwt>
<totfact> 0.46735870E+00</totfact>
</mgrwt>
</event>
<event>
 5    1  0.2311484E-004  0.5953489E+03  0.7818608E-02  0.9915103E-01
         13   -1    0    0    0    0  0.00000000000E+00  0.00000000000E+00  0.10000000000E+04  0.10000000000E+04  0.00000000000E+00 0. -1.
          2   -1    0    0  501    0 -0.00000000000E+00 -0.00000000000E+00 -0.88610071059E+02  0.88610071059E+02  0.00000000000E+00 0. -1.
    9000006    2    1    2  501    0  0.00000000000E+00  0.00000000000E+00  0.91138992894E+03  0.10886100711E+04  0.59534887607E+03 0.  0.
         13    1    3    3    0    0  0.92947018795E+02 -0.20707580781E+03  0.10354119264E+03  0.24948009351E+03  0.00000000000E+00 0. -1.
          2    1    3    3  501    0 -0.92947018795E+02  0.20707580781E+03  0.80784873630E+03  0.83912997755E+03  0.00000000000E+00 0. -1.
<mgrwt>
<rscale>  0 0.59534888E+03</rscale>
<asrwt>0</asrwt>
<pdfrwt beam="1">0</pdfrwt>
<pdfrwt beam="2">  1        2 0.32221912E+00 0.59534888E+03</pdfrwt>
<totfact> 0.76846954E+00</totfact>
</mgrwt>
</event>
<event>
 5    1  0.2311484E-004  0.6642771E+03  0.7818608E-02  0.9780352E-01
         13   -1    0    0    0    0  0.00000000000E+00  0.00000000000E+00  0.10000000000E+04  0.10000000000E+04  0.00000000000E+00 0. -1.
          2   -1    0    0  501    0 -0.00000000000E+00 -0.00000000000E+00 -0.11031600886E+03  0.11031600886E+03  0.00000000000E+00 0. -1.
    9000006    2    1    2  501    0  0.00000000000E+00  0.00000000000E+00  0.88968399114E+03  0.11103160089E+04  0.66427707730E+03 0.  0.
         13    1    3    3    0    0 -0.18704041848E+03  0.15164375686E+03  0.82722436055E+03  0.86155678271E+03  0.00000000000E+00 0. -1.
          2    1    3    3  501    0  0.18704041848E+03 -0.15164375686E+03  0.62459630588E+02  0.24875922615E+03  0.00000000000E+00 0. -1.
<mgrwt>
<rscale>  0 0.66427708E+03</rscale>
<asrwt>0</asrwt>
<pdfrwt beam="1">0</pdfrwt>
<pdfrwt beam="2">  1        2 0.40114997E+00 0.66427708E+03</pdfrwt>
<totfact> 0.39390109E+00</totfact>
</mgrwt>
</event>
<event>
 5    1  0.2311484E-004  0.6508579E+03  0.7818608E-02  0.9805171E-01
         13   -1    0    0    0    0  0.00000000000E+00  0.00000000000E+00  0.10000000000E+04  0.10000000000E+04  0.00000000000E+00 0. -1.
          2   -1    0    0  501    0 -0.00000000000E+00 -0.00000000000E+00 -0.10590400813E+03  0.10590400813E+03  0.00000000000E+00 0. -1.
    9000006    2    1    2  501    0  0.00000000000E+00  0.00000000000E+00  0.89409599187E+03  0.11059040081E+04  0.65085792039E+03 0.  0.
         13    1    3    3    0    0  0.22229230512E+03 -0.22484971934E+03  0.31617230031E+03  0.44714224659E+03  0.00000000000E+00 0. -1.
          2    1    3    3  501    0 -0.22229230512E+03  0.22484971934E+03  0.57792369155E+03  0.65876176154E+03  0.00000000000E+00 0. -1.
<mgrwt>
<rscale>  0 0.65085792E+03</rscale>
<asrwt>0</asrwt>
<pdfrwt beam="1">0</pdfrwt>
<pdfrwt beam="2">  1        2 0.38510630E+00 0.65085792E+03</pdfrwt>
<totfact> 0.45256512E+00</totfact>
</mgrwt>
</event>
<event>
 5    1  0.2311484E-004  0.6618565E+03  0.7818608E-02  0.9784782E-01
         13   -1    0    0    0    0  0.00000000000E+00  0.00000000000E+00  0.10000000000E+04  0.10000000000E+04  0.00000000000E+00 0. -1.
          2   -1    0    0  501    0 -0.00000000000E+00 -0.00000000000E+00 -0.10951349309E+03  0.10951349309E+03  0.00000000000E+00 0. -1.
    9000006    2    1    2  501    0  0.00000000000E+00  0.00000000000E+00  0.89048650691E+03  0.11095134931E+04  0.66185645903E+03 0.  0.
         13    1    3    3    0    0  0.21765584616E+03  0.10146819037E+03  0.82693826718E+03  0.86110206059E+03  0.00000000000E+00 0. -1.
          4    1    3    3  501    0 -0.21765584616E+03 -0.10146819037E+03  0.63548239732E+02  0.24841143250E+03  0.00000000000E+00 0. -1.
<mgrwt>
<rscale>  0 0.66185646E+03</rscale>
<asrwt>0</asrwt>
<pdfrwt beam="1">0</pdfrwt>
<pdfrwt beam="2">  1        2 0.39823172E+00 0.66185646E+03</pdfrwt>
<totfact> 0.40403185E+00</totfact>
</mgrwt>
</event>
<event>
 5    1  0.2311484E-004  0.6524235E+03  0.7818608E-02  0.9802242E-01
         13   -1    0    0    0    0  0.00000000000E+00  0.00000000000E+00  0.10000000000E+04  0.10000000000E+04  0.00000000000E+00 0. -1.
          2   -1    0    0  501    0 -0.00000000000E+00 -0.00000000000E+00 -0.10641411460E+03  0.10641411460E+03  0.00000000000E+00 0. -1.
    9000006    2    1    2  501    0  0.00000000000E+00  0.00000000000E+00  0.89358588540E+03  0.11064141146E+04  0.65242352687E+03 0.  0.
         13    1    3    3    0    0  0.16095548729E+03  0.20532158332E+03  0.11468935276E+03  0.28498643670E+03  0.00000000000E+00 0. -1.
          4    1    3    3  501    0 -0.16095548729E+03 -0.20532158332E+03  0.77889653264E+03  0.82142767790E+03  0.00000000000E+00 0. -1.
<mgrwt>
<rscale>  0 0.65242353E+03</rscale>
<asrwt>0</asrwt>
<pdfrwt beam="1">0</pdfrwt>
<pdfrwt beam="2">  1        2 0.38696123E+00 0.65242353E+03</pdfrwt>
<totfact> 0.44540086E+00</totfact>
</mgrwt>
</event>
<event>
 5    1  0.2311484E-004  0.6460881E+03  0.7818608E-02  0.9814147E-01
         13   -1    0    0    0    0  0.00000000000E+00  0.00000000000E+00  0.10000000000E+04  0.10000000000E+04  0.00000000000E+00 0. -1.
          2   -1    0    0  501    0 -0.00000000000E+00 -0.00000000000E+00 -0.10435747384E+03  0.10435747384E+03  0.00000000000E+00 0. -1.
    9000006    2    1    2  501    0  0.00000000000E+00  0.00000000000E+00  0.89564252616E+03  0.11043574738E+04  0.64608814830E+03 0.  0.
         13    1    3    3    0    0  0.28620354429E+03  0.14139802860E+03  0.53245488662E+03  0.62081726582E+03  0.00000000000E+00 0. -1.
          2    1    3    3  501    0 -0.28620354429E+03 -0.14139802860E+03  0.36318763954E+03  0.48354020802E+03  0.00000000000E+00 0. -1.
<mgrwt>
<rscale>  0 0.64608815E+03</rscale>
<asrwt>0</asrwt>
<pdfrwt beam="1">0</pdfrwt>
<pdfrwt beam="2">  1        2 0.37948252E+00 0.64608815E+03</pdfrwt>
<totfact> 0.47492948E+00</totfact>
</mgrwt>
</event>
<event>
 5    1  0.2311484E-004  0.6604916E+03  0.7818608E-02  0.9787289E-01
         13   -1    0    0    0    0  0.00000000000E+00  0.00000000000E+00  0.10000000000E+04  0.10000000000E+04  0.00000000000E+00 0. -1.
          2   -1    0    0  501    0 -0.00000000000E+00 -0.00000000000E+00 -0.10906229874E+03  0.10906229874E+03  0.00000000000E+00 0. -1.
    9000006    2    1    2  501    0  0.00000000000E+00  0.00000000000E+00  0.89093770126E+03  0.11090622987E+04  0.66049163125E+03 0.  0.
         13    1    3    3    0    0  0.16408360312E+02  0.18387045554E+03  0.90527524875E+03  0.92390521954E+03  0.00000000000E+00 0. -1.
          2    1    3    3  501    0 -0.16408360312E+02 -0.18387045554E+03 -0.14337547483E+02  0.18515707919E+03  0.00000000000E+00 0. -1.
<mgrwt>
<rscale>  0 0.66049163E+03</rscale>
<asrwt>0</asrwt>
<pdfrwt beam="1">0</pdfrwt>
<pdfrwt beam="2">  1        2 0.39659101E+00 0.66049163E+03</pdfrwt>
<totfact> 0.40982987E+00</totfact>
</mgrwt>
</event>
<event>
 5    1  0.2311484E-004  0.6751836E+03  0.7818608E-02  0.9760639E-01
         13   -1    0    0    0    0  0.00000000000E+00  0.00000000000E+00  0.10000000000E+04  0.10000000000E+04  0.00000000000E+00 0. -1.
          2   -1    0    0  501    0 -0.00000000000E+00 -0.00000000000E+00 -0.11396820976E+03  0.11396820976E+03  0.00000000000E+00 0. -1.
    9000006    2    1    2  501    0  0.00000000000E+00  0.00000000000E+00  0.88603179024E+03  0.11139682098E+04  0.67518355950E+03 0.  0.
         13    1    3    3    0    0  0.11438959321E+03 -0.41615284510E+02 -0.76501819909E+02  0.14376835322E+03  0.00000000000E+00 0. -1.
          2    1    3    3  501    0 -0.11438959321E+03  0.41615284510E+02  0.96253361015E+03  0.97019985653E+03  0.00000000000E+00 0. -1.
<mgrwt>
<rscale>  0 0.67518356E+03</rscale>
<asrwt>0</asrwt>
<pdfrwt beam="1">0</pdfrwt>
<pdfrwt beam="2">  1        2 0.41443073E+00 0.67518356E+03</pdfrwt>
<totfact> 0.35061019E+00</totfact>
</mgrwt>
</event>
<event>
 5    1  0.2311484E-004  0.6510742E+03  0.7818608E-02  0.9804766E-01
         13   -1    0    0    0    0  0.00000000000E+00  0.00000000000E+00  0.10000000000E+04  0.10000000000E+04  0.00000000000E+00 0. -1.
          2   -1    0    0  501    0 -0.00000000000E+00 -0.00000000000E+00 -0.10597439748E+03  0.10597439748E+03  0.00000000000E+00 0. -1.
    9000006    2    1    2  501    0  0.00000000000E+00  0.00000000000E+00  0.89402560252E+03  0.11059743975E+04  0.65107418157E+03 0.  0.
         13    1    3    3    0    0 -0.18870106783E+03  0.10506713541E+03  0.33259443409E+02  0.21852548254E+03  0.00000000000E+00 0. -1.
          4    1    3    3  501    0  0.18870106783E+03 -0.10506713541E+03  0.86076615911E+03  0.88744891494E+03  0.00000000000E+00 0. -1.
<mgrwt>
<rscale>  0 0.65107418E+03</rscale>
<asrwt>0</asrwt>
<pdfrwt beam="1">0</pdfrwt>
<pdfrwt beam="2">  1        2 0.38536226E+00 0.65107418E+03</pdfrwt>
<totfact> 0.45157035E+00</totfact>
</mgrwt>
</event>
<event>
 5    1  0.2311484E-004  0.6322855E+03  0.7818608E-02  0.9840599E-01
         13   -1    0    0    0    0  0.00000000000E+00  0.00000000000E+00  0.10000000000E+04  0.10000000000E+04  0.00000000000E+00 0. -1.
          2   -1    0    0  501    0 -0.00000000000E+00 -0.00000000000E+00 -0.99946247567E+02  0.99946247567E+02  0.00000000000E+00 0. -1.
    9000006    2    1    2  501    0  0.00000000000E+00  0.00000000000E+00  0.90005375243E+03  0.10999462476E+04  0.63228552907E+03 0.  0.
         13    1    3    3    0    0 -0.79346682612E+02 -0.29605400245E+03  0.58480516342E+03  0.66025824309E+03  0.00000000000E+00 0. -1.
          4    1    3    3  501    0  0.79346682612E+02  0.29605400245E+03  0.31524858901E+03  0.43968800448E+03  0.00000000000E+00 0. -1.
<mgrwt>
<rscale>  0 0.63228553E+03</rscale>
<asrwt>0</asrwt>
<pdfrwt beam="1">0</pdfrwt>
<pdfrwt beam="2">  1        2 0.36344167E+00 0.63228553E+03</pdfrwt>
<totfact> 0.54438197E+00</totfact>
</mgrwt>
</event>
<event>
 5    1  0.2311484E-004  0.6515229E+03  0.7818608E-02  0.9803926E-01
         13   -1    0    0    0    0  0.00000000000E+00  0.00000000000E+00  0.10000000000E+04  0.10000000000E+04  0.00000000000E+00 0. -1.
          2   -1    0    0  501    0 -0.00000000000E+00 -0.00000000000E+00 -0.10612052175E+03  0.10612052175E+03  0.00000000000E+00 0. -1.
    9000006    2    1    2  501    0  0.00000000000E+00  0.00000000000E+00  0.89387947825E+03  0.11061205217E+04  0.65152289828E+03 0.  0.
         13    1    3    3    0    0 -0.27224384359E+03 -0.59036900903E+02  0.16023440825E+03  0.32136759580E+03  0.00000000000E+00 0. -1.
          2    1    3    3  501    0  0.27224384359E+03  0.59036900903E+02  0.73364507001E+03  0.78475292595E+03  0.00000000000E+00 0. -1.
<mgrwt>
<rscale>  0 0.65152290E+03</rscale>
<asrwt>0</asrwt>
<pdfrwt beam="1">0</pdfrwt>
<pdfrwt beam="2">  1        2 0.38589362E+00 0.65152290E+03</pdfrwt>
<totfact> 0.44951160E+00</totfact>
</mgrwt>
</event>
<event>
 5    1  0.2311484E-004  0.6410727E+03  0.7818608E-02  0.9823676E-01
         13   -1    0    0    0    0  0.00000000000E+00  0.00000000000E+00  0.10000000000E+04  0.10000000000E+04  0.00000000000E+00 0. -1.
          2   -1    0    0  501    0 -0.00000000000E+00 -0.00000000000E+00 -0.10274356009E+03  0.10274356009E+03  0.00000000000E+00 0. -1.
    9000006    2    1    2  501    0  0.00000000000E+00  0.00000000000E+00  0.89725643991E+03  0.11027435601E+04  0.64107272627E+03 0.  0.
         13    1    3    3    0    0 -0.30625066547E+03 -0.70264022734E+02  0.33960444084E+03  0.46266367831E+03  0.00000000000E+00 0. -1.
          4    1    3    3  501    0  0.30625066547E+03  0.70264022734E+02  0.55765199907E+03  0.64007988178E+03  0.00000000000E+00 0. -1.
<mgrwt>
<rscale>  0 0.64107273E+03</rscale>
<asrwt>0</asrwt>
<pdfrwt beam="1">0</pdfrwt>
<pdfrwt beam="2">  1        2 0.37361373E+00 0.64107273E+03</pdfrwt>
<totfact> 0.49933781E+00</totfact>
</mgrwt>
</event>
<event>
 5    1  0.2311484E-004  0.6994085E+03  0.7818608E-02  0.9718244E-01
         13   -1    0    0    0    0  0.00000000000E+00  0.00000000000E+00  0.10000000000E+04  0.10000000000E+04  0.00000000000E+00 0. -1.
          2   -1    0    0  501    0 -0.00000000000E+00 -0.00000000000E+00 -0.12229307962E+03  0.12229307962E+03  0.00000000000E+00 0. -1.
    9000006    2    1    2  501    0  0.00000000000E+00  0.00000000000E+00  0.87770692038E+03  0.11222930796E+04  0.69940854905E+03 0.  0.
         13    1    3    3    0    0  0.29131606097E+03  0.18930786212E+03  0.50284921097E+03  0.61119542130E+03  0.00000000000E+00 0. -1.
          2    1    3    3  501    0 -0.29131606097E+03 -0.18930786212E+03  0.37485770940E+03  0.51109765832E+03  0.00000000000E+00 0. -1.
<mgrwt>
<rscale>  0 0.69940855E+03</rscale>
<asrwt>0</asrwt>
<pdfrwt beam="1">0</pdfrwt>
<pdfrwt beam="2">  1        2 0.44470305E+00 0.69940855E+03</pdfrwt>
<totfact> 0.26732584E+00</totfact>
</mgrwt>
</event>
<event>
 5    1  0.2311484E-004  0.6538176E+03  0.7818608E-02  0.9799642E-01
         13   -1    0    0    0    0  0.00000000000E+00  0.00000000000E+00  0.10000000000E+04  0.10000000000E+04  0.00000000000E+00 0. -1.
          2   -1    0    0  501    0 -0.00000000000E+00 -0.00000000000E+00 -0.10686936112E+03  0.10686936112E+03  0.00000000000E+00 0. -1.
    9000006    2    1    2  501    0  0.00000000000E+00  0.00000000000E+00  0.89313063888E+03  0.11068693611E+04  0.65381759268E+03 0.  0.
         13    1    3    3    0    0 -0.16974471272E+03  0.17105589180E+03  0.82053101552E+03  0.85518684102E+03  0.00000000000E+00 0. -1.
          4    1    3    3  501    0  0.16974471272E+03 -0.17105589180E+03  0.72599623353E+02  0.25168252011E+03  0.00000000000E+00 0. -1.
<mgrwt>
<rscale>  0 0.65381759E+03</rscale>
<asrwt>0</asrwt>
<pdfrwt beam="1">0</pdfrwt>
<pdfrwt beam="2">  1        2 0.38861668E+00 0.65381759E+03</pdfrwt>
<totfact> 0.43909399E+00</totfact>
</mgrwt>
</event>
<event>
 5    1  0.2311484E-004  0.6502702E+03  0.7818608E-02  0.9806272E-01
         13   -1    0    0    0    0  0.00000000000E+00  0.00000000000E+00  0.10000000000E+04  0.10000000000E+04  0.00000000000E+00 0. -1.
          2   -1    0    0  501    0 -0.00000000000E+00 -0.00000000000E+00 -0.10571283270E+03  0.10571283270E+03  0.00000000000E+00 0. -1.
    9000006    2    1    2  501    0  0.00000000000E+00  0.00000000000E+00  0.89428716730E+03  0.11057128327E+04  0.65027019829E+03 0.  0.
         13    1    3    3    0    0 -0.58070892498E+02  0.18209532122E+02  0.99022854963E+03  0.99209696911E+03  0.00000000000E+00 0. -1.
          4    1    3    3  501    0  0.58070892498E+02 -0.18209532122E+02 -0.95941382326E+02  0.11361586359E+03  0.00000000000E+00 0. -1.
<mgrwt>
<rscale>  0 0.65027020E+03</rscale>
<asrwt>0</asrwt>
<pdfrwt beam="1">0</pdfrwt>
<pdfrwt beam="2">  1        2 0.38441111E+00 0.65027020E+03</pdfrwt>
<totfact> 0.45527690E+00</totfact>
</mgrwt>
</event>
<event>
 5    1  0.2311484E-004  0.6529361E+03  0.7818608E-02  0.9801285E-01
         13   -1    0    0    0    0  0.00000000000E+00  0.00000000000E+00  0.10000000000E+04  0.10000000000E+04  0.00000000000E+00 0. -1.
          2   -1    0    0  501    0 -0.00000000000E+00 -0.00000000000E+00 -0.10658138594E+03  0.10658138594E+03  0.00000000000E+00 0. -1.
    9000006    2    1    2  501    0  0.00000000000E+00  0.00000000000E+00  0.89341861406E+03  0.11065813859E+04  0.65293609469E+03 0.  0.
         13    1    3    3    0    0 -0.35506299505E+02 -0.20411911732E+03  0.87430429910E+03  0.89851728909E+03  0.00000000000E+00 0. -1.
          2    1    3    3  501    0  0.35506299505E+02  0.20411911732E+03  0.19114314962E+02  0.20806409685E+03  0.00000000000E+00 0. -1.
<mgrwt>
<rscale>  0 0.65293609E+03</rscale>
<asrwt>0</asrwt>
<pdfrwt beam="1">0</pdfrwt>
<pdfrwt beam="2">  1        2 0.38756949E+00 0.65293609E+03</pdfrwt>
<totfact> 0.44307406E+00</totfact>
</mgrwt>
</event>
<event>
 5    1  0.2311484E-004  0.6452362E+03  0.7818608E-02  0.9815759E-01
         13   -1    0    0    0    0  0.00000000000E+00  0.00000000000E+00  0.10000000000E+04  0.10000000000E+04  0.00000000000E+00 0. -1.
          2   -1    0    0  501    0 -0.00000000000E+00 -0.00000000000E+00 -0.10408244231E+03  0.10408244231E+03  0.00000000000E+00 0. -1.
    9000006    2    1    2  501    0  0.00000000000E+00  0.00000000000E+00  0.89591755769E+03  0.11040824423E+04  0.64523621197E+03 0.  0.
         13    1    3    3    0    0  0.14635125904E+03  0.25961758267E+03  0.65935395325E+03  0.72357972327E+03  0.00000000000E+00 0. -1.
          4    1    3    3  501    0 -0.14635125904E+03 -0.25961758267E+03  0.23656360444E+03  0.38050271905E+03  0.00000000000E+00 0. -1.
<mgrwt>
<rscale>  0 0.64523621E+03</rscale>
<asrwt>0</asrwt>
<pdfrwt beam="1">0</pdfrwt>
<pdfrwt beam="2">  1        2 0.37848241E+00 0.64523621E+03</pdfrwt>
<totfact> 0.47901036E+00</totfact>
</mgrwt>
</event>
<event>
 5    1  0.2311484E-004  0.6512581E+03  0.7818608E-02  0.9804421E-01
         13   -1    0    0    0    0  0.00000000000E+00  0.00000000000E+00  0.10000000000E+04  0.10000000000E+04  0.00000000000E+00 0. -1.
          2   -1    0    0  501    0 -0.00000000000E+00 -0.00000000000E+00 -0.10603427783E+03  0.10603427783E+03  0.00000000000E+00 0. -1.
    9000006    2    1    2  501    0  0.00000000000E+00  0.00000000000E+00  0.89396572217E+03  0.11060342778E+04  0.65125809884E+03 0.  0.
         13    1    3    3    0    0  0.27158674936E+03 -0.16211725535E+02  0.75084213834E+03  0.79861511329E+03  0.00000000000E+00 0. -1.
          4    1    3    3  501    0 -0.27158674936E+03  0.16211725535E+02  0.14312358384E+03  0.30741916454E+03  0.00000000000E+00 0. -1.
<mgrwt>
<rscale>  0 0.65125810E+03</rscale>
<asrwt>0</asrwt>
<pdfrwt beam="1">0</pdfrwt>
<pdfrwt beam="2">  1        2 0.38558001E+00 0.65125810E+03</pdfrwt>
<totfact> 0.45072567E+00</totfact>
</mgrwt>
</event>
<event>
 5    1  0.2311484E-004  0.6449651E+03  0.7818608E-02  0.9816273E-01
         13   -1    0    0    0    0  0.00000000000E+00  0.00000000000E+00  0.10000000000E+04  0.10000000000E+04  0.00000000000E+00 0. -1.
          2   -1    0    0  501    0 -0.00000000000E+00 -0.00000000000E+00 -0.10399500990E+03  0.10399500990E+03  0.00000000000E+00 0. -1.
    9000006    2    1    2  501    0  0.00000000000E+00  0.00000000000E+00  0.89600499010E+03  0.11039950099E+04  0.64496514602E+03 0.  0.
         13    1    3    3    0    0  0.12613640022E+03  0.28628675759E+03  0.58195985170E+03  0.66071761594E+03  0.00000000000E+00 0. -1.
          2    1    3    3  501    0 -0.12613640022E+03 -0.28628675759E+03  0.31404513841E+03  0.44327739395E+03  0.00000000000E+00 0. -1.
<mgrwt>
<rscale>  0 0.64496515E+03</rscale>
<asrwt>0</asrwt>
<pdfrwt beam="1">0</pdfrwt>
<pdfrwt beam="2">  1        2 0.37816447E+00 0.64496515E+03</pdfrwt>
<totfact> 0.48031434E+00</totfact>
</mgrwt>
</event>
<event>
 5    1  0.2311484E-004  0.6547619E+03  0.7818608E-02  0.9797885E-01
         13   -1    0    0    0    0  0.00000000000E+00  0.00000000000E+00  0.10000000000E+04  0.10000000000E+04  0.00000000000E+00 0. -1.
          2   -1    0    0  501    0 -0.00000000000E+00 -0.00000000000E+00 -0.10717827506E+03  0.10717827506E+03  0.00000000000E+00 0. -1.
    9000006    2    1    2  501    0  0.00000000000E+00  0.00000000000E+00  0.89282172494E+03  0.11071782751E+04  0.65476186530E+03 0.  0.
         13    1    3    3    0    0 -0.24333838615E+01 -0.28033506093E+03  0.73230173723E+03  0.78412977376E+03  0.00000000000E+00 0. -1.
          4    1    3    3  501    0  0.24333838615E+01  0.28033506093E+03  0.16051998771E+03  0.32304850131E+03  0.00000000000E+00 0. -1.
<mgrwt>
<rscale>  0 0.65476187E+03</rscale>
<asrwt>0</asrwt>
<pdfrwt beam="1">0</pdfrwt>
<pdfrwt beam="2">  1        2 0.38974000E+00 0.65476187E+03</pdfrwt>
<totfact> 0.43486050E+00</totfact>
</mgrwt>
</event>
<event>
 5    1  0.2311484E-004  0.6719294E+03  0.7818608E-02  0.9766479E-01
         13   -1    0    0    0    0  0.00000000000E+00  0.00000000000E+00  0.10000000000E+04  0.10000000000E+04  0.00000000000E+00 0. -1.
          2   -1    0    0  501    0 -0.00000000000E+00 -0.00000000000E+00 -0.11287227485E+03  0.11287227485E+03  0.00000000000E+00 0. -1.
    9000006    2    1    2  501    0  0.00000000000E+00  0.00000000000E+00  0.88712772515E+03  0.11128722748E+04  0.67192938572E+03 0.  0.
         13    1    3    3    0    0 -0.28287028362E+03 -0.26407596919E+02  0.14655111321E+03  0.31967199957E+03  0.00000000000E+00 0. -1.
          2    1    3    3  501    0  0.28287028362E+03  0.26407596919E+02  0.74057661195E+03  0.79320027527E+03  0.00000000000E+00 0. -1.
<mgrwt>
<rscale>  0 0.67192939E+03</rscale>
<asrwt>0</asrwt>
<pdfrwt beam="1">0</pdfrwt>
<pdfrwt beam="2">  1        2 0.41044550E+00 0.67192939E+03</pdfrwt>
<totfact> 0.36313058E+00</totfact>
</mgrwt>
</event>
<event>
 5    1  0.2311484E-004  0.6400426E+03  0.7818608E-02  0.9825645E-01
         13   -1    0    0    0    0  0.00000000000E+00  0.00000000000E+00  0.10000000000E+04  0.10000000000E+04  0.00000000000E+00 0. -1.
          2   -1    0    0  501    0 -0.00000000000E+00 -0.00000000000E+00 -0.10241362127E+03  0.10241362127E+03  0.00000000000E+00 0. -1.
    9000006    2    1    2  501    0  0.00000000000E+00  0.00000000000E+00  0.89758637873E+03  0.11024136213E+04  0.64004256507E+03 0.  0.
         13    1    3    3    0    0 -0.41725890509E+02 -0.28755463597E+03  0.67978137072E+03  0.73927764107E+03  0.00000000000E+00 0. -1.
          2    1    3    3  501    0  0.41725890509E+02  0.28755463597E+03  0.21780500800E+03  0.36313598020E+03  0.00000000000E+00 0. -1.
<mgrwt>
<rscale>  0 0.64004257E+03</rscale>
<asrwt>0</asrwt>
<pdfrwt beam="1">0</pdfrwt>
<pdfrwt beam="2">  1        2 0.37241395E+00 0.64004257E+03</pdfrwt>
<totfact> 0.50446690E+00</totfact>
</mgrwt>
</event>
<event>
 5    1  0.2311484E-004  0.6483925E+03  0.7818608E-02  0.9809800E-01
         13   -1    0    0    0    0  0.00000000000E+00  0.00000000000E+00  0.10000000000E+04  0.10000000000E+04  0.00000000000E+00 0. -1.
          2   -1    0    0  501    0 -0.00000000000E+00 -0.00000000000E+00 -0.10510319330E+03  0.10510319330E+03  0.00000000000E+00 0. -1.
    9000006    2    1    2  501    0  0.00000000000E+00  0.00000000000E+00  0.89489680670E+03  0.11051031933E+04  0.64839245308E+03 0.  0.
         13    1    3    3    0    0 -0.19023513504E+03  0.18299967712E+03  0.12665957971E+03  0.29278138186E+03  0.00000000000E+00 0. -1.
          4    1    3    3  501    0  0.19023513504E+03 -0.18299967712E+03  0.76823722699E+03  0.81232181145E+03  0.00000000000E+00 0. -1.
<mgrwt>
<rscale>  0 0.64839245E+03</rscale>
<asrwt>0</asrwt>
<pdfrwt beam="1">0</pdfrwt>
<pdfrwt beam="2">  1        2 0.38219424E+00 0.64839245E+03</pdfrwt>
<totfact> 0.46402329E+00</totfact>
</mgrwt>
</event>
<event>
 5    1  0.2311484E-004  0.6537480E+03  0.7818608E-02  0.9799772E-01
         13   -1    0    0    0    0  0.00000000000E+00  0.00000000000E+00  0.10000000000E+04  0.10000000000E+04  0.00000000000E+00 0. -1.
          2   -1    0    0  501    0 -0.00000000000E+00 -0.00000000000E+00 -0.10684661490E+03  0.10684661490E+03  0.00000000000E+00 0. -1.
    9000006    2    1    2  501    0  0.00000000000E+00  0.00000000000E+00  0.89315338510E+03  0.11068466149E+04  0.65374800925E+03 0.  0.
         13    1    3    3    0    0 -0.26441233938E+03  0.13216669907E+03  0.21036529739E+03  0.36281604142E+03  0.00000000000E+00 0. -1.
          4    1    3    3  501    0  0.26441233938E+03 -0.13216669907E+03  0.68278808771E+03  0.74403057348E+03  0.00000000000E+00 0. -1.
<mgrwt>
<rscale>  0 0.65374801E+03</rscale>
<asrwt>0</asrwt>
<pdfrwt beam="1">0</pdfrwt>
<pdfrwt beam="2">  1        2 0.38853396E+00 0.65374801E+03</pdfrwt>
<totfact> 0.43940718E+00</totfact>
</mgrwt>
</event>
<event>
 5    1  0.2311484E-004  0.6529135E+03  0.7818608E-02  0.9801327E-01
         13   -1    0    0    0    0  0.00000000000E+00  0.00000000000E+00  0.10000000000E+04  0.10000000000E+04  0.00000000000E+00 0. -1.
          2   -1    0    0  501    0 -0.00000000000E+00 -0.00000000000E+00 -0.10657401780E+03  0.10657401780E+03  0.00000000000E+00 0. -1.
    9000006    2    1    2  501    0  0.00000000000E+00  0.00000000000E+00  0.89342598220E+03  0.11065740178E+04  0.65291352504E+03 0.  0.
         13    1    3    3    0    0 -0.28744589352E+03 -0.12311390255E+03  0.28779803651E+03  0.42498221671E+03  0.00000000000E+00 0. -1.
          2    1    3    3  501    0  0.28744589352E+03  0.12311390255E+03  0.60562794570E+03  0.68159180109E+03  0.00000000000E+00 0. -1.
<mgrwt>
<rscale>  0 0.65291353E+03</rscale>
<asrwt>0</asrwt>
<pdfrwt beam="1">0</pdfrwt>
<pdfrwt beam="2">  1        2 0.38754270E+00 0.65291353E+03</pdfrwt>
<totfact> 0.44317632E+00</totfact>
</mgrwt>
</event>
<event>
 5    1  0.2311484E-004  0.6445681E+03  0.7818608E-02  0.9817025E-01
         13   -1    0    0    0    0  0.00000000000E+00  0.00000000000E+00  0.10000000000E+04  0.10000000000E+04  0.00000000000E+00 0. -1.
          2   -1    0    0  501    0 -0.00000000000E+00 -0.00000000000E+00 -0.10386701745E+03  0.10386701745E+03  0.00000000000E+00 0. -1.
    9000006    2    1    2  501    0  0.00000000000E+00  0.00000000000E+00  0.89613298255E+03  0.11038670174E+04  0.64456812658E+03 0.  0.
         13    1    3    3    0    0  0.31500886065E+03 -0.67413357698E+02  0.46448165054E+03  0.56525953930E+03  0.00000000000E+00 0. -1.
          2    1    3    3  501    0 -0.31500886065E+03  0.67413357698E+02  0.43165133202E+03  0.53860747815E+03  0.00000000000E+00 0. -1.
<mgrwt>
<rscale>  0 0.64456813E+03</rscale>
<asrwt>0</asrwt>
<pdfrwt beam="1">0</pdfrwt>
<pdfrwt beam="2">  1        2 0.37769904E+00 0.64456813E+03</pdfrwt>
<totfact> 0.48222908E+00</totfact>
</mgrwt>
</event>
<event>
 5    1  0.2311484E-004  0.6417476E+03  0.7818608E-02  0.9822389E-01
         13   -1    0    0    0    0  0.00000000000E+00  0.00000000000E+00  0.10000000000E+04  0.10000000000E+04  0.00000000000E+00 0. -1.
          2   -1    0    0  501    0 -0.00000000000E+00 -0.00000000000E+00 -0.10296000249E+03  0.10296000249E+03  0.00000000000E+00 0. -1.
    9000006    2    1    2  501    0  0.00000000000E+00  0.00000000000E+00  0.89703999751E+03  0.11029600025E+04  0.64174762170E+03 0.  0.
         13    1    3    3    0    0  0.24151912986E+03  0.94085245498E+02  0.12343697263E+03  0.28708920168E+03  0.00000000000E+00 0. -1.
          2    1    3    3  501    0 -0.24151912986E+03 -0.94085245498E+02  0.77360302488E+03  0.81587080081E+03  0.00000000000E+00 0. -1.
<mgrwt>
<rscale>  0 0.64174762E+03</rscale>
<asrwt>0</asrwt>
<pdfrwt beam="1">0</pdfrwt>
<pdfrwt beam="2">  1        2 0.37440080E+00 0.64174762E+03</pdfrwt>
<totfact> 0.49599904E+00</totfact>
</mgrwt>
</event>
<event>
 5    1  0.2311484E-004  0.6489748E+03  0.7818608E-02  0.9808705E-01
         13   -1    0    0    0    0  0.00000000000E+00  0.00000000000E+00  0.10000000000E+04  0.10000000000E+04  0.00000000000E+00 0. -1.
          2   -1    0    0  501    0 -0.00000000000E+00 -0.00000000000E+00 -0.10529206785E+03  0.10529206785E+03  0.00000000000E+00 0. -1.
    9000006    2    1    2  501    0  0.00000000000E+00  0.00000000000E+00  0.89470793215E+03  0.11052920679E+04  0.64897478488E+03 0.  0.
         13    1    3    3    0    0 -0.31644624101E+03 -0.70704568975E+02  0.46853787392E+03  0.56979390908E+03  0.00000000000E+00 0. -1.
          4    1    3    3  501    0  0.31644624101E+03  0.70704568975E+02  0.42617005823E+03  0.53549815877E+03  0.00000000000E+00 0. -1.
<mgrwt>
<rscale>  0 0.64897478E+03</rscale>
<asrwt>0</asrwt>
<pdfrwt beam="1">0</pdfrwt>
<pdfrwt beam="2">  1        2 0.38288105E+00 0.64897478E+03</pdfrwt>
<totfact> 0.46129737E+00</totfact>
</mgrwt>
</event>
<event>
 5    1  0.2311484E-004  0.6500619E+03  0.7818608E-02  0.9806663E-01
         13   -1    0    0    0    0  0.00000000000E+00  0.00000000000E+00  0.10000000000E+04  0.10000000000E+04  0.00000000000E+00 0. -1.
          2   -1    0    0  501    0 -0.00000000000E+00 -0.00000000000E+00 -0.10564512491E+03  0.10564512491E+03  0.00000000000E+00 0. -1.
    9000006    2    1    2  501    0  0.00000000000E+00  0.00000000000E+00  0.89435487509E+03  0.11056451249E+04  0.65006191985E+03 0.  0.
         13    1    3    3    0    0  0.28802606017E+03  0.12440804172E+03  0.59158538449E+03  0.66963395921E+03  0.00000000000E+00 0. -1.
          4    1    3    3  501    0 -0.28802606017E+03 -0.12440804172E+03  0.30276949060E+03  0.43601116571E+03  0.00000000000E+00 0. -1.
<mgrwt>
<rscale>  0 0.65006192E+03</rscale>
<asrwt>0</asrwt>
<pdfrwt beam="1">0</pdfrwt>
<pdfrwt beam="2">  1        2 0.38416490E+00 0.65006192E+03</pdfrwt>
<totfact> 0.45624085E+00</totfact>
</mgrwt>
</event>
<event>
 5    1  0.2311484E-004  0.6498959E+03  0.7818608E-02  0.9806975E-01
         13   -1    0    0    0    0  0.00000000000E+00  0.00000000000E+00  0.10000000000E+04  0.10000000000E+04  0.00000000000E+00 0. -1.
          2   -1    0    0  501    0 -0.00000000000E+00 -0.00000000000E+00 -0.10559116494E+03  0.10559116494E+03  0.00000000000E+00 0. -1.
    9000006    2    1    2  501    0  0.00000000000E+00  0.00000000000E+00  0.89440883506E+03  0.11055911649E+04  0.64989588379E+03 0.  0.
         13    1    3    3    0    0 -0.14350324484E+03  0.28173397490E+03  0.57478116895E+03  0.65600351071E+03  0.00000000000E+00 0. -1.
          2    1    3    3  501    0  0.14350324484E+03 -0.28173397490E+03  0.31962766611E+03  0.44958765423E+03  0.00000000000E+00 0. -1.
<mgrwt>
<rscale>  0 0.64989588E+03</rscale>
<asrwt>0</asrwt>
<pdfrwt beam="1">0</pdfrwt>
<pdfrwt beam="2">  1        2 0.38396868E+00 0.64989588E+03</pdfrwt>
<totfact> 0.45701040E+00</totfact>
</mgrwt>
</event>
<event>
 5    1  0.2311484E-004  0.6648057E+03  0.7818608E-02  0.9779387E-01
         13   -1    0    0    0    0  0.00000000000E+00  0.00000000000E+00  0.10000000000E+04  0.10000000000E+04  0.00000000000E+00 0. -1.
          2   -1    0    0  501    0 -0.00000000000E+00 -0.00000000000E+00 -0.11049165412E+03  0.11049165412E+03  0.00000000000E+00 0. -1.
    9000006    2    1    2  501    0  0.00000000000E+00  0.00000000000E+00  0.88950834588E+03  0.11104916541E+04  0.66480569830E+03 0.  0.
         13    1    3    3    0    0 -0.22298002667E+03 -0.30603930817E+02  0.85335390050E+03  0.88253587597E+03  0.00000000000E+00 0. -1.
          4    1    3    3  501    0  0.22298002667E+03  0.30603930817E+02  0.36154445381E+02  0.22795577816E+03  0.00000000000E+00 0. -1.
<mgrwt>
<rscale>  0 0.66480570E+03</rscale>
<asrwt>0</asrwt>
<pdfrwt beam="1">0</pdfrwt>
<pdfrwt beam="2">  1        2 0.40178868E+00 0.66480570E+03</pdfrwt>
<totfact> 0.39171444E+00</totfact>
</mgrwt>
</event>
<event>
 5    1  0.2311484E-004  0.6915674E+03  0.7818608E-02  0.9731763E-01
         13   -1    0    0    0    0  0.00000000000E+00  0.00000000000E+00  0.10000000000E+04  0.10000000000E+04  0.00000000000E+00 0. -1.
          2   -1    0    0  501    0 -0.00000000000E+00 -0.00000000000E+00 -0.11956638225E+03  0.11956638225E+03  0.00000000000E+00 0. -1.
    9000006    2    1    2  501    0  0.00000000000E+00  0.00000000000E+00  0.88043361775E+03  0.11195663822E+04  0.69156744356E+03 0.  0.
         13    1    3    3    0    0 -0.11506487403E+03 -0.32514269870E+03  0.48015705308E+03  0.59119243514E+03  0.00000000000E+00 0. -1.
          4    1    3    3  501    0  0.11506487403E+03  0.32514269870E+03  0.40027656468E+03  0.52837394711E+03  0.00000000000E+00 0. -1.
<mgrwt>
<rscale>  0 0.69156744E+03</rscale>
<asrwt>0</asrwt>
<pdfrwt beam="1">0</pdfrwt>
<pdfrwt beam="2">  1        2 0.43478776E+00 0.69156744E+03</pdfrwt>
<totfact> 0.29243914E+00</totfact>
</mgrwt>
</event>
<event>
 5    1  0.2311484E-004  0.6469032E+03  0.7818608E-02  0.9812607E-01
         13   -1    0    0    0    0  0.00000000000E+00  0.00000000000E+00  0.10000000000E+04  0.10000000000E+04  0.00000000000E+00 0. -1.
          2   -1    0    0  501    0 -0.00000000000E+00 -0.00000000000E+00 -0.10462094665E+03  0.10462094665E+03  0.00000000000E+00 0. -1.
    9000006    2    1    2  501    0  0.00000000000E+00  0.00000000000E+00  0.89537905335E+03  0.11046209467E+04  0.64690322816E+03 0.  0.
         13    1    3    3    0    0  0.30890472634E+03 -0.79366287071E+02  0.53964099438E+03  0.62684411164E+03  0.00000000000E+00 0. -1.
          2    1    3    3  501    0 -0.30890472634E+03  0.79366287071E+02  0.35573805897E+03  0.47777683501E+03  0.00000000000E+00 0. -1.
<mgrwt>
<rscale>  0 0.64690323E+03</rscale>
<asrwt>0</asrwt>
<pdfrwt beam="1">0</pdfrwt>
<pdfrwt beam="2">  1        2 0.38044061E+00 0.64690323E+03</pdfrwt>
<totfact> 0.47104983E+00</totfact>
</mgrwt>
</event>
<event>
 5    1  0.2311484E-004  0.6580094E+03  0.7818608E-02  0.9791865E-01
         13   -1    0    0    0    0  0.00000000000E+00  0.00000000000E+00  0.10000000000E+04  0.10000000000E+04  0.00000000000E+00 0. -1.
          2   -1    0    0  501    0 -0.00000000000E+00 -0.00000000000E+00 -0.10824410503E+03  0.10824410503E+03  0.00000000000E+00 0. -1.
    9000006    2    1    2  501    0  0.00000000000E+00  0.00000000000E+00  0.89175589497E+03  0.11082441050E+04  0.65800943770E+03 0.  0.
         13    1    3    3    0    0  0.17088781355E+02  0.32807032436E+03  0.41565816361E+03  0.52980550501E+03  0.00000000000E+00 0. -1.
          2    1    3    3  501    0 -0.17088781355E+02 -0.32807032436E+03  0.47609773137E+03  0.57843860001E+03  0.00000000000E+00 0. -1.
<mgrwt>
<rscale>  0 0.65800944E+03</rscale>
<asrwt>0</asrwt>
<pdfrwt beam="1">0</pdfrwt>
<pdfrwt beam="2">  1        2 0.39361576E+00 0.65800944E+03</pdfrwt>
<totfact> 0.42053547E+00</totfact>
</mgrwt>
</event>
<event>
 5    1  0.2311484E-004  0.5891973E+03  0.7818608E-02  0.9928075E-01
         13   -1    0    0    0    0  0.00000000000E+00  0.00000000000E+00  0.10000000000E+04  0.10000000000E+04  0.00000000000E+00 0. -1.
          2   -1    0    0  501    0 -0.00000000000E+00 -0.00000000000E+00 -0.86788349892E+02  0.86788349892E+02  0.00000000000E+00 0. -1.
    9000006    2    1    2  501    0  0.00000000000E+00  0.00000000000E+00  0.91321165011E+03  0.10867883499E+04  0.58919725014E+03 0.  0.
         13    1    3    3    0    0 -0.25170496819E+03  0.12310178510E+03  0.28877534856E+03  0.40236878910E+03  0.00000000000E+00 0. -1.
          2    1    3    3  501    0  0.25170496819E+03 -0.12310178510E+03  0.62443630155E+03  0.68441956080E+03  0.00000000000E+00 0. -1.
<mgrwt>
<rscale>  0 0.58919725E+03</rscale>
<asrwt>0</asrwt>
<pdfrwt beam="1">0</pdfrwt>
<pdfrwt beam="2">  1        2 0.31559467E+00 0.58919725E+03</pdfrwt>
<totfact> 0.81178887E+00</totfact>
</mgrwt>
</event>
<event>
 5    1  0.2311484E-004  0.6523005E+03  0.7818608E-02  0.9802472E-01
         13   -1    0    0    0    0  0.00000000000E+00  0.00000000000E+00  0.10000000000E+04  0.10000000000E+04  0.00000000000E+00 0. -1.
          2   -1    0    0  501    0 -0.00000000000E+00 -0.00000000000E+00 -0.10637399518E+03  0.10637399518E+03  0.00000000000E+00 0. -1.
    9000006    2    1    2  501    0  0.00000000000E+00  0.00000000000E+00  0.89362600482E+03  0.11063739952E+04  0.65230052944E+03 0.  0.
         13    1    3    3    0    0  0.24304028308E+03 -0.20611707521E+03  0.32904418103E+03  0.45806429785E+03  0.00000000000E+00 0. -1.
          4    1    3    3  501    0 -0.24304028308E+03  0.20611707521E+03  0.56458182379E+03  0.64830969733E+03  0.00000000000E+00 0. -1.
<mgrwt>
<rscale>  0 0.65230053E+03</rscale>
<asrwt>0</asrwt>
<pdfrwt beam="1">0</pdfrwt>
<pdfrwt beam="2">  1        2 0.38681534E+00 0.65230053E+03</pdfrwt>
<totfact> 0.44596057E+00</totfact>
</mgrwt>
</event>
<event>
 5    1  0.2311484E-004  0.5512417E+03  0.7818608E-02  0.1001207E+00
         13   -1    0    0    0    0  0.00000000000E+00  0.00000000000E+00  0.10000000000E+04  0.10000000000E+04  0.00000000000E+00 0. -1.
          2   -1    0    0  501    0 -0.00000000000E+00 -0.00000000000E+00 -0.75966839320E+02  0.75966839320E+02  0.00000000000E+00 0. -1.
    9000006    2    1    2  501    0  0.00000000000E+00  0.00000000000E+00  0.92403316068E+03  0.10759668393E+04  0.55124165053E+03 0.  0.
         13    1    3    3    0    0 -0.22900154624E+03 -0.13586693916E+03  0.32309820195E+03  0.41868124085E+03  0.00000000000E+00 0. -1.
          2    1    3    3  501    0  0.22900154624E+03  0.13586693916E+03  0.60093495873E+03  0.65728559847E+03  0.00000000000E+00 0. -1.
<mgrwt>
<rscale>  0 0.55124165E+03</rscale>
<asrwt>0</asrwt>
<pdfrwt beam="1">0</pdfrwt>
<pdfrwt beam="2">  1        2 0.27624363E+00 0.55124165E+03</pdfrwt>
<totfact> 0.11226292E+01</totfact>
</mgrwt>
</event>
<event>
 5    1  0.2311484E-004  0.6448738E+03  0.7818608E-02  0.9816446E-01
         13   -1    0    0    0    0  0.00000000000E+00  0.00000000000E+00  0.10000000000E+04  0.10000000000E+04  0.00000000000E+00 0. -1.
          2   -1    0    0  501    0 -0.00000000000E+00 -0.00000000000E+00 -0.10396557043E+03  0.10396557043E+03  0.00000000000E+00 0. -1.
    9000006    2    1    2  501    0  0.00000000000E+00  0.00000000000E+00  0.89603442957E+03  0.11039655704E+04  0.64487384945E+03 0.  0.
         13    1    3    3    0    0  0.29139647372E+03  0.13189768983E+03  0.37833882522E+03  0.49542827145E+03  0.00000000000E+00 0. -1.
          2    1    3    3  501    0 -0.29139647372E+03 -0.13189768983E+03  0.51769560435E+03  0.60853729898E+03  0.00000000000E+00 0. -1.
<mgrwt>
<rscale>  0 0.64487385E+03</rscale>
<asrwt>0</asrwt>
<pdfrwt beam="1">0</pdfrwt>
<pdfrwt beam="2">  1        2 0.37805742E+00 0.64487385E+03</pdfrwt>
<totfact> 0.48075414E+00</totfact>
</mgrwt>
</event>
<event>
 5    1  0.2311484E-004  0.6367577E+03  0.7818608E-02  0.9831950E-01
         13   -1    0    0    0    0  0.00000000000E+00  0.00000000000E+00  0.10000000000E+04  0.10000000000E+04  0.00000000000E+00 0. -1.
          2   -1    0    0  501    0 -0.00000000000E+00 -0.00000000000E+00 -0.10136507994E+03  0.10136507994E+03  0.00000000000E+00 0. -1.
    9000006    2    1    2  501    0  0.00000000000E+00  0.00000000000E+00  0.89863492006E+03  0.11013650799E+04  0.63675766171E+03 0.  0.
         13    1    3    3    0    0 -0.31141059705E+02 -0.14102689273E+03 -0.41447126281E+02  0.15025383306E+03  0.00000000000E+00 0. -1.
          2    1    3    3  501    0  0.31141059705E+02  0.14102689273E+03  0.94008204634E+03  0.95111124687E+03  0.00000000000E+00 0. -1.
<mgrwt>
<rscale>  0 0.63675766E+03</rscale>
<asrwt>0</asrwt>
<pdfrwt beam="1">0</pdfrwt>
<pdfrwt beam="2">  1        2 0.36860107E+00 0.63675766E+03</pdfrwt>
<totfact> 0.52108902E+00</totfact>
</mgrwt>
</event>
<event>
 5    1  0.2311484E-004  0.6517135E+03  0.7818608E-02  0.9803569E-01
         13   -1    0    0    0    0  0.00000000000E+00  0.00000000000E+00  0.10000000000E+04  0.10000000000E+04  0.00000000000E+00 0. -1.
          2   -1    0    0  501    0 -0.00000000000E+00 -0.00000000000E+00 -0.10618262955E+03  0.10618262955E+03  0.00000000000E+00 0. -1.
    9000006    2    1    2  501    0  0.00000000000E+00  0.00000000000E+00  0.89381737045E+03  0.11061826296E+04  0.65171352465E+03 0.  0.
         13    1    3    3    0    0  0.24650643482E+03 -0.20596933701E+03  0.35403678167E+03  0.47804898595E+03  0.00000000000E+00 0. -1.
          4    1    3    3  501    0 -0.24650643482E+03  0.20596933701E+03  0.53978058878E+03  0.62813364360E+03  0.00000000000E+00 0. -1.
<mgrwt>
<rscale>  0 0.65171352E+03</rscale>
<asrwt>0</asrwt>
<pdfrwt beam="1">0</pdfrwt>
<pdfrwt beam="2">  1        2 0.38611947E+00 0.65171352E+03</pdfrwt>
<totfact> 0.44863915E+00</totfact>
</mgrwt>
</event>
<event>
 5    1  0.2311484E-004  0.6435476E+03  0.7818608E-02  0.9818963E-01
         13   -1    0    0    0    0  0.00000000000E+00  0.00000000000E+00  0.10000000000E+04  0.10000000000E+04  0.00000000000E+00 0. -1.
          2   -1    0    0  501    0 -0.00000000000E+00 -0.00000000000E+00 -0.10353838419E+03  0.10353838419E+03  0.00000000000E+00 0. -1.
    9000006    2    1    2  501    0  0.00000000000E+00  0.00000000000E+00  0.89646161581E+03  0.11035383842E+04  0.64354761810E+03 0.  0.
         13    1    3    3    0    0 -0.16659677312E+03 -0.13136306521E+03  0.33384452135E+02  0.21476792441E+03  0.00000000000E+00 0. -1.
          4    1    3    3  501    0  0.16659677312E+03  0.13136306521E+03  0.86307716367E+03  0.88877045978E+03  0.00000000000E+00 0. -1.
<mgrwt>
<rscale>  0 0.64354762E+03</rscale>
<asrwt>0</asrwt>
<pdfrwt beam="1">0</pdfrwt>
<pdfrwt beam="2">  1        2 0.37650401E+00 0.64354762E+03</pdfrwt>
<totfact> 0.48717729E+00</totfact>
</mgrwt>
</event>
<event>
 5    1  0.2311484E-004  0.6367303E+03  0.7818608E-02  0.9832002E-01
         13   -1    0    0    0    0  0.00000000000E+00  0.00000000000E+00  0.10000000000E+04  0.10000000000E+04  0.00000000000E+00 0. -1.
          2   -1    0    0  501    0 -0.00000000000E+00 -0.00000000000E+00 -0.10135636033E+03  0.10135636033E+03  0.00000000000E+00 0. -1.
    9000006    2    1    2  501    0  0.00000000000E+00  0.00000000000E+00  0.89864363967E+03  0.11013563603E+04  0.63673027361E+03 0.  0.
         13    1    3    3    0    0 -0.15298581372E+03 -0.24202411622E+03  0.69009313511E+03  0.74713376791E+03  0.00000000000E+00 0. -1.
          4    1    3    3  501    0  0.15298581372E+03  0.24202411622E+03  0.20855050456E+03  0.35422259242E+03  0.00000000000E+00 0. -1.
<mgrwt>
<rscale>  0 0.63673027E+03</rscale>
<asrwt>0</asrwt>
<pdfrwt beam="1">0</pdfrwt>
<pdfrwt beam="2">  1        2 0.36856936E+00 0.63673027E+03</pdfrwt>
<totfact> 0.52122933E+00</totfact>
</mgrwt>
</event>
<event>
 5    1  0.2311484E-004  0.5204904E+03  0.7818608E-02  0.1008565E+00
         13   -1    0    0    0    0  0.00000000000E+00  0.00000000000E+00  0.10000000000E+04  0.10000000000E+04  0.00000000000E+00 0. -1.
          2   -1    0    0  501    0 -0.00000000000E+00 -0.00000000000E+00 -0.67727571629E+02  0.67727571629E+02  0.00000000000E+00 0. -1.
    9000006    2    1    2  501    0  0.00000000000E+00  0.00000000000E+00  0.93227242837E+03  0.10677275716E+04  0.52049042884E+03 0.  0.
         13    1    3    3    0    0  0.17215575361E+03 -0.14944923374E+03  0.72362330571E+03  0.75868528754E+03  0.00000000000E+00 0. -1.
          2    1    3    3  501    0 -0.17215575361E+03  0.14944923374E+03  0.20864912266E+03  0.30904228408E+03  0.00000000000E+00 0. -1.
<mgrwt>
<rscale>  0 0.52049043E+03</rscale>
<asrwt>0</asrwt>
<pdfrwt beam="1">0</pdfrwt>
<pdfrwt beam="2">  1        2 0.24628260E+00 0.52049043E+03</pdfrwt>
<totfact> 0.14375658E+01</totfact>
</mgrwt>
</event>
<event>
 5    1  0.2311484E-004  0.6436647E+03  0.7818608E-02  0.9818740E-01
         13   -1    0    0    0    0  0.00000000000E+00  0.00000000000E+00  0.10000000000E+04  0.10000000000E+04  0.00000000000E+00 0. -1.
          2   -1    0    0  501    0 -0.00000000000E+00 -0.00000000000E+00 -0.10357606693E+03  0.10357606693E+03  0.00000000000E+00 0. -1.
    9000006    2    1    2  501    0  0.00000000000E+00  0.00000000000E+00  0.89642393307E+03  0.11035760669E+04  0.64366471686E+03 0.  0.
         13    1    3    3    0    0 -0.30033959625E+03  0.92881139052E+02  0.33010545242E+03  0.45585127924E+03  0.00000000000E+00 0. -1.
          2    1    3    3  501    0  0.30033959625E+03 -0.92881139052E+02  0.56631848065E+03  0.64772478769E+03  0.00000000000E+00 0. -1.
<mgrwt>
<rscale>  0 0.64366472E+03</rscale>
<asrwt>0</asrwt>
<pdfrwt beam="1">0</pdfrwt>
<pdfrwt beam="2">  1        2 0.37664104E+00 0.64366472E+03</pdfrwt>
<totfact> 0.48660756E+00</totfact>
</mgrwt>
</event>
<event>
 5    1  0.2311484E-004  0.6466438E+03  0.7818608E-02  0.9813097E-01
         13   -1    0    0    0    0  0.00000000000E+00  0.00000000000E+00  0.10000000000E+04  0.10000000000E+04  0.00000000000E+00 0. -1.
          2   -1    0    0  501    0 -0.00000000000E+00 -0.00000000000E+00 -0.10453703841E+03  0.10453703841E+03  0.00000000000E+00 0. -1.
    9000006    2    1    2  501    0  0.00000000000E+00  0.00000000000E+00  0.89546296159E+03  0.11045370384E+04  0.64664376100E+03 0.  0.
         13    1    3    3    0    0 -0.88586997849E+02  0.15182315103E+03 -0.15789574207E+02  0.17648579555E+03  0.00000000000E+00 0. -1.
          2    1    3    3  501    0  0.88586997849E+02 -0.15182315103E+03  0.91125253580E+03  0.92805124286E+03  0.00000000000E+00 0. -1.
<mgrwt>
<rscale>  0 0.64664376E+03</rscale>
<asrwt>0</asrwt>
<pdfrwt beam="1">0</pdfrwt>
<pdfrwt beam="2">  1        2 0.38013549E+00 0.64664376E+03</pdfrwt>
<totfact> 0.47228224E+00</totfact>
</mgrwt>
</event>
<event>
 5    1  0.2311484E-004  0.6469571E+03  0.7818608E-02  0.9812506E-01
         13   -1    0    0    0    0  0.00000000000E+00  0.00000000000E+00  0.10000000000E+04  0.10000000000E+04  0.00000000000E+00 0. -1.
          2   -1    0    0  501    0 -0.00000000000E+00 -0.00000000000E+00 -0.10463835821E+03  0.10463835821E+03  0.00000000000E+00 0. -1.
    9000006    2    1    2  501    0  0.00000000000E+00  0.00000000000E+00  0.89536164179E+03  0.11046383582E+04  0.64695705642E+03 0.  0.
         13    1    3    3    0    0 -0.15417160241E+03 -0.15003699321E+03  0.35207119141E+02  0.21798973269E+03  0.00000000000E+00 0. -1.
          4    1    3    3  501    0  0.15417160241E+03  0.15003699321E+03  0.86015452264E+03  0.88664862553E+03  0.00000000000E+00 0. -1.
<mgrwt>
<rscale>  0 0.64695706E+03</rscale>
<asrwt>0</asrwt>
<pdfrwt beam="1">0</pdfrwt>
<pdfrwt beam="2">  1        2 0.38050392E+00 0.64695706E+03</pdfrwt>
<totfact> 0.47079446E+00</totfact>
</mgrwt>
</event>
<event>
 5    1  0.2311484E-004  0.7091406E+03  0.7818608E-02  0.9701727E-01
         13   -1    0    0    0    0  0.00000000000E+00  0.00000000000E+00  0.10000000000E+04  0.10000000000E+04  0.00000000000E+00 0. -1.
          2   -1    0    0  501    0 -0.00000000000E+00 -0.00000000000E+00 -0.12572010261E+03  0.12572010261E+03  0.00000000000E+00 0. -1.
    9000006    2    1    2  501    0  0.00000000000E+00  0.00000000000E+00  0.87427989739E+03  0.11257201026E+04  0.70914061402E+03 0.  0.
         13    1    3    3    0    0  0.43692164331E+02  0.97164722478E+02  0.97399165736E+03  0.97980086606E+03  0.00000000000E+00 0. -1.
          4    1    3    3  501    0 -0.43692164331E+02 -0.97164722478E+02 -0.99711759977E+02  0.14591923655E+03  0.00000000000E+00 0. -1.
<mgrwt>
<rscale>  0 0.70914061E+03</rscale>
<asrwt>0</asrwt>
<pdfrwt beam="1">0</pdfrwt>
<pdfrwt beam="2">  1        2 0.45716497E+00 0.70914061E+03</pdfrwt>
<totfact> 0.23845419E+00</totfact>
</mgrwt>
</event>
<event>
 5    1  0.2311484E-004  0.6474353E+03  0.7818608E-02  0.9811604E-01
         13   -1    0    0    0    0  0.00000000000E+00  0.00000000000E+00  0.10000000000E+04  0.10000000000E+04  0.00000000000E+00 0. -1.
          2   -1    0    0  501    0 -0.00000000000E+00 -0.00000000000E+00 -0.10479311354E+03  0.10479311354E+03  0.00000000000E+00 0. -1.
    9000006    2    1    2  501    0  0.00000000000E+00  0.00000000000E+00  0.89520688646E+03  0.11047931135E+04  0.64743528955E+03 0.  0.
         13    1    3    3    0    0  0.22590774391E+03 -0.23103442275E+03  0.41425622732E+03  0.52537551820E+03  0.00000000000E+00 0. -1.
          2    1    3    3  501    0 -0.22590774391E+03  0.23103442275E+03  0.48095065914E+03  0.57941759534E+03  0.00000000000E+00 0. -1.
<mgrwt>
<rscale>  0 0.64743529E+03</rscale>
<asrwt>0</asrwt>
<pdfrwt beam="1">0</pdfrwt>
<pdfrwt beam="2">  1        2 0.38106667E+00 0.64743529E+03</pdfrwt>
<totfact> 0.46853026E+00</totfact>
</mgrwt>
</event>
<event>
 5    1  0.2311484E-004  0.6600125E+03  0.7818608E-02  0.9788171E-01
         13   -1    0    0    0    0  0.00000000000E+00  0.00000000000E+00  0.10000000000E+04  0.10000000000E+04  0.00000000000E+00 0. -1.
          2   -1    0    0  501    0 -0.00000000000E+00 -0.00000000000E+00 -0.10890413054E+03  0.10890413054E+03  0.00000000000E+00 0. -1.
    9000006    2    1    2  501    0  0.00000000000E+00  0.00000000000E+00  0.89109586946E+03  0.11089041305E+04  0.66001251666E+03 0.  0.
         13    1    3    3    0    0  0.29600161230E+03  0.13635630734E+03  0.53275494253E+03  0.62453008401E+03  0.00000000000E+00 0. -1.
          2    1    3    3  501    0 -0.29600161230E+03 -0.13635630734E+03  0.35834092693E+03  0.48437404653E+03  0.00000000000E+00 0. -1.
<mgrwt>
<rscale>  0 0.66001252E+03</rscale>
<asrwt>0</asrwt>
<pdfrwt beam="1">0</pdfrwt>
<pdfrwt beam="2">  1        2 0.39601586E+00 0.66001252E+03</pdfrwt>
<totfact> 0.41188005E+00</totfact>
</mgrwt>
</event>
<event>
 5    1  0.2311484E-004  0.6656903E+03  0.7818608E-02  0.9777775E-01
         13   -1    0    0    0    0  0.00000000000E+00  0.00000000000E+00  0.10000000000E+04  0.10000000000E+04  0.00000000000E+00 0. -1.
          2   -1    0    0  501    0 -0.00000000000E+00 -0.00000000000E+00 -0.11078588782E+03  0.11078588782E+03  0.00000000000E+00 0. -1.
    9000006    2    1    2  501    0  0.00000000000E+00  0.00000000000E+00  0.88921411218E+03  0.11107858878E+04  0.66569028180E+03 0.  0.
         13    1    3    3    0    0  0.20818317406E+03  0.19835867356E+03  0.72431664773E+03  0.77930802865E+03  0.00000000000E+00 0. -1.
          4    1    3    3  501    0 -0.20818317406E+03 -0.19835867356E+03  0.16489746445E+03  0.33147785917E+03  0.00000000000E+00 0. -1.
<mgrwt>
<rscale>  0 0.66569028E+03</rscale>
<asrwt>0</asrwt>
<pdfrwt beam="1">0</pdfrwt>
<pdfrwt beam="2">  1        2 0.40285862E+00 0.66569028E+03</pdfrwt>
<totfact> 0.38807584E+00</totfact>
</mgrwt>
</event>
<event>
 5    1  0.2311484E-004  0.6448533E+03  0.7818608E-02  0.9816485E-01
         13   -1    0    0    0    0  0.00000000000E+00  0.00000000000E+00  0.10000000000E+04  0.10000000000E+04  0.00000000000E+00 0. -1.
          2   -1    0    0  501    0 -0.00000000000E+00 -0.00000000000E+00 -0.10395895660E+03  0.10395895660E+03  0.00000000000E+00 0. -1.
    9000006    2    1    2  501    0  0.00000000000E+00  0.00000000000E+00  0.89604104340E+03  0.11039589566E+04  0.64485333711E+03 0.  0.
         13    1    3    3    0    0 -0.32036651303E+03 -0.51877855799E+01  0.38635832176E+03  0.50193064120E+03  0.00000000000E+00 0. -1.
          2    1    3    3  501    0  0.32036651303E+03  0.51877855799E+01  0.50968272165E+03  0.60202831539E+03  0.00000000000E+00 0. -1.
<mgrwt>
<rscale>  0 0.64485334E+03</rscale>
<asrwt>0</asrwt>
<pdfrwt beam="1">0</pdfrwt>
<pdfrwt beam="2">  1        2 0.37803337E+00 0.64485334E+03</pdfrwt>
<totfact> 0.48085299E+00</totfact>
</mgrwt>
</event>
<event>
 5    1  0.2311484E-004  0.6327205E+03  0.7818608E-02  0.9839754E-01
         13   -1    0    0    0    0  0.00000000000E+00  0.00000000000E+00  0.10000000000E+04  0.10000000000E+04  0.00000000000E+00 0. -1.
          2   -1    0    0  501    0 -0.00000000000E+00 -0.00000000000E+00 -0.10008379611E+03  0.10008379611E+03  0.00000000000E+00 0. -1.
    9000006    2    1    2  501    0  0.00000000000E+00  0.00000000000E+00  0.89991620389E+03  0.11000837961E+04  0.63272046311E+03 0.  0.
         13    1    3    3    0    0 -0.28817304327E+03 -0.11719225573E+03  0.54992812843E+03  0.63182171070E+03  0.00000000000E+00 0. -1.
          4    1    3    3  501    0  0.28817304327E+03  0.11719225573E+03  0.34998807546E+03  0.46826208541E+03  0.00000000000E+00 0. -1.
<mgrwt>
<rscale>  0 0.63272046E+03</rscale>
<asrwt>0</asrwt>
<pdfrwt beam="1">0</pdfrwt>
<pdfrwt beam="2">  1        2 0.36394184E+00 0.63272046E+03</pdfrwt>
<totfact> 0.54208263E+00</totfact>
</mgrwt>
</event>
<event>
 5    1  0.2311484E-004  0.6545461E+03  0.7818608E-02  0.9798286E-01
         13   -1    0    0    0    0  0.00000000000E+00  0.00000000000E+00  0.10000000000E+04  0.10000000000E+04  0.00000000000E+00 0. -1.
          2   -1    0    0  501    0 -0.00000000000E+00 -0.00000000000E+00 -0.10710765384E+03  0.10710765384E+03  0.00000000000E+00 0. -1.
    9000006    2    1    2  501    0  0.00000000000E+00  0.00000000000E+00  0.89289234616E+03  0.11071076538E+04  0.65454611401E+03 0.  0.
         13    1    3    3    0    0 -0.28459538919E+03 -0.47753405488E+02  0.70756398987E+03  0.76414771022E+03  0.00000000000E+00 0. -1.
          2    1    3    3  501    0  0.28459538919E+03  0.47753405488E+02  0.18532835629E+03  0.34295994362E+03  0.00000000000E+00 0. -1.
<mgrwt>
<rscale>  0 0.65454611E+03</rscale>
<asrwt>0</asrwt>
<pdfrwt beam="1">0</pdfrwt>
<pdfrwt beam="2">  1        2 0.38948320E+00 0.65454611E+03</pdfrwt>
<totfact> 0.43582505E+00</totfact>
</mgrwt>
</event>
<event>
 5    1  0.2311484E-004  0.6402574E+03  0.7818608E-02  0.9825234E-01
         13   -1    0    0    0    0  0.00000000000E+00  0.00000000000E+00  0.10000000000E+04  0.10000000000E+04  0.00000000000E+00 0. -1.
          2   -1    0    0  501    0 -0.00000000000E+00 -0.00000000000E+00 -0.10248238195E+03  0.10248238195E+03  0.00000000000E+00 0. -1.
    9000006    2    1    2  501    0  0.00000000000E+00  0.00000000000E+00  0.89751761805E+03  0.11024823820E+04  0.64025739184E+03 0.  0.
         13    1    3    3    0    0  0.14201290274E+02  0.12516244474E+02 -0.10151782158E+03  0.10326761893E+03  0.00000000000E+00 0. -1.
          4    1    3    3  501    0 -0.14201290274E+02 -0.12516244474E+02  0.99903543962E+03  0.99921476303E+03  0.00000000000E+00 0. -1.
<mgrwt>
<rscale>  0 0.64025739E+03</rscale>
<asrwt>0</asrwt>
<pdfrwt beam="1">0</pdfrwt>
<pdfrwt beam="2">  1        2 0.37266399E+00 0.64025739E+03</pdfrwt>
<totfact> 0.50339402E+00</totfact>
</mgrwt>
</event>
<event>
 5    1  0.2311484E-004  0.6481065E+03  0.7818608E-02  0.9810339E-01
         13   -1    0    0    0    0  0.00000000000E+00  0.00000000000E+00  0.10000000000E+04  0.10000000000E+04  0.00000000000E+00 0. -1.
          2   -1    0    0  501    0 -0.00000000000E+00 -0.00000000000E+00 -0.10501049913E+03  0.10501049913E+03  0.00000000000E+00 0. -1.
    9000006    2    1    2  501    0  0.00000000000E+00  0.00000000000E+00  0.89498950087E+03  0.11050104991E+04  0.64810647005E+03 0.  0.
         13    1    3    3    0    0  0.21138298132E+03  0.24598179042E+02  0.86416225630E+03  0.88997991012E+03  0.00000000000E+00 0. -1.
          2    1    3    3  501    0 -0.21138298132E+03 -0.24598179042E+02  0.30827244565E+02  0.21503058901E+03  0.00000000000E+00 0. -1.
<mgrwt>
<rscale>  0 0.64810647E+03</rscale>
<asrwt>0</asrwt>
<pdfrwt beam="1">0</pdfrwt>
<pdfrwt beam="2">  1        2 0.38185717E+00 0.64810647E+03</pdfrwt>
<totfact> 0.46536644E+00</totfact>
</mgrwt>
</event>
<event>
 5    1  0.2311484E-004  0.6789831E+03  0.7818608E-02  0.9753865E-01
         13   -1    0    0    0    0  0.00000000000E+00  0.00000000000E+00  0.10000000000E+04  0.10000000000E+04  0.00000000000E+00 0. -1.
          2   -1    0    0  501    0 -0.00000000000E+00 -0.00000000000E+00 -0.11525450204E+03  0.11525450204E+03  0.00000000000E+00 0. -1.
    9000006    2    1    2  501    0  0.00000000000E+00  0.00000000000E+00  0.88474549796E+03  0.11152545020E+04  0.67898306913E+03 0.  0.
         13    1    3    3    0    0 -0.45069733572E+02 -0.33622081637E+03  0.46433511463E+03  0.57505027339E+03  0.00000000000E+00 0. -1.
          2    1    3    3  501    0  0.45069733572E+02  0.33622081637E+03  0.42041038333E+03  0.54020422865E+03  0.00000000000E+00 0. -1.
<mgrwt>
<rscale>  0 0.67898307E+03</rscale>
<asrwt>0</asrwt>
<pdfrwt beam="1">0</pdfrwt>
<pdfrwt beam="2">  1        2 0.41910816E+00 0.67898307E+03</pdfrwt>
<totfact> 0.33640683E+00</totfact>
</mgrwt>
</event>
<event>
 5    1  0.2311484E-004  0.6548782E+03  0.7818608E-02  0.9797668E-01
         13   -1    0    0    0    0  0.00000000000E+00  0.00000000000E+00  0.10000000000E+04  0.10000000000E+04  0.00000000000E+00 0. -1.
          2   -1    0    0  501    0 -0.00000000000E+00 -0.00000000000E+00 -0.10721637683E+03  0.10721637683E+03  0.00000000000E+00 0. -1.
    9000006    2    1    2  501    0  0.00000000000E+00  0.00000000000E+00  0.89278362317E+03  0.11072163768E+04  0.65487823853E+03 0.  0.
         13    1    3    3    0    0  0.32362704496E+03 -0.13375670322E+02  0.52752887612E+03  0.61903157265E+03  0.00000000000E+00 0. -1.
          4    1    3    3  501    0 -0.32362704496E+03  0.13375670322E+02  0.36525474705E+03  0.48818480418E+03  0.00000000000E+00 0. -1.
<mgrwt>
<rscale>  0 0.65487824E+03</rscale>
<asrwt>0</asrwt>
<pdfrwt beam="1">0</pdfrwt>
<pdfrwt beam="2">  1        2 0.38987856E+00 0.65487824E+03</pdfrwt>
<totfact> 0.43434090E+00</totfact>
</mgrwt>
</event>
<event>
 5    1  0.2311484E-004  0.6541276E+03  0.7818608E-02  0.9799065E-01
         13   -1    0    0    0    0  0.00000000000E+00  0.00000000000E+00  0.10000000000E+04  0.10000000000E+04  0.00000000000E+00 0. -1.
          2   -1    0    0  501    0 -0.00000000000E+00 -0.00000000000E+00 -0.10697073220E+03  0.10697073220E+03  0.00000000000E+00 0. -1.
    9000006    2    1    2  501    0  0.00000000000E+00  0.00000000000E+00  0.89302926780E+03  0.11069707322E+04  0.65412760895E+03 0.  0.
         13    1    3    3    0    0 -0.18041244323E+03  0.18462025048E+03  0.10663287650E+03  0.27929170576E+03  0.00000000000E+00 0. -1.
          4    1    3    3  501    0  0.18041244323E+03 -0.18462025048E+03  0.78639639130E+03  0.82767902644E+03  0.00000000000E+00 0. -1.
<mgrwt>
<rscale>  0 0.65412761E+03</rscale>
<asrwt>0</asrwt>
<pdfrwt beam="1">0</pdfrwt>
<pdfrwt beam="2">  1        2 0.38898530E+00 0.65412761E+03</pdfrwt>
<totfact> 0.43770066E+00</totfact>
</mgrwt>
</event>
<event>
 5    1  0.2311484E-004  0.6587853E+03  0.7818608E-02  0.9790432E-01
         13   -1    0    0    0    0  0.00000000000E+00  0.00000000000E+00  0.10000000000E+04  0.10000000000E+04  0.00000000000E+00 0. -1.
          2   -1    0    0  501    0 -0.00000000000E+00 -0.00000000000E+00 -0.10849953257E+03  0.10849953257E+03  0.00000000000E+00 0. -1.
    9000006    2    1    2  501    0  0.00000000000E+00  0.00000000000E+00  0.89150046743E+03  0.11084995326E+04  0.65878534462E+03 0.  0.
         13    1    3    3    0    0  0.18551836632E+03 -0.18822393538E+02  0.90263676855E+03  0.92169652418E+03  0.00000000000E+00 0. -1.
          4    1    3    3  501    0 -0.18551836632E+03  0.18822393538E+02 -0.11136301123E+02  0.18680300839E+03  0.00000000000E+00 0. -1.
<mgrwt>
<rscale>  0 0.65878534E+03</rscale>
<asrwt>0</asrwt>
<pdfrwt beam="1">0</pdfrwt>
<pdfrwt beam="2">  1        2 0.39454459E+00 0.65878534E+03</pdfrwt>
<totfact> 0.41716655E+00</totfact>
</mgrwt>
</event>
<event>
 5    1  0.2311484E-004  0.6571230E+03  0.7818608E-02  0.9793504E-01
         13   -1    0    0    0    0  0.00000000000E+00  0.00000000000E+00  0.10000000000E+04  0.10000000000E+04  0.00000000000E+00 0. -1.
          2   -1    0    0  501    0 -0.00000000000E+00 -0.00000000000E+00 -0.10795266131E+03  0.10795266131E+03  0.00000000000E+00 0. -1.
    9000006    2    1    2  501    0  0.00000000000E+00  0.00000000000E+00  0.89204733869E+03  0.11079526613E+04  0.65712300617E+03 0.  0.
         13    1    3    3    0    0  0.17083503557E+03  0.17103415301E+03  0.82120787638E+03  0.85604886957E+03  0.00000000000E+00 0. -1.
          2    1    3    3  501    0 -0.17083503557E+03 -0.17103415301E+03  0.70839462312E+02  0.25190379174E+03  0.00000000000E+00 0. -1.
<mgrwt>
<rscale>  0 0.65712301E+03</rscale>
<asrwt>0</asrwt>
<pdfrwt beam="1">0</pdfrwt>
<pdfrwt beam="2">  1        2 0.39255596E+00 0.65712301E+03</pdfrwt>
<totfact> 0.42440961E+00</totfact>
</mgrwt>
</event>
<event>
 5    1  0.2311484E-004  0.6511160E+03  0.7818608E-02  0.9804687E-01
         13   -1    0    0    0    0  0.00000000000E+00  0.00000000000E+00  0.10000000000E+04  0.10000000000E+04  0.00000000000E+00 0. -1.
          2   -1    0    0  501    0 -0.00000000000E+00 -0.00000000000E+00 -0.10598801647E+03  0.10598801647E+03  0.00000000000E+00 0. -1.
    9000006    2    1    2  501    0  0.00000000000E+00  0.00000000000E+00  0.89401198353E+03  0.11059880165E+04  0.65111601567E+03 0.  0.
         13    1    3    3    0    0 -0.46002145864E+02 -0.32003482792E+03  0.38233562230E+03  0.50071850034E+03  0.00000000000E+00 0. -1.
          2    1    3    3  501    0  0.46002145864E+02  0.32003482792E+03  0.51167636124E+03  0.60526951613E+03  0.00000000000E+00 0. -1.
<mgrwt>
<rscale>  0 0.65111602E+03</rscale>
<asrwt>0</asrwt>
<pdfrwt beam="1">0</pdfrwt>
<pdfrwt beam="2">  1        2 0.38541178E+00 0.65111602E+03</pdfrwt>
<totfact> 0.45137811E+00</totfact>
</mgrwt>
</event>
<event>
 5    1  0.2311484E-004  0.6369732E+03  0.7818608E-02  0.9831535E-01
         13   -1    0    0    0    0  0.00000000000E+00  0.00000000000E+00  0.10000000000E+04  0.10000000000E+04  0.00000000000E+00 0. -1.
          2   -1    0    0  501    0 -0.00000000000E+00 -0.00000000000E+00 -0.10143370760E+03  0.10143370760E+03  0.00000000000E+00 0. -1.
    9000006    2    1    2  501    0  0.00000000000E+00  0.00000000000E+00  0.89856629240E+03  0.11014337076E+04  0.63697317871E+03 0.  0.
         13    1    3    3    0    0  0.25327110919E+03 -0.78307091096E+02  0.75449700384E+03  0.79971493925E+03  0.00000000000E+00 0. -1.
          2    1    3    3  501    0 -0.25327110919E+03  0.78307091096E+02  0.14406928856E+03  0.30171876835E+03  0.00000000000E+00 0. -1.
<mgrwt>
<rscale>  0 0.63697318E+03</rscale>
<asrwt>0</asrwt>
<pdfrwt beam="1">0</pdfrwt>
<pdfrwt beam="2">  1        2 0.36885062E+00 0.63697318E+03</pdfrwt>
<totfact> 0.51998593E+00</totfact>
</mgrwt>
</event>
<event>
 5    1  0.2311484E-004  0.6585796E+03  0.7818608E-02  0.9790812E-01
         13   -1    0    0    0    0  0.00000000000E+00  0.00000000000E+00  0.10000000000E+04  0.10000000000E+04  0.00000000000E+00 0. -1.
          2   -1    0    0  501    0 -0.00000000000E+00 -0.00000000000E+00 -0.10843176141E+03  0.10843176141E+03  0.00000000000E+00 0. -1.
    9000006    2    1    2  501    0  0.00000000000E+00  0.00000000000E+00  0.89156823859E+03  0.11084317614E+04  0.65857956669E+03 0.  0.
         13    1    3    3    0    0 -0.71410495902E+02  0.13794821204E+03 -0.42892068131E+02  0.16114868178E+03  0.00000000000E+00 0. -1.
          4    1    3    3  501    0  0.71410495902E+02 -0.13794821204E+03  0.93446030672E+03  0.94728307963E+03  0.00000000000E+00 0. -1.
<mgrwt>
<rscale>  0 0.65857957E+03</rscale>
<asrwt>0</asrwt>
<pdfrwt beam="1">0</pdfrwt>
<pdfrwt beam="2">  1        2 0.39429815E+00 0.65857957E+03</pdfrwt>
<totfact> 0.41805801E+00</totfact>
</mgrwt>
</event>
<event>
 5    1  0.2311484E-004  0.6489660E+03  0.7818608E-02  0.9808721E-01
         13   -1    0    0    0    0  0.00000000000E+00  0.00000000000E+00  0.10000000000E+04  0.10000000000E+04  0.00000000000E+00 0. -1.
          2   -1    0    0  501    0 -0.00000000000E+00 -0.00000000000E+00 -0.10528920789E+03  0.10528920789E+03  0.00000000000E+00 0. -1.
    9000006    2    1    2  501    0  0.00000000000E+00  0.00000000000E+00  0.89471079211E+03  0.11052892079E+04  0.64896597102E+03 0.  0.
         13    1    3    3    0    0 -0.17256747989E+03 -0.16968641554E+03  0.79236825119E+02  0.25465955546E+03  0.00000000000E+00 0. -1.
          2    1    3    3  501    0  0.17256747989E+03  0.16968641554E+03  0.81547396699E+03  0.85062965242E+03  0.00000000000E+00 0. -1.
<mgrwt>
<rscale>  0 0.64896597E+03</rscale>
<asrwt>0</asrwt>
<pdfrwt beam="1">0</pdfrwt>
<pdfrwt beam="2">  1        2 0.38287065E+00 0.64896597E+03</pdfrwt>
<totfact> 0.46133854E+00</totfact>
</mgrwt>
</event>
<event>
 5    1  0.2311484E-004  0.6454157E+03  0.7818608E-02  0.9815420E-01
         13   -1    0    0    0    0  0.00000000000E+00  0.00000000000E+00  0.10000000000E+04  0.10000000000E+04  0.00000000000E+00 0. -1.
          2   -1    0    0  501    0 -0.00000000000E+00 -0.00000000000E+00 -0.10414035527E+03  0.10414035527E+03  0.00000000000E+00 0. -1.
    9000006    2    1    2  501    0  0.00000000000E+00  0.00000000000E+00  0.89585964473E+03  0.11041403553E+04  0.64541569633E+03 0.  0.
         13    1    3    3    0    0 -0.22544979018E+03 -0.18946757458E+03  0.67368817409E+03  0.73524235842E+03  0.00000000000E+00 0. -1.
          2    1    3    3  501    0  0.22544979018E+03  0.18946757458E+03  0.22217147064E+03  0.36889799685E+03  0.00000000000E+00 0. -1.
<mgrwt>
<rscale>  0 0.64541570E+03</rscale>
<asrwt>0</asrwt>
<pdfrwt beam="1">0</pdfrwt>
<pdfrwt beam="2">  1        2 0.37869300E+00 0.64541570E+03</pdfrwt>
<totfact> 0.47814841E+00</totfact>
</mgrwt>
</event>
<event>
 5    1  0.2311484E-004  0.6493008E+03  0.7818608E-02  0.9808092E-01
         13   -1    0    0    0    0  0.00000000000E+00  0.00000000000E+00  0.10000000000E+04  0.10000000000E+04  0.00000000000E+00 0. -1.
          2   -1    0    0  501    0 -0.00000000000E+00 -0.00000000000E+00 -0.10539787260E+03  0.10539787260E+03  0.00000000000E+00 0. -1.
    9000006    2    1    2  501    0  0.00000000000E+00  0.00000000000E+00  0.89460212740E+03  0.11053978726E+04  0.64930077036E+03 0.  0.
         13    1    3    3    0    0 -0.74422637254E+02  0.96243907996E+02 -0.65121005972E+02  0.13799407299E+03  0.00000000000E+00 0. -1.
          2    1    3    3  501    0  0.74422637254E+02 -0.96243907996E+02  0.95972313337E+03  0.96740379961E+03  0.00000000000E+00 0. -1.
<mgrwt>
<rscale>  0 0.64930077E+03</rscale>
<asrwt>0</asrwt>
<pdfrwt beam="1">0</pdfrwt>
<pdfrwt beam="2">  1        2 0.38326580E+00 0.64930077E+03</pdfrwt>
<totfact> 0.45977671E+00</totfact>
</mgrwt>
</event>
<event>
 5    1  0.2311484E-004  0.6501025E+03  0.7818608E-02  0.9806587E-01
         13   -1    0    0    0    0  0.00000000000E+00  0.00000000000E+00  0.10000000000E+04  0.10000000000E+04  0.00000000000E+00 0. -1.
          2   -1    0    0  501    0 -0.00000000000E+00 -0.00000000000E+00 -0.10565833113E+03  0.10565833113E+03  0.00000000000E+00 0. -1.
    9000006    2    1    2  501    0  0.00000000000E+00  0.00000000000E+00  0.89434166887E+03  0.11056583311E+04  0.65010254922E+03 0.  0.
         13    1    3    3    0    0 -0.59691499388E+02  0.55729531991E+02  0.98226915110E+03  0.98565792293E+03  0.00000000000E+00 0. -1.
          4    1    3    3  501    0  0.59691499388E+02 -0.55729531991E+02 -0.87927482229E+02  0.12000040819E+03  0.00000000000E+00 0. -1.
<mgrwt>
<rscale>  0 0.65010255E+03</rscale>
<asrwt>0</asrwt>
<pdfrwt beam="1">0</pdfrwt>
<pdfrwt beam="2">  1        2 0.38421292E+00 0.65010255E+03</pdfrwt>
<totfact> 0.45605269E+00</totfact>
</mgrwt>
</event>
<event>
 5    1  0.2311484E-004  0.6423495E+03  0.7818608E-02  0.9821242E-01
         13   -1    0    0    0    0  0.00000000000E+00  0.00000000000E+00  0.10000000000E+04  0.10000000000E+04  0.00000000000E+00 0. -1.
          2   -1    0    0  501    0 -0.00000000000E+00 -0.00000000000E+00 -0.10315320787E+03  0.10315320787E+03  0.00000000000E+00 0. -1.
    9000006    2    1    2  501    0  0.00000000000E+00  0.00000000000E+00  0.89684679213E+03  0.11031532079E+04  0.64234946211E+03 0.  0.
         13    1    3    3    0    0  0.49526866943E+02 -0.23568753727E+03  0.83500229631E+02  0.25489961577E+03  0.00000000000E+00 0. -1.
          4    1    3    3  501    0 -0.49526866943E+02  0.23568753727E+03  0.81334656250E+03  0.84825359210E+03  0.00000000000E+00 0. -1.
<mgrwt>
<rscale>  0 0.64234946E+03</rscale>
<asrwt>0</asrwt>
<pdfrwt beam="1">0</pdfrwt>
<pdfrwt beam="2">  1        2 0.37510337E+00 0.64234946E+03</pdfrwt>
<totfact> 0.49303596E+00</totfact>
</mgrwt>
</event>
<event>
 5    1  0.2311484E-004  0.6496270E+03  0.7818608E-02  0.9807479E-01
         13   -1    0    0    0    0  0.00000000000E+00  0.00000000000E+00  0.10000000000E+04  0.10000000000E+04  0.00000000000E+00 0. -1.
          2   -1    0    0  501    0 -0.00000000000E+00 -0.00000000000E+00 -0.10550382465E+03  0.10550382465E+03  0.00000000000E+00 0. -1.
    9000006    2    1    2  501    0  0.00000000000E+00  0.00000000000E+00  0.89449617535E+03  0.11055038247E+04  0.64962704579E+03 0.  0.
         13    1    3    3    0    0  0.23817382643E+03 -0.10108856529E+03  0.78140794319E+03  0.82313063562E+03  0.00000000000E+00 0. -1.
          4    1    3    3  501    0 -0.23817382643E+03  0.10108856529E+03  0.11308823216E+03  0.28237318903E+03  0.00000000000E+00 0. -1.
<mgrwt>
<rscale>  0 0.64962705E+03</rscale>
<asrwt>0</asrwt>
<pdfrwt beam="1">0</pdfrwt>
<pdfrwt beam="2">  1        2 0.38365108E+00 0.64962705E+03</pdfrwt>
<totfact> 0.45825850E+00</totfact>
</mgrwt>
</event>
<event>
 5    1  0.2311484E-004  0.6540061E+03  0.7818608E-02  0.9799291E-01
         13   -1    0    0    0    0  0.00000000000E+00  0.00000000000E+00  0.10000000000E+04  0.10000000000E+04  0.00000000000E+00 0. -1.
          2   -1    0    0  501    0 -0.00000000000E+00 -0.00000000000E+00 -0.10693098359E+03  0.10693098359E+03  0.00000000000E+00 0. -1.
    9000006    2    1    2  501    0  0.00000000000E+00  0.00000000000E+00  0.89306901641E+03  0.11069309836E+04  0.65400606598E+03 0.  0.
         13    1    3    3    0    0  0.11644359490E+03 -0.32300664200E+02 -0.67753918212E+02  0.13853893725E+03  0.00000000000E+00 0. -1.
          4    1    3    3  501    0 -0.11644359490E+03  0.32300664200E+02  0.96082293463E+03  0.96839204633E+03  0.00000000000E+00 0. -1.
<mgrwt>
<rscale>  0 0.65400607E+03</rscale>
<asrwt>0</asrwt>
<pdfrwt beam="1">0</pdfrwt>
<pdfrwt beam="2">  1        2 0.38884076E+00 0.65400607E+03</pdfrwt>
<totfact> 0.43824652E+00</totfact>
</mgrwt>
</event>
<event>
 5    1  0.2311484E-004  0.6548302E+03  0.7818608E-02  0.9797758E-01
         13   -1    0    0    0    0  0.00000000000E+00  0.00000000000E+00  0.10000000000E+04  0.10000000000E+04  0.00000000000E+00 0. -1.
          2   -1    0    0  501    0 -0.00000000000E+00 -0.00000000000E+00 -0.10720065482E+03  0.10720065482E+03  0.00000000000E+00 0. -1.
    9000006    2    1    2  501    0  0.00000000000E+00  0.00000000000E+00  0.89279934518E+03  0.11072006548E+04  0.65483022172E+03 0.  0.
         13    1    3    3    0    0  0.28410525456E+02 -0.30000907913E+03  0.66285149672E+03  0.72813783875E+03  0.00000000000E+00 0. -1.
          4    1    3    3  501    0 -0.28410525456E+02  0.30000907913E+03  0.22994784846E+03  0.37906281607E+03  0.00000000000E+00 0. -1.
<mgrwt>
<rscale>  0 0.65483022E+03</rscale>
<asrwt>0</asrwt>
<pdfrwt beam="1">0</pdfrwt>
<pdfrwt beam="2">  1        2 0.38982139E+00 0.65483022E+03</pdfrwt>
<totfact> 0.43455524E+00</totfact>
</mgrwt>
</event>
<event>
 5    1  0.2311484E-004  0.6543258E+03  0.7818608E-02  0.9798696E-01
         13   -1    0    0    0    0  0.00000000000E+00  0.00000000000E+00  0.10000000000E+04  0.10000000000E+04  0.00000000000E+00 0. -1.
          2   -1    0    0  501    0 -0.00000000000E+00 -0.00000000000E+00 -0.10703555211E+03  0.10703555211E+03  0.00000000000E+00 0. -1.
    9000006    2    1    2  501    0  0.00000000000E+00  0.00000000000E+00  0.89296444789E+03  0.11070355521E+04  0.65432576631E+03 0.  0.
         13    1    3    3    0    0  0.20429908766E+03 -0.13131807654E+03  0.75607028230E+02  0.25435993624E+03  0.00000000000E+00 0. -1.
          2    1    3    3  501    0 -0.20429908766E+03  0.13131807654E+03  0.81735741966E+03  0.85267561588E+03  0.00000000000E+00 0. -1.
<mgrwt>
<rscale>  0 0.65432577E+03</rscale>
<asrwt>0</asrwt>
<pdfrwt beam="1">0</pdfrwt>
<pdfrwt beam="2">  1        2 0.38922101E+00 0.65432577E+03</pdfrwt>
<totfact> 0.43681183E+00</totfact>
</mgrwt>
</event>
<event>
 5    1  0.2311484E-004  0.6413873E+03  0.7818608E-02  0.9823076E-01
         13   -1    0    0    0    0  0.00000000000E+00  0.00000000000E+00  0.10000000000E+04  0.10000000000E+04  0.00000000000E+00 0. -1.
          2   -1    0    0  501    0 -0.00000000000E+00 -0.00000000000E+00 -0.10284442471E+03  0.10284442471E+03  0.00000000000E+00 0. -1.
    9000006    2    1    2  501    0  0.00000000000E+00  0.00000000000E+00  0.89715557529E+03  0.11028444247E+04  0.64138732357E+03 0.  0.
         13    1    3    3    0    0  0.29413643470E+03 -0.55509304960E+02  0.64648016048E+03  0.71241429172E+03  0.00000000000E+00 0. -1.
          2    1    3    3  501    0 -0.29413643470E+03  0.55509304960E+02  0.25067541481E+03  0.39043013299E+03  0.00000000000E+00 0. -1.
<mgrwt>
<rscale>  0 0.64138732E+03</rscale>
<asrwt>0</asrwt>
<pdfrwt beam="1">0</pdfrwt>
<pdfrwt beam="2">  1        2 0.37398051E+00 0.64138732E+03</pdfrwt>
<totfact> 0.49777936E+00</totfact>
</mgrwt>
</event>
<event>
 5    1  0.2311484E-004  0.6458216E+03  0.7818608E-02  0.9814651E-01
         13   -1    0    0    0    0  0.00000000000E+00  0.00000000000E+00  0.10000000000E+04  0.10000000000E+04  0.00000000000E+00 0. -1.
          2   -1    0    0  501    0 -0.00000000000E+00 -0.00000000000E+00 -0.10427139527E+03  0.10427139527E+03  0.00000000000E+00 0. -1.
    9000006    2    1    2  501    0  0.00000000000E+00  0.00000000000E+00  0.89572860473E+03  0.11042713953E+04  0.64582163255E+03 0.  0.
         13    1    3    3    0    0 -0.19254256569E+03  0.16832037776E+03  0.78496044160E+03  0.82557088372E+03  0.00000000000E+00 0. -1.
          2    1    3    3  501    0  0.19254256569E+03 -0.16832037776E+03  0.11076816313E+03  0.27870051155E+03  0.00000000000E+00 0. -1.
<mgrwt>
<rscale>  0 0.64582163E+03</rscale>
<asrwt>0</asrwt>
<pdfrwt beam="1">0</pdfrwt>
<pdfrwt beam="2">  1        2 0.37916951E+00 0.64582163E+03</pdfrwt>
<totfact> 0.47620329E+00</totfact>
</mgrwt>
</event>
<event>
 5    1  0.2311484E-004  0.6533243E+03  0.7818608E-02  0.9800561E-01
         13   -1    0    0    0    0  0.00000000000E+00  0.00000000000E+00  0.10000000000E+04  0.10000000000E+04  0.00000000000E+00 0. -1.
          2   -1    0    0  501    0 -0.00000000000E+00 -0.00000000000E+00 -0.10670815298E+03  0.10670815298E+03  0.00000000000E+00 0. -1.
    9000006    2    1    2  501    0  0.00000000000E+00  0.00000000000E+00  0.89329184702E+03  0.11067081530E+04  0.65332427778E+03 0.  0.
         13    1    3    3    0    0  0.25598625638E+03  0.20281499315E+03  0.43524866662E+03  0.54415465329E+03  0.00000000000E+00 0. -1.
          4    1    3    3  501    0 -0.25598625638E+03 -0.20281499315E+03  0.45804318040E+03  0.56255349969E+03  0.00000000000E+00 0. -1.
<mgrwt>
<rscale>  0 0.65332428E+03</rscale>
<asrwt>0</asrwt>
<pdfrwt beam="1">0</pdfrwt>
<pdfrwt beam="2">  1        2 0.38803047E+00 0.65332428E+03</pdfrwt>
<totfact> 0.44131802E+00</totfact>
</mgrwt>
</event>
<event>
 5    1  0.2311484E-004  0.6198015E+03  0.7818608E-02  0.9865155E-01
         13   -1    0    0    0    0  0.00000000000E+00  0.00000000000E+00  0.10000000000E+04  0.10000000000E+04  0.00000000000E+00 0. -1.
          2   -1    0    0  501    0 -0.00000000000E+00 -0.00000000000E+00 -0.96038469490E+02  0.96038469490E+02  0.00000000000E+00 0. -1.
    9000006    2    1    2  501    0  0.00000000000E+00  0.00000000000E+00  0.90396153051E+03  0.10960384695E+04  0.61980148270E+03 0.  0.
         13    1    3    3    0    0 -0.30907553718E+01  0.76915351137E+02 -0.78863071564E+02  0.11020393852E+03  0.00000000000E+00 0. -1.
          2    1    3    3  501    0  0.30907553718E+01 -0.76915351137E+02  0.98282460207E+03  0.98583453097E+03  0.00000000000E+00 0. -1.
<mgrwt>
<rscale>  0 0.61980148E+03</rscale>
<asrwt>0</asrwt>
<pdfrwt beam="1">0</pdfrwt>
<pdfrwt beam="2">  1        2 0.34923153E+00 0.61980148E+03</pdfrwt>
<totfact> 0.61360368E+00</totfact>
</mgrwt>
</event>
<event>
 5    1  0.2311484E-004  0.6442419E+03  0.7818608E-02  0.9817644E-01
         13   -1    0    0    0    0  0.00000000000E+00  0.00000000000E+00  0.10000000000E+04  0.10000000000E+04  0.00000000000E+00 0. -1.
          2   -1    0    0  501    0 -0.00000000000E+00 -0.00000000000E+00 -0.10376191996E+03  0.10376191996E+03  0.00000000000E+00 0. -1.
    9000006    2    1    2  501    0  0.00000000000E+00  0.00000000000E+00  0.89623808004E+03  0.11037619200E+04  0.64424194202E+03 0.  0.
         13    1    3    3    0    0  0.31790998705E+03  0.51783182616E+02  0.44178639595E+03  0.54673894823E+03  0.00000000000E+00 0. -1.
          2    1    3    3  501    0 -0.31790998705E+03 -0.51783182616E+02  0.45445168408E+03  0.55702297173E+03  0.00000000000E+00 0. -1.
<mgrwt>
<rscale>  0 0.64424194E+03</rscale>
<asrwt>0</asrwt>
<pdfrwt beam="1">0</pdfrwt>
<pdfrwt beam="2">  1        2 0.37731687E+00 0.64424194E+03</pdfrwt>
<totfact> 0.48380652E+00</totfact>
</mgrwt>
</event>
<event>
 5    1  0.2311484E-004  0.6521062E+03  0.7818608E-02  0.9802835E-01
         13   -1    0    0    0    0  0.00000000000E+00  0.00000000000E+00  0.10000000000E+04  0.10000000000E+04  0.00000000000E+00 0. -1.
          2   -1    0    0  501    0 -0.00000000000E+00 -0.00000000000E+00 -0.10631063492E+03  0.10631063492E+03  0.00000000000E+00 0. -1.
    9000006    2    1    2  501    0  0.00000000000E+00  0.00000000000E+00  0.89368936508E+03  0.11063106349E+04  0.65210623343E+03 0.  0.
         13    1    3    3    0    0  0.14802026533E+03 -0.24518410069E+03  0.18246303706E+03  0.33958504395E+03  0.00000000000E+00 0. -1.
          4    1    3    3  501    0 -0.14802026533E+03  0.24518410069E+03  0.71122632802E+03  0.76672559097E+03  0.00000000000E+00 0. -1.
<mgrwt>
<rscale>  0 0.65210623E+03</rscale>
<asrwt>0</asrwt>
<pdfrwt beam="1">0</pdfrwt>
<pdfrwt beam="2">  1        2 0.38658494E+00 0.65210623E+03</pdfrwt>
<totfact> 0.44684583E+00</totfact>
</mgrwt>
</event>
<event>
 5    1  0.2311484E-004  0.6472860E+03  0.7818608E-02  0.9811885E-01
         13   -1    0    0    0    0  0.00000000000E+00  0.00000000000E+00  0.10000000000E+04  0.10000000000E+04  0.00000000000E+00 0. -1.
          2   -1    0    0  501    0 -0.00000000000E+00 -0.00000000000E+00 -0.10474478874E+03  0.10474478874E+03  0.00000000000E+00 0. -1.
    9000006    2    1    2  501    0  0.00000000000E+00  0.00000000000E+00  0.89525521126E+03  0.11047447887E+04  0.64728599164E+03 0.  0.
         13    1    3    3    0    0  0.18236237844E+03 -0.24869939185E+03  0.61517778162E+03  0.68815051230E+03  0.00000000000E+00 0. -1.
          4    1    3    3  501    0 -0.18236237844E+03  0.24869939185E+03  0.28007742963E+03  0.41659427644E+03  0.00000000000E+00 0. -1.
<mgrwt>
<rscale>  0 0.64728599E+03</rscale>
<asrwt>0</asrwt>
<pdfrwt beam="1">0</pdfrwt>
<pdfrwt beam="2">  1        2 0.38089094E+00 0.64728599E+03</pdfrwt>
<totfact> 0.46923622E+00</totfact>
</mgrwt>
</event>
<event>
 5    1  0.2311484E-004  0.6125833E+03  0.7818608E-02  0.9879638E-01
         13   -1    0    0    0    0  0.00000000000E+00  0.00000000000E+00  0.10000000000E+04  0.10000000000E+04  0.00000000000E+00 0. -1.
          2   -1    0    0  501    0 -0.00000000000E+00 -0.00000000000E+00 -0.93814589264E+02  0.93814589264E+02  0.00000000000E+00 0. -1.
    9000006    2    1    2  501    0  0.00000000000E+00  0.00000000000E+00  0.90618541074E+03  0.10938145893E+04  0.61258334703E+03 0.  0.
         13    1    3    3    0    0 -0.29340045804E+03 -0.87914190179E+02  0.45066035183E+03  0.54489217863E+03  0.00000000000E+00 0. -1.
          2    1    3    3  501    0  0.29340045804E+03  0.87914190179E+02  0.45552505890E+03  0.54892241064E+03  0.00000000000E+00 0. -1.
<mgrwt>
<rscale>  0 0.61258335E+03</rscale>
<asrwt>0</asrwt>
<pdfrwt beam="1">0</pdfrwt>
<pdfrwt beam="2">  1        2 0.34114468E+00 0.61258335E+03</pdfrwt>
<totfact> 0.65656943E+00</totfact>
</mgrwt>
</event>
<event>
 5    1  0.2311484E-004  0.6548269E+03  0.7818608E-02  0.9797764E-01
         13   -1    0    0    0    0  0.00000000000E+00  0.00000000000E+00  0.10000000000E+04  0.10000000000E+04  0.00000000000E+00 0. -1.
          2   -1    0    0  501    0 -0.00000000000E+00 -0.00000000000E+00 -0.10719958053E+03  0.10719958053E+03  0.00000000000E+00 0. -1.
    9000006    2    1    2  501    0  0.00000000000E+00  0.00000000000E+00  0.89280041947E+03  0.11071995805E+04  0.65482694060E+03 0.  0.
         13    1    3    3    0    0 -0.32642400141E+03 -0.10846912211E+02  0.48530013944E+03  0.58496710124E+03  0.00000000000E+00 0. -1.
          2    1    3    3  501    0  0.32642400141E+03  0.10846912211E+02  0.40750028003E+03  0.52223247929E+03  0.00000000000E+00 0. -1.
<mgrwt>
<rscale>  0 0.65482694E+03</rscale>
<asrwt>0</asrwt>
<pdfrwt beam="1">0</pdfrwt>
<pdfrwt beam="2">  1        2 0.38981748E+00 0.65482694E+03</pdfrwt>
<totfact> 0.43456988E+00</totfact>
</mgrwt>
</event>
<event>
 5    1  0.2311484E-004  0.6330923E+03  0.7818608E-02  0.9839033E-01
         13   -1    0    0    0    0  0.00000000000E+00  0.00000000000E+00  0.10000000000E+04  0.10000000000E+04  0.00000000000E+00 0. -1.
          2   -1    0    0  501    0 -0.00000000000E+00 -0.00000000000E+00 -0.10020146837E+03  0.10020146837E+03  0.00000000000E+00 0. -1.
    9000006    2    1    2  501    0  0.00000000000E+00  0.00000000000E+00  0.89979853163E+03  0.11002014684E+04  0.63309231038E+03 0.  0.
         13    1    3    3    0    0  0.20849237247E+03 -0.10797915414E+03  0.81884537822E+03  0.85184289663E+03  0.00000000000E+00 0. -1.
          4    1    3    3  501    0 -0.20849237247E+03  0.10797915414E+03  0.80953153417E+02  0.24835857174E+03  0.00000000000E+00 0. -1.
<mgrwt>
<rscale>  0 0.63309231E+03</rscale>
<asrwt>0</asrwt>
<pdfrwt beam="1">0</pdfrwt>
<pdfrwt beam="2">  1        2 0.36436974E+00 0.63309231E+03</pdfrwt>
<totfact> 0.54012265E+00</totfact>
</mgrwt>
</event>
<event>
 5    1  0.2311484E-004  0.6675568E+03  0.7818608E-02  0.9774382E-01
         13   -1    0    0    0    0  0.00000000000E+00  0.00000000000E+00  0.10000000000E+04  0.10000000000E+04  0.00000000000E+00 0. -1.
          2   -1    0    0  501    0 -0.00000000000E+00 -0.00000000000E+00 -0.11140801271E+03  0.11140801271E+03  0.00000000000E+00 0. -1.
    9000006    2    1    2  501    0  0.00000000000E+00  0.00000000000E+00  0.88859198729E+03  0.11114080127E+04  0.66755677725E+03 0.  0.
         13    1    3    3    0    0 -0.20916491122E+03 -0.60831501971E+02  0.86534372231E+03  0.89233972760E+03  0.00000000000E+00 0. -1.
          2    1    3    3  501    0  0.20916491122E+03  0.60831501971E+02  0.23248264975E+02  0.21906828511E+03  0.00000000000E+00 0. -1.
<mgrwt>
<rscale>  0 0.66755678E+03</rscale>
<asrwt>0</asrwt>
<pdfrwt beam="1">0</pdfrwt>
<pdfrwt beam="2">  1        2 0.40512090E+00 0.66755678E+03</pdfrwt>
<totfact> 0.38048195E+00</totfact>
</mgrwt>
</event>
<event>
 5    1  0.2311484E-004  0.6523183E+03  0.7818608E-02  0.9802439E-01
         13   -1    0    0    0    0  0.00000000000E+00  0.00000000000E+00  0.10000000000E+04  0.10000000000E+04  0.00000000000E+00 0. -1.
          2   -1    0    0  501    0 -0.00000000000E+00 -0.00000000000E+00 -0.10637978265E+03  0.10637978265E+03  0.00000000000E+00 0. -1.
    9000006    2    1    2  501    0  0.00000000000E+00  0.00000000000E+00  0.89362021735E+03  0.11063797826E+04  0.65231827399E+03 0.  0.
         13    1    3    3    0    0  0.25346447504E+03  0.23877509213E+02  0.79259873576E+03  0.83248251121E+03  0.00000000000E+00 0. -1.
          4    1    3    3  501    0 -0.25346447504E+03 -0.23877509213E+02  0.10102148160E+03  0.27389727143E+03  0.00000000000E+00 0. -1.
<mgrwt>
<rscale>  0 0.65231827E+03</rscale>
<asrwt>0</asrwt>
<pdfrwt beam="1">0</pdfrwt>
<pdfrwt beam="2">  1        2 0.38683639E+00 0.65231827E+03</pdfrwt>
<totfact> 0.44587979E+00</totfact>
</mgrwt>
</event>
<event>
 5    1  0.2311484E-004  0.6503552E+03  0.7818608E-02  0.9806113E-01
         13   -1    0    0    0    0  0.00000000000E+00  0.00000000000E+00  0.10000000000E+04  0.10000000000E+04  0.00000000000E+00 0. -1.
          2   -1    0    0  501    0 -0.00000000000E+00 -0.00000000000E+00 -0.10574047347E+03  0.10574047347E+03  0.00000000000E+00 0. -1.
    9000006    2    1    2  501    0  0.00000000000E+00  0.00000000000E+00  0.89425952653E+03  0.11057404735E+04  0.65035520594E+03 0.  0.
         13    1    3    3    0    0 -0.80570264084E+02 -0.36626912210E+02  0.97912811837E+03  0.98312001827E+03  0.00000000000E+00 0. -1.
          2    1    3    3  501    0  0.80570264084E+02  0.36626912210E+02 -0.84868591840E+02  0.12262045520E+03  0.00000000000E+00 0. -1.
<mgrwt>
<rscale>  0 0.65035521E+03</rscale>
<asrwt>0</asrwt>
<pdfrwt beam="1">0</pdfrwt>
<pdfrwt beam="2">  1        2 0.38451162E+00 0.65035521E+03</pdfrwt>
<totfact> 0.45488391E+00</totfact>
</mgrwt>
</event>
<event>
 5    1  0.2311484E-004  0.6517715E+03  0.7818608E-02  0.9803461E-01
         13   -1    0    0    0    0  0.00000000000E+00  0.00000000000E+00  0.10000000000E+04  0.10000000000E+04  0.00000000000E+00 0. -1.
          2   -1    0    0  501    0 -0.00000000000E+00 -0.00000000000E+00 -0.10620153010E+03  0.10620153010E+03  0.00000000000E+00 0. -1.
    9000006    2    1    2  501    0  0.00000000000E+00  0.00000000000E+00  0.89379846990E+03  0.11062015301E+04  0.65177152468E+03 0.  0.
         13    1    3    3    0    0  0.19421645104E+03  0.61958389352E+02  0.15381672552E+02  0.20443939864E+03  0.00000000000E+00 0. -1.
          2    1    3    3  501    0 -0.19421645104E+03 -0.61958389352E+02  0.87841679735E+03  0.90176213146E+03  0.00000000000E+00 0. -1.
<mgrwt>
<rscale>  0 0.65177152E+03</rscale>
<asrwt>0</asrwt>
<pdfrwt beam="1">0</pdfrwt>
<pdfrwt beam="2">  1        2 0.38618820E+00 0.65177152E+03</pdfrwt>
<totfact> 0.44837394E+00</totfact>
</mgrwt>
</event>
<event>
 5    1  0.2311484E-004  0.6390098E+03  0.7818608E-02  0.9827623E-01
         13   -1    0    0    0    0  0.00000000000E+00  0.00000000000E+00  0.10000000000E+04  0.10000000000E+04  0.00000000000E+00 0. -1.
          2   -1    0    0  501    0 -0.00000000000E+00 -0.00000000000E+00 -0.10208337931E+03  0.10208337931E+03  0.00000000000E+00 0. -1.
    9000006    2    1    2  501    0  0.00000000000E+00  0.00000000000E+00  0.89791662069E+03  0.11020833793E+04  0.63900979432E+03 0.  0.
         13    1    3    3    0    0 -0.31064485775E+03  0.67258191850E+02  0.39282058470E+03  0.50530377377E+03  0.00000000000E+00 0. -1.
          2    1    3    3  501    0  0.31064485775E+03 -0.67258191850E+02  0.50509603599E+03  0.59677960554E+03  0.00000000000E+00 0. -1.
<mgrwt>
<rscale>  0 0.63900979E+03</rscale>
<asrwt>0</asrwt>
<pdfrwt beam="1">0</pdfrwt>
<pdfrwt beam="2">  1        2 0.37121307E+00 0.63900979E+03</pdfrwt>
<totfact> 0.50964893E+00</totfact>
</mgrwt>
</event>
<event>
 5    1  0.2311484E-004  0.6528779E+03  0.7818608E-02  0.9801394E-01
         13   -1    0    0    0    0  0.00000000000E+00  0.00000000000E+00  0.10000000000E+04  0.10000000000E+04  0.00000000000E+00 0. -1.
          2   -1    0    0  501    0 -0.00000000000E+00 -0.00000000000E+00 -0.10656239336E+03  0.10656239336E+03  0.00000000000E+00 0. -1.
    9000006    2    1    2  501    0  0.00000000000E+00  0.00000000000E+00  0.89343760664E+03  0.11065623934E+04  0.65287791619E+03 0.  0.
         13    1    3    3    0    0  0.16349113074E+03  0.15773226327E+03  0.84404016003E+03  0.87407814780E+03  0.00000000000E+00 0. -1.
          2    1    3    3  501    0 -0.16349113074E+03 -0.15773226327E+03  0.49397446602E+02  0.23248424557E+03  0.00000000000E+00 0. -1.
<mgrwt>
<rscale>  0 0.65287792E+03</rscale>
<asrwt>0</asrwt>
<pdfrwt beam="1">0</pdfrwt>
<pdfrwt beam="2">  1        2 0.38750043E+00 0.65287792E+03</pdfrwt>
<totfact> 0.44333769E+00</totfact>
</mgrwt>
</event>
<event>
 5    1  0.2311484E-004  0.6469617E+03  0.7818608E-02  0.9812497E-01
         13   -1    0    0    0    0  0.00000000000E+00  0.00000000000E+00  0.10000000000E+04  0.10000000000E+04  0.00000000000E+00 0. -1.
          2   -1    0    0  501    0 -0.00000000000E+00 -0.00000000000E+00 -0.10463986140E+03  0.10463986140E+03  0.00000000000E+00 0. -1.
    9000006    2    1    2  501    0  0.00000000000E+00  0.00000000000E+00  0.89536013860E+03  0.11046398614E+04  0.64696170335E+03 0.  0.
         13    1    3    3    0    0  0.17683084785E+03  0.14187723794E+03  0.84165404177E+03  0.87165350078E+03  0.00000000000E+00 0. -1.
          4    1    3    3  501    0 -0.17683084785E+03 -0.14187723794E+03  0.53706096831E+02  0.23298636062E+03  0.00000000000E+00 0. -1.
<mgrwt>
<rscale>  0 0.64696170E+03</rscale>
<asrwt>0</asrwt>
<pdfrwt beam="1">0</pdfrwt>
<pdfrwt beam="2">  1        2 0.38050939E+00 0.64696170E+03</pdfrwt>
<totfact> 0.47077242E+00</totfact>
</mgrwt>
</event>
<event>
 5    1  0.2311484E-004  0.6442801E+03  0.7818608E-02  0.9817572E-01
         13   -1    0    0    0    0  0.00000000000E+00  0.00000000000E+00  0.10000000000E+04  0.10000000000E+04  0.00000000000E+00 0. -1.
          2   -1    0    0  501    0 -0.00000000000E+00 -0.00000000000E+00 -0.10377421887E+03  0.10377421887E+03  0.00000000000E+00 0. -1.
    9000006    2    1    2  501    0  0.00000000000E+00  0.00000000000E+00  0.89622578113E+03  0.11037742189E+04  0.64428012190E+03 0.  0.
         13    1    3    3    0    0  0.17312037293E+03  0.46388777148E+01  0.91346408383E+03  0.92973588462E+03  0.00000000000E+00 0. -1.
          2    1    3    3  501    0 -0.17312037293E+03 -0.46388777148E+01 -0.17238302696E+02  0.17403833425E+03  0.00000000000E+00 0. -1.
<mgrwt>
<rscale>  0 0.64428012E+03</rscale>
<asrwt>0</asrwt>
<pdfrwt beam="1">0</pdfrwt>
<pdfrwt beam="2">  1        2 0.37736159E+00 0.64428012E+03</pdfrwt>
<totfact> 0.48362168E+00</totfact>
</mgrwt>
</event>
<event>
 5    1  0.2311484E-004  0.6799888E+03  0.7818608E-02  0.9752079E-01
         13   -1    0    0    0    0  0.00000000000E+00  0.00000000000E+00  0.10000000000E+04  0.10000000000E+04  0.00000000000E+00 0. -1.
          2   -1    0    0  501    0 -0.00000000000E+00 -0.00000000000E+00 -0.11559620685E+03  0.11559620685E+03  0.00000000000E+00 0. -1.
    9000006    2    1    2  501    0  0.00000000000E+00  0.00000000000E+00  0.88440379315E+03  0.11155962069E+04  0.67998884360E+03 0.  0.
         13    1    3    3    0    0  0.15947606638E+03  0.67337257189E+02  0.92228497672E+03  0.93839037732E+03  0.00000000000E+00 0. -1.
          4    1    3    3  501    0 -0.15947606638E+03 -0.67337257189E+02 -0.37881183577E+02  0.17720582954E+03  0.00000000000E+00 0. -1.
<mgrwt>
<rscale>  0 0.67998884E+03</rscale>
<asrwt>0</asrwt>
<pdfrwt beam="1">0</pdfrwt>
<pdfrwt beam="2">  1        2 0.42035073E+00 0.67998884E+03</pdfrwt>
<totfact> 0.33272068E+00</totfact>
</mgrwt>
</event>
<event>
 5    1  0.2311484E-004  0.6512208E+03  0.7818608E-02  0.9804491E-01
         13   -1    0    0    0    0  0.00000000000E+00  0.00000000000E+00  0.10000000000E+04  0.10000000000E+04  0.00000000000E+00 0. -1.
          2   -1    0    0  501    0 -0.00000000000E+00 -0.00000000000E+00 -0.10602212107E+03  0.10602212107E+03  0.00000000000E+00 0. -1.
    9000006    2    1    2  501    0  0.00000000000E+00  0.00000000000E+00  0.89397787893E+03  0.11060221211E+04  0.65122076463E+03 0.  0.
         13    1    3    3    0    0  0.31353480884E+03  0.77190877143E+02  0.37574561453E+03  0.49542635649E+03  0.00000000000E+00 0. -1.
          4    1    3    3  501    0 -0.31353480884E+03 -0.77190877143E+02  0.51823226440E+03  0.61059576458E+03  0.00000000000E+00 0. -1.
<mgrwt>
<rscale>  0 0.65122076E+03</rscale>
<asrwt>0</asrwt>
<pdfrwt beam="1">0</pdfrwt>
<pdfrwt beam="2">  1        2 0.38553580E+00 0.65122076E+03</pdfrwt>
<totfact> 0.45089704E+00</totfact>
</mgrwt>
</event>
<event>
 5    1  0.2311484E-004  0.6519573E+03  0.7818608E-02  0.9803113E-01
         13   -1    0    0    0    0  0.00000000000E+00  0.00000000000E+00  0.10000000000E+04  0.10000000000E+04  0.00000000000E+00 0. -1.
          2   -1    0    0  501    0 -0.00000000000E+00 -0.00000000000E+00 -0.10626209242E+03  0.10626209242E+03  0.00000000000E+00 0. -1.
    9000006    2    1    2  501    0  0.00000000000E+00  0.00000000000E+00  0.89373790758E+03  0.11062620924E+04  0.65195733733E+03 0.  0.
         13    1    3    3    0    0  0.11110030679E+03 -0.18051820938E+03  0.86709443470E+03  0.89262694378E+03  0.00000000000E+00 0. -1.
          4    1    3    3  501    0 -0.11110030679E+03  0.18051820938E+03  0.26643472878E+02  0.21363514864E+03  0.00000000000E+00 0. -1.
<mgrwt>
<rscale>  0 0.65195734E+03</rscale>
<asrwt>0</asrwt>
<pdfrwt beam="1">0</pdfrwt>
<pdfrwt beam="2">  1        2 0.38640842E+00 0.65195734E+03</pdfrwt>
<totfact> 0.44752513E+00</totfact>
</mgrwt>
</event>
<event>
 5    1  0.2311484E-004  0.6153256E+03  0.7818608E-02  0.9874111E-01
         13   -1    0    0    0    0  0.00000000000E+00  0.00000000000E+00  0.10000000000E+04  0.10000000000E+04  0.00000000000E+00 0. -1.
          2   -1    0    0  501    0 -0.00000000000E+00 -0.00000000000E+00 -0.94656392783E+02  0.94656392783E+02  0.00000000000E+00 0. -1.
    9000006    2    1    2  501    0  0.00000000000E+00  0.00000000000E+00  0.90534360722E+03  0.10946563928E+04  0.61532558141E+03 0.  0.
         13    1    3    3    0    0 -0.20506279993E+03 -0.20367458944E+03  0.64028794420E+03  0.70249750305E+03  0.00000000000E+00 0. -1.
          4    1    3    3  501    0  0.20506279993E+03  0.20367458944E+03  0.26505566302E+03  0.39215888974E+03  0.00000000000E+00 0. -1.
<mgrwt>
<rscale>  0 0.61532558E+03</rscale>
<asrwt>0</asrwt>
<pdfrwt beam="1">0</pdfrwt>
<pdfrwt beam="2">  1        2 0.34420579E+00 0.61532558E+03</pdfrwt>
<totfact> 0.63998494E+00</totfact>
</mgrwt>
</event>
<event>
 5    1  0.2311484E-004  0.6549147E+03  0.7818608E-02  0.9797600E-01
         13   -1    0    0    0    0  0.00000000000E+00  0.00000000000E+00  0.10000000000E+04  0.10000000000E+04  0.00000000000E+00 0. -1.
          2   -1    0    0  501    0 -0.00000000000E+00 -0.00000000000E+00 -0.10722833215E+03  0.10722833215E+03  0.00000000000E+00 0. -1.
    9000006    2    1    2  501    0  0.00000000000E+00  0.00000000000E+00  0.89277166785E+03  0.11072283322E+04  0.65491474912E+03 0.  0.
         13    1    3    3    0    0 -0.17549313334E+03 -0.27237607844E+03  0.52643326221E+03  0.61815738086E+03  0.00000000000E+00 0. -1.
          2    1    3    3  501    0  0.17549313334E+03  0.27237607844E+03  0.36633840564E+03  0.48907095129E+03  0.00000000000E+00 0. -1.
<mgrwt>
<rscale>  0 0.65491475E+03</rscale>
<asrwt>0</asrwt>
<pdfrwt beam="1">0</pdfrwt>
<pdfrwt beam="2">  1        2 0.38992203E+00 0.65491475E+03</pdfrwt>
<totfact> 0.43417798E+00</totfact>
</mgrwt>
</event>
<event>
 5    1  0.2311484E-004  0.6456805E+03  0.7818608E-02  0.9814918E-01
         13   -1    0    0    0    0  0.00000000000E+00  0.00000000000E+00  0.10000000000E+04  0.10000000000E+04  0.00000000000E+00 0. -1.
          2   -1    0    0  501    0 -0.00000000000E+00 -0.00000000000E+00 -0.10422582483E+03  0.10422582483E+03  0.00000000000E+00 0. -1.
    9000006    2    1    2  501    0  0.00000000000E+00  0.00000000000E+00  0.89577417517E+03  0.11042258248E+04  0.64568049323E+03 0.  0.
         13    1    3    3    0    0  0.25135256462E+03 -0.12056285416E+03  0.72634786351E+03  0.77800689738E+03  0.00000000000E+00 0. -1.
          4    1    3    3  501    0 -0.25135256462E+03  0.12056285416E+03  0.16942631166E+03  0.32621892745E+03  0.00000000000E+00 0. -1.
<mgrwt>
<rscale>  0 0.64568049E+03</rscale>
<asrwt>0</asrwt>
<pdfrwt beam="1">0</pdfrwt>
<pdfrwt beam="2">  1        2 0.37900380E+00 0.64568049E+03</pdfrwt>
<totfact> 0.47687890E+00</totfact>
</mgrwt>
</event>
<event>
 5    1  0.2311484E-004  0.6581396E+03  0.7818608E-02  0.9791625E-01
         13   -1    0    0    0    0  0.00000000000E+00  0.00000000000E+00  0.10000000000E+04  0.10000000000E+04  0.00000000000E+00 0. -1.
          2   -1    0    0  501    0 -0.00000000000E+00 -0.00000000000E+00 -0.10828694166E+03  0.10828694166E+03  0.00000000000E+00 0. -1.
    9000006    2    1    2  501    0  0.00000000000E+00  0.00000000000E+00  0.89171305834E+03  0.11082869417E+04  0.65813962548E+03 0.  0.
         13    1    3    3    0    0  0.20070464548E+03  0.16450808415E+03  0.10512133685E+03  0.27999242834E+03  0.00000000000E+00 0. -1.
          2    1    3    3  501    0 -0.20070464548E+03 -0.16450808415E+03  0.78659172149E+03  0.82829451331E+03  0.00000000000E+00 0. -1.
<mgrwt>
<rscale>  0 0.65813963E+03</rscale>
<asrwt>0</asrwt>
<pdfrwt beam="1">0</pdfrwt>
<pdfrwt beam="2">  1        2 0.39377153E+00 0.65813963E+03</pdfrwt>
<totfact> 0.41996875E+00</totfact>
</mgrwt>
</event>
<event>
 5    1  0.2311484E-004  0.6782467E+03  0.7818608E-02  0.9755174E-01
         13   -1    0    0    0    0  0.00000000000E+00  0.00000000000E+00  0.10000000000E+04  0.10000000000E+04  0.00000000000E+00 0. -1.
          2   -1    0    0  501    0 -0.00000000000E+00 -0.00000000000E+00 -0.11500465009E+03  0.11500465009E+03  0.00000000000E+00 0. -1.
    9000006    2    1    2  501    0  0.00000000000E+00  0.00000000000E+00  0.88499534991E+03  0.11150046501E+04  0.67824671054E+03 0.  0.
         13    1    3    3    0    0 -0.12115765493E+03 -0.25330567336E+03  0.12988005420E+03  0.30937318886E+03  0.00000000000E+00 0. -1.
          4    1    3    3  501    0  0.12115765493E+03  0.25330567336E+03  0.75511529571E+03  0.80563146123E+03  0.00000000000E+00 0. -1.
<mgrwt>
<rscale>  0 0.67824671E+03</rscale>
<asrwt>0</asrwt>
<pdfrwt beam="1">0</pdfrwt>
<pdfrwt beam="2">  1        2 0.41819961E+00 0.67824671E+03</pdfrwt>
<totfact> 0.33912501E+00</totfact>
</mgrwt>
</event>
<event>
 5    1  0.2311484E-004  0.7534992E+03  0.7818608E-02  0.9629877E-01
         13   -1    0    0    0    0  0.00000000000E+00  0.00000000000E+00  0.10000000000E+04  0.10000000000E+04  0.00000000000E+00 0. -1.
          2   -1    0    0  501    0 -0.00000000000E+00 -0.00000000000E+00 -0.14194024334E+03  0.14194024334E+03  0.00000000000E+00 0. -1.
    9000006    2    1    2  501    0  0.00000000000E+00  0.00000000000E+00  0.85805975666E+03  0.11419402433E+04  0.75349915286E+03 0.  0.
         13    1    3    3    0    0  0.18462660115E+03  0.32507057397E+03  0.49982871754E+03  0.62416873263E+03  0.00000000000E+00 0. -1.
          4    1    3    3  501    0 -0.18462660115E+03 -0.32507057397E+03  0.35823103912E+03  0.51777151071E+03  0.00000000000E+00 0. -1.
<mgrwt>
<rscale>  0 0.75349915E+03</rscale>
<asrwt>0</asrwt>
<pdfrwt beam="1">0</pdfrwt>
<pdfrwt beam="2">  1        2 0.51614743E+00 0.75349915E+03</pdfrwt>
<totfact> 0.13538283E+00</totfact>
</mgrwt>
</event>
<event>
 5    1  0.2311484E-004  0.6493624E+03  0.7818608E-02  0.9807976E-01
         13   -1    0    0    0    0  0.00000000000E+00  0.00000000000E+00  0.10000000000E+04  0.10000000000E+04  0.00000000000E+00 0. -1.
          2   -1    0    0  501    0 -0.00000000000E+00 -0.00000000000E+00 -0.10541788362E+03  0.10541788362E+03  0.00000000000E+00 0. -1.
    9000006    2    1    2  501    0  0.00000000000E+00  0.00000000000E+00  0.89458211638E+03  0.11054178836E+04  0.64936240613E+03 0.  0.
         13    1    3    3    0    0  0.22383761159E+03  0.25302105818E+02  0.84533534938E+03  0.87483445624E+03  0.00000000000E+00 0. -1.
          2    1    3    3  501    0 -0.22383761159E+03 -0.25302105818E+02  0.49246767000E+02  0.23058342738E+03  0.00000000000E+00 0. -1.
<mgrwt>
<rscale>  0 0.64936241E+03</rscale>
<asrwt>0</asrwt>
<pdfrwt beam="1">0</pdfrwt>
<pdfrwt beam="2">  1        2 0.38333857E+00 0.64936241E+03</pdfrwt>
<totfact> 0.45948962E+00</totfact>
</mgrwt>
</event>
<event>
 5    1  0.2311484E-004  0.6522597E+03  0.7818608E-02  0.9802548E-01
         13   -1    0    0    0    0  0.00000000000E+00  0.00000000000E+00  0.10000000000E+04  0.10000000000E+04  0.00000000000E+00 0. -1.
          2   -1    0    0  501    0 -0.00000000000E+00 -0.00000000000E+00 -0.10636068334E+03  0.10636068334E+03  0.00000000000E+00 0. -1.
    9000006    2    1    2  501    0  0.00000000000E+00  0.00000000000E+00  0.89363931666E+03  0.11063606833E+04  0.65225971311E+03 0.  0.
         13    1    3    3    0    0 -0.22515761554E+03 -0.23533942434E+03  0.47520685728E+03  0.57610949800E+03  0.00000000000E+00 0. -1.
          4    1    3    3  501    0  0.22515761554E+03  0.23533942434E+03  0.41843245938E+03  0.53025118533E+03  0.00000000000E+00 0. -1.
<mgrwt>
<rscale>  0 0.65225971E+03</rscale>
<asrwt>0</asrwt>
<pdfrwt beam="1">0</pdfrwt>
<pdfrwt beam="2">  1        2 0.38676694E+00 0.65225971E+03</pdfrwt>
<totfact> 0.44614643E+00</totfact>
</mgrwt>
</event>
<event>
 5    1  0.2311484E-004  0.6494560E+03  0.7818608E-02  0.9807800E-01
         13   -1    0    0    0    0  0.00000000000E+00  0.00000000000E+00  0.10000000000E+04  0.10000000000E+04  0.00000000000E+00 0. -1.
          2   -1    0    0  501    0 -0.00000000000E+00 -0.00000000000E+00 -0.10544827760E+03  0.10544827760E+03  0.00000000000E+00 0. -1.
    9000006    2    1    2  501    0  0.00000000000E+00  0.00000000000E+00  0.89455172240E+03  0.11054482776E+04  0.64945601115E+03 0.  0.
         13    1    3    3    0    0 -0.16257217942E+03  0.83690068410E+02  0.90404712245E+03  0.92235293716E+03  0.00000000000E+00 0. -1.
          4    1    3    3  501    0  0.16257217942E+03 -0.83690068410E+02 -0.94954000539E+01  0.18309534045E+03  0.00000000000E+00 0. -1.
<mgrwt>
<rscale>  0 0.64945601E+03</rscale>
<asrwt>0</asrwt>
<pdfrwt beam="1">0</pdfrwt>
<pdfrwt beam="2">  1        2 0.38344909E+00 0.64945601E+03</pdfrwt>
<totfact> 0.45905388E+00</totfact>
</mgrwt>
</event>
<event>
 5    1  0.2311484E-004  0.6420810E+03  0.7818608E-02  0.9821753E-01
         13   -1    0    0    0    0  0.00000000000E+00  0.00000000000E+00  0.10000000000E+04  0.10000000000E+04  0.00000000000E+00 0. -1.
          2   -1    0    0  501    0 -0.00000000000E+00 -0.00000000000E+00 -0.10306701489E+03  0.10306701489E+03  0.00000000000E+00 0. -1.
    9000006    2    1    2  501    0  0.00000000000E+00  0.00000000000E+00  0.89693298511E+03  0.11030670149E+04  0.64208103816E+03 0.  0.
         13    1    3    3    0    0 -0.19254376137E+03  0.20501212666E+03  0.18252188403E+03  0.33528690739E+03  0.00000000000E+00 0. -1.
          2    1    3    3  501    0  0.19254376137E+03 -0.20501212666E+03  0.71441110108E+03  0.76778010749E+03  0.00000000000E+00 0. -1.
<mgrwt>
<rscale>  0 0.64208104E+03</rscale>
<asrwt>0</asrwt>
<pdfrwt beam="1">0</pdfrwt>
<pdfrwt beam="2">  1        2 0.37478994E+00 0.64208104E+03</pdfrwt>
<totfact> 0.49435585E+00</totfact>
</mgrwt>
</event>
<event>
 5    1  0.2311484E-004  0.6464625E+03  0.7818608E-02  0.9813440E-01
         13   -1    0    0    0    0  0.00000000000E+00  0.00000000000E+00  0.10000000000E+04  0.10000000000E+04  0.00000000000E+00 0. -1.
          2   -1    0    0  501    0 -0.00000000000E+00 -0.00000000000E+00 -0.10447844007E+03  0.10447844007E+03  0.00000000000E+00 0. -1.
    9000006    2    1    2  501    0  0.00000000000E+00  0.00000000000E+00  0.89552155993E+03  0.11044784401E+04  0.64646249719E+03 0.  0.
         13    1    3    3    0    0 -0.95066060375E+01  0.20561645559E+03  0.87354979610E+03  0.89747297933E+03  0.00000000000E+00 0. -1.
          4    1    3    3  501    0  0.95066060375E+01 -0.20561645559E+03  0.21971763836E+02  0.20700546074E+03  0.00000000000E+00 0. -1.
<mgrwt>
<rscale>  0 0.64646250E+03</rscale>
<asrwt>0</asrwt>
<pdfrwt beam="1">0</pdfrwt>
<pdfrwt beam="2">  1        2 0.37992240E+00 0.64646250E+03</pdfrwt>
<totfact> 0.47314465E+00</totfact>
</mgrwt>
</event>
<event>
 5    1  0.2311484E-004  0.6488662E+03  0.7818608E-02  0.9808909E-01
         13   -1    0    0    0    0  0.00000000000E+00  0.00000000000E+00  0.10000000000E+04  0.10000000000E+04  0.00000000000E+00 0. -1.
          2   -1    0    0  501    0 -0.00000000000E+00 -0.00000000000E+00 -0.10525682168E+03  0.10525682168E+03  0.00000000000E+00 0. -1.
    9000006    2    1    2  501    0  0.00000000000E+00  0.00000000000E+00  0.89474317832E+03  0.11052568217E+04  0.64886615469E+03 0.  0.
         13    1    3    3    0    0 -0.31590079648E+02 -0.13556588325E+03 -0.51807141222E+02  0.14852616508E+03  0.00000000000E+00 0. -1.
          4    1    3    3  501    0  0.31590079648E+02  0.13556588325E+03  0.94655031955E+03  0.95673065659E+03  0.00000000000E+00 0. -1.
<mgrwt>
<rscale>  0 0.64886615E+03</rscale>
<asrwt>0</asrwt>
<pdfrwt beam="1">0</pdfrwt>
<pdfrwt beam="2">  1        2 0.38275289E+00 0.64886615E+03</pdfrwt>
<totfact> 0.46180495E+00</totfact>
</mgrwt>
</event>
<event>
 5    1  0.2311484E-004  0.6503264E+03  0.7818608E-02  0.9806167E-01
         13   -1    0    0    0    0  0.00000000000E+00  0.00000000000E+00  0.10000000000E+04  0.10000000000E+04  0.00000000000E+00 0. -1.
          2   -1    0    0  501    0 -0.00000000000E+00 -0.00000000000E+00 -0.10573109175E+03  0.10573109175E+03  0.00000000000E+00 0. -1.
    9000006    2    1    2  501    0  0.00000000000E+00  0.00000000000E+00  0.89426890825E+03  0.11057310918E+04  0.65032635424E+03 0.  0.
         13    1    3    3    0    0  0.27790516854E+03  0.93992715049E+02  0.68556786676E+03  0.74570048485E+03  0.00000000000E+00 0. -1.
          4    1    3    3  501    0 -0.27790516854E+03 -0.93992715049E+02  0.20870104149E+03  0.36003060690E+03  0.00000000000E+00 0. -1.
<mgrwt>
<rscale>  0 0.65032635E+03</rscale>
<asrwt>0</asrwt>
<pdfrwt beam="1">0</pdfrwt>
<pdfrwt beam="2">  1        2 0.38447751E+00 0.65032635E+03</pdfrwt>
<totfact> 0.45501727E+00</totfact>
</mgrwt>
</event>
<event>
 5    1  0.2311484E-004  0.6575106E+03  0.7818608E-02  0.9792787E-01
         13   -1    0    0    0    0  0.00000000000E+00  0.00000000000E+00  0.10000000000E+04  0.10000000000E+04  0.00000000000E+00 0. -1.
          2   -1    0    0  501    0 -0.00000000000E+00 -0.00000000000E+00 -0.10808006200E+03  0.10808006200E+03  0.00000000000E+00 0. -1.
    9000006    2    1    2  501    0  0.00000000000E+00  0.00000000000E+00  0.89191993800E+03  0.11080800620E+04  0.65751064479E+03 0.  0.
         13    1    3    3    0    0  0.11497348676E+02 -0.26510031758E+03  0.11887212669E+03  0.29075926454E+03  0.00000000000E+00 0. -1.
          2    1    3    3  501    0 -0.11497348676E+02  0.26510031758E+03  0.77304781130E+03  0.81732079747E+03  0.00000000000E+00 0. -1.
<mgrwt>
<rscale>  0 0.65751064E+03</rscale>
<asrwt>0</asrwt>
<pdfrwt beam="1">0</pdfrwt>
<pdfrwt beam="2">  1        2 0.39301924E+00 0.65751064E+03</pdfrwt>
<totfact> 0.42271214E+00</totfact>
</mgrwt>
</event>
<event>
 5    1  0.2311484E-004  0.6385124E+03  0.7818608E-02  0.9828577E-01
         13   -1    0    0    0    0  0.00000000000E+00  0.00000000000E+00  0.10000000000E+04  0.10000000000E+04  0.00000000000E+00 0. -1.
          2   -1    0    0  501    0 -0.00000000000E+00 -0.00000000000E+00 -0.10192451512E+03  0.10192451512E+03  0.00000000000E+00 0. -1.
    9000006    2    1    2  501    0  0.00000000000E+00  0.00000000000E+00  0.89807548488E+03  0.11019245151E+04  0.63851238084E+03 0.  0.
         13    1    3    3    0    0  0.28030390408E+03 -0.15101363944E+03  0.40859737990E+03  0.51800310501E+03  0.00000000000E+00 0. -1.
          2    1    3    3  501    0 -0.28030390408E+03  0.15101363944E+03  0.48947810498E+03  0.58392141012E+03  0.00000000000E+00 0. -1.
<mgrwt>
<rscale>  0 0.63851238E+03</rscale>
<asrwt>0</asrwt>
<pdfrwt beam="1">0</pdfrwt>
<pdfrwt beam="2">  1        2 0.37063538E+00 0.63851238E+03</pdfrwt>
<totfact> 0.51215909E+00</totfact>
</mgrwt>
</event>
<event>
 5    1  0.2311484E-004  0.6364405E+03  0.7818608E-02  0.9832561E-01
         13   -1    0    0    0    0  0.00000000000E+00  0.00000000000E+00  0.10000000000E+04  0.10000000000E+04  0.00000000000E+00 0. -1.
          2   -1    0    0  501    0 -0.00000000000E+00 -0.00000000000E+00 -0.10126412357E+03  0.10126412357E+03  0.00000000000E+00 0. -1.
    9000006    2    1    2  501    0  0.00000000000E+00  0.00000000000E+00  0.89873587643E+03  0.11012641236E+04  0.63644048760E+03 0.  0.
         13    1    3    3    0    0  0.20925857671E+03  0.23855968805E+03  0.40826543491E+03  0.51708852437E+03  0.00000000000E+00 0. -1.
          2    1    3    3  501    0 -0.20925857671E+03 -0.23855968805E+03  0.49047044152E+03  0.58417559920E+03  0.00000000000E+00 0. -1.
<mgrwt>
<rscale>  0 0.63644049E+03</rscale>
<asrwt>0</asrwt>
<pdfrwt beam="1">0</pdfrwt>
<pdfrwt beam="2">  1        2 0.36823395E+00 0.63644049E+03</pdfrwt>
<totfact> 0.52271566E+00</totfact>
</mgrwt>
</event>
<event>
 5    1  0.2311484E-004  0.6335593E+03  0.7818608E-02  0.9838128E-01
         13   -1    0    0    0    0  0.00000000000E+00  0.00000000000E+00  0.10000000000E+04  0.10000000000E+04  0.00000000000E+00 0. -1.
          2   -1    0    0  501    0 -0.00000000000E+00 -0.00000000000E+00 -0.10034935925E+03  0.10034935925E+03  0.00000000000E+00 0. -1.
    9000006    2    1    2  501    0  0.00000000000E+00  0.00000000000E+00  0.89965064075E+03  0.11003493593E+04  0.63355933977E+03 0.  0.
         13    1    3    3    0    0  0.16179744974E+01  0.21323797550E+03  0.42973993505E+02  0.21753118433E+03  0.00000000000E+00 0. -1.
          4    1    3    3  501    0 -0.16179744974E+01 -0.21323797550E+03  0.85667664724E+03  0.88281817492E+03  0.00000000000E+00 0. -1.
<mgrwt>
<rscale>  0 0.63355934E+03</rscale>
<asrwt>0</asrwt>
<pdfrwt beam="1">0</pdfrwt>
<pdfrwt beam="2">  1        2 0.36490753E+00 0.63355934E+03</pdfrwt>
<totfact> 0.53766859E+00</totfact>
</mgrwt>
</event>
<event>
 5    1  0.2311484E-004  0.6443685E+03  0.7818608E-02  0.9817404E-01
         13   -1    0    0    0    0  0.00000000000E+00  0.00000000000E+00  0.10000000000E+04  0.10000000000E+04  0.00000000000E+00 0. -1.
          2   -1    0    0  501    0 -0.00000000000E+00 -0.00000000000E+00 -0.10380269433E+03  0.10380269433E+03  0.00000000000E+00 0. -1.
    9000006    2    1    2  501    0  0.00000000000E+00  0.00000000000E+00  0.89619730567E+03  0.11038026943E+04  0.64436851049E+03 0.  0.
         13    1    3    3    0    0  0.30224482057E+03  0.39605164065E+02  0.26940243203E+03  0.40681466415E+03  0.00000000000E+00 0. -1.
          4    1    3    3  501    0 -0.30224482057E+03 -0.39605164065E+02  0.62679487364E+03  0.69698803018E+03  0.00000000000E+00 0. -1.
<mgrwt>
<rscale>  0 0.64436851E+03</rscale>
<asrwt>0</asrwt>
<pdfrwt beam="1">0</pdfrwt>
<pdfrwt beam="2">  1        2 0.37746514E+00 0.64436851E+03</pdfrwt>
<totfact> 0.48319397E+00</totfact>
</mgrwt>
</event>
<event>
 5    1  0.2311484E-004  0.6469710E+03  0.7818608E-02  0.9812480E-01
         13   -1    0    0    0    0  0.00000000000E+00  0.00000000000E+00  0.10000000000E+04  0.10000000000E+04  0.00000000000E+00 0. -1.
          2   -1    0    0  501    0 -0.00000000000E+00 -0.00000000000E+00 -0.10464287419E+03  0.10464287419E+03  0.00000000000E+00 0. -1.
    9000006    2    1    2  501    0  0.00000000000E+00  0.00000000000E+00  0.89535712581E+03  0.11046428742E+04  0.64697101695E+03 0.  0.
         13    1    3    3    0    0  0.31397248260E+03 -0.74821289045E+02  0.41082351565E+03  0.52244895075E+03  0.00000000000E+00 0. -1.
          4    1    3    3  501    0 -0.31397248260E+03  0.74821289045E+02  0.48453361016E+03  0.58219392345E+03  0.00000000000E+00 0. -1.
<mgrwt>
<rscale>  0 0.64697102E+03</rscale>
<asrwt>0</asrwt>
<pdfrwt beam="1">0</pdfrwt>
<pdfrwt beam="2">  1        2 0.38052034E+00 0.64697102E+03</pdfrwt>
<totfact> 0.47072825E+00</totfact>
</mgrwt>
</event>
<event>
 5    1  0.2311484E-004  0.6461527E+03  0.7818608E-02  0.9814025E-01
         13   -1    0    0    0    0  0.00000000000E+00  0.00000000000E+00  0.10000000000E+04  0.10000000000E+04  0.00000000000E+00 0. -1.
          2   -1    0    0  501    0 -0.00000000000E+00 -0.00000000000E+00 -0.10437834093E+03  0.10437834093E+03  0.00000000000E+00 0. -1.
    9000006    2    1    2  501    0  0.00000000000E+00  0.00000000000E+00  0.89562165907E+03  0.11043783409E+04  0.64615274025E+03 0.  0.
         13    1    3    3    0    0  0.91798695987E+02  0.11474357721E+03 -0.43955938658E+02  0.15337931294E+03  0.00000000000E+00 0. -1.
          4    1    3    3  501    0 -0.91798695987E+02 -0.11474357721E+03  0.93957759772E+03  0.95099902799E+03  0.00000000000E+00 0. -1.
<mgrwt>
<rscale>  0 0.64615274E+03</rscale>
<asrwt>0</asrwt>
<pdfrwt beam="1">0</pdfrwt>
<pdfrwt beam="2">  1        2 0.37955840E+00 0.64615274E+03</pdfrwt>
<totfact> 0.47462116E+00</totfact>
</mgrwt>
</event>
<event>
 5    1  0.2311484E-004  0.6293803E+03  0.7818608E-02  0.9846259E-01
         13   -1    0    0    0    0  0.00000000000E+00  0.00000000000E+00  0.10000000000E+04  0.10000000000E+04  0.00000000000E+00 0. -1.
          2   -1    0    0  501    0 -0.00000000000E+00 -0.00000000000E+00 -0.99029890242E+02  0.99029890242E+02  0.00000000000E+00 0. -1.
    9000006    2    1    2  501    0  0.00000000000E+00  0.00000000000E+00  0.90097010976E+03  0.10990298902E+04  0.62938029916E+03 0.  0.
         13    1    3    3    0    0  0.13809384757E+03 -0.26724736299E+03  0.61184489456E+03  0.68179559896E+03  0.00000000000E+00 0. -1.
          4    1    3    3  501    0 -0.13809384757E+03  0.26724736299E+03  0.28912521520E+03  0.41723429129E+03  0.00000000000E+00 0. -1.
<mgrwt>
<rscale>  0 0.62938030E+03</rscale>
<asrwt>0</asrwt>
<pdfrwt beam="1">0</pdfrwt>
<pdfrwt beam="2">  1        2 0.36010945E+00 0.62938030E+03</pdfrwt>
<totfact> 0.55993134E+00</totfact>
</mgrwt>
</event>
<event>
 5    1  0.2311484E-004  0.6546517E+03  0.7818608E-02  0.9798090E-01
         13   -1    0    0    0    0  0.00000000000E+00  0.00000000000E+00  0.10000000000E+04  0.10000000000E+04  0.00000000000E+00 0. -1.
          2   -1    0    0  501    0 -0.00000000000E+00 -0.00000000000E+00 -0.10714221876E+03  0.10714221876E+03  0.00000000000E+00 0. -1.
    9000006    2    1    2  501    0  0.00000000000E+00  0.00000000000E+00  0.89285778124E+03  0.11071422188E+04  0.65465172042E+03 0.  0.
         13    1    3    3    0    0  0.29964542575E+03  0.10808729775E+03  0.57379685296E+03  0.65628734071E+03  0.00000000000E+00 0. -1.
          4    1    3    3  501    0 -0.29964542575E+03 -0.10808729775E+03  0.31906092828E+03  0.45085487805E+03  0.00000000000E+00 0. -1.
<mgrwt>
<rscale>  0 0.65465172E+03</rscale>
<asrwt>0</asrwt>
<pdfrwt beam="1">0</pdfrwt>
<pdfrwt beam="2">  1        2 0.38960889E+00 0.65465172E+03</pdfrwt>
<totfact> 0.43535272E+00</totfact>
</mgrwt>
</event>
<event>
 5    1  0.2311484E-004  0.5047486E+03  0.7818608E-02  0.1012547E+00
         13   -1    0    0    0    0  0.00000000000E+00  0.00000000000E+00  0.10000000000E+04  0.10000000000E+04  0.00000000000E+00 0. -1.
          2   -1    0    0  501    0 -0.00000000000E+00 -0.00000000000E+00 -0.63692797555E+02  0.63692797555E+02  0.00000000000E+00 0. -1.
    9000006    2    1    2  501    0  0.00000000000E+00  0.00000000000E+00  0.93630720245E+03  0.10636927976E+04  0.50474864063E+03 0.  0.
         13    1    3    3    0    0 -0.31185279512E+01 -0.51089871922E+01  0.99985039813E+03  0.99986831413E+03  0.00000000000E+00 0. -1.
          4    1    3    3  501    0  0.31185279512E+01  0.51089871922E+01 -0.63543195683E+02  0.63824483423E+02  0.00000000000E+00 0. -1.
<mgrwt>
<rscale>  0 0.50474864E+03</rscale>
<asrwt>0</asrwt>
<pdfrwt beam="1">0</pdfrwt>
<pdfrwt beam="2">  1        2 0.23161066E+00 0.50474864E+03</pdfrwt>
<totfact> 0.16243993E+01</totfact>
</mgrwt>
</event>
<event>
 5    1  0.2311484E-004  0.6466713E+03  0.7818608E-02  0.9813045E-01
         13   -1    0    0    0    0  0.00000000000E+00  0.00000000000E+00  0.10000000000E+04  0.10000000000E+04  0.00000000000E+00 0. -1.
          2   -1    0    0  501    0 -0.00000000000E+00 -0.00000000000E+00 -0.10454595109E+03  0.10454595109E+03  0.00000000000E+00 0. -1.
    9000006    2    1    2  501    0  0.00000000000E+00  0.00000000000E+00  0.89545404891E+03  0.11045459511E+04  0.64667132636E+03 0.  0.
         13    1    3    3    0    0 -0.21218105053E+03  0.43854757464E+02  0.37788590834E+02  0.21993638979E+03  0.00000000000E+00 0. -1.
          2    1    3    3  501    0  0.21218105053E+03 -0.43854757464E+02  0.85766545808E+03  0.88460956130E+03  0.00000000000E+00 0. -1.
<mgrwt>
<rscale>  0 0.64667133E+03</rscale>
<asrwt>0</asrwt>
<pdfrwt beam="1">0</pdfrwt>
<pdfrwt beam="2">  1        2 0.38016790E+00 0.64667133E+03</pdfrwt>
<totfact> 0.47215120E+00</totfact>
</mgrwt>
</event>
<event>
 5    1  0.2311484E-004  0.6540349E+03  0.7818608E-02  0.9799237E-01
         13   -1    0    0    0    0  0.00000000000E+00  0.00000000000E+00  0.10000000000E+04  0.10000000000E+04  0.00000000000E+00 0. -1.
          2   -1    0    0  501    0 -0.00000000000E+00 -0.00000000000E+00 -0.10694042224E+03  0.10694042224E+03  0.00000000000E+00 0. -1.
    9000006    2    1    2  501    0  0.00000000000E+00  0.00000000000E+00  0.89305957776E+03  0.11069404222E+04  0.65403492948E+03 0.  0.
         13    1    3    3    0    0  0.25794954873E+03 -0.18499704028E+03  0.57956496961E+03  0.66080059670E+03  0.00000000000E+00 0. -1.
          4    1    3    3  501    0 -0.25794954873E+03  0.18499704028E+03  0.31349460814E+03  0.44613982554E+03  0.00000000000E+00 0. -1.
<mgrwt>
<rscale>  0 0.65403493E+03</rscale>
<asrwt>0</asrwt>
<pdfrwt beam="1">0</pdfrwt>
<pdfrwt beam="2">  1        2 0.38887508E+00 0.65403493E+03</pdfrwt>
<totfact> 0.43811685E+00</totfact>
</mgrwt>
</event>
<event>
 5    1  0.2311484E-004  0.6976852E+03  0.7818608E-02  0.9721199E-01
         13   -1    0    0    0    0  0.00000000000E+00  0.00000000000E+00  0.10000000000E+04  0.10000000000E+04  0.00000000000E+00 0. -1.
          2   -1    0    0  501    0 -0.00000000000E+00 -0.00000000000E+00 -0.12169114976E+03  0.12169114976E+03  0.00000000000E+00 0. -1.
    9000006    2    1    2  501    0  0.00000000000E+00  0.00000000000E+00  0.87830885024E+03  0.11216911498E+04  0.69768517186E+03 0.  0.
         13    1    3    3    0    0 -0.21522907556E+03 -0.17957778603E+03  0.77300353545E+03  0.82225677377E+03  0.00000000000E+00 0. -1.
          2    1    3    3  501    0  0.21522907556E+03  0.17957778603E+03  0.10530531480E+03  0.29943437599E+03  0.00000000000E+00 0. -1.
<mgrwt>
<rscale>  0 0.69768517E+03</rscale>
<asrwt>0</asrwt>
<pdfrwt beam="1">0</pdfrwt>
<pdfrwt beam="2">  1        2 0.44251420E+00 0.69768517E+03</pdfrwt>
<totfact> 0.27270067E+00</totfact>
</mgrwt>
</event>
<event>
 5    1  0.2311484E-004  0.6590043E+03  0.7818608E-02  0.9790028E-01
         13   -1    0    0    0    0  0.00000000000E+00  0.00000000000E+00  0.10000000000E+04  0.10000000000E+04  0.00000000000E+00 0. -1.
          2   -1    0    0  501    0 -0.00000000000E+00 -0.00000000000E+00 -0.10857167708E+03  0.10857167708E+03  0.00000000000E+00 0. -1.
    9000006    2    1    2  501    0  0.00000000000E+00  0.00000000000E+00  0.89142832292E+03  0.11085716771E+04  0.65900433103E+03 0.  0.
         13    1    3    3    0    0  0.21270951669E+03  0.17861996719E+03  0.14752818798E+03  0.31450754747E+03  0.00000000000E+00 0. -1.
          4    1    3    3  501    0 -0.21270951669E+03 -0.17861996719E+03  0.74390013494E+03  0.79406412961E+03  0.00000000000E+00 0. -1.
<mgrwt>
<rscale>  0 0.65900433E+03</rscale>
<asrwt>0</asrwt>
<pdfrwt beam="1">0</pdfrwt>
<pdfrwt beam="2">  1        2 0.39480693E+00 0.65900433E+03</pdfrwt>
<totfact> 0.41621945E+00</totfact>
</mgrwt>
</event>
<event>
 5    1  0.2311484E-004  0.6517595E+03  0.7818608E-02  0.9803483E-01
         13   -1    0    0    0    0  0.00000000000E+00  0.00000000000E+00  0.10000000000E+04  0.10000000000E+04  0.00000000000E+00 0. -1.
          2   -1    0    0  501    0 -0.00000000000E+00 -0.00000000000E+00 -0.10619760644E+03  0.10619760644E+03  0.00000000000E+00 0. -1.
    9000006    2    1    2  501    0  0.00000000000E+00  0.00000000000E+00  0.89380239356E+03  0.11061976064E+04  0.65175948460E+03 0.  0.
         13    1    3    3    0    0  0.22660527774E+03 -0.22969163894E+03  0.36931995526E+03  0.49041352984E+03  0.00000000000E+00 0. -1.
          4    1    3    3  501    0 -0.22660527774E+03  0.22969163894E+03  0.52448243830E+03  0.61578407660E+03  0.00000000000E+00 0. -1.
<mgrwt>
<rscale>  0 0.65175948E+03</rscale>
<asrwt>0</asrwt>
<pdfrwt beam="1">0</pdfrwt>
<pdfrwt beam="2">  1        2 0.38617393E+00 0.65175948E+03</pdfrwt>
<totfact> 0.44842899E+00</totfact>
</mgrwt>
</event>
<event>
 5    1  0.2311484E-004  0.6646687E+03  0.7818608E-02  0.9779637E-01
         13   -1    0    0    0    0  0.00000000000E+00  0.00000000000E+00  0.10000000000E+04  0.10000000000E+04  0.00000000000E+00 0. -1.
          2   -1    0    0  501    0 -0.00000000000E+00 -0.00000000000E+00 -0.11044611575E+03  0.11044611575E+03  0.00000000000E+00 0. -1.
    9000006    2    1    2  501    0  0.00000000000E+00  0.00000000000E+00  0.88955388425E+03  0.11104461157E+04  0.66466868663E+03 0.  0.
         13    1    3    3    0    0  0.22413608872E+03  0.21165052774E+03  0.23736276120E+03  0.38906813358E+03  0.00000000000E+00 0. -1.
          4    1    3    3  501    0 -0.22413608872E+03 -0.21165052774E+03  0.65219112306E+03  0.72137798217E+03  0.00000000000E+00 0. -1.
<mgrwt>
<rscale>  0 0.66466869E+03</rscale>
<asrwt>0</asrwt>
<pdfrwt beam="1">0</pdfrwt>
<pdfrwt beam="2">  1        2 0.40162309E+00 0.66466869E+03</pdfrwt>
<totfact> 0.39228031E+00</totfact>
</mgrwt>
</event>
<event>
 5    1  0.2311484E-004  0.6455430E+03  0.7818608E-02  0.9815179E-01
         13   -1    0    0    0    0  0.00000000000E+00  0.00000000000E+00  0.10000000000E+04  0.10000000000E+04  0.00000000000E+00 0. -1.
          2   -1    0    0  501    0 -0.00000000000E+00 -0.00000000000E+00 -0.10418143369E+03  0.10418143369E+03  0.00000000000E+00 0. -1.
    9000006    2    1    2  501    0  0.00000000000E+00  0.00000000000E+00  0.89581856631E+03  0.11041814337E+04  0.64554297670E+03 0.  0.
         13    1    3    3    0    0 -0.54813472547E+02 -0.19764892107E+03  0.87419659923E+03  0.89793613742E+03  0.00000000000E+00 0. -1.
          4    1    3    3  501    0  0.54813472547E+02  0.19764892107E+03  0.21621967075E+02  0.20624529627E+03  0.00000000000E+00 0. -1.
<mgrwt>
<rscale>  0 0.64554298E+03</rscale>
<asrwt>0</asrwt>
<pdfrwt beam="1">0</pdfrwt>
<pdfrwt beam="2">  1        2 0.37884238E+00 0.64554298E+03</pdfrwt>
<totfact> 0.47753788E+00</totfact>
</mgrwt>
</event>
<event>
 5    1  0.2311484E-004  0.6462871E+03  0.7818608E-02  0.9813771E-01
         13   -1    0    0    0    0  0.00000000000E+00  0.00000000000E+00  0.10000000000E+04  0.10000000000E+04  0.00000000000E+00 0. -1.
          2   -1    0    0  501    0 -0.00000000000E+00 -0.00000000000E+00 -0.10442176061E+03  0.10442176061E+03  0.00000000000E+00 0. -1.
    9000006    2    1    2  501    0  0.00000000000E+00  0.00000000000E+00  0.89557823939E+03  0.11044217606E+04  0.64628712075E+03 0.  0.
         13    1    3    3    0    0 -0.29833690451E+03 -0.60229649453E+02  0.26224278360E+03  0.40175091390E+03  0.00000000000E+00 0. -1.
          4    1    3    3  501    0  0.29833690451E+03  0.60229649453E+02  0.63333545579E+03  0.70267084672E+03  0.00000000000E+00 0. -1.
<mgrwt>
<rscale>  0 0.64628712E+03</rscale>
<asrwt>0</asrwt>
<pdfrwt beam="1">0</pdfrwt>
<pdfrwt beam="2">  1        2 0.37971629E+00 0.64628712E+03</pdfrwt>
<totfact> 0.47398018E+00</totfact>
</mgrwt>
</event>
<event>
 5    1  0.2311484E-004  0.6517235E+03  0.7818608E-02  0.9803551E-01
         13   -1    0    0    0    0  0.00000000000E+00  0.00000000000E+00  0.10000000000E+04  0.10000000000E+04  0.00000000000E+00 0. -1.
          2   -1    0    0  501    0 -0.00000000000E+00 -0.00000000000E+00 -0.10618588154E+03  0.10618588154E+03  0.00000000000E+00 0. -1.
    9000006    2    1    2  501    0  0.00000000000E+00  0.00000000000E+00  0.89381411846E+03  0.11061858815E+04  0.65172350439E+03 0.  0.
         13    1    3    3    0    0  0.23002507758E+03 -0.17032437315E+03  0.18251676609E+03  0.33946177739E+03  0.00000000000E+00 0. -1.
          4    1    3    3  501    0 -0.23002507758E+03  0.17032437315E+03  0.71129735237E+03  0.76672410416E+03  0.00000000000E+00 0. -1.
<mgrwt>
<rscale>  0 0.65172350E+03</rscale>
<asrwt>0</asrwt>
<pdfrwt beam="1">0</pdfrwt>
<pdfrwt beam="2">  1        2 0.38613129E+00 0.65172350E+03</pdfrwt>
<totfact> 0.44859351E+00</totfact>
</mgrwt>
</event>
<event>
 5    1  0.2311484E-004  0.6519218E+03  0.7818608E-02  0.9803180E-01
         13   -1    0    0    0    0  0.00000000000E+00  0.00000000000E+00  0.10000000000E+04  0.10000000000E+04  0.00000000000E+00 0. -1.
          2   -1    0    0  501    0 -0.00000000000E+00 -0.00000000000E+00 -0.10625050134E+03  0.10625050134E+03  0.00000000000E+00 0. -1.
    9000006    2    1    2  501    0  0.00000000000E+00  0.00000000000E+00  0.89374949866E+03  0.11062505013E+04  0.65192177857E+03 0.  0.
         13    1    3    3    0    0 -0.23910930928E+02 -0.74814192918E+01 -0.10461421078E+03  0.10757247487E+03  0.00000000000E+00 0. -1.
          4    1    3    3  501    0  0.23910930928E+02  0.74814192918E+01  0.99836370943E+03  0.99867802648E+03  0.00000000000E+00 0. -1.
<mgrwt>
<rscale>  0 0.65192178E+03</rscale>
<asrwt>0</asrwt>
<pdfrwt beam="1">0</pdfrwt>
<pdfrwt beam="2">  1        2 0.38636627E+00 0.65192178E+03</pdfrwt>
<totfact> 0.44768747E+00</totfact>
</mgrwt>
</event>
<event>
 5    1  0.2311484E-004  0.6494322E+03  0.7818608E-02  0.9807845E-01
         13   -1    0    0    0    0  0.00000000000E+00  0.00000000000E+00  0.10000000000E+04  0.10000000000E+04  0.00000000000E+00 0. -1.
          2   -1    0    0  501    0 -0.00000000000E+00 -0.00000000000E+00 -0.10544055216E+03  0.10544055216E+03  0.00000000000E+00 0. -1.
    9000006    2    1    2  501    0  0.00000000000E+00  0.00000000000E+00  0.89455944784E+03  0.11054405522E+04  0.64943222021E+03 0.  0.
         13    1    3    3    0    0 -0.17542722489E+03 -0.17639789576E+03  0.92062707456E+02  0.26526679205E+03  0.00000000000E+00 0. -1.
          4    1    3    3  501    0  0.17542722489E+03  0.17639789576E+03  0.80249674038E+03  0.84017376011E+03  0.00000000000E+00 0. -1.
<mgrwt>
<rscale>  0 0.64943222E+03</rscale>
<asrwt>0</asrwt>
<pdfrwt beam="1">0</pdfrwt>
<pdfrwt beam="2">  1        2 0.38342100E+00 0.64943222E+03</pdfrwt>
<totfact> 0.45916460E+00</totfact>
</mgrwt>
</event>
<event>
 5    1  0.2311484E-004  0.6629878E+03  0.7818608E-02  0.9782709E-01
         13   -1    0    0    0    0  0.00000000000E+00  0.00000000000E+00  0.10000000000E+04  0.10000000000E+04  0.00000000000E+00 0. -1.
          2   -1    0    0  501    0 -0.00000000000E+00 -0.00000000000E+00 -0.10988821173E+03  0.10988821173E+03  0.00000000000E+00 0. -1.
    9000006    2    1    2  501    0  0.00000000000E+00  0.00000000000E+00  0.89011178827E+03  0.11098882117E+04  0.66298781807E+03 0.  0.
         13    1    3    3    0    0 -0.93484065047E+02  0.24874875555E+03  0.11329841881E+03  0.28888015770E+03  0.00000000000E+00 0. -1.
          2    1    3    3  501    0  0.93484065047E+02 -0.24874875555E+03  0.77681336946E+03  0.82100805403E+03  0.00000000000E+00 0. -1.
<mgrwt>
<rscale>  0 0.66298782E+03</rscale>
<asrwt>0</asrwt>
<pdfrwt beam="1">0</pdfrwt>
<pdfrwt beam="2">  1        2 0.39959434E+00 0.66298782E+03</pdfrwt>
<totfact> 0.39927273E+00</totfact>
</mgrwt>
</event>
<event>
 5    1  0.2311484E-004  0.6449160E+03  0.7818608E-02  0.9816366E-01
         13   -1    0    0    0    0  0.00000000000E+00  0.00000000000E+00  0.10000000000E+04  0.10000000000E+04  0.00000000000E+00 0. -1.
          2   -1    0    0  501    0 -0.00000000000E+00 -0.00000000000E+00 -0.10397914747E+03  0.10397914747E+03  0.00000000000E+00 0. -1.
    9000006    2    1    2  501    0  0.00000000000E+00  0.00000000000E+00  0.89602085253E+03  0.11039791475E+04  0.64491595567E+03 0.  0.
         13    1    3    3    0    0  0.23481919132E+03  0.49539349375E+02  0.79333223111E+02  0.25276067740E+03  0.00000000000E+00 0. -1.
          4    1    3    3  501    0 -0.23481919132E+03 -0.49539349375E+02  0.81668762942E+03  0.85121847007E+03  0.00000000000E+00 0. -1.
<mgrwt>
<rscale>  0 0.64491596E+03</rscale>
<asrwt>0</asrwt>
<pdfrwt beam="1">0</pdfrwt>
<pdfrwt beam="2">  1        2 0.37810679E+00 0.64491596E+03</pdfrwt>
<totfact> 0.48055126E+00</totfact>
</mgrwt>
</event>
<event>
 5    1  0.2311484E-004  0.6485150E+03  0.7818608E-02  0.9809570E-01
         13   -1    0    0    0    0  0.00000000000E+00  0.00000000000E+00  0.10000000000E+04  0.10000000000E+04  0.00000000000E+00 0. -1.
          2   -1    0    0  501    0 -0.00000000000E+00 -0.00000000000E+00 -0.10514292078E+03  0.10514292078E+03  0.00000000000E+00 0. -1.
    9000006    2    1    2  501    0  0.00000000000E+00  0.00000000000E+00  0.89485707922E+03  0.11051429208E+04  0.64851498297E+03 0.  0.
         13    1    3    3    0    0 -0.23877871121E+03 -0.23149657199E+02  0.81918988320E+03  0.85359430896E+03  0.00000000000E+00 0. -1.
          2    1    3    3  501    0  0.23877871121E+03  0.23149657199E+02  0.75667196021E+02  0.25154861183E+03  0.00000000000E+00 0. -1.
<mgrwt>
<rscale>  0 0.64851498E+03</rscale>
<asrwt>0</asrwt>
<pdfrwt beam="1">0</pdfrwt>
<pdfrwt beam="2">  1        2 0.38233870E+00 0.64851498E+03</pdfrwt>
<totfact> 0.46344872E+00</totfact>
</mgrwt>
</event>
<event>
 5    1  0.2311484E-004  0.6567587E+03  0.7818608E-02  0.9794179E-01
         13   -1    0    0    0    0  0.00000000000E+00  0.00000000000E+00  0.10000000000E+04  0.10000000000E+04  0.00000000000E+00 0. -1.
          2   -1    0    0  501    0 -0.00000000000E+00 -0.00000000000E+00 -0.10783298470E+03  0.10783298470E+03  0.00000000000E+00 0. -1.
    9000006    2    1    2  501    0  0.00000000000E+00  0.00000000000E+00  0.89216701530E+03  0.11078329847E+04  0.65675866100E+03 0.  0.
         13    1    3    3    0    0  0.49011849900E+02  0.38068228891E+02  0.99001825144E+03  0.99196143558E+03  0.00000000000E+00 0. -1.
          4    1    3    3  501    0 -0.49011849900E+02 -0.38068228891E+02 -0.97851236141E+02  0.11587154912E+03  0.00000000000E+00 0. -1.
<mgrwt>
<rscale>  0 0.65675866E+03</rscale>
<asrwt>0</asrwt>
<pdfrwt beam="1">0</pdfrwt>
<pdfrwt beam="2">  1        2 0.39212077E+00 0.65675866E+03</pdfrwt>
<totfact> 0.42600977E+00</totfact>
</mgrwt>
</event>
<event>
 5    1  0.2311484E-004  0.6469545E+03  0.7818608E-02  0.9812511E-01
         13   -1    0    0    0    0  0.00000000000E+00  0.00000000000E+00  0.10000000000E+04  0.10000000000E+04  0.00000000000E+00 0. -1.
          2   -1    0    0  501    0 -0.00000000000E+00 -0.00000000000E+00 -0.10463754478E+03  0.10463754478E+03  0.00000000000E+00 0. -1.
    9000006    2    1    2  501    0  0.00000000000E+00  0.00000000000E+00  0.89536245522E+03  0.11046375448E+04  0.64695454176E+03 0.  0.
         13    1    3    3    0    0 -0.28210291015E+03 -0.10272697858E+03  0.65330336904E+03  0.71898551866E+03  0.00000000000E+00 0. -1.
          2    1    3    3  501    0  0.28210291015E+03  0.10272697858E+03  0.24205908619E+03  0.38565202612E+03  0.00000000000E+00 0. -1.
<mgrwt>
<rscale>  0 0.64695454E+03</rscale>
<asrwt>0</asrwt>
<pdfrwt beam="1">0</pdfrwt>
<pdfrwt beam="2">  1        2 0.38050097E+00 0.64695454E+03</pdfrwt>
<totfact> 0.47080639E+00</totfact>
</mgrwt>
</event>
<event>
 5    1  0.2311484E-004  0.6549611E+03  0.7818608E-02  0.9797514E-01
         13   -1    0    0    0    0  0.00000000000E+00  0.00000000000E+00  0.10000000000E+04  0.10000000000E+04  0.00000000000E+00 0. -1.
          2   -1    0    0  501    0 -0.00000000000E+00 -0.00000000000E+00 -0.10724350969E+03  0.10724350969E+03  0.00000000000E+00 0. -1.
    9000006    2    1    2  501    0  0.00000000000E+00  0.00000000000E+00  0.89275649031E+03  0.11072435097E+04  0.65496109712E+03 0.  0.
         13    1    3    3    0    0  0.22114047023E+03  0.64682298034E+02  0.52961044621E+02  0.23641442321E+03  0.00000000000E+00 0. -1.
          4    1    3    3  501    0 -0.22114047023E+03 -0.64682298034E+02  0.83979544569E+03  0.87082908648E+03  0.00000000000E+00 0. -1.
<mgrwt>
<rscale>  0 0.65496110E+03</rscale>
<asrwt>0</asrwt>
<pdfrwt beam="1">0</pdfrwt>
<pdfrwt beam="2">  1        2 0.38997722E+00 0.65496110E+03</pdfrwt>
<totfact> 0.43397123E+00</totfact>
</mgrwt>
</event>
<event>
 5    1  0.2311484E-004  0.6447417E+03  0.7818608E-02  0.9816696E-01
         13   -1    0    0    0    0  0.00000000000E+00  0.00000000000E+00  0.10000000000E+04  0.10000000000E+04  0.00000000000E+00 0. -1.
          2   -1    0    0  501    0 -0.00000000000E+00 -0.00000000000E+00 -0.10392295941E+03  0.10392295941E+03  0.00000000000E+00 0. -1.
    9000006    2    1    2  501    0  0.00000000000E+00  0.00000000000E+00  0.89607704059E+03  0.11039229594E+04  0.64474168289E+03 0.  0.
         13    1    3    3    0    0  0.13704963955E+03  0.11427496026E+03  0.90772866590E+03  0.92510145451E+03  0.00000000000E+00 0. -1.
          2    1    3    3  501    0 -0.13704963955E+03 -0.11427496026E+03 -0.11651625312E+02  0.17882150490E+03  0.00000000000E+00 0. -1.
<mgrwt>
<rscale>  0 0.64474168E+03</rscale>
<asrwt>0</asrwt>
<pdfrwt beam="1">0</pdfrwt>
<pdfrwt beam="2">  1        2 0.37790247E+00 0.64474168E+03</pdfrwt>
<totfact> 0.48139135E+00</totfact>
</mgrwt>
</event>
<event>
 5    1  0.2311484E-004  0.6886606E+03  0.7818608E-02  0.9736823E-01
         13   -1    0    0    0    0  0.00000000000E+00  0.00000000000E+00  0.10000000000E+04  0.10000000000E+04  0.00000000000E+00 0. -1.
          2   -1    0    0  501    0 -0.00000000000E+00 -0.00000000000E+00 -0.11856335557E+03  0.11856335557E+03  0.00000000000E+00 0. -1.
    9000006    2    1    2  501    0  0.00000000000E+00  0.00000000000E+00  0.88143664443E+03  0.11185633556E+04  0.68866060020E+03 0.  0.
         13    1    3    3    0    0  0.32138486610E+03  0.12189711423E+03  0.40758116607E+03  0.53316934041E+03  0.00000000000E+00 0. -1.
          4    1    3    3  501    0 -0.32138486610E+03 -0.12189711423E+03  0.47385547836E+03  0.58539401516E+03  0.00000000000E+00 0. -1.
<mgrwt>
<rscale>  0 0.68866060E+03</rscale>
<asrwt>0</asrwt>
<pdfrwt beam="1">0</pdfrwt>
<pdfrwt beam="2">  1        2 0.43114038E+00 0.68866060E+03</pdfrwt>
<totfact> 0.30218569E+00</totfact>
</mgrwt>
</event>
<event>
 5    1  0.2311484E-004  0.6342833E+03  0.7818608E-02  0.9836726E-01
         13   -1    0    0    0    0  0.00000000000E+00  0.00000000000E+00  0.10000000000E+04  0.10000000000E+04  0.00000000000E+00 0. -1.
          2   -1    0    0  501    0 -0.00000000000E+00 -0.00000000000E+00 -0.10057881428E+03  0.10057881428E+03  0.00000000000E+00 0. -1.
    9000006    2    1    2  501    0  0.00000000000E+00  0.00000000000E+00  0.89942118572E+03  0.11005788143E+04  0.63428326252E+03 0.  0.
         13    1    3    3    0    0 -0.14454276202E+03 -0.27365623753E+03  0.32951482027E+03  0.45206234434E+03  0.00000000000E+00 0. -1.
          2    1    3    3  501    0  0.14454276202E+03  0.27365623753E+03  0.56990636545E+03  0.64851646993E+03  0.00000000000E+00 0. -1.
<mgrwt>
<rscale>  0 0.63428326E+03</rscale>
<asrwt>0</asrwt>
<pdfrwt beam="1">0</pdfrwt>
<pdfrwt beam="2">  1        2 0.36574191E+00 0.63428326E+03</pdfrwt>
<totfact> 0.53388137E+00</totfact>
</mgrwt>
</event>
<event>
 5    1  0.2311484E-004  0.6497696E+03  0.7818608E-02  0.9807212E-01
         13   -1    0    0    0    0  0.00000000000E+00  0.00000000000E+00  0.10000000000E+04  0.10000000000E+04  0.00000000000E+00 0. -1.
          2   -1    0    0  501    0 -0.00000000000E+00 -0.00000000000E+00 -0.10555014516E+03  0.10555014516E+03  0.00000000000E+00 0. -1.
    9000006    2    1    2  501    0  0.00000000000E+00  0.00000000000E+00  0.89444985484E+03  0.11055501452E+04  0.64976963658E+03 0.  0.
         13    1    3    3    0    0 -0.35648397870E+02  0.27663013400E+03  0.16376577983E+03  0.32344129290E+03  0.00000000000E+00 0. -1.
          2    1    3    3  501    0  0.35648397870E+02 -0.27663013400E+03  0.73068407501E+03  0.78210885226E+03  0.00000000000E+00 0. -1.
<mgrwt>
<rscale>  0 0.64976964E+03</rscale>
<asrwt>0</asrwt>
<pdfrwt beam="1">0</pdfrwt>
<pdfrwt beam="2">  1        2 0.38381952E+00 0.64976964E+03</pdfrwt>
<totfact> 0.45759619E+00</totfact>
</mgrwt>
</event>
<event>
 5    1  0.2311484E-004  0.6213886E+03  0.7818608E-02  0.9861999E-01
         13   -1    0    0    0    0  0.00000000000E+00  0.00000000000E+00  0.10000000000E+04  0.10000000000E+04  0.00000000000E+00 0. -1.
          2   -1    0    0  501    0 -0.00000000000E+00 -0.00000000000E+00 -0.96530937929E+02  0.96530937929E+02  0.00000000000E+00 0. -1.
    9000006    2    1    2  501    0  0.00000000000E+00  0.00000000000E+00  0.90346906207E+03  0.10965309379E+04  0.62138856742E+03 0.  0.
         13    1    3    3    0    0 -0.19930269521E+03  0.22369933227E+03  0.59690799501E+03  0.66787881392E+03  0.00000000000E+00 0. -1.
          2    1    3    3  501    0  0.19930269521E+03 -0.22369933227E+03  0.30656106706E+03  0.42865212400E+03  0.00000000000E+00 0. -1.
<mgrwt>
<rscale>  0 0.62138857E+03</rscale>
<asrwt>0</asrwt>
<pdfrwt beam="1">0</pdfrwt>
<pdfrwt beam="2">  1        2 0.35102233E+00 0.62138857E+03</pdfrwt>
<totfact> 0.60445109E+00</totfact>
</mgrwt>
</event>
<event>
 5    1  0.2311484E-004  0.6537197E+03  0.7818608E-02  0.9799824E-01
         13   -1    0    0    0    0  0.00000000000E+00  0.00000000000E+00  0.10000000000E+04  0.10000000000E+04  0.00000000000E+00 0. -1.
          2   -1    0    0  501    0 -0.00000000000E+00 -0.00000000000E+00 -0.10683735041E+03  0.10683735041E+03  0.00000000000E+00 0. -1.
    9000006    2    1    2  501    0  0.00000000000E+00  0.00000000000E+00  0.89316264959E+03  0.11068373504E+04  0.65371966593E+03 0.  0.
         13    1    3    3    0    0  0.18171551471E+03  0.27161535446E+03  0.45754383049E+03  0.56226487164E+03  0.00000000000E+00 0. -1.
          2    1    3    3  501    0 -0.18171551471E+03 -0.27161535446E+03  0.43561881911E+03  0.54457247876E+03  0.00000000000E+00 0. -1.
<mgrwt>
<rscale>  0 0.65371967E+03</rscale>
<asrwt>0</asrwt>
<pdfrwt beam="1">0</pdfrwt>
<pdfrwt beam="2">  1        2 0.38850028E+00 0.65371967E+03</pdfrwt>
<totfact> 0.43953480E+00</totfact>
</mgrwt>
</event>
<event>
 5    1  0.2311484E-004  0.6615870E+03  0.7818608E-02  0.9785277E-01
         13   -1    0    0    0    0  0.00000000000E+00  0.00000000000E+00  0.10000000000E+04  0.10000000000E+04  0.00000000000E+00 0. -1.
          2   -1    0    0  501    0 -0.00000000000E+00 -0.00000000000E+00 -0.10942433199E+03  0.10942433199E+03  0.00000000000E+00 0. -1.
    9000006    2    1    2  501    0  0.00000000000E+00  0.00000000000E+00  0.89057566801E+03  0.11094243320E+04  0.66158697688E+03 0.  0.
         13    1    3    3    0    0 -0.11701829437E+03  0.19577520096E+03  0.84705874844E+03  0.87722843880E+03  0.00000000000E+00 0. -1.
          2    1    3    3  501    0  0.11701829437E+03 -0.19577520096E+03  0.43516919567E+02  0.23219589320E+03  0.00000000000E+00 0. -1.
<mgrwt>
<rscale>  0 0.66158698E+03</rscale>
<asrwt>0</asrwt>
<pdfrwt beam="1">0</pdfrwt>
<pdfrwt beam="2">  1        2 0.39790750E+00 0.66158698E+03</pdfrwt>
<totfact> 0.40517172E+00</totfact>
</mgrwt>
</event>
<event>
 5    1  0.2311484E-004  0.6468583E+03  0.7818608E-02  0.9812692E-01
         13   -1    0    0    0    0  0.00000000000E+00  0.00000000000E+00  0.10000000000E+04  0.10000000000E+04  0.00000000000E+00 0. -1.
          2   -1    0    0  501    0 -0.00000000000E+00 -0.00000000000E+00 -0.10460640371E+03  0.10460640371E+03  0.00000000000E+00 0. -1.
    9000006    2    1    2  501    0  0.00000000000E+00  0.00000000000E+00  0.89539359629E+03  0.11046064037E+04  0.64685826488E+03 0.  0.
         13    1    3    3    0    0 -0.30721028022E+03  0.68094638947E+02  0.32000663337E+03  0.44879759527E+03  0.00000000000E+00 0. -1.
          4    1    3    3  501    0  0.30721028022E+03 -0.68094638947E+02  0.57538696292E+03  0.65580880844E+03  0.00000000000E+00 0. -1.
<mgrwt>
<rscale>  0 0.64685826E+03</rscale>
<asrwt>0</asrwt>
<pdfrwt beam="1">0</pdfrwt>
<pdfrwt beam="2">  1        2 0.38038772E+00 0.64685826E+03</pdfrwt>
<totfact> 0.47126322E+00</totfact>
</mgrwt>
</event>
<event>
 5    1  0.2311484E-004  0.6529810E+03  0.7818608E-02  0.9801202E-01
         13   -1    0    0    0    0  0.00000000000E+00  0.00000000000E+00  0.10000000000E+04  0.10000000000E+04  0.00000000000E+00 0. -1.
          2   -1    0    0  501    0 -0.00000000000E+00 -0.00000000000E+00 -0.10659603600E+03  0.10659603600E+03  0.00000000000E+00 0. -1.
    9000006    2    1    2  501    0  0.00000000000E+00  0.00000000000E+00  0.89340396400E+03  0.11065960360E+04  0.65298096756E+03 0.  0.
         13    1    3    3    0    0  0.19375585148E+03 -0.24941663620E+03  0.30648243995E+03  0.44009257480E+03  0.00000000000E+00 0. -1.
          2    1    3    3  501    0 -0.19375585148E+03  0.24941663620E+03  0.58692152405E+03  0.66650346120E+03  0.00000000000E+00 0. -1.
<mgrwt>
<rscale>  0 0.65298097E+03</rscale>
<asrwt>0</asrwt>
<pdfrwt beam="1">0</pdfrwt>
<pdfrwt beam="2">  1        2 0.38762277E+00 0.65298097E+03</pdfrwt>
<totfact> 0.44287079E+00</totfact>
</mgrwt>
</event>
<event>
 5    1  0.2311484E-004  0.6606912E+03  0.7818608E-02  0.9786922E-01
         13   -1    0    0    0    0  0.00000000000E+00  0.00000000000E+00  0.10000000000E+04  0.10000000000E+04  0.00000000000E+00 0. -1.
          2   -1    0    0  501    0 -0.00000000000E+00 -0.00000000000E+00 -0.10912821682E+03  0.10912821682E+03  0.00000000000E+00 0. -1.
    9000006    2    1    2  501    0  0.00000000000E+00  0.00000000000E+00  0.89087178318E+03  0.11091282168E+04  0.66069120417E+03 0.  0.
         13    1    3    3    0    0  0.95465156982E+02  0.39807617743E+02 -0.81244214866E+02  0.13152514998E+03  0.00000000000E+00 0. -1.
          4    1    3    3  501    0 -0.95465156982E+02 -0.39807617743E+02  0.97211599805E+03  0.97760306684E+03  0.00000000000E+00 0. -1.
<mgrwt>
<rscale>  0 0.66069120E+03</rscale>
<asrwt>0</asrwt>
<pdfrwt beam="1">0</pdfrwt>
<pdfrwt beam="2">  1        2 0.39683072E+00 0.66069120E+03</pdfrwt>
<totfact> 0.40897816E+00</totfact>
</mgrwt>
</event>
<event>
 5    1  0.2311484E-004  0.6602383E+03  0.7818608E-02  0.9787755E-01
         13   -1    0    0    0    0  0.00000000000E+00  0.00000000000E+00  0.10000000000E+04  0.10000000000E+04  0.00000000000E+00 0. -1.
          2   -1    0    0  501    0 -0.00000000000E+00 -0.00000000000E+00 -0.10897863980E+03  0.10897863980E+03  0.00000000000E+00 0. -1.
    9000006    2    1    2  501    0  0.00000000000E+00  0.00000000000E+00  0.89102136020E+03  0.11089786398E+04  0.66023825941E+03 0.  0.
         13    1    3    3    0    0 -0.16863317426E+03  0.25713444386E+03  0.24378747119E+03  0.39241253903E+03  0.00000000000E+00 0. -1.
          4    1    3    3  501    0  0.16863317426E+03 -0.25713444386E+03  0.64723388902E+03  0.71656610077E+03  0.00000000000E+00 0. -1.
<mgrwt>
<rscale>  0 0.66023826E+03</rscale>
<asrwt>0</asrwt>
<pdfrwt beam="1">0</pdfrwt>
<pdfrwt beam="2">  1        2 0.39628680E+00 0.66023826E+03</pdfrwt>
<totfact> 0.41091311E+00</totfact>
</mgrwt>
</event>
<event>
 5    1  0.2311484E-004  0.6488550E+03  0.7818608E-02  0.9808930E-01
         13   -1    0    0    0    0  0.00000000000E+00  0.00000000000E+00  0.10000000000E+04  0.10000000000E+04  0.00000000000E+00 0. -1.
          2   -1    0    0  501    0 -0.00000000000E+00 -0.00000000000E+00 -0.10525318732E+03  0.10525318732E+03  0.00000000000E+00 0. -1.
    9000006    2    1    2  501    0  0.00000000000E+00  0.00000000000E+00  0.89474681268E+03  0.11052531873E+04  0.64885495241E+03 0.  0.
         13    1    3    3    0    0 -0.31060984854E+03 -0.78304372155E+02  0.53494712527E+03  0.62352103376E+03  0.00000000000E+00 0. -1.
          2    1    3    3  501    0  0.31060984854E+03  0.78304372155E+02  0.35979968741E+03  0.48173215356E+03  0.00000000000E+00 0. -1.
<mgrwt>
<rscale>  0 0.64885495E+03</rscale>
<asrwt>0</asrwt>
<pdfrwt beam="1">0</pdfrwt>
<pdfrwt beam="2">  1        2 0.38273967E+00 0.64885495E+03</pdfrwt>
<totfact> 0.46185732E+00</totfact>
</mgrwt>
</event>
<event>
 5    1  0.2311484E-004  0.6558707E+03  0.7818608E-02  0.9795825E-01
         13   -1    0    0    0    0  0.00000000000E+00  0.00000000000E+00  0.10000000000E+04  0.10000000000E+04  0.00000000000E+00 0. -1.
          2   -1    0    0  501    0 -0.00000000000E+00 -0.00000000000E+00 -0.10754160022E+03  0.10754160022E+03  0.00000000000E+00 0. -1.
    9000006    2    1    2  501    0  0.00000000000E+00  0.00000000000E+00  0.89245839978E+03  0.11075416002E+04  0.65587071963E+03 0.  0.
         13    1    3    3    0    0 -0.20298197856E+03  0.17473803995E+03  0.76576751938E+03  0.81125517562E+03  0.00000000000E+00 0. -1.
          2    1    3    3  501    0  0.20298197856E+03 -0.17473803995E+03  0.12669088040E+03  0.29628642460E+03  0.00000000000E+00 0. -1.
<mgrwt>
<rscale>  0 0.65587072E+03</rscale>
<asrwt>0</asrwt>
<pdfrwt beam="1">0</pdfrwt>
<pdfrwt beam="2">  1        2 0.39106119E+00 0.65587072E+03</pdfrwt>
<totfact> 0.42992857E+00</totfact>
</mgrwt>
</event>
<event>
 5    1  0.2311484E-004  0.6923628E+03  0.7818608E-02  0.9730383E-01
         13   -1    0    0    0    0  0.00000000000E+00  0.00000000000E+00  0.10000000000E+04  0.10000000000E+04  0.00000000000E+00 0. -1.
          2   -1    0    0  501    0 -0.00000000000E+00 -0.00000000000E+00 -0.11984156027E+03  0.11984156027E+03  0.00000000000E+00 0. -1.
    9000006    2    1    2  501    0  0.00000000000E+00  0.00000000000E+00  0.88015843973E+03  0.11198415603E+04  0.69236279584E+03 0.  0.
         13    1    3    3    0    0  0.88614708759E+02  0.15975742337E+03  0.91568480639E+03  0.93373104563E+03  0.00000000000E+00 0. -1.
          2    1    3    3  501    0 -0.88614708759E+02 -0.15975742337E+03 -0.35526366654E+02  0.18611051464E+03  0.00000000000E+00 0. -1.
<mgrwt>
<rscale>  0 0.69236280E+03</rscale>
<asrwt>0</asrwt>
<pdfrwt beam="1">0</pdfrwt>
<pdfrwt beam="2">  1        2 0.43578841E+00 0.69236280E+03</pdfrwt>
<totfact> 0.28981406E+00</totfact>
</mgrwt>
</event>
<event>
 5    1  0.2311484E-004  0.6678691E+03  0.7818608E-02  0.9773815E-01
         13   -1    0    0    0    0  0.00000000000E+00  0.00000000000E+00  0.10000000000E+04  0.10000000000E+04  0.00000000000E+00 0. -1.
          2   -1    0    0  501    0 -0.00000000000E+00 -0.00000000000E+00 -0.11151227726E+03  0.11151227726E+03  0.00000000000E+00 0. -1.
    9000006    2    1    2  501    0  0.00000000000E+00  0.00000000000E+00  0.88848772274E+03  0.11115122773E+04  0.66786908077E+03 0.  0.
         13    1    3    3    0    0  0.75298559686E+02 -0.17318529626E+02 -0.96431474104E+02  0.12356712248E+03  0.00000000000E+00 0. -1.
          2    1    3    3  501    0 -0.75298559686E+02  0.17318529626E+02  0.98491919684E+03  0.98794515479E+03  0.00000000000E+00 0. -1.
<mgrwt>
<rscale>  0 0.66786908E+03</rscale>
<asrwt>0</asrwt>
<pdfrwt beam="1">0</pdfrwt>
<pdfrwt beam="2">  1        2 0.40550005E+00 0.66786908E+03</pdfrwt>
<totfact> 0.37922236E+00</totfact>
</mgrwt>
</event>
<event>
 5    1  0.2311484E-004  0.6448896E+03  0.7818608E-02  0.9816416E-01
         13   -1    0    0    0    0  0.00000000000E+00  0.00000000000E+00  0.10000000000E+04  0.10000000000E+04  0.00000000000E+00 0. -1.
          2   -1    0    0  501    0 -0.00000000000E+00 -0.00000000000E+00 -0.10397065176E+03  0.10397065176E+03  0.00000000000E+00 0. -1.
    9000006    2    1    2  501    0  0.00000000000E+00  0.00000000000E+00  0.89602934824E+03  0.11039706518E+04  0.64488960841E+03 0.  0.
         13    1    3    3    0    0  0.18538930259E+03  0.92488594485E+02  0.25048687752E+02  0.20868821333E+03  0.00000000000E+00 0. -1.
          2    1    3    3  501    0 -0.18538930259E+03 -0.92488594485E+02  0.87098066049E+03  0.89528243843E+03  0.00000000000E+00 0. -1.
<mgrwt>
<rscale>  0 0.64488961E+03</rscale>
<asrwt>0</asrwt>
<pdfrwt beam="1">0</pdfrwt>
<pdfrwt beam="2">  1        2 0.37807589E+00 0.64488961E+03</pdfrwt>
<totfact> 0.48067820E+00</totfact>
</mgrwt>
</event>
<event>
 5    1  0.2311484E-004  0.6713361E+03  0.7818608E-02  0.9767547E-01
         13   -1    0    0    0    0  0.00000000000E+00  0.00000000000E+00  0.10000000000E+04  0.10000000000E+04  0.00000000000E+00 0. -1.
          2   -1    0    0  501    0 -0.00000000000E+00 -0.00000000000E+00 -0.11267302676E+03  0.11267302676E+03  0.00000000000E+00 0. -1.
    9000006    2    1    2  501    0  0.00000000000E+00  0.00000000000E+00  0.88732697324E+03  0.11126730268E+04  0.67133606117E+03 0.  0.
         13    1    3    3    0    0  0.14200043425E+03 -0.82222584081E+02  0.92899721094E+03  0.94337717515E+03  0.00000000000E+00 0. -1.
          4    1    3    3  501    0 -0.14200043425E+03  0.82222584081E+02 -0.41670237700E+02  0.16929585160E+03  0.00000000000E+00 0. -1.
<mgrwt>
<rscale>  0 0.67133606E+03</rscale>
<asrwt>0</asrwt>
<pdfrwt beam="1">0</pdfrwt>
<pdfrwt beam="2">  1        2 0.40972096E+00 0.67133606E+03</pdfrwt>
<totfact> 0.36544932E+00</totfact>
</mgrwt>
</event>
<event>
 5    1  0.2311484E-004  0.6526568E+03  0.7818608E-02  0.9801807E-01
         13   -1    0    0    0    0  0.00000000000E+00  0.00000000000E+00  0.10000000000E+04  0.10000000000E+04  0.00000000000E+00 0. -1.
          2   -1    0    0  501    0 -0.00000000000E+00 -0.00000000000E+00 -0.10649021100E+03  0.10649021100E+03  0.00000000000E+00 0. -1.
    9000006    2    1    2  501    0  0.00000000000E+00  0.00000000000E+00  0.89350978900E+03  0.11064902110E+04  0.65265675817E+03 0.  0.
         13    1    3    3    0    0  0.18152356118E+03 -0.26766806072E+03  0.37298775639E+03  0.49367687855E+03  0.00000000000E+00 0. -1.
          2    1    3    3  501    0 -0.18152356118E+03  0.26766806072E+03  0.52052203261E+03  0.61281333245E+03  0.00000000000E+00 0. -1.
<mgrwt>
<rscale>  0 0.65265676E+03</rscale>
<asrwt>0</asrwt>
<pdfrwt beam="1">0</pdfrwt>
<pdfrwt beam="2">  1        2 0.38723795E+00 0.65265676E+03</pdfrwt>
<totfact> 0.44434096E+00</totfact>
</mgrwt>
</event>
<event>
 5    1  0.2311484E-004  0.6499524E+03  0.7818608E-02  0.9806868E-01
         13   -1    0    0    0    0  0.00000000000E+00  0.00000000000E+00  0.10000000000E+04  0.10000000000E+04  0.00000000000E+00 0. -1.
          2   -1    0    0  501    0 -0.00000000000E+00 -0.00000000000E+00 -0.10560953567E+03  0.10560953567E+03  0.00000000000E+00 0. -1.
    9000006    2    1    2  501    0  0.00000000000E+00  0.00000000000E+00  0.89439046433E+03  0.11056095357E+04  0.64995241570E+03 0.  0.
         13    1    3    3    0    0  0.63433105030E+02 -0.31354392826E+03  0.34983290169E+03  0.47404283864E+03  0.00000000000E+00 0. -1.
          4    1    3    3  501    0 -0.63433105030E+02  0.31354392826E+03  0.54455756265E+03  0.63156669703E+03  0.00000000000E+00 0. -1.
<mgrwt>
<rscale>  0 0.64995242E+03</rscale>
<asrwt>0</asrwt>
<pdfrwt beam="1">0</pdfrwt>
<pdfrwt beam="2">  1        2 0.38403548E+00 0.64995242E+03</pdfrwt>
<totfact> 0.45674827E+00</totfact>
</mgrwt>
</event>
<event>
 5    1  0.2311484E-004  0.6501765E+03  0.7818608E-02  0.9806448E-01
         13   -1    0    0    0    0  0.00000000000E+00  0.00000000000E+00  0.10000000000E+04  0.10000000000E+04  0.00000000000E+00 0. -1.
          2   -1    0    0  501    0 -0.00000000000E+00 -0.00000000000E+00 -0.10568235486E+03  0.10568235486E+03  0.00000000000E+00 0. -1.
    9000006    2    1    2  501    0  0.00000000000E+00  0.00000000000E+00  0.89431764514E+03  0.11056823549E+04  0.65017645253E+03 0.  0.
         13    1    3    3    0    0 -0.13200383459E+03  0.28981258666E+03  0.55823218793E+03  0.64268151006E+03  0.00000000000E+00 0. -1.
          4    1    3    3  501    0  0.13200383459E+03 -0.28981258666E+03  0.33608545721E+03  0.46300084479E+03  0.00000000000E+00 0. -1.
<mgrwt>
<rscale>  0 0.65017645E+03</rscale>
<asrwt>0</asrwt>
<pdfrwt beam="1">0</pdfrwt>
<pdfrwt beam="2">  1        2 0.38430028E+00 0.65017645E+03</pdfrwt>
<totfact> 0.45571058E+00</totfact>
</mgrwt>
</event>
<event>
 5    1  0.2311484E-004  0.6502648E+03  0.7818608E-02  0.9806282E-01
         13   -1    0    0    0    0  0.00000000000E+00  0.00000000000E+00  0.10000000000E+04  0.10000000000E+04  0.00000000000E+00 0. -1.
          2   -1    0    0  501    0 -0.00000000000E+00 -0.00000000000E+00 -0.10571107192E+03  0.10571107192E+03  0.00000000000E+00 0. -1.
    9000006    2    1    2  501    0  0.00000000000E+00  0.00000000000E+00  0.89428892808E+03  0.11057110719E+04  0.65026478274E+03 0.  0.
         13    1    3    3    0    0  0.23899789356E+03  0.14910907429E+03  0.17108410467E+03  0.32958046064E+03  0.00000000000E+00 0. -1.
          2    1    3    3  501    0 -0.23899789356E+03 -0.14910907429E+03  0.72320482341E+03  0.77613061128E+03  0.00000000000E+00 0. -1.
<mgrwt>
<rscale>  0 0.65026478E+03</rscale>
<asrwt>0</asrwt>
<pdfrwt beam="1">0</pdfrwt>
<pdfrwt beam="2">  1        2 0.38440471E+00 0.65026478E+03</pdfrwt>
<totfact> 0.45530195E+00</totfact>
</mgrwt>
</event>
<event>
 5    1  0.2311484E-004  0.6533189E+03  0.7818608E-02  0.9800571E-01
         13   -1    0    0    0    0  0.00000000000E+00  0.00000000000E+00  0.10000000000E+04  0.10000000000E+04  0.00000000000E+00 0. -1.
          2   -1    0    0  501    0 -0.00000000000E+00 -0.00000000000E+00 -0.10670639996E+03  0.10670639996E+03  0.00000000000E+00 0. -1.
    9000006    2    1    2  501    0  0.00000000000E+00  0.00000000000E+00  0.89329360004E+03  0.11067064000E+04  0.65331891127E+03 0.  0.
         13    1    3    3    0    0  0.39830851733E+02  0.31780358652E+03  0.55538874483E+03  0.64112578660E+03  0.00000000000E+00 0. -1.
          2    1    3    3  501    0 -0.39830851733E+02 -0.31780358652E+03  0.33790485521E+03  0.46558061336E+03  0.00000000000E+00 0. -1.
<mgrwt>
<rscale>  0 0.65331891E+03</rscale>
<asrwt>0</asrwt>
<pdfrwt beam="1">0</pdfrwt>
<pdfrwt beam="2">  1        2 0.38802409E+00 0.65331891E+03</pdfrwt>
<totfact> 0.44134226E+00</totfact>
</mgrwt>
</event>
<event>
 5    1  0.2311484E-004  0.6326209E+03  0.7818608E-02  0.9839948E-01
         13   -1    0    0    0    0  0.00000000000E+00  0.00000000000E+00  0.10000000000E+04  0.10000000000E+04  0.00000000000E+00 0. -1.
          2   -1    0    0  501    0 -0.00000000000E+00 -0.00000000000E+00 -0.10005230249E+03  0.10005230249E+03  0.00000000000E+00 0. -1.
    9000006    2    1    2  501    0  0.00000000000E+00  0.00000000000E+00  0.89994769751E+03  0.11000523025E+04  0.63262090542E+03 0.  0.
         13    1    3    3    0    0  0.17618361942E+02 -0.23239418774E+03  0.78101947392E+02  0.24579946981E+03  0.00000000000E+00 0. -1.
          2    1    3    3  501    0 -0.17618361942E+02  0.23239418774E+03  0.82184575011E+03  0.85425283269E+03  0.00000000000E+00 0. -1.
<mgrwt>
<rscale>  0 0.63262091E+03</rscale>
<asrwt>0</asrwt>
<pdfrwt beam="1">0</pdfrwt>
<pdfrwt beam="2">  1        2 0.36382732E+00 0.63262091E+03</pdfrwt>
<totfact> 0.54260830E+00</totfact>
</mgrwt>
</event>
<event>
 5    1  0.2311484E-004  0.6133226E+03  0.7818608E-02  0.9878145E-01
         13   -1    0    0    0    0  0.00000000000E+00  0.00000000000E+00  0.10000000000E+04  0.10000000000E+04  0.00000000000E+00 0. -1.
          2   -1    0    0  501    0 -0.00000000000E+00 -0.00000000000E+00 -0.94041161288E+02  0.94041161288E+02  0.00000000000E+00 0. -1.
    9000006    2    1    2  501    0  0.00000000000E+00  0.00000000000E+00  0.90595883871E+03  0.10940411613E+04  0.61332262729E+03 0.  0.
         13    1    3    3    0    0 -0.75787182685E+02 -0.11863789394E+03 -0.32993988508E+02  0.14459339617E+03  0.00000000000E+00 0. -1.
          4    1    3    3  501    0  0.75787182685E+02  0.11863789394E+03  0.93895282722E+03  0.94944776512E+03  0.00000000000E+00 0. -1.
<mgrwt>
<rscale>  0 0.61332263E+03</rscale>
<asrwt>0</asrwt>
<pdfrwt beam="1">0</pdfrwt>
<pdfrwt beam="2">  1        2 0.34196858E+00 0.61332263E+03</pdfrwt>
<totfact> 0.65206651E+00</totfact>
</mgrwt>
</event>
<event>
 5    1  0.2311484E-004  0.6629932E+03  0.7818608E-02  0.9782699E-01
         13   -1    0    0    0    0  0.00000000000E+00  0.00000000000E+00  0.10000000000E+04  0.10000000000E+04  0.00000000000E+00 0. -1.
          2   -1    0    0  501    0 -0.00000000000E+00 -0.00000000000E+00 -0.10989000311E+03  0.10989000311E+03  0.00000000000E+00 0. -1.
    9000006    2    1    2  501    0  0.00000000000E+00  0.00000000000E+00  0.89010999689E+03  0.11098900031E+04  0.66299322201E+03 0.  0.
         13    1    3    3    0    0 -0.19150091246E+03 -0.13252179942E+03  0.83998889757E+03  0.87167423664E+03  0.00000000000E+00 0. -1.
          2    1    3    3  501    0  0.19150091246E+03  0.13252179942E+03  0.50121099327E+02  0.23821576646E+03  0.00000000000E+00 0. -1.
<mgrwt>
<rscale>  0 0.66299322E+03</rscale>
<asrwt>0</asrwt>
<pdfrwt beam="1">0</pdfrwt>
<pdfrwt beam="2">  1        2 0.39960085E+00 0.66299322E+03</pdfrwt>
<totfact> 0.39925010E+00</totfact>
</mgrwt>
</event>
<event>
 5    1  0.2311484E-004  0.6506298E+03  0.7818608E-02  0.9805598E-01
         13   -1    0    0    0    0  0.00000000000E+00  0.00000000000E+00  0.10000000000E+04  0.10000000000E+04  0.00000000000E+00 0. -1.
          2   -1    0    0  501    0 -0.00000000000E+00 -0.00000000000E+00 -0.10582977499E+03  0.10582977499E+03  0.00000000000E+00 0. -1.
    9000006    2    1    2  501    0  0.00000000000E+00  0.00000000000E+00  0.89417022501E+03  0.11058297750E+04  0.65062977182E+03 0.  0.
         13    1    3    3    0    0  0.98708834676E+02 -0.29038565531E+03  0.26275156141E+03  0.40386340002E+03  0.00000000000E+00 0. -1.
          4    1    3    3  501    0 -0.98708834676E+02  0.29038565531E+03  0.63141866359E+03  0.70196637497E+03  0.00000000000E+00 0. -1.
<mgrwt>
<rscale>  0 0.65062977E+03</rscale>
<asrwt>0</asrwt>
<pdfrwt beam="1">0</pdfrwt>
<pdfrwt beam="2">  1        2 0.38483636E+00 0.65062977E+03</pdfrwt>
<totfact> 0.45361635E+00</totfact>
</mgrwt>
</event>
<event>
 5    1  0.2311484E-004  0.6611433E+03  0.7818608E-02  0.9786091E-01
         13   -1    0    0    0    0  0.00000000000E+00  0.00000000000E+00  0.10000000000E+04  0.10000000000E+04  0.00000000000E+00 0. -1.
          2   -1    0    0  501    0 -0.00000000000E+00 -0.00000000000E+00 -0.10927763093E+03  0.10927763093E+03  0.00000000000E+00 0. -1.
    9000006    2    1    2  501    0  0.00000000000E+00  0.00000000000E+00  0.89072236907E+03  0.11092776309E+04  0.66114334582E+03 0.  0.
         13    1    3    3    0    0 -0.26160244585E+03  0.36986622688E+02  0.11201231418E+03  0.28696795720E+03  0.00000000000E+00 0. -1.
          2    1    3    3  501    0  0.26160244585E+03 -0.36986622688E+02  0.77871005489E+03  0.82230967373E+03  0.00000000000E+00 0. -1.
<mgrwt>
<rscale>  0 0.66114335E+03</rscale>
<asrwt>0</asrwt>
<pdfrwt beam="1">0</pdfrwt>
<pdfrwt beam="2">  1        2 0.39737404E+00 0.66114335E+03</pdfrwt>
<totfact> 0.40705350E+00</totfact>
</mgrwt>
</event>
<event>
 5    1  0.2311484E-004  0.6439158E+03  0.7818608E-02  0.9818263E-01
         13   -1    0    0    0    0  0.00000000000E+00  0.00000000000E+00  0.10000000000E+04  0.10000000000E+04  0.00000000000E+00 0. -1.
          2   -1    0    0  501    0 -0.00000000000E+00 -0.00000000000E+00 -0.10365688046E+03  0.10365688046E+03  0.00000000000E+00 0. -1.
    9000006    2    1    2  501    0  0.00000000000E+00  0.00000000000E+00  0.89634311954E+03  0.11036568805E+04  0.64391577233E+03 0.  0.
         13    1    3    3    0    0  0.17138062618E+03 -0.10718403490E+03  0.18659899196E+02  0.20299736010E+03  0.00000000000E+00 0. -1.
          4    1    3    3  501    0 -0.17138062618E+03  0.10718403490E+03  0.87768322034E+03  0.90065952037E+03  0.00000000000E+00 0. -1.
<mgrwt>
<rscale>  0 0.64391577E+03</rscale>
<asrwt>0</asrwt>
<pdfrwt beam="1">0</pdfrwt>
<pdfrwt beam="2">  1        2 0.37693491E+00 0.64391577E+03</pdfrwt>
<totfact> 0.48538778E+00</totfact>
</mgrwt>
</event>
<event>
 5    1  0.2311484E-004  0.6149191E+03  0.7818608E-02  0.9874928E-01
         13   -1    0    0    0    0  0.00000000000E+00  0.00000000000E+00  0.10000000000E+04  0.10000000000E+04  0.00000000000E+00 0. -1.
          2   -1    0    0  501    0 -0.00000000000E+00 -0.00000000000E+00 -0.94531362976E+02  0.94531362976E+02  0.00000000000E+00 0. -1.
    9000006    2    1    2  501    0  0.00000000000E+00  0.00000000000E+00  0.90546863702E+03  0.10945313630E+04  0.61491906126E+03 0.  0.
         13    1    3    3    0    0 -0.19530476396E+03  0.17015014444E+03  0.15790318173E+03  0.30336189161E+03  0.00000000000E+00 0. -1.
          4    1    3    3  501    0  0.19530476396E+03 -0.17015014444E+03  0.74756545529E+03  0.79116947137E+03  0.00000000000E+00 0. -1.
<mgrwt>
<rscale>  0 0.61491906E+03</rscale>
<asrwt>0</asrwt>
<pdfrwt beam="1">0</pdfrwt>
<pdfrwt beam="2">  1        2 0.34375114E+00 0.61491906E+03</pdfrwt>
<totfact> 0.64242310E+00</totfact>
</mgrwt>
</event>
<event>
 5    1  0.2311484E-004  0.6425933E+03  0.7818608E-02  0.9820777E-01
         13   -1    0    0    0    0  0.00000000000E+00  0.00000000000E+00  0.10000000000E+04  0.10000000000E+04  0.00000000000E+00 0. -1.
          2   -1    0    0  501    0 -0.00000000000E+00 -0.00000000000E+00 -0.10323153809E+03  0.10323153809E+03  0.00000000000E+00 0. -1.
    9000006    2    1    2  501    0  0.00000000000E+00  0.00000000000E+00  0.89676846191E+03  0.11032315381E+04  0.64259330247E+03 0.  0.
         13    1    3    3    0    0 -0.24935725606E+03 -0.14942050135E+03  0.68332214458E+03  0.74258648024E+03  0.00000000000E+00 0. -1.
          2    1    3    3  501    0  0.24935725606E+03  0.14942050135E+03  0.21344631733E+03  0.36064505785E+03  0.00000000000E+00 0. -1.
<mgrwt>
<rscale>  0 0.64259330E+03</rscale>
<asrwt>0</asrwt>
<pdfrwt beam="1">0</pdfrwt>
<pdfrwt beam="2">  1        2 0.37538820E+00 0.64259330E+03</pdfrwt>
<totfact> 0.49183927E+00</totfact>
</mgrwt>
</event>
<event>
 5    1  0.2311484E-004  0.6492853E+03  0.7818608E-02  0.9808121E-01
         13   -1    0    0    0    0  0.00000000000E+00  0.00000000000E+00  0.10000000000E+04  0.10000000000E+04  0.00000000000E+00 0. -1.
          2   -1    0    0  501    0 -0.00000000000E+00 -0.00000000000E+00 -0.10539283932E+03  0.10539283932E+03  0.00000000000E+00 0. -1.
    9000006    2    1    2  501    0  0.00000000000E+00  0.00000000000E+00  0.89460716068E+03  0.11053928393E+04  0.64928526649E+03 0.  0.
         13    1    3    3    0    0 -0.25481117184E+02 -0.31564338422E+03  0.56903726157E+03  0.65121689044E+03  0.00000000000E+00 0. -1.
          4    1    3    3  501    0  0.25481117184E+02  0.31564338422E+03  0.32556989911E+03  0.45417594888E+03  0.00000000000E+00 0. -1.
<mgrwt>
<rscale>  0 0.64928527E+03</rscale>
<asrwt>0</asrwt>
<pdfrwt beam="1">0</pdfrwt>
<pdfrwt beam="2">  1        2 0.38324750E+00 0.64928527E+03</pdfrwt>
<totfact> 0.45984895E+00</totfact>
</mgrwt>
</event>
<event>
 5    1  0.2311484E-004  0.6538548E+03  0.7818608E-02  0.9799573E-01
         13   -1    0    0    0    0  0.00000000000E+00  0.00000000000E+00  0.10000000000E+04  0.10000000000E+04  0.00000000000E+00 0. -1.
          2   -1    0    0  501    0 -0.00000000000E+00 -0.00000000000E+00 -0.10688152810E+03  0.10688152810E+03  0.00000000000E+00 0. -1.
    9000006    2    1    2  501    0  0.00000000000E+00  0.00000000000E+00  0.89311847190E+03  0.11068815281E+04  0.65385480988E+03 0.  0.
         13    1    3    3    0    0 -0.12915696270E+03  0.20519825058E+03  0.75311473722E+02  0.25388907249E+03  0.00000000000E+00 0. -1.
          4    1    3    3  501    0  0.12915696270E+03 -0.20519825058E+03  0.81780699818E+03  0.85299245561E+03  0.00000000000E+00 0. -1.
<mgrwt>
<rscale>  0 0.65385481E+03</rscale>
<asrwt>0</asrwt>
<pdfrwt beam="1">0</pdfrwt>
<pdfrwt beam="2">  1        2 0.38866092E+00 0.65385481E+03</pdfrwt>
<totfact> 0.43892654E+00</totfact>
</mgrwt>
</event>
<event>
 5    1  0.2311484E-004  0.6519650E+03  0.7818608E-02  0.9803099E-01
         13   -1    0    0    0    0  0.00000000000E+00  0.00000000000E+00  0.10000000000E+04  0.10000000000E+04  0.00000000000E+00 0. -1.
          2   -1    0    0  501    0 -0.00000000000E+00 -0.00000000000E+00 -0.10626457717E+03  0.10626457717E+03  0.00000000000E+00 0. -1.
    9000006    2    1    2  501    0  0.00000000000E+00  0.00000000000E+00  0.89373542283E+03  0.11062645772E+04  0.65196495971E+03 0.  0.
         13    1    3    3    0    0  0.20599950156E+03  0.74717703591E+02  0.85638098276E+03  0.88397223798E+03  0.00000000000E+00 0. -1.
          4    1    3    3  501    0 -0.20599950156E+03 -0.74717703591E+02  0.37354440063E+02  0.22229233920E+03  0.00000000000E+00 0. -1.
<mgrwt>
<rscale>  0 0.65196496E+03</rscale>
<asrwt>0</asrwt>
<pdfrwt beam="1">0</pdfrwt>
<pdfrwt beam="2">  1        2 0.38641746E+00 0.65196496E+03</pdfrwt>
<totfact> 0.44749033E+00</totfact>
</mgrwt>
</event>
<event>
 5    1  0.2311484E-004  0.6422159E+03  0.7818608E-02  0.9821496E-01
         13   -1    0    0    0    0  0.00000000000E+00  0.00000000000E+00  0.10000000000E+04  0.10000000000E+04  0.00000000000E+00 0. -1.
          2   -1    0    0  501    0 -0.00000000000E+00 -0.00000000000E+00 -0.10311030730E+03  0.10311030730E+03  0.00000000000E+00 0. -1.
    9000006    2    1    2  501    0  0.00000000000E+00  0.00000000000E+00  0.89688969270E+03  0.11031103073E+04  0.64221587430E+03 0.  0.
         13    1    3    3    0    0  0.27562060675E+03  0.13241224524E+02  0.73051969045E+03  0.78089760342E+03  0.00000000000E+00 0. -1.
          2    1    3    3  501    0 -0.27562060675E+03 -0.13241224524E+02  0.16637000225E+03  0.32221270388E+03  0.00000000000E+00 0. -1.
<mgrwt>
<rscale>  0 0.64221587E+03</rscale>
<asrwt>0</asrwt>
<pdfrwt beam="1">0</pdfrwt>
<pdfrwt beam="2">  1        2 0.37494736E+00 0.64221587E+03</pdfrwt>
<totfact> 0.49369250E+00</totfact>
</mgrwt>
</event>
<event>
 5    1  0.2311484E-004  0.6596858E+03  0.7818608E-02  0.9788772E-01
         13   -1    0    0    0    0  0.00000000000E+00  0.00000000000E+00  0.10000000000E+04  0.10000000000E+04  0.00000000000E+00 0. -1.
          2   -1    0    0  501    0 -0.00000000000E+00 -0.00000000000E+00 -0.10879634418E+03  0.10879634418E+03  0.00000000000E+00 0. -1.
    9000006    2    1    2  501    0  0.00000000000E+00  0.00000000000E+00  0.89120365582E+03  0.11087963442E+04  0.65968581666E+03 0.  0.
         13    1    3    3    0    0 -0.22221411493E+03  0.18229326950E+03  0.71759155263E+03  0.77301202150E+03  0.00000000000E+00 0. -1.
          4    1    3    3  501    0  0.22221411493E+03 -0.18229326950E+03  0.17361210320E+03  0.33578432268E+03  0.00000000000E+00 0. -1.
<mgrwt>
<rscale>  0 0.65968582E+03</rscale>
<asrwt>0</asrwt>
<pdfrwt beam="1">0</pdfrwt>
<pdfrwt beam="2">  1        2 0.39562390E+00 0.65968582E+03</pdfrwt>
<totfact> 0.41328246E+00</totfact>
</mgrwt>
</event>
<event>
 5    1  0.2311484E-004  0.6473726E+03  0.7818608E-02  0.9811722E-01
         13   -1    0    0    0    0  0.00000000000E+00  0.00000000000E+00  0.10000000000E+04  0.10000000000E+04  0.00000000000E+00 0. -1.
          2   -1    0    0  501    0 -0.00000000000E+00 -0.00000000000E+00 -0.10477282703E+03  0.10477282703E+03  0.00000000000E+00 0. -1.
    9000006    2    1    2  501    0  0.00000000000E+00  0.00000000000E+00  0.89522717297E+03  0.11047728270E+04  0.64737261922E+03 0.  0.
         13    1    3    3    0    0 -0.17655541779E+03 -0.22026586297E+03  0.71789533272E+03  0.77140299110E+03  0.00000000000E+00 0. -1.
          4    1    3    3  501    0  0.17655541779E+03  0.22026586297E+03  0.17733184025E+03  0.33336983592E+03  0.00000000000E+00 0. -1.
<mgrwt>
<rscale>  0 0.64737262E+03</rscale>
<asrwt>0</asrwt>
<pdfrwt beam="1">0</pdfrwt>
<pdfrwt beam="2">  1        2 0.38099290E+00 0.64737262E+03</pdfrwt>
<totfact> 0.46882650E+00</totfact>
</mgrwt>
</event>
<event>
 5    1  0.2311484E-004  0.6559803E+03  0.7818608E-02  0.9795622E-01
         13   -1    0    0    0    0  0.00000000000E+00  0.00000000000E+00  0.10000000000E+04  0.10000000000E+04  0.00000000000E+00 0. -1.
          2   -1    0    0  501    0 -0.00000000000E+00 -0.00000000000E+00 -0.10757755444E+03  0.10757755444E+03  0.00000000000E+00 0. -1.
    9000006    2    1    2  501    0  0.00000000000E+00  0.00000000000E+00  0.89242244556E+03  0.11075775544E+04  0.65598034861E+03 0.  0.
         13    1    3    3    0    0 -0.19529091445E+03 -0.10760551309E+03  0.40074012106E+02  0.22654671518E+03  0.00000000000E+00 0. -1.
          4    1    3    3  501    0  0.19529091445E+03  0.10760551309E+03  0.85234843345E+03  0.88103083926E+03  0.00000000000E+00 0. -1.
<mgrwt>
<rscale>  0 0.65598035E+03</rscale>
<asrwt>0</asrwt>
<pdfrwt beam="1">0</pdfrwt>
<pdfrwt beam="2">  1        2 0.39119193E+00 0.65598035E+03</pdfrwt>
<totfact> 0.42944327E+00</totfact>
</mgrwt>
</event>
<event>
 5    1  0.2311484E-004  0.6355222E+03  0.7818608E-02  0.9834332E-01
         13   -1    0    0    0    0  0.00000000000E+00  0.00000000000E+00  0.10000000000E+04  0.10000000000E+04  0.00000000000E+00 0. -1.
          2   -1    0    0  501    0 -0.00000000000E+00 -0.00000000000E+00 -0.10097210792E+03  0.10097210792E+03  0.00000000000E+00 0. -1.
    9000006    2    1    2  501    0  0.00000000000E+00  0.00000000000E+00  0.89902789208E+03  0.11009721079E+04  0.63552217245E+03 0.  0.
         13    1    3    3    0    0  0.49815033928E+02 -0.30534667712E+03  0.57508504548E+03  0.65302445618E+03  0.00000000000E+00 0. -1.
          4    1    3    3  501    0 -0.49815033928E+02  0.30534667712E+03  0.32394284660E+03  0.44794765174E+03  0.00000000000E+00 0. -1.
<mgrwt>
<rscale>  0 0.63552217E+03</rscale>
<asrwt>0</asrwt>
<pdfrwt beam="1">0</pdfrwt>
<pdfrwt beam="2">  1        2 0.36717208E+00 0.63552217E+03</pdfrwt>
<totfact> 0.52744696E+00</totfact>
</mgrwt>
</event>
<event>
 5    1  0.2311484E-004  0.6458358E+03  0.7818608E-02  0.9814624E-01
         13   -1    0    0    0    0  0.00000000000E+00  0.00000000000E+00  0.10000000000E+04  0.10000000000E+04  0.00000000000E+00 0. -1.
          2   -1    0    0  501    0 -0.00000000000E+00 -0.00000000000E+00 -0.10427597662E+03  0.10427597662E+03  0.00000000000E+00 0. -1.
    9000006    2    1    2  501    0  0.00000000000E+00  0.00000000000E+00  0.89572402338E+03  0.11042759766E+04  0.64583582006E+03 0.  0.
         13    1    3    3    0    0  0.62573415665E+02 -0.31230531443E+03  0.53875629468E+03  0.62586610935E+03  0.00000000000E+00 0. -1.
          4    1    3    3  501    0 -0.62573415665E+02  0.31230531443E+03  0.35696772870E+03  0.47840986727E+03  0.00000000000E+00 0. -1.
<mgrwt>
<rscale>  0 0.64583582E+03</rscale>
<asrwt>0</asrwt>
<pdfrwt beam="1">0</pdfrwt>
<pdfrwt beam="2">  1        2 0.37918617E+00 0.64583582E+03</pdfrwt>
<totfact> 0.47613541E+00</totfact>
</mgrwt>
</event>
<event>
 5    1  0.2311484E-004  0.5758658E+03  0.7818608E-02  0.9956782E-01
         13   -1    0    0    0    0  0.00000000000E+00  0.00000000000E+00  0.10000000000E+04  0.10000000000E+04  0.00000000000E+00 0. -1.
          2   -1    0    0  501    0 -0.00000000000E+00 -0.00000000000E+00 -0.82905354473E+02  0.82905354473E+02  0.00000000000E+00 0. -1.
    9000006    2    1    2  501    0  0.00000000000E+00  0.00000000000E+00  0.91709464553E+03  0.10829053545E+04  0.57586579851E+03 0.  0.
         13    1    3    3    0    0 -0.23006146752E+03 -0.49758536479E+02  0.14669803920E+03  0.27735267350E+03  0.00000000000E+00 0. -1.
          4    1    3    3  501    0  0.23006146752E+03  0.49758536479E+02  0.77039660632E+03  0.80555268097E+03  0.00000000000E+00 0. -1.
<mgrwt>
<rscale>  0 0.57586580E+03</rscale>
<asrwt>0</asrwt>
<pdfrwt beam="1">0</pdfrwt>
<pdfrwt beam="2">  1        2 0.30147465E+00 0.57586580E+03</pdfrwt>
<totfact> 0.91212637E+00</totfact>
</mgrwt>
</event>
<event>
 5    1  0.2311484E-004  0.6422039E+03  0.7818608E-02  0.9821519E-01
         13   -1    0    0    0    0  0.00000000000E+00  0.00000000000E+00  0.10000000000E+04  0.10000000000E+04  0.00000000000E+00 0. -1.
          2   -1    0    0  501    0 -0.00000000000E+00 -0.00000000000E+00 -0.10310644714E+03  0.10310644714E+03  0.00000000000E+00 0. -1.
    9000006    2    1    2  501    0  0.00000000000E+00  0.00000000000E+00  0.89689355286E+03  0.11031064471E+04  0.64220385281E+03 0.  0.
         13    1    3    3    0    0 -0.45003184821E+02  0.23639575616E+03  0.83268344563E+02  0.25464064362E+03  0.00000000000E+00 0. -1.
          2    1    3    3  501    0  0.45003184821E+02 -0.23639575616E+03  0.81362520830E+03  0.84846580352E+03  0.00000000000E+00 0. -1.
<mgrwt>
<rscale>  0 0.64220385E+03</rscale>
<asrwt>0</asrwt>
<pdfrwt beam="1">0</pdfrwt>
<pdfrwt beam="2">  1        2 0.37493333E+00 0.64220385E+03</pdfrwt>
<totfact> 0.49375162E+00</totfact>
</mgrwt>
</event>
<event>
 5    1  0.2311484E-004  0.6222768E+03  0.7818608E-02  0.9860237E-01
         13   -1    0    0    0    0  0.00000000000E+00  0.00000000000E+00  0.10000000000E+04  0.10000000000E+04  0.00000000000E+00 0. -1.
          2   -1    0    0  501    0 -0.00000000000E+00 -0.00000000000E+00 -0.96807104164E+02  0.96807104164E+02  0.00000000000E+00 0. -1.
    9000006    2    1    2  501    0  0.00000000000E+00  0.00000000000E+00  0.90319289584E+03  0.10968071042E+04  0.62227680067E+03 0.  0.
         13    1    3    3    0    0  0.27987109322E+03 -0.12212705741E+03  0.34636848527E+03  0.46175098761E+03  0.00000000000E+00 0. -1.
          2    1    3    3  501    0 -0.27987109322E+03  0.12212705741E+03  0.55682441056E+03  0.63505611655E+03  0.00000000000E+00 0. -1.
<mgrwt>
<rscale>  0 0.62227680E+03</rscale>
<asrwt>0</asrwt>
<pdfrwt beam="1">0</pdfrwt>
<pdfrwt beam="2">  1        2 0.35202658E+00 0.62227680E+03</pdfrwt>
<totfact> 0.59937427E+00</totfact>
</mgrwt>
</event>
<event>
 5    1  0.2311484E-004  0.6613637E+03  0.7818608E-02  0.9785687E-01
         13   -1    0    0    0    0  0.00000000000E+00  0.00000000000E+00  0.10000000000E+04  0.10000000000E+04  0.00000000000E+00 0. -1.
          2   -1    0    0  501    0 -0.00000000000E+00 -0.00000000000E+00 -0.10935050182E+03  0.10935050182E+03  0.00000000000E+00 0. -1.
    9000006    2    1    2  501    0  0.00000000000E+00  0.00000000000E+00  0.89064949818E+03  0.11093505018E+04  0.66136374810E+03 0.  0.
         13    1    3    3    0    0 -0.21429611950E+03 -0.25101231456E+03  0.47972073383E+03  0.58229029818E+03  0.00000000000E+00 0. -1.
          2    1    3    3  501    0  0.21429611950E+03  0.25101231456E+03  0.41092876435E+03  0.52706020364E+03  0.00000000000E+00 0. -1.
<mgrwt>
<rscale>  0 0.66136375E+03</rscale>
<asrwt>0</asrwt>
<pdfrwt beam="1">0</pdfrwt>
<pdfrwt beam="2">  1        2 0.39763903E+00 0.66136375E+03</pdfrwt>
<totfact> 0.40611778E+00</totfact>
</mgrwt>
</event>
<event>
 5    1  0.2311484E-004  0.6420740E+03  0.7818608E-02  0.9821766E-01
         13   -1    0    0    0    0  0.00000000000E+00  0.00000000000E+00  0.10000000000E+04  0.10000000000E+04  0.00000000000E+00 0. -1.
          2   -1    0    0  501    0 -0.00000000000E+00 -0.00000000000E+00 -0.10306475648E+03  0.10306475648E+03  0.00000000000E+00 0. -1.
    9000006    2    1    2  501    0  0.00000000000E+00  0.00000000000E+00  0.89693524352E+03  0.11030647565E+04  0.64207400347E+03 0.  0.
         13    1    3    3    0    0 -0.29654409085E+03  0.10316312636E+03  0.33343114999E+03  0.45799275130E+03  0.00000000000E+00 0. -1.
          2    1    3    3  501    0  0.29654409085E+03 -0.10316312636E+03  0.56350409352E+03  0.64507200518E+03  0.00000000000E+00 0. -1.
<mgrwt>
<rscale>  0 0.64207400E+03</rscale>
<asrwt>0</asrwt>
<pdfrwt beam="1">0</pdfrwt>
<pdfrwt beam="2">  1        2 0.37478172E+00 0.64207400E+03</pdfrwt>
<totfact> 0.49439047E+00</totfact>
</mgrwt>
</event>
<event>
 5    1  0.2311484E-004  0.6520706E+03  0.7818608E-02  0.9802902E-01
         13   -1    0    0    0    0  0.00000000000E+00  0.00000000000E+00  0.10000000000E+04  0.10000000000E+04  0.00000000000E+00 0. -1.
          2   -1    0    0  501    0 -0.00000000000E+00 -0.00000000000E+00 -0.10629902584E+03  0.10629902584E+03  0.00000000000E+00 0. -1.
    9000006    2    1    2  501    0  0.00000000000E+00  0.00000000000E+00  0.89370097416E+03  0.11062990258E+04  0.65207062760E+03 0.  0.
         13    1    3    3    0    0 -0.17302555706E+03  0.18229061091E+03  0.79920046189E+03  0.83778821221E+03  0.00000000000E+00 0. -1.
          2    1    3    3  501    0  0.17302555706E+03 -0.18229061091E+03  0.94500512261E+02  0.26851081364E+03  0.00000000000E+00 0. -1.
<mgrwt>
<rscale>  0 0.65207063E+03</rscale>
<asrwt>0</asrwt>
<pdfrwt beam="1">0</pdfrwt>
<pdfrwt beam="2">  1        2 0.38654273E+00 0.65207063E+03</pdfrwt>
<totfact> 0.44700820E+00</totfact>
</mgrwt>
</event>
<event>
 5    1  0.2311484E-004  0.6532739E+03  0.7818608E-02  0.9800655E-01
         13   -1    0    0    0    0  0.00000000000E+00  0.00000000000E+00  0.10000000000E+04  0.10000000000E+04  0.00000000000E+00 0. -1.
          2   -1    0    0  501    0 -0.00000000000E+00 -0.00000000000E+00 -0.10669168771E+03  0.10669168771E+03  0.00000000000E+00 0. -1.
    9000006    2    1    2  501    0  0.00000000000E+00  0.00000000000E+00  0.89330831229E+03  0.11066916877E+04  0.65327387123E+03 0.  0.
         13    1    3    3    0    0 -0.15473814469E+03 -0.75817411562E+01 -0.40491319869E+02  0.16012783395E+03  0.00000000000E+00 0. -1.
          4    1    3    3  501    0  0.15473814469E+03  0.75817411562E+01  0.93379963216E+03  0.94656385376E+03  0.00000000000E+00 0. -1.
<mgrwt>
<rscale>  0 0.65327387E+03</rscale>
<asrwt>0</asrwt>
<pdfrwt beam="1">0</pdfrwt>
<pdfrwt beam="2">  1        2 0.38797059E+00 0.65327387E+03</pdfrwt>
<totfact> 0.44154575E+00</totfact>
</mgrwt>
</event>
<event>
 5    1  0.2311484E-004  0.6480490E+03  0.7818608E-02  0.9810447E-01
         13   -1    0    0    0    0  0.00000000000E+00  0.00000000000E+00  0.10000000000E+04  0.10000000000E+04  0.00000000000E+00 0. -1.
          2   -1    0    0  501    0 -0.00000000000E+00 -0.00000000000E+00 -0.10499187174E+03  0.10499187174E+03  0.00000000000E+00 0. -1.
    9000006    2    1    2  501    0  0.00000000000E+00  0.00000000000E+00  0.89500812826E+03  0.11049918717E+04  0.64804898499E+03 0.  0.
         13    1    3    3    0    0  0.28741886495E+03 -0.88727417245E+02  0.24211341699E+03  0.38613607082E+03  0.00000000000E+00 0. -1.
          4    1    3    3  501    0 -0.28741886495E+03  0.88727417245E+02  0.65289471128E+03  0.71885580092E+03  0.00000000000E+00 0. -1.
<mgrwt>
<rscale>  0 0.64804898E+03</rscale>
<asrwt>0</asrwt>
<pdfrwt beam="1">0</pdfrwt>
<pdfrwt beam="2">  1        2 0.38178943E+00 0.64804898E+03</pdfrwt>
<totfact> 0.46563678E+00</totfact>
</mgrwt>
</event>
<event>
 5    1  0.2311484E-004  0.6567064E+03  0.7818608E-02  0.9794276E-01
         13   -1    0    0    0    0  0.00000000000E+00  0.00000000000E+00  0.10000000000E+04  0.10000000000E+04  0.00000000000E+00 0. -1.
          2   -1    0    0  501    0 -0.00000000000E+00 -0.00000000000E+00 -0.10781583162E+03  0.10781583162E+03  0.00000000000E+00 0. -1.
    9000006    2    1    2  501    0  0.00000000000E+00  0.00000000000E+00  0.89218416838E+03  0.11078158316E+04  0.65670642335E+03 0.  0.
         13    1    3    3    0    0  0.10967317359E+03 -0.25945959242E+03  0.16146421289E+03  0.32468165509E+03  0.00000000000E+00 0. -1.
          2    1    3    3  501    0 -0.10967317359E+03  0.25945959242E+03  0.73071995549E+03  0.78313417653E+03  0.00000000000E+00 0. -1.
<mgrwt>
<rscale>  0 0.65670642E+03</rscale>
<asrwt>0</asrwt>
<pdfrwt beam="1">0</pdfrwt>
<pdfrwt beam="2">  1        2 0.39205840E+00 0.65670642E+03</pdfrwt>
<totfact> 0.42623956E+00</totfact>
</mgrwt>
</event>
<event>
 5    1  0.2311484E-004  0.6545656E+03  0.7818608E-02  0.9798250E-01
         13   -1    0    0    0    0  0.00000000000E+00  0.00000000000E+00  0.10000000000E+04  0.10000000000E+04  0.00000000000E+00 0. -1.
          2   -1    0    0  501    0 -0.00000000000E+00 -0.00000000000E+00 -0.10711402589E+03  0.10711402589E+03  0.00000000000E+00 0. -1.
    9000006    2    1    2  501    0  0.00000000000E+00  0.00000000000E+00  0.89288597411E+03  0.11071140259E+04  0.65456558386E+03 0.  0.
         13    1    3    3    0    0 -0.16413615897E+03  0.10124328348E+03 -0.80630519084E+00  0.19285105978E+03  0.00000000000E+00 0. -1.
          4    1    3    3  501    0  0.16413615897E+03 -0.10124328348E+03  0.89369227930E+03  0.91426296611E+03  0.00000000000E+00 0. -1.
<mgrwt>
<rscale>  0 0.65456558E+03</rscale>
<asrwt>0</asrwt>
<pdfrwt beam="1">0</pdfrwt>
<pdfrwt beam="2">  1        2 0.38950637E+00 0.65456558E+03</pdfrwt>
<totfact> 0.43573794E+00</totfact>
</mgrwt>
</event>
<event>
 5    1  0.2311484E-004  0.6484648E+03  0.7818608E-02  0.9809664E-01
         13   -1    0    0    0    0  0.00000000000E+00  0.00000000000E+00  0.10000000000E+04  0.10000000000E+04  0.00000000000E+00 0. -1.
          2   -1    0    0  501    0 -0.00000000000E+00 -0.00000000000E+00 -0.10512665919E+03  0.10512665919E+03  0.00000000000E+00 0. -1.
    9000006    2    1    2  501    0  0.00000000000E+00  0.00000000000E+00  0.89487334081E+03  0.11051266592E+04  0.64846483077E+03 0.  0.
         13    1    3    3    0    0  0.32420510230E+03 -0.27904913036E+00  0.44028037460E+03  0.54676853830E+03  0.00000000000E+00 0. -1.
          2    1    3    3  501    0 -0.32420510230E+03  0.27904913036E+00  0.45459296622E+03  0.55835812088E+03  0.00000000000E+00 0. -1.
<mgrwt>
<rscale>  0 0.64846483E+03</rscale>
<asrwt>0</asrwt>
<pdfrwt beam="1">0</pdfrwt>
<pdfrwt beam="2">  1        2 0.38227957E+00 0.64846483E+03</pdfrwt>
<totfact> 0.46368383E+00</totfact>
</mgrwt>
</event>
<event>
 5    1  0.2311484E-004  0.6460079E+03  0.7818608E-02  0.9814299E-01
         13   -1    0    0    0    0  0.00000000000E+00  0.00000000000E+00  0.10000000000E+04  0.10000000000E+04  0.00000000000E+00 0. -1.
          2   -1    0    0  501    0 -0.00000000000E+00 -0.00000000000E+00 -0.10433154258E+03  0.10433154258E+03  0.00000000000E+00 0. -1.
    9000006    2    1    2  501    0  0.00000000000E+00  0.00000000000E+00  0.89566845742E+03  0.11043315426E+04  0.64600787170E+03 0.  0.
         13    1    3    3    0    0 -0.17962883452E+02 -0.24361788347E+03  0.86576491661E+02  0.25916756595E+03  0.00000000000E+00 0. -1.
          2    1    3    3  501    0  0.17962883452E+02  0.24361788347E+03  0.80909196576E+03  0.84516397663E+03  0.00000000000E+00 0. -1.
<mgrwt>
<rscale>  0 0.64600787E+03</rscale>
<asrwt>0</asrwt>
<pdfrwt beam="1">0</pdfrwt>
<pdfrwt beam="2">  1        2 0.37938823E+00 0.64600787E+03</pdfrwt>
<totfact> 0.47531289E+00</totfact>
</mgrwt>
</event>
<event>
 5    1  0.2311484E-004  0.6524331E+03  0.7818608E-02  0.9802224E-01
         13   -1    0    0    0    0  0.00000000000E+00  0.00000000000E+00  0.10000000000E+04  0.10000000000E+04  0.00000000000E+00 0. -1.
          2   -1    0    0  501    0 -0.00000000000E+00 -0.00000000000E+00 -0.10641723225E+03  0.10641723225E+03  0.00000000000E+00 0. -1.
    9000006    2    1    2  501    0  0.00000000000E+00  0.00000000000E+00  0.89358276775E+03  0.11064172323E+04  0.65243308393E+03 0.  0.
         13    1    3    3    0    0 -0.23455411777E+03 -0.20558980971E+03  0.60886922374E+03  0.68410857007E+03  0.00000000000E+00 0. -1.
          4    1    3    3  501    0  0.23455411777E+03  0.20558980971E+03  0.28471354401E+03  0.42230866219E+03  0.00000000000E+00 0. -1.
<mgrwt>
<rscale>  0 0.65243308E+03</rscale>
<asrwt>0</asrwt>
<pdfrwt beam="1">0</pdfrwt>
<pdfrwt beam="2">  1        2 0.38697257E+00 0.65243308E+03</pdfrwt>
<totfact> 0.44535739E+00</totfact>
</mgrwt>
</event>
<event>
 5    1  0.2311484E-004  0.6541204E+03  0.7818608E-02  0.9799078E-01
         13   -1    0    0    0    0  0.00000000000E+00  0.00000000000E+00  0.10000000000E+04  0.10000000000E+04  0.00000000000E+00 0. -1.
          2   -1    0    0  501    0 -0.00000000000E+00 -0.00000000000E+00 -0.10696835976E+03  0.10696835976E+03  0.00000000000E+00 0. -1.
    9000006    2    1    2  501    0  0.00000000000E+00  0.00000000000E+00  0.89303164024E+03  0.11069683598E+04  0.65412035517E+03 0.  0.
         13    1    3    3    0    0  0.13976202652E+03  0.29569373853E+03  0.44716839528E+03  0.55401063600E+03  0.00000000000E+00 0. -1.
          4    1    3    3  501    0 -0.13976202652E+03 -0.29569373853E+03  0.44586324496E+03  0.55295772376E+03  0.00000000000E+00 0. -1.
<mgrwt>
<rscale>  0 0.65412036E+03</rscale>
<asrwt>0</asrwt>
<pdfrwt beam="1">0</pdfrwt>
<pdfrwt beam="2">  1        2 0.38897667E+00 0.65412036E+03</pdfrwt>
<totfact> 0.43773323E+00</totfact>
</mgrwt>
</event>
<event>
 5    1  0.2311484E-004  0.6483338E+03  0.7818608E-02  0.9809911E-01
         13   -1    0    0    0    0  0.00000000000E+00  0.00000000000E+00  0.10000000000E+04  0.10000000000E+04  0.00000000000E+00 0. -1.
          2   -1    0    0  501    0 -0.00000000000E+00 -0.00000000000E+00 -0.10508416970E+03  0.10508416970E+03  0.00000000000E+00 0. -1.
    9000006    2    1    2  501    0  0.00000000000E+00  0.00000000000E+00  0.89491583030E+03  0.11050841697E+04  0.64833377115E+03 0.  0.
         13    1    3    3    0    0  0.55499556748E+02 -0.26607228140E+03  0.74857832190E+03  0.79639447747E+03  0.00000000000E+00 0. -1.
          2    1    3    3  501    0 -0.55499556748E+02  0.26607228140E+03  0.14633750840E+03  0.30868969224E+03  0.00000000000E+00 0. -1.
<mgrwt>
<rscale>  0 0.64833377E+03</rscale>
<asrwt>0</asrwt>
<pdfrwt beam="1">0</pdfrwt>
<pdfrwt beam="2">  1        2 0.38212506E+00 0.64833377E+03</pdfrwt>
<totfact> 0.46429866E+00</totfact>
</mgrwt>
</event>
<event>
 5    1  0.2311484E-004  0.6416867E+03  0.7818608E-02  0.9822505E-01
         13   -1    0    0    0    0  0.00000000000E+00  0.00000000000E+00  0.10000000000E+04  0.10000000000E+04  0.00000000000E+00 0. -1.
          2   -1    0    0  501    0 -0.00000000000E+00 -0.00000000000E+00 -0.10294046900E+03  0.10294046900E+03  0.00000000000E+00 0. -1.
    9000006    2    1    2  501    0  0.00000000000E+00  0.00000000000E+00  0.89705953100E+03  0.11029404690E+04  0.64168674290E+03 0.  0.
         13    1    3    3    0    0  0.97204937813E+02  0.30372595738E+03  0.38795010366E+03  0.50219870574E+03  0.00000000000E+00 0. -1.
          4    1    3    3  501    0 -0.97204937813E+02 -0.30372595738E+03  0.50910942734E+03  0.60074176326E+03  0.00000000000E+00 0. -1.
<mgrwt>
<rscale>  0 0.64168674E+03</rscale>
<asrwt>0</asrwt>
<pdfrwt beam="1">0</pdfrwt>
<pdfrwt beam="2">  1        2 0.37432977E+00 0.64168674E+03</pdfrwt>
<totfact> 0.49629952E+00</totfact>
</mgrwt>
</event>
<event>
 5    1  0.2311484E-004  0.6563551E+03  0.7818608E-02  0.9794927E-01
         13   -1    0    0    0    0  0.00000000000E+00  0.00000000000E+00  0.10000000000E+04  0.10000000000E+04  0.00000000000E+00 0. -1.
          2   -1    0    0  501    0 -0.00000000000E+00 -0.00000000000E+00 -0.10770049980E+03  0.10770049980E+03  0.00000000000E+00 0. -1.
    9000006    2    1    2  501    0  0.00000000000E+00  0.00000000000E+00  0.89229950020E+03  0.11077004998E+04  0.65635508623E+03 0.  0.
         13    1    3    3    0    0  0.12630828007E+03  0.29345651614E+03  0.57277996950E+03  0.65585623573E+03  0.00000000000E+00 0. -1.
          4    1    3    3  501    0 -0.12630828007E+03 -0.29345651614E+03  0.31951953070E+03  0.45184426408E+03  0.00000000000E+00 0. -1.
<mgrwt>
<rscale>  0 0.65635509E+03</rscale>
<asrwt>0</asrwt>
<pdfrwt beam="1">0</pdfrwt>
<pdfrwt beam="2">  1        2 0.39163901E+00 0.65635509E+03</pdfrwt>
<totfact> 0.42778753E+00</totfact>
</mgrwt>
</event>
<event>
 5    1  0.2311484E-004  0.6489846E+03  0.7818608E-02  0.9808686E-01
         13   -1    0    0    0    0  0.00000000000E+00  0.00000000000E+00  0.10000000000E+04  0.10000000000E+04  0.00000000000E+00 0. -1.
          2   -1    0    0  501    0 -0.00000000000E+00 -0.00000000000E+00 -0.10529525331E+03  0.10529525331E+03  0.00000000000E+00 0. -1.
    9000006    2    1    2  501    0  0.00000000000E+00  0.00000000000E+00  0.89470474669E+03  0.11052952533E+04  0.64898460171E+03 0.  0.
         13    1    3    3    0    0 -0.27139690661E+03 -0.96941178970E+02  0.19335760016E+03  0.34704615635E+03  0.00000000000E+00 0. -1.
          4    1    3    3  501    0  0.27139690661E+03  0.96941178970E+02  0.70134714653E+03  0.75824909696E+03  0.00000000000E+00 0. -1.
<mgrwt>
<rscale>  0 0.64898460E+03</rscale>
<asrwt>0</asrwt>
<pdfrwt beam="1">0</pdfrwt>
<pdfrwt beam="2">  1        2 0.38289264E+00 0.64898460E+03</pdfrwt>
<totfact> 0.46125152E+00</totfact>
</mgrwt>
</event>
<event>
 5    1  0.2311484E-004  0.6100573E+03  0.7818608E-02  0.9884757E-01
         13   -1    0    0    0    0  0.00000000000E+00  0.00000000000E+00  0.10000000000E+04  0.10000000000E+04  0.00000000000E+00 0. -1.
          2   -1    0    0  501    0 -0.00000000000E+00 -0.00000000000E+00 -0.93042469489E+02  0.93042469489E+02  0.00000000000E+00 0. -1.
    9000006    2    1    2  501    0  0.00000000000E+00  0.00000000000E+00  0.90695753051E+03  0.10930424695E+04  0.61005727432E+03 0.  0.
         13    1    3    3    0    0 -0.21042857492E+03  0.30785786348E+02  0.84526243092E+03  0.87160571758E+03  0.00000000000E+00 0. -1.
          4    1    3    3  501    0  0.21042857492E+03 -0.30785786348E+02  0.61695099588E+02  0.22143675191E+03  0.00000000000E+00 0. -1.
<mgrwt>
<rscale>  0 0.61005727E+03</rscale>
<asrwt>0</asrwt>
<pdfrwt beam="1">0</pdfrwt>
<pdfrwt beam="2">  1        2 0.33833697E+00 0.61005727E+03</pdfrwt>
<totfact> 0.67213522E+00</totfact>
</mgrwt>
</event>
<event>
 5    1  0.2311484E-004  0.7632604E+03  0.7818608E-02  0.9614774E-01
         13   -1    0    0    0    0  0.00000000000E+00  0.00000000000E+00  0.10000000000E+04  0.10000000000E+04  0.00000000000E+00 0. -1.
          2   -1    0    0  501    0 -0.00000000000E+00 -0.00000000000E+00 -0.14564159879E+03  0.14564159879E+03  0.00000000000E+00 0. -1.
    9000006    2    1    2  501    0  0.00000000000E+00  0.00000000000E+00  0.85435840121E+03  0.11456415988E+04  0.76326037180E+03 0.  0.
         13    1    3    3    0    0 -0.28206482097E+03  0.10224546062E+03  0.78119161696E+03  0.83682437815E+03  0.00000000000E+00 0. -1.
          4    1    3    3  501    0  0.28206482097E+03 -0.10224546062E+03  0.73166784247E+02  0.30881722064E+03  0.00000000000E+00 0. -1.
<mgrwt>
<rscale>  0 0.76326037E+03</rscale>
<asrwt>0</asrwt>
<pdfrwt beam="1">0</pdfrwt>
<pdfrwt beam="2">  1        2 0.52960693E+00 0.76326037E+03</pdfrwt>
<totfact> 0.11816953E+00</totfact>
</mgrwt>
</event>
<event>
 5    1  0.2311484E-004  0.6517369E+03  0.7818608E-02  0.9803525E-01
         13   -1    0    0    0    0  0.00000000000E+00  0.00000000000E+00  0.10000000000E+04  0.10000000000E+04  0.00000000000E+00 0. -1.
          2   -1    0    0  501    0 -0.00000000000E+00 -0.00000000000E+00 -0.10619025742E+03  0.10619025742E+03  0.00000000000E+00 0. -1.
    9000006    2    1    2  501    0  0.00000000000E+00  0.00000000000E+00  0.89380974258E+03  0.11061902574E+04  0.65173693288E+03 0.  0.
         13    1    3    3    0    0 -0.28468845533E+03  0.13433351391E+03  0.58989382327E+03  0.66863123789E+03  0.00000000000E+00 0. -1.
          4    1    3    3  501    0  0.28468845533E+03 -0.13433351391E+03  0.30391591931E+03  0.43755901953E+03  0.00000000000E+00 0. -1.
<mgrwt>
<rscale>  0 0.65173693E+03</rscale>
<asrwt>0</asrwt>
<pdfrwt beam="1">0</pdfrwt>
<pdfrwt beam="2">  1        2 0.38614720E+00 0.65173693E+03</pdfrwt>
<totfact> 0.44853210E+00</totfact>
</mgrwt>
</event>
<event>
 5    1  0.2311484E-004  0.6549274E+03  0.7818608E-02  0.9797577E-01
         13   -1    0    0    0    0  0.00000000000E+00  0.00000000000E+00  0.10000000000E+04  0.10000000000E+04  0.00000000000E+00 0. -1.
          2   -1    0    0  501    0 -0.00000000000E+00 -0.00000000000E+00 -0.10723246911E+03  0.10723246911E+03  0.00000000000E+00 0. -1.
    9000006    2    1    2  501    0  0.00000000000E+00  0.00000000000E+00  0.89276753089E+03  0.11072324691E+04  0.65492738257E+03 0.  0.
         13    1    3    3    0    0 -0.17157631700E+03  0.26989067098E+02  0.91571128643E+03  0.93203755418E+03  0.00000000000E+00 0. -1.
          2    1    3    3  501    0  0.17157631700E+03 -0.26989067098E+02 -0.22943755544E+02  0.17519491493E+03  0.00000000000E+00 0. -1.
<mgrwt>
<rscale>  0 0.65492738E+03</rscale>
<asrwt>0</asrwt>
<pdfrwt beam="1">0</pdfrwt>
<pdfrwt beam="2">  1        2 0.38993707E+00 0.65492738E+03</pdfrwt>
<totfact> 0.43412162E+00</totfact>
</mgrwt>
</event>
<event>
 5    1  0.2311484E-004  0.6548892E+03  0.7818608E-02  0.9797648E-01
         13   -1    0    0    0    0  0.00000000000E+00  0.00000000000E+00  0.10000000000E+04  0.10000000000E+04  0.00000000000E+00 0. -1.
          2   -1    0    0  501    0 -0.00000000000E+00 -0.00000000000E+00 -0.10721998153E+03  0.10721998153E+03  0.00000000000E+00 0. -1.
    9000006    2    1    2  501    0  0.00000000000E+00  0.00000000000E+00  0.89278001847E+03  0.11072199815E+04  0.65488924722E+03 0.  0.
         13    1    3    3    0    0  0.19276251134E+03  0.22798975573E+03  0.67374500563E+03  0.73693218624E+03  0.00000000000E+00 0. -1.
          2    1    3    3  501    0 -0.19276251134E+03 -0.22798975573E+03  0.21903501283E+03  0.37028779529E+03  0.00000000000E+00 0. -1.
<mgrwt>
<rscale>  0 0.65488925E+03</rscale>
<asrwt>0</asrwt>
<pdfrwt beam="1">0</pdfrwt>
<pdfrwt beam="2">  1        2 0.38989166E+00 0.65488925E+03</pdfrwt>
<totfact> 0.43429177E+00</totfact>
</mgrwt>
</event>
<event>
 5    1  0.2311484E-004  0.6688849E+03  0.7818608E-02  0.9771974E-01
         13   -1    0    0    0    0  0.00000000000E+00  0.00000000000E+00  0.10000000000E+04  0.10000000000E+04  0.00000000000E+00 0. -1.
          2   -1    0    0  501    0 -0.00000000000E+00 -0.00000000000E+00 -0.11185174606E+03  0.11185174606E+03  0.00000000000E+00 0. -1.
    9000006    2    1    2  501    0  0.00000000000E+00  0.00000000000E+00  0.88814825394E+03  0.11118517461E+04  0.66888488116E+03 0.  0.
         13    1    3    3    0    0 -0.32398698892E+03 -0.71845344667E+02  0.37508741023E+03  0.50081921674E+03  0.00000000000E+00 0. -1.
          2    1    3    3  501    0  0.32398698892E+03  0.71845344667E+02  0.51306084371E+03  0.61103252932E+03  0.00000000000E+00 0. -1.
<mgrwt>
<rscale>  0 0.66888488E+03</rscale>
<asrwt>0</asrwt>
<pdfrwt beam="1">0</pdfrwt>
<pdfrwt beam="2">  1        2 0.40673448E+00 0.66888488E+03</pdfrwt>
<totfact> 0.37514713E+00</totfact>
</mgrwt>
</event>
<event>
 5    1  0.2311484E-004  0.6866452E+03  0.7818608E-02  0.9740347E-01
         13   -1    0    0    0    0  0.00000000000E+00  0.00000000000E+00  0.10000000000E+04  0.10000000000E+04  0.00000000000E+00 0. -1.
          2   -1    0    0  501    0 -0.00000000000E+00 -0.00000000000E+00 -0.11787039065E+03  0.11787039065E+03  0.00000000000E+00 0. -1.
    9000006    2    1    2  501    0  0.00000000000E+00  0.00000000000E+00  0.88212960935E+03  0.11178703906E+04  0.68664515041E+03 0.  0.
         13    1    3    3    0    0 -0.27922947363E+03 -0.18449358951E+03  0.56572681366E+03  0.65730800330E+03  0.00000000000E+00 0. -1.
          4    1    3    3  501    0  0.27922947363E+03  0.18449358951E+03  0.31640279570E+03  0.46056238735E+03  0.00000000000E+00 0. -1.
<mgrwt>
<rscale>  0 0.68664515E+03</rscale>
<asrwt>0</asrwt>
<pdfrwt beam="1">0</pdfrwt>
<pdfrwt beam="2">  1        2 0.42862051E+00 0.68664515E+03</pdfrwt>
<totfact> 0.30908596E+00</totfact>
</mgrwt>
</event>
<event>
 5    1  0.2311484E-004  0.6430870E+03  0.7818608E-02  0.9819838E-01
         13   -1    0    0    0    0  0.00000000000E+00  0.00000000000E+00  0.10000000000E+04  0.10000000000E+04  0.00000000000E+00 0. -1.
          2   -1    0    0  501    0 -0.00000000000E+00 -0.00000000000E+00 -0.10339021853E+03  0.10339021853E+03  0.00000000000E+00 0. -1.
    9000006    2    1    2  501    0  0.00000000000E+00  0.00000000000E+00  0.89660978147E+03  0.11033902185E+04  0.64308698799E+03 0.  0.
         13    1    3    3    0    0  0.20612918508E+03 -0.23120908889E+03  0.30027712490E+03  0.43140843230E+03  0.00000000000E+00 0. -1.
          4    1    3    3  501    0 -0.20612918508E+03  0.23120908889E+03  0.59633265657E+03  0.67198178623E+03  0.00000000000E+00 0. -1.
<mgrwt>
<rscale>  0 0.64308699E+03</rscale>
<asrwt>0</asrwt>
<pdfrwt beam="1">0</pdfrwt>
<pdfrwt beam="2">  1        2 0.37596522E+00 0.64308699E+03</pdfrwt>
<totfact> 0.48942332E+00</totfact>
</mgrwt>
</event>
<event>
 5    1  0.2311484E-004  0.6560562E+03  0.7818608E-02  0.9795481E-01
         13   -1    0    0    0    0  0.00000000000E+00  0.00000000000E+00  0.10000000000E+04  0.10000000000E+04  0.00000000000E+00 0. -1.
          2   -1    0    0  501    0 -0.00000000000E+00 -0.00000000000E+00 -0.10760244993E+03  0.10760244993E+03  0.00000000000E+00 0. -1.
    9000006    2    1    2  501    0  0.00000000000E+00  0.00000000000E+00  0.89239755007E+03  0.11076024499E+04  0.65605624737E+03 0.  0.
         13    1    3    3    0    0  0.24709279486E+03  0.21044735514E+03  0.52644970945E+03  0.61845956629E+03  0.00000000000E+00 0. -1.
          4    1    3    3  501    0 -0.24709279486E+03 -0.21044735514E+03  0.36594784062E+03  0.48914288364E+03  0.00000000000E+00 0. -1.
<mgrwt>
<rscale>  0 0.65605625E+03</rscale>
<asrwt>0</asrwt>
<pdfrwt beam="1">0</pdfrwt>
<pdfrwt beam="2">  1        2 0.39128246E+00 0.65605625E+03</pdfrwt>
<totfact> 0.42910753E+00</totfact>
</mgrwt>
</event>
<event>
 5    1  0.2311484E-004  0.6399137E+03  0.7818608E-02  0.9825892E-01
         13   -1    0    0    0    0  0.00000000000E+00  0.00000000000E+00  0.10000000000E+04  0.10000000000E+04  0.00000000000E+00 0. -1.
          2   -1    0    0  501    0 -0.00000000000E+00 -0.00000000000E+00 -0.10237239653E+03  0.10237239653E+03  0.00000000000E+00 0. -1.
    9000006    2    1    2  501    0  0.00000000000E+00  0.00000000000E+00  0.89762760347E+03  0.11023723965E+04  0.63991373334E+03 0.  0.
         13    1    3    3    0    0 -0.26069400017E+02 -0.25827774748E+03  0.12659546839E+03  0.28881381733E+03  0.00000000000E+00 0. -1.
          2    1    3    3  501    0  0.26069400017E+02  0.25827774748E+03  0.77103213508E+03  0.81355857920E+03  0.00000000000E+00 0. -1.
<mgrwt>
<rscale>  0 0.63991373E+03</rscale>
<asrwt>0</asrwt>
<pdfrwt beam="1">0</pdfrwt>
<pdfrwt beam="2">  1        2 0.37226405E+00 0.63991373E+03</pdfrwt>
<totfact> 0.50511114E+00</totfact>
</mgrwt>
</event>
<event>
 5    1  0.2311484E-004  0.6513679E+03  0.7818608E-02  0.9804216E-01
         13   -1    0    0    0    0  0.00000000000E+00  0.00000000000E+00  0.10000000000E+04  0.10000000000E+04  0.00000000000E+00 0. -1.
          2   -1    0    0  501    0 -0.00000000000E+00 -0.00000000000E+00 -0.10607004701E+03  0.10607004701E+03  0.00000000000E+00 0. -1.
    9000006    2    1    2  501    0  0.00000000000E+00  0.00000000000E+00  0.89392995299E+03  0.11060700470E+04  0.65136793599E+03 0.  0.
         13    1    3    3    0    0 -0.21915383339E+03  0.24065640106E+03  0.46603645221E+03  0.56844866157E+03  0.00000000000E+00 0. -1.
          4    1    3    3  501    0  0.21915383339E+03 -0.24065640106E+03  0.42789350079E+03  0.53762138543E+03  0.00000000000E+00 0. -1.
<mgrwt>
<rscale>  0 0.65136794E+03</rscale>
<asrwt>0</asrwt>
<pdfrwt beam="1">0</pdfrwt>
<pdfrwt beam="2">  1        2 0.38571008E+00 0.65136794E+03</pdfrwt>
<totfact> 0.45022178E+00</totfact>
</mgrwt>
</event>
<event>
 5    1  0.2311484E-004  0.6457192E+03  0.7818608E-02  0.9814845E-01
         13   -1    0    0    0    0  0.00000000000E+00  0.00000000000E+00  0.10000000000E+04  0.10000000000E+04  0.00000000000E+00 0. -1.
          2   -1    0    0  501    0 -0.00000000000E+00 -0.00000000000E+00 -0.10423831275E+03  0.10423831275E+03  0.00000000000E+00 0. -1.
    9000006    2    1    2  501    0  0.00000000000E+00  0.00000000000E+00  0.89576168725E+03  0.11042383128E+04  0.64571917349E+03 0.  0.
         13    1    3    3    0    0  0.25921594807E+03  0.96155426416E+02  0.73300756887E+03  0.78341487718E+03  0.00000000000E+00 0. -1.
          4    1    3    3  501    0 -0.25921594807E+03 -0.96155426416E+02  0.16275411837E+03  0.32082343557E+03  0.00000000000E+00 0. -1.
<mgrwt>
<rscale>  0 0.64571917E+03</rscale>
<asrwt>0</asrwt>
<pdfrwt beam="1">0</pdfrwt>
<pdfrwt beam="2">  1        2 0.37904921E+00 0.64571917E+03</pdfrwt>
<totfact> 0.47669367E+00</totfact>
</mgrwt>
</event>
<event>
 5    1  0.2311484E-004  0.6425386E+03  0.7818608E-02  0.9820882E-01
         13   -1    0    0    0    0  0.00000000000E+00  0.00000000000E+00  0.10000000000E+04  0.10000000000E+04  0.00000000000E+00 0. -1.
          2   -1    0    0  501    0 -0.00000000000E+00 -0.00000000000E+00 -0.10321395173E+03  0.10321395173E+03  0.00000000000E+00 0. -1.
    9000006    2    1    2  501    0  0.00000000000E+00  0.00000000000E+00  0.89678604827E+03  0.11032139517E+04  0.64253856454E+03 0.  0.
         13    1    3    3    0    0  0.28535605631E+03 -0.64813079968E+02  0.22070854251E+03  0.36652568115E+03  0.00000000000E+00 0. -1.
          2    1    3    3  501    0 -0.28535605631E+03  0.64813079968E+02  0.67607750576E+03  0.73668827058E+03  0.00000000000E+00 0. -1.
<mgrwt>
<rscale>  0 0.64253856E+03</rscale>
<asrwt>0</asrwt>
<pdfrwt beam="1">0</pdfrwt>
<pdfrwt beam="2">  1        2 0.37532425E+00 0.64253856E+03</pdfrwt>
<totfact> 0.49210771E+00</totfact>
</mgrwt>
</event>
<event>
 5    1  0.2311484E-004  0.6354894E+03  0.7818608E-02  0.9834395E-01
         13   -1    0    0    0    0  0.00000000000E+00  0.00000000000E+00  0.10000000000E+04  0.10000000000E+04  0.00000000000E+00 0. -1.
          2   -1    0    0  501    0 -0.00000000000E+00 -0.00000000000E+00 -0.10096170071E+03  0.10096170071E+03  0.00000000000E+00 0. -1.
    9000006    2    1    2  501    0  0.00000000000E+00  0.00000000000E+00  0.89903829929E+03  0.11009617007E+04  0.63548941993E+03 0.  0.
         13    1    3    3    0    0  0.30126922029E+03 -0.23608414722E+02  0.27940930762E+03  0.41157023887E+03  0.00000000000E+00 0. -1.
          2    1    3    3  501    0 -0.30126922029E+03  0.23608414722E+02  0.61962899167E+03  0.68939146184E+03  0.00000000000E+00 0. -1.
<mgrwt>
<rscale>  0 0.63548942E+03</rscale>
<asrwt>0</asrwt>
<pdfrwt beam="1">0</pdfrwt>
<pdfrwt beam="2">  1        2 0.36713423E+00 0.63548942E+03</pdfrwt>
<totfact> 0.52761630E+00</totfact>
</mgrwt>
</event>
<event>
 5    1  0.2311484E-004  0.5446339E+03  0.7818608E-02  0.1002744E+00
         13   -1    0    0    0    0  0.00000000000E+00  0.00000000000E+00  0.10000000000E+04  0.10000000000E+04  0.00000000000E+00 0. -1.
          2   -1    0    0  501    0 -0.00000000000E+00 -0.00000000000E+00 -0.74156525971E+02  0.74156525971E+02  0.00000000000E+00 0. -1.
    9000006    2    1    2  501    0  0.00000000000E+00  0.00000000000E+00  0.92584347403E+03  0.10741565260E+04  0.54463391731E+03 0.  0.
         13    1    3    3    0    0 -0.13492212904E+03  0.51880409009E+02  0.91808522434E+03  0.92939552231E+03  0.00000000000E+00 0. -1.
          2    1    3    3  501    0  0.13492212904E+03 -0.51880409009E+02  0.77582496935E+01  0.14476100366E+03  0.00000000000E+00 0. -1.
<mgrwt>
<rscale>  0 0.54463392E+03</rscale>
<asrwt>0</asrwt>
<pdfrwt beam="1">0</pdfrwt>
<pdfrwt beam="2">  1        2 0.26966066E+00 0.54463392E+03</pdfrwt>
<totfact> 0.11851384E+01</totfact>
</mgrwt>
</event>
<event>
 5    1  0.2311484E-004  0.5775234E+03  0.7818608E-02  0.9953167E-01
         13   -1    0    0    0    0  0.00000000000E+00  0.00000000000E+00  0.10000000000E+04  0.10000000000E+04  0.00000000000E+00 0. -1.
          2   -1    0    0  501    0 -0.00000000000E+00 -0.00000000000E+00 -0.83383330229E+02  0.83383330229E+02  0.00000000000E+00 0. -1.
    9000006    2    1    2  501    0  0.00000000000E+00  0.00000000000E+00  0.91661666977E+03  0.10833833302E+04  0.57752343755E+03 0.  0.
         13    1    3    3    0    0 -0.18073792050E+03 -0.17271545774E+03  0.18719840666E+03  0.31231405460E+03  0.00000000000E+00 0. -1.
          2    1    3    3  501    0  0.18073792050E+03  0.17271545774E+03  0.72941826312E+03  0.77106927563E+03  0.00000000000E+00 0. -1.
<mgrwt>
<rscale>  0 0.57752344E+03</rscale>
<asrwt>0</asrwt>
<pdfrwt beam="1">0</pdfrwt>
<pdfrwt beam="2">  1        2 0.30321275E+00 0.57752344E+03</pdfrwt>
<totfact> 0.89915366E+00</totfact>
</mgrwt>
</event>
<event>
 5    1  0.2311484E-004  0.6489822E+03  0.7818608E-02  0.9808691E-01
         13   -1    0    0    0    0  0.00000000000E+00  0.00000000000E+00  0.10000000000E+04  0.10000000000E+04  0.00000000000E+00 0. -1.
          2   -1    0    0  501    0 -0.00000000000E+00 -0.00000000000E+00 -0.10529447984E+03  0.10529447984E+03  0.00000000000E+00 0. -1.
    9000006    2    1    2  501    0  0.00000000000E+00  0.00000000000E+00  0.89470552016E+03  0.11052944798E+04  0.64898221807E+03 0.  0.
         13    1    3    3    0    0  0.13906293819E+03 -0.29170941891E+03  0.49734430206E+03  0.59311401995E+03  0.00000000000E+00 0. -1.
          2    1    3    3  501    0 -0.13906293819E+03  0.29170941891E+03  0.39736121809E+03  0.51218045990E+03  0.00000000000E+00 0. -1.
<mgrwt>
<rscale>  0 0.64898222E+03</rscale>
<asrwt>0</asrwt>
<pdfrwt beam="1">0</pdfrwt>
<pdfrwt beam="2">  1        2 0.38288983E+00 0.64898222E+03</pdfrwt>
<totfact> 0.46126265E+00</totfact>
</mgrwt>
</event>
<event>
 5    1  0.2311484E-004  0.6410690E+03  0.7818608E-02  0.9823683E-01
         13   -1    0    0    0    0  0.00000000000E+00  0.00000000000E+00  0.10000000000E+04  0.10000000000E+04  0.00000000000E+00 0. -1.
          2   -1    0    0  501    0 -0.00000000000E+00 -0.00000000000E+00 -0.10274235372E+03  0.10274235372E+03  0.00000000000E+00 0. -1.
    9000006    2    1    2  501    0  0.00000000000E+00  0.00000000000E+00  0.89725764628E+03  0.11027423537E+04  0.64106896266E+03 0.  0.
         13    1    3    3    0    0  0.69420344759E+02 -0.30748540014E+03  0.34868315577E+03  0.47004935771E+03  0.00000000000E+00 0. -1.
          2    1    3    3  501    0 -0.69420344759E+02  0.30748540014E+03  0.54857449051E+03  0.63269299601E+03  0.00000000000E+00 0. -1.
<mgrwt>
<rscale>  0 0.64106896E+03</rscale>
<asrwt>0</asrwt>
<pdfrwt beam="1">0</pdfrwt>
<pdfrwt beam="2">  1        2 0.37360935E+00 0.64106896E+03</pdfrwt>
<totfact> 0.49935648E+00</totfact>
</mgrwt>
</event>
<event>
 5    1  0.2311484E-004  0.6564951E+03  0.7818608E-02  0.9794667E-01
         13   -1    0    0    0    0  0.00000000000E+00  0.00000000000E+00  0.10000000000E+04  0.10000000000E+04  0.00000000000E+00 0. -1.
          2   -1    0    0  501    0 -0.00000000000E+00 -0.00000000000E+00 -0.10774646277E+03  0.10774646277E+03  0.00000000000E+00 0. -1.
    9000006    2    1    2  501    0  0.00000000000E+00  0.00000000000E+00  0.89225353723E+03  0.11077464628E+04  0.65649512648E+03 0.  0.
         13    1    3    3    0    0 -0.28459931002E+03  0.10664444355E+03  0.65536442423E+03  0.72240731804E+03  0.00000000000E+00 0. -1.
          4    1    3    3  501    0  0.28459931002E+03 -0.10664444355E+03  0.23688911299E+03  0.38533914473E+03  0.00000000000E+00 0. -1.
<mgrwt>
<rscale>  0 0.65649513E+03</rscale>
<asrwt>0</asrwt>
<pdfrwt beam="1">0</pdfrwt>
<pdfrwt beam="2">  1        2 0.39180615E+00 0.65649513E+03</pdfrwt>
<totfact> 0.42717001E+00</totfact>
</mgrwt>
</event>
<event>
 5    1  0.2311484E-004  0.6602272E+03  0.7818608E-02  0.9787776E-01
         13   -1    0    0    0    0  0.00000000000E+00  0.00000000000E+00  0.10000000000E+04  0.10000000000E+04  0.00000000000E+00 0. -1.
          2   -1    0    0  501    0 -0.00000000000E+00 -0.00000000000E+00 -0.10897497594E+03  0.10897497594E+03  0.00000000000E+00 0. -1.
    9000006    2    1    2  501    0  0.00000000000E+00  0.00000000000E+00  0.89102502406E+03  0.11089749759E+04  0.66022716071E+03 0.  0.
         13    1    3    3    0    0 -0.12519235757E+03  0.29599193489E+03  0.31880326610E+03  0.45268076432E+03  0.00000000000E+00 0. -1.
          2    1    3    3  501    0  0.12519235757E+03 -0.29599193489E+03  0.57222175796E+03  0.65629421161E+03  0.00000000000E+00 0. -1.
<mgrwt>
<rscale>  0 0.66022716E+03</rscale>
<asrwt>0</asrwt>
<pdfrwt beam="1">0</pdfrwt>
<pdfrwt beam="2">  1        2 0.39627348E+00 0.66022716E+03</pdfrwt>
<totfact> 0.41096061E+00</totfact>
</mgrwt>
</event>
<event>
 5    1  0.2311484E-004  0.6622349E+03  0.7818608E-02  0.9784088E-01
         13   -1    0    0    0    0  0.00000000000E+00  0.00000000000E+00  0.10000000000E+04  0.10000000000E+04  0.00000000000E+00 0. -1.
          2   -1    0    0  501    0 -0.00000000000E+00 -0.00000000000E+00 -0.10963876668E+03  0.10963876668E+03  0.00000000000E+00 0. -1.
    9000006    2    1    2  501    0  0.00000000000E+00  0.00000000000E+00  0.89036123332E+03  0.11096387667E+04  0.66223490298E+03 0.  0.
         13    1    3    3    0    0  0.27231322968E+03 -0.10385058063E+03  0.18184346856E+03  0.34352072021E+03  0.00000000000E+00 0. -1.
          2    1    3    3  501    0 -0.27231322968E+03  0.10385058063E+03  0.70851776476E+03  0.76611804647E+03  0.00000000000E+00 0. -1.
<mgrwt>
<rscale>  0 0.66223490E+03</rscale>
<asrwt>0</asrwt>
<pdfrwt beam="1">0</pdfrwt>
<pdfrwt beam="2">  1        2 0.39868727E+00 0.66223490E+03</pdfrwt>
<totfact> 0.40243517E+00</totfact>
</mgrwt>
</event>
<event>
 5    1  0.2311484E-004  0.6445301E+03  0.7818608E-02  0.9817097E-01
         13   -1    0    0    0    0  0.00000000000E+00  0.00000000000E+00  0.10000000000E+04  0.10000000000E+04  0.00000000000E+00 0. -1.
          2   -1    0    0  501    0 -0.00000000000E+00 -0.00000000000E+00 -0.10385477063E+03  0.10385477063E+03  0.00000000000E+00 0. -1.
    9000006    2    1    2  501    0  0.00000000000E+00  0.00000000000E+00  0.89614522937E+03  0.11038547706E+04  0.64453012538E+03 0.  0.
         13    1    3    3    0    0  0.79503210435E+02 -0.46357732597E+02 -0.80870165166E+02  0.12251442142E+03  0.00000000000E+00 0. -1.
          4    1    3    3  501    0 -0.79503210435E+02  0.46357732597E+02  0.97701539453E+03  0.98134034922E+03  0.00000000000E+00 0. -1.
<mgrwt>
<rscale>  0 0.64453013E+03</rscale>
<asrwt>0</asrwt>
<pdfrwt beam="1">0</pdfrwt>
<pdfrwt beam="2">  1        2 0.37765451E+00 0.64453013E+03</pdfrwt>
<totfact> 0.48241266E+00</totfact>
</mgrwt>
</event>
<event>
 5    1  0.2311484E-004  0.6533005E+03  0.7818608E-02  0.9800606E-01
         13   -1    0    0    0    0  0.00000000000E+00  0.00000000000E+00  0.10000000000E+04  0.10000000000E+04  0.00000000000E+00 0. -1.
          2   -1    0    0  501    0 -0.00000000000E+00 -0.00000000000E+00 -0.10670039136E+03  0.10670039136E+03  0.00000000000E+00 0. -1.
    9000006    2    1    2  501    0  0.00000000000E+00  0.00000000000E+00  0.89329960864E+03  0.11067003914E+04  0.65330051694E+03 0.  0.
         13    1    3    3    0    0  0.33436001563E+02 -0.46374979795E+02  0.99145855490E+03  0.99310556893E+03  0.00000000000E+00 0. -1.
          4    1    3    3  501    0 -0.33436001563E+02  0.46374979795E+02 -0.98158946260E+02  0.11359482243E+03  0.00000000000E+00 0. -1.
<mgrwt>
<rscale>  0 0.65330052E+03</rscale>
<asrwt>0</asrwt>
<pdfrwt beam="1">0</pdfrwt>
<pdfrwt beam="2">  1        2 0.38800224E+00 0.65330052E+03</pdfrwt>
<totfact> 0.44142536E+00</totfact>
</mgrwt>
</event>
<event>
 5    1  0.2311484E-004  0.6404321E+03  0.7818608E-02  0.9824900E-01
         13   -1    0    0    0    0  0.00000000000E+00  0.00000000000E+00  0.10000000000E+04  0.10000000000E+04  0.00000000000E+00 0. -1.
          2   -1    0    0  501    0 -0.00000000000E+00 -0.00000000000E+00 -0.10253831987E+03  0.10253831987E+03  0.00000000000E+00 0. -1.
    9000006    2    1    2  501    0  0.00000000000E+00  0.00000000000E+00  0.89746168013E+03  0.11025383199E+04  0.64043210373E+03 0.  0.
         13    1    3    3    0    0  0.24064985139E+03  0.18853527530E+03  0.61277982206E+03  0.68480435990E+03  0.00000000000E+00 0. -1.
          2    1    3    3  501    0 -0.24064985139E+03 -0.18853527530E+03  0.28468185806E+03  0.41773395998E+03  0.00000000000E+00 0. -1.
<mgrwt>
<rscale>  0 0.64043210E+03</rscale>
<asrwt>0</asrwt>
<pdfrwt beam="1">0</pdfrwt>
<pdfrwt beam="2">  1        2 0.37286740E+00 0.64043210E+03</pdfrwt>
<totfact> 0.50252275E+00</totfact>
</mgrwt>
</event>
<event>
 5    1  0.2311484E-004  0.6551510E+03  0.7818608E-02  0.9797161E-01
         13   -1    0    0    0    0  0.00000000000E+00  0.00000000000E+00  0.10000000000E+04  0.10000000000E+04  0.00000000000E+00 0. -1.
          2   -1    0    0  501    0 -0.00000000000E+00 -0.00000000000E+00 -0.10730569773E+03  0.10730569773E+03  0.00000000000E+00 0. -1.
    9000006    2    1    2  501    0  0.00000000000E+00  0.00000000000E+00  0.89269430227E+03  0.11073056977E+04  0.65515096803E+03 0.  0.
         13    1    3    3    0    0  0.30721082016E+03  0.10808592073E+03  0.50597492907E+03  0.60172392601E+03  0.00000000000E+00 0. -1.
          2    1    3    3  501    0 -0.30721082016E+03 -0.10808592073E+03  0.38671937320E+03  0.50558177172E+03  0.00000000000E+00 0. -1.
<mgrwt>
<rscale>  0 0.65515097E+03</rscale>
<asrwt>0</asrwt>
<pdfrwt beam="1">0</pdfrwt>
<pdfrwt beam="2">  1        2 0.39020336E+00 0.65515097E+03</pdfrwt>
<totfact> 0.43312502E+00</totfact>
</mgrwt>
</event>
<event>
 5    1  0.2311484E-004  0.6443630E+03  0.7818608E-02  0.9817415E-01
         13   -1    0    0    0    0  0.00000000000E+00  0.00000000000E+00  0.10000000000E+04  0.10000000000E+04  0.00000000000E+00 0. -1.
          2   -1    0    0  501    0 -0.00000000000E+00 -0.00000000000E+00 -0.10380090310E+03  0.10380090310E+03  0.00000000000E+00 0. -1.
    9000006    2    1    2  501    0  0.00000000000E+00  0.00000000000E+00  0.89619909690E+03  0.11038009031E+04  0.64436295081E+03 0.  0.
         13    1    3    3    0    0 -0.22041829824E+03 -0.24141033474E+02  0.47702161086E+02  0.22680941751E+03  0.00000000000E+00 0. -1.
          4    1    3    3  501    0  0.22041829824E+03  0.24141033474E+02  0.84849693582E+03  0.87699148559E+03  0.00000000000E+00 0. -1.
<mgrwt>
<rscale>  0 0.64436295E+03</rscale>
<asrwt>0</asrwt>
<pdfrwt beam="1">0</pdfrwt>
<pdfrwt beam="2">  1        2 0.37745863E+00 0.64436295E+03</pdfrwt>
<totfact> 0.48322086E+00</totfact>
</mgrwt>
</event>
<event>
 5    1  0.2311484E-004  0.6508913E+03  0.7818608E-02  0.9805108E-01
         13   -1    0    0    0    0  0.00000000000E+00  0.00000000000E+00  0.10000000000E+04  0.10000000000E+04  0.00000000000E+00 0. -1.
          2   -1    0    0  501    0 -0.00000000000E+00 -0.00000000000E+00 -0.10591488087E+03  0.10591488087E+03  0.00000000000E+00 0. -1.
    9000006    2    1    2  501    0  0.00000000000E+00  0.00000000000E+00  0.89408511913E+03  0.11059148809E+04  0.65089133000E+03 0.  0.
         13    1    3    3    0    0 -0.21877068258E+03  0.61497015178E+02  0.51218057205E+02  0.23295017453E+03  0.00000000000E+00 0. -1.
          4    1    3    3  501    0  0.21877068258E+03 -0.61497015178E+02  0.84286706193E+03  0.87296470634E+03  0.00000000000E+00 0. -1.
<mgrwt>
<rscale>  0 0.65089133E+03</rscale>
<asrwt>0</asrwt>
<pdfrwt beam="1">0</pdfrwt>
<pdfrwt beam="2">  1        2 0.38514583E+00 0.65089133E+03</pdfrwt>
<totfact> 0.45241133E+00</totfact>
</mgrwt>
</event>
<event>
 5    1  0.2311484E-004  0.6492112E+03  0.7818608E-02  0.9808260E-01
         13   -1    0    0    0    0  0.00000000000E+00  0.00000000000E+00  0.10000000000E+04  0.10000000000E+04  0.00000000000E+00 0. -1.
          2   -1    0    0  501    0 -0.00000000000E+00 -0.00000000000E+00 -0.10536880425E+03  0.10536880425E+03  0.00000000000E+00 0. -1.
    9000006    2    1    2  501    0  0.00000000000E+00  0.00000000000E+00  0.89463119575E+03  0.11053688042E+04  0.64921122679E+03 0.  0.
         13    1    3    3    0    0 -0.14219526350E+02  0.11218938385E+02  0.99913895426E+03  0.99930311189E+03  0.00000000000E+00 0. -1.
          2    1    3    3  501    0  0.14219526350E+02 -0.11218938385E+02 -0.10450775851E+03  0.10606569236E+03  0.00000000000E+00 0. -1.
<mgrwt>
<rscale>  0 0.64921123E+03</rscale>
<asrwt>0</asrwt>
<pdfrwt beam="1">0</pdfrwt>
<pdfrwt beam="2">  1        2 0.38316010E+00 0.64921123E+03</pdfrwt>
<totfact> 0.46019404E+00</totfact>
</mgrwt>
</event>
<event>
 5    1  0.2311484E-004  0.6459629E+03  0.7818608E-02  0.9814384E-01
         13   -1    0    0    0    0  0.00000000000E+00  0.00000000000E+00  0.10000000000E+04  0.10000000000E+04  0.00000000000E+00 0. -1.
          2   -1    0    0  501    0 -0.00000000000E+00 -0.00000000000E+00 -0.10431702987E+03  0.10431702987E+03  0.00000000000E+00 0. -1.
    9000006    2    1    2  501    0  0.00000000000E+00  0.00000000000E+00  0.89568297013E+03  0.11043170299E+04  0.64596293970E+03 0.  0.
         13    1    3    3    0    0 -0.87872321736E+02  0.28287787603E+03  0.22774115498E+03  0.37364083201E+03  0.00000000000E+00 0. -1.
          4    1    3    3  501    0  0.87872321736E+02 -0.28287787603E+03  0.66794181515E+03  0.73067619785E+03  0.00000000000E+00 0. -1.
<mgrwt>
<rscale>  0 0.64596294E+03</rscale>
<asrwt>0</asrwt>
<pdfrwt beam="1">0</pdfrwt>
<pdfrwt beam="2">  1        2 0.37933545E+00 0.64596294E+03</pdfrwt>
<totfact> 0.47552759E+00</totfact>
</mgrwt>
</event>
<event>
 5    1  0.2311484E-004  0.6489606E+03  0.7818608E-02  0.9808732E-01
         13   -1    0    0    0    0  0.00000000000E+00  0.00000000000E+00  0.10000000000E+04  0.10000000000E+04  0.00000000000E+00 0. -1.
          2   -1    0    0  501    0 -0.00000000000E+00 -0.00000000000E+00 -0.10528745416E+03  0.10528745416E+03  0.00000000000E+00 0. -1.
    9000006    2    1    2  501    0  0.00000000000E+00  0.00000000000E+00  0.89471254584E+03  0.11052874542E+04  0.64896056632E+03 0.  0.
         13    1    3    3    0    0 -0.19469073342E+03  0.86561627944E+02  0.30549952556E+02  0.21524566596E+03  0.00000000000E+00 0. -1.
          4    1    3    3  501    0  0.19469073342E+03 -0.86561627944E+02  0.86416259329E+03  0.89004178820E+03  0.00000000000E+00 0. -1.
<mgrwt>
<rscale>  0 0.64896057E+03</rscale>
<asrwt>0</asrwt>
<pdfrwt beam="1">0</pdfrwt>
<pdfrwt beam="2">  1        2 0.38286428E+00 0.64896057E+03</pdfrwt>
<totfact> 0.46136378E+00</totfact>
</mgrwt>
</event>
<event>
 5    1  0.2311484E-004  0.6521259E+03  0.7818608E-02  0.9802798E-01
         13   -1    0    0    0    0  0.00000000000E+00  0.00000000000E+00  0.10000000000E+04  0.10000000000E+04  0.00000000000E+00 0. -1.
          2   -1    0    0  501    0 -0.00000000000E+00 -0.00000000000E+00 -0.10631704078E+03  0.10631704078E+03  0.00000000000E+00 0. -1.
    9000006    2    1    2  501    0  0.00000000000E+00  0.00000000000E+00  0.89368295922E+03  0.11063170408E+04  0.65212587983E+03 0.  0.
         13    1    3    3    0    0  0.52174610124E+02  0.26629086988E+03  0.75354299589E+03  0.80091202012E+03  0.00000000000E+00 0. -1.
          2    1    3    3  501    0 -0.52174610124E+02 -0.26629086988E+03  0.14013996332E+03  0.30540502066E+03  0.00000000000E+00 0. -1.
<mgrwt>
<rscale>  0 0.65212588E+03</rscale>
<asrwt>0</asrwt>
<pdfrwt beam="1">0</pdfrwt>
<pdfrwt beam="2">  1        2 0.38660824E+00 0.65212588E+03</pdfrwt>
<totfact> 0.44675625E+00</totfact>
</mgrwt>
</event>
<event>
 5    1  0.2311484E-004  0.5790123E+03  0.7818608E-02  0.9949932E-01
         13   -1    0    0    0    0  0.00000000000E+00  0.00000000000E+00  0.10000000000E+04  0.10000000000E+04  0.00000000000E+00 0. -1.
          2   -1    0    0  501    0 -0.00000000000E+00 -0.00000000000E+00 -0.83813814612E+02  0.83813814612E+02  0.00000000000E+00 0. -1.
    9000006    2    1    2  501    0  0.00000000000E+00  0.00000000000E+00  0.91618618539E+03  0.10838138146E+04  0.57901231286E+03 0.  0.
         13    1    3    3    0    0  0.26611798527E+03 -0.99278030817E+02  0.56296422997E+03  0.63055819217E+03  0.00000000000E+00 0. -1.
          4    1    3    3  501    0 -0.26611798527E+03  0.99278030817E+02  0.35322195541E+03  0.45325562244E+03  0.00000000000E+00 0. -1.
<mgrwt>
<rscale>  0 0.57901231E+03</rscale>
<asrwt>0</asrwt>
<pdfrwt beam="1">0</pdfrwt>
<pdfrwt beam="2">  1        2 0.30477815E+00 0.57901231E+03</pdfrwt>
<totfact> 0.88762443E+00</totfact>
</mgrwt>
</event>
<event>
 5    1  0.2311484E-004  0.6398895E+03  0.7818608E-02  0.9825938E-01
         13   -1    0    0    0    0  0.00000000000E+00  0.00000000000E+00  0.10000000000E+04  0.10000000000E+04  0.00000000000E+00 0. -1.
          2   -1    0    0  501    0 -0.00000000000E+00 -0.00000000000E+00 -0.10236465384E+03  0.10236465384E+03  0.00000000000E+00 0. -1.
    9000006    2    1    2  501    0  0.00000000000E+00  0.00000000000E+00  0.89763534616E+03  0.11023646538E+04  0.63988953371E+03 0.  0.
         13    1    3    3    0    0 -0.81910949367E+02 -0.16543310503E+03 -0.13659876849E+01  0.18460601775E+03  0.00000000000E+00 0. -1.
          2    1    3    3  501    0  0.81910949367E+02  0.16543310503E+03  0.89900133385E+03  0.91775863609E+03  0.00000000000E+00 0. -1.
<mgrwt>
<rscale>  0 0.63988953E+03</rscale>
<asrwt>0</asrwt>
<pdfrwt beam="1">0</pdfrwt>
<pdfrwt beam="2">  1        2 0.37223589E+00 0.63988953E+03</pdfrwt>
<totfact> 0.50523222E+00</totfact>
</mgrwt>
</event>
<event>
 5    1  0.2311484E-004  0.6621633E+03  0.7818608E-02  0.9784220E-01
         13   -1    0    0    0    0  0.00000000000E+00  0.00000000000E+00  0.10000000000E+04  0.10000000000E+04  0.00000000000E+00 0. -1.
          2   -1    0    0  501    0 -0.00000000000E+00 -0.00000000000E+00 -0.10961505995E+03  0.10961505995E+03  0.00000000000E+00 0. -1.
    9000006    2    1    2  501    0  0.00000000000E+00  0.00000000000E+00  0.89038494005E+03  0.11096150600E+04  0.66216330298E+03 0.  0.
         13    1    3    3    0    0  0.10273358962E+03  0.19933903186E+02  0.97155566281E+03  0.97717549952E+03  0.00000000000E+00 0. -1.
          4    1    3    3  501    0 -0.10273358962E+03 -0.19933903186E+02 -0.81170722762E+02  0.13243956043E+03  0.00000000000E+00 0. -1.
<mgrwt>
<rscale>  0 0.66216330E+03</rscale>
<asrwt>0</asrwt>
<pdfrwt beam="1">0</pdfrwt>
<pdfrwt beam="2">  1        2 0.39860106E+00 0.66216330E+03</pdfrwt>
<totfact> 0.40273689E+00</totfact>
</mgrwt>
</event>
<event>
 5    1  0.2311484E-004  0.6493238E+03  0.7818608E-02  0.9808049E-01
         13   -1    0    0    0    0  0.00000000000E+00  0.00000000000E+00  0.10000000000E+04  0.10000000000E+04  0.00000000000E+00 0. -1.
          2   -1    0    0  501    0 -0.00000000000E+00 -0.00000000000E+00 -0.10540533485E+03  0.10540533485E+03  0.00000000000E+00 0. -1.
    9000006    2    1    2  501    0  0.00000000000E+00  0.00000000000E+00  0.89459466515E+03  0.11054053349E+04  0.64932375546E+03 0.  0.
         13    1    3    3    0    0  0.25980171236E+03 -0.15576888997E+03  0.64615319973E+03  0.71363494474E+03  0.00000000000E+00 0. -1.
          4    1    3    3  501    0 -0.25980171236E+03  0.15576888997E+03  0.24844146542E+03  0.39177039011E+03  0.00000000000E+00 0. -1.
<mgrwt>
<rscale>  0 0.64932376E+03</rscale>
<asrwt>0</asrwt>
<pdfrwt beam="1">0</pdfrwt>
<pdfrwt beam="2">  1        2 0.38329293E+00 0.64932376E+03</pdfrwt>
<totfact> 0.45966963E+00</totfact>
</mgrwt>
</event>
<event>
 5    1  0.2311484E-004  0.5820978E+03  0.7818608E-02  0.9943260E-01
         13   -1    0    0    0    0  0.00000000000E+00  0.00000000000E+00  0.10000000000E+04  0.10000000000E+04  0.00000000000E+00 0. -1.
          2   -1    0    0  501    0 -0.00000000000E+00 -0.00000000000E+00 -0.84709457231E+02  0.84709457231E+02  0.00000000000E+00 0. -1.
    9000006    2    1    2  501    0  0.00000000000E+00  0.00000000000E+00  0.91529054277E+03  0.10847094572E+04  0.58209778296E+03 0.  0.
         13    1    3    3    0    0  0.28677510515E+03  0.49651865333E+02  0.46145900232E+03  0.54557279944E+03  0.00000000000E+00 0. -1.
          2    1    3    3  501    0 -0.28677510515E+03 -0.49651865333E+02  0.45383154045E+03  0.53913665779E+03  0.00000000000E+00 0. -1.
<mgrwt>
<rscale>  0 0.58209778E+03</rscale>
<asrwt>0</asrwt>
<pdfrwt beam="1">0</pdfrwt>
<pdfrwt beam="2">  1        2 0.30803504E+00 0.58209778E+03</pdfrwt>
<totfact> 0.86409636E+00</totfact>
</mgrwt>
</event>
<event>
 5    1  0.2311484E-004  0.6388594E+03  0.7818608E-02  0.9827911E-01
         13   -1    0    0    0    0  0.00000000000E+00  0.00000000000E+00  0.10000000000E+04  0.10000000000E+04  0.00000000000E+00 0. -1.
          2   -1    0    0  501    0 -0.00000000000E+00 -0.00000000000E+00 -0.10203533213E+03  0.10203533213E+03  0.00000000000E+00 0. -1.
    9000006    2    1    2  501    0  0.00000000000E+00  0.00000000000E+00  0.89796466787E+03  0.11020353321E+04  0.63885939653E+03 0.  0.
         13    1    3    3    0    0  0.26338735909E+03 -0.14788036326E+03  0.26976582802E+03  0.40498778343E+03  0.00000000000E+00 0. -1.
          2    1    3    3  501    0 -0.26338735909E+03  0.14788036326E+03  0.62819883985E+03  0.69704754870E+03  0.00000000000E+00 0. -1.
<mgrwt>
<rscale>  0 0.63885940E+03</rscale>
<asrwt>0</asrwt>
<pdfrwt beam="1">0</pdfrwt>
<pdfrwt beam="2">  1        2 0.37103835E+00 0.63885940E+03</pdfrwt>
<totfact> 0.51040692E+00</totfact>
</mgrwt>
</event>
<event>
 5    1  0.2311484E-004  0.6447310E+03  0.7818608E-02  0.9816717E-01
         13   -1    0    0    0    0  0.00000000000E+00  0.00000000000E+00  0.10000000000E+04  0.10000000000E+04  0.00000000000E+00 0. -1.
          2   -1    0    0  501    0 -0.00000000000E+00 -0.00000000000E+00 -0.10391950237E+03  0.10391950237E+03  0.00000000000E+00 0. -1.
    9000006    2    1    2  501    0  0.00000000000E+00  0.00000000000E+00  0.89608049763E+03  0.11039195024E+04  0.64473095900E+03 0.  0.
         13    1    3    3    0    0  0.18032442960E+03 -0.24502489060E+03  0.26550306427E+03  0.40378951703E+03  0.00000000000E+00 0. -1.
          2    1    3    3  501    0 -0.18032442960E+03  0.24502489060E+03  0.63057743335E+03  0.70012998535E+03  0.00000000000E+00 0. -1.
<mgrwt>
<rscale>  0 0.64473096E+03</rscale>
<asrwt>0</asrwt>
<pdfrwt beam="1">0</pdfrwt>
<pdfrwt beam="2">  1        2 0.37788990E+00 0.64473096E+03</pdfrwt>
<totfact> 0.48144308E+00</totfact>
</mgrwt>
</event>
<event>
 5    1  0.2311484E-004  0.6644637E+03  0.7818608E-02  0.9780011E-01
         13   -1    0    0    0    0  0.00000000000E+00  0.00000000000E+00  0.10000000000E+04  0.10000000000E+04  0.00000000000E+00 0. -1.
          2   -1    0    0  501    0 -0.00000000000E+00 -0.00000000000E+00 -0.11037798836E+03  0.11037798836E+03  0.00000000000E+00 0. -1.
    9000006    2    1    2  501    0  0.00000000000E+00  0.00000000000E+00  0.88962201164E+03  0.11103779884E+04  0.66446365848E+03 0.  0.
         13    1    3    3    0    0  0.18643281644E+03 -0.25657536333E+03  0.27946709261E+03  0.42271736180E+03  0.00000000000E+00 0. -1.
          4    1    3    3  501    0 -0.18643281644E+03  0.25657536333E+03  0.61015491903E+03  0.68766062656E+03  0.00000000000E+00 0. -1.
<mgrwt>
<rscale>  0 0.66446366E+03</rscale>
<asrwt>0</asrwt>
<pdfrwt beam="1">0</pdfrwt>
<pdfrwt beam="2">  1        2 0.40137535E+00 0.66446366E+03</pdfrwt>
<totfact> 0.39312825E+00</totfact>
</mgrwt>
</event>
<event>
 5    1  0.2311484E-004  0.6081224E+03  0.7818608E-02  0.9888696E-01
         13   -1    0    0    0    0  0.00000000000E+00  0.00000000000E+00  0.10000000000E+04  0.10000000000E+04  0.00000000000E+00 0. -1.
          2   -1    0    0  501    0 -0.00000000000E+00 -0.00000000000E+00 -0.92453223884E+02  0.92453223884E+02  0.00000000000E+00 0. -1.
    9000006    2    1    2  501    0  0.00000000000E+00  0.00000000000E+00  0.90754677612E+03  0.10924532239E+04  0.60812243466E+03 0.  0.
         13    1    3    3    0    0  0.22781175197E+03  0.42571046065E+02  0.80736908102E+03  0.83997340510E+03  0.00000000000E+00 0. -1.
          4    1    3    3  501    0 -0.22781175197E+03 -0.42571046065E+02  0.10017769510E+03  0.25247981878E+03  0.00000000000E+00 0. -1.
<mgrwt>
<rscale>  0 0.60812243E+03</rscale>
<asrwt>0</asrwt>
<pdfrwt beam="1">0</pdfrwt>
<pdfrwt beam="2">  1        2 0.33619425E+00 0.60812243E+03</pdfrwt>
<totfact> 0.68424813E+00</totfact>
</mgrwt>
</event>
<event>
 5    1  0.2311484E-004  0.5606233E+03  0.7818608E-02  0.9990645E-01
         13   -1    0    0    0    0  0.00000000000E+00  0.00000000000E+00  0.10000000000E+04  0.10000000000E+04  0.00000000000E+00 0. -1.
          2   -1    0    0  501    0 -0.00000000000E+00 -0.00000000000E+00 -0.78574613123E+02  0.78574613123E+02  0.00000000000E+00 0. -1.
    9000006    2    1    2  501    0  0.00000000000E+00  0.00000000000E+00  0.92142538688E+03  0.10785746131E+04  0.56062327145E+03 0.  0.
         13    1    3    3    0    0 -0.31523159321E+01  0.21893205201E+03  0.79743888992E+03  0.82695221364E+03  0.00000000000E+00 0. -1.
          2    1    3    3  501    0  0.31523159321E+01 -0.21893205201E+03  0.12398649696E+03  0.25162239948E+03  0.00000000000E+00 0. -1.
<mgrwt>
<rscale>  0 0.56062327E+03</rscale>
<asrwt>0</asrwt>
<pdfrwt beam="1">0</pdfrwt>
<pdfrwt beam="2">  1        2 0.28572647E+00 0.56062327E+03</pdfrwt>
<totfact> 0.10383764E+01</totfact>
</mgrwt>
</event>
<event>
 5    1  0.2311484E-004  0.6309459E+03  0.7818608E-02  0.9843205E-01
         13   -1    0    0    0    0  0.00000000000E+00  0.00000000000E+00  0.10000000000E+04  0.10000000000E+04  0.00000000000E+00 0. -1.
          2   -1    0    0  501    0 -0.00000000000E+00 -0.00000000000E+00 -0.99523176434E+02  0.99523176434E+02  0.00000000000E+00 0. -1.
    9000006    2    1    2  501    0  0.00000000000E+00  0.00000000000E+00  0.90047682357E+03  0.10995231764E+04  0.63094588178E+03 0.  0.
         13    1    3    3    0    0  0.14212263702E+03  0.97616601993E+02  0.91062797011E+03  0.92680696204E+03  0.00000000000E+00 0. -1.
          4    1    3    3  501    0 -0.14212263702E+03 -0.97616601993E+02 -0.10151146547E+02  0.17271621439E+03  0.00000000000E+00 0. -1.
<mgrwt>
<rscale>  0 0.63094588E+03</rscale>
<asrwt>0</asrwt>
<pdfrwt beam="1">0</pdfrwt>
<pdfrwt beam="2">  1        2 0.36190322E+00 0.63094588E+03</pdfrwt>
<totfact> 0.55151075E+00</totfact>
</mgrwt>
</event>
<event>
 5    1  0.2311484E-004  0.6689305E+03  0.7818608E-02  0.9771892E-01
         13   -1    0    0    0    0  0.00000000000E+00  0.00000000000E+00  0.10000000000E+04  0.10000000000E+04  0.00000000000E+00 0. -1.
          2   -1    0    0  501    0 -0.00000000000E+00 -0.00000000000E+00 -0.11186699829E+03  0.11186699829E+03  0.00000000000E+00 0. -1.
    9000006    2    1    2  501    0  0.00000000000E+00  0.00000000000E+00  0.88813300171E+03  0.11118669983E+04  0.66893048455E+03 0.  0.
         13    1    3    3    0    0 -0.20652242686E+03  0.25678948946E+03  0.34895043661E+03  0.47995704173E+03  0.00000000000E+00 0. -1.
          2    1    3    3  501    0  0.20652242686E+03 -0.25678948946E+03  0.53918256510E+03  0.63190995656E+03  0.00000000000E+00 0. -1.
<mgrwt>
<rscale>  0 0.66893048E+03</rscale>
<asrwt>0</asrwt>
<pdfrwt beam="1">0</pdfrwt>
<pdfrwt beam="2">  1        2 0.40678994E+00 0.66893048E+03</pdfrwt>
<totfact> 0.37496495E+00</totfact>
</mgrwt>
</event>
<event>
 5    1  0.2311484E-004  0.6255078E+03  0.7818608E-02  0.9853854E-01
         13   -1    0    0    0    0  0.00000000000E+00  0.00000000000E+00  0.10000000000E+04  0.10000000000E+04  0.00000000000E+00 0. -1.
          2   -1    0    0  501    0 -0.00000000000E+00 -0.00000000000E+00 -0.97815010575E+02  0.97815010575E+02  0.00000000000E+00 0. -1.
    9000006    2    1    2  501    0  0.00000000000E+00  0.00000000000E+00  0.90218498943E+03  0.10978150106E+04  0.62550782753E+03 0.  0.
         13    1    3    3    0    0 -0.90513689709E+02 -0.93162299612E+02 -0.48235882369E+02  0.13855916585E+03  0.00000000000E+00 0. -1.
          2    1    3    3  501    0  0.90513689709E+02  0.93162299612E+02  0.95042087179E+03  0.95925584472E+03  0.00000000000E+00 0. -1.
<mgrwt>
<rscale>  0 0.62550783E+03</rscale>
<asrwt>0</asrwt>
<pdfrwt beam="1">0</pdfrwt>
<pdfrwt beam="2">  1        2 0.35569170E+00 0.62550783E+03</pdfrwt>
<totfact> 0.58117992E+00</totfact>
</mgrwt>
</event>
<event>
 5    1  0.2311484E-004  0.6658361E+03  0.7818608E-02  0.9777509E-01
         13   -1    0    0    0    0  0.00000000000E+00  0.00000000000E+00  0.10000000000E+04  0.10000000000E+04  0.00000000000E+00 0. -1.
          2   -1    0    0  501    0 -0.00000000000E+00 -0.00000000000E+00 -0.11083444455E+03  0.11083444455E+03  0.00000000000E+00 0. -1.
    9000006    2    1    2  501    0  0.00000000000E+00  0.00000000000E+00  0.88916555545E+03  0.11108344445E+04  0.66583614965E+03 0.  0.
         13    1    3    3    0    0 -0.30679356540E+03 -0.60843150486E+02  0.25428881105E+03  0.40309673796E+03  0.00000000000E+00 0. -1.
          2    1    3    3  501    0  0.30679356540E+03  0.60843150486E+02  0.63487674441E+03  0.70773770658E+03  0.00000000000E+00 0. -1.
<mgrwt>
<rscale>  0 0.66583615E+03</rscale>
<asrwt>0</asrwt>
<pdfrwt beam="1">0</pdfrwt>
<pdfrwt beam="2">  1        2 0.40303519E+00 0.66583615E+03</pdfrwt>
<totfact> 0.38747829E+00</totfact>
</mgrwt>
</event>
<event>
 5    1  0.2311484E-004  0.5937882E+03  0.7818608E-02  0.9918378E-01
         13   -1    0    0    0    0  0.00000000000E+00  0.00000000000E+00  0.10000000000E+04  0.10000000000E+04  0.00000000000E+00 0. -1.
          2   -1    0    0  501    0 -0.00000000000E+00 -0.00000000000E+00 -0.88146094048E+02  0.88146094048E+02  0.00000000000E+00 0. -1.
    9000006    2    1    2  501    0  0.00000000000E+00  0.00000000000E+00  0.91185390595E+03  0.10881460940E+04  0.59378815767E+03 0.  0.
         13    1    3    3    0    0  0.56098591856E+02 -0.23965777582E+03  0.15168406501E+03  0.28912100771E+03  0.00000000000E+00 0. -1.
          2    1    3    3  501    0 -0.56098591856E+02  0.23965777582E+03  0.76016984094E+03  0.79902508634E+03  0.00000000000E+00 0. -1.
<mgrwt>
<rscale>  0 0.59378816E+03</rscale>
<asrwt>0</asrwt>
<pdfrwt beam="1">0</pdfrwt>
<pdfrwt beam="2">  1        2 0.32053193E+00 0.59378816E+03</pdfrwt>
<totfact> 0.77928674E+00</totfact>
</mgrwt>
</event>
<event>
 5    1  0.2311484E-004  0.6393137E+03  0.7818608E-02  0.9827040E-01
         13   -1    0    0    0    0  0.00000000000E+00  0.00000000000E+00  0.10000000000E+04  0.10000000000E+04  0.00000000000E+00 0. -1.
          2   -1    0    0  501    0 -0.00000000000E+00 -0.00000000000E+00 -0.10218051033E+03  0.10218051033E+03  0.00000000000E+00 0. -1.
    9000006    2    1    2  501    0  0.00000000000E+00  0.00000000000E+00  0.89781948967E+03  0.11021805103E+04  0.63931372683E+03 0.  0.
         13    1    3    3    0    0 -0.79426007778E+02 -0.11564822226E+03 -0.46265715122E+02  0.14772785255E+03  0.00000000000E+00 0. -1.
          2    1    3    3  501    0  0.79426007778E+02  0.11564822226E+03  0.94408520480E+03  0.95445265778E+03  0.00000000000E+00 0. -1.
<mgrwt>
<rscale>  0 0.63931373E+03</rscale>
<asrwt>0</asrwt>
<pdfrwt beam="1">0</pdfrwt>
<pdfrwt beam="2">  1        2 0.37156628E+00 0.63931373E+03</pdfrwt>
<totfact> 0.50811975E+00</totfact>
</mgrwt>
</event>
<event>
 5    1  0.2311484E-004  0.6497045E+03  0.7818608E-02  0.9807334E-01
         13   -1    0    0    0    0  0.00000000000E+00  0.00000000000E+00  0.10000000000E+04  0.10000000000E+04  0.00000000000E+00 0. -1.
          2   -1    0    0  501    0 -0.00000000000E+00 -0.00000000000E+00 -0.10552898602E+03  0.10552898602E+03  0.00000000000E+00 0. -1.
    9000006    2    1    2  501    0  0.00000000000E+00  0.00000000000E+00  0.89447101398E+03  0.11055289860E+04  0.64970450519E+03 0.  0.
         13    1    3    3    0    0 -0.18882930813E+03 -0.90292948283E+02  0.86996838348E+03  0.89479288797E+03  0.00000000000E+00 0. -1.
          4    1    3    3  501    0  0.18882930813E+03  0.90292948283E+02  0.24502630506E+02  0.21073609804E+03  0.00000000000E+00 0. -1.
<mgrwt>
<rscale>  0 0.64970451E+03</rscale>
<asrwt>0</asrwt>
<pdfrwt beam="1">0</pdfrwt>
<pdfrwt beam="2">  1        2 0.38374258E+00 0.64970451E+03</pdfrwt>
<totfact> 0.45789862E+00</totfact>
</mgrwt>
</event>
<event>
 5    1  0.2311484E-004  0.6307138E+03  0.7818608E-02  0.9843657E-01
         13   -1    0    0    0    0  0.00000000000E+00  0.00000000000E+00  0.10000000000E+04  0.10000000000E+04  0.00000000000E+00 0. -1.
          2   -1    0    0  501    0 -0.00000000000E+00 -0.00000000000E+00 -0.99449965720E+02  0.99449965720E+02  0.00000000000E+00 0. -1.
    9000006    2    1    2  501    0  0.00000000000E+00  0.00000000000E+00  0.90055003428E+03  0.10994499657E+04  0.63071377255E+03 0.  0.
         13    1    3    3    0    0 -0.14148725876E+03 -0.11399489284E+03  0.89958542772E+03  0.91775128534E+03  0.00000000000E+00 0. -1.
          4    1    3    3  501    0  0.14148725876E+03  0.11399489284E+03  0.96460656225E+00  0.18169868038E+03  0.00000000000E+00 0. -1.
<mgrwt>
<rscale>  0 0.63071377E+03</rscale>
<asrwt>0</asrwt>
<pdfrwt beam="1">0</pdfrwt>
<pdfrwt beam="2">  1        2 0.36163700E+00 0.63071377E+03</pdfrwt>
<totfact> 0.55275305E+00</totfact>
</mgrwt>
</event>
<event>
 5    1  0.2311484E-004  0.6252377E+03  0.7818608E-02  0.9854386E-01
         13   -1    0    0    0    0  0.00000000000E+00  0.00000000000E+00  0.10000000000E+04  0.10000000000E+04  0.00000000000E+00 0. -1.
          2   -1    0    0  501    0 -0.00000000000E+00 -0.00000000000E+00 -0.97730532133E+02  0.97730532133E+02  0.00000000000E+00 0. -1.
    9000006    2    1    2  501    0  0.00000000000E+00  0.00000000000E+00  0.90226946787E+03  0.10977305321E+04  0.62523765764E+03 0.  0.
         13    1    3    3    0    0 -0.15513994049E+02  0.31028796218E+03  0.51223789568E+03  0.59908844527E+03  0.00000000000E+00 0. -1.
          2    1    3    3  501    0  0.15513994049E+02 -0.31028796218E+03  0.39003157219E+03  0.49864208686E+03  0.00000000000E+00 0. -1.
<mgrwt>
<rscale>  0 0.62523766E+03</rscale>
<asrwt>0</asrwt>
<pdfrwt beam="1">0</pdfrwt>
<pdfrwt beam="2">  1        2 0.35538450E+00 0.62523766E+03</pdfrwt>
<totfact> 0.58268498E+00</totfact>
</mgrwt>
</event>
<event>
 5    1  0.2311484E-004  0.6616265E+03  0.7818608E-02  0.9785204E-01
         13   -1    0    0    0    0  0.00000000000E+00  0.00000000000E+00  0.10000000000E+04  0.10000000000E+04  0.00000000000E+00 0. -1.
          2   -1    0    0  501    0 -0.00000000000E+00 -0.00000000000E+00 -0.10943739379E+03  0.10943739379E+03  0.00000000000E+00 0. -1.
    9000006    2    1    2  501    0  0.00000000000E+00  0.00000000000E+00  0.89056260621E+03  0.11094373938E+04  0.66162646196E+03 0.  0.
         13    1    3    3    0    0 -0.27878469659E+03  0.76936554952E+02  0.71460630197E+03  0.77091005141E+03  0.00000000000E+00 0. -1.
          2    1    3    3  501    0  0.27878469659E+03 -0.76936554952E+02  0.17595630424E+03  0.33852734239E+03  0.00000000000E+00 0. -1.
<mgrwt>
<rscale>  0 0.66162646E+03</rscale>
<asrwt>0</asrwt>
<pdfrwt beam="1">0</pdfrwt>
<pdfrwt beam="2">  1        2 0.39795500E+00 0.66162646E+03</pdfrwt>
<totfact> 0.40500455E+00</totfact>
</mgrwt>
</event>
<event>
 5    1  0.2311484E-004  0.6468640E+03  0.7818608E-02  0.9812682E-01
         13   -1    0    0    0    0  0.00000000000E+00  0.00000000000E+00  0.10000000000E+04  0.10000000000E+04  0.00000000000E+00 0. -1.
          2   -1    0    0  501    0 -0.00000000000E+00 -0.00000000000E+00 -0.10460825725E+03  0.10460825725E+03  0.00000000000E+00 0. -1.
    9000006    2    1    2  501    0  0.00000000000E+00  0.00000000000E+00  0.89539174275E+03  0.11046082572E+04  0.64686399574E+03 0.  0.
         13    1    3    3    0    0 -0.14881556740E+03  0.28344327692E+03  0.36903160373E+03  0.48853913751E+03  0.00000000000E+00 0. -1.
          2    1    3    3  501    0  0.14881556740E+03 -0.28344327692E+03  0.52636013903E+03  0.61606911973E+03  0.00000000000E+00 0. -1.
<mgrwt>
<rscale>  0 0.64686400E+03</rscale>
<asrwt>0</asrwt>
<pdfrwt beam="1">0</pdfrwt>
<pdfrwt beam="2">  1        2 0.38039446E+00 0.64686400E+03</pdfrwt>
<totfact> 0.47123602E+00</totfact>
</mgrwt>
</event>
<event>
 5    1  0.2311484E-004  0.6418886E+03  0.7818608E-02  0.9822120E-01
         13   -1    0    0    0    0  0.00000000000E+00  0.00000000000E+00  0.10000000000E+04  0.10000000000E+04  0.00000000000E+00 0. -1.
          2   -1    0    0  501    0 -0.00000000000E+00 -0.00000000000E+00 -0.10300525931E+03  0.10300525931E+03  0.00000000000E+00 0. -1.
    9000006    2    1    2  501    0  0.00000000000E+00  0.00000000000E+00  0.89699474069E+03  0.11030052593E+04  0.64188864863E+03 0.  0.
         13    1    3    3    0    0  0.74582875526E+02 -0.11288825972E+03  0.94859726081E+03  0.95819785416E+03  0.00000000000E+00 0. -1.
          4    1    3    3  501    0 -0.74582875526E+02  0.11288825972E+03 -0.51602520117E+02  0.14480740515E+03  0.00000000000E+00 0. -1.
<mgrwt>
<rscale>  0 0.64188865E+03</rscale>
<asrwt>0</asrwt>
<pdfrwt beam="1">0</pdfrwt>
<pdfrwt beam="2">  1        2 0.37456537E+00 0.64188865E+03</pdfrwt>
<totfact> 0.49530351E+00</totfact>
</mgrwt>
</event>
<event>
 5    1  0.2311484E-004  0.6460233E+03  0.7818608E-02  0.9814270E-01
         13   -1    0    0    0    0  0.00000000000E+00  0.00000000000E+00  0.10000000000E+04  0.10000000000E+04  0.00000000000E+00 0. -1.
          2   -1    0    0  501    0 -0.00000000000E+00 -0.00000000000E+00 -0.10433652283E+03  0.10433652283E+03  0.00000000000E+00 0. -1.
    9000006    2    1    2  501    0  0.00000000000E+00  0.00000000000E+00  0.89566347717E+03  0.11043365228E+04  0.64602329006E+03 0.  0.
         13    1    3    3    0    0 -0.23766965217E+03 -0.12609618057E+03  0.14228004263E+03  0.30435295439E+03  0.00000000000E+00 0. -1.
          4    1    3    3  501    0  0.23766965217E+03  0.12609618057E+03  0.75338343455E+03  0.79998356844E+03  0.00000000000E+00 0. -1.
<mgrwt>
<rscale>  0 0.64602329E+03</rscale>
<asrwt>0</asrwt>
<pdfrwt beam="1">0</pdfrwt>
<pdfrwt beam="2">  1        2 0.37940634E+00 0.64602329E+03</pdfrwt>
<totfact> 0.47523923E+00</totfact>
</mgrwt>
</event>
<event>
 5    1  0.2311484E-004  0.6488652E+03  0.7818608E-02  0.9808911E-01
         13   -1    0    0    0    0  0.00000000000E+00  0.00000000000E+00  0.10000000000E+04  0.10000000000E+04  0.00000000000E+00 0. -1.
          2   -1    0    0  501    0 -0.00000000000E+00 -0.00000000000E+00 -0.10525650858E+03  0.10525650858E+03  0.00000000000E+00 0. -1.
    9000006    2    1    2  501    0  0.00000000000E+00  0.00000000000E+00  0.89474349142E+03  0.11052565086E+04  0.64886518963E+03 0.  0.
         13    1    3    3    0    0  0.80374505597E+02  0.24922419661E+03  0.12112555344E+03  0.28852064228E+03  0.00000000000E+00 0. -1.
          2    1    3    3  501    0 -0.80374505597E+02 -0.24922419661E+03  0.77361793798E+03  0.81673586630E+03  0.00000000000E+00 0. -1.
<mgrwt>
<rscale>  0 0.64886519E+03</rscale>
<asrwt>0</asrwt>
<pdfrwt beam="1">0</pdfrwt>
<pdfrwt beam="2">  1        2 0.38275175E+00 0.64886519E+03</pdfrwt>
<totfact> 0.46180946E+00</totfact>
</mgrwt>
</event>
<event>
 5    1  0.2311484E-004  0.6595603E+03  0.7818608E-02  0.9789003E-01
         13   -1    0    0    0    0  0.00000000000E+00  0.00000000000E+00  0.10000000000E+04  0.10000000000E+04  0.00000000000E+00 0. -1.
          2   -1    0    0  501    0 -0.00000000000E+00 -0.00000000000E+00 -0.10875495836E+03  0.10875495836E+03  0.00000000000E+00 0. -1.
    9000006    2    1    2  501    0  0.00000000000E+00  0.00000000000E+00  0.89124504164E+03  0.11087549584E+04  0.65956033342E+03 0.  0.
         13    1    3    3    0    0  0.52170782956E+02 -0.31762305628E+03  0.32499887530E+03  0.45741716783E+03  0.00000000000E+00 0. -1.
          2    1    3    3  501    0 -0.52170782956E+02  0.31762305628E+03  0.56624616634E+03  0.65133779053E+03  0.00000000000E+00 0. -1.
<mgrwt>
<rscale>  0 0.65956033E+03</rscale>
<asrwt>0</asrwt>
<pdfrwt beam="1">0</pdfrwt>
<pdfrwt beam="2">  1        2 0.39547341E+00 0.65956033E+03</pdfrwt>
<totfact> 0.41382208E+00</totfact>
</mgrwt>
</event>
<event>
 5    1  0.2311484E-004  0.6452421E+03  0.7818608E-02  0.9815748E-01
         13   -1    0    0    0    0  0.00000000000E+00  0.00000000000E+00  0.10000000000E+04  0.10000000000E+04  0.00000000000E+00 0. -1.
          2   -1    0    0  501    0 -0.00000000000E+00 -0.00000000000E+00 -0.10408432626E+03  0.10408432626E+03  0.00000000000E+00 0. -1.
    9000006    2    1    2  501    0  0.00000000000E+00  0.00000000000E+00  0.89591567374E+03  0.11040843263E+04  0.64524205152E+03 0.  0.
         13    1    3    3    0    0 -0.19455670104E+03 -0.11496787882E+03  0.84193996304E+03  0.87174126004E+03  0.00000000000E+00 0. -1.
          2    1    3    3  501    0  0.19455670104E+03  0.11496787882E+03  0.53975710694E+02  0.23234306623E+03  0.00000000000E+00 0. -1.
<mgrwt>
<rscale>  0 0.64524205E+03</rscale>
<asrwt>0</asrwt>
<pdfrwt beam="1">0</pdfrwt>
<pdfrwt beam="2">  1        2 0.37848926E+00 0.64524205E+03</pdfrwt>
<totfact> 0.47898230E+00</totfact>
</mgrwt>
</event>
<event>
 5    1  0.2311484E-004  0.6498861E+03  0.7818608E-02  0.9806993E-01
         13   -1    0    0    0    0  0.00000000000E+00  0.00000000000E+00  0.10000000000E+04  0.10000000000E+04  0.00000000000E+00 0. -1.
          2   -1    0    0  501    0 -0.00000000000E+00 -0.00000000000E+00 -0.10558799832E+03  0.10558799832E+03  0.00000000000E+00 0. -1.
    9000006    2    1    2  501    0  0.00000000000E+00  0.00000000000E+00  0.89441200168E+03  0.11055879983E+04  0.64988613871E+03 0.  0.
         13    1    3    3    0    0 -0.18658028931E+03  0.28146547123E+02 -0.28370655251E+01  0.18871269542E+03  0.00000000000E+00 0. -1.
          2    1    3    3  501    0  0.18658028931E+03 -0.28146547123E+02  0.89724906720E+03  0.91687530290E+03  0.00000000000E+00 0. -1.
<mgrwt>
<rscale>  0 0.64988614E+03</rscale>
<asrwt>0</asrwt>
<pdfrwt beam="1">0</pdfrwt>
<pdfrwt beam="2">  1        2 0.38395717E+00 0.64988614E+03</pdfrwt>
<totfact> 0.45705560E+00</totfact>
</mgrwt>
</event>
<event>
 5    1  0.2311484E-004  0.6473490E+03  0.7818608E-02  0.9811766E-01
         13   -1    0    0    0    0  0.00000000000E+00  0.00000000000E+00  0.10000000000E+04  0.10000000000E+04  0.00000000000E+00 0. -1.
          2   -1    0    0  501    0 -0.00000000000E+00 -0.00000000000E+00 -0.10476516597E+03  0.10476516597E+03  0.00000000000E+00 0. -1.
    9000006    2    1    2  501    0  0.00000000000E+00  0.00000000000E+00  0.89523483403E+03  0.11047651660E+04  0.64734895064E+03 0.  0.
         13    1    3    3    0    0  0.43268400297E+02 -0.24238997534E+03  0.89068647754E+02  0.26183635848E+03  0.00000000000E+00 0. -1.
          2    1    3    3  501    0 -0.43268400297E+02  0.24238997534E+03  0.80616618627E+03  0.84292880749E+03  0.00000000000E+00 0. -1.
<mgrwt>
<rscale>  0 0.64734895E+03</rscale>
<asrwt>0</asrwt>
<pdfrwt beam="1">0</pdfrwt>
<pdfrwt beam="2">  1        2 0.38096504E+00 0.64734895E+03</pdfrwt>
<totfact> 0.46893842E+00</totfact>
</mgrwt>
</event>
<event>
 5    1  0.2311484E-004  0.6488292E+03  0.7818608E-02  0.9808978E-01
         13   -1    0    0    0    0  0.00000000000E+00  0.00000000000E+00  0.10000000000E+04  0.10000000000E+04  0.00000000000E+00 0. -1.
          2   -1    0    0  501    0 -0.00000000000E+00 -0.00000000000E+00 -0.10524484819E+03  0.10524484819E+03  0.00000000000E+00 0. -1.
    9000006    2    1    2  501    0  0.00000000000E+00  0.00000000000E+00  0.89475515181E+03  0.11052448482E+04  0.64882924778E+03 0.  0.
         13    1    3    3    0    0  0.17680286023E+03 -0.86806269233E+02  0.88649073338E+03  0.90810814341E+03  0.00000000000E+00 0. -1.
          4    1    3    3  501    0 -0.17680286023E+03  0.86806269233E+02  0.82644184311E+01  0.19713670479E+03  0.00000000000E+00 0. -1.
<mgrwt>
<rscale>  0 0.64882925E+03</rscale>
<asrwt>0</asrwt>
<pdfrwt beam="1">0</pdfrwt>
<pdfrwt beam="2">  1        2 0.38270935E+00 0.64882925E+03</pdfrwt>
<totfact> 0.46197750E+00</totfact>
</mgrwt>
</event>
<event>
 5    1  0.2311484E-004  0.6184405E+03  0.7818608E-02  0.9867870E-01
         13   -1    0    0    0    0  0.00000000000E+00  0.00000000000E+00  0.10000000000E+04  0.10000000000E+04  0.00000000000E+00 0. -1.
          2   -1    0    0  501    0 -0.00000000000E+00 -0.00000000000E+00 -0.95617153652E+02  0.95617153652E+02  0.00000000000E+00 0. -1.
    9000006    2    1    2  501    0  0.00000000000E+00  0.00000000000E+00  0.90438284635E+03  0.10956171537E+04  0.61844046974E+03 0.  0.
         13    1    3    3    0    0 -0.19958904450E+03  0.18015826419E+02  0.34997174239E+02  0.20343342619E+03  0.00000000000E+00 0. -1.
          4    1    3    3  501    0  0.19958904450E+03 -0.18015826419E+02  0.86938567211E+03  0.89218372747E+03  0.00000000000E+00 0. -1.
<mgrwt>
<rscale>  0 0.61844047E+03</rscale>
<asrwt>0</asrwt>
<pdfrwt beam="1">0</pdfrwt>
<pdfrwt beam="2">  1        2 0.34769947E+00 0.61844047E+03</pdfrwt>
<totfact> 0.62153622E+00</totfact>
</mgrwt>
</event>
<event>
 5    1  0.2311484E-004  0.6589975E+03  0.7818608E-02  0.9790041E-01
         13   -1    0    0    0    0  0.00000000000E+00  0.00000000000E+00  0.10000000000E+04  0.10000000000E+04  0.00000000000E+00 0. -1.
          2   -1    0    0  501    0 -0.00000000000E+00 -0.00000000000E+00 -0.10856942860E+03  0.10856942860E+03  0.00000000000E+00 0. -1.
    9000006    2    1    2  501    0  0.00000000000E+00  0.00000000000E+00  0.89143057140E+03  0.11085694286E+04  0.65899750713E+03 0.  0.
         13    1    3    3    0    0 -0.28028006505E+03 -0.10777867763E+03  0.21755291640E+03  0.37081320048E+03  0.00000000000E+00 0. -1.
          2    1    3    3  501    0  0.28028006505E+03  0.10777867763E+03  0.67387765500E+03  0.73775622812E+03  0.00000000000E+00 0. -1.
<mgrwt>
<rscale>  0 0.65899751E+03</rscale>
<asrwt>0</asrwt>
<pdfrwt beam="1">0</pdfrwt>
<pdfrwt beam="2">  1        2 0.39479875E+00 0.65899751E+03</pdfrwt>
<totfact> 0.41624894E+00</totfact>
</mgrwt>
</event>
<event>
 5    1  0.2311484E-004  0.6539377E+03  0.7818608E-02  0.9799418E-01
         13   -1    0    0    0    0  0.00000000000E+00  0.00000000000E+00  0.10000000000E+04  0.10000000000E+04  0.00000000000E+00 0. -1.
          2   -1    0    0  501    0 -0.00000000000E+00 -0.00000000000E+00 -0.10690863622E+03  0.10690863622E+03  0.00000000000E+00 0. -1.
    9000006    2    1    2  501    0  0.00000000000E+00  0.00000000000E+00  0.89309136378E+03  0.11069086362E+04  0.65393772247E+03 0.  0.
         13    1    3    3    0    0 -0.52294649790E+02 -0.27562845837E+03  0.73080973999E+03  0.78280818438E+03  0.00000000000E+00 0. -1.
          2    1    3    3  501    0  0.52294649790E+02  0.27562845837E+03  0.16228162379E+03  0.32410045184E+03  0.00000000000E+00 0. -1.
<mgrwt>
<rscale>  0 0.65393772E+03</rscale>
<asrwt>0</asrwt>
<pdfrwt beam="1">0</pdfrwt>
<pdfrwt beam="2">  1        2 0.38875950E+00 0.65393772E+03</pdfrwt>
<totfact> 0.43855368E+00</totfact>
</mgrwt>
</event>
<event>
 5    1  0.2311484E-004  0.6111983E+03  0.7818608E-02  0.9882442E-01
         13   -1    0    0    0    0  0.00000000000E+00  0.00000000000E+00  0.10000000000E+04  0.10000000000E+04  0.00000000000E+00 0. -1.
          2   -1    0    0  501    0 -0.00000000000E+00 -0.00000000000E+00 -0.93390839010E+02  0.93390839010E+02  0.00000000000E+00 0. -1.
    9000006    2    1    2  501    0  0.00000000000E+00  0.00000000000E+00  0.90660916099E+03  0.10933908390E+04  0.61119829519E+03 0.  0.
         13    1    3    3    0    0 -0.69781953121E+02  0.22358121443E+03  0.80446725449E+03  0.83786970585E+03  0.00000000000E+00 0. -1.
          4    1    3    3  501    0  0.69781953121E+02 -0.22358121443E+03  0.10214190650E+03  0.25552113316E+03  0.00000000000E+00 0. -1.
<mgrwt>
<rscale>  0 0.61119830E+03</rscale>
<asrwt>0</asrwt>
<pdfrwt beam="1">0</pdfrwt>
<pdfrwt beam="2">  1        2 0.33960377E+00 0.61119830E+03</pdfrwt>
<totfact> 0.66506957E+00</totfact>
</mgrwt>
</event>
<event>
 5    1  0.2311484E-004  0.6461484E+03  0.7818608E-02  0.9814033E-01
         13   -1    0    0    0    0  0.00000000000E+00  0.00000000000E+00  0.10000000000E+04  0.10000000000E+04  0.00000000000E+00 0. -1.
          2   -1    0    0  501    0 -0.00000000000E+00 -0.00000000000E+00 -0.10437693186E+03  0.10437693186E+03  0.00000000000E+00 0. -1.
    9000006    2    1    2  501    0  0.00000000000E+00  0.00000000000E+00  0.89562306814E+03  0.11043769319E+04  0.64614837882E+03 0.  0.
         13    1    3    3    0    0 -0.22599301541E+03 -0.21377694317E+03  0.29877523604E+03  0.43132362110E+03  0.00000000000E+00 0. -1.
          4    1    3    3  501    0  0.22599301541E+03  0.21377694317E+03  0.59684783210E+03  0.67305331076E+03  0.00000000000E+00 0. -1.
<mgrwt>
<rscale>  0 0.64614838E+03</rscale>
<asrwt>0</asrwt>
<pdfrwt beam="1">0</pdfrwt>
<pdfrwt beam="2">  1        2 0.37955328E+00 0.64614838E+03</pdfrwt>
<totfact> 0.47464197E+00</totfact>
</mgrwt>
</event>
<event>
 5    1  0.2311484E-004  0.6419604E+03  0.7818608E-02  0.9821983E-01
         13   -1    0    0    0    0  0.00000000000E+00  0.00000000000E+00  0.10000000000E+04  0.10000000000E+04  0.00000000000E+00 0. -1.
          2   -1    0    0  501    0 -0.00000000000E+00 -0.00000000000E+00 -0.10302830073E+03  0.10302830073E+03  0.00000000000E+00 0. -1.
    9000006    2    1    2  501    0  0.00000000000E+00  0.00000000000E+00  0.89697169927E+03  0.11030283007E+04  0.64196043718E+03 0.  0.
         13    1    3    3    0    0 -0.10023470328E+03  0.92014656170E+02 -0.51024259651E+02  0.14531747233E+03  0.00000000000E+00 0. -1.
          4    1    3    3  501    0  0.10023470328E+03 -0.92014656170E+02  0.94799595892E+03  0.95771082840E+03  0.00000000000E+00 0. -1.
<mgrwt>
<rscale>  0 0.64196044E+03</rscale>
<asrwt>0</asrwt>
<pdfrwt beam="1">0</pdfrwt>
<pdfrwt beam="2">  1        2 0.37464916E+00 0.64196044E+03</pdfrwt>
<totfact> 0.49494973E+00</totfact>
</mgrwt>
</event>
<event>
 5    1  0.2311484E-004  0.6295181E+03  0.7818608E-02  0.9845990E-01
         13   -1    0    0    0    0  0.00000000000E+00  0.00000000000E+00  0.10000000000E+04  0.10000000000E+04  0.00000000000E+00 0. -1.
          2   -1    0    0  501    0 -0.00000000000E+00 -0.00000000000E+00 -0.99073246044E+02  0.99073246044E+02  0.00000000000E+00 0. -1.
    9000006    2    1    2  501    0  0.00000000000E+00  0.00000000000E+00  0.90092675396E+03  0.10990732460E+04  0.62951805707E+03 0.  0.
         13    1    3    3    0    0  0.10001407428E+03  0.28272443582E+03  0.28357427960E+03  0.41273513749E+03  0.00000000000E+00 0. -1.
          4    1    3    3  501    0 -0.10001407428E+03 -0.28272443582E+03  0.61735247436E+03  0.68633810856E+03  0.00000000000E+00 0. -1.
<mgrwt>
<rscale>  0 0.62951806E+03</rscale>
<asrwt>0</asrwt>
<pdfrwt beam="1">0</pdfrwt>
<pdfrwt beam="2">  1        2 0.36026711E+00 0.62951806E+03</pdfrwt>
<totfact> 0.55918651E+00</totfact>
</mgrwt>
</event>
<event>
 5    1  0.2311484E-004  0.5502505E+03  0.7818608E-02  0.1001436E+00
         13   -1    0    0    0    0  0.00000000000E+00  0.00000000000E+00  0.10000000000E+04  0.10000000000E+04  0.00000000000E+00 0. -1.
          2   -1    0    0  501    0 -0.00000000000E+00 -0.00000000000E+00 -0.75693908197E+02  0.75693908197E+02  0.00000000000E+00 0. -1.
    9000006    2    1    2  501    0  0.00000000000E+00  0.00000000000E+00  0.92430609180E+03  0.10756939082E+04  0.55025051821E+03 0.  0.
         13    1    3    3    0    0 -0.18789168902E+03  0.19701580054E+03  0.53974614200E+03  0.60451998335E+03  0.00000000000E+00 0. -1.
          4    1    3    3  501    0  0.18789168902E+03 -0.19701580054E+03  0.38455994980E+03  0.47117392484E+03  0.00000000000E+00 0. -1.
<mgrwt>
<rscale>  0 0.55025052E+03</rscale>
<asrwt>0</asrwt>
<pdfrwt beam="1">0</pdfrwt>
<pdfrwt beam="2">  1        2 0.27525116E+00 0.55025052E+03</pdfrwt>
<totfact> 0.11318352E+01</totfact>
</mgrwt>
</event>
<event>
 5    1  0.2311484E-004  0.6531284E+03  0.7818608E-02  0.9800927E-01
         13   -1    0    0    0    0  0.00000000000E+00  0.00000000000E+00  0.10000000000E+04  0.10000000000E+04  0.00000000000E+00 0. -1.
          2   -1    0    0  501    0 -0.00000000000E+00 -0.00000000000E+00 -0.10664416267E+03  0.10664416267E+03  0.00000000000E+00 0. -1.
    9000006    2    1    2  501    0  0.00000000000E+00  0.00000000000E+00  0.89335583733E+03  0.11066441627E+04  0.65312835698E+03 0.  0.
         13    1    3    3    0    0 -0.15362340761E+03  0.28268332725E+03  0.54153487694E+03  0.62989684696E+03  0.00000000000E+00 0. -1.
          2    1    3    3  501    0  0.15362340761E+03 -0.28268332725E+03  0.35182096039E+03  0.47674731571E+03  0.00000000000E+00 0. -1.
<mgrwt>
<rscale>  0 0.65312836E+03</rscale>
<asrwt>0</asrwt>
<pdfrwt beam="1">0</pdfrwt>
<pdfrwt beam="2">  1        2 0.38779777E+00 0.65312836E+03</pdfrwt>
<totfact> 0.44220365E+00</totfact>
</mgrwt>
</event>
<event>
 5    1  0.2311484E-004  0.7351239E+03  0.7818608E-02  0.9658982E-01
         13   -1    0    0    0    0  0.00000000000E+00  0.00000000000E+00  0.10000000000E+04  0.10000000000E+04  0.00000000000E+00 0. -1.
          2   -1    0    0  501    0 -0.00000000000E+00 -0.00000000000E+00 -0.13510180327E+03  0.13510180327E+03  0.00000000000E+00 0. -1.
    9000006    2    1    2  501    0  0.00000000000E+00  0.00000000000E+00  0.86489819673E+03  0.11351018033E+04  0.73512394403E+03 0.  0.
         13    1    3    3    0    0 -0.23025886195E+03  0.28361693959E+03  0.49505816319E+03  0.61525628551E+03  0.00000000000E+00 0. -1.
          4    1    3    3  501    0  0.23025886195E+03 -0.28361693959E+03  0.36984003354E+03  0.51984551776E+03  0.00000000000E+00 0. -1.
<mgrwt>
<rscale>  0 0.73512394E+03</rscale>
<asrwt>0</asrwt>
<pdfrwt beam="1">0</pdfrwt>
<pdfrwt beam="2">  1        2 0.49128032E+00 0.73512394E+03</pdfrwt>
<totfact> 0.17282439E+00</totfact>
</mgrwt>
</event>
<event>
 5    1  0.2311484E-004  0.6530553E+03  0.7818608E-02  0.9801063E-01
         13   -1    0    0    0    0  0.00000000000E+00  0.00000000000E+00  0.10000000000E+04  0.10000000000E+04  0.00000000000E+00 0. -1.
          2   -1    0    0  501    0 -0.00000000000E+00 -0.00000000000E+00 -0.10662029700E+03  0.10662029700E+03  0.00000000000E+00 0. -1.
    9000006    2    1    2  501    0  0.00000000000E+00  0.00000000000E+00  0.89337970300E+03  0.11066202970E+04  0.65305527177E+03 0.  0.
         13    1    3    3    0    0 -0.10604248922E+02  0.28718167131E+03  0.70939376957E+03  0.76539224110E+03  0.00000000000E+00 0. -1.
          4    1    3    3  501    0  0.10604248922E+02 -0.28718167131E+03  0.18398593344E+03  0.34122805590E+03  0.00000000000E+00 0. -1.
<mgrwt>
<rscale>  0 0.65305527E+03</rscale>
<asrwt>0</asrwt>
<pdfrwt beam="1">0</pdfrwt>
<pdfrwt beam="2">  1        2 0.38771099E+00 0.65305527E+03</pdfrwt>
<totfact> 0.44253437E+00</totfact>
</mgrwt>
</event>
<event>
 5    1  0.2311484E-004  0.6458510E+03  0.7818608E-02  0.9814596E-01
         13   -1    0    0    0    0  0.00000000000E+00  0.00000000000E+00  0.10000000000E+04  0.10000000000E+04  0.00000000000E+00 0. -1.
          2   -1    0    0  501    0 -0.00000000000E+00 -0.00000000000E+00 -0.10428086733E+03  0.10428086733E+03  0.00000000000E+00 0. -1.
    9000006    2    1    2  501    0  0.00000000000E+00  0.00000000000E+00  0.89571913267E+03  0.11042808673E+04  0.64585096526E+03 0.  0.
         13    1    3    3    0    0 -0.32269771619E+02  0.23674043051E+03  0.81929926451E+03  0.85342759179E+03  0.00000000000E+00 0. -1.
          2    1    3    3  501    0  0.32269771619E+02 -0.23674043051E+03  0.76419868155E+02  0.25085327554E+03  0.00000000000E+00 0. -1.
<mgrwt>
<rscale>  0 0.64585097E+03</rscale>
<asrwt>0</asrwt>
<pdfrwt beam="1">0</pdfrwt>
<pdfrwt beam="2">  1        2 0.37920395E+00 0.64585097E+03</pdfrwt>
<totfact> 0.47606297E+00</totfact>
</mgrwt>
</event>
<event>
 5    1  0.2311484E-004  0.6564668E+03  0.7818608E-02  0.9794720E-01
         13   -1    0    0    0    0  0.00000000000E+00  0.00000000000E+00  0.10000000000E+04  0.10000000000E+04  0.00000000000E+00 0. -1.
          2   -1    0    0  501    0 -0.00000000000E+00 -0.00000000000E+00 -0.10773716072E+03  0.10773716072E+03  0.00000000000E+00 0. -1.
    9000006    2    1    2  501    0  0.00000000000E+00  0.00000000000E+00  0.89226283928E+03  0.11077371607E+04  0.65646678733E+03 0.  0.
         13    1    3    3    0    0 -0.11002262412E+03 -0.27002993804E+03  0.19180583933E+03  0.34901378950E+03  0.00000000000E+00 0. -1.
          4    1    3    3  501    0  0.11002262412E+03  0.27002993804E+03  0.70045699995E+03  0.75872337122E+03  0.00000000000E+00 0. -1.
<mgrwt>
<rscale>  0 0.65646679E+03</rscale>
<asrwt>0</asrwt>
<pdfrwt beam="1">0</pdfrwt>
<pdfrwt beam="2">  1        2 0.39177232E+00 0.65646679E+03</pdfrwt>
<totfact> 0.42729492E+00</totfact>
</mgrwt>
</event>
<event>
 5    1  0.2311484E-004  0.6624975E+03  0.7818608E-02  0.9783607E-01
         13   -1    0    0    0    0  0.00000000000E+00  0.00000000000E+00  0.10000000000E+04  0.10000000000E+04  0.00000000000E+00 0. -1.
          2   -1    0    0  501    0 -0.00000000000E+00 -0.00000000000E+00 -0.10972573760E+03  0.10972573760E+03  0.00000000000E+00 0. -1.
    9000006    2    1    2  501    0  0.00000000000E+00  0.00000000000E+00  0.89027426240E+03  0.11097257376E+04  0.66249750972E+03 0.  0.
         13    1    3    3    0    0 -0.12552669145E+02 -0.18933032811E+03 -0.96734259449E+01  0.18999241515E+03  0.00000000000E+00 0. -1.
          4    1    3    3  501    0  0.12552669145E+02  0.18933032811E+03  0.89994768835E+03  0.91973332244E+03  0.00000000000E+00 0. -1.
<mgrwt>
<rscale>  0 0.66249751E+03</rscale>
<asrwt>0</asrwt>
<pdfrwt beam="1">0</pdfrwt>
<pdfrwt beam="2">  1        2 0.39900352E+00 0.66249751E+03</pdfrwt>
<totfact> 0.40133002E+00</totfact>
</mgrwt>
</event>
<event>
 5    1  0.2311484E-004  0.6611787E+03  0.7818608E-02  0.9786026E-01
         13   -1    0    0    0    0  0.00000000000E+00  0.00000000000E+00  0.10000000000E+04  0.10000000000E+04  0.00000000000E+00 0. -1.
          2   -1    0    0  501    0 -0.00000000000E+00 -0.00000000000E+00 -0.10928932794E+03  0.10928932794E+03  0.00000000000E+00 0. -1.
    9000006    2    1    2  501    0  0.00000000000E+00  0.00000000000E+00  0.89071067206E+03  0.11092893279E+04  0.66117872905E+03 0.  0.
         13    1    3    3    0    0  0.11929502634E+03  0.43745897388E+02 -0.66684974486E+02  0.14349875494E+03  0.00000000000E+00 0. -1.
          2    1    3    3  501    0 -0.11929502634E+03 -0.43745897388E+02  0.95739564655E+03  0.96579057299E+03  0.00000000000E+00 0. -1.
<mgrwt>
<rscale>  0 0.66117873E+03</rscale>
<asrwt>0</asrwt>
<pdfrwt beam="1">0</pdfrwt>
<pdfrwt beam="2">  1        2 0.39741658E+00 0.66117873E+03</pdfrwt>
<totfact> 0.40690317E+00</totfact>
</mgrwt>
</event>
<event>
 5    1  0.2311484E-004  0.6594351E+03  0.7818608E-02  0.9789234E-01
         13   -1    0    0    0    0  0.00000000000E+00  0.00000000000E+00  0.10000000000E+04  0.10000000000E+04  0.00000000000E+00 0. -1.
          2   -1    0    0  501    0 -0.00000000000E+00 -0.00000000000E+00 -0.10871367914E+03  0.10871367914E+03  0.00000000000E+00 0. -1.
    9000006    2    1    2  501    0  0.00000000000E+00  0.00000000000E+00  0.89128632086E+03  0.11087136791E+04  0.65943514962E+03 0.  0.
         13    1    3    3    0    0  0.18080035293E+03  0.75644470701E+02 -0.15031046518E+00  0.19598692855E+03  0.00000000000E+00 0. -1.
          2    1    3    3  501    0 -0.18080035293E+03 -0.75644470701E+02  0.89143663133E+03  0.91272675059E+03  0.00000000000E+00 0. -1.
<mgrwt>
<rscale>  0 0.65943515E+03</rscale>
<asrwt>0</asrwt>
<pdfrwt beam="1">0</pdfrwt>
<pdfrwt beam="2">  1        2 0.39532330E+00 0.65943515E+03</pdfrwt>
<totfact> 0.41436094E+00</totfact>
</mgrwt>
</event>
<event>
 5    1  0.2311484E-004  0.6571334E+03  0.7818608E-02  0.9793485E-01
         13   -1    0    0    0    0  0.00000000000E+00  0.00000000000E+00  0.10000000000E+04  0.10000000000E+04  0.00000000000E+00 0. -1.
          2   -1    0    0  501    0 -0.00000000000E+00 -0.00000000000E+00 -0.10795606222E+03  0.10795606222E+03  0.00000000000E+00 0. -1.
    9000006    2    1    2  501    0  0.00000000000E+00  0.00000000000E+00  0.89204393778E+03  0.11079560622E+04  0.65713335700E+03 0.  0.
         13    1    3    3    0    0  0.16853580171E+03  0.28087650829E+03  0.48934159497E+03  0.58885577685E+03  0.00000000000E+00 0. -1.
          4    1    3    3  501    0 -0.16853580171E+03 -0.28087650829E+03  0.40270234281E+03  0.51910028537E+03  0.00000000000E+00 0. -1.
<mgrwt>
<rscale>  0 0.65713336E+03</rscale>
<asrwt>0</asrwt>
<pdfrwt beam="1">0</pdfrwt>
<pdfrwt beam="2">  1        2 0.39256833E+00 0.65713336E+03</pdfrwt>
<totfact> 0.42436422E+00</totfact>
</mgrwt>
</event>
<event>
 5    1  0.2311484E-004  0.6528056E+03  0.7818608E-02  0.9801529E-01
         13   -1    0    0    0    0  0.00000000000E+00  0.00000000000E+00  0.10000000000E+04  0.10000000000E+04  0.00000000000E+00 0. -1.
          2   -1    0    0  501    0 -0.00000000000E+00 -0.00000000000E+00 -0.10653879579E+03  0.10653879579E+03  0.00000000000E+00 0. -1.
    9000006    2    1    2  501    0  0.00000000000E+00  0.00000000000E+00  0.89346120421E+03  0.11065387958E+04  0.65280562432E+03 0.  0.
         13    1    3    3    0    0 -0.50821398965E+02  0.32132186682E+03  0.40162061457E+03  0.51684589070E+03  0.00000000000E+00 0. -1.
          4    1    3    3  501    0  0.50821398965E+02 -0.32132186682E+03  0.49184058964E+03  0.58969290508E+03  0.00000000000E+00 0. -1.
<mgrwt>
<rscale>  0 0.65280562E+03</rscale>
<asrwt>0</asrwt>
<pdfrwt beam="1">0</pdfrwt>
<pdfrwt beam="2">  1        2 0.38741462E+00 0.65280562E+03</pdfrwt>
<totfact> 0.44366545E+00</totfact>
</mgrwt>
</event>
<event>
 5    1  0.2311484E-004  0.6485705E+03  0.7818608E-02  0.9809465E-01
         13   -1    0    0    0    0  0.00000000000E+00  0.00000000000E+00  0.10000000000E+04  0.10000000000E+04  0.00000000000E+00 0. -1.
          2   -1    0    0  501    0 -0.00000000000E+00 -0.00000000000E+00 -0.10516092188E+03  0.10516092188E+03  0.00000000000E+00 0. -1.
    9000006    2    1    2  501    0  0.00000000000E+00  0.00000000000E+00  0.89483907812E+03  0.11051609219E+04  0.64857049541E+03 0.  0.
         13    1    3    3    0    0  0.57934014973E+02 -0.13617542726E+03  0.93910649439E+03  0.95069506409E+03  0.00000000000E+00 0. -1.
          4    1    3    3  501    0 -0.57934014973E+02  0.13617542726E+03 -0.44267416265E+02  0.15446585779E+03  0.00000000000E+00 0. -1.
<mgrwt>
<rscale>  0 0.64857050E+03</rscale>
<asrwt>0</asrwt>
<pdfrwt beam="1">0</pdfrwt>
<pdfrwt beam="2">  1        2 0.38240416E+00 0.64857050E+03</pdfrwt>
<totfact> 0.46318858E+00</totfact>
</mgrwt>
</event>
<event>
 5    1  0.2311484E-004  0.6509632E+03  0.7818608E-02  0.9804974E-01
         13   -1    0    0    0    0  0.00000000000E+00  0.00000000000E+00  0.10000000000E+04  0.10000000000E+04  0.00000000000E+00 0. -1.
          2   -1    0    0  501    0 -0.00000000000E+00 -0.00000000000E+00 -0.10593826709E+03  0.10593826709E+03  0.00000000000E+00 0. -1.
    9000006    2    1    2  501    0  0.00000000000E+00  0.00000000000E+00  0.89406173291E+03  0.11059382671E+04  0.65096318511E+03 0.  0.
         13    1    3    3    0    0 -0.29362890333E+03 -0.13279889760E+03  0.52460292291E+03  0.61567987363E+03  0.00000000000E+00 0. -1.
          2    1    3    3  501    0  0.29362890333E+03  0.13279889760E+03  0.36945881000E+03  0.49025839346E+03  0.00000000000E+00 0. -1.
<mgrwt>
<rscale>  0 0.65096319E+03</rscale>
<asrwt>0</asrwt>
<pdfrwt beam="1">0</pdfrwt>
<pdfrwt beam="2">  1        2 0.38523087E+00 0.65096319E+03</pdfrwt>
<totfact> 0.45208071E+00</totfact>
</mgrwt>
</event>
<event>
 5    1  0.2311484E-004  0.6398663E+03  0.7818608E-02  0.9825982E-01
         13   -1    0    0    0    0  0.00000000000E+00  0.00000000000E+00  0.10000000000E+04  0.10000000000E+04  0.00000000000E+00 0. -1.
          2   -1    0    0  501    0 -0.00000000000E+00 -0.00000000000E+00 -0.10235723279E+03  0.10235723279E+03  0.00000000000E+00 0. -1.
    9000006    2    1    2  501    0  0.00000000000E+00  0.00000000000E+00  0.89764276721E+03  0.11023572328E+04  0.63986633851E+03 0.  0.
         13    1    3    3    0    0 -0.74795427141E+02 -0.19479037941E+01  0.98471546802E+03  0.98755389888E+03  0.00000000000E+00 0. -1.
          4    1    3    3  501    0  0.74795427141E+02  0.19479037941E+01 -0.87072700806E+02  0.11480333391E+03  0.00000000000E+00 0. -1.
<mgrwt>
<rscale>  0 0.63986634E+03</rscale>
<asrwt>0</asrwt>
<pdfrwt beam="1">0</pdfrwt>
<pdfrwt beam="2">  1        2 0.37220890E+00 0.63986634E+03</pdfrwt>
<totfact> 0.50534830E+00</totfact>
</mgrwt>
</event>
<event>
 5    1  0.2311484E-004  0.6514384E+03  0.7818608E-02  0.9804084E-01
         13   -1    0    0    0    0  0.00000000000E+00  0.00000000000E+00  0.10000000000E+04  0.10000000000E+04  0.00000000000E+00 0. -1.
          2   -1    0    0  501    0 -0.00000000000E+00 -0.00000000000E+00 -0.10609299064E+03  0.10609299064E+03  0.00000000000E+00 0. -1.
    9000006    2    1    2  501    0  0.00000000000E+00  0.00000000000E+00  0.89390700936E+03  0.11060929906E+04  0.65143837972E+03 0.  0.
         13    1    3    3    0    0 -0.14189070947E+03  0.27059443136E+03  0.63859094350E+03  0.70792140301E+03  0.00000000000E+00 0. -1.
          4    1    3    3  501    0  0.14189070947E+03 -0.27059443136E+03  0.25531606585E+03  0.39817158763E+03  0.00000000000E+00 0. -1.
<mgrwt>
<rscale>  0 0.65143838E+03</rscale>
<asrwt>0</asrwt>
<pdfrwt beam="1">0</pdfrwt>
<pdfrwt beam="2">  1        2 0.38579351E+00 0.65143838E+03</pdfrwt>
<totfact> 0.44989884E+00</totfact>
</mgrwt>
</event>
<event>
 5    1  0.2311484E-004  0.6485225E+03  0.7818608E-02  0.9809555E-01
         13   -1    0    0    0    0  0.00000000000E+00  0.00000000000E+00  0.10000000000E+04  0.10000000000E+04  0.00000000000E+00 0. -1.
          2   -1    0    0  501    0 -0.00000000000E+00 -0.00000000000E+00 -0.10514537369E+03  0.10514537369E+03  0.00000000000E+00 0. -1.
    9000006    2    1    2  501    0  0.00000000000E+00  0.00000000000E+00  0.89485462631E+03  0.11051453737E+04  0.64852254760E+03 0.  0.
         13    1    3    3    0    0  0.22949441098E+03  0.22199543009E+03  0.54376108319E+03  0.63057574584E+03  0.00000000000E+00 0. -1.
          2    1    3    3  501    0 -0.22949441098E+03 -0.22199543009E+03  0.35109354313E+03  0.47456962785E+03  0.00000000000E+00 0. -1.
<mgrwt>
<rscale>  0 0.64852255E+03</rscale>
<asrwt>0</asrwt>
<pdfrwt beam="1">0</pdfrwt>
<pdfrwt beam="2">  1        2 0.38234762E+00 0.64852255E+03</pdfrwt>
<totfact> 0.46341326E+00</totfact>
</mgrwt>
</event>
<event>
 5    1  0.2311484E-004  0.6548666E+03  0.7818608E-02  0.9797690E-01
         13   -1    0    0    0    0  0.00000000000E+00  0.00000000000E+00  0.10000000000E+04  0.10000000000E+04  0.00000000000E+00 0. -1.
          2   -1    0    0  501    0 -0.00000000000E+00 -0.00000000000E+00 -0.10721255074E+03  0.10721255074E+03  0.00000000000E+00 0. -1.
    9000006    2    1    2  501    0  0.00000000000E+00  0.00000000000E+00  0.89278744926E+03  0.11072125507E+04  0.65486655356E+03 0.  0.
         13    1    3    3    0    0  0.21670132221E+03  0.31202892232E+02  0.85804582525E+03  0.88553696803E+03  0.00000000000E+00 0. -1.
          2    1    3    3  501    0 -0.21670132221E+03 -0.31202892232E+02  0.34741624013E+02  0.22167558271E+03  0.00000000000E+00 0. -1.
<mgrwt>
<rscale>  0 0.65486655E+03</rscale>
<asrwt>0</asrwt>
<pdfrwt beam="1">0</pdfrwt>
<pdfrwt beam="2">  1        2 0.38986464E+00 0.65486655E+03</pdfrwt>
<totfact> 0.43439305E+00</totfact>
</mgrwt>
</event>
<event>
 5    1  0.2311484E-004  0.6685378E+03  0.7818608E-02  0.9772603E-01
         13   -1    0    0    0    0  0.00000000000E+00  0.00000000000E+00  0.10000000000E+04  0.10000000000E+04  0.00000000000E+00 0. -1.
          2   -1    0    0  501    0 -0.00000000000E+00 -0.00000000000E+00 -0.11173569854E+03  0.11173569854E+03  0.00000000000E+00 0. -1.
    9000006    2    1    2  501    0  0.00000000000E+00  0.00000000000E+00  0.88826430146E+03  0.11117356985E+04  0.66853780308E+03 0.  0.
         13    1    3    3    0    0  0.87822694397E+02 -0.87213597972E+02 -0.72226700172E+02  0.14330294324E+03  0.00000000000E+00 0. -1.
          2    1    3    3  501    0 -0.87822694397E+02  0.87213597972E+02  0.96049100163E+03  0.96843275530E+03  0.00000000000E+00 0. -1.
<mgrwt>
<rscale>  0 0.66853780E+03</rscale>
<asrwt>0</asrwt>
<pdfrwt beam="1">0</pdfrwt>
<pdfrwt beam="2">  1        2 0.40631249E+00 0.66853780E+03</pdfrwt>
<totfact> 0.37653582E+00</totfact>
</mgrwt>
</event>
<event>
 5    1  0.2311484E-004  0.6306331E+03  0.7818608E-02  0.9843814E-01
         13   -1    0    0    0    0  0.00000000000E+00  0.00000000000E+00  0.10000000000E+04  0.10000000000E+04  0.00000000000E+00 0. -1.
          2   -1    0    0  501    0 -0.00000000000E+00 -0.00000000000E+00 -0.99424515049E+02  0.99424515049E+02  0.00000000000E+00 0. -1.
    9000006    2    1    2  501    0  0.00000000000E+00  0.00000000000E+00  0.90057548495E+03  0.10994245150E+04  0.63063306304E+03 0.  0.
         13    1    3    3    0    0  0.14262030112E+03  0.16553349689E+03  0.84662141088E+03  0.87436245474E+03  0.00000000000E+00 0. -1.
          2    1    3    3  501    0 -0.14262030112E+03 -0.16553349689E+03  0.53954074066E+02  0.22506206031E+03  0.00000000000E+00 0. -1.
<mgrwt>
<rscale>  0 0.63063306E+03</rscale>
<asrwt>0</asrwt>
<pdfrwt beam="1">0</pdfrwt>
<pdfrwt beam="2">  1        2 0.36154445E+00 0.63063306E+03</pdfrwt>
<totfact> 0.55318553E+00</totfact>
</mgrwt>
</event>
<event>
 5    1  0.2311484E-004  0.6388120E+03  0.7818608E-02  0.9828002E-01
         13   -1    0    0    0    0  0.00000000000E+00  0.00000000000E+00  0.10000000000E+04  0.10000000000E+04  0.00000000000E+00 0. -1.
          2   -1    0    0  501    0 -0.00000000000E+00 -0.00000000000E+00 -0.10202020415E+03  0.10202020415E+03  0.00000000000E+00 0. -1.
    9000006    2    1    2  501    0  0.00000000000E+00  0.00000000000E+00  0.89797979585E+03  0.11020202042E+04  0.63881203542E+03 0.  0.
         13    1    3    3    0    0 -0.22750321278E+02 -0.29987468466E+03  0.26336787617E+03  0.39975622799E+03  0.00000000000E+00 0. -1.
          2    1    3    3  501    0  0.22750321278E+02  0.29987468466E+03  0.63461191968E+03  0.70226397617E+03  0.00000000000E+00 0. -1.
<mgrwt>
<rscale>  0 0.63881204E+03</rscale>
<asrwt>0</asrwt>
<pdfrwt beam="1">0</pdfrwt>
<pdfrwt beam="2">  1        2 0.37098334E+00 0.63881204E+03</pdfrwt>
<totfact> 0.51064579E+00</totfact>
</mgrwt>
</event>
<event>
 5    1  0.2311484E-004  0.6463663E+03  0.7818608E-02  0.9813622E-01
         13   -1    0    0    0    0  0.00000000000E+00  0.00000000000E+00  0.10000000000E+04  0.10000000000E+04  0.00000000000E+00 0. -1.
          2   -1    0    0  501    0 -0.00000000000E+00 -0.00000000000E+00 -0.10444734987E+03  0.10444734987E+03  0.00000000000E+00 0. -1.
    9000006    2    1    2  501    0  0.00000000000E+00  0.00000000000E+00  0.89555265013E+03  0.11044473499E+04  0.64636630440E+03 0.  0.
         13    1    3    3    0    0 -0.27339420770E+03 -0.17234521182E+03  0.44827456463E+03  0.55262767768E+03  0.00000000000E+00 0. -1.
          4    1    3    3  501    0  0.27339420770E+03  0.17234521182E+03  0.44727808550E+03  0.55181967219E+03  0.00000000000E+00 0. -1.
<mgrwt>
<rscale>  0 0.64636630E+03</rscale>
<asrwt>0</asrwt>
<pdfrwt beam="1">0</pdfrwt>
<pdfrwt beam="2">  1        2 0.37980935E+00 0.64636630E+03</pdfrwt>
<totfact> 0.47360280E+00</totfact>
</mgrwt>
</event>
<event>
 5    1  0.2311484E-004  0.6520377E+03  0.7818608E-02  0.9802963E-01
         13   -1    0    0    0    0  0.00000000000E+00  0.00000000000E+00  0.10000000000E+04  0.10000000000E+04  0.00000000000E+00 0. -1.
          2   -1    0    0  501    0 -0.00000000000E+00 -0.00000000000E+00 -0.10628827785E+03  0.10628827785E+03  0.00000000000E+00 0. -1.
    9000006    2    1    2  501    0  0.00000000000E+00  0.00000000000E+00  0.89371172215E+03  0.11062882779E+04  0.65203766104E+03 0.  0.
         13    1    3    3    0    0 -0.22470131426E+03  0.18621875113E+03  0.20028351056E+03  0.35395139285E+03  0.00000000000E+00 0. -1.
          2    1    3    3  501    0  0.22470131426E+03 -0.18621875113E+03  0.69342821159E+03  0.75233688500E+03  0.00000000000E+00 0. -1.
<mgrwt>
<rscale>  0 0.65203766E+03</rscale>
<asrwt>0</asrwt>
<pdfrwt beam="1">0</pdfrwt>
<pdfrwt beam="2">  1        2 0.38650364E+00 0.65203766E+03</pdfrwt>
<totfact> 0.44715857E+00</totfact>
</mgrwt>
</event>
<event>
 5    1  0.2311484E-004  0.6508723E+03  0.7818608E-02  0.9805144E-01
         13   -1    0    0    0    0  0.00000000000E+00  0.00000000000E+00  0.10000000000E+04  0.10000000000E+04  0.00000000000E+00 0. -1.
          2   -1    0    0  501    0 -0.00000000000E+00 -0.00000000000E+00 -0.10590867677E+03  0.10590867677E+03  0.00000000000E+00 0. -1.
    9000006    2    1    2  501    0  0.00000000000E+00  0.00000000000E+00  0.89409132323E+03  0.11059086768E+04  0.65087226634E+03 0.  0.
         13    1    3    3    0    0 -0.26171669225E+03  0.16547635461E+03  0.61721743083E+03  0.69053269862E+03  0.00000000000E+00 0. -1.
          2    1    3    3  501    0  0.26171669225E+03 -0.16547635461E+03  0.27687389240E+03  0.41537597816E+03  0.00000000000E+00 0. -1.
<mgrwt>
<rscale>  0 0.65087227E+03</rscale>
<asrwt>0</asrwt>
<pdfrwt beam="1">0</pdfrwt>
<pdfrwt beam="2">  1        2 0.38512327E+00 0.65087227E+03</pdfrwt>
<totfact> 0.45249908E+00</totfact>
</mgrwt>
</event>
<event>
 5    1  0.2311484E-004  0.6584012E+03  0.7818608E-02  0.9791141E-01
         13   -1    0    0    0    0  0.00000000000E+00  0.00000000000E+00  0.10000000000E+04  0.10000000000E+04  0.00000000000E+00 0. -1.
          2   -1    0    0  501    0 -0.00000000000E+00 -0.00000000000E+00 -0.10837302510E+03  0.10837302510E+03  0.00000000000E+00 0. -1.
    9000006    2    1    2  501    0  0.00000000000E+00  0.00000000000E+00  0.89162697490E+03  0.11083730251E+04  0.65840116980E+03 0.  0.
         13    1    3    3    0    0  0.10592863287E+03  0.30891392723E+03  0.51571816317E+03  0.61042109525E+03  0.00000000000E+00 0. -1.
          2    1    3    3  501    0 -0.10592863287E+03 -0.30891392723E+03  0.37590881173E+03  0.49795192985E+03  0.00000000000E+00 0. -1.
<mgrwt>
<rscale>  0 0.65840117E+03</rscale>
<asrwt>0</asrwt>
<pdfrwt beam="1">0</pdfrwt>
<pdfrwt beam="2">  1        2 0.39408456E+00 0.65840117E+03</pdfrwt>
<totfact> 0.41883201E+00</totfact>
</mgrwt>
</event>
<event>
 5    1  0.2311484E-004  0.6524045E+03  0.7818608E-02  0.9802278E-01
         13   -1    0    0    0    0  0.00000000000E+00  0.00000000000E+00  0.10000000000E+04  0.10000000000E+04  0.00000000000E+00 0. -1.
          2   -1    0    0  501    0 -0.00000000000E+00 -0.00000000000E+00 -0.10640790229E+03  0.10640790229E+03  0.00000000000E+00 0. -1.
    9000006    2    1    2  501    0  0.00000000000E+00  0.00000000000E+00  0.89359209771E+03  0.11064079023E+04  0.65240448280E+03 0.  0.
         13    1    3    3    0    0 -0.11295950220E+03 -0.13349244190E+03  0.91379146842E+03  0.93037354269E+03  0.00000000000E+00 0. -1.
          2    1    3    3  501    0  0.11295950220E+03  0.13349244190E+03 -0.20199370715E+02  0.17603435960E+03  0.00000000000E+00 0. -1.
<mgrwt>
<rscale>  0 0.65240448E+03</rscale>
<asrwt>0</asrwt>
<pdfrwt beam="1">0</pdfrwt>
<pdfrwt beam="2">  1        2 0.38693864E+00 0.65240448E+03</pdfrwt>
<totfact> 0.44548748E+00</totfact>
</mgrwt>
</event>
<event>
 5    1  0.2311484E-004  0.6603963E+03  0.7818608E-02  0.9787464E-01
         13   -1    0    0    0    0  0.00000000000E+00  0.00000000000E+00  0.10000000000E+04  0.10000000000E+04  0.00000000000E+00 0. -1.
          2   -1    0    0  501    0 -0.00000000000E+00 -0.00000000000E+00 -0.10903081473E+03  0.10903081473E+03  0.00000000000E+00 0. -1.
    9000006    2    1    2  501    0  0.00000000000E+00  0.00000000000E+00  0.89096918527E+03  0.11090308147E+04  0.66039628931E+03 0.  0.
         13    1    3    3    0    0  0.30839997637E+03  0.95554299162E+02  0.32926197260E+03  0.46114489709E+03  0.00000000000E+00 0. -1.
          4    1    3    3  501    0 -0.30839997637E+03 -0.95554299162E+02  0.56170721267E+03  0.64788591764E+03  0.00000000000E+00 0. -1.
<mgrwt>
<rscale>  0 0.66039629E+03</rscale>
<asrwt>0</asrwt>
<pdfrwt beam="1">0</pdfrwt>
<pdfrwt beam="2">  1        2 0.39647653E+00 0.66039629E+03</pdfrwt>
<totfact> 0.41023724E+00</totfact>
</mgrwt>
</event>
<event>
 5    1  0.2311484E-004  0.6665073E+03  0.7818608E-02  0.9776288E-01
         13   -1    0    0    0    0  0.00000000000E+00  0.00000000000E+00  0.10000000000E+04  0.10000000000E+04  0.00000000000E+00 0. -1.
          2   -1    0    0  501    0 -0.00000000000E+00 -0.00000000000E+00 -0.11105799592E+03  0.11105799592E+03  0.00000000000E+00 0. -1.
    9000006    2    1    2  501    0  0.00000000000E+00  0.00000000000E+00  0.88894200408E+03  0.11110579959E+04  0.66650730203E+03 0.  0.
         13    1    3    3    0    0  0.18011387038E+02 -0.33227569357E+03  0.41435206113E+03  0.53143125347E+03  0.00000000000E+00 0. -1.
          2    1    3    3  501    0 -0.18011387038E+02  0.33227569357E+03  0.47458994295E+03  0.57962674244E+03  0.00000000000E+00 0. -1.
<mgrwt>
<rscale>  0 0.66650730E+03</rscale>
<asrwt>0</asrwt>
<pdfrwt beam="1">0</pdfrwt>
<pdfrwt beam="2">  1        2 0.40384811E+00 0.66650730E+03</pdfrwt>
<totfact> 0.38473785E+00</totfact>
</mgrwt>
</event>
<event>
 5    1  0.2311484E-004  0.6542556E+03  0.7818608E-02  0.9798826E-01
         13   -1    0    0    0    0  0.00000000000E+00  0.00000000000E+00  0.10000000000E+04  0.10000000000E+04  0.00000000000E+00 0. -1.
          2   -1    0    0  501    0 -0.00000000000E+00 -0.00000000000E+00 -0.10701260833E+03  0.10701260833E+03  0.00000000000E+00 0. -1.
    9000006    2    1    2  501    0  0.00000000000E+00  0.00000000000E+00  0.89298739167E+03  0.11070126083E+04  0.65425563301E+03 0.  0.
         13    1    3    3    0    0  0.31846364988E+03 -0.65703146527E+02  0.38603845224E+03  0.50473922610E+03  0.00000000000E+00 0. -1.
          2    1    3    3  501    0 -0.31846364988E+03  0.65703146527E+02  0.50694893943E+03  0.60227338223E+03  0.00000000000E+00 0. -1.
<mgrwt>
<rscale>  0 0.65425563E+03</rscale>
<asrwt>0</asrwt>
<pdfrwt beam="1">0</pdfrwt>
<pdfrwt beam="2">  1        2 0.38913758E+00 0.65425563E+03</pdfrwt>
<totfact> 0.43712625E+00</totfact>
</mgrwt>
</event>
<event>
 5    1  0.2311484E-004  0.6490163E+03  0.7818608E-02  0.9808627E-01
         13   -1    0    0    0    0  0.00000000000E+00  0.00000000000E+00  0.10000000000E+04  0.10000000000E+04  0.00000000000E+00 0. -1.
          2   -1    0    0  501    0 -0.00000000000E+00 -0.00000000000E+00 -0.10530554618E+03  0.10530554618E+03  0.00000000000E+00 0. -1.
    9000006    2    1    2  501    0  0.00000000000E+00  0.00000000000E+00  0.89469445382E+03  0.11053055462E+04  0.64901632085E+03 0.  0.
         13    1    3    3    0    0 -0.30926108304E+03 -0.91158294445E+02  0.38469697564E+03  0.50194025063E+03  0.00000000000E+00 0. -1.
          4    1    3    3  501    0  0.30926108304E+03  0.91158294445E+02  0.50999747818E+03  0.60336529555E+03  0.00000000000E+00 0. -1.
<mgrwt>
<rscale>  0 0.64901632E+03</rscale>
<asrwt>0</asrwt>
<pdfrwt beam="1">0</pdfrwt>
<pdfrwt beam="2">  1        2 0.38293007E+00 0.64901632E+03</pdfrwt>
<totfact> 0.46110340E+00</totfact>
</mgrwt>
</event>
<event>
 5    1  0.2311484E-004  0.6463288E+03  0.7818608E-02  0.9813692E-01
         13   -1    0    0    0    0  0.00000000000E+00  0.00000000000E+00  0.10000000000E+04  0.10000000000E+04  0.00000000000E+00 0. -1.
          2   -1    0    0  501    0 -0.00000000000E+00 -0.00000000000E+00 -0.10443522346E+03  0.10443522346E+03  0.00000000000E+00 0. -1.
    9000006    2    1    2  501    0  0.00000000000E+00  0.00000000000E+00  0.89556477654E+03  0.11044352235E+04  0.64632878153E+03 0.  0.
         13    1    3    3    0    0  0.27796880598E+03 -0.13217698096E+03  0.61605895202E+03  0.68866976393E+03  0.00000000000E+00 0. -1.
          4    1    3    3  501    0 -0.27796880598E+03  0.13217698096E+03  0.27950582453E+03  0.41576545953E+03  0.00000000000E+00 0. -1.
<mgrwt>
<rscale>  0 0.64632878E+03</rscale>
<asrwt>0</asrwt>
<pdfrwt beam="1">0</pdfrwt>
<pdfrwt beam="2">  1        2 0.37976525E+00 0.64632878E+03</pdfrwt>
<totfact> 0.47378160E+00</totfact>
</mgrwt>
</event>
<event>
 5    1  0.2311484E-004  0.6492347E+03  0.7818608E-02  0.9808216E-01
         13   -1    0    0    0    0  0.00000000000E+00  0.00000000000E+00  0.10000000000E+04  0.10000000000E+04  0.00000000000E+00 0. -1.
          2   -1    0    0  501    0 -0.00000000000E+00 -0.00000000000E+00 -0.10537642124E+03  0.10537642124E+03  0.00000000000E+00 0. -1.
    9000006    2    1    2  501    0  0.00000000000E+00  0.00000000000E+00  0.89462357876E+03  0.11053764212E+04  0.64923469173E+03 0.  0.
         13    1    3    3    0    0 -0.15277704936E+03  0.19887366061E+03  0.96377680098E+02  0.26866376182E+03  0.00000000000E+00 0. -1.
          4    1    3    3  501    0  0.15277704936E+03 -0.19887366061E+03  0.79824589866E+03  0.83671265942E+03  0.00000000000E+00 0. -1.
<mgrwt>
<rscale>  0 0.64923469E+03</rscale>
<asrwt>0</asrwt>
<pdfrwt beam="1">0</pdfrwt>
<pdfrwt beam="2">  1        2 0.38318779E+00 0.64923469E+03</pdfrwt>
<totfact> 0.46008465E+00</totfact>
</mgrwt>
</event>
<event>
 5    1  0.2311484E-004  0.6445282E+03  0.7818608E-02  0.9817101E-01
         13   -1    0    0    0    0  0.00000000000E+00  0.00000000000E+00  0.10000000000E+04  0.10000000000E+04  0.00000000000E+00 0. -1.
          2   -1    0    0  501    0 -0.00000000000E+00 -0.00000000000E+00 -0.10385416171E+03  0.10385416171E+03  0.00000000000E+00 0. -1.
    9000006    2    1    2  501    0  0.00000000000E+00  0.00000000000E+00  0.89614583829E+03  0.11038541617E+04  0.64452823588E+03 0.  0.
         13    1    3    3    0    0  0.13864674519E+03  0.27302479004E+03  0.27604953787E+03  0.41227272926E+03  0.00000000000E+00 0. -1.
          4    1    3    3  501    0 -0.13864674519E+03 -0.27302479004E+03  0.62009630041E+03  0.69158143245E+03  0.00000000000E+00 0. -1.
<mgrwt>
<rscale>  0 0.64452824E+03</rscale>
<asrwt>0</asrwt>
<pdfrwt beam="1">0</pdfrwt>
<pdfrwt beam="2">  1        2 0.37765229E+00 0.64452824E+03</pdfrwt>
<totfact> 0.48242179E+00</totfact>
</mgrwt>
</event>
<event>
 5    1  0.2311484E-004  0.6468840E+03  0.7818608E-02  0.9812644E-01
         13   -1    0    0    0    0  0.00000000000E+00  0.00000000000E+00  0.10000000000E+04  0.10000000000E+04  0.00000000000E+00 0. -1.
          2   -1    0    0  501    0 -0.00000000000E+00 -0.00000000000E+00 -0.10461473594E+03  0.10461473594E+03  0.00000000000E+00 0. -1.
    9000006    2    1    2  501    0  0.00000000000E+00  0.00000000000E+00  0.89538526406E+03  0.11046147359E+04  0.64688402652E+03 0.  0.
         13    1    3    3    0    0 -0.13021146772E+03 -0.91696660445E+02 -0.33022689852E+02  0.16264624775E+03  0.00000000000E+00 0. -1.
          4    1    3    3  501    0  0.13021146772E+03  0.91696660445E+02  0.92840795391E+03  0.94196848819E+03  0.00000000000E+00 0. -1.
<mgrwt>
<rscale>  0 0.64688403E+03</rscale>
<asrwt>0</asrwt>
<pdfrwt beam="1">0</pdfrwt>
<pdfrwt beam="2">  1        2 0.38041802E+00 0.64688403E+03</pdfrwt>
<totfact> 0.47114095E+00</totfact>
</mgrwt>
</event>
<event>
 5    1  0.2311484E-004  0.6442540E+03  0.7818608E-02  0.9817621E-01
         13   -1    0    0    0    0  0.00000000000E+00  0.00000000000E+00  0.10000000000E+04  0.10000000000E+04  0.00000000000E+00 0. -1.
          2   -1    0    0  501    0 -0.00000000000E+00 -0.00000000000E+00 -0.10376579393E+03  0.10376579393E+03  0.00000000000E+00 0. -1.
    9000006    2    1    2  501    0  0.00000000000E+00  0.00000000000E+00  0.89623420607E+03  0.11037657939E+04  0.64425396834E+03 0.  0.
         13    1    3    3    0    0  0.12770015613E+03 -0.18933799212E+03  0.83732803329E+03  0.86791384392E+03  0.00000000000E+00 0. -1.
          4    1    3    3  501    0 -0.12770015613E+03  0.18933799212E+03  0.58906172782E+02  0.23585195001E+03  0.00000000000E+00 0. -1.
<mgrwt>
<rscale>  0 0.64425397E+03</rscale>
<asrwt>0</asrwt>
<pdfrwt beam="1">0</pdfrwt>
<pdfrwt beam="2">  1        2 0.37733096E+00 0.64425397E+03</pdfrwt>
<totfact> 0.48374829E+00</totfact>
</mgrwt>
</event>
<event>
 5    1  0.2311484E-004  0.6469224E+03  0.7818608E-02  0.9812571E-01
         13   -1    0    0    0    0  0.00000000000E+00  0.00000000000E+00  0.10000000000E+04  0.10000000000E+04  0.00000000000E+00 0. -1.
          2   -1    0    0  501    0 -0.00000000000E+00 -0.00000000000E+00 -0.10462714258E+03  0.10462714258E+03  0.00000000000E+00 0. -1.
    9000006    2    1    2  501    0  0.00000000000E+00  0.00000000000E+00  0.89537285742E+03  0.11046271426E+04  0.64692238354E+03 0.  0.
         13    1    3    3    0    0  0.29907586821E+02 -0.31204140984E+03  0.58389014088E+03  0.66271562666E+03  0.00000000000E+00 0. -1.
          2    1    3    3  501    0 -0.29907586821E+02  0.31204140984E+03  0.31148271654E+03  0.44191151592E+03  0.00000000000E+00 0. -1.
<mgrwt>
<rscale>  0 0.64692238E+03</rscale>
<asrwt>0</asrwt>
<pdfrwt beam="1">0</pdfrwt>
<pdfrwt beam="2">  1        2 0.38046314E+00 0.64692238E+03</pdfrwt>
<totfact> 0.47095894E+00</totfact>
</mgrwt>
</event>
<event>
 5    1  0.2311484E-004  0.6481969E+03  0.7818608E-02  0.9810168E-01
         13   -1    0    0    0    0  0.00000000000E+00  0.00000000000E+00  0.10000000000E+04  0.10000000000E+04  0.00000000000E+00 0. -1.
          2   -1    0    0  501    0 -0.00000000000E+00 -0.00000000000E+00 -0.10503981223E+03  0.10503981223E+03  0.00000000000E+00 0. -1.
    9000006    2    1    2  501    0  0.00000000000E+00  0.00000000000E+00  0.89496018777E+03  0.11050398122E+04  0.64819692140E+03 0.  0.
         13    1    3    3    0    0 -0.12555510093E+03 -0.29399197094E+03  0.53840232908E+03  0.62615687356E+03  0.00000000000E+00 0. -1.
          2    1    3    3  501    0  0.12555510093E+03  0.29399197094E+03  0.35655785869E+03  0.47888293866E+03  0.00000000000E+00 0. -1.
<mgrwt>
<rscale>  0 0.64819692E+03</rscale>
<asrwt>0</asrwt>
<pdfrwt beam="1">0</pdfrwt>
<pdfrwt beam="2">  1        2 0.38196376E+00 0.64819692E+03</pdfrwt>
<totfact> 0.46494131E+00</totfact>
</mgrwt>
</event>
<event>
 5    1  0.2311484E-004  0.5697263E+03  0.7818608E-02  0.9970284E-01
         13   -1    0    0    0    0  0.00000000000E+00  0.00000000000E+00  0.10000000000E+04  0.10000000000E+04  0.00000000000E+00 0. -1.
          2   -1    0    0  501    0 -0.00000000000E+00 -0.00000000000E+00 -0.81147015740E+02  0.81147015740E+02  0.00000000000E+00 0. -1.
    9000006    2    1    2  501    0  0.00000000000E+00  0.00000000000E+00  0.91885298426E+03  0.10811470157E+04  0.56972630531E+03 0.  0.
         13    1    3    3    0    0 -0.96256497189E+02  0.29682235729E+02 -0.46223141882E+02  0.11082836827E+03  0.00000000000E+00 0. -1.
          2    1    3    3  501    0  0.96256497189E+02 -0.29682235729E+02  0.96507612614E+03  0.97031864747E+03  0.00000000000E+00 0. -1.
<mgrwt>
<rscale>  0 0.56972631E+03</rscale>
<asrwt>0</asrwt>
<pdfrwt beam="1">0</pdfrwt>
<pdfrwt beam="2">  1        2 0.29508068E+00 0.56972631E+03</pdfrwt>
<totfact> 0.96144854E+00</totfact>
</mgrwt>
</event>
<event>
 5    1  0.2311484E-004  0.6342310E+03  0.7818608E-02  0.9836827E-01
         13   -1    0    0    0    0  0.00000000000E+00  0.00000000000E+00  0.10000000000E+04  0.10000000000E+04  0.00000000000E+00 0. -1.
          2   -1    0    0  501    0 -0.00000000000E+00 -0.00000000000E+00 -0.10056225223E+03  0.10056225223E+03  0.00000000000E+00 0. -1.
    9000006    2    1    2  501    0  0.00000000000E+00  0.00000000000E+00  0.89943774777E+03  0.11005622522E+04  0.63423103751E+03 0.  0.
         13    1    3    3    0    0  0.64088094788E+02  0.24423093953E+03  0.78262954017E+03  0.82235335037E+03  0.00000000000E+00 0. -1.
          4    1    3    3  501    0 -0.64088094788E+02 -0.24423093953E+03  0.11680820759E+03  0.27820890186E+03  0.00000000000E+00 0. -1.
<mgrwt>
<rscale>  0 0.63423104E+03</rscale>
<asrwt>0</asrwt>
<pdfrwt beam="1">0</pdfrwt>
<pdfrwt beam="2">  1        2 0.36568169E+00 0.63423104E+03</pdfrwt>
<totfact> 0.53415391E+00</totfact>
</mgrwt>
</event>
<event>
 5    1  0.2311484E-004  0.5498650E+03  0.7818608E-02  0.1001525E+00
         13   -1    0    0    0    0  0.00000000000E+00  0.00000000000E+00  0.10000000000E+04  0.10000000000E+04  0.00000000000E+00 0. -1.
          2   -1    0    0  501    0 -0.00000000000E+00 -0.00000000000E+00 -0.75587885877E+02  0.75587885877E+02  0.00000000000E+00 0. -1.
    9000006    2    1    2  501    0  0.00000000000E+00  0.00000000000E+00  0.92441211412E+03  0.10755878859E+04  0.54986502299E+03 0.  0.
         13    1    3    3    0    0 -0.21857339877E+03  0.15909508379E+03  0.36435617127E+03  0.45369703094E+03  0.00000000000E+00 0. -1.
          2    1    3    3  501    0  0.21857339877E+03 -0.15909508379E+03  0.56005594285E+03  0.62189085494E+03  0.00000000000E+00 0. -1.
<mgrwt>
<rscale>  0 0.54986502E+03</rscale>
<asrwt>0</asrwt>
<pdfrwt beam="1">0</pdfrwt>
<pdfrwt beam="2">  1        2 0.27486562E+00 0.54986502E+03</pdfrwt>
<totfact> 0.11354320E+01</totfact>
</mgrwt>
</event>
<event>
 5    1  0.2311484E-004  0.6491066E+03  0.7818608E-02  0.9808457E-01
         13   -1    0    0    0    0  0.00000000000E+00  0.00000000000E+00  0.10000000000E+04  0.10000000000E+04  0.00000000000E+00 0. -1.
          2   -1    0    0  501    0 -0.00000000000E+00 -0.00000000000E+00 -0.10533484814E+03  0.10533484814E+03  0.00000000000E+00 0. -1.
    9000006    2    1    2  501    0  0.00000000000E+00  0.00000000000E+00  0.89466515186E+03  0.11053348481E+04  0.64910661107E+03 0.  0.
         13    1    3    3    0    0  0.23449713339E+03 -0.15445191641E+03  0.17017720324E+03  0.32833607867E+03  0.00000000000E+00 0. -1.
          4    1    3    3  501    0 -0.23449713339E+03  0.15445191641E+03  0.72448794862E+03  0.77699876946E+03  0.00000000000E+00 0. -1.
<mgrwt>
<rscale>  0 0.64910661E+03</rscale>
<asrwt>0</asrwt>
<pdfrwt beam="1">0</pdfrwt>
<pdfrwt beam="2">  1        2 0.38303662E+00 0.64910661E+03</pdfrwt>
<totfact> 0.46068197E+00</totfact>
</mgrwt>
</event>
<event>
 5    1  0.2311484E-004  0.6357391E+03  0.7818608E-02  0.9833913E-01
         13   -1    0    0    0    0  0.00000000000E+00  0.00000000000E+00  0.10000000000E+04  0.10000000000E+04  0.00000000000E+00 0. -1.
          2   -1    0    0  501    0 -0.00000000000E+00 -0.00000000000E+00 -0.10104106364E+03  0.10104106364E+03  0.00000000000E+00 0. -1.
    9000006    2    1    2  501    0  0.00000000000E+00  0.00000000000E+00  0.89895893636E+03  0.11010410636E+04  0.63573914033E+03 0.  0.
         13    1    3    3    0    0  0.16099737179E+03  0.24840896381E+03  0.24889280978E+03  0.38674901136E+03  0.00000000000E+00 0. -1.
          4    1    3    3  501    0 -0.16099737179E+03 -0.24840896381E+03  0.65006612658E+03  0.71429205228E+03  0.00000000000E+00 0. -1.
<mgrwt>
<rscale>  0 0.63573914E+03</rscale>
<asrwt>0</asrwt>
<pdfrwt beam="1">0</pdfrwt>
<pdfrwt beam="2">  1        2 0.36742282E+00 0.63573914E+03</pdfrwt>
<totfact> 0.52632619E+00</totfact>
</mgrwt>
</event>
<event>
 5    1  0.2311484E-004  0.6235081E+03  0.7818608E-02  0.9857800E-01
         13   -1    0    0    0    0  0.00000000000E+00  0.00000000000E+00  0.10000000000E+04  0.10000000000E+04  0.00000000000E+00 0. -1.
          2   -1    0    0  501    0 -0.00000000000E+00 -0.00000000000E+00 -0.97190582641E+02  0.97190582641E+02  0.00000000000E+00 0. -1.
    9000006    2    1    2  501    0  0.00000000000E+00  0.00000000000E+00  0.90280941736E+03  0.10971905826E+04  0.62350808380E+03 0.  0.
         13    1    3    3    0    0 -0.14253226452E+03 -0.27638281877E+03  0.41254454279E+03  0.51661969449E+03  0.00000000000E+00 0. -1.
          2    1    3    3  501    0  0.14253226452E+03  0.27638281877E+03  0.49026487456E+03  0.58057088816E+03  0.00000000000E+00 0. -1.
<mgrwt>
<rscale>  0 0.62350808E+03</rscale>
<asrwt>0</asrwt>
<pdfrwt beam="1">0</pdfrwt>
<pdfrwt beam="2">  1        2 0.35342105E+00 0.62350808E+03</pdfrwt>
<totfact> 0.59239042E+00</totfact>
</mgrwt>
</event>
<event>
 5    1  0.2311484E-004  0.6191883E+03  0.7818608E-02  0.9866377E-01
         13   -1    0    0    0    0  0.00000000000E+00  0.00000000000E+00  0.10000000000E+04  0.10000000000E+04  0.00000000000E+00 0. -1.
          2   -1    0    0  501    0 -0.00000000000E+00 -0.00000000000E+00 -0.95848536929E+02  0.95848536929E+02  0.00000000000E+00 0. -1.
    9000006    2    1    2  501    0  0.00000000000E+00  0.00000000000E+00  0.90415146307E+03  0.10958485369E+04  0.61918829746E+03 0.  0.
         13    1    3    3    0    0  0.52918027729E+02 -0.23952584544E+03  0.11779344338E+03  0.27211806922E+03  0.00000000000E+00 0. -1.
          4    1    3    3  501    0 -0.52918027729E+02  0.23952584544E+03  0.78635801969E+03  0.82373046771E+03  0.00000000000E+00 0. -1.
<mgrwt>
<rscale>  0 0.61918830E+03</rscale>
<asrwt>0</asrwt>
<pdfrwt beam="1">0</pdfrwt>
<pdfrwt beam="2">  1        2 0.34854087E+00 0.61918830E+03</pdfrwt>
<totfact> 0.61716797E+00</totfact>
</mgrwt>
</event>
<event>
 5    1  0.2311484E-004  0.6694559E+03  0.7818608E-02  0.9770941E-01
         13   -1    0    0    0    0  0.00000000000E+00  0.00000000000E+00  0.10000000000E+04  0.10000000000E+04  0.00000000000E+00 0. -1.
          2   -1    0    0  501    0 -0.00000000000E+00 -0.00000000000E+00 -0.11204279727E+03  0.11204279727E+03  0.00000000000E+00 0. -1.
    9000006    2    1    2  501    0  0.00000000000E+00  0.00000000000E+00  0.88795720273E+03  0.11120427973E+04  0.66945589033E+03 0.  0.
         13    1    3    3    0    0 -0.23031959599E+03  0.23974214056E+03  0.50872770192E+03  0.60772303310E+03  0.00000000000E+00 0. -1.
          4    1    3    3  501    0  0.23031959599E+03 -0.23974214056E+03  0.37922950081E+03  0.50431976418E+03  0.00000000000E+00 0. -1.
<mgrwt>
<rscale>  0 0.66945589E+03</rscale>
<asrwt>0</asrwt>
<pdfrwt beam="1">0</pdfrwt>
<pdfrwt beam="2">  1        2 0.40742921E+00 0.66945589E+03</pdfrwt>
<totfact> 0.37287087E+00</totfact>
</mgrwt>
</event>
<event>
 5    1  0.2311484E-004  0.6430884E+03  0.7818608E-02  0.9819835E-01
         13   -1    0    0    0    0  0.00000000000E+00  0.00000000000E+00  0.10000000000E+04  0.10000000000E+04  0.00000000000E+00 0. -1.
          2   -1    0    0  501    0 -0.00000000000E+00 -0.00000000000E+00 -0.10339068607E+03  0.10339068607E+03  0.00000000000E+00 0. -1.
    9000006    2    1    2  501    0  0.00000000000E+00  0.00000000000E+00  0.89660931393E+03  0.11033906861E+04  0.64308844204E+03 0.  0.
         13    1    3    3    0    0 -0.24621189493E+03  0.48957276845E+02  0.79305698461E+03  0.83183922305E+03  0.00000000000E+00 0. -1.
          2    1    3    3  501    0  0.24621189493E+03 -0.48957276845E+02  0.10355232932E+03  0.27155146302E+03  0.00000000000E+00 0. -1.
<mgrwt>
<rscale>  0 0.64308844E+03</rscale>
<asrwt>0</asrwt>
<pdfrwt beam="1">0</pdfrwt>
<pdfrwt beam="2">  1        2 0.37596692E+00 0.64308844E+03</pdfrwt>
<totfact> 0.48941622E+00</totfact>
</mgrwt>
</event>
<event>
 5    1  0.2311484E-004  0.6631035E+03  0.7818608E-02  0.9782497E-01
         13   -1    0    0    0    0  0.00000000000E+00  0.00000000000E+00  0.10000000000E+04  0.10000000000E+04  0.00000000000E+00 0. -1.
          2   -1    0    0  501    0 -0.00000000000E+00 -0.00000000000E+00 -0.10992656646E+03  0.10992656646E+03  0.00000000000E+00 0. -1.
    9000006    2    1    2  501    0  0.00000000000E+00  0.00000000000E+00  0.89007343354E+03  0.11099265665E+04  0.66310351066E+03 0.  0.
         13    1    3    3    0    0 -0.93042065688E+02 -0.54158639042E+02  0.96992934619E+03  0.97588571092E+03  0.00000000000E+00 0. -1.
          2    1    3    3  501    0  0.93042065688E+02  0.54158639042E+02 -0.79855912651E+02  0.13404085555E+03  0.00000000000E+00 0. -1.
<mgrwt>
<rscale>  0 0.66310351E+03</rscale>
<asrwt>0</asrwt>
<pdfrwt beam="1">0</pdfrwt>
<pdfrwt beam="2">  1        2 0.39973381E+00 0.66310351E+03</pdfrwt>
<totfact> 0.39878846E+00</totfact>
</mgrwt>
</event>
<event>
 5    1  0.2311484E-004  0.6403515E+03  0.7818608E-02  0.9825054E-01
         13   -1    0    0    0    0  0.00000000000E+00  0.00000000000E+00  0.10000000000E+04  0.10000000000E+04  0.00000000000E+00 0. -1.
          2   -1    0    0  501    0 -0.00000000000E+00 -0.00000000000E+00 -0.10251250620E+03  0.10251250620E+03  0.00000000000E+00 0. -1.
    9000006    2    1    2  501    0  0.00000000000E+00  0.00000000000E+00  0.89748749380E+03  0.11025125062E+04  0.64035148535E+03 0.  0.
         13    1    3    3    0    0  0.26332503266E+03  0.54290865963E+02  0.14941543749E+03  0.30759152119E+03  0.00000000000E+00 0. -1.
          4    1    3    3  501    0 -0.26332503266E+03 -0.54290865963E+02  0.74807205632E+03  0.79492098500E+03  0.00000000000E+00 0. -1.
<mgrwt>
<rscale>  0 0.64035149E+03</rscale>
<asrwt>0</asrwt>
<pdfrwt beam="1">0</pdfrwt>
<pdfrwt beam="2">  1        2 0.37277354E+00 0.64035149E+03</pdfrwt>
<totfact> 0.50292464E+00</totfact>
</mgrwt>
</event>
<event>
 5    1  0.2311484E-004  0.6417631E+03  0.7818608E-02  0.9822359E-01
         13   -1    0    0    0    0  0.00000000000E+00  0.00000000000E+00  0.10000000000E+04  0.10000000000E+04  0.00000000000E+00 0. -1.
          2   -1    0    0  501    0 -0.00000000000E+00 -0.00000000000E+00 -0.10296496153E+03  0.10296496153E+03  0.00000000000E+00 0. -1.
    9000006    2    1    2  501    0  0.00000000000E+00  0.00000000000E+00  0.89703503847E+03  0.11029649615E+04  0.64176307632E+03 0.  0.
         13    1    3    3    0    0  0.28211259454E+03 -0.14447432702E+03  0.36250584064E+03  0.48152967890E+03  0.00000000000E+00 0. -1.
          2    1    3    3  501    0 -0.28211259454E+03  0.14447432702E+03  0.53452919783E+03  0.62143528263E+03  0.00000000000E+00 0. -1.
<mgrwt>
<rscale>  0 0.64176308E+03</rscale>
<asrwt>0</asrwt>
<pdfrwt beam="1">0</pdfrwt>
<pdfrwt beam="2">  1        2 0.37441883E+00 0.64176308E+03</pdfrwt>
<totfact> 0.49592278E+00</totfact>
</mgrwt>
</event>
<event>
 5    1  0.2311484E-004  0.6550721E+03  0.7818608E-02  0.9797308E-01
         13   -1    0    0    0    0  0.00000000000E+00  0.00000000000E+00  0.10000000000E+04  0.10000000000E+04  0.00000000000E+00 0. -1.
          2   -1    0    0  501    0 -0.00000000000E+00 -0.00000000000E+00 -0.10727984956E+03  0.10727984956E+03  0.00000000000E+00 0. -1.
    9000006    2    1    2  501    0  0.00000000000E+00  0.00000000000E+00  0.89272015044E+03  0.11072798496E+04  0.65507205576E+03 0.  0.
         13    1    3    3    0    0  0.95075238045E+02  0.29886505758E+03  0.28671473285E+03  0.42492936068E+03  0.00000000000E+00 0. -1.
          4    1    3    3  501    0 -0.95075238045E+02 -0.29886505758E+03  0.60600541759E+03  0.68235048888E+03  0.00000000000E+00 0. -1.
<mgrwt>
<rscale>  0 0.65507206E+03</rscale>
<asrwt>0</asrwt>
<pdfrwt beam="1">0</pdfrwt>
<pdfrwt beam="2">  1        2 0.39010937E+00 0.65507206E+03</pdfrwt>
<totfact> 0.43347656E+00</totfact>
</mgrwt>
</event>
<event>
 5    1  0.2311484E-004  0.6558154E+03  0.7818608E-02  0.9795928E-01
         13   -1    0    0    0    0  0.00000000000E+00  0.00000000000E+00  0.10000000000E+04  0.10000000000E+04  0.00000000000E+00 0. -1.
          2   -1    0    0  501    0 -0.00000000000E+00 -0.00000000000E+00 -0.10752346514E+03  0.10752346514E+03  0.00000000000E+00 0. -1.
    9000006    2    1    2  501    0  0.00000000000E+00  0.00000000000E+00  0.89247653486E+03  0.11075234651E+04  0.65581541654E+03 0.  0.
         13    1    3    3    0    0  0.24718645229E+03 -0.16763539610E+03  0.21765611920E+03  0.36956319412E+03  0.00000000000E+00 0. -1.
          4    1    3    3  501    0 -0.24718645229E+03  0.16763539610E+03  0.67482041566E+03  0.73796027103E+03  0.00000000000E+00 0. -1.
<mgrwt>
<rscale>  0 0.65581542E+03</rscale>
<asrwt>0</asrwt>
<pdfrwt beam="1">0</pdfrwt>
<pdfrwt beam="2">  1        2 0.39099524E+00 0.65581542E+03</pdfrwt>
<totfact> 0.43017354E+00</totfact>
</mgrwt>
</event>
<event>
 5    1  0.2311484E-004  0.6874509E+03  0.7818608E-02  0.9738937E-01
         13   -1    0    0    0    0  0.00000000000E+00  0.00000000000E+00  0.10000000000E+04  0.10000000000E+04  0.00000000000E+00 0. -1.
          2   -1    0    0  501    0 -0.00000000000E+00 -0.00000000000E+00 -0.11814718734E+03  0.11814718734E+03  0.00000000000E+00 0. -1.
    9000006    2    1    2  501    0  0.00000000000E+00  0.00000000000E+00  0.88185281266E+03  0.11181471873E+04  0.68745090686E+03 0.  0.
         13    1    3    3    0    0 -0.46752427884E+02 -0.15268956112E+03  0.93600444319E+03  0.94952841414E+03  0.00000000000E+00 0. -1.
          2    1    3    3  501    0  0.46752427884E+02  0.15268956112E+03 -0.54151630523E+02  0.16861877320E+03  0.00000000000E+00 0. -1.
<mgrwt>
<rscale>  0 0.68745091E+03</rscale>
<asrwt>0</asrwt>
<pdfrwt beam="1">0</pdfrwt>
<pdfrwt beam="2">  1        2 0.42962704E+00 0.68745091E+03</pdfrwt>
<totfact> 0.30631319E+00</totfact>
</mgrwt>
</event>
<event>
 5    1  0.2311484E-004  0.6076528E+03  0.7818608E-02  0.9889655E-01
         13   -1    0    0    0    0  0.00000000000E+00  0.00000000000E+00  0.10000000000E+04  0.10000000000E+04  0.00000000000E+00 0. -1.
          2   -1    0    0  501    0 -0.00000000000E+00 -0.00000000000E+00 -0.92310477912E+02  0.92310477912E+02  0.00000000000E+00 0. -1.
    9000006    2    1    2  501    0  0.00000000000E+00  0.00000000000E+00  0.90768952209E+03  0.10923104779E+04  0.60765278873E+03 0.  0.
         13    1    3    3    0    0 -0.23828683128E+03 -0.17850202916E+03  0.34499198283E+03  0.45570062167E+03  0.00000000000E+00 0. -1.
          4    1    3    3  501    0  0.23828683128E+03  0.17850202916E+03  0.56269753926E+03  0.63660985624E+03  0.00000000000E+00 0. -1.
<mgrwt>
<rscale>  0 0.60765279E+03</rscale>
<asrwt>0</asrwt>
<pdfrwt beam="1">0</pdfrwt>
<pdfrwt beam="2">  1        2 0.33567517E+00 0.60765279E+03</pdfrwt>
<totfact> 0.68721331E+00</totfact>
</mgrwt>
</event>
<event>
 5    1  0.2311484E-004  0.6315849E+03  0.7818608E-02  0.9841961E-01
         13   -1    0    0    0    0  0.00000000000E+00  0.00000000000E+00  0.10000000000E+04  0.10000000000E+04  0.00000000000E+00 0. -1.
          2   -1    0    0  501    0 -0.00000000000E+00 -0.00000000000E+00 -0.99724868729E+02  0.99724868729E+02  0.00000000000E+00 0. -1.
    9000006    2    1    2  501    0  0.00000000000E+00  0.00000000000E+00  0.90027513127E+03  0.10997248687E+04  0.63158489130E+03 0.  0.
         13    1    3    3    0    0  0.63180403901E+02  0.30278713975E+03  0.56098954978E+03  0.64060993623E+03  0.00000000000E+00 0. -1.
          2    1    3    3  501    0 -0.63180403901E+02 -0.30278713975E+03  0.33928558150E+03  0.45911493250E+03  0.00000000000E+00 0. -1.
<mgrwt>
<rscale>  0 0.63158489E+03</rscale>
<asrwt>0</asrwt>
<pdfrwt beam="1">0</pdfrwt>
<pdfrwt beam="2">  1        2 0.36263665E+00 0.63158489E+03</pdfrwt>
<totfact> 0.54810156E+00</totfact>
</mgrwt>
</event>
<event>
 5    1  0.2311484E-004  0.6813960E+03  0.7818608E-02  0.9749587E-01
         13   -1    0    0    0    0  0.00000000000E+00  0.00000000000E+00  0.10000000000E+04  0.10000000000E+04  0.00000000000E+00 0. -1.
          2   -1    0    0  501    0 -0.00000000000E+00 -0.00000000000E+00 -0.11607512247E+03  0.11607512247E+03  0.00000000000E+00 0. -1.
    9000006    2    1    2  501    0  0.00000000000E+00  0.00000000000E+00  0.88392487753E+03  0.11160751225E+04  0.68139598610E+03 0.  0.
         13    1    3    3    0    0  0.13596693076E+03  0.26982778390E+03  0.18412023759E+03  0.35382806717E+03  0.00000000000E+00 0. -1.
          2    1    3    3  501    0 -0.13596693076E+03 -0.26982778390E+03  0.69980463994E+03  0.76224705530E+03  0.00000000000E+00 0. -1.
<mgrwt>
<rscale>  0 0.68139599E+03</rscale>
<asrwt>0</asrwt>
<pdfrwt beam="1">0</pdfrwt>
<pdfrwt beam="2">  1        2 0.42209224E+00 0.68139599E+03</pdfrwt>
<totfact> 0.32761466E+00</totfact>
</mgrwt>
</event>
<event>
 5    1  0.2311484E-004  0.6451748E+03  0.7818608E-02  0.9815876E-01
         13   -1    0    0    0    0  0.00000000000E+00  0.00000000000E+00  0.10000000000E+04  0.10000000000E+04  0.00000000000E+00 0. -1.
          2   -1    0    0  501    0 -0.00000000000E+00 -0.00000000000E+00 -0.10406263226E+03  0.10406263226E+03  0.00000000000E+00 0. -1.
    9000006    2    1    2  501    0  0.00000000000E+00  0.00000000000E+00  0.89593736774E+03  0.11040626323E+04  0.64517480502E+03 0.  0.
         13    1    3    3    0    0 -0.70443410846E+02  0.26215417200E+02 -0.88868748042E+02  0.11639233913E+03  0.00000000000E+00 0. -1.
          2    1    3    3  501    0  0.70443410846E+02 -0.26215417200E+02  0.98480611578E+03  0.98767029312E+03  0.00000000000E+00 0. -1.
<mgrwt>
<rscale>  0 0.64517481E+03</rscale>
<asrwt>0</asrwt>
<pdfrwt beam="1">0</pdfrwt>
<pdfrwt beam="2">  1        2 0.37841037E+00 0.64517481E+03</pdfrwt>
<totfact> 0.47930553E+00</totfact>
</mgrwt>
</event>
<event>
 5    1  0.2311484E-004  0.6516490E+03  0.7818608E-02  0.9803690E-01
         13   -1    0    0    0    0  0.00000000000E+00  0.00000000000E+00  0.10000000000E+04  0.10000000000E+04  0.00000000000E+00 0. -1.
          2   -1    0    0  501    0 -0.00000000000E+00 -0.00000000000E+00 -0.10616160791E+03  0.10616160791E+03  0.00000000000E+00 0. -1.
    9000006    2    1    2  501    0  0.00000000000E+00  0.00000000000E+00  0.89383839209E+03  0.11061616079E+04  0.65164900955E+03 0.  0.
         13    1    3    3    0    0 -0.20472306387E+03 -0.18814862060E+03  0.15859635951E+03  0.32010036171E+03  0.00000000000E+00 0. -1.
          2    1    3    3  501    0  0.20472306387E+03  0.18814862060E+03  0.73524203257E+03  0.78606124620E+03  0.00000000000E+00 0. -1.
<mgrwt>
<rscale>  0 0.65164901E+03</rscale>
<asrwt>0</asrwt>
<pdfrwt beam="1">0</pdfrwt>
<pdfrwt beam="2">  1        2 0.38604302E+00 0.65164901E+03</pdfrwt>
<totfact> 0.44893427E+00</totfact>
</mgrwt>
</event>
<event>
 5    1  0.2311484E-004  0.6496394E+03  0.7818608E-02  0.9807456E-01
         13   -1    0    0    0    0  0.00000000000E+00  0.00000000000E+00  0.10000000000E+04  0.10000000000E+04  0.00000000000E+00 0. -1.
          2   -1    0    0  501    0 -0.00000000000E+00 -0.00000000000E+00 -0.10550783206E+03  0.10550783206E+03  0.00000000000E+00 0. -1.
    9000006    2    1    2  501    0  0.00000000000E+00  0.00000000000E+00  0.89449216794E+03  0.11055078321E+04  0.64963938324E+03 0.  0.
         13    1    3    3    0    0 -0.13772274144E+03 -0.13014116187E+03  0.89620354576E+03  0.91601586829E+03  0.00000000000E+00 0. -1.
          4    1    3    3  501    0  0.13772274144E+03  0.13014116187E+03 -0.17113778212E+01  0.18949196378E+03  0.00000000000E+00 0. -1.
<mgrwt>
<rscale>  0 0.64963938E+03</rscale>
<asrwt>0</asrwt>
<pdfrwt beam="1">0</pdfrwt>
<pdfrwt beam="2">  1        2 0.38366565E+00 0.64963938E+03</pdfrwt>
<totfact> 0.45820116E+00</totfact>
</mgrwt>
</event>
<event>
 5    1  0.2311484E-004  0.6389659E+03  0.7818608E-02  0.9827707E-01
         13   -1    0    0    0    0  0.00000000000E+00  0.00000000000E+00  0.10000000000E+04  0.10000000000E+04  0.00000000000E+00 0. -1.
          2   -1    0    0  501    0 -0.00000000000E+00 -0.00000000000E+00 -0.10206934742E+03  0.10206934742E+03  0.00000000000E+00 0. -1.
    9000006    2    1    2  501    0  0.00000000000E+00  0.00000000000E+00  0.89793065258E+03  0.11020693474E+04  0.63896587522E+03 0.  0.
         13    1    3    3    0    0 -0.10555139305E+03  0.28740673807E+03  0.60634168499E+03  0.67925986825E+03  0.00000000000E+00 0. -1.
          2    1    3    3  501    0  0.10555139305E+03 -0.28740673807E+03  0.29158896759E+03  0.42280947918E+03  0.00000000000E+00 0. -1.
<mgrwt>
<rscale>  0 0.63896588E+03</rscale>
<asrwt>0</asrwt>
<pdfrwt beam="1">0</pdfrwt>
<pdfrwt beam="2">  1        2 0.37116205E+00 0.63896588E+03</pdfrwt>
<totfact> 0.50987019E+00</totfact>
</mgrwt>
</event>
<event>
 5    1  0.2311484E-004  0.6435319E+03  0.7818608E-02  0.9818992E-01
         13   -1    0    0    0    0  0.00000000000E+00  0.00000000000E+00  0.10000000000E+04  0.10000000000E+04  0.00000000000E+00 0. -1.
          2   -1    0    0  501    0 -0.00000000000E+00 -0.00000000000E+00 -0.10353331342E+03  0.10353331342E+03  0.00000000000E+00 0. -1.
    9000006    2    1    2  501    0  0.00000000000E+00  0.00000000000E+00  0.89646668658E+03  0.11035333134E+04  0.64353185910E+03 0.  0.
         13    1    3    3    0    0 -0.28508371100E+01 -0.26520566919E+03  0.76064445703E+03  0.80555705214E+03  0.00000000000E+00 0. -1.
          4    1    3    3  501    0  0.28508371100E+01  0.26520566919E+03  0.13582222955E+03  0.29797626128E+03  0.00000000000E+00 0. -1.
<mgrwt>
<rscale>  0 0.64353186E+03</rscale>
<asrwt>0</asrwt>
<pdfrwt beam="1">0</pdfrwt>
<pdfrwt beam="2">  1        2 0.37648557E+00 0.64353186E+03</pdfrwt>
<totfact> 0.48725400E+00</totfact>
</mgrwt>
</event>
<event>
 5    1  0.2311484E-004  0.6790995E+03  0.7818608E-02  0.9753658E-01
         13   -1    0    0    0    0  0.00000000000E+00  0.00000000000E+00  0.10000000000E+04  0.10000000000E+04  0.00000000000E+00 0. -1.
          2   -1    0    0  501    0 -0.00000000000E+00 -0.00000000000E+00 -0.11529404329E+03  0.11529404329E+03  0.00000000000E+00 0. -1.
    9000006    2    1    2  501    0  0.00000000000E+00  0.00000000000E+00  0.88470595671E+03  0.11152940433E+04  0.67909953112E+03 0.  0.
         13    1    3    3    0    0  0.23225318385E+03  0.23059117559E+03  0.59089120053E+03  0.67547482746E+03  0.00000000000E+00 0. -1.
          4    1    3    3  501    0 -0.23225318385E+03 -0.23059117559E+03  0.29381475617E+03  0.43981921583E+03  0.00000000000E+00 0. -1.
<mgrwt>
<rscale>  0 0.67909953E+03</rscale>
<asrwt>0</asrwt>
<pdfrwt beam="1">0</pdfrwt>
<pdfrwt beam="2">  1        2 0.41925195E+00 0.67909953E+03</pdfrwt>
<totfact> 0.33597843E+00</totfact>
</mgrwt>
</event>
<event>
 5    1  0.2311484E-004  0.7224829E+03  0.7818608E-02  0.9679538E-01
         13   -1    0    0    0    0  0.00000000000E+00  0.00000000000E+00  0.10000000000E+04  0.10000000000E+04  0.00000000000E+00 0. -1.
          2   -1    0    0  501    0 -0.00000000000E+00 -0.00000000000E+00 -0.13049538291E+03  0.13049538291E+03  0.00000000000E+00 0. -1.
    9000006    2    1    2  501    0  0.00000000000E+00  0.00000000000E+00  0.86950461709E+03  0.11304953829E+04  0.72248289366E+03 0.  0.
         13    1    3    3    0    0  0.15350126351E+03 -0.90269341602E+02 -0.57043641490E+02  0.18698975631E+03  0.00000000000E+00 0. -1.
          4    1    3    3  501    0 -0.15350126351E+03  0.90269341602E+02  0.92654825858E+03  0.94350562659E+03  0.00000000000E+00 0. -1.
<mgrwt>
<rscale>  0 0.72248289E+03</rscale>
<asrwt>0</asrwt>
<pdfrwt beam="1">0</pdfrwt>
<pdfrwt beam="2">  1        2 0.47452967E+00 0.72248289E+03</pdfrwt>
<totfact> 0.20276628E+00</totfact>
</mgrwt>
</event>
<event>
 5    1  0.2311484E-004  0.6592763E+03  0.7818608E-02  0.9789527E-01
         13   -1    0    0    0    0  0.00000000000E+00  0.00000000000E+00  0.10000000000E+04  0.10000000000E+04  0.00000000000E+00 0. -1.
          2   -1    0    0  501    0 -0.00000000000E+00 -0.00000000000E+00 -0.10866132511E+03  0.10866132511E+03  0.00000000000E+00 0. -1.
    9000006    2    1    2  501    0  0.00000000000E+00  0.00000000000E+00  0.89133867489E+03  0.11086613251E+04  0.65927634602E+03 0.  0.
         13    1    3    3    0    0  0.16997145264E+03  0.27844902893E+03  0.36613021977E+03  0.49038300772E+03  0.00000000000E+00 0. -1.
          2    1    3    3  501    0 -0.16997145264E+03 -0.27844902893E+03  0.52520845512E+03  0.61827831739E+03  0.00000000000E+00 0. -1.
<mgrwt>
<rscale>  0 0.65927635E+03</rscale>
<asrwt>0</asrwt>
<pdfrwt beam="1">0</pdfrwt>
<pdfrwt beam="2">  1        2 0.39513292E+00 0.65927635E+03</pdfrwt>
<totfact> 0.41504527E+00</totfact>
</mgrwt>
</event>
<event>
 5    1  0.2311484E-004  0.6494872E+03  0.7818608E-02  0.9807742E-01
         13   -1    0    0    0    0  0.00000000000E+00  0.00000000000E+00  0.10000000000E+04  0.10000000000E+04  0.00000000000E+00 0. -1.
          2   -1    0    0  501    0 -0.00000000000E+00 -0.00000000000E+00 -0.10545841787E+03  0.10545841787E+03  0.00000000000E+00 0. -1.
    9000006    2    1    2  501    0  0.00000000000E+00  0.00000000000E+00  0.89454158213E+03  0.11054584179E+04  0.64948723735E+03 0.  0.
         13    1    3    3    0    0  0.16518385248E+03 -0.72733103836E+02  0.90676891561E+03  0.92455701600E+03  0.00000000000E+00 0. -1.
          2    1    3    3  501    0 -0.16518385248E+03  0.72733103836E+02 -0.12227333481E+02  0.18090140187E+03  0.00000000000E+00 0. -1.
<mgrwt>
<rscale>  0 0.64948724E+03</rscale>
<asrwt>0</asrwt>
<pdfrwt beam="1">0</pdfrwt>
<pdfrwt beam="2">  1        2 0.38348596E+00 0.64948724E+03</pdfrwt>
<totfact> 0.45890859E+00</totfact>
</mgrwt>
</event>
<event>
 5    1  0.2311484E-004  0.6525118E+03  0.7818608E-02  0.9802077E-01
         13   -1    0    0    0    0  0.00000000000E+00  0.00000000000E+00  0.10000000000E+04  0.10000000000E+04  0.00000000000E+00 0. -1.
          2   -1    0    0  501    0 -0.00000000000E+00 -0.00000000000E+00 -0.10644290763E+03  0.10644290763E+03  0.00000000000E+00 0. -1.
    9000006    2    1    2  501    0  0.00000000000E+00  0.00000000000E+00  0.89355709237E+03  0.11064429076E+04  0.65251178574E+03 0.  0.
         13    1    3    3    0    0  0.11788756194E+03 -0.30413990087E+03  0.45807111447E+03  0.56234126869E+03  0.00000000000E+00 0. -1.
          4    1    3    3  501    0 -0.11788756194E+03  0.30413990087E+03  0.43548597789E+03  0.54410163894E+03  0.00000000000E+00 0. -1.
<mgrwt>
<rscale>  0 0.65251179E+03</rscale>
<asrwt>0</asrwt>
<pdfrwt beam="1">0</pdfrwt>
<pdfrwt beam="2">  1        2 0.38706593E+00 0.65251179E+03</pdfrwt>
<totfact> 0.44499955E+00</totfact>
</mgrwt>
</event>
<event>
 5    1  0.2311484E-004  0.6566740E+03  0.7818608E-02  0.9794336E-01
         13   -1    0    0    0    0  0.00000000000E+00  0.00000000000E+00  0.10000000000E+04  0.10000000000E+04  0.00000000000E+00 0. -1.
          2   -1    0    0  501    0 -0.00000000000E+00 -0.00000000000E+00 -0.10780518795E+03  0.10780518795E+03  0.00000000000E+00 0. -1.
    9000006    2    1    2  501    0  0.00000000000E+00  0.00000000000E+00  0.89219481205E+03  0.11078051880E+04  0.65667400726E+03 0.  0.
         13    1    3    3    0    0 -0.14605404258E+03  0.11882599924E+03 -0.76813920688E+01  0.18844204741E+03  0.00000000000E+00 0. -1.
          4    1    3    3  501    0  0.14605404258E+03 -0.11882599924E+03  0.89987620412E+03  0.91936314054E+03  0.00000000000E+00 0. -1.
<mgrwt>
<rscale>  0 0.65667401E+03</rscale>
<asrwt>0</asrwt>
<pdfrwt beam="1">0</pdfrwt>
<pdfrwt beam="2">  1        2 0.39201969E+00 0.65667401E+03</pdfrwt>
<totfact> 0.42638221E+00</totfact>
</mgrwt>
</event>
<event>
 5    1  0.2311484E-004  0.6490314E+03  0.7818608E-02  0.9808598E-01
         13   -1    0    0    0    0  0.00000000000E+00  0.00000000000E+00  0.10000000000E+04  0.10000000000E+04  0.00000000000E+00 0. -1.
          2   -1    0    0  501    0 -0.00000000000E+00 -0.00000000000E+00 -0.10531044999E+03  0.10531044999E+03  0.00000000000E+00 0. -1.
    9000006    2    1    2  501    0  0.00000000000E+00  0.00000000000E+00  0.89468955001E+03  0.11053104500E+04  0.64903143219E+03 0.  0.
         13    1    3    3    0    0 -0.85266365881E+02  0.27837088670E+03  0.69147512750E+03  0.75026565673E+03  0.00000000000E+00 0. -1.
          4    1    3    3  501    0  0.85266365881E+02 -0.27837088670E+03  0.20321442250E+03  0.35504479327E+03  0.00000000000E+00 0. -1.
<mgrwt>
<rscale>  0 0.64903143E+03</rscale>
<asrwt>0</asrwt>
<pdfrwt beam="1">0</pdfrwt>
<pdfrwt beam="2">  1        2 0.38294790E+00 0.64903143E+03</pdfrwt>
<totfact> 0.46103285E+00</totfact>
</mgrwt>
</event>
<event>
 5    1  0.2311484E-004  0.6963762E+03  0.7818608E-02  0.9723449E-01
         13   -1    0    0    0    0  0.00000000000E+00  0.00000000000E+00  0.10000000000E+04  0.10000000000E+04  0.00000000000E+00 0. -1.
          2   -1    0    0  501    0 -0.00000000000E+00 -0.00000000000E+00 -0.12123495754E+03  0.12123495754E+03  0.00000000000E+00 0. -1.
    9000006    2    1    2  501    0  0.00000000000E+00  0.00000000000E+00  0.87876504246E+03  0.11212349575E+04  0.69637621309E+03 0.  0.
         13    1    3    3    0    0 -0.42885151841E+02  0.22610008042E+03  0.86009190999E+03  0.89034739077E+03  0.00000000000E+00 0. -1.
          2    1    3    3  501    0  0.42885151841E+02 -0.22610008042E+03  0.18673132470E+02  0.23088756677E+03  0.00000000000E+00 0. -1.
<mgrwt>
<rscale>  0 0.69637621E+03</rscale>
<asrwt>0</asrwt>
<pdfrwt beam="1">0</pdfrwt>
<pdfrwt beam="2">  1        2 0.44085532E+00 0.69637621E+03</pdfrwt>
<totfact> 0.27683701E+00</totfact>
</mgrwt>
</event>
<event>
 5    1  0.2311484E-004  0.6617270E+03  0.7818608E-02  0.9785020E-01
         13   -1    0    0    0    0  0.00000000000E+00  0.00000000000E+00  0.10000000000E+04  0.10000000000E+04  0.00000000000E+00 0. -1.
          2   -1    0    0  501    0 -0.00000000000E+00 -0.00000000000E+00 -0.10947064256E+03  0.10947064256E+03  0.00000000000E+00 0. -1.
    9000006    2    1    2  501    0  0.00000000000E+00  0.00000000000E+00  0.89052935744E+03  0.11094706426E+04  0.66172696050E+03 0.  0.
         13    1    3    3    0    0  0.19567440814E+03 -0.20164521219E+03  0.73817794862E+03  0.78984552251E+03  0.00000000000E+00 0. -1.
          2    1    3    3  501    0 -0.19567440814E+03  0.20164521219E+03  0.15235140882E+03  0.31962512006E+03  0.00000000000E+00 0. -1.
<mgrwt>
<rscale>  0 0.66172696E+03</rscale>
<asrwt>0</asrwt>
<pdfrwt beam="1">0</pdfrwt>
<pdfrwt beam="2">  1        2 0.39807590E+00 0.66172696E+03</pdfrwt>
<totfact> 0.40457930E+00</totfact>
</mgrwt>
</event>
<event>
 5    1  0.2311484E-004  0.6486294E+03  0.7818608E-02  0.9809354E-01
         13   -1    0    0    0    0  0.00000000000E+00  0.00000000000E+00  0.10000000000E+04  0.10000000000E+04  0.00000000000E+00 0. -1.
          2   -1    0    0  501    0 -0.00000000000E+00 -0.00000000000E+00 -0.10518002943E+03  0.10518002943E+03  0.00000000000E+00 0. -1.
    9000006    2    1    2  501    0  0.00000000000E+00  0.00000000000E+00  0.89481997057E+03  0.11051800294E+04  0.64862941477E+03 0.  0.
         13    1    3    3    0    0  0.24875079783E+03  0.18765560423E+03  0.60064883598E+03  0.67666136980E+03  0.00000000000E+00 0. -1.
          4    1    3    3  501    0 -0.24875079783E+03 -0.18765560423E+03  0.29417113460E+03  0.42851865963E+03  0.00000000000E+00 0. -1.
<mgrwt>
<rscale>  0 0.64862941E+03</rscale>
<asrwt>0</asrwt>
<pdfrwt beam="1">0</pdfrwt>
<pdfrwt beam="2">  1        2 0.38247364E+00 0.64862941E+03</pdfrwt>
<totfact> 0.46291260E+00</totfact>
</mgrwt>
</event>
<event>
 5    1  0.2311484E-004  0.6487760E+03  0.7818608E-02  0.9809079E-01
         13   -1    0    0    0    0  0.00000000000E+00  0.00000000000E+00  0.10000000000E+04  0.10000000000E+04  0.00000000000E+00 0. -1.
          2   -1    0    0  501    0 -0.00000000000E+00 -0.00000000000E+00 -0.10522756964E+03  0.10522756964E+03  0.00000000000E+00 0. -1.
    9000006    2    1    2  501    0  0.00000000000E+00  0.00000000000E+00  0.89477243036E+03  0.11052275696E+04  0.64877598489E+03 0.  0.
         13    1    3    3    0    0  0.32227359838E+03  0.35055122902E+02  0.46743006448E+03  0.56884092595E+03  0.00000000000E+00 0. -1.
          2    1    3    3  501    0 -0.32227359838E+03 -0.35055122902E+02  0.42734236587E+03  0.53638664369E+03  0.00000000000E+00 0. -1.
<mgrwt>
<rscale>  0 0.64877598E+03</rscale>
<asrwt>0</asrwt>
<pdfrwt beam="1">0</pdfrwt>
<pdfrwt beam="2">  1        2 0.38264651E+00 0.64877598E+03</pdfrwt>
<totfact> 0.46222660E+00</totfact>
</mgrwt>
</event>
<event>
 5    1  0.2311484E-004  0.6475478E+03  0.7818608E-02  0.9811391E-01
         13   -1    0    0    0    0  0.00000000000E+00  0.00000000000E+00  0.10000000000E+04  0.10000000000E+04  0.00000000000E+00 0. -1.
          2   -1    0    0  501    0 -0.00000000000E+00 -0.00000000000E+00 -0.10482953999E+03  0.10482953999E+03  0.00000000000E+00 0. -1.
    9000006    2    1    2  501    0  0.00000000000E+00  0.00000000000E+00  0.89517046001E+03  0.11048295400E+04  0.64754780515E+03 0.  0.
         13    1    3    3    0    0 -0.16078619172E+03  0.12149458532E+03  0.15224301677E+02  0.20210124461E+03  0.00000000000E+00 0. -1.
          4    1    3    3  501    0  0.16078619172E+03 -0.12149458532E+03  0.87994615833E+03  0.90272829538E+03  0.00000000000E+00 0. -1.
<mgrwt>
<rscale>  0 0.64754781E+03</rscale>
<asrwt>0</asrwt>
<pdfrwt beam="1">0</pdfrwt>
<pdfrwt beam="2">  1        2 0.38119913E+00 0.64754781E+03</pdfrwt>
<totfact> 0.46799875E+00</totfact>
</mgrwt>
</event>
<event>
 5    1  0.2311484E-004  0.6422000E+03  0.7818608E-02  0.9821526E-01
         13   -1    0    0    0    0  0.00000000000E+00  0.00000000000E+00  0.10000000000E+04  0.10000000000E+04  0.00000000000E+00 0. -1.
          2   -1    0    0  501    0 -0.00000000000E+00 -0.00000000000E+00 -0.10310520835E+03  0.10310520835E+03  0.00000000000E+00 0. -1.
    9000006    2    1    2  501    0  0.00000000000E+00  0.00000000000E+00  0.89689479165E+03  0.11031052083E+04  0.64219999485E+03 0.  0.
         13    1    3    3    0    0 -0.28808105133E+03  0.14177643779E+03  0.44203003106E+03  0.54633487790E+03  0.00000000000E+00 0. -1.
          4    1    3    3  501    0  0.28808105133E+03 -0.14177643779E+03  0.45486476059E+03  0.55677033045E+03  0.00000000000E+00 0. -1.
<mgrwt>
<rscale>  0 0.64219999E+03</rscale>
<asrwt>0</asrwt>
<pdfrwt beam="1">0</pdfrwt>
<pdfrwt beam="2">  1        2 0.37492882E+00 0.64219999E+03</pdfrwt>
<totfact> 0.49377059E+00</totfact>
</mgrwt>
</event>
<event>
 5    1  0.2311484E-004  0.6546000E+03  0.7818608E-02  0.9798186E-01
         13   -1    0    0    0    0  0.00000000000E+00  0.00000000000E+00  0.10000000000E+04  0.10000000000E+04  0.00000000000E+00 0. -1.
          4   -1    0    0  501    0 -0.00000000000E+00 -0.00000000000E+00 -0.10712528044E+03  0.10712528044E+03  0.00000000000E+00 0. -1.
    9000006    2    1    2  501    0  0.00000000000E+00  0.00000000000E+00  0.89287471956E+03  0.11071252804E+04  0.65459997080E+03 0.  0.
         13    1    3    3    0    0  0.72334080363E+02 -0.30383174496E+03  0.28090290639E+03  0.42006236590E+03  0.00000000000E+00 0. -1.
          2    1    3    3  501    0 -0.72334080363E+02  0.30383174496E+03  0.61197181317E+03  0.68706291454E+03  0.00000000000E+00 0. -1.
<mgrwt>
<rscale>  0 0.65459997E+03</rscale>
<asrwt>0</asrwt>
<pdfrwt beam="1">0</pdfrwt>
<pdfrwt beam="2">  1        4 0.38954730E+00 0.65459997E+03</pdfrwt>
<totfact> 0.37807523E-02</totfact>
</mgrwt>
</event>
<event>
 5    1  0.2311484E-004  0.6560037E+03  0.7818608E-02  0.9795578E-01
         13   -1    0    0    0    0  0.00000000000E+00  0.00000000000E+00  0.10000000000E+04  0.10000000000E+04  0.00000000000E+00 0. -1.
          2   -1    0    0  501    0 -0.00000000000E+00 -0.00000000000E+00 -0.10758520624E+03  0.10758520624E+03  0.00000000000E+00 0. -1.
    9000006    2    1    2  501    0  0.00000000000E+00  0.00000000000E+00  0.89241479376E+03  0.11075852062E+04  0.65600367755E+03 0.  0.
         13    1    3    3    0    0  0.68592071870E+02  0.11519671730E+03 -0.59208889883E+02  0.14656346285E+03  0.00000000000E+00 0. -1.
          2    1    3    3  501    0 -0.68592071870E+02 -0.11519671730E+03  0.95162368364E+03  0.96102174339E+03  0.00000000000E+00 0. -1.
<mgrwt>
<rscale>  0 0.65600368E+03</rscale>
<asrwt>0</asrwt>
<pdfrwt beam="1">0</pdfrwt>
<pdfrwt beam="2">  1        2 0.39121976E+00 0.65600368E+03</pdfrwt>
<totfact> 0.42934006E+00</totfact>
</mgrwt>
</event>
<event>
 5    1  0.2311484E-004  0.6477791E+03  0.7818608E-02  0.9810955E-01
         13   -1    0    0    0    0  0.00000000000E+00  0.00000000000E+00  0.10000000000E+04  0.10000000000E+04  0.00000000000E+00 0. -1.
          2   -1    0    0  501    0 -0.00000000000E+00 -0.00000000000E+00 -0.10490445597E+03  0.10490445597E+03  0.00000000000E+00 0. -1.
    9000006    2    1    2  501    0  0.00000000000E+00  0.00000000000E+00  0.89509554403E+03  0.11049044560E+04  0.64777914746E+03 0.  0.
         13    1    3    3    0    0  0.13574973913E+03  0.10103517150E+03 -0.23505430618E+02  0.17084672318E+03  0.00000000000E+00 0. -1.
          2    1    3    3  501    0 -0.13574973913E+03 -0.10103517150E+03  0.91860097465E+03  0.93405773279E+03  0.00000000000E+00 0. -1.
<mgrwt>
<rscale>  0 0.64777915E+03</rscale>
<asrwt>0</asrwt>
<pdfrwt beam="1">0</pdfrwt>
<pdfrwt beam="2">  1        2 0.38147155E+00 0.64777915E+03</pdfrwt>
<totfact> 0.46690735E+00</totfact>
</mgrwt>
</event>
<event>
 5    1  0.2311484E-004  0.6532511E+03  0.7818608E-02  0.9800698E-01
         13   -1    0    0    0    0  0.00000000000E+00  0.00000000000E+00  0.10000000000E+04  0.10000000000E+04  0.00000000000E+00 0. -1.
          2   -1    0    0  501    0 -0.00000000000E+00 -0.00000000000E+00 -0.10668425905E+03  0.10668425905E+03  0.00000000000E+00 0. -1.
    9000006    2    1    2  501    0  0.00000000000E+00  0.00000000000E+00  0.89331574095E+03  0.11066842590E+04  0.65325112796E+03 0.  0.
         13    1    3    3    0    0 -0.27980101943E+03 -0.14700653382E+02  0.16227036664E+03  0.32378448322E+03  0.00000000000E+00 0. -1.
          4    1    3    3  501    0  0.27980101943E+03  0.14700653382E+02  0.73104537431E+03  0.78289977583E+03  0.00000000000E+00 0. -1.
<mgrwt>
<rscale>  0 0.65325113E+03</rscale>
<asrwt>0</asrwt>
<pdfrwt beam="1">0</pdfrwt>
<pdfrwt beam="2">  1        2 0.38794358E+00 0.65325113E+03</pdfrwt>
<totfact> 0.44164853E+00</totfact>
</mgrwt>
</event>
<event>
 5    1  0.2311484E-004  0.6581461E+03  0.7818608E-02  0.9791613E-01
         13   -1    0    0    0    0  0.00000000000E+00  0.00000000000E+00  0.10000000000E+04  0.10000000000E+04  0.00000000000E+00 0. -1.
          2   -1    0    0  501    0 -0.00000000000E+00 -0.00000000000E+00 -0.10828905845E+03  0.10828905845E+03  0.00000000000E+00 0. -1.
    9000006    2    1    2  501    0  0.00000000000E+00  0.00000000000E+00  0.89171094155E+03  0.11082890585E+04  0.65814605811E+03 0.  0.
         13    1    3    3    0    0  0.18516896238E+03 -0.24622352524E+03  0.64060911937E+03  0.71084007542E+03  0.00000000000E+00 0. -1.
          2    1    3    3  501    0 -0.18516896238E+03  0.24622352524E+03  0.25110182218E+03  0.39744898303E+03  0.00000000000E+00 0. -1.
<mgrwt>
<rscale>  0 0.65814606E+03</rscale>
<asrwt>0</asrwt>
<pdfrwt beam="1">0</pdfrwt>
<pdfrwt beam="2">  1        2 0.39377922E+00 0.65814606E+03</pdfrwt>
<totfact> 0.41994076E+00</totfact>
</mgrwt>
</event>
<event>
 5    1  0.2311484E-004  0.6320028E+03  0.7818608E-02  0.9841148E-01
         13   -1    0    0    0    0  0.00000000000E+00  0.00000000000E+00  0.10000000000E+04  0.10000000000E+04  0.00000000000E+00 0. -1.
          2   -1    0    0  501    0 -0.00000000000E+00 -0.00000000000E+00 -0.99856898007E+02  0.99856898007E+02  0.00000000000E+00 0. -1.
    9000006    2    1    2  501    0  0.00000000000E+00  0.00000000000E+00  0.90014310199E+03  0.10998568980E+04  0.63200284179E+03 0.  0.
         13    1    3    3    0    0 -0.23872261133E+03 -0.16613744893E+03  0.66509736675E+03  0.72590952904E+03  0.00000000000E+00 0. -1.
          4    1    3    3  501    0  0.23872261133E+03  0.16613744893E+03  0.23504573524E+03  0.37394736896E+03  0.00000000000E+00 0. -1.
<mgrwt>
<rscale>  0 0.63200284E+03</rscale>
<asrwt>0</asrwt>
<pdfrwt beam="1">0</pdfrwt>
<pdfrwt beam="2">  1        2 0.36311676E+00 0.63200284E+03</pdfrwt>
<totfact> 0.54588041E+00</totfact>
</mgrwt>
</event>
<event>
 5    1  0.2311484E-004  0.6368295E+03  0.7818608E-02  0.9831811E-01
         13   -1    0    0    0    0  0.00000000000E+00  0.00000000000E+00  0.10000000000E+04  0.10000000000E+04  0.00000000000E+00 0. -1.
          2   -1    0    0  501    0 -0.00000000000E+00 -0.00000000000E+00 -0.10138794047E+03  0.10138794047E+03  0.00000000000E+00 0. -1.
    9000006    2    1    2  501    0  0.00000000000E+00  0.00000000000E+00  0.89861205953E+03  0.11013879405E+04  0.63682946059E+03 0.  0.
         13    1    3    3    0    0 -0.14250413425E+03  0.17043789151E+03  0.84380882272E+03  0.87256508780E+03  0.00000000000E+00 0. -1.
          4    1    3    3  501    0  0.14250413425E+03 -0.17043789151E+03  0.54803236806E+02  0.22882285267E+03  0.00000000000E+00 0. -1.
<mgrwt>
<rscale>  0 0.63682946E+03</rscale>
<asrwt>0</asrwt>
<pdfrwt beam="1">0</pdfrwt>
<pdfrwt beam="2">  1        2 0.36868420E+00 0.63682946E+03</pdfrwt>
<totfact> 0.52072133E+00</totfact>
</mgrwt>
</event>
<event>
 5    1  0.2311484E-004  0.6311065E+03  0.7818608E-02  0.9842892E-01
         13   -1    0    0    0    0  0.00000000000E+00  0.00000000000E+00  0.10000000000E+04  0.10000000000E+04  0.00000000000E+00 0. -1.
          2   -1    0    0  501    0 -0.00000000000E+00 -0.00000000000E+00 -0.99573860854E+02  0.99573860854E+02  0.00000000000E+00 0. -1.
    9000006    2    1    2  501    0  0.00000000000E+00  0.00000000000E+00  0.90042613915E+03  0.10995738609E+04  0.63110652303E+03 0.  0.
         13    1    3    3    0    0 -0.27032054096E+03  0.83242217758E+02  0.69395636334E+03  0.74938501180E+03  0.00000000000E+00 0. -1.
          4    1    3    3  501    0  0.27032054096E+03 -0.83242217758E+02  0.20646977580E+03  0.35018884906E+03  0.00000000000E+00 0. -1.
<mgrwt>
<rscale>  0 0.63110652E+03</rscale>
<asrwt>0</asrwt>
<pdfrwt beam="1">0</pdfrwt>
<pdfrwt beam="2">  1        2 0.36208753E+00 0.63110652E+03</pdfrwt>
<totfact> 0.55065220E+00</totfact>
</mgrwt>
</event>
<event>
 5    1  0.2311484E-004  0.6507177E+03  0.7818608E-02  0.9805433E-01
         13   -1    0    0    0    0  0.00000000000E+00  0.00000000000E+00  0.10000000000E+04  0.10000000000E+04  0.00000000000E+00 0. -1.
          2   -1    0    0  501    0 -0.00000000000E+00 -0.00000000000E+00 -0.10585839682E+03  0.10585839682E+03  0.00000000000E+00 0. -1.
    9000006    2    1    2  501    0  0.00000000000E+00  0.00000000000E+00  0.89414160318E+03  0.11058583968E+04  0.65071774777E+03 0.  0.
         13    1    3    3    0    0  0.27097733809E+03  0.10380103675E+03  0.19698663239E+03  0.35072368943E+03  0.00000000000E+00 0. -1.
          4    1    3    3  501    0 -0.27097733809E+03 -0.10380103675E+03  0.69715497079E+03  0.75513470738E+03  0.00000000000E+00 0. -1.
<mgrwt>
<rscale>  0 0.65071775E+03</rscale>
<asrwt>0</asrwt>
<pdfrwt beam="1">0</pdfrwt>
<pdfrwt beam="2">  1        2 0.38494044E+00 0.65071775E+03</pdfrwt>
<totfact> 0.45321077E+00</totfact>
</mgrwt>
</event>
<event>
 5    1  0.2311484E-004  0.6483869E+03  0.7818608E-02  0.9809811E-01
         13   -1    0    0    0    0  0.00000000000E+00  0.00000000000E+00  0.10000000000E+04  0.10000000000E+04  0.00000000000E+00 0. -1.
          2   -1    0    0  501    0 -0.00000000000E+00 -0.00000000000E+00 -0.10510140607E+03  0.10510140607E+03  0.00000000000E+00 0. -1.
    9000006    2    1    2  501    0  0.00000000000E+00  0.00000000000E+00  0.89489859393E+03  0.11051014061E+04  0.64838694025E+03 0.  0.
         13    1    3    3    0    0 -0.71793794460E+02 -0.27121856940E+03  0.72431385487E+03  0.77675248418E+03  0.00000000000E+00 0. -1.
          2    1    3    3  501    0  0.71793794460E+02  0.27121856940E+03  0.17058473905E+03  0.32834892190E+03  0.00000000000E+00 0. -1.
<mgrwt>
<rscale>  0 0.64838694E+03</rscale>
<asrwt>0</asrwt>
<pdfrwt beam="1">0</pdfrwt>
<pdfrwt beam="2">  1        2 0.38218774E+00 0.64838694E+03</pdfrwt>
<totfact> 0.46404916E+00</totfact>
</mgrwt>
</event>
<event>
 5    1  0.2311484E-004  0.6378632E+03  0.7818608E-02  0.9829823E-01
         13   -1    0    0    0    0  0.00000000000E+00  0.00000000000E+00  0.10000000000E+04  0.10000000000E+04  0.00000000000E+00 0. -1.
          2   -1    0    0  501    0 -0.00000000000E+00 -0.00000000000E+00 -0.10171735811E+03  0.10171735811E+03  0.00000000000E+00 0. -1.
    9000006    2    1    2  501    0  0.00000000000E+00  0.00000000000E+00  0.89828264189E+03  0.11017173581E+04  0.63786317688E+03 0.  0.
         13    1    3    3    0    0 -0.12282629013E+03  0.14908251651E+03  0.10808473617E+02  0.19346502883E+03  0.00000000000E+00 0. -1.
          4    1    3    3  501    0  0.12282629013E+03 -0.14908251651E+03  0.88747416828E+03  0.90825232928E+03  0.00000000000E+00 0. -1.
<mgrwt>
<rscale>  0 0.63786318E+03</rscale>
<asrwt>0</asrwt>
<pdfrwt beam="1">0</pdfrwt>
<pdfrwt beam="2">  1        2 0.36988208E+00 0.63786318E+03</pdfrwt>
<totfact> 0.51544933E+00</totfact>
</mgrwt>
</event>
<event>
 5    1  0.2311484E-004  0.6504929E+03  0.7818608E-02  0.9805855E-01
         13   -1    0    0    0    0  0.00000000000E+00  0.00000000000E+00  0.10000000000E+04  0.10000000000E+04  0.00000000000E+00 0. -1.
          2   -1    0    0  501    0 -0.00000000000E+00 -0.00000000000E+00 -0.10578523903E+03  0.10578523903E+03  0.00000000000E+00 0. -1.
    9000006    2    1    2  501    0  0.00000000000E+00  0.00000000000E+00  0.89421476097E+03  0.11057852390E+04  0.65049285631E+03 0.  0.
         13    1    3    3    0    0  0.44261523083E+02 -0.49301271278E+02 -0.94192194016E+02  0.11516018057E+03  0.00000000000E+00 0. -1.
          2    1    3    3  501    0 -0.44261523083E+02  0.49301271278E+02  0.98840695499E+03  0.99062505846E+03  0.00000000000E+00 0. -1.
<mgrwt>
<rscale>  0 0.65049286E+03</rscale>
<asrwt>0</asrwt>
<pdfrwt beam="1">0</pdfrwt>
<pdfrwt beam="2">  1        2 0.38467441E+00 0.65049286E+03</pdfrwt>
<totfact> 0.45424810E+00</totfact>
</mgrwt>
</event>
<event>
 5    1  0.2311484E-004  0.6460733E+03  0.7818608E-02  0.9814175E-01
         13   -1    0    0    0    0  0.00000000000E+00  0.00000000000E+00  0.10000000000E+04  0.10000000000E+04  0.00000000000E+00 0. -1.
          2   -1    0    0  501    0 -0.00000000000E+00 -0.00000000000E+00 -0.10435267374E+03  0.10435267374E+03  0.00000000000E+00 0. -1.
    9000006    2    1    2  501    0  0.00000000000E+00  0.00000000000E+00  0.89564732626E+03  0.11043526737E+04  0.64607328917E+03 0.  0.
         13    1    3    3    0    0 -0.29339721459E+03 -0.10868038634E+03  0.58520238226E+03  0.66359263114E+03  0.00000000000E+00 0. -1.
          2    1    3    3  501    0  0.29339721459E+03  0.10868038634E+03  0.31044494399E+03  0.44076004260E+03  0.00000000000E+00 0. -1.
<mgrwt>
<rscale>  0 0.64607329E+03</rscale>
<asrwt>0</asrwt>
<pdfrwt beam="1">0</pdfrwt>
<pdfrwt beam="2">  1        2 0.37946507E+00 0.64607329E+03</pdfrwt>
<totfact> 0.47500044E+00</totfact>
</mgrwt>
</event>
<event>
 5    1  0.2311484E-004  0.6486120E+03  0.7818608E-02  0.9809387E-01
         13   -1    0    0    0    0  0.00000000000E+00  0.00000000000E+00  0.10000000000E+04  0.10000000000E+04  0.00000000000E+00 0. -1.
          2   -1    0    0  501    0 -0.00000000000E+00 -0.00000000000E+00 -0.10517438808E+03  0.10517438808E+03  0.00000000000E+00 0. -1.
    9000006    2    1    2  501    0  0.00000000000E+00  0.00000000000E+00  0.89482561192E+03  0.11051743881E+04  0.64861201988E+03 0.  0.
         13    1    3    3    0    0  0.87853220804E+02  0.21688811392E+03  0.64826944225E+02  0.24281922301E+03  0.00000000000E+00 0. -1.
          4    1    3    3  501    0 -0.87853220804E+02 -0.21688811392E+03  0.82999866769E+03  0.86235516508E+03  0.00000000000E+00 0. -1.
<mgrwt>
<rscale>  0 0.64861202E+03</rscale>
<asrwt>0</asrwt>
<pdfrwt beam="1">0</pdfrwt>
<pdfrwt beam="2">  1        2 0.38245313E+00 0.64861202E+03</pdfrwt>
<totfact> 0.46299406E+00</totfact>
</mgrwt>
</event>
<event>
 5    1  0.2311484E-004  0.6447650E+03  0.7818608E-02  0.9816652E-01
         13   -1    0    0    0    0  0.00000000000E+00  0.00000000000E+00  0.10000000000E+04  0.10000000000E+04  0.00000000000E+00 0. -1.
          2   -1    0    0  501    0 -0.00000000000E+00 -0.00000000000E+00 -0.10393046133E+03  0.10393046133E+03  0.00000000000E+00 0. -1.
    9000006    2    1    2  501    0  0.00000000000E+00  0.00000000000E+00  0.89606953867E+03  0.11039304613E+04  0.64476495355E+03 0.  0.
         13    1    3    3    0    0  0.18956176920E+03  0.25311360282E+03  0.55537269624E+03  0.63909231884E+03  0.00000000000E+00 0. -1.
          2    1    3    3  501    0 -0.18956176920E+03 -0.25311360282E+03  0.34069684243E+03  0.46483814249E+03  0.00000000000E+00 0. -1.
<mgrwt>
<rscale>  0 0.64476495E+03</rscale>
<asrwt>0</asrwt>
<pdfrwt beam="1">0</pdfrwt>
<pdfrwt beam="2">  1        2 0.37792975E+00 0.64476495E+03</pdfrwt>
<totfact> 0.48127911E+00</totfact>
</mgrwt>
</event>
<event>
 5    1  0.2311484E-004  0.6707656E+03  0.7818608E-02  0.9768576E-01
         13   -1    0    0    0    0  0.00000000000E+00  0.00000000000E+00  0.10000000000E+04  0.10000000000E+04  0.00000000000E+00 0. -1.
          2   -1    0    0  501    0 -0.00000000000E+00 -0.00000000000E+00 -0.11248163027E+03  0.11248163027E+03  0.00000000000E+00 0. -1.
    9000006    2    1    2  501    0  0.00000000000E+00  0.00000000000E+00  0.88751836973E+03  0.11124816303E+04  0.67076562305E+03 0.  0.
         13    1    3    3    0    0 -0.16915950652E+03  0.28769920468E+03  0.38885575950E+03  0.51243982351E+03  0.00000000000E+00 0. -1.
          2    1    3    3  501    0  0.16915950652E+03 -0.28769920468E+03  0.49866261023E+03  0.60004180676E+03  0.00000000000E+00 0. -1.
<mgrwt>
<rscale>  0 0.67076562E+03</rscale>
<asrwt>0</asrwt>
<pdfrwt beam="1">0</pdfrwt>
<pdfrwt beam="2">  1        2 0.40902497E+00 0.67076562E+03</pdfrwt>
<totfact> 0.36768912E+00</totfact>
</mgrwt>
</event>
<event>
 5    1  0.2311484E-004  0.5352920E+03  0.7818608E-02  0.1004957E+00
         13   -1    0    0    0    0  0.00000000000E+00  0.00000000000E+00  0.10000000000E+04  0.10000000000E+04  0.00000000000E+00 0. -1.
          2   -1    0    0  501    0 -0.00000000000E+00 -0.00000000000E+00 -0.71634387602E+02  0.71634387602E+02  0.00000000000E+00 0. -1.
    9000006    2    1    2  501    0  0.00000000000E+00  0.00000000000E+00  0.92836561240E+03  0.10716343876E+04  0.53529202348E+03 0.  0.
         13    1    3    3    0    0 -0.20257727542E+03 -0.76446535757E+02  0.77915172858E+03  0.80867734078E+03  0.00000000000E+00 0. -1.
          2    1    3    3  501    0  0.20257727542E+03  0.76446535757E+02  0.14921388382E+03  0.26295704682E+03  0.00000000000E+00 0. -1.
<mgrwt>
<rscale>  0 0.53529202E+03</rscale>
<asrwt>0</asrwt>
<pdfrwt beam="1">0</pdfrwt>
<pdfrwt beam="2">  1        2 0.26048923E+00 0.53529202E+03</pdfrwt>
<totfact> 0.12781998E+01</totfact>
</mgrwt>
</event>
<event>
 5    1  0.2311484E-004  0.6417990E+03  0.7818608E-02  0.9822291E-01
         13   -1    0    0    0    0  0.00000000000E+00  0.00000000000E+00  0.10000000000E+04  0.10000000000E+04  0.00000000000E+00 0. -1.
          2   -1    0    0  501    0 -0.00000000000E+00 -0.00000000000E+00 -0.10297648716E+03  0.10297648716E+03  0.00000000000E+00 0. -1.
    9000006    2    1    2  501    0  0.00000000000E+00  0.00000000000E+00  0.89702351284E+03  0.11029764872E+04  0.64179899395E+03 0.  0.
         13    1    3    3    0    0  0.32113181055E+02  0.16258839308E+03  0.92075979486E+03  0.93555589988E+03  0.00000000000E+00 0. -1.
          4    1    3    3  501    0 -0.32113181055E+02 -0.16258839308E+03 -0.23736282023E+02  0.16742058728E+03  0.00000000000E+00 0. -1.
<mgrwt>
<rscale>  0 0.64179899E+03</rscale>
<asrwt>0</asrwt>
<pdfrwt beam="1">0</pdfrwt>
<pdfrwt beam="2">  1        2 0.37446074E+00 0.64179899E+03</pdfrwt>
<totfact> 0.49574559E+00</totfact>
</mgrwt>
</event>
<event>
 5    1  0.2311484E-004  0.6546547E+03  0.7818608E-02  0.9798084E-01
         13   -1    0    0    0    0  0.00000000000E+00  0.00000000000E+00  0.10000000000E+04  0.10000000000E+04  0.00000000000E+00 0. -1.
          2   -1    0    0  501    0 -0.00000000000E+00 -0.00000000000E+00 -0.10714319573E+03  0.10714319573E+03  0.00000000000E+00 0. -1.
    9000006    2    1    2  501    0  0.00000000000E+00  0.00000000000E+00  0.89285680427E+03  0.11071431957E+04  0.65465470512E+03 0.  0.
         13    1    3    3    0    0  0.14475566585E+03  0.18253611084E+03  0.57567432641E+02  0.23997425665E+03  0.00000000000E+00 0. -1.
          2    1    3    3  501    0 -0.14475566585E+03 -0.18253611084E+03  0.83528937162E+03  0.86716893908E+03  0.00000000000E+00 0. -1.
<mgrwt>
<rscale>  0 0.65465471E+03</rscale>
<asrwt>0</asrwt>
<pdfrwt beam="1">0</pdfrwt>
<pdfrwt beam="2">  1        2 0.38961244E+00 0.65465471E+03</pdfrwt>
<totfact> 0.43533938E+00</totfact>
</mgrwt>
</event>
<event>
 5    1  0.2311484E-004  0.6462479E+03  0.7818608E-02  0.9813845E-01
         13   -1    0    0    0    0  0.00000000000E+00  0.00000000000E+00  0.10000000000E+04  0.10000000000E+04  0.00000000000E+00 0. -1.
          2   -1    0    0  501    0 -0.00000000000E+00 -0.00000000000E+00 -0.10440908941E+03  0.10440908941E+03  0.00000000000E+00 0. -1.
    9000006    2    1    2  501    0  0.00000000000E+00  0.00000000000E+00  0.89559091059E+03  0.11044090894E+04  0.64624790725E+03 0.  0.
         13    1    3    3    0    0 -0.18143372040E+03  0.43658861875E+01 -0.90804810701E+01  0.18171326588E+03  0.00000000000E+00 0. -1.
          4    1    3    3  501    0  0.18143372040E+03 -0.43658861875E+01  0.90467139166E+03  0.92269582353E+03  0.00000000000E+00 0. -1.
<mgrwt>
<rscale>  0 0.64624791E+03</rscale>
<asrwt>0</asrwt>
<pdfrwt beam="1">0</pdfrwt>
<pdfrwt beam="2">  1        2 0.37967022E+00 0.64624791E+03</pdfrwt>
<totfact> 0.47416716E+00</totfact>
</mgrwt>
</event>
<event>
 5    1  0.2311484E-004  0.6423572E+03  0.7818608E-02  0.9821227E-01
         13   -1    0    0    0    0  0.00000000000E+00  0.00000000000E+00  0.10000000000E+04  0.10000000000E+04  0.00000000000E+00 0. -1.
          2   -1    0    0  501    0 -0.00000000000E+00 -0.00000000000E+00 -0.10315568085E+03  0.10315568085E+03  0.00000000000E+00 0. -1.
    9000006    2    1    2  501    0  0.00000000000E+00  0.00000000000E+00  0.89684431915E+03  0.11031556808E+04  0.64235716187E+03 0.  0.
         13    1    3    3    0    0  0.38819551262E+01 -0.30720450115E+03  0.60921292800E+03  0.68229763794E+03  0.00000000000E+00 0. -1.
          2    1    3    3  501    0 -0.38819551262E+01  0.30720450115E+03  0.28763139115E+03  0.42085804291E+03  0.00000000000E+00 0. -1.
<mgrwt>
<rscale>  0 0.64235716E+03</rscale>
<asrwt>0</asrwt>
<pdfrwt beam="1">0</pdfrwt>
<pdfrwt beam="2">  1        2 0.37511236E+00 0.64235716E+03</pdfrwt>
<totfact> 0.49299814E+00</totfact>
</mgrwt>
</event>
<event>
 5    1  0.2311484E-004  0.5796798E+03  0.7818608E-02  0.9948485E-01
         13   -1    0    0    0    0  0.00000000000E+00  0.00000000000E+00  0.10000000000E+04  0.10000000000E+04  0.00000000000E+00 0. -1.
          2   -1    0    0  501    0 -0.00000000000E+00 -0.00000000000E+00 -0.84007163236E+02  0.84007163236E+02  0.00000000000E+00 0. -1.
    9000006    2    1    2  501    0  0.00000000000E+00  0.00000000000E+00  0.91599283676E+03  0.10840071632E+04  0.57967978483E+03 0.  0.
         13    1    3    3    0    0  0.27734590024E+03 -0.74978048503E+02  0.52956450221E+03  0.60247906033E+03  0.00000000000E+00 0. -1.
          4    1    3    3  501    0 -0.27734590024E+03  0.74978048503E+02  0.38642833456E+03  0.48152810291E+03  0.00000000000E+00 0. -1.
<mgrwt>
<rscale>  0 0.57967978E+03</rscale>
<asrwt>0</asrwt>
<pdfrwt beam="1">0</pdfrwt>
<pdfrwt beam="2">  1        2 0.30548124E+00 0.57967978E+03</pdfrwt>
<totfact> 0.88249314E+00</totfact>
</mgrwt>
</event>
<event>
 5    1  0.2311484E-004  0.6101090E+03  0.7818608E-02  0.9884652E-01
         13   -1    0    0    0    0  0.00000000000E+00  0.00000000000E+00  0.10000000000E+04  0.10000000000E+04  0.00000000000E+00 0. -1.
          2   -1    0    0  501    0 -0.00000000000E+00 -0.00000000000E+00 -0.93058245557E+02  0.93058245557E+02  0.00000000000E+00 0. -1.
    9000006    2    1    2  501    0  0.00000000000E+00  0.00000000000E+00  0.90694175444E+03  0.10930582456E+04  0.61010899209E+03 0.  0.
         13    1    3    3    0    0 -0.29177807096E+03 -0.68760033172E+02  0.55475230139E+03  0.63056522323E+03  0.00000000000E+00 0. -1.
          4    1    3    3  501    0  0.29177807096E+03  0.68760033172E+02  0.35218945305E+03  0.46249302232E+03  0.00000000000E+00 0. -1.
<mgrwt>
<rscale>  0 0.61010899E+03</rscale>
<asrwt>0</asrwt>
<pdfrwt beam="1">0</pdfrwt>
<pdfrwt beam="2">  1        2 0.33839433E+00 0.61010899E+03</pdfrwt>
<totfact> 0.67181370E+00</totfact>
</mgrwt>
</event>
<event>
 5    1  0.2311484E-004  0.6190978E+03  0.7818608E-02  0.9866558E-01
         13   -1    0    0    0    0  0.00000000000E+00  0.00000000000E+00  0.10000000000E+04  0.10000000000E+04  0.00000000000E+00 0. -1.
          2   -1    0    0  501    0 -0.00000000000E+00 -0.00000000000E+00 -0.95820534988E+02  0.95820534988E+02  0.00000000000E+00 0. -1.
    9000006    2    1    2  501    0  0.00000000000E+00  0.00000000000E+00  0.90417946501E+03  0.10958205350E+04  0.61909784360E+03 0.  0.
         13    1    3    3    0    0 -0.86947592331E+02  0.23380310406E+03  0.12765388074E+03  0.28021293429E+03  0.00000000000E+00 0. -1.
          2    1    3    3  501    0  0.86947592331E+02 -0.23380310406E+03  0.77652558427E+03  0.81560760069E+03  0.00000000000E+00 0. -1.
<mgrwt>
<rscale>  0 0.61909784E+03</rscale>
<asrwt>0</asrwt>
<pdfrwt beam="1">0</pdfrwt>
<pdfrwt beam="2">  1        2 0.34843904E+00 0.61909784E+03</pdfrwt>
<totfact> 0.61769509E+00</totfact>
</mgrwt>
</event>
<event>
 5    1  0.2311484E-004  0.6745018E+03  0.7818608E-02  0.9761859E-01
         13   -1    0    0    0    0  0.00000000000E+00  0.00000000000E+00  0.10000000000E+04  0.10000000000E+04  0.00000000000E+00 0. -1.
          2   -1    0    0  501    0 -0.00000000000E+00 -0.00000000000E+00 -0.11373816391E+03  0.11373816391E+03  0.00000000000E+00 0. -1.
    9000006    2    1    2  501    0  0.00000000000E+00  0.00000000000E+00  0.88626183609E+03  0.11137381639E+04  0.67450178327E+03 0.  0.
         13    1    3    3    0    0  0.29137312815E+02 -0.31564233140E+03  0.63326370538E+03  0.70816804850E+03  0.00000000000E+00 0. -1.
          4    1    3    3  501    0 -0.29137312815E+02  0.31564233140E+03  0.25299813071E+03  0.40557011541E+03  0.00000000000E+00 0. -1.
<mgrwt>
<rscale>  0 0.67450178E+03</rscale>
<asrwt>0</asrwt>
<pdfrwt beam="1">0</pdfrwt>
<pdfrwt beam="2">  1        2 0.41359420E+00 0.67450178E+03</pdfrwt>
<totfact> 0.35320585E+00</totfact>
</mgrwt>
</event>
<event>
 5    1  0.2311484E-004  0.6510292E+03  0.7818608E-02  0.9804850E-01
         13   -1    0    0    0    0  0.00000000000E+00  0.00000000000E+00  0.10000000000E+04  0.10000000000E+04  0.00000000000E+00 0. -1.
          2   -1    0    0  501    0 -0.00000000000E+00 -0.00000000000E+00 -0.10595976987E+03  0.10595976987E+03  0.00000000000E+00 0. -1.
    9000006    2    1    2  501    0  0.00000000000E+00  0.00000000000E+00  0.89404023013E+03  0.11059597699E+04  0.65102924627E+03 0.  0.
         13    1    3    3    0    0  0.12414984754E+03  0.23803925700E+03  0.13431462264E+03  0.30019375472E+03  0.00000000000E+00 0. -1.
          4    1    3    3  501    0 -0.12414984754E+03 -0.23803925700E+03  0.75972560748E+03  0.80576601516E+03  0.00000000000E+00 0. -1.
<mgrwt>
<rscale>  0 0.65102925E+03</rscale>
<asrwt>0</asrwt>
<pdfrwt beam="1">0</pdfrwt>
<pdfrwt beam="2">  1        2 0.38530907E+00 0.65102925E+03</pdfrwt>
<totfact> 0.45177691E+00</totfact>
</mgrwt>
</event>
<event>
 5    1  0.2311484E-004  0.6529391E+03  0.7818608E-02  0.9801280E-01
         13   -1    0    0    0    0  0.00000000000E+00  0.00000000000E+00  0.10000000000E+04  0.10000000000E+04  0.00000000000E+00 0. -1.
          2   -1    0    0  501    0 -0.00000000000E+00 -0.00000000000E+00 -0.10658236283E+03  0.10658236283E+03  0.00000000000E+00 0. -1.
    9000006    2    1    2  501    0  0.00000000000E+00  0.00000000000E+00  0.89341763717E+03  0.11065823628E+04  0.65293908698E+03 0.  0.
         13    1    3    3    0    0  0.30083319414E+03  0.64441085062E+02  0.26160520715E+03  0.40384470846E+03  0.00000000000E+00 0. -1.
          2    1    3    3  501    0 -0.30083319414E+03 -0.64441085062E+02  0.63181243002E+03  0.70273765437E+03  0.00000000000E+00 0. -1.
<mgrwt>
<rscale>  0 0.65293909E+03</rscale>
<asrwt>0</asrwt>
<pdfrwt beam="1">0</pdfrwt>
<pdfrwt beam="2">  1        2 0.38757305E+00 0.65293909E+03</pdfrwt>
<totfact> 0.44306050E+00</totfact>
</mgrwt>
</event>
<event>
 5    1  0.2311484E-004  0.6497334E+03  0.7818608E-02  0.9807280E-01
         13   -1    0    0    0    0  0.00000000000E+00  0.00000000000E+00  0.10000000000E+04  0.10000000000E+04  0.00000000000E+00 0. -1.
          2   -1    0    0  501    0 -0.00000000000E+00 -0.00000000000E+00 -0.10553836525E+03  0.10553836525E+03  0.00000000000E+00 0. -1.
    9000006    2    1    2  501    0  0.00000000000E+00  0.00000000000E+00  0.89446163475E+03  0.11055383652E+04  0.64973337685E+03 0.  0.
         13    1    3    3    0    0  0.20978923237E+03  0.14683172607E+03  0.10706475853E+03  0.27754988798E+03  0.00000000000E+00 0. -1.
          4    1    3    3  501    0 -0.20978923237E+03 -0.14683172607E+03  0.78739687622E+03  0.82798847727E+03  0.00000000000E+00 0. -1.
<mgrwt>
<rscale>  0 0.64973338E+03</rscale>
<asrwt>0</asrwt>
<pdfrwt beam="1">0</pdfrwt>
<pdfrwt beam="2">  1        2 0.38377668E+00 0.64973338E+03</pdfrwt>
<totfact> 0.45776454E+00</totfact>
</mgrwt>
</event>
<event>
 5    1  0.2311484E-004  0.6489814E+03  0.7818608E-02  0.9808692E-01
         13   -1    0    0    0    0  0.00000000000E+00  0.00000000000E+00  0.10000000000E+04  0.10000000000E+04  0.00000000000E+00 0. -1.
          2   -1    0    0  501    0 -0.00000000000E+00 -0.00000000000E+00 -0.10529421153E+03  0.10529421153E+03  0.00000000000E+00 0. -1.
    9000006    2    1    2  501    0  0.00000000000E+00  0.00000000000E+00  0.89470578847E+03  0.11052942115E+04  0.64898139121E+03 0.  0.
         13    1    3    3    0    0  0.16955280416E+03  0.27412698725E+03  0.38361761094E+03  0.50105511669E+03  0.00000000000E+00 0. -1.
          2    1    3    3  501    0 -0.16955280416E+03 -0.27412698725E+03  0.51108817752E+03  0.60423909484E+03  0.00000000000E+00 0. -1.
<mgrwt>
<rscale>  0 0.64898139E+03</rscale>
<asrwt>0</asrwt>
<pdfrwt beam="1">0</pdfrwt>
<pdfrwt beam="2">  1        2 0.38288885E+00 0.64898139E+03</pdfrwt>
<totfact> 0.46126652E+00</totfact>
</mgrwt>
</event>
<event>
 5    1  0.2311484E-004  0.6365087E+03  0.7818608E-02  0.9832429E-01
         13   -1    0    0    0    0  0.00000000000E+00  0.00000000000E+00  0.10000000000E+04  0.10000000000E+04  0.00000000000E+00 0. -1.
          2   -1    0    0  501    0 -0.00000000000E+00 -0.00000000000E+00 -0.10128582681E+03  0.10128582681E+03  0.00000000000E+00 0. -1.
    9000006    2    1    2  501    0  0.00000000000E+00  0.00000000000E+00  0.89871417319E+03  0.11012858268E+04  0.63650868592E+03 0.  0.
         13    1    3    3    0    0  0.16034821907E+03 -0.25121134284E+03  0.64254461041E+03  0.70829532435E+03  0.00000000000E+00 0. -1.
          4    1    3    3  501    0 -0.16034821907E+03  0.25121134284E+03  0.25616956278E+03  0.39299050246E+03  0.00000000000E+00 0. -1.
<mgrwt>
<rscale>  0 0.63650869E+03</rscale>
<asrwt>0</asrwt>
<pdfrwt beam="1">0</pdfrwt>
<pdfrwt beam="2">  1        2 0.36831287E+00 0.63650869E+03</pdfrwt>
<totfact> 0.52236558E+00</totfact>
</mgrwt>
</event>
<event>
 5    1  0.2311484E-004  0.6503548E+03  0.7818608E-02  0.9806114E-01
         13   -1    0    0    0    0  0.00000000000E+00  0.00000000000E+00  0.10000000000E+04  0.10000000000E+04  0.00000000000E+00 0. -1.
          2   -1    0    0  501    0 -0.00000000000E+00 -0.00000000000E+00 -0.10574035030E+03  0.10574035030E+03  0.00000000000E+00 0. -1.
    9000006    2    1    2  501    0  0.00000000000E+00  0.00000000000E+00  0.89425964970E+03  0.11057403503E+04  0.65035482716E+03 0.  0.
         13    1    3    3    0    0  0.18018328374E+03 -0.26022806179E+03  0.32040205017E+03  0.45037998805E+03  0.00000000000E+00 0. -1.
          4    1    3    3  501    0 -0.18018328374E+03  0.26022806179E+03  0.57385759953E+03  0.65536036226E+03  0.00000000000E+00 0. -1.
<mgrwt>
<rscale>  0 0.65035483E+03</rscale>
<asrwt>0</asrwt>
<pdfrwt beam="1">0</pdfrwt>
<pdfrwt beam="2">  1        2 0.38451118E+00 0.65035483E+03</pdfrwt>
<totfact> 0.45488566E+00</totfact>
</mgrwt>
</event>
<event>
 5    1  0.2311484E-004  0.6351688E+03  0.7818608E-02  0.9835014E-01
         13   -1    0    0    0    0  0.00000000000E+00  0.00000000000E+00  0.10000000000E+04  0.10000000000E+04  0.00000000000E+00 0. -1.
          2   -1    0    0  501    0 -0.00000000000E+00 -0.00000000000E+00 -0.10085983940E+03  0.10085983940E+03  0.00000000000E+00 0. -1.
    9000006    2    1    2  501    0  0.00000000000E+00  0.00000000000E+00  0.89914016060E+03  0.11008598394E+04  0.63516876308E+03 0.  0.
         13    1    3    3    0    0  0.11855537130E+01 -0.19660767642E+02 -0.99800221644E+02  0.10172529460E+03  0.00000000000E+00 0. -1.
          2    1    3    3  501    0 -0.11855537130E+01  0.19660767642E+02  0.99894038225E+03  0.99913454480E+03  0.00000000000E+00 0. -1.
<mgrwt>
<rscale>  0 0.63516876E+03</rscale>
<asrwt>0</asrwt>
<pdfrwt beam="1">0</pdfrwt>
<pdfrwt beam="2">  1        2 0.36676383E+00 0.63516876E+03</pdfrwt>
<totfact> 0.52927640E+00</totfact>
</mgrwt>
</event>
<event>
 5    1  0.2311484E-004  0.6434076E+03  0.7818608E-02  0.9819229E-01
         13   -1    0    0    0    0  0.00000000000E+00  0.00000000000E+00  0.10000000000E+04  0.10000000000E+04  0.00000000000E+00 0. -1.
          2   -1    0    0  501    0 -0.00000000000E+00 -0.00000000000E+00 -0.10349334357E+03  0.10349334357E+03  0.00000000000E+00 0. -1.
    9000006    2    1    2  501    0  0.00000000000E+00  0.00000000000E+00  0.89650665643E+03  0.11034933436E+04  0.64340762685E+03 0.  0.
         13    1    3    3    0    0 -0.24443672487E+03 -0.17109161877E+03  0.24193247507E+03  0.38412625135E+03  0.00000000000E+00 0. -1.
          2    1    3    3  501    0  0.24443672487E+03  0.17109161877E+03  0.65457418135E+03  0.71936709222E+03  0.00000000000E+00 0. -1.
<mgrwt>
<rscale>  0 0.64340763E+03</rscale>
<asrwt>0</asrwt>
<pdfrwt beam="1">0</pdfrwt>
<pdfrwt beam="2">  1        2 0.37634022E+00 0.64340763E+03</pdfrwt>
<totfact> 0.48785906E+00</totfact>
</mgrwt>
</event>
<event>
 5    1  0.2311484E-004  0.6452226E+03  0.7818608E-02  0.9815785E-01
         13   -1    0    0    0    0  0.00000000000E+00  0.00000000000E+00  0.10000000000E+04  0.10000000000E+04  0.00000000000E+00 0. -1.
          2   -1    0    0  501    0 -0.00000000000E+00 -0.00000000000E+00 -0.10407806292E+03  0.10407806292E+03  0.00000000000E+00 0. -1.
    9000006    2    1    2  501    0  0.00000000000E+00  0.00000000000E+00  0.89592193708E+03  0.11040780629E+04  0.64522263731E+03 0.  0.
         13    1    3    3    0    0  0.16476688459E+03 -0.11152472273E+03  0.88251490631E+03  0.90466482738E+03  0.00000000000E+00 0. -1.
          4    1    3    3  501    0 -0.16476688459E+03  0.11152472273E+03  0.13407030764E+02  0.19941323554E+03  0.00000000000E+00 0. -1.
<mgrwt>
<rscale>  0 0.64522264E+03</rscale>
<asrwt>0</asrwt>
<pdfrwt beam="1">0</pdfrwt>
<pdfrwt beam="2">  1        2 0.37846648E+00 0.64522264E+03</pdfrwt>
<totfact> 0.47907560E+00</totfact>
</mgrwt>
</event>
<event>
 5    1  0.2311484E-004  0.6580634E+03  0.7818608E-02  0.9791765E-01
         13   -1    0    0    0    0  0.00000000000E+00  0.00000000000E+00  0.10000000000E+04  0.10000000000E+04  0.00000000000E+00 0. -1.
          2   -1    0    0  501    0 -0.00000000000E+00 -0.00000000000E+00 -0.10826185237E+03  0.10826185237E+03  0.00000000000E+00 0. -1.
    9000006    2    1    2  501    0  0.00000000000E+00  0.00000000000E+00  0.89173814763E+03  0.11082618524E+04  0.65806337800E+03 0.  0.
         13    1    3    3    0    0 -0.13633320465E+03  0.25425131301E+03  0.17941825790E+03  0.33973722806E+03  0.00000000000E+00 0. -1.
          2    1    3    3  501    0  0.13633320465E+03 -0.25425131301E+03  0.71231988974E+03  0.76852462431E+03  0.00000000000E+00 0. -1.
<mgrwt>
<rscale>  0 0.65806338E+03</rscale>
<asrwt>0</asrwt>
<pdfrwt beam="1">0</pdfrwt>
<pdfrwt beam="2">  1        2 0.39368029E+00 0.65806338E+03</pdfrwt>
<totfact> 0.42030059E+00</totfact>
</mgrwt>
</event>
<event>
 5    1  0.2311484E-004  0.7632035E+03  0.7818608E-02  0.9614861E-01
         13   -1    0    0    0    0  0.00000000000E+00  0.00000000000E+00  0.10000000000E+04  0.10000000000E+04  0.00000000000E+00 0. -1.
          2   -1    0    0  501    0 -0.00000000000E+00 -0.00000000000E+00 -0.14561991134E+03  0.14561991134E+03  0.00000000000E+00 0. -1.
    9000006    2    1    2  501    0  0.00000000000E+00  0.00000000000E+00  0.85438008866E+03  0.11456199113E+04  0.76320354123E+03 0.  0.
         13    1    3    3    0    0 -0.54748556949E+02  0.83518585211E+02  0.98003775767E+03  0.98511256464E+03  0.00000000000E+00 0. -1.
          2    1    3    3  501    0  0.54748556949E+02 -0.83518585211E+02 -0.12565766900E+03  0.16050734669E+03  0.00000000000E+00 0. -1.
<mgrwt>
<rscale>  0 0.76320354E+03</rscale>
<asrwt>0</asrwt>
<pdfrwt beam="1">0</pdfrwt>
<pdfrwt beam="2">  1        2 0.52952807E+00 0.76320354E+03</pdfrwt>
<totfact> 0.11826471E+00</totfact>
</mgrwt>
</event>
<event>
 5    1  0.2311484E-004  0.6594875E+03  0.7818608E-02  0.9789138E-01
         13   -1    0    0    0    0  0.00000000000E+00  0.00000000000E+00  0.10000000000E+04  0.10000000000E+04  0.00000000000E+00 0. -1.
          2   -1    0    0  501    0 -0.00000000000E+00 -0.00000000000E+00 -0.10873094316E+03  0.10873094316E+03  0.00000000000E+00 0. -1.
    9000006    2    1    2  501    0  0.00000000000E+00  0.00000000000E+00  0.89126905684E+03  0.11087309432E+04  0.65948750758E+03 0.  0.
         13    1    3    3    0    0 -0.13673247899E+03  0.84354294245E+02 -0.38479869211E+02  0.16520326299E+03  0.00000000000E+00 0. -1.
          2    1    3    3  501    0  0.13673247899E+03 -0.84354294245E+02  0.92974892605E+03  0.94352768017E+03  0.00000000000E+00 0. -1.
<mgrwt>
<rscale>  0 0.65948751E+03</rscale>
<asrwt>0</asrwt>
<pdfrwt beam="1">0</pdfrwt>
<pdfrwt beam="2">  1        2 0.39538608E+00 0.65948751E+03</pdfrwt>
<totfact> 0.41413549E+00</totfact>
</mgrwt>
</event>
<event>
 5    1  0.2311484E-004  0.6379959E+03  0.7818608E-02  0.9829568E-01
         13   -1    0    0    0    0  0.00000000000E+00  0.00000000000E+00  0.10000000000E+04  0.10000000000E+04  0.00000000000E+00 0. -1.
          2   -1    0    0  501    0 -0.00000000000E+00 -0.00000000000E+00 -0.10175968218E+03  0.10175968218E+03  0.00000000000E+00 0. -1.
    9000006    2    1    2  501    0  0.00000000000E+00  0.00000000000E+00  0.89824031782E+03  0.11017596822E+04  0.63799586888E+03 0.  0.
         13    1    3    3    0    0  0.25228525093E+03  0.28577860645E+02  0.78261961605E+03  0.82277457750E+03  0.00000000000E+00 0. -1.
          4    1    3    3  501    0 -0.25228525093E+03 -0.28577860645E+02  0.11562070178E+03  0.27898510468E+03  0.00000000000E+00 0. -1.
<mgrwt>
<rscale>  0 0.63799587E+03</rscale>
<asrwt>0</asrwt>
<pdfrwt beam="1">0</pdfrwt>
<pdfrwt beam="2">  1        2 0.37003599E+00 0.63799587E+03</pdfrwt>
<totfact> 0.51477553E+00</totfact>
</mgrwt>
</event>
<event>
 5    1  0.2311484E-004  0.6488632E+03  0.7818608E-02  0.9808915E-01
         13   -1    0    0    0    0  0.00000000000E+00  0.00000000000E+00  0.10000000000E+04  0.10000000000E+04  0.00000000000E+00 0. -1.
          2   -1    0    0  501    0 -0.00000000000E+00 -0.00000000000E+00 -0.10525585597E+03  0.10525585597E+03  0.00000000000E+00 0. -1.
    9000006    2    1    2  501    0  0.00000000000E+00  0.00000000000E+00  0.89474414403E+03  0.11052558560E+04  0.64886317810E+03 0.  0.
         13    1    3    3    0    0  0.15881206121E+03  0.26419048144E+03  0.61972422832E+03  0.69215316255E+03  0.00000000000E+00 0. -1.
          2    1    3    3  501    0 -0.15881206121E+03 -0.26419048144E+03  0.27501991571E+03  0.41310269342E+03  0.00000000000E+00 0. -1.
<mgrwt>
<rscale>  0 0.64886318E+03</rscale>
<asrwt>0</asrwt>
<pdfrwt beam="1">0</pdfrwt>
<pdfrwt beam="2">  1        2 0.38274937E+00 0.64886318E+03</pdfrwt>
<totfact> 0.46181887E+00</totfact>
</mgrwt>
</event>
<event>
 5    1  0.2311484E-004  0.6573831E+03  0.7818608E-02  0.9793023E-01
         13   -1    0    0    0    0  0.00000000000E+00  0.00000000000E+00  0.10000000000E+04  0.10000000000E+04  0.00000000000E+00 0. -1.
          2   -1    0    0  501    0 -0.00000000000E+00 -0.00000000000E+00 -0.10803814961E+03  0.10803814961E+03  0.00000000000E+00 0. -1.
    9000006    2    1    2  501    0  0.00000000000E+00  0.00000000000E+00  0.89196185039E+03  0.11080381496E+04  0.65738314434E+03 0.  0.
         13    1    3    3    0    0 -0.29591649957E+03  0.65761654194E+01  0.20507217740E+03  0.36008945918E+03  0.00000000000E+00 0. -1.
          4    1    3    3  501    0  0.29591649957E+03 -0.65761654194E+01  0.68688967299E+03  0.74794869044E+03  0.00000000000E+00 0. -1.
<mgrwt>
<rscale>  0 0.65738314E+03</rscale>
<asrwt>0</asrwt>
<pdfrwt beam="1">0</pdfrwt>
<pdfrwt beam="2">  1        2 0.39286683E+00 0.65738314E+03</pdfrwt>
<totfact> 0.42326990E+00</totfact>
</mgrwt>
</event>
<event>
 5    1  0.2311484E-004  0.6429799E+03  0.7818608E-02  0.9820042E-01
         13   -1    0    0    0    0  0.00000000000E+00  0.00000000000E+00  0.10000000000E+04  0.10000000000E+04  0.00000000000E+00 0. -1.
          2   -1    0    0  501    0 -0.00000000000E+00 -0.00000000000E+00 -0.10335578759E+03  0.10335578759E+03  0.00000000000E+00 0. -1.
    9000006    2    1    2  501    0  0.00000000000E+00  0.00000000000E+00  0.89664421241E+03  0.11033557876E+04  0.64297989889E+03 0.  0.
         13    1    3    3    0    0 -0.14937155512E+03  0.12175801990E+03  0.67423070893E+01  0.19282721694E+03  0.00000000000E+00 0. -1.
          2    1    3    3  501    0  0.14937155512E+03 -0.12175801990E+03  0.88990190532E+03  0.91052857065E+03  0.00000000000E+00 0. -1.
<mgrwt>
<rscale>  0 0.64297990E+03</rscale>
<asrwt>0</asrwt>
<pdfrwt beam="1">0</pdfrwt>
<pdfrwt beam="2">  1        2 0.37584002E+00 0.64297990E+03</pdfrwt>
<totfact> 0.48994661E+00</totfact>
</mgrwt>
</event>
<event>
 5    1  0.2311484E-004  0.6556625E+03  0.7818608E-02  0.9796212E-01
         13   -1    0    0    0    0  0.00000000000E+00  0.00000000000E+00  0.10000000000E+04  0.10000000000E+04  0.00000000000E+00 0. -1.
          2   -1    0    0  501    0 -0.00000000000E+00 -0.00000000000E+00 -0.10747331823E+03  0.10747331823E+03  0.00000000000E+00 0. -1.
    9000006    2    1    2  501    0  0.00000000000E+00  0.00000000000E+00  0.89252668177E+03  0.11074733182E+04  0.65566246874E+03 0.  0.
         13    1    3    3    0    0 -0.35942724847E+02  0.29803151269E+03  0.22372184750E+03  0.37438766951E+03  0.00000000000E+00 0. -1.
          4    1    3    3  501    0  0.35942724847E+02 -0.29803151269E+03  0.66880483427E+03  0.73308564872E+03  0.00000000000E+00 0. -1.
<mgrwt>
<rscale>  0 0.65566247E+03</rscale>
<asrwt>0</asrwt>
<pdfrwt beam="1">0</pdfrwt>
<pdfrwt beam="2">  1        2 0.39081289E+00 0.65566247E+03</pdfrwt>
<totfact> 0.43085159E+00</totfact>
</mgrwt>
</event>
<event>
 5    1  0.2311484E-004  0.6622545E+03  0.7818608E-02  0.9784052E-01
         13   -1    0    0    0    0  0.00000000000E+00  0.00000000000E+00  0.10000000000E+04  0.10000000000E+04  0.00000000000E+00 0. -1.
          2   -1    0    0  501    0 -0.00000000000E+00 -0.00000000000E+00 -0.10964524866E+03  0.10964524866E+03  0.00000000000E+00 0. -1.
    9000006    2    1    2  501    0  0.00000000000E+00  0.00000000000E+00  0.89035475134E+03  0.11096452487E+04  0.66225447878E+03 0.  0.
         13    1    3    3    0    0  0.23621979624E+03 -0.16193906013E+03  0.72364871535E+03  0.77826185475E+03  0.00000000000E+00 0. -1.
          4    1    3    3  501    0 -0.23621979624E+03  0.16193906013E+03  0.16670603599E+03  0.33138339392E+03  0.00000000000E+00 0. -1.
<mgrwt>
<rscale>  0 0.66225448E+03</rscale>
<asrwt>0</asrwt>
<pdfrwt beam="1">0</pdfrwt>
<pdfrwt beam="2">  1        2 0.39871084E+00 0.66225448E+03</pdfrwt>
<totfact> 0.40235271E+00</totfact>
</mgrwt>
</event>
<event>
 5    1  0.2311484E-004  0.6539241E+03  0.7818608E-02  0.9799444E-01
         13   -1    0    0    0    0  0.00000000000E+00  0.00000000000E+00  0.10000000000E+04  0.10000000000E+04  0.00000000000E+00 0. -1.
          2   -1    0    0  501    0 -0.00000000000E+00 -0.00000000000E+00 -0.10690417859E+03  0.10690417859E+03  0.00000000000E+00 0. -1.
    9000006    2    1    2  501    0  0.00000000000E+00  0.00000000000E+00  0.89309582141E+03  0.11069041786E+04  0.65392408913E+03 0.  0.
         13    1    3    3    0    0  0.27858748906E+03 -0.29329436066E+02  0.73197410867E+03  0.78374568620E+03  0.00000000000E+00 0. -1.
          2    1    3    3  501    0 -0.27858748906E+03  0.29329436066E+02  0.16112171274E+03  0.32315849238E+03  0.00000000000E+00 0. -1.
<mgrwt>
<rscale>  0 0.65392409E+03</rscale>
<asrwt>0</asrwt>
<pdfrwt beam="1">0</pdfrwt>
<pdfrwt beam="2">  1        2 0.38874329E+00 0.65392409E+03</pdfrwt>
<totfact> 0.43861498E+00</totfact>
</mgrwt>
</event>
<event>
 5    1  0.2311484E-004  0.6497221E+03  0.7818608E-02  0.9807301E-01
         13   -1    0    0    0    0  0.00000000000E+00  0.00000000000E+00  0.10000000000E+04  0.10000000000E+04  0.00000000000E+00 0. -1.
          2   -1    0    0  501    0 -0.00000000000E+00 -0.00000000000E+00 -0.10553469314E+03  0.10553469314E+03  0.00000000000E+00 0. -1.
    9000006    2    1    2  501    0  0.00000000000E+00  0.00000000000E+00  0.89446530686E+03  0.11055346931E+04  0.64972207333E+03 0.  0.
         13    1    3    3    0    0 -0.27174299401E+03 -0.17508442924E+03  0.50199722384E+03  0.59707623039E+03  0.00000000000E+00 0. -1.
          4    1    3    3  501    0  0.27174299401E+03  0.17508442924E+03  0.39246808302E+03  0.50845846275E+03  0.00000000000E+00 0. -1.
<mgrwt>
<rscale>  0 0.64972207E+03</rscale>
<asrwt>0</asrwt>
<pdfrwt beam="1">0</pdfrwt>
<pdfrwt beam="2">  1        2 0.38376333E+00 0.64972207E+03</pdfrwt>
<totfact> 0.45781703E+00</totfact>
</mgrwt>
</event>
<event>
 5    1  0.2311484E-004  0.6493944E+03  0.7818608E-02  0.9807916E-01
         13   -1    0    0    0    0  0.00000000000E+00  0.00000000000E+00  0.10000000000E+04  0.10000000000E+04  0.00000000000E+00 0. -1.
          2   -1    0    0  501    0 -0.00000000000E+00 -0.00000000000E+00 -0.10542828187E+03  0.10542828187E+03  0.00000000000E+00 0. -1.
    9000006    2    1    2  501    0  0.00000000000E+00  0.00000000000E+00  0.89457171813E+03  0.11054282819E+04  0.64939443136E+03 0.  0.
         13    1    3    3    0    0 -0.88967670077E+02  0.59163201612E+02  0.96921962302E+03  0.97509087186E+03  0.00000000000E+00 0. -1.
          4    1    3    3  501    0  0.88967670077E+02 -0.59163201612E+02 -0.74647904889E+02  0.13033741001E+03  0.00000000000E+00 0. -1.
<mgrwt>
<rscale>  0 0.64939443E+03</rscale>
<asrwt>0</asrwt>
<pdfrwt beam="1">0</pdfrwt>
<pdfrwt beam="2">  1        2 0.38337638E+00 0.64939443E+03</pdfrwt>
<totfact> 0.45934050E+00</totfact>
</mgrwt>
</event>
<event>
 5    1  0.2311484E-004  0.6494760E+03  0.7818608E-02  0.9807763E-01
         13   -1    0    0    0    0  0.00000000000E+00  0.00000000000E+00  0.10000000000E+04  0.10000000000E+04  0.00000000000E+00 0. -1.
          2   -1    0    0  501    0 -0.00000000000E+00 -0.00000000000E+00 -0.10545476057E+03  0.10545476057E+03  0.00000000000E+00 0. -1.
    9000006    2    1    2  501    0  0.00000000000E+00  0.00000000000E+00  0.89454523943E+03  0.11054547606E+04  0.64947597512E+03 0.  0.
         13    1    3    3    0    0  0.23756538135E+02  0.20842483460E+01 -0.10396231714E+03  0.10666246097E+03  0.00000000000E+00 0. -1.
          2    1    3    3  501    0 -0.23756538135E+02 -0.20842483460E+01  0.99850755657E+03  0.99879229959E+03  0.00000000000E+00 0. -1.
<mgrwt>
<rscale>  0 0.64947598E+03</rscale>
<asrwt>0</asrwt>
<pdfrwt beam="1">0</pdfrwt>
<pdfrwt beam="2">  1        2 0.38347267E+00 0.64947598E+03</pdfrwt>
<totfact> 0.45896098E+00</totfact>
</mgrwt>
</event>
<event>
 5    1  0.2311484E-004  0.6527271E+03  0.7818608E-02  0.9801675E-01
         13   -1    0    0    0    0  0.00000000000E+00  0.00000000000E+00  0.10000000000E+04  0.10000000000E+04  0.00000000000E+00 0. -1.
          2   -1    0    0  501    0 -0.00000000000E+00 -0.00000000000E+00 -0.10651316511E+03  0.10651316511E+03  0.00000000000E+00 0. -1.
    9000006    2    1    2  501    0  0.00000000000E+00  0.00000000000E+00  0.89348683489E+03  0.11065131651E+04  0.65272709491E+03 0.  0.
         13    1    3    3    0    0  0.26018574574E+03 -0.12139838325E+03  0.18369000147E+03  0.34084630904E+03  0.00000000000E+00 0. -1.
          2    1    3    3  501    0 -0.26018574574E+03  0.12139838325E+03  0.70979683343E+03  0.76566685607E+03  0.00000000000E+00 0. -1.
<mgrwt>
<rscale>  0 0.65272709E+03</rscale>
<asrwt>0</asrwt>
<pdfrwt beam="1">0</pdfrwt>
<pdfrwt beam="2">  1        2 0.38732142E+00 0.65272709E+03</pdfrwt>
<totfact> 0.44402170E+00</totfact>
</mgrwt>
</event>
<event>
 5    1  0.2311484E-004  0.6402380E+03  0.7818608E-02  0.9825271E-01
         13   -1    0    0    0    0  0.00000000000E+00  0.00000000000E+00  0.10000000000E+04  0.10000000000E+04  0.00000000000E+00 0. -1.
          2   -1    0    0  501    0 -0.00000000000E+00 -0.00000000000E+00 -0.10247616701E+03  0.10247616701E+03  0.00000000000E+00 0. -1.
    9000006    2    1    2  501    0  0.00000000000E+00  0.00000000000E+00  0.89752383299E+03  0.11024761670E+04  0.64023797766E+03 0.  0.
         13    1    3    3    0    0  0.28575707760E+03  0.14096834062E+03  0.50175261988E+03  0.59437771830E+03  0.00000000000E+00 0. -1.
          2    1    3    3  501    0 -0.28575707760E+03 -0.14096834062E+03  0.39577121311E+03  0.50809844871E+03  0.00000000000E+00 0. -1.
<mgrwt>
<rscale>  0 0.64023798E+03</rscale>
<asrwt>0</asrwt>
<pdfrwt beam="1">0</pdfrwt>
<pdfrwt beam="2">  1        2 0.37264139E+00 0.64023798E+03</pdfrwt>
<totfact> 0.50349090E+00</totfact>
</mgrwt>
</event>
<event>
 5    1  0.2311484E-004  0.6622235E+03  0.7818608E-02  0.9784109E-01
         13   -1    0    0    0    0  0.00000000000E+00  0.00000000000E+00  0.10000000000E+04  0.10000000000E+04  0.00000000000E+00 0. -1.
          2   -1    0    0  501    0 -0.00000000000E+00 -0.00000000000E+00 -0.10963500263E+03  0.10963500263E+03  0.00000000000E+00 0. -1.
    9000006    2    1    2  501    0  0.00000000000E+00  0.00000000000E+00  0.89036499737E+03  0.11096350026E+04  0.66222353515E+03 0.  0.
         13    1    3    3    0    0  0.26380129308E+03 -0.11573554899E+03  0.17164471497E+03  0.33533229446E+03  0.00000000000E+00 0. -1.
          2    1    3    3  501    0 -0.26380129308E+03  0.11573554899E+03  0.71872028241E+03  0.77430270817E+03  0.00000000000E+00 0. -1.
<mgrwt>
<rscale>  0 0.66222354E+03</rscale>
<asrwt>0</asrwt>
<pdfrwt beam="1">0</pdfrwt>
<pdfrwt beam="2">  1        2 0.39867358E+00 0.66222354E+03</pdfrwt>
<totfact> 0.40248306E+00</totfact>
</mgrwt>
</event>
<event>
 5    1  0.2311484E-004  0.6521153E+03  0.7818608E-02  0.9802818E-01
         13   -1    0    0    0    0  0.00000000000E+00  0.00000000000E+00  0.10000000000E+04  0.10000000000E+04  0.00000000000E+00 0. -1.
          2   -1    0    0  501    0 -0.00000000000E+00 -0.00000000000E+00 -0.10631358464E+03  0.10631358464E+03  0.00000000000E+00 0. -1.
    9000006    2    1    2  501    0  0.00000000000E+00  0.00000000000E+00  0.89368641536E+03  0.11063135846E+04  0.65211528011E+03 0.  0.
         13    1    3    3    0    0 -0.23948266127E+03  0.18381877599E+02  0.72751504355E+02  0.25096338351E+03  0.00000000000E+00 0. -1.
          2    1    3    3  501    0  0.23948266127E+03 -0.18381877599E+02  0.82093491101E+03  0.85535020113E+03  0.00000000000E+00 0. -1.
<mgrwt>
<rscale>  0 0.65211528E+03</rscale>
<asrwt>0</asrwt>
<pdfrwt beam="1">0</pdfrwt>
<pdfrwt beam="2">  1        2 0.38659567E+00 0.65211528E+03</pdfrwt>
<totfact> 0.44680458E+00</totfact>
</mgrwt>
</event>
<event>
 5    1  0.2311484E-004  0.6434776E+03  0.7818608E-02  0.9819095E-01
         13   -1    0    0    0    0  0.00000000000E+00  0.00000000000E+00  0.10000000000E+04  0.10000000000E+04  0.00000000000E+00 0. -1.
          2   -1    0    0  501    0 -0.00000000000E+00 -0.00000000000E+00 -0.10351586639E+03  0.10351586639E+03  0.00000000000E+00 0. -1.
    9000006    2    1    2  501    0  0.00000000000E+00  0.00000000000E+00  0.89648413361E+03  0.11035158664E+04  0.64347763408E+03 0.  0.
         13    1    3    3    0    0 -0.26743041862E+02 -0.20571357111E+03  0.26486948771E+02  0.20912872133E+03  0.00000000000E+00 0. -1.
          2    1    3    3  501    0  0.26743041862E+02  0.20571357111E+03  0.86999718484E+03  0.89438714506E+03  0.00000000000E+00 0. -1.
<mgrwt>
<rscale>  0 0.64347763E+03</rscale>
<asrwt>0</asrwt>
<pdfrwt beam="1">0</pdfrwt>
<pdfrwt beam="2">  1        2 0.37642213E+00 0.64347763E+03</pdfrwt>
<totfact> 0.48751802E+00</totfact>
</mgrwt>
</event>
<event>
 5    1  0.2311484E-004  0.6512035E+03  0.7818608E-02  0.9804524E-01
         13   -1    0    0    0    0  0.00000000000E+00  0.00000000000E+00  0.10000000000E+04  0.10000000000E+04  0.00000000000E+00 0. -1.
          2   -1    0    0  501    0 -0.00000000000E+00 -0.00000000000E+00 -0.10601649011E+03  0.10601649011E+03  0.00000000000E+00 0. -1.
    9000006    2    1    2  501    0  0.00000000000E+00  0.00000000000E+00  0.89398350989E+03  0.11060164901E+04  0.65120347085E+03 0.  0.
         13    1    3    3    0    0 -0.29661342029E+03 -0.30089242294E+02  0.22468946274E+03  0.37332323563E+03  0.00000000000E+00 0. -1.
          2    1    3    3  501    0  0.29661342029E+03  0.30089242294E+02  0.66929404715E+03  0.73269325448E+03  0.00000000000E+00 0. -1.
<mgrwt>
<rscale>  0 0.65120347E+03</rscale>
<asrwt>0</asrwt>
<pdfrwt beam="1">0</pdfrwt>
<pdfrwt beam="2">  1        2 0.38551532E+00 0.65120347E+03</pdfrwt>
<totfact> 0.45097643E+00</totfact>
</mgrwt>
</event>
<event>
 5    1  0.2311484E-004  0.6492494E+03  0.7818608E-02  0.9808189E-01
         13   -1    0    0    0    0  0.00000000000E+00  0.00000000000E+00  0.10000000000E+04  0.10000000000E+04  0.00000000000E+00 0. -1.
          2   -1    0    0  501    0 -0.00000000000E+00 -0.00000000000E+00 -0.10538119337E+03  0.10538119337E+03  0.00000000000E+00 0. -1.
    9000006    2    1    2  501    0  0.00000000000E+00  0.00000000000E+00  0.89461880663E+03  0.11053811934E+04  0.64924939235E+03 0.  0.
         13    1    3    3    0    0 -0.97801510857E+02 -0.20142640642E+03  0.47142692356E+02  0.22882343886E+03  0.00000000000E+00 0. -1.
          4    1    3    3  501    0  0.97801510857E+02  0.20142640642E+03  0.84747611428E+03  0.87655775451E+03  0.00000000000E+00 0. -1.
<mgrwt>
<rscale>  0 0.64924939E+03</rscale>
<asrwt>0</asrwt>
<pdfrwt beam="1">0</pdfrwt>
<pdfrwt beam="2">  1        2 0.38320515E+00 0.64924939E+03</pdfrwt>
<totfact> 0.46001613E+00</totfact>
</mgrwt>
</event>
<event>
 5    1  0.2311484E-004  0.5312571E+03  0.7818608E-02  0.1005928E+00
         13   -1    0    0    0    0  0.00000000000E+00  0.00000000000E+00  0.10000000000E+04  0.10000000000E+04  0.00000000000E+00 0. -1.
          2   -1    0    0  501    0 -0.00000000000E+00 -0.00000000000E+00 -0.70558519062E+02  0.70558519062E+02  0.00000000000E+00 0. -1.
    9000006    2    1    2  501    0  0.00000000000E+00  0.00000000000E+00  0.92944148094E+03  0.10705585191E+04  0.53125707172E+03 0.  0.
         13    1    3    3    0    0 -0.11519851432E+03  0.19404606508E+03  0.18235663770E+03  0.29013534150E+03  0.00000000000E+00 0. -1.
          4    1    3    3  501    0  0.11519851432E+03 -0.19404606508E+03  0.74708484324E+03  0.78042317756E+03  0.00000000000E+00 0. -1.
<mgrwt>
<rscale>  0 0.53125707E+03</rscale>
<asrwt>0</asrwt>
<pdfrwt beam="1">0</pdfrwt>
<pdfrwt beam="2">  1        2 0.25657697E+00 0.53125707E+03</pdfrwt>
<totfact> 0.13201582E+01</totfact>
</mgrwt>
</event>
<event>
 5    1  0.2311484E-004  0.6494550E+03  0.7818608E-02  0.9807802E-01
         13   -1    0    0    0    0  0.00000000000E+00  0.00000000000E+00  0.10000000000E+04  0.10000000000E+04  0.00000000000E+00 0. -1.
          2   -1    0    0  501    0 -0.00000000000E+00 -0.00000000000E+00 -0.10544796467E+03  0.10544796467E+03  0.00000000000E+00 0. -1.
    9000006    2    1    2  501    0  0.00000000000E+00  0.00000000000E+00  0.89455203533E+03  0.11054479647E+04  0.64945504748E+03 0.  0.
         13    1    3    3    0    0  0.24692202871E+03  0.95117683540E+02  0.76766340693E+03  0.81198828091E+03  0.00000000000E+00 0. -1.
          2    1    3    3  501    0 -0.24692202871E+03 -0.95117683540E+02  0.12688862839E+03  0.29345968377E+03  0.00000000000E+00 0. -1.
<mgrwt>
<rscale>  0 0.64945505E+03</rscale>
<asrwt>0</asrwt>
<pdfrwt beam="1">0</pdfrwt>
<pdfrwt beam="2">  1        2 0.38344795E+00 0.64945505E+03</pdfrwt>
<totfact> 0.45905836E+00</totfact>
</mgrwt>
</event>
<event>
 5    1  0.2311484E-004  0.6439427E+03  0.7818608E-02  0.9818212E-01
         13   -1    0    0    0    0  0.00000000000E+00  0.00000000000E+00  0.10000000000E+04  0.10000000000E+04  0.00000000000E+00 0. -1.
          2   -1    0    0  501    0 -0.00000000000E+00 -0.00000000000E+00 -0.10366555883E+03  0.10366555883E+03  0.00000000000E+00 0. -1.
    9000006    2    1    2  501    0  0.00000000000E+00  0.00000000000E+00  0.89633444117E+03  0.11036655588E+04  0.64394272675E+03 0.  0.
         13    1    3    3    0    0  0.68285030683E+02 -0.48167133088E+02  0.98109026445E+03  0.98464258750E+03  0.00000000000E+00 0. -1.
          4    1    3    3  501    0 -0.68285030683E+02  0.48167133088E+02 -0.84755823280E+02  0.11902297133E+03  0.00000000000E+00 0. -1.
<mgrwt>
<rscale>  0 0.64394273E+03</rscale>
<asrwt>0</asrwt>
<pdfrwt beam="1">0</pdfrwt>
<pdfrwt beam="2">  1        2 0.37696646E+00 0.64394273E+03</pdfrwt>
<totfact> 0.48525696E+00</totfact>
</mgrwt>
</event>
<event>
 5    1  0.2311484E-004  0.6433657E+03  0.7818608E-02  0.9819308E-01
         13   -1    0    0    0    0  0.00000000000E+00  0.00000000000E+00  0.10000000000E+04  0.10000000000E+04  0.00000000000E+00 0. -1.
          2   -1    0    0  501    0 -0.00000000000E+00 -0.00000000000E+00 -0.10347985482E+03  0.10347985482E+03  0.00000000000E+00 0. -1.
    9000006    2    1    2  501    0  0.00000000000E+00  0.00000000000E+00  0.89652014518E+03  0.11034798548E+04  0.64336569639E+03 0.  0.
         13    1    3    3    0    0  0.43932184770E+02  0.82147628880E+02  0.97635781064E+03  0.98079194745E+03  0.00000000000E+00 0. -1.
          2    1    3    3  501    0 -0.43932184770E+02 -0.82147628880E+02 -0.79837665460E+02  0.12268790737E+03  0.00000000000E+00 0. -1.
<mgrwt>
<rscale>  0 0.64336570E+03</rscale>
<asrwt>0</asrwt>
<pdfrwt beam="1">0</pdfrwt>
<pdfrwt beam="2">  1        2 0.37629117E+00 0.64336570E+03</pdfrwt>
<totfact> 0.48806340E+00</totfact>
</mgrwt>
</event>
<event>
 5    1  0.2311484E-004  0.6460392E+03  0.7818608E-02  0.9814240E-01
         13   -1    0    0    0    0  0.00000000000E+00  0.00000000000E+00  0.10000000000E+04  0.10000000000E+04  0.00000000000E+00 0. -1.
          2   -1    0    0  501    0 -0.00000000000E+00 -0.00000000000E+00 -0.10434164970E+03  0.10434164970E+03  0.00000000000E+00 0. -1.
    9000006    2    1    2  501    0  0.00000000000E+00  0.00000000000E+00  0.89565835030E+03  0.11043416497E+04  0.64603916196E+03 0.  0.
         13    1    3    3    0    0  0.29385774309E+03  0.13078287096E+03  0.49868550240E+03  0.59341702269E+03  0.00000000000E+00 0. -1.
          4    1    3    3  501    0 -0.29385774309E+03 -0.13078287096E+03  0.39697284790E+03  0.51092462701E+03  0.00000000000E+00 0. -1.
<mgrwt>
<rscale>  0 0.64603916E+03</rscale>
<asrwt>0</asrwt>
<pdfrwt beam="1">0</pdfrwt>
<pdfrwt beam="2">  1        2 0.37942498E+00 0.64603916E+03</pdfrwt>
<totfact> 0.47516342E+00</totfact>
</mgrwt>
</event>
<event>
 5    1  0.2311484E-004  0.6539140E+03  0.7818608E-02  0.9799462E-01
         13   -1    0    0    0    0  0.00000000000E+00  0.00000000000E+00  0.10000000000E+04  0.10000000000E+04  0.00000000000E+00 0. -1.
          2   -1    0    0  501    0 -0.00000000000E+00 -0.00000000000E+00 -0.10690087978E+03  0.10690087978E+03  0.00000000000E+00 0. -1.
    9000006    2    1    2  501    0  0.00000000000E+00  0.00000000000E+00  0.89309912022E+03  0.11069008798E+04  0.65391399979E+03 0.  0.
         13    1    3    3    0    0 -0.26370258939E+03  0.19108881218E+03  0.39728874474E+03  0.51370452255E+03  0.00000000000E+00 0. -1.
          4    1    3    3  501    0  0.26370258939E+03 -0.19108881218E+03  0.49581037548E+03  0.59319635722E+03  0.00000000000E+00 0. -1.
<mgrwt>
<rscale>  0 0.65391400E+03</rscale>
<asrwt>0</asrwt>
<pdfrwt beam="1">0</pdfrwt>
<pdfrwt beam="2">  1        2 0.38873129E+00 0.65391400E+03</pdfrwt>
<totfact> 0.43866034E+00</totfact>
</mgrwt>
</event>
<event>
 5    1  0.2311484E-004  0.6544646E+03  0.7818608E-02  0.9798438E-01
         13   -1    0    0    0    0  0.00000000000E+00  0.00000000000E+00  0.10000000000E+04  0.10000000000E+04  0.00000000000E+00 0. -1.
          2   -1    0    0  501    0 -0.00000000000E+00 -0.00000000000E+00 -0.10708098636E+03  0.10708098636E+03  0.00000000000E+00 0. -1.
    9000006    2    1    2  501    0  0.00000000000E+00  0.00000000000E+00  0.89291901364E+03  0.11070809864E+04  0.65446462506E+03 0.  0.
         13    1    3    3    0    0  0.44262108606E+02  0.98045257602E+01  0.99466206217E+03  0.99569467253E+03  0.00000000000E+00 0. -1.
          4    1    3    3  501    0 -0.44262108606E+02 -0.98045257602E+01 -0.10174304854E+03  0.11138631383E+03  0.00000000000E+00 0. -1.
<mgrwt>
<rscale>  0 0.65446463E+03</rscale>
<asrwt>0</asrwt>
<pdfrwt beam="1">0</pdfrwt>
<pdfrwt beam="2">  1        2 0.38938623E+00 0.65446463E+03</pdfrwt>
<totfact> 0.43618979E+00</totfact>
</mgrwt>
</event>
<event>
 5    1  0.2311484E-004  0.7866202E+03  0.7818608E-02  0.9579588E-01
         13   -1    0    0    0    0  0.00000000000E+00  0.00000000000E+00  0.10000000000E+04  0.10000000000E+04  0.00000000000E+00 0. -1.
          2   -1    0    0  501    0 -0.00000000000E+00 -0.00000000000E+00 -0.15469282415E+03  0.15469282415E+03  0.00000000000E+00 0. -1.
    9000006    2    1    2  501    0  0.00000000000E+00  0.00000000000E+00  0.84530717585E+03  0.11546928242E+04  0.78662017302E+03 0.  0.
         13    1    3    3    0    0 -0.20767165187E+02  0.25206365031E+03  0.86479988172E+03  0.90102507977E+03  0.00000000000E+00 0. -1.
          2    1    3    3  501    0  0.20767165187E+02 -0.25206365031E+03 -0.19492705872E+02  0.25366774438E+03  0.00000000000E+00 0. -1.
<mgrwt>
<rscale>  0 0.78662017E+03</rscale>
<asrwt>0</asrwt>
<pdfrwt beam="1">0</pdfrwt>
<pdfrwt beam="2">  1        2 0.56252055E+00 0.78662017E+03</pdfrwt>
<totfact> 0.83660473E-01</totfact>
</mgrwt>
</event>
<event>
 5    1  0.2311484E-004  0.6425292E+03  0.7818608E-02  0.9820900E-01
         13   -1    0    0    0    0  0.00000000000E+00  0.00000000000E+00  0.10000000000E+04  0.10000000000E+04  0.00000000000E+00 0. -1.
          2   -1    0    0  501    0 -0.00000000000E+00 -0.00000000000E+00 -0.10321093272E+03  0.10321093272E+03  0.00000000000E+00 0. -1.
    9000006    2    1    2  501    0  0.00000000000E+00  0.00000000000E+00  0.89678906728E+03  0.11032109327E+04  0.64252916734E+03 0.  0.
         13    1    3    3    0    0  0.84239474604E+02 -0.15986212725E+03  0.90447464115E+03  0.92234839692E+03  0.00000000000E+00 0. -1.
          4    1    3    3  501    0 -0.84239474604E+02  0.15986212725E+03 -0.76855738728E+01  0.18086253580E+03  0.00000000000E+00 0. -1.
<mgrwt>
<rscale>  0 0.64252917E+03</rscale>
<asrwt>0</asrwt>
<pdfrwt beam="1">0</pdfrwt>
<pdfrwt beam="2">  1        2 0.37531327E+00 0.64252917E+03</pdfrwt>
<totfact> 0.49215381E+00</totfact>
</mgrwt>
</event>
<event>
 5    1  0.2311484E-004  0.6506169E+03  0.7818608E-02  0.9805622E-01
         13   -1    0    0    0    0  0.00000000000E+00  0.00000000000E+00  0.10000000000E+04  0.10000000000E+04  0.00000000000E+00 0. -1.
          2   -1    0    0  501    0 -0.00000000000E+00 -0.00000000000E+00 -0.10582559506E+03  0.10582559506E+03  0.00000000000E+00 0. -1.
    9000006    2    1    2  501    0  0.00000000000E+00  0.00000000000E+00  0.89417440494E+03  0.11058255951E+04  0.65061692281E+03 0.  0.
         13    1    3    3    0    0  0.23560164315E+03 -0.13336173756E+03  0.75364854095E+03  0.80079935726E+03  0.00000000000E+00 0. -1.
          4    1    3    3  501    0 -0.23560164315E+03  0.13336173756E+03  0.14052586398E+03  0.30502623780E+03  0.00000000000E+00 0. -1.
<mgrwt>
<rscale>  0 0.65061692E+03</rscale>
<asrwt>0</asrwt>
<pdfrwt beam="1">0</pdfrwt>
<pdfrwt beam="2">  1        2 0.38482116E+00 0.65061692E+03</pdfrwt>
<totfact> 0.45367561E+00</totfact>
</mgrwt>
</event>
<event>
 5    1  0.2311484E-004  0.6370261E+03  0.7818608E-02  0.9831433E-01
         13   -1    0    0    0    0  0.00000000000E+00  0.00000000000E+00  0.10000000000E+04  0.10000000000E+04  0.00000000000E+00 0. -1.
          2   -1    0    0  501    0 -0.00000000000E+00 -0.00000000000E+00 -0.10145057143E+03  0.10145057143E+03  0.00000000000E+00 0. -1.
    9000006    2    1    2  501    0  0.00000000000E+00  0.00000000000E+00  0.89854942857E+03  0.11014505714E+04  0.63702612641E+03 0.  0.
         13    1    3    3    0    0  0.53272318464E+02 -0.26497111776E+03  0.74067461744E+03  0.78844563673E+03  0.00000000000E+00 0. -1.
          2    1    3    3  501    0 -0.53272318464E+02  0.26497111776E+03  0.15787481113E+03  0.31300493470E+03  0.00000000000E+00 0. -1.
<mgrwt>
<rscale>  0 0.63702613E+03</rscale>
<asrwt>0</asrwt>
<pdfrwt beam="1">0</pdfrwt>
<pdfrwt beam="2">  1        2 0.36891195E+00 0.63702613E+03</pdfrwt>
<totfact> 0.51971519E+00</totfact>
</mgrwt>
</event>
<event>
 5    1  0.2311484E-004  0.6610456E+03  0.7818608E-02  0.9786271E-01
         13   -1    0    0    0    0  0.00000000000E+00  0.00000000000E+00  0.10000000000E+04  0.10000000000E+04  0.00000000000E+00 0. -1.
          2   -1    0    0  501    0 -0.00000000000E+00 -0.00000000000E+00 -0.10924533635E+03  0.10924533635E+03  0.00000000000E+00 0. -1.
    9000006    2    1    2  501    0  0.00000000000E+00  0.00000000000E+00  0.89075466365E+03  0.11092453364E+04  0.66104564548E+03 0.  0.
         13    1    3    3    0    0 -0.20352180894E+03 -0.52752440914E+02  0.17429265417E+02  0.21096854275E+03  0.00000000000E+00 0. -1.
          4    1    3    3  501    0  0.20352180894E+03  0.52752440914E+02  0.87332539823E+03  0.89827679361E+03  0.00000000000E+00 0. -1.
<mgrwt>
<rscale>  0 0.66104565E+03</rscale>
<asrwt>0</asrwt>
<pdfrwt beam="1">0</pdfrwt>
<pdfrwt beam="2">  1        2 0.39725661E+00 0.66104565E+03</pdfrwt>
<totfact> 0.40746881E+00</totfact>
</mgrwt>
</event>
<event>
 5    1  0.2311484E-004  0.6508797E+03  0.7818608E-02  0.9805130E-01
         13   -1    0    0    0    0  0.00000000000E+00  0.00000000000E+00  0.10000000000E+04  0.10000000000E+04  0.00000000000E+00 0. -1.
          2   -1    0    0  501    0 -0.00000000000E+00 -0.00000000000E+00 -0.10591108750E+03  0.10591108750E+03  0.00000000000E+00 0. -1.
    9000006    2    1    2  501    0  0.00000000000E+00  0.00000000000E+00  0.89408891250E+03  0.11059110875E+04  0.65087967398E+03 0.  0.
         13    1    3    3    0    0 -0.28567223328E+03  0.15588683775E+03  0.44479261697E+03  0.55113501355E+03  0.00000000000E+00 0. -1.
          2    1    3    3  501    0  0.28567223328E+03 -0.15588683775E+03  0.44929629553E+03  0.55477607395E+03  0.00000000000E+00 0. -1.
<mgrwt>
<rscale>  0 0.65087967E+03</rscale>
<asrwt>0</asrwt>
<pdfrwt beam="1">0</pdfrwt>
<pdfrwt beam="2">  1        2 0.38513204E+00 0.65087967E+03</pdfrwt>
<totfact> 0.45246498E+00</totfact>
</mgrwt>
</event>
<event>
 5    1  0.2311484E-004  0.6654342E+03  0.7818608E-02  0.9778241E-01
         13   -1    0    0    0    0  0.00000000000E+00  0.00000000000E+00  0.10000000000E+04  0.10000000000E+04  0.00000000000E+00 0. -1.
          2   -1    0    0  501    0 -0.00000000000E+00 -0.00000000000E+00 -0.11070068335E+03  0.11070068335E+03  0.00000000000E+00 0. -1.
    9000006    2    1    2  501    0  0.00000000000E+00  0.00000000000E+00  0.88929931665E+03  0.11107006834E+04  0.66543424425E+03 0.  0.
         13    1    3    3    0    0 -0.30561732695E+03  0.81668462240E+02  0.27256664755E+03  0.41756947400E+03  0.00000000000E+00 0. -1.
          4    1    3    3  501    0  0.30561732695E+03 -0.81668462240E+02  0.61673266909E+03  0.69313120936E+03  0.00000000000E+00 0. -1.
<mgrwt>
<rscale>  0 0.66543424E+03</rscale>
<asrwt>0</asrwt>
<pdfrwt beam="1">0</pdfrwt>
<pdfrwt beam="2">  1        2 0.40254879E+00 0.66543424E+03</pdfrwt>
<totfact> 0.38912638E+00</totfact>
</mgrwt>
</event>
<event>
 5    1  0.2311484E-004  0.6396621E+03  0.7818608E-02  0.9826373E-01
         13   -1    0    0    0    0  0.00000000000E+00  0.00000000000E+00  0.10000000000E+04  0.10000000000E+04  0.00000000000E+00 0. -1.
          2   -1    0    0  501    0 -0.00000000000E+00 -0.00000000000E+00 -0.10229189211E+03  0.10229189211E+03  0.00000000000E+00 0. -1.
    9000006    2    1    2  501    0  0.00000000000E+00  0.00000000000E+00  0.89770810789E+03  0.11022918921E+04  0.63966207364E+03 0.  0.
         13    1    3    3    0    0 -0.30027122513E+03  0.88209512362E+01  0.25967959652E+03  0.39708199489E+03  0.00000000000E+00 0. -1.
          4    1    3    3  501    0  0.30027122513E+03 -0.88209512362E+01  0.63802851137E+03  0.70520989722E+03  0.00000000000E+00 0. -1.
<mgrwt>
<rscale>  0 0.63966207E+03</rscale>
<asrwt>0</asrwt>
<pdfrwt beam="1">0</pdfrwt>
<pdfrwt beam="2">  1        2 0.37197130E+00 0.63966207E+03</pdfrwt>
<totfact> 0.50637139E+00</totfact>
</mgrwt>
</event>
<event>
 5    1  0.2311484E-004  0.6303712E+03  0.7818608E-02  0.9844325E-01
         13   -1    0    0    0    0  0.00000000000E+00  0.00000000000E+00  0.10000000000E+04  0.10000000000E+04  0.00000000000E+00 0. -1.
          2   -1    0    0  501    0 -0.00000000000E+00 -0.00000000000E+00 -0.99341974949E+02  0.99341974949E+02  0.00000000000E+00 0. -1.
    9000006    2    1    2  501    0  0.00000000000E+00  0.00000000000E+00  0.90065802505E+03  0.10993419749E+04  0.63037123966E+03 0.  0.
         13    1    3    3    0    0  0.30898653265E+03 -0.32555018118E+01  0.34199698083E+03  0.46091779153E+03  0.00000000000E+00 0. -1.
          4    1    3    3  501    0 -0.30898653265E+03  0.32555018118E+01  0.55866104422E+03  0.63842418342E+03  0.00000000000E+00 0. -1.
<mgrwt>
<rscale>  0 0.63037124E+03</rscale>
<asrwt>0</asrwt>
<pdfrwt beam="1">0</pdfrwt>
<pdfrwt beam="2">  1        2 0.36124431E+00 0.63037124E+03</pdfrwt>
<totfact> 0.55459025E+00</totfact>
</mgrwt>
</event>
<event>
 5    1  0.2311484E-004  0.6546534E+03  0.7818608E-02  0.9798086E-01
         13   -1    0    0    0    0  0.00000000000E+00  0.00000000000E+00  0.10000000000E+04  0.10000000000E+04  0.00000000000E+00 0. -1.
          2   -1    0    0  501    0 -0.00000000000E+00 -0.00000000000E+00 -0.10714277344E+03  0.10714277344E+03  0.00000000000E+00 0. -1.
    9000006    2    1    2  501    0  0.00000000000E+00  0.00000000000E+00  0.89285722656E+03  0.11071427734E+04  0.65465341498E+03 0.  0.
         13    1    3    3    0    0  0.31032679575E+03 -0.51945711086E+02  0.59902689492E+03  0.67663453792E+03  0.00000000000E+00 0. -1.
          4    1    3    3  501    0 -0.31032679575E+03  0.51945711086E+02  0.29383033164E+03  0.43050823552E+03  0.00000000000E+00 0. -1.
<mgrwt>
<rscale>  0 0.65465341E+03</rscale>
<asrwt>0</asrwt>
<pdfrwt beam="1">0</pdfrwt>
<pdfrwt beam="2">  1        2 0.38961091E+00 0.65465341E+03</pdfrwt>
<totfact> 0.43534514E+00</totfact>
</mgrwt>
</event>
<event>
 5    1  0.2311484E-004  0.6416350E+03  0.7818608E-02  0.9822603E-01
         13   -1    0    0    0    0  0.00000000000E+00  0.00000000000E+00  0.10000000000E+04  0.10000000000E+04  0.00000000000E+00 0. -1.
          2   -1    0    0  501    0 -0.00000000000E+00 -0.00000000000E+00 -0.10292385288E+03  0.10292385288E+03  0.00000000000E+00 0. -1.
    9000006    2    1    2  501    0  0.00000000000E+00  0.00000000000E+00  0.89707614712E+03  0.11029238529E+04  0.64163495191E+03 0.  0.
         13    1    3    3    0    0 -0.19387688033E+03 -0.20215323106E+03  0.71742621850E+03  0.77016527612E+03  0.00000000000E+00 0. -1.
          4    1    3    3  501    0  0.19387688033E+03  0.20215323106E+03  0.17964992862E+03  0.33275857676E+03  0.00000000000E+00 0. -1.
<mgrwt>
<rscale>  0 0.64163495E+03</rscale>
<asrwt>0</asrwt>
<pdfrwt beam="1">0</pdfrwt>
<pdfrwt beam="2">  1        2 0.37426935E+00 0.64163495E+03</pdfrwt>
<totfact> 0.49655525E+00</totfact>
</mgrwt>
</event>
<event>
 5    1  0.2311484E-004  0.6494862E+03  0.7818608E-02  0.9807744E-01
         13   -1    0    0    0    0  0.00000000000E+00  0.00000000000E+00  0.10000000000E+04  0.10000000000E+04  0.00000000000E+00 0. -1.
          2   -1    0    0  501    0 -0.00000000000E+00 -0.00000000000E+00 -0.10545808877E+03  0.10545808877E+03  0.00000000000E+00 0. -1.
    9000006    2    1    2  501    0  0.00000000000E+00  0.00000000000E+00  0.89454191123E+03  0.11054580888E+04  0.64948622393E+03 0.  0.
         13    1    3    3    0    0  0.16686850583E+03  0.10662707232E+03  0.88534194249E+03  0.90721815784E+03  0.00000000000E+00 0. -1.
          2    1    3    3  501    0 -0.16686850583E+03 -0.10662707232E+03  0.91999687434E+01  0.19823993093E+03  0.00000000000E+00 0. -1.
<mgrwt>
<rscale>  0 0.64948622E+03</rscale>
<asrwt>0</asrwt>
<pdfrwt beam="1">0</pdfrwt>
<pdfrwt beam="2">  1        2 0.38348477E+00 0.64948622E+03</pdfrwt>
<totfact> 0.45891330E+00</totfact>
</mgrwt>
</event>
<event>
 5    1  0.2311484E-004  0.6398302E+03  0.7818608E-02  0.9826051E-01
         13   -1    0    0    0    0  0.00000000000E+00  0.00000000000E+00  0.10000000000E+04  0.10000000000E+04  0.00000000000E+00 0. -1.
          2   -1    0    0  501    0 -0.00000000000E+00 -0.00000000000E+00 -0.10234568297E+03  0.10234568297E+03  0.00000000000E+00 0. -1.
    9000006    2    1    2  501    0  0.00000000000E+00  0.00000000000E+00  0.89765431703E+03  0.11023456830E+04  0.63983023675E+03 0.  0.
         13    1    3    3    0    0 -0.18318954662E+02  0.26508260008E+03  0.14187867192E+03  0.30122072723E+03  0.00000000000E+00 0. -1.
          2    1    3    3  501    0  0.18318954662E+02 -0.26508260008E+03  0.75577564511E+03  0.80112495574E+03  0.00000000000E+00 0. -1.
<mgrwt>
<rscale>  0 0.63983024E+03</rscale>
<asrwt>0</asrwt>
<pdfrwt beam="1">0</pdfrwt>
<pdfrwt beam="2">  1        2 0.37216690E+00 0.63983024E+03</pdfrwt>
<totfact> 0.50552900E+00</totfact>
</mgrwt>
</event>
<event>
 5    1  0.2311484E-004  0.6536300E+03  0.7818608E-02  0.9799991E-01
         13   -1    0    0    0    0  0.00000000000E+00  0.00000000000E+00  0.10000000000E+04  0.10000000000E+04  0.00000000000E+00 0. -1.
          2   -1    0    0  501    0 -0.00000000000E+00 -0.00000000000E+00 -0.10680805059E+03  0.10680805059E+03  0.00000000000E+00 0. -1.
    9000006    2    1    2  501    0  0.00000000000E+00  0.00000000000E+00  0.89319194941E+03  0.11068080506E+04  0.65363001946E+03 0.  0.
         13    1    3    3    0    0 -0.16942097518E+03 -0.13505202573E+03  0.86090915570E+03  0.88775395851E+03  0.00000000000E+00 0. -1.
          2    1    3    3  501    0  0.16942097518E+03  0.13505202573E+03  0.32282793713E+02  0.21905409207E+03  0.00000000000E+00 0. -1.
<mgrwt>
<rscale>  0 0.65363002E+03</rscale>
<asrwt>0</asrwt>
<pdfrwt beam="1">0</pdfrwt>
<pdfrwt beam="2">  1        2 0.38839373E+00 0.65363002E+03</pdfrwt>
<totfact> 0.43993863E+00</totfact>
</mgrwt>
</event>
<event>
 5    1  0.2311484E-004  0.6422778E+03  0.7818608E-02  0.9821378E-01
         13   -1    0    0    0    0  0.00000000000E+00  0.00000000000E+00  0.10000000000E+04  0.10000000000E+04  0.00000000000E+00 0. -1.
          2   -1    0    0  501    0 -0.00000000000E+00 -0.00000000000E+00 -0.10313019834E+03  0.10313019834E+03  0.00000000000E+00 0. -1.
    9000006    2    1    2  501    0  0.00000000000E+00  0.00000000000E+00  0.89686980166E+03  0.11031301983E+04  0.64227781633E+03 0.  0.
         13    1    3    3    0    0 -0.15595737680E+03 -0.24743710198E+03  0.67617663701E+03  0.73672428171E+03  0.00000000000E+00 0. -1.
          4    1    3    3  501    0  0.15595737680E+03  0.24743710198E+03  0.22069316465E+03  0.36640591663E+03  0.00000000000E+00 0. -1.
<mgrwt>
<rscale>  0 0.64227782E+03</rscale>
<asrwt>0</asrwt>
<pdfrwt beam="1">0</pdfrwt>
<pdfrwt beam="2">  1        2 0.37501969E+00 0.64227782E+03</pdfrwt>
<totfact> 0.49338799E+00</totfact>
</mgrwt>
</event>
<event>
 5    1  0.2311484E-004  0.6238781E+03  0.7818608E-02  0.9857069E-01
         13   -1    0    0    0    0  0.00000000000E+00  0.00000000000E+00  0.10000000000E+04  0.10000000000E+04  0.00000000000E+00 0. -1.
          2   -1    0    0  501    0 -0.00000000000E+00 -0.00000000000E+00 -0.97305956029E+02  0.97305956029E+02  0.00000000000E+00 0. -1.
    9000006    2    1    2  501    0  0.00000000000E+00  0.00000000000E+00  0.90269404397E+03  0.10973059560E+04  0.62387805228E+03 0.  0.
         13    1    3    3    0    0  0.25266491236E+03  0.10192229841E+03  0.71854268308E+03  0.76846034397E+03  0.00000000000E+00 0. -1.
          4    1    3    3  501    0 -0.25266491236E+03 -0.10192229841E+03  0.18415136089E+03  0.32884561206E+03  0.00000000000E+00 0. -1.
<mgrwt>
<rscale>  0 0.62387805E+03</rscale>
<asrwt>0</asrwt>
<pdfrwt beam="1">0</pdfrwt>
<pdfrwt beam="2">  1        2 0.35384059E+00 0.62387805E+03</pdfrwt>
<totfact> 0.59030410E+00</totfact>
</mgrwt>
</event>
<event>
 5    1  0.2311484E-004  0.6679699E+03  0.7818608E-02  0.9773632E-01
         13   -1    0    0    0    0  0.00000000000E+00  0.00000000000E+00  0.10000000000E+04  0.10000000000E+04  0.00000000000E+00 0. -1.
          2   -1    0    0  501    0 -0.00000000000E+00 -0.00000000000E+00 -0.11154596344E+03  0.11154596344E+03  0.00000000000E+00 0. -1.
    9000006    2    1    2  501    0  0.00000000000E+00  0.00000000000E+00  0.88845403656E+03  0.11115459634E+04  0.66796994973E+03 0.  0.
         13    1    3    3    0    0  0.29346731976E+03  0.91409562721E+02  0.22683105241E+03  0.38200929604E+03  0.00000000000E+00 0. -1.
          2    1    3    3  501    0 -0.29346731976E+03 -0.91409562721E+02  0.66162298415E+03  0.72953666740E+03  0.00000000000E+00 0. -1.
<mgrwt>
<rscale>  0 0.66796995E+03</rscale>
<asrwt>0</asrwt>
<pdfrwt beam="1">0</pdfrwt>
<pdfrwt beam="2">  1        2 0.40562254E+00 0.66796995E+03</pdfrwt>
<totfact> 0.37881620E+00</totfact>
</mgrwt>
</event>
<event>
 5    1  0.2311484E-004  0.6442403E+03  0.7818608E-02  0.9817647E-01
         13   -1    0    0    0    0  0.00000000000E+00  0.00000000000E+00  0.10000000000E+04  0.10000000000E+04  0.00000000000E+00 0. -1.
          2   -1    0    0  501    0 -0.00000000000E+00 -0.00000000000E+00 -0.10376139850E+03  0.10376139850E+03  0.00000000000E+00 0. -1.
    9000006    2    1    2  501    0  0.00000000000E+00  0.00000000000E+00  0.89623860150E+03  0.11037613985E+04  0.64424032317E+03 0.  0.
         13    1    3    3    0    0 -0.17954558412E+03  0.24090681724E+03  0.24913805830E+03  0.39031075243E+03  0.00000000000E+00 0. -1.
          4    1    3    3  501    0  0.17954558412E+03 -0.24090681724E+03  0.64710054320E+03  0.71345064607E+03  0.00000000000E+00 0. -1.
<mgrwt>
<rscale>  0 0.64424032E+03</rscale>
<asrwt>0</asrwt>
<pdfrwt beam="1">0</pdfrwt>
<pdfrwt beam="2">  1        2 0.37731497E+00 0.64424032E+03</pdfrwt>
<totfact> 0.48381436E+00</totfact>
</mgrwt>
</event>
<event>
 5    1  0.2311484E-004  0.6520830E+03  0.7818608E-02  0.9802878E-01
         13   -1    0    0    0    0  0.00000000000E+00  0.00000000000E+00  0.10000000000E+04  0.10000000000E+04  0.00000000000E+00 0. -1.
          2   -1    0    0  501    0 -0.00000000000E+00 -0.00000000000E+00 -0.10630306602E+03  0.10630306602E+03  0.00000000000E+00 0. -1.
    9000006    2    1    2  501    0  0.00000000000E+00  0.00000000000E+00  0.89369693398E+03  0.11063030660E+04  0.65208301930E+03 0.  0.
         13    1    3    3    0    0 -0.10592169115E+03  0.40134303325E+02  0.96554587913E+03  0.97216717269E+03  0.00000000000E+00 0. -1.
          4    1    3    3  501    0  0.10592169115E+03 -0.40134303325E+02 -0.71848945144E+02  0.13413589332E+03  0.00000000000E+00 0. -1.
<mgrwt>
<rscale>  0 0.65208302E+03</rscale>
<asrwt>0</asrwt>
<pdfrwt beam="1">0</pdfrwt>
<pdfrwt beam="2">  1        2 0.38655742E+00 0.65208302E+03</pdfrwt>
<totfact> 0.44695169E+00</totfact>
</mgrwt>
</event>
<event>
 5    1  0.2311484E-004  0.6628823E+03  0.7818608E-02  0.9782902E-01
         13   -1    0    0    0    0  0.00000000000E+00  0.00000000000E+00  0.10000000000E+04  0.10000000000E+04  0.00000000000E+00 0. -1.
          2   -1    0    0  501    0 -0.00000000000E+00 -0.00000000000E+00 -0.10985322583E+03  0.10985322583E+03  0.00000000000E+00 0. -1.
    9000006    2    1    2  501    0  0.00000000000E+00  0.00000000000E+00  0.89014677417E+03  0.11098532258E+04  0.66288226958E+03 0.  0.
         13    1    3    3    0    0 -0.24843860480E+03 -0.88134462379E+02  0.10869724957E+03  0.28513946742E+03  0.00000000000E+00 0. -1.
          2    1    3    3  501    0  0.24843860480E+03  0.88134462379E+02  0.78144952460E+03  0.82471375841E+03  0.00000000000E+00 0. -1.
<mgrwt>
<rscale>  0 0.66288227E+03</rscale>
<asrwt>0</asrwt>
<pdfrwt beam="1">0</pdfrwt>
<pdfrwt beam="2">  1        2 0.39946712E+00 0.66288227E+03</pdfrwt>
<totfact> 0.39971493E+00</totfact>
</mgrwt>
</event>
<event>
 5    1  0.2311484E-004  0.5310889E+03  0.7818608E-02  0.1005968E+00
         13   -1    0    0    0    0  0.00000000000E+00  0.00000000000E+00  0.10000000000E+04  0.10000000000E+04  0.00000000000E+00 0. -1.
          2   -1    0    0  501    0 -0.00000000000E+00 -0.00000000000E+00 -0.70513844521E+02  0.70513844521E+02  0.00000000000E+00 0. -1.
    9000006    2    1    2  501    0  0.00000000000E+00  0.00000000000E+00  0.92948615548E+03  0.10705138445E+04  0.53108886082E+03 0.  0.
         13    1    3    3    0    0  0.13066103001E+03 -0.31303590273E+02  0.92642829073E+03  0.93612050367E+03  0.00000000000E+00 0. -1.
          4    1    3    3  501    0 -0.13066103001E+03  0.31303590273E+02  0.30578647490E+01  0.13439334085E+03  0.00000000000E+00 0. -1.
<mgrwt>
<rscale>  0 0.53108886E+03</rscale>
<asrwt>0</asrwt>
<pdfrwt beam="1">0</pdfrwt>
<pdfrwt beam="2">  1        2 0.25641452E+00 0.53108886E+03</pdfrwt>
<totfact> 0.13219311E+01</totfact>
</mgrwt>
</event>
<event>
 5    1  0.2311484E-004  0.6408027E+03  0.7818608E-02  0.9824192E-01
         13   -1    0    0    0    0  0.00000000000E+00  0.00000000000E+00  0.10000000000E+04  0.10000000000E+04  0.00000000000E+00 0. -1.
          2   -1    0    0  501    0 -0.00000000000E+00 -0.00000000000E+00 -0.10265702583E+03  0.10265702583E+03  0.00000000000E+00 0. -1.
    9000006    2    1    2  501    0  0.00000000000E+00  0.00000000000E+00  0.89734297417E+03  0.11026570258E+04  0.64080270233E+03 0.  0.
         13    1    3    3    0    0  0.24424726586E+03 -0.14575070307E+03  0.19485727593E+03  0.34477434984E+03  0.00000000000E+00 0. -1.
          4    1    3    3  501    0 -0.24424726586E+03  0.14575070307E+03  0.70248569824E+03  0.75788267599E+03  0.00000000000E+00 0. -1.
<mgrwt>
<rscale>  0 0.64080270E+03</rscale>
<asrwt>0</asrwt>
<pdfrwt beam="1">0</pdfrwt>
<pdfrwt beam="2">  1        2 0.37329906E+00 0.64080270E+03</pdfrwt>
<totfact> 0.50067840E+00</totfact>
</mgrwt>
</event>
<event>
 5    1  0.2311484E-004  0.6542022E+03  0.7818608E-02  0.9798926E-01
         13   -1    0    0    0    0  0.00000000000E+00  0.00000000000E+00  0.10000000000E+04  0.10000000000E+04  0.00000000000E+00 0. -1.
          2   -1    0    0  501    0 -0.00000000000E+00 -0.00000000000E+00 -0.10699514210E+03  0.10699514210E+03  0.00000000000E+00 0. -1.
    9000006    2    1    2  501    0  0.00000000000E+00  0.00000000000E+00  0.89300485790E+03  0.11069951421E+04  0.65420223814E+03 0.  0.
         13    1    3    3    0    0  0.18343408240E+03  0.25426019052E+03  0.28868163031E+03  0.42618469089E+03  0.00000000000E+00 0. -1.
          4    1    3    3  501    0 -0.18343408240E+03 -0.25426019052E+03  0.60432322759E+03  0.68081045121E+03  0.00000000000E+00 0. -1.
<mgrwt>
<rscale>  0 0.65420224E+03</rscale>
<asrwt>0</asrwt>
<pdfrwt beam="1">0</pdfrwt>
<pdfrwt beam="2">  1        2 0.38907406E+00 0.65420224E+03</pdfrwt>
<totfact> 0.43736575E+00</totfact>
</mgrwt>
</event>
<event>
 5    1  0.2311484E-004  0.7155050E+03  0.7818608E-02  0.9691078E-01
         13   -1    0    0    0    0  0.00000000000E+00  0.00000000000E+00  0.10000000000E+04  0.10000000000E+04  0.00000000000E+00 0. -1.
          2   -1    0    0  501    0 -0.00000000000E+00 -0.00000000000E+00 -0.12798683882E+03  0.12798683882E+03  0.00000000000E+00 0. -1.
    9000006    2    1    2  501    0  0.00000000000E+00  0.00000000000E+00  0.87201316118E+03  0.11279868388E+04  0.71550496524E+03 0.  0.
         13    1    3    3    0    0  0.27868322515E+03 -0.16154313814E+03  0.19062890639E+03  0.37429921909E+03  0.00000000000E+00 0. -1.
          2    1    3    3  501    0 -0.27868322515E+03  0.16154313814E+03  0.68138425479E+03  0.75368761973E+03  0.00000000000E+00 0. -1.
<mgrwt>
<rscale>  0 0.71550497E+03</rscale>
<asrwt>0</asrwt>
<pdfrwt beam="1">0</pdfrwt>
<pdfrwt beam="2">  1        2 0.46540767E+00 0.71550497E+03</pdfrwt>
<totfact> 0.22088555E+00</totfact>
</mgrwt>
</event>
<event>
 5    1  0.2311484E-004  0.6445237E+03  0.7818608E-02  0.9817110E-01
         13   -1    0    0    0    0  0.00000000000E+00  0.00000000000E+00  0.10000000000E+04  0.10000000000E+04  0.00000000000E+00 0. -1.
          2   -1    0    0  501    0 -0.00000000000E+00 -0.00000000000E+00 -0.10385269177E+03  0.10385269177E+03  0.00000000000E+00 0. -1.
    9000006    2    1    2  501    0  0.00000000000E+00  0.00000000000E+00  0.89614730823E+03  0.11038526918E+04  0.64452367457E+03 0.  0.
         13    1    3    3    0    0  0.29747449986E+03 -0.27762863702E+02  0.24119658680E+03  0.38397610362E+03  0.00000000000E+00 0. -1.
          4    1    3    3  501    0 -0.29747449986E+03  0.27762863702E+02  0.65495072143E+03  0.71987658815E+03  0.00000000000E+00 0. -1.
<mgrwt>
<rscale>  0 0.64452367E+03</rscale>
<asrwt>0</asrwt>
<pdfrwt beam="1">0</pdfrwt>
<pdfrwt beam="2">  1        2 0.37764695E+00 0.64452367E+03</pdfrwt>
<totfact> 0.48244382E+00</totfact>
</mgrwt>
</event>
<event>
 5    1  0.2311484E-004  0.6602227E+03  0.7818608E-02  0.9787784E-01
         13   -1    0    0    0    0  0.00000000000E+00  0.00000000000E+00  0.10000000000E+04  0.10000000000E+04  0.00000000000E+00 0. -1.
          2   -1    0    0  501    0 -0.00000000000E+00 -0.00000000000E+00 -0.10897351747E+03  0.10897351747E+03  0.00000000000E+00 0. -1.
    9000006    2    1    2  501    0  0.00000000000E+00  0.00000000000E+00  0.89102648253E+03  0.11089735175E+04  0.66022274263E+03 0.  0.
         13    1    3    3    0    0 -0.16250106622E+03 -0.27580208437E+03  0.58093603109E+03  0.66329485033E+03  0.00000000000E+00 0. -1.
          4    1    3    3  501    0  0.16250106622E+03  0.27580208437E+03  0.31009045144E+03  0.44567866714E+03  0.00000000000E+00 0. -1.
<mgrwt>
<rscale>  0 0.66022274E+03</rscale>
<asrwt>0</asrwt>
<pdfrwt beam="1">0</pdfrwt>
<pdfrwt beam="2">  1        2 0.39626817E+00 0.66022274E+03</pdfrwt>
<totfact> 0.41097952E+00</totfact>
</mgrwt>
</event>
<event>
 5    1  0.2311484E-004  0.6552878E+03  0.7818608E-02  0.9796907E-01
         13   -1    0    0    0    0  0.00000000000E+00  0.00000000000E+00  0.10000000000E+04  0.10000000000E+04  0.00000000000E+00 0. -1.
          2   -1    0    0  501    0 -0.00000000000E+00 -0.00000000000E+00 -0.10735051784E+03  0.10735051784E+03  0.00000000000E+00 0. -1.
    9000006    2    1    2  501    0  0.00000000000E+00  0.00000000000E+00  0.89264948216E+03  0.11073505178E+04  0.65528777750E+03 0.  0.
         13    1    3    3    0    0  0.13392458592E+03  0.24703822525E+03  0.73104053430E+03  0.78318831850E+03  0.00000000000E+00 0. -1.
          4    1    3    3  501    0 -0.13392458592E+03 -0.24703822525E+03  0.16160894787E+03  0.32416219934E+03  0.00000000000E+00 0. -1.
<mgrwt>
<rscale>  0 0.65528778E+03</rscale>
<asrwt>0</asrwt>
<pdfrwt beam="1">0</pdfrwt>
<pdfrwt beam="2">  1        2 0.39036634E+00 0.65528778E+03</pdfrwt>
<totfact> 0.43251607E+00</totfact>
</mgrwt>
</event>
<event>
 5    1  0.2311484E-004  0.6685068E+03  0.7818608E-02  0.9772659E-01
         13   -1    0    0    0    0  0.00000000000E+00  0.00000000000E+00  0.10000000000E+04  0.10000000000E+04  0.00000000000E+00 0. -1.
          2   -1    0    0  501    0 -0.00000000000E+00 -0.00000000000E+00 -0.11172534559E+03  0.11172534559E+03  0.00000000000E+00 0. -1.
    9000006    2    1    2  501    0  0.00000000000E+00  0.00000000000E+00  0.88827465441E+03  0.11117253456E+04  0.66850683044E+03 0.  0.
         13    1    3    3    0    0 -0.31166587412E+02  0.17073534802E+03  0.91919448464E+03  0.93543594961E+03  0.00000000000E+00 0. -1.
          4    1    3    3  501    0  0.31166587412E+02 -0.17073534802E+03 -0.30919830222E+02  0.17628939598E+03  0.00000000000E+00 0. -1.
<mgrwt>
<rscale>  0 0.66850683E+03</rscale>
<asrwt>0</asrwt>
<pdfrwt beam="1">0</pdfrwt>
<pdfrwt beam="2">  1        2 0.40627484E+00 0.66850683E+03</pdfrwt>
<totfact> 0.37665993E+00</totfact>
</mgrwt>
</event>
<event>
 5    1  0.2311484E-004  0.6300769E+03  0.7818608E-02  0.9844899E-01
         13   -1    0    0    0    0  0.00000000000E+00  0.00000000000E+00  0.10000000000E+04  0.10000000000E+04  0.00000000000E+00 0. -1.
          2   -1    0    0  501    0 -0.00000000000E+00 -0.00000000000E+00 -0.99249235947E+02  0.99249235947E+02  0.00000000000E+00 0. -1.
    9000006    2    1    2  501    0  0.00000000000E+00  0.00000000000E+00  0.90075076405E+03  0.10992492359E+04  0.63007693482E+03 0.  0.
         13    1    3    3    0    0  0.56247006183E+02 -0.13017723688E+03  0.94116905995E+03  0.95179253943E+03  0.00000000000E+00 0. -1.
          4    1    3    3  501    0 -0.56247006183E+02  0.13017723688E+03 -0.40418295895E+02  0.14745669652E+03  0.00000000000E+00 0. -1.
<mgrwt>
<rscale>  0 0.63007693E+03</rscale>
<asrwt>0</asrwt>
<pdfrwt beam="1">0</pdfrwt>
<pdfrwt beam="2">  1        2 0.36090707E+00 0.63007693E+03</pdfrwt>
<totfact> 0.55617248E+00</totfact>
</mgrwt>
</event>
<event>
 5    1  0.2311484E-004  0.6510307E+03  0.7818608E-02  0.9804847E-01
         13   -1    0    0    0    0  0.00000000000E+00  0.00000000000E+00  0.10000000000E+04  0.10000000000E+04  0.00000000000E+00 0. -1.
          2   -1    0    0  501    0 -0.00000000000E+00 -0.00000000000E+00 -0.10596025030E+03  0.10596025030E+03  0.00000000000E+00 0. -1.
    9000006    2    1    2  501    0  0.00000000000E+00  0.00000000000E+00  0.89403974970E+03  0.11059602503E+04  0.65103072218E+03 0.  0.
         13    1    3    3    0    0  0.28139052036E+03 -0.10427566811E+03  0.23276959591E+03  0.37978378676E+03  0.00000000000E+00 0. -1.
          4    1    3    3  501    0 -0.28139052036E+03  0.10427566811E+03  0.66127015379E+03  0.72617646354E+03  0.00000000000E+00 0. -1.
<mgrwt>
<rscale>  0 0.65103072E+03</rscale>
<asrwt>0</asrwt>
<pdfrwt beam="1">0</pdfrwt>
<pdfrwt beam="2">  1        2 0.38531081E+00 0.65103072E+03</pdfrwt>
<totfact> 0.45177013E+00</totfact>
</mgrwt>
</event>
<event>
 5    1  0.2311484E-004  0.6518287E+03  0.7818608E-02  0.9803354E-01
         13   -1    0    0    0    0  0.00000000000E+00  0.00000000000E+00  0.10000000000E+04  0.10000000000E+04  0.00000000000E+00 0. -1.
          2   -1    0    0  501    0 -0.00000000000E+00 -0.00000000000E+00 -0.10622017655E+03  0.10622017655E+03  0.00000000000E+00 0. -1.
    9000006    2    1    2  501    0  0.00000000000E+00  0.00000000000E+00  0.89377982345E+03  0.11062201765E+04  0.65182873993E+03 0.  0.
         13    1    3    3    0    0 -0.26365745039E+03  0.34686934689E+02  0.76665636639E+03  0.81146806389E+03  0.00000000000E+00 0. -1.
          2    1    3    3  501    0  0.26365745039E+03 -0.34686934689E+02  0.12712345706E+03  0.29475211266E+03  0.00000000000E+00 0. -1.
<mgrwt>
<rscale>  0 0.65182874E+03</rscale>
<asrwt>0</asrwt>
<pdfrwt beam="1">0</pdfrwt>
<pdfrwt beam="2">  1        2 0.38625600E+00 0.65182874E+03</pdfrwt>
<totfact> 0.44811245E+00</totfact>
</mgrwt>
</event>
<event>
 5    1  0.2311484E-004  0.6386582E+03  0.7818608E-02  0.9828297E-01
         13   -1    0    0    0    0  0.00000000000E+00  0.00000000000E+00  0.10000000000E+04  0.10000000000E+04  0.00000000000E+00 0. -1.
          2   -1    0    0  501    0 -0.00000000000E+00 -0.00000000000E+00 -0.10197107591E+03  0.10197107591E+03  0.00000000000E+00 0. -1.
    9000006    2    1    2  501    0  0.00000000000E+00  0.00000000000E+00  0.89802892409E+03  0.11019710759E+04  0.63865820566E+03 0.  0.
         13    1    3    3    0    0 -0.24041278780E+03 -0.20994859614E+03  0.43225412745E+03  0.53732704404E+03  0.00000000000E+00 0. -1.
          2    1    3    3  501    0  0.24041278780E+03  0.20994859614E+03  0.46577479663E+03  0.56464403188E+03  0.00000000000E+00 0. -1.
<mgrwt>
<rscale>  0 0.63865821E+03</rscale>
<asrwt>0</asrwt>
<pdfrwt beam="1">0</pdfrwt>
<pdfrwt beam="2">  1        2 0.37080469E+00 0.63865821E+03</pdfrwt>
<totfact> 0.51142223E+00</totfact>
</mgrwt>
</event>
<event>
 5    1  0.2311484E-004  0.6549150E+03  0.7818608E-02  0.9797600E-01
         13   -1    0    0    0    0  0.00000000000E+00  0.00000000000E+00  0.10000000000E+04  0.10000000000E+04  0.00000000000E+00 0. -1.
          2   -1    0    0  501    0 -0.00000000000E+00 -0.00000000000E+00 -0.10722841268E+03  0.10722841268E+03  0.00000000000E+00 0. -1.
    9000006    2    1    2  501    0  0.00000000000E+00  0.00000000000E+00  0.89277158732E+03  0.11072284127E+04  0.65491499503E+03 0.  0.
         13    1    3    3    0    0  0.12393471394E+03  0.13436542857E+03  0.90571411046E+03  0.92397615316E+03  0.00000000000E+00 0. -1.
          4    1    3    3  501    0 -0.12393471394E+03 -0.13436542857E+03 -0.12942523141E+02  0.18325225952E+03  0.00000000000E+00 0. -1.
<mgrwt>
<rscale>  0 0.65491500E+03</rscale>
<asrwt>0</asrwt>
<pdfrwt beam="1">0</pdfrwt>
<pdfrwt beam="2">  1        2 0.38992232E+00 0.65491500E+03</pdfrwt>
<totfact> 0.43417688E+00</totfact>
</mgrwt>
</event>
<event>
 5    1  0.2311484E-004  0.6507407E+03  0.7818608E-02  0.9805390E-01
         13   -1    0    0    0    0  0.00000000000E+00  0.00000000000E+00  0.10000000000E+04  0.10000000000E+04  0.00000000000E+00 0. -1.
          2   -1    0    0  501    0 -0.00000000000E+00 -0.00000000000E+00 -0.10586585055E+03  0.10586585055E+03  0.00000000000E+00 0. -1.
    9000006    2    1    2  501    0  0.00000000000E+00  0.00000000000E+00  0.89413414945E+03  0.11058658506E+04  0.65074065665E+03 0.  0.
         13    1    3    3    0    0 -0.21654507010E+03  0.23648722183E+03  0.35324754969E+03  0.47707630924E+03  0.00000000000E+00 0. -1.
          4    1    3    3  501    0  0.21654507010E+03 -0.23648722183E+03  0.54088659975E+03  0.62878954131E+03  0.00000000000E+00 0. -1.
<mgrwt>
<rscale>  0 0.65074066E+03</rscale>
<asrwt>0</asrwt>
<pdfrwt beam="1">0</pdfrwt>
<pdfrwt beam="2">  1        2 0.38496754E+00 0.65074066E+03</pdfrwt>
<totfact> 0.45310520E+00</totfact>
</mgrwt>
</event>
<event>
 5    1  0.2311484E-004  0.6340681E+03  0.7818608E-02  0.9837142E-01
         13   -1    0    0    0    0  0.00000000000E+00  0.00000000000E+00  0.10000000000E+04  0.10000000000E+04  0.00000000000E+00 0. -1.
          2   -1    0    0  501    0 -0.00000000000E+00 -0.00000000000E+00 -0.10051059396E+03  0.10051059396E+03  0.00000000000E+00 0. -1.
    9000006    2    1    2  501    0  0.00000000000E+00  0.00000000000E+00  0.89948940604E+03  0.11005105940E+04  0.63406811608E+03 0.  0.
         13    1    3    3    0    0  0.23684272779E+03  0.14568026348E+02  0.81465704431E+03  0.84851211243E+03  0.00000000000E+00 0. -1.
          4    1    3    3  501    0 -0.23684272779E+03 -0.14568026348E+02  0.84832361738E+02  0.25199848153E+03  0.00000000000E+00 0. -1.
<mgrwt>
<rscale>  0 0.63406812E+03</rscale>
<asrwt>0</asrwt>
<pdfrwt beam="1">0</pdfrwt>
<pdfrwt beam="2">  1        2 0.36549384E+00 0.63406812E+03</pdfrwt>
<totfact> 0.53500480E+00</totfact>
</mgrwt>
</event>
<event>
 5    1  0.2311484E-004  0.5677128E+03  0.7818608E-02  0.9974753E-01
         13   -1    0    0    0    0  0.00000000000E+00  0.00000000000E+00  0.10000000000E+04  0.10000000000E+04  0.00000000000E+00 0. -1.
          2   -1    0    0  501    0 -0.00000000000E+00 -0.00000000000E+00 -0.80574444438E+02  0.80574444438E+02  0.00000000000E+00 0. -1.
    9000006    2    1    2  501    0  0.00000000000E+00  0.00000000000E+00  0.91942555556E+03  0.10805744444E+04  0.56771275990E+03 0.  0.
         13    1    3    3    0    0 -0.14654126927E+03 -0.23252844881E+03  0.59471373591E+03  0.65515513490E+03  0.00000000000E+00 0. -1.
          2    1    3    3  501    0  0.14654126927E+03  0.23252844881E+03  0.32471181965E+03  0.42541930954E+03  0.00000000000E+00 0. -1.
<mgrwt>
<rscale>  0 0.56771276E+03</rscale>
<asrwt>0</asrwt>
<pdfrwt beam="1">0</pdfrwt>
<pdfrwt beam="2">  1        2 0.29299860E+00 0.56771276E+03</pdfrwt>
<totfact> 0.97806814E+00</totfact>
</mgrwt>
</event>
<event>
 5    1  0.2311484E-004  0.6271499E+03  0.7818608E-02  0.9850626E-01
         13   -1    0    0    0    0  0.00000000000E+00  0.00000000000E+00  0.10000000000E+04  0.10000000000E+04  0.00000000000E+00 0. -1.
          2   -1    0    0  501    0 -0.00000000000E+00 -0.00000000000E+00 -0.98329234133E+02  0.98329234133E+02  0.00000000000E+00 0. -1.
    9000006    2    1    2  501    0  0.00000000000E+00  0.00000000000E+00  0.90167076587E+03  0.10983292341E+04  0.62714985173E+03 0.  0.
         13    1    3    3    0    0  0.27520574516E+03 -0.11590892619E+03  0.28325710043E+03  0.41159162562E+03  0.00000000000E+00 0. -1.
          2    1    3    3  501    0 -0.27520574516E+03  0.11590892619E+03  0.61841366544E+03  0.68673760851E+03  0.00000000000E+00 0. -1.
<mgrwt>
<rscale>  0 0.62714985E+03</rscale>
<asrwt>0</asrwt>
<pdfrwt beam="1">0</pdfrwt>
<pdfrwt beam="2">  1        2 0.35756161E+00 0.62714985E+03</pdfrwt>
<totfact> 0.57209617E+00</totfact>
</mgrwt>
</event>
<event>
 5    1  0.2311484E-004  0.6684487E+03  0.7818608E-02  0.9772764E-01
         13   -1    0    0    0    0  0.00000000000E+00  0.00000000000E+00  0.10000000000E+04  0.10000000000E+04  0.00000000000E+00 0. -1.
          2   -1    0    0  501    0 -0.00000000000E+00 -0.00000000000E+00 -0.11170592832E+03  0.11170592832E+03  0.00000000000E+00 0. -1.
    9000006    2    1    2  501    0  0.00000000000E+00  0.00000000000E+00  0.88829407168E+03  0.11117059283E+04  0.66844873645E+03 0.  0.
         13    1    3    3    0    0  0.20447629155E+03 -0.19687117240E+03  0.15067886365E+03  0.32136106217E+03  0.00000000000E+00 0. -1.
          4    1    3    3  501    0 -0.20447629155E+03  0.19687117240E+03  0.73761520803E+03  0.79034486615E+03  0.00000000000E+00 0. -1.
<mgrwt>
<rscale>  0 0.66844874E+03</rscale>
<asrwt>0</asrwt>
<pdfrwt beam="1">0</pdfrwt>
<pdfrwt beam="2">  1        2 0.40620423E+00 0.66844874E+03</pdfrwt>
<totfact> 0.37689281E+00</totfact>
</mgrwt>
</event>
<event>
 5    1  0.2311484E-004  0.6523599E+03  0.7818608E-02  0.9802361E-01
         13   -1    0    0    0    0  0.00000000000E+00  0.00000000000E+00  0.10000000000E+04  0.10000000000E+04  0.00000000000E+00 0. -1.
          2   -1    0    0  501    0 -0.00000000000E+00 -0.00000000000E+00 -0.10639335290E+03  0.10639335290E+03  0.00000000000E+00 0. -1.
    9000006    2    1    2  501    0  0.00000000000E+00  0.00000000000E+00  0.89360664710E+03  0.11063933529E+04  0.65235987891E+03 0.  0.
         13    1    3    3    0    0  0.12125985923E+03 -0.10469451837E+01  0.96034924291E+03  0.96797506058E+03  0.00000000000E+00 0. -1.
          4    1    3    3  501    0 -0.12125985923E+03  0.10469451837E+01 -0.66742595810E+02  0.13841829232E+03  0.00000000000E+00 0. -1.
<mgrwt>
<rscale>  0 0.65235988E+03</rscale>
<asrwt>0</asrwt>
<pdfrwt beam="1">0</pdfrwt>
<pdfrwt beam="2">  1        2 0.38688574E+00 0.65235988E+03</pdfrwt>
<totfact> 0.44569043E+00</totfact>
</mgrwt>
</event>
<event>
 5    1  0.2311484E-004  0.6462358E+03  0.7818608E-02  0.9813868E-01
         13   -1    0    0    0    0  0.00000000000E+00  0.00000000000E+00  0.10000000000E+04  0.10000000000E+04  0.00000000000E+00 0. -1.
          2   -1    0    0  501    0 -0.00000000000E+00 -0.00000000000E+00 -0.10440516825E+03  0.10440516825E+03  0.00000000000E+00 0. -1.
    9000006    2    1    2  501    0  0.00000000000E+00  0.00000000000E+00  0.89559483175E+03  0.11044051683E+04  0.64623577199E+03 0.  0.
         13    1    3    3    0    0  0.20844857976E+03 -0.22356215179E+03  0.26876721957E+03  0.40702170020E+03  0.00000000000E+00 0. -1.
          4    1    3    3  501    0 -0.20844857976E+03  0.22356215179E+03  0.62682761218E+03  0.69738346805E+03  0.00000000000E+00 0. -1.
<mgrwt>
<rscale>  0 0.64623577E+03</rscale>
<asrwt>0</asrwt>
<pdfrwt beam="1">0</pdfrwt>
<pdfrwt beam="2">  1        2 0.37965596E+00 0.64623577E+03</pdfrwt>
<totfact> 0.47422503E+00</totfact>
</mgrwt>
</event>
<event>
 5    1  0.2311484E-004  0.6380627E+03  0.7818608E-02  0.9829440E-01
         13   -1    0    0    0    0  0.00000000000E+00  0.00000000000E+00  0.10000000000E+04  0.10000000000E+04  0.00000000000E+00 0. -1.
          2   -1    0    0  501    0 -0.00000000000E+00 -0.00000000000E+00 -0.10178101651E+03  0.10178101651E+03  0.00000000000E+00 0. -1.
    9000006    2    1    2  501    0  0.00000000000E+00  0.00000000000E+00  0.89821898349E+03  0.11017810165E+04  0.63806274459E+03 0.  0.
         13    1    3    3    0    0 -0.64499969977E+02 -0.16750971955E+03  0.90453319549E+03  0.92217137995E+03  0.00000000000E+00 0. -1.
          2    1    3    3  501    0  0.64499969977E+02  0.16750971955E+03 -0.63142119942E+01  0.17960963656E+03  0.00000000000E+00 0. -1.
<mgrwt>
<rscale>  0 0.63806274E+03</rscale>
<asrwt>0</asrwt>
<pdfrwt beam="1">0</pdfrwt>
<pdfrwt beam="2">  1        2 0.37011357E+00 0.63806274E+03</pdfrwt>
<totfact> 0.51443620E+00</totfact>
</mgrwt>
</event>
<event>
 5    1  0.2311484E-004  0.6480559E+03  0.7818608E-02  0.9810434E-01
         13   -1    0    0    0    0  0.00000000000E+00  0.00000000000E+00  0.10000000000E+04  0.10000000000E+04  0.00000000000E+00 0. -1.
          2   -1    0    0  501    0 -0.00000000000E+00 -0.00000000000E+00 -0.10499411145E+03  0.10499411145E+03  0.00000000000E+00 0. -1.
    9000006    2    1    2  501    0  0.00000000000E+00  0.00000000000E+00  0.89500588855E+03  0.11049941115E+04  0.64805589713E+03 0.  0.
         13    1    3    3    0    0 -0.25989412714E+03 -0.54394676345E+02  0.76416530437E+03  0.80898229310E+03  0.00000000000E+00 0. -1.
          4    1    3    3  501    0  0.25989412714E+03  0.54394676345E+02  0.13084058417E+03  0.29601181835E+03  0.00000000000E+00 0. -1.
<mgrwt>
<rscale>  0 0.64805590E+03</rscale>
<asrwt>0</asrwt>
<pdfrwt beam="1">0</pdfrwt>
<pdfrwt beam="2">  1        2 0.38179757E+00 0.64805590E+03</pdfrwt>
<totfact> 0.46560427E+00</totfact>
</mgrwt>
</event>
<event>
 5    1  0.2311484E-004  0.6773272E+03  0.7818608E-02  0.9756811E-01
         13   -1    0    0    0    0  0.00000000000E+00  0.00000000000E+00  0.10000000000E+04  0.10000000000E+04  0.00000000000E+00 0. -1.
          2   -1    0    0  501    0 -0.00000000000E+00 -0.00000000000E+00 -0.11469303440E+03  0.11469303440E+03  0.00000000000E+00 0. -1.
    9000006    2    1    2  501    0  0.00000000000E+00  0.00000000000E+00  0.88530696560E+03  0.11146930344E+04  0.67732720129E+03 0.  0.
         13    1    3    3    0    0  0.13540230969E+03 -0.43609586485E+02 -0.63141928918E+02  0.15563574362E+03  0.00000000000E+00 0. -1.
          4    1    3    3  501    0 -0.13540230969E+03  0.43609586485E+02  0.94844889451E+03  0.95905729079E+03  0.00000000000E+00 0. -1.
<mgrwt>
<rscale>  0 0.67732720E+03</rscale>
<asrwt>0</asrwt>
<pdfrwt beam="1">0</pdfrwt>
<pdfrwt beam="2">  1        2 0.41706646E+00 0.67732720E+03</pdfrwt>
<totfact> 0.34254245E+00</totfact>
</mgrwt>
</event>
<event>
 5    1  0.2311484E-004  0.6463953E+03  0.7818608E-02  0.9813567E-01
         13   -1    0    0    0    0  0.00000000000E+00  0.00000000000E+00  0.10000000000E+04  0.10000000000E+04  0.00000000000E+00 0. -1.
          2   -1    0    0  501    0 -0.00000000000E+00 -0.00000000000E+00 -0.10445672608E+03  0.10445672608E+03  0.00000000000E+00 0. -1.
    9000006    2    1    2  501    0  0.00000000000E+00  0.00000000000E+00  0.89554327392E+03  0.11044567261E+04  0.64639531583E+03 0.  0.
         13    1    3    3    0    0 -0.13555786033E+03  0.10542785760E+03  0.91559507494E+03  0.93156068396E+03  0.00000000000E+00 0. -1.
          2    1    3    3  501    0  0.13555786033E+03 -0.10542785760E+03 -0.20051801020E+02  0.17289604212E+03  0.00000000000E+00 0. -1.
<mgrwt>
<rscale>  0 0.64639532E+03</rscale>
<asrwt>0</asrwt>
<pdfrwt beam="1">0</pdfrwt>
<pdfrwt beam="2">  1        2 0.37984344E+00 0.64639532E+03</pdfrwt>
<totfact> 0.47346459E+00</totfact>
</mgrwt>
</event>
<event>
 5    1  0.2311484E-004  0.6317057E+03  0.7818608E-02  0.9841726E-01
         13   -1    0    0    0    0  0.00000000000E+00  0.00000000000E+00  0.10000000000E+04  0.10000000000E+04  0.00000000000E+00 0. -1.
          2   -1    0    0  501    0 -0.00000000000E+00 -0.00000000000E+00 -0.99763034817E+02  0.99763034817E+02  0.00000000000E+00 0. -1.
    9000006    2    1    2  501    0  0.00000000000E+00  0.00000000000E+00  0.90023696518E+03  0.10997630348E+04  0.63170573788E+03 0.  0.
         13    1    3    3    0    0 -0.24930393392E+01 -0.28339403938E+03  0.20735451443E+03  0.35116134676E+03  0.00000000000E+00 0. -1.
          4    1    3    3  501    0  0.24930393392E+01  0.28339403938E+03  0.69288245075E+03  0.74860168806E+03  0.00000000000E+00 0. -1.
<mgrwt>
<rscale>  0 0.63170574E+03</rscale>
<asrwt>0</asrwt>
<pdfrwt beam="1">0</pdfrwt>
<pdfrwt beam="2">  1        2 0.36277544E+00 0.63170574E+03</pdfrwt>
<totfact> 0.54745863E+00</totfact>
</mgrwt>
</event>
<event>
 5    1  0.2311484E-004  0.6492095E+03  0.7818608E-02  0.9808264E-01
         13   -1    0    0    0    0  0.00000000000E+00  0.00000000000E+00  0.10000000000E+04  0.10000000000E+04  0.00000000000E+00 0. -1.
          2   -1    0    0  501    0 -0.00000000000E+00 -0.00000000000E+00 -0.10536825325E+03  0.10536825325E+03  0.00000000000E+00 0. -1.
    9000006    2    1    2  501    0  0.00000000000E+00  0.00000000000E+00  0.89463174675E+03  0.11053682533E+04  0.64920952935E+03 0.  0.
         13    1    3    3    0    0  0.88640465996E+02 -0.23205996249E+03  0.80307861219E+03  0.84062132721E+03  0.00000000000E+00 0. -1.
          2    1    3    3  501    0 -0.88640465996E+02  0.23205996249E+03  0.91553134563E+02  0.26474692605E+03  0.00000000000E+00 0. -1.
<mgrwt>
<rscale>  0 0.64920953E+03</rscale>
<asrwt>0</asrwt>
<pdfrwt beam="1">0</pdfrwt>
<pdfrwt beam="2">  1        2 0.38315809E+00 0.64920953E+03</pdfrwt>
<totfact> 0.46020195E+00</totfact>
</mgrwt>
</event>
<event>
 5    1  0.2311484E-004  0.6511553E+03  0.7818608E-02  0.9804614E-01
         13   -1    0    0    0    0  0.00000000000E+00  0.00000000000E+00  0.10000000000E+04  0.10000000000E+04  0.00000000000E+00 0. -1.
          2   -1    0    0  501    0 -0.00000000000E+00 -0.00000000000E+00 -0.10600080348E+03  0.10600080348E+03  0.00000000000E+00 0. -1.
    9000006    2    1    2  501    0  0.00000000000E+00  0.00000000000E+00  0.89399919652E+03  0.11060008035E+04  0.65115529171E+03 0.  0.
         13    1    3    3    0    0  0.10773381701E+03 -0.30578506966E+03  0.49766335390E+03  0.59395277420E+03  0.00000000000E+00 0. -1.
          4    1    3    3  501    0 -0.10773381701E+03  0.30578506966E+03  0.39633584261E+03  0.51204802929E+03  0.00000000000E+00 0. -1.
<mgrwt>
<rscale>  0 0.65115529E+03</rscale>
<asrwt>0</asrwt>
<pdfrwt beam="1">0</pdfrwt>
<pdfrwt beam="2">  1        2 0.38545828E+00 0.65115529E+03</pdfrwt>
<totfact> 0.45119769E+00</totfact>
</mgrwt>
</event>
<event>
 5    1  0.2311484E-004  0.6406241E+03  0.7818608E-02  0.9824533E-01
         13   -1    0    0    0    0  0.00000000000E+00  0.00000000000E+00  0.10000000000E+04  0.10000000000E+04  0.00000000000E+00 0. -1.
          2   -1    0    0  501    0 -0.00000000000E+00 -0.00000000000E+00 -0.10259981120E+03  0.10259981120E+03  0.00000000000E+00 0. -1.
    9000006    2    1    2  501    0  0.00000000000E+00  0.00000000000E+00  0.89740018880E+03  0.11025998112E+04  0.64062410570E+03 0.  0.
         13    1    3    3    0    0  0.22878993571E+01  0.22475891437E+03  0.55926922758E+02  0.23162388642E+03  0.00000000000E+00 0. -1.
          2    1    3    3  501    0 -0.22878993571E+01 -0.22475891437E+03  0.84147326604E+03  0.87097592478E+03  0.00000000000E+00 0. -1.
<mgrwt>
<rscale>  0 0.64062411E+03</rscale>
<asrwt>0</asrwt>
<pdfrwt beam="1">0</pdfrwt>
<pdfrwt beam="2">  1        2 0.37309101E+00 0.64062411E+03</pdfrwt>
<totfact> 0.50156658E+00</totfact>
</mgrwt>
</event>
<event>
 5    1  0.2311484E-004  0.6553831E+03  0.7818608E-02  0.9796730E-01
         13   -1    0    0    0    0  0.00000000000E+00  0.00000000000E+00  0.10000000000E+04  0.10000000000E+04  0.00000000000E+00 0. -1.
          2   -1    0    0  501    0 -0.00000000000E+00 -0.00000000000E+00 -0.10738174235E+03  0.10738174235E+03  0.00000000000E+00 0. -1.
    9000006    2    1    2  501    0  0.00000000000E+00  0.00000000000E+00  0.89261825765E+03  0.11073817424E+04  0.65538307074E+03 0.  0.
         13    1    3    3    0    0  0.30737652985E+03 -0.86140971405E+02  0.57140349698E+03  0.65452467823E+03  0.00000000000E+00 0. -1.
          2    1    3    3  501    0 -0.30737652985E+03  0.86140971405E+02  0.32121476067E+03  0.45285706412E+03  0.00000000000E+00 0. -1.
<mgrwt>
<rscale>  0 0.65538307E+03</rscale>
<asrwt>0</asrwt>
<pdfrwt beam="1">0</pdfrwt>
<pdfrwt beam="2">  1        2 0.39047989E+00 0.65538307E+03</pdfrwt>
<totfact> 0.43209229E+00</totfact>
</mgrwt>
</event>
<event>
 5    1  0.2311484E-004  0.6672648E+03  0.7818608E-02  0.9774912E-01
         13   -1    0    0    0    0  0.00000000000E+00  0.00000000000E+00  0.10000000000E+04  0.10000000000E+04  0.00000000000E+00 0. -1.
          2   -1    0    0  501    0 -0.00000000000E+00 -0.00000000000E+00 -0.11131058705E+03  0.11131058705E+03  0.00000000000E+00 0. -1.
    9000006    2    1    2  501    0  0.00000000000E+00  0.00000000000E+00  0.88868941295E+03  0.11113105871E+04  0.66726482615E+03 0.  0.
         13    1    3    3    0    0 -0.16513794763E+03  0.27603808356E+03  0.29684915275E+03  0.43770650533E+03  0.00000000000E+00 0. -1.
          4    1    3    3  501    0  0.16513794763E+03 -0.27603808356E+03  0.59184026020E+03  0.67360408172E+03  0.00000000000E+00 0. -1.
<mgrwt>
<rscale>  0 0.66726483E+03</rscale>
<asrwt>0</asrwt>
<pdfrwt beam="1">0</pdfrwt>
<pdfrwt beam="2">  1        2 0.40476662E+00 0.66726483E+03</pdfrwt>
<totfact> 0.38166231E+00</totfact>
</mgrwt>
</event>
<event>
 5    1  0.2311484E-004  0.6522029E+03  0.7818608E-02  0.9802654E-01
         13   -1    0    0    0    0  0.00000000000E+00  0.00000000000E+00  0.10000000000E+04  0.10000000000E+04  0.00000000000E+00 0. -1.
          2   -1    0    0  501    0 -0.00000000000E+00 -0.00000000000E+00 -0.10634214329E+03  0.10634214329E+03  0.00000000000E+00 0. -1.
    9000006    2    1    2  501    0  0.00000000000E+00  0.00000000000E+00  0.89365785671E+03  0.11063421433E+04  0.65220286196E+03 0.  0.
         13    1    3    3    0    0 -0.24797322641E+03  0.15570094761E+03  0.69034711022E+03  0.74987508206E+03  0.00000000000E+00 0. -1.
          4    1    3    3  501    0  0.24797322641E+03 -0.15570094761E+03  0.20331074649E+03  0.35646706123E+03  0.00000000000E+00 0. -1.
<mgrwt>
<rscale>  0 0.65220286E+03</rscale>
<asrwt>0</asrwt>
<pdfrwt beam="1">0</pdfrwt>
<pdfrwt beam="2">  1        2 0.38669952E+00 0.65220286E+03</pdfrwt>
<totfact> 0.44640540E+00</totfact>
</mgrwt>
</event>
<event>
 5    1  0.2311484E-004  0.6550000E+03  0.7818608E-02  0.9797442E-01
         13   -1    0    0    0    0  0.00000000000E+00  0.00000000000E+00  0.10000000000E+04  0.10000000000E+04  0.00000000000E+00 0. -1.
          2   -1    0    0  501    0 -0.00000000000E+00 -0.00000000000E+00 -0.10725625356E+03  0.10725625356E+03  0.00000000000E+00 0. -1.
    9000006    2    1    2  501    0  0.00000000000E+00  0.00000000000E+00  0.89274374644E+03  0.11072562536E+04  0.65500001087E+03 0.  0.
         13    1    3    3    0    0 -0.30655840146E+03  0.11523062306E+03  0.44582786351E+03  0.55318950992E+03  0.00000000000E+00 0. -1.
          2    1    3    3  501    0  0.30655840146E+03 -0.11523062306E+03  0.44691588293E+03  0.55406674364E+03  0.00000000000E+00 0. -1.
<mgrwt>
<rscale>  0 0.65500001E+03</rscale>
<asrwt>0</asrwt>
<pdfrwt beam="1">0</pdfrwt>
<pdfrwt beam="2">  1        2 0.39002356E+00 0.65500001E+03</pdfrwt>
<totfact> 0.43379770E+00</totfact>
</mgrwt>
</event>
<event>
 5    1  0.2311484E-004  0.6513546E+03  0.7818608E-02  0.9804241E-01
         13   -1    0    0    0    0  0.00000000000E+00  0.00000000000E+00  0.10000000000E+04  0.10000000000E+04  0.00000000000E+00 0. -1.
          2   -1    0    0  501    0 -0.00000000000E+00 -0.00000000000E+00 -0.10606569071E+03  0.10606569071E+03  0.00000000000E+00 0. -1.
    9000006    2    1    2  501    0  0.00000000000E+00  0.00000000000E+00  0.89393430929E+03  0.11060656907E+04  0.65135456002E+03 0.  0.
         13    1    3    3    0    0  0.12503019033E+03  0.22341836333E+03  0.10515765770E+03  0.27677869597E+03  0.00000000000E+00 0. -1.
          4    1    3    3  501    0 -0.12503019033E+03 -0.22341836333E+03  0.78877665158E+03  0.82928699474E+03  0.00000000000E+00 0. -1.
<mgrwt>
<rscale>  0 0.65135456E+03</rscale>
<asrwt>0</asrwt>
<pdfrwt beam="1">0</pdfrwt>
<pdfrwt beam="2">  1        2 0.38569423E+00 0.65135456E+03</pdfrwt>
<totfact> 0.45028312E+00</totfact>
</mgrwt>
</event>
<event>
 5    1  0.2311484E-004  0.6429261E+03  0.7818608E-02  0.9820144E-01
         13   -1    0    0    0    0  0.00000000000E+00  0.00000000000E+00  0.10000000000E+04  0.10000000000E+04  0.00000000000E+00 0. -1.
          2   -1    0    0  501    0 -0.00000000000E+00 -0.00000000000E+00 -0.10333850609E+03  0.10333850609E+03  0.00000000000E+00 0. -1.
    9000006    2    1    2  501    0  0.00000000000E+00  0.00000000000E+00  0.89666149391E+03  0.11033385061E+04  0.64292614224E+03 0.  0.
         13    1    3    3    0    0 -0.18486595460E+03  0.22945364249E+03  0.66886461154E+03  0.73089278543E+03  0.00000000000E+00 0. -1.
          2    1    3    3  501    0  0.18486595460E+03 -0.22945364249E+03  0.22779688237E+03  0.37244572066E+03  0.00000000000E+00 0. -1.
<mgrwt>
<rscale>  0 0.64292614E+03</rscale>
<asrwt>0</asrwt>
<pdfrwt beam="1">0</pdfrwt>
<pdfrwt beam="2">  1        2 0.37577718E+00 0.64292614E+03</pdfrwt>
<totfact> 0.49020945E+00</totfact>
</mgrwt>
</event>
<event>
 5    1  0.2311484E-004  0.6190194E+03  0.7818608E-02  0.9866714E-01
         13   -1    0    0    0    0  0.00000000000E+00  0.00000000000E+00  0.10000000000E+04  0.10000000000E+04  0.00000000000E+00 0. -1.
          2   -1    0    0  501    0 -0.00000000000E+00 -0.00000000000E+00 -0.95796262198E+02  0.95796262198E+02  0.00000000000E+00 0. -1.
    9000006    2    1    2  501    0  0.00000000000E+00  0.00000000000E+00  0.90420373780E+03  0.10957962622E+04  0.61901942521E+03 0.  0.
         13    1    3    3    0    0  0.19505037176E+03 -0.14055642924E+03  0.10704422953E+03  0.26317147338E+03  0.00000000000E+00 0. -1.
          2    1    3    3  501    0 -0.19505037176E+03  0.14055642924E+03  0.79715950827E+03  0.83262478881E+03  0.00000000000E+00 0. -1.
<mgrwt>
<rscale>  0 0.61901943E+03</rscale>
<asrwt>0</asrwt>
<pdfrwt beam="1">0</pdfrwt>
<pdfrwt beam="2">  1        2 0.34835078E+00 0.61901943E+03</pdfrwt>
<totfact> 0.61815235E+00</totfact>
</mgrwt>
</event>
<event>
 5    1  0.2311484E-004  0.6584634E+03  0.7818608E-02  0.9791027E-01
         13   -1    0    0    0    0  0.00000000000E+00  0.00000000000E+00  0.10000000000E+04  0.10000000000E+04  0.00000000000E+00 0. -1.
          2   -1    0    0  501    0 -0.00000000000E+00 -0.00000000000E+00 -0.10839350194E+03  0.10839350194E+03  0.00000000000E+00 0. -1.
    9000006    2    1    2  501    0  0.00000000000E+00  0.00000000000E+00  0.89160649806E+03  0.11083935019E+04  0.65846336858E+03 0.  0.
         13    1    3    3    0    0  0.31396678273E+03 -0.90896030372E+02  0.51220893011E+03  0.60761436543E+03  0.00000000000E+00 0. -1.
          2    1    3    3  501    0 -0.31396678273E+03  0.90896030372E+02  0.37939756795E+03  0.50077913651E+03  0.00000000000E+00 0. -1.
<mgrwt>
<rscale>  0 0.65846337E+03</rscale>
<asrwt>0</asrwt>
<pdfrwt beam="1">0</pdfrwt>
<pdfrwt beam="2">  1        2 0.39415902E+00 0.65846337E+03</pdfrwt>
<totfact> 0.41856203E+00</totfact>
</mgrwt>
</event>
<event>
 5    1  0.2311484E-004  0.6463718E+03  0.7818608E-02  0.9813611E-01
         13   -1    0    0    0    0  0.00000000000E+00  0.00000000000E+00  0.10000000000E+04  0.10000000000E+04  0.00000000000E+00 0. -1.
          2   -1    0    0  501    0 -0.00000000000E+00 -0.00000000000E+00 -0.10444911129E+03  0.10444911129E+03  0.00000000000E+00 0. -1.
    9000006    2    1    2  501    0  0.00000000000E+00  0.00000000000E+00  0.89555088871E+03  0.11044491113E+04  0.64637175462E+03 0.  0.
         13    1    3    3    0    0 -0.45979669221E+02 -0.17621125744E+03 -0.84306885641E+01  0.18230637328E+03  0.00000000000E+00 0. -1.
          4    1    3    3  501    0  0.45979669221E+02  0.17621125744E+03  0.90398157727E+03  0.92214273801E+03  0.00000000000E+00 0. -1.
<mgrwt>
<rscale>  0 0.64637175E+03</rscale>
<asrwt>0</asrwt>
<pdfrwt beam="1">0</pdfrwt>
<pdfrwt beam="2">  1        2 0.37981575E+00 0.64637175E+03</pdfrwt>
<totfact> 0.47357683E+00</totfact>
</mgrwt>
</event>
<event>
 5    1  0.2311484E-004  0.6768313E+03  0.7818608E-02  0.9757695E-01
         13   -1    0    0    0    0  0.00000000000E+00  0.00000000000E+00  0.10000000000E+04  0.10000000000E+04  0.00000000000E+00 0. -1.
          4   -1    0    0  501    0 -0.00000000000E+00 -0.00000000000E+00 -0.11452513568E+03  0.11452513568E+03  0.00000000000E+00 0. -1.
    9000006    2    1    2  501    0  0.00000000000E+00  0.00000000000E+00  0.88547486432E+03  0.11145251357E+04  0.67683125128E+03 0.  0.
         13    1    3    3    0    0  0.22618844211E+03 -0.25019199055E+03  0.39710647353E+03  0.52100939991E+03  0.00000000000E+00 0. -1.
          4    1    3    3  501    0 -0.22618844211E+03  0.25019199055E+03  0.48836839080E+03  0.59351573577E+03  0.00000000000E+00 0. -1.
<mgrwt>
<rscale>  0 0.67683125E+03</rscale>
<asrwt>0</asrwt>
<pdfrwt beam="1">0</pdfrwt>
<pdfrwt beam="2">  1        4 0.41645592E+00 0.67683125E+03</pdfrwt>
<totfact> 0.24570157E-02</totfact>
</mgrwt>
</event>
<event>
 5    1  0.2311484E-004  0.6430848E+03  0.7818608E-02  0.9819842E-01
         13   -1    0    0    0    0  0.00000000000E+00  0.00000000000E+00  0.10000000000E+04  0.10000000000E+04  0.00000000000E+00 0. -1.
          2   -1    0    0  501    0 -0.00000000000E+00 -0.00000000000E+00 -0.10338952793E+03  0.10338952793E+03  0.00000000000E+00 0. -1.
    9000006    2    1    2  501    0  0.00000000000E+00  0.00000000000E+00  0.89661047207E+03  0.11033895279E+04  0.64308484022E+03 0.  0.
         13    1    3    3    0    0  0.28691801003E+03 -0.15528495551E+02  0.69591524874E+03  0.75290179445E+03  0.00000000000E+00 0. -1.
          2    1    3    3  501    0 -0.28691801003E+03  0.15528495551E+02  0.20069522332E+03  0.35048773348E+03  0.00000000000E+00 0. -1.
<mgrwt>
<rscale>  0 0.64308484E+03</rscale>
<asrwt>0</asrwt>
<pdfrwt beam="1">0</pdfrwt>
<pdfrwt beam="2">  1        2 0.37596271E+00 0.64308484E+03</pdfrwt>
<totfact> 0.48943381E+00</totfact>
</mgrwt>
</event>
<event>
 5    1  0.2311484E-004  0.6517686E+03  0.7818608E-02  0.9803466E-01
         13   -1    0    0    0    0  0.00000000000E+00  0.00000000000E+00  0.10000000000E+04  0.10000000000E+04  0.00000000000E+00 0. -1.
          2   -1    0    0  501    0 -0.00000000000E+00 -0.00000000000E+00 -0.10620059096E+03  0.10620059096E+03  0.00000000000E+00 0. -1.
    9000006    2    1    2  501    0  0.00000000000E+00  0.00000000000E+00  0.89379940904E+03  0.11062005910E+04  0.65176864288E+03 0.  0.
         13    1    3    3    0    0 -0.81114862341E+02  0.55434543562E+02  0.97426557838E+03  0.97920683552E+03  0.00000000000E+00 0. -1.
          2    1    3    3  501    0  0.81114862341E+02 -0.55434543562E+02 -0.80466169342E+02  0.12699375544E+03  0.00000000000E+00 0. -1.
<mgrwt>
<rscale>  0 0.65176864E+03</rscale>
<asrwt>0</asrwt>
<pdfrwt beam="1">0</pdfrwt>
<pdfrwt beam="2">  1        2 0.38618478E+00 0.65176864E+03</pdfrwt>
<totfact> 0.44838712E+00</totfact>
</mgrwt>
</event>
<event>
 5    1  0.2311484E-004  0.6492320E+03  0.7818608E-02  0.9808221E-01
         13   -1    0    0    0    0  0.00000000000E+00  0.00000000000E+00  0.10000000000E+04  0.10000000000E+04  0.00000000000E+00 0. -1.
          2   -1    0    0  501    0 -0.00000000000E+00 -0.00000000000E+00 -0.10537556236E+03  0.10537556236E+03  0.00000000000E+00 0. -1.
    9000006    2    1    2  501    0  0.00000000000E+00  0.00000000000E+00  0.89462443764E+03  0.11053755624E+04  0.64923204593E+03 0.  0.
         13    1    3    3    0    0 -0.11953681536E+03 -0.24048876297E+03  0.75778006016E+03  0.80396176210E+03  0.00000000000E+00 0. -1.
          2    1    3    3  501    0  0.11953681536E+03  0.24048876297E+03  0.13684437748E+03  0.30141380027E+03  0.00000000000E+00 0. -1.
<mgrwt>
<rscale>  0 0.64923205E+03</rscale>
<asrwt>0</asrwt>
<pdfrwt beam="1">0</pdfrwt>
<pdfrwt beam="2">  1        2 0.38318467E+00 0.64923205E+03</pdfrwt>
<totfact> 0.46009698E+00</totfact>
</mgrwt>
</event>
<event>
 5    1  0.2311484E-004  0.6496751E+03  0.7818608E-02  0.9807389E-01
         13   -1    0    0    0    0  0.00000000000E+00  0.00000000000E+00  0.10000000000E+04  0.10000000000E+04  0.00000000000E+00 0. -1.
          2   -1    0    0  501    0 -0.00000000000E+00 -0.00000000000E+00 -0.10551943066E+03  0.10551943066E+03  0.00000000000E+00 0. -1.
    9000006    2    1    2  501    0  0.00000000000E+00  0.00000000000E+00  0.89448056934E+03  0.11055194307E+04  0.64967509007E+03 0.  0.
         13    1    3    3    0    0  0.26982199924E+03  0.82717161074E+02  0.17352639408E+03  0.33129661853E+03  0.00000000000E+00 0. -1.
          2    1    3    3  501    0 -0.26982199924E+03 -0.82717161074E+02  0.72095417526E+03  0.77422281213E+03  0.00000000000E+00 0. -1.
<mgrwt>
<rscale>  0 0.64967509E+03</rscale>
<asrwt>0</asrwt>
<pdfrwt beam="1">0</pdfrwt>
<pdfrwt beam="2">  1        2 0.38370783E+00 0.64967509E+03</pdfrwt>
<totfact> 0.45803526E+00</totfact>
</mgrwt>
</event>
<event>
 5    1  0.2311484E-004  0.5559234E+03  0.7818608E-02  0.1000132E+00
         13   -1    0    0    0    0  0.00000000000E+00  0.00000000000E+00  0.10000000000E+04  0.10000000000E+04  0.00000000000E+00 0. -1.
          2   -1    0    0  501    0 -0.00000000000E+00 -0.00000000000E+00 -0.77262696803E+02  0.77262696803E+02  0.00000000000E+00 0. -1.
    9000006    2    1    2  501    0  0.00000000000E+00  0.00000000000E+00  0.92273730320E+03  0.10772626968E+04  0.55592336451E+03 0.  0.
         13    1    3    3    0    0  0.22229737546E+03  0.14134089100E+03  0.28946881322E+03  0.39138927481E+03  0.00000000000E+00 0. -1.
          2    1    3    3  501    0 -0.22229737546E+03 -0.14134089100E+03  0.63326848997E+03  0.68587342199E+03  0.00000000000E+00 0. -1.
<mgrwt>
<rscale>  0 0.55592336E+03</rscale>
<asrwt>0</asrwt>
<pdfrwt beam="1">0</pdfrwt>
<pdfrwt beam="2">  1        2 0.28095585E+00 0.55592336E+03</pdfrwt>
<totfact> 0.10799377E+01</totfact>
</mgrwt>
</event>
<event>
 5    1  0.2311484E-004  0.6488212E+03  0.7818608E-02  0.9808994E-01
         13   -1    0    0    0    0  0.00000000000E+00  0.00000000000E+00  0.10000000000E+04  0.10000000000E+04  0.00000000000E+00 0. -1.
          2   -1    0    0  501    0 -0.00000000000E+00 -0.00000000000E+00 -0.10524224151E+03  0.10524224151E+03  0.00000000000E+00 0. -1.
    9000006    2    1    2  501    0  0.00000000000E+00  0.00000000000E+00  0.89475775849E+03  0.11052422415E+04  0.64882121271E+03 0.  0.
         13    1    3    3    0    0 -0.15512330483E+03  0.23395357886E+03  0.17036472505E+03  0.32836208110E+03  0.00000000000E+00 0. -1.
          2    1    3    3  501    0  0.15512330483E+03 -0.23395357886E+03  0.72439303343E+03  0.77688016042E+03  0.00000000000E+00 0. -1.
<mgrwt>
<rscale>  0 0.64882121E+03</rscale>
<asrwt>0</asrwt>
<pdfrwt beam="1">0</pdfrwt>
<pdfrwt beam="2">  1        2 0.38269987E+00 0.64882121E+03</pdfrwt>
<totfact> 0.46201507E+00</totfact>
</mgrwt>
</event>
<event>
 5    1  0.2311484E-004  0.6466353E+03  0.7818608E-02  0.9813113E-01
         13   -1    0    0    0    0  0.00000000000E+00  0.00000000000E+00  0.10000000000E+04  0.10000000000E+04  0.00000000000E+00 0. -1.
          2   -1    0    0  501    0 -0.00000000000E+00 -0.00000000000E+00 -0.10453431455E+03  0.10453431455E+03  0.00000000000E+00 0. -1.
    9000006    2    1    2  501    0  0.00000000000E+00  0.00000000000E+00  0.89546568545E+03  0.11045343146E+04  0.64663533635E+03 0.  0.
         13    1    3    3    0    0  0.17541355239E+03  0.23200931325E+03  0.20655375429E+03  0.35673896508E+03  0.00000000000E+00 0. -1.
          4    1    3    3  501    0 -0.17541355239E+03 -0.23200931325E+03  0.68891193116E+03  0.74779534947E+03  0.00000000000E+00 0. -1.
<mgrwt>
<rscale>  0 0.64663534E+03</rscale>
<asrwt>0</asrwt>
<pdfrwt beam="1">0</pdfrwt>
<pdfrwt beam="2">  1        2 0.38012558E+00 0.64663534E+03</pdfrwt>
<totfact> 0.47232230E+00</totfact>
</mgrwt>
</event>
<event>
 5    1  0.2311484E-004  0.6346593E+03  0.7818608E-02  0.9835999E-01
         13   -1    0    0    0    0  0.00000000000E+00  0.00000000000E+00  0.10000000000E+04  0.10000000000E+04  0.00000000000E+00 0. -1.
          2   -1    0    0  501    0 -0.00000000000E+00 -0.00000000000E+00 -0.10069809741E+03  0.10069809741E+03  0.00000000000E+00 0. -1.
    9000006    2    1    2  501    0  0.00000000000E+00  0.00000000000E+00  0.89930190259E+03  0.11006980974E+04  0.63465927050E+03 0.  0.
         13    1    3    3    0    0 -0.24315962425E+03 -0.19919301202E+03  0.37418064275E+03  0.48868764289E+03  0.00000000000E+00 0. -1.
          2    1    3    3  501    0  0.24315962425E+03  0.19919301202E+03  0.52512125984E+03  0.61201045452E+03  0.00000000000E+00 0. -1.
<mgrwt>
<rscale>  0 0.63465927E+03</rscale>
<asrwt>0</asrwt>
<pdfrwt beam="1">0</pdfrwt>
<pdfrwt beam="2">  1        2 0.36617567E+00 0.63465927E+03</pdfrwt>
<totfact> 0.53192228E+00</totfact>
</mgrwt>
</event>
<event>
 5    1  0.2311484E-004  0.6513886E+03  0.7818608E-02  0.9804177E-01
         13   -1    0    0    0    0  0.00000000000E+00  0.00000000000E+00  0.10000000000E+04  0.10000000000E+04  0.00000000000E+00 0. -1.
          2   -1    0    0  501    0 -0.00000000000E+00 -0.00000000000E+00 -0.10607677650E+03  0.10607677650E+03  0.00000000000E+00 0. -1.
    9000006    2    1    2  501    0  0.00000000000E+00  0.00000000000E+00  0.89392322350E+03  0.11060767765E+04  0.65138859831E+03 0.  0.
         13    1    3    3    0    0 -0.16360797195E+02 -0.28550123560E+02  0.99717017334E+03  0.99771295463E+03  0.00000000000E+00 0. -1.
          4    1    3    3  501    0  0.16360797195E+02  0.28550123560E+02 -0.10324694984E+03  0.10836382187E+03  0.00000000000E+00 0. -1.
<mgrwt>
<rscale>  0 0.65138860E+03</rscale>
<asrwt>0</asrwt>
<pdfrwt beam="1">0</pdfrwt>
<pdfrwt beam="2">  1        2 0.38573455E+00 0.65138860E+03</pdfrwt>
<totfact> 0.45012704E+00</totfact>
</mgrwt>
</event>
<event>
 5    1  0.2311484E-004  0.6438585E+03  0.7818608E-02  0.9818372E-01
         13   -1    0    0    0    0  0.00000000000E+00  0.00000000000E+00  0.10000000000E+04  0.10000000000E+04  0.00000000000E+00 0. -1.
          2   -1    0    0  501    0 -0.00000000000E+00 -0.00000000000E+00 -0.10363845221E+03  0.10363845221E+03  0.00000000000E+00 0. -1.
    9000006    2    1    2  501    0  0.00000000000E+00  0.00000000000E+00  0.89636154779E+03  0.11036384522E+04  0.64385853169E+03 0.  0.
         13    1    3    3    0    0 -0.31102285447E+03 -0.47898306291E+02  0.56455027679E+03  0.64633310202E+03  0.00000000000E+00 0. -1.
          4    1    3    3  501    0  0.31102285447E+03  0.47898306291E+02  0.33181127100E+03  0.45730535019E+03  0.00000000000E+00 0. -1.
<mgrwt>
<rscale>  0 0.64385853E+03</rscale>
<asrwt>0</asrwt>
<pdfrwt beam="1">0</pdfrwt>
<pdfrwt beam="2">  1        2 0.37686789E+00 0.64385853E+03</pdfrwt>
<totfact> 0.48566569E+00</totfact>
</mgrwt>
</event>
<event>
 5    1  0.2311484E-004  0.6476144E+03  0.7818608E-02  0.9811266E-01
         13   -1    0    0    0    0  0.00000000000E+00  0.00000000000E+00  0.10000000000E+04  0.10000000000E+04  0.00000000000E+00 0. -1.
          2   -1    0    0  501    0 -0.00000000000E+00 -0.00000000000E+00 -0.10485111827E+03  0.10485111827E+03  0.00000000000E+00 0. -1.
    9000006    2    1    2  501    0  0.00000000000E+00  0.00000000000E+00  0.89514888173E+03  0.11048511183E+04  0.64761444786E+03 0.  0.
         13    1    3    3    0    0  0.44357075724E+02 -0.17757083648E+03  0.90328680484E+03  0.92164310009E+03  0.00000000000E+00 0. -1.
          2    1    3    3  501    0 -0.44357075724E+02  0.17757083648E+03 -0.81379231111E+01  0.18320801818E+03  0.00000000000E+00 0. -1.
<mgrwt>
<rscale>  0 0.64761445E+03</rscale>
<asrwt>0</asrwt>
<pdfrwt beam="1">0</pdfrwt>
<pdfrwt beam="2">  1        2 0.38127760E+00 0.64761445E+03</pdfrwt>
<totfact> 0.46768415E+00</totfact>
</mgrwt>
</event>
<event>
 5    1  0.2311484E-004  0.6448945E+03  0.7818608E-02  0.9816407E-01
         13   -1    0    0    0    0  0.00000000000E+00  0.00000000000E+00  0.10000000000E+04  0.10000000000E+04  0.00000000000E+00 0. -1.
          2   -1    0    0  501    0 -0.00000000000E+00 -0.00000000000E+00 -0.10397221341E+03  0.10397221341E+03  0.00000000000E+00 0. -1.
    9000006    2    1    2  501    0  0.00000000000E+00  0.00000000000E+00  0.89602778659E+03  0.11039722134E+04  0.64489445155E+03 0.  0.
         13    1    3    3    0    0  0.15028601065E+03 -0.28480258000E+03  0.47634093106E+03  0.57497745797E+03  0.00000000000E+00 0. -1.
          4    1    3    3  501    0 -0.15028601065E+03  0.28480258000E+03  0.41968685553E+03  0.52899475544E+03  0.00000000000E+00 0. -1.
<mgrwt>
<rscale>  0 0.64489445E+03</rscale>
<asrwt>0</asrwt>
<pdfrwt beam="1">0</pdfrwt>
<pdfrwt beam="2">  1        2 0.37808157E+00 0.64489445E+03</pdfrwt>
<totfact> 0.48065487E+00</totfact>
</mgrwt>
</event>
<event>
 5    1  0.2311484E-004  0.6350862E+03  0.7818608E-02  0.9835173E-01
         13   -1    0    0    0    0  0.00000000000E+00  0.00000000000E+00  0.10000000000E+04  0.10000000000E+04  0.00000000000E+00 0. -1.
          2   -1    0    0  501    0 -0.00000000000E+00 -0.00000000000E+00 -0.10083362965E+03  0.10083362965E+03  0.00000000000E+00 0. -1.
    9000006    2    1    2  501    0  0.00000000000E+00  0.00000000000E+00  0.89916637035E+03  0.11008336297E+04  0.63508622927E+03 0.  0.
         13    1    3    3    0    0  0.29490819091E+03  0.11491638495E+03  0.40515321806E+03  0.51412619726E+03  0.00000000000E+00 0. -1.
          4    1    3    3  501    0 -0.29490819091E+03 -0.11491638495E+03  0.49401315228E+03  0.58670743240E+03  0.00000000000E+00 0. -1.
<mgrwt>
<rscale>  0 0.63508623E+03</rscale>
<asrwt>0</asrwt>
<pdfrwt beam="1">0</pdfrwt>
<pdfrwt beam="2">  1        2 0.36666852E+00 0.63508623E+03</pdfrwt>
<totfact> 0.52970434E+00</totfact>
</mgrwt>
</event>
<event>
 5    1  0.2311484E-004  0.6596460E+03  0.7818608E-02  0.9788846E-01
         13   -1    0    0    0    0  0.00000000000E+00  0.00000000000E+00  0.10000000000E+04  0.10000000000E+04  0.00000000000E+00 0. -1.
          2   -1    0    0  501    0 -0.00000000000E+00 -0.00000000000E+00 -0.10878321070E+03  0.10878321070E+03  0.00000000000E+00 0. -1.
    9000006    2    1    2  501    0  0.00000000000E+00  0.00000000000E+00  0.89121678930E+03  0.11087832107E+04  0.65964599811E+03 0.  0.
         13    1    3    3    0    0  0.25120158278E+02 -0.25522643878E+03  0.97007275219E+02  0.27419330563E+03  0.00000000000E+00 0. -1.
          2    1    3    3  501    0 -0.25120158278E+02  0.25522643878E+03  0.79420951408E+03  0.83458990508E+03  0.00000000000E+00 0. -1.
<mgrwt>
<rscale>  0 0.65964600E+03</rscale>
<asrwt>0</asrwt>
<pdfrwt beam="1">0</pdfrwt>
<pdfrwt beam="2">  1        2 0.39557615E+00 0.65964600E+03</pdfrwt>
<totfact> 0.41345364E+00</totfact>
</mgrwt>
</event>
<event>
 5    1  0.2311484E-004  0.6536241E+03  0.7818608E-02  0.9800002E-01
         13   -1    0    0    0    0  0.00000000000E+00  0.00000000000E+00  0.10000000000E+04  0.10000000000E+04  0.00000000000E+00 0. -1.
          2   -1    0    0  501    0 -0.00000000000E+00 -0.00000000000E+00 -0.10680612373E+03  0.10680612373E+03  0.00000000000E+00 0. -1.
    9000006    2    1    2  501    0  0.00000000000E+00  0.00000000000E+00  0.89319387627E+03  0.11068061237E+04  0.65362412357E+03 0.  0.
         13    1    3    3    0    0 -0.17286380246E+03 -0.24119673831E+03  0.67845657808E+03  0.74051407084E+03  0.00000000000E+00 0. -1.
          2    1    3    3  501    0  0.17286380246E+03  0.24119673831E+03  0.21473729819E+03  0.36629205289E+03  0.00000000000E+00 0. -1.
<mgrwt>
<rscale>  0 0.65362412E+03</rscale>
<asrwt>0</asrwt>
<pdfrwt beam="1">0</pdfrwt>
<pdfrwt beam="2">  1        2 0.38838672E+00 0.65362412E+03</pdfrwt>
<totfact> 0.43996520E+00</totfact>
</mgrwt>
</event>
<event>
 5    1  0.2311484E-004  0.6449963E+03  0.7818608E-02  0.9816214E-01
         13   -1    0    0    0    0  0.00000000000E+00  0.00000000000E+00  0.10000000000E+04  0.10000000000E+04  0.00000000000E+00 0. -1.
          2   -1    0    0  501    0 -0.00000000000E+00 -0.00000000000E+00 -0.10400504966E+03  0.10400504966E+03  0.00000000000E+00 0. -1.
    9000006    2    1    2  501    0  0.00000000000E+00  0.00000000000E+00  0.89599495034E+03  0.11040050497E+04  0.64499627802E+03 0.  0.
         13    1    3    3    0    0 -0.68595519132E+02 -0.29920469708E+03  0.27875861872E+03  0.41465065237E+03  0.00000000000E+00 0. -1.
          4    1    3    3  501    0  0.68595519132E+02  0.29920469708E+03  0.61723633161E+03  0.68935439729E+03  0.00000000000E+00 0. -1.
<mgrwt>
<rscale>  0 0.64499628E+03</rscale>
<asrwt>0</asrwt>
<pdfrwt beam="1">0</pdfrwt>
<pdfrwt beam="2">  1        2 0.37820098E+00 0.64499628E+03</pdfrwt>
<totfact> 0.48016444E+00</totfact>
</mgrwt>
</event>
<event>
 5    1  0.2311484E-004  0.6495286E+03  0.7818608E-02  0.9807664E-01
         13   -1    0    0    0    0  0.00000000000E+00  0.00000000000E+00  0.10000000000E+04  0.10000000000E+04  0.00000000000E+00 0. -1.
          2   -1    0    0  501    0 -0.00000000000E+00 -0.00000000000E+00 -0.10547184166E+03  0.10547184166E+03  0.00000000000E+00 0. -1.
    9000006    2    1    2  501    0  0.00000000000E+00  0.00000000000E+00  0.89452815834E+03  0.11054718417E+04  0.64952857262E+03 0.  0.
         13    1    3    3    0    0 -0.19898178088E+03  0.22644123744E+03  0.24159812005E+03  0.38631468357E+03  0.00000000000E+00 0. -1.
          4    1    3    3  501    0  0.19898178088E+03 -0.22644123744E+03  0.65293003829E+03  0.71915715809E+03  0.00000000000E+00 0. -1.
<mgrwt>
<rscale>  0 0.64952857E+03</rscale>
<asrwt>0</asrwt>
<pdfrwt beam="1">0</pdfrwt>
<pdfrwt beam="2">  1        2 0.38353478E+00 0.64952857E+03</pdfrwt>
<totfact> 0.45871631E+00</totfact>
</mgrwt>
</event>
<event>
 5    1  0.2311484E-004  0.6474397E+03  0.7818608E-02  0.9811595E-01
         13   -1    0    0    0    0  0.00000000000E+00  0.00000000000E+00  0.10000000000E+04  0.10000000000E+04  0.00000000000E+00 0. -1.
          2   -1    0    0  501    0 -0.00000000000E+00 -0.00000000000E+00 -0.10479454566E+03  0.10479454566E+03  0.00000000000E+00 0. -1.
    9000006    2    1    2  501    0  0.00000000000E+00  0.00000000000E+00  0.89520545434E+03  0.11047945457E+04  0.64743971352E+03 0.  0.
         13    1    3    3    0    0  0.38676211287E+02 -0.32065614140E+03  0.41028214473E+03  0.52215672802E+03  0.00000000000E+00 0. -1.
          2    1    3    3  501    0 -0.38676211287E+02  0.32065614140E+03  0.48492330961E+03  0.58263781763E+03  0.00000000000E+00 0. -1.
<mgrwt>
<rscale>  0 0.64743971E+03</rscale>
<asrwt>0</asrwt>
<pdfrwt beam="1">0</pdfrwt>
<pdfrwt beam="2">  1        2 0.38107188E+00 0.64743971E+03</pdfrwt>
<totfact> 0.46850935E+00</totfact>
</mgrwt>
</event>
<event>
 5    1  0.2311484E-004  0.6554078E+03  0.7818608E-02  0.9796684E-01
         13   -1    0    0    0    0  0.00000000000E+00  0.00000000000E+00  0.10000000000E+04  0.10000000000E+04  0.00000000000E+00 0. -1.
          2   -1    0    0  501    0 -0.00000000000E+00 -0.00000000000E+00 -0.10738986190E+03  0.10738986190E+03  0.00000000000E+00 0. -1.
    9000006    2    1    2  501    0  0.00000000000E+00  0.00000000000E+00  0.89261013810E+03  0.11073898619E+04  0.65540784828E+03 0.  0.
         13    1    3    3    0    0 -0.10888076238E+03  0.81792454353E+02  0.94992742507E+03  0.95963906700E+03  0.00000000000E+00 0. -1.
          2    1    3    3  501    0  0.10888076238E+03 -0.81792454353E+02 -0.57317286970E+02  0.14775079490E+03  0.00000000000E+00 0. -1.
<mgrwt>
<rscale>  0 0.65540785E+03</rscale>
<asrwt>0</asrwt>
<pdfrwt beam="1">0</pdfrwt>
<pdfrwt beam="2">  1        2 0.39050941E+00 0.65540785E+03</pdfrwt>
<totfact> 0.43198215E+00</totfact>
</mgrwt>
</event>
<event>
 5    1  0.2311484E-004  0.6474041E+03  0.7818608E-02  0.9811663E-01
         13   -1    0    0    0    0  0.00000000000E+00  0.00000000000E+00  0.10000000000E+04  0.10000000000E+04  0.00000000000E+00 0. -1.
          2   -1    0    0  501    0 -0.00000000000E+00 -0.00000000000E+00 -0.10478300270E+03  0.10478300270E+03  0.00000000000E+00 0. -1.
    9000006    2    1    2  501    0  0.00000000000E+00  0.00000000000E+00  0.89521699730E+03  0.11047830027E+04  0.64740405527E+03 0.  0.
         13    1    3    3    0    0  0.23641908220E+03  0.60846182480E+02  0.84858699233E+02  0.25845161866E+03  0.00000000000E+00 0. -1.
          2    1    3    3  501    0 -0.23641908220E+03 -0.60846182480E+02  0.81035829807E+03  0.84633138404E+03  0.00000000000E+00 0. -1.
<mgrwt>
<rscale>  0 0.64740406E+03</rscale>
<asrwt>0</asrwt>
<pdfrwt beam="1">0</pdfrwt>
<pdfrwt beam="2">  1        2 0.38102990E+00 0.64740406E+03</pdfrwt>
<totfact> 0.46867788E+00</totfact>
</mgrwt>
</event>
<event>
 5    1  0.2311484E-004  0.6497013E+03  0.7818608E-02  0.9807340E-01
         13   -1    0    0    0    0  0.00000000000E+00  0.00000000000E+00  0.10000000000E+04  0.10000000000E+04  0.00000000000E+00 0. -1.
          2   -1    0    0  501    0 -0.00000000000E+00 -0.00000000000E+00 -0.10552795781E+03  0.10552795781E+03  0.00000000000E+00 0. -1.
    9000006    2    1    2  501    0  0.00000000000E+00  0.00000000000E+00  0.89447204219E+03  0.11055279578E+04  0.64970134002E+03 0.  0.
         13    1    3    3    0    0  0.16628348607E+03  0.25535636341E+03  0.63877602368E+03  0.70773715354E+03  0.00000000000E+00 0. -1.
          4    1    3    3  501    0 -0.16628348607E+03 -0.25535636341E+03  0.25569601851E+03  0.39779080426E+03  0.00000000000E+00 0. -1.
<mgrwt>
<rscale>  0 0.64970134E+03</rscale>
<asrwt>0</asrwt>
<pdfrwt beam="1">0</pdfrwt>
<pdfrwt beam="2">  1        2 0.38373884E+00 0.64970134E+03</pdfrwt>
<totfact> 0.45791332E+00</totfact>
</mgrwt>
</event>
<event>
 5    1  0.2311484E-004  0.6510724E+03  0.7818608E-02  0.9804769E-01
         13   -1    0    0    0    0  0.00000000000E+00  0.00000000000E+00  0.10000000000E+04  0.10000000000E+04  0.00000000000E+00 0. -1.
          2   -1    0    0  501    0 -0.00000000000E+00 -0.00000000000E+00 -0.10597382906E+03  0.10597382906E+03  0.00000000000E+00 0. -1.
    9000006    2    1    2  501    0  0.00000000000E+00  0.00000000000E+00  0.89402617094E+03  0.11059738291E+04  0.65107243548E+03 0.  0.
         13    1    3    3    0    0 -0.13811950324E+03 -0.18904009775E+03  0.83123635837E+03  0.86357804465E+03  0.00000000000E+00 0. -1.
          2    1    3    3  501    0  0.13811950324E+03  0.18904009775E+03  0.62789812573E+02  0.24239578441E+03  0.00000000000E+00 0. -1.
<mgrwt>
<rscale>  0 0.65107244E+03</rscale>
<asrwt>0</asrwt>
<pdfrwt beam="1">0</pdfrwt>
<pdfrwt beam="2">  1        2 0.38536019E+00 0.65107244E+03</pdfrwt>
<totfact> 0.45157838E+00</totfact>
</mgrwt>
</event>
<event>
 5    1  0.2311484E-004  0.6543923E+03  0.7818608E-02  0.9798572E-01
         13   -1    0    0    0    0  0.00000000000E+00  0.00000000000E+00  0.10000000000E+04  0.10000000000E+04  0.00000000000E+00 0. -1.
          2   -1    0    0  501    0 -0.00000000000E+00 -0.00000000000E+00 -0.10705732981E+03  0.10705732981E+03  0.00000000000E+00 0. -1.
    9000006    2    1    2  501    0  0.00000000000E+00  0.00000000000E+00  0.89294267019E+03  0.11070573298E+04  0.65439232821E+03 0.  0.
         13    1    3    3    0    0 -0.25128359880E+03  0.16525226995E+03  0.22847017378E+03  0.37769085249E+03  0.00000000000E+00 0. -1.
          4    1    3    3  501    0  0.25128359880E+03 -0.16525226995E+03  0.66447249641E+03  0.72936647732E+03  0.00000000000E+00 0. -1.
<mgrwt>
<rscale>  0 0.65439233E+03</rscale>
<asrwt>0</asrwt>
<pdfrwt beam="1">0</pdfrwt>
<pdfrwt beam="2">  1        2 0.38930020E+00 0.65439233E+03</pdfrwt>
<totfact> 0.43651357E+00</totfact>
</mgrwt>
</event>
<event>
 5    1  0.2311484E-004  0.6259283E+03  0.7818608E-02  0.9853027E-01
         13   -1    0    0    0    0  0.00000000000E+00  0.00000000000E+00  0.10000000000E+04  0.10000000000E+04  0.00000000000E+00 0. -1.
          2   -1    0    0  501    0 -0.00000000000E+00 -0.00000000000E+00 -0.97946545913E+02  0.97946545913E+02  0.00000000000E+00 0. -1.
    9000006    2    1    2  501    0  0.00000000000E+00  0.00000000000E+00  0.90205345409E+03  0.10979465459E+04  0.62592825759E+03 0.  0.
         13    1    3    3    0    0 -0.29446981148E+03 -0.84786504045E+02  0.33946034862E+03  0.45731231060E+03  0.00000000000E+00 0. -1.
          2    1    3    3  501    0  0.29446981148E+03  0.84786504045E+02  0.56259310546E+03  0.64063423531E+03  0.00000000000E+00 0. -1.
<mgrwt>
<rscale>  0 0.62592826E+03</rscale>
<asrwt>0</asrwt>
<pdfrwt beam="1">0</pdfrwt>
<pdfrwt beam="2">  1        2 0.35617001E+00 0.62592826E+03</pdfrwt>
<totfact> 0.57884367E+00</totfact>
</mgrwt>
</event>
<event>
 5    1  0.2311484E-004  0.6480765E+03  0.7818608E-02  0.9810395E-01
         13   -1    0    0    0    0  0.00000000000E+00  0.00000000000E+00  0.10000000000E+04  0.10000000000E+04  0.00000000000E+00 0. -1.
          2   -1    0    0  501    0 -0.00000000000E+00 -0.00000000000E+00 -0.10500078401E+03  0.10500078401E+03  0.00000000000E+00 0. -1.
    9000006    2    1    2  501    0  0.00000000000E+00  0.00000000000E+00  0.89499921599E+03  0.11050007840E+04  0.64807648936E+03 0.  0.
         13    1    3    3    0    0  0.12121245173E+03 -0.22337163658E+03  0.79026677570E+03  0.83012584785E+03  0.00000000000E+00 0. -1.
          2    1    3    3  501    0 -0.12121245173E+03  0.22337163658E+03  0.10473244028E+03  0.27487493616E+03  0.00000000000E+00 0. -1.
<mgrwt>
<rscale>  0 0.64807649E+03</rscale>
<asrwt>0</asrwt>
<pdfrwt beam="1">0</pdfrwt>
<pdfrwt beam="2">  1        2 0.38182184E+00 0.64807649E+03</pdfrwt>
<totfact> 0.46550742E+00</totfact>
</mgrwt>
</event>
<event>
 5    1  0.2311484E-004  0.6444391E+03  0.7818608E-02  0.9817270E-01
         13   -1    0    0    0    0  0.00000000000E+00  0.00000000000E+00  0.10000000000E+04  0.10000000000E+04  0.00000000000E+00 0. -1.
          2   -1    0    0  501    0 -0.00000000000E+00 -0.00000000000E+00 -0.10382542896E+03  0.10382542896E+03  0.00000000000E+00 0. -1.
    9000006    2    1    2  501    0  0.00000000000E+00  0.00000000000E+00  0.89617457104E+03  0.11038254290E+04  0.64443907070E+03 0.  0.
         13    1    3    3    0    0 -0.14100832933E+03 -0.18753151567E+03  0.69807820278E+02  0.24479491433E+03  0.00000000000E+00 0. -1.
          2    1    3    3  501    0  0.14100832933E+03  0.18753151567E+03  0.82636675076E+03  0.85903051463E+03  0.00000000000E+00 0. -1.
<mgrwt>
<rscale>  0 0.64443907E+03</rscale>
<asrwt>0</asrwt>
<pdfrwt beam="1">0</pdfrwt>
<pdfrwt beam="2">  1        2 0.37754781E+00 0.64443907E+03</pdfrwt>
<totfact> 0.48285273E+00</totfact>
</mgrwt>
</event>
<event>
 5    1  0.2311484E-004  0.6520582E+03  0.7818608E-02  0.9802925E-01
         13   -1    0    0    0    0  0.00000000000E+00  0.00000000000E+00  0.10000000000E+04  0.10000000000E+04  0.00000000000E+00 0. -1.
          2   -1    0    0  501    0 -0.00000000000E+00 -0.00000000000E+00 -0.10629498031E+03  0.10629498031E+03  0.00000000000E+00 0. -1.
    9000006    2    1    2  501    0  0.00000000000E+00  0.00000000000E+00  0.89370501969E+03  0.11062949803E+04  0.65205821921E+03 0.  0.
         13    1    3    3    0    0 -0.10598516604E+03 -0.23241356034E+03  0.79058478759E+03  0.83082683203E+03  0.00000000000E+00 0. -1.
          2    1    3    3  501    0  0.10598516604E+03  0.23241356034E+03  0.10312023210E+03  0.27546814828E+03  0.00000000000E+00 0. -1.
<mgrwt>
<rscale>  0 0.65205822E+03</rscale>
<asrwt>0</asrwt>
<pdfrwt beam="1">0</pdfrwt>
<pdfrwt beam="2">  1        2 0.38652802E+00 0.65205822E+03</pdfrwt>
<totfact> 0.44706480E+00</totfact>
</mgrwt>
</event>
<event>
 5    1  0.2311484E-004  0.6454610E+03  0.7818608E-02  0.9815334E-01
         13   -1    0    0    0    0  0.00000000000E+00  0.00000000000E+00  0.10000000000E+04  0.10000000000E+04  0.00000000000E+00 0. -1.
          2   -1    0    0  501    0 -0.00000000000E+00 -0.00000000000E+00 -0.10415497006E+03  0.10415497006E+03  0.00000000000E+00 0. -1.
    9000006    2    1    2  501    0  0.00000000000E+00  0.00000000000E+00  0.89584502994E+03  0.11041549701E+04  0.64546098274E+03 0.  0.
         13    1    3    3    0    0  0.48460486741E+02 -0.23224668917E+03  0.73654426681E+02  0.24841883579E+03  0.00000000000E+00 0. -1.
          4    1    3    3  501    0 -0.48460486741E+02  0.23224668917E+03  0.82219060326E+03  0.85573613427E+03  0.00000000000E+00 0. -1.
<mgrwt>
<rscale>  0 0.64546098E+03</rscale>
<asrwt>0</asrwt>
<pdfrwt beam="1">0</pdfrwt>
<pdfrwt beam="2">  1        2 0.37874614E+00 0.64546098E+03</pdfrwt>
<totfact> 0.47793111E+00</totfact>
</mgrwt>
</event>
<event>
 5    1  0.2311484E-004  0.6519936E+03  0.7818608E-02  0.9803046E-01
         13   -1    0    0    0    0  0.00000000000E+00  0.00000000000E+00  0.10000000000E+04  0.10000000000E+04  0.00000000000E+00 0. -1.
          2   -1    0    0  501    0 -0.00000000000E+00 -0.00000000000E+00 -0.10627391397E+03  0.10627391397E+03  0.00000000000E+00 0. -1.
    9000006    2    1    2  501    0  0.00000000000E+00  0.00000000000E+00  0.89372608603E+03  0.11062739140E+04  0.65199360110E+03 0.  0.
         13    1    3    3    0    0 -0.24460322555E+03  0.21414010291E+03  0.48797891743E+03  0.58635325997E+03  0.00000000000E+00 0. -1.
          2    1    3    3  501    0  0.24460322555E+03 -0.21414010291E+03  0.40574716860E+03  0.51992065400E+03  0.00000000000E+00 0. -1.
<mgrwt>
<rscale>  0 0.65199360E+03</rscale>
<asrwt>0</asrwt>
<pdfrwt beam="1">0</pdfrwt>
<pdfrwt beam="2">  1        2 0.38645141E+00 0.65199360E+03</pdfrwt>
<totfact> 0.44735961E+00</totfact>
</mgrwt>
</event>
<event>
 5    1  0.2311484E-004  0.6525783E+03  0.7818608E-02  0.9801953E-01
         13   -1    0    0    0    0  0.00000000000E+00  0.00000000000E+00  0.10000000000E+04  0.10000000000E+04  0.00000000000E+00 0. -1.
          2   -1    0    0  501    0 -0.00000000000E+00 -0.00000000000E+00 -0.10646461393E+03  0.10646461393E+03  0.00000000000E+00 0. -1.
    9000006    2    1    2  501    0  0.00000000000E+00  0.00000000000E+00  0.89353538607E+03  0.11064646139E+04  0.65257831385E+03 0.  0.
         13    1    3    3    0    0 -0.14373809024E+03  0.22770011955E+03  0.13432729041E+03  0.30091826794E+03  0.00000000000E+00 0. -1.
          2    1    3    3  501    0  0.14373809024E+03 -0.22770011955E+03  0.75920809566E+03  0.80554634599E+03  0.00000000000E+00 0. -1.
<mgrwt>
<rscale>  0 0.65257831E+03</rscale>
<asrwt>0</asrwt>
<pdfrwt beam="1">0</pdfrwt>
<pdfrwt beam="2">  1        2 0.38714487E+00 0.65257831E+03</pdfrwt>
<totfact> 0.44469723E+00</totfact>
</mgrwt>
</event>
<event>
 5    1  0.2311484E-004  0.6648309E+03  0.7818608E-02  0.9779341E-01
         13   -1    0    0    0    0  0.00000000000E+00  0.00000000000E+00  0.10000000000E+04  0.10000000000E+04  0.00000000000E+00 0. -1.
          2   -1    0    0  501    0 -0.00000000000E+00 -0.00000000000E+00 -0.11050004205E+03  0.11050004205E+03  0.00000000000E+00 0. -1.
    9000006    2    1    2  501    0  0.00000000000E+00  0.00000000000E+00  0.88949995795E+03  0.11105000421E+04  0.66483093206E+03 0.  0.
         13    1    3    3    0    0 -0.13253230659E+02 -0.32724024351E+03  0.34969818162E+03  0.47911443657E+03  0.00000000000E+00 0. -1.
          4    1    3    3  501    0  0.13253230659E+02  0.32724024351E+03  0.53980177632E+03  0.63138560549E+03  0.00000000000E+00 0. -1.
<mgrwt>
<rscale>  0 0.66483093E+03</rscale>
<asrwt>0</asrwt>
<pdfrwt beam="1">0</pdfrwt>
<pdfrwt beam="2">  1        2 0.40181918E+00 0.66483093E+03</pdfrwt>
<totfact> 0.39161029E+00</totfact>
</mgrwt>
</event>
<event>
 5    1  0.2311484E-004  0.6476971E+03  0.7818608E-02  0.9811110E-01
         13   -1    0    0    0    0  0.00000000000E+00  0.00000000000E+00  0.10000000000E+04  0.10000000000E+04  0.00000000000E+00 0. -1.
          2   -1    0    0  501    0 -0.00000000000E+00 -0.00000000000E+00 -0.10487789746E+03  0.10487789746E+03  0.00000000000E+00 0. -1.
    9000006    2    1    2  501    0  0.00000000000E+00  0.00000000000E+00  0.89512210254E+03  0.11048778975E+04  0.64769714360E+03 0.  0.
         13    1    3    3    0    0  0.27705892045E+03  0.15434788960E+03  0.55933016032E+03  0.64298922593E+03  0.00000000000E+00 0. -1.
          2    1    3    3  501    0 -0.27705892045E+03 -0.15434788960E+03  0.33579194223E+03  0.46188867153E+03  0.00000000000E+00 0. -1.
<mgrwt>
<rscale>  0 0.64769714E+03</rscale>
<asrwt>0</asrwt>
<pdfrwt beam="1">0</pdfrwt>
<pdfrwt beam="2">  1        2 0.38137498E+00 0.64769714E+03</pdfrwt>
<totfact> 0.46729400E+00</totfact>
</mgrwt>
</event>
<event>
 5    1  0.2311484E-004  0.6661333E+03  0.7818608E-02  0.9776968E-01
         13   -1    0    0    0    0  0.00000000000E+00  0.00000000000E+00  0.10000000000E+04  0.10000000000E+04  0.00000000000E+00 0. -1.
          2   -1    0    0  501    0 -0.00000000000E+00 -0.00000000000E+00 -0.11093339977E+03  0.11093339977E+03  0.00000000000E+00 0. -1.
    9000006    2    1    2  501    0  0.00000000000E+00  0.00000000000E+00  0.88906660023E+03  0.11109333998E+04  0.66613331929E+03 0.  0.
         13    1    3    3    0    0  0.91640364534E+02  0.17194767586E+03  0.89503597474E+03  0.91599855661E+03  0.00000000000E+00 0. -1.
          4    1    3    3  501    0 -0.91640364534E+02 -0.17194767586E+03 -0.59693745055E+01  0.19493484316E+03  0.00000000000E+00 0. -1.
<mgrwt>
<rscale>  0 0.66613332E+03</rscale>
<asrwt>0</asrwt>
<pdfrwt beam="1">0</pdfrwt>
<pdfrwt beam="2">  1        2 0.40339503E+00 0.66613332E+03</pdfrwt>
<totfact> 0.38626308E+00</totfact>
</mgrwt>
</event>
<event>
 5    1  0.2311484E-004  0.6491905E+03  0.7818608E-02  0.9808299E-01
         13   -1    0    0    0    0  0.00000000000E+00  0.00000000000E+00  0.10000000000E+04  0.10000000000E+04  0.00000000000E+00 0. -1.
          2   -1    0    0  501    0 -0.00000000000E+00 -0.00000000000E+00 -0.10536207519E+03  0.10536207519E+03  0.00000000000E+00 0. -1.
    9000006    2    1    2  501    0  0.00000000000E+00  0.00000000000E+00  0.89463792481E+03  0.11053620752E+04  0.64919049652E+03 0.  0.
         13    1    3    3    0    0 -0.31147732749E+03  0.48241492468E+02  0.31524662136E+03  0.44578671965E+03  0.00000000000E+00 0. -1.
          2    1    3    3  501    0  0.31147732749E+03 -0.48241492468E+02  0.57939130344E+03  0.65957535555E+03  0.00000000000E+00 0. -1.
<mgrwt>
<rscale>  0 0.64919050E+03</rscale>
<asrwt>0</asrwt>
<pdfrwt beam="1">0</pdfrwt>
<pdfrwt beam="2">  1        2 0.38313563E+00 0.64919050E+03</pdfrwt>
<totfact> 0.46029069E+00</totfact>
</mgrwt>
</event>
<event>
 5    1  0.2311484E-004  0.6491314E+03  0.7818608E-02  0.9808410E-01
         13   -1    0    0    0    0  0.00000000000E+00  0.00000000000E+00  0.10000000000E+04  0.10000000000E+04  0.00000000000E+00 0. -1.
          2   -1    0    0  501    0 -0.00000000000E+00 -0.00000000000E+00 -0.10534290872E+03  0.10534290872E+03  0.00000000000E+00 0. -1.
    9000006    2    1    2  501    0  0.00000000000E+00  0.00000000000E+00  0.89465709128E+03  0.11053429087E+04  0.64913144654E+03 0.  0.
         13    1    3    3    0    0  0.14583777291E+03  0.28416814949E+03  0.54548321433E+03  0.63211718083E+03  0.00000000000E+00 0. -1.
          2    1    3    3  501    0 -0.14583777291E+03 -0.28416814949E+03  0.34917387695E+03  0.47322572789E+03  0.00000000000E+00 0. -1.
<mgrwt>
<rscale>  0 0.64913145E+03</rscale>
<asrwt>0</asrwt>
<pdfrwt beam="1">0</pdfrwt>
<pdfrwt beam="2">  1        2 0.38306593E+00 0.64913145E+03</pdfrwt>
<totfact> 0.46056610E+00</totfact>
</mgrwt>
</event>
<event>
 5    1  0.2311484E-004  0.6506643E+03  0.7818608E-02  0.9805533E-01
         13   -1    0    0    0    0  0.00000000000E+00  0.00000000000E+00  0.10000000000E+04  0.10000000000E+04  0.00000000000E+00 0. -1.
          2   -1    0    0  501    0 -0.00000000000E+00 -0.00000000000E+00 -0.10584101579E+03  0.10584101579E+03  0.00000000000E+00 0. -1.
    9000006    2    1    2  501    0  0.00000000000E+00  0.00000000000E+00  0.89415898421E+03  0.11058410158E+04  0.65066432448E+03 0.  0.
         13    1    3    3    0    0 -0.32438555775E+03  0.19002099976E+02  0.47416308688E+03  0.57481971333E+03  0.00000000000E+00 0. -1.
          4    1    3    3  501    0  0.32438555775E+03 -0.19002099976E+02  0.41999589734E+03  0.53102130245E+03  0.00000000000E+00 0. -1.
<mgrwt>
<rscale>  0 0.65066432E+03</rscale>
<asrwt>0</asrwt>
<pdfrwt beam="1">0</pdfrwt>
<pdfrwt beam="2">  1        2 0.38487723E+00 0.65066432E+03</pdfrwt>
<totfact> 0.45345703E+00</totfact>
</mgrwt>
</event>
<event>
 5    1  0.2311484E-004  0.6531907E+03  0.7818608E-02  0.9800810E-01
         13   -1    0    0    0    0  0.00000000000E+00  0.00000000000E+00  0.10000000000E+04  0.10000000000E+04  0.00000000000E+00 0. -1.
          2   -1    0    0  501    0 -0.00000000000E+00 -0.00000000000E+00 -0.10666452139E+03  0.10666452139E+03  0.00000000000E+00 0. -1.
    9000006    2    1    2  501    0  0.00000000000E+00  0.00000000000E+00  0.89333547861E+03  0.11066645214E+04  0.65319069616E+03 0.  0.
         13    1    3    3    0    0 -0.29131208882E+02  0.19098476047E+03  0.52877398689E+00  0.19319442451E+03  0.00000000000E+00 0. -1.
          4    1    3    3  501    0  0.29131208882E+02 -0.19098476047E+03  0.89280670462E+03  0.91347009687E+03  0.00000000000E+00 0. -1.
<mgrwt>
<rscale>  0 0.65319070E+03</rscale>
<asrwt>0</asrwt>
<pdfrwt beam="1">0</pdfrwt>
<pdfrwt beam="2">  1        2 0.38787180E+00 0.65319070E+03</pdfrwt>
<totfact> 0.44192171E+00</totfact>
</mgrwt>
</event>
<event>
 5    1  0.2311484E-004  0.6589166E+03  0.7818608E-02  0.9790190E-01
         13   -1    0    0    0    0  0.00000000000E+00  0.00000000000E+00  0.10000000000E+04  0.10000000000E+04  0.00000000000E+00 0. -1.
          2   -1    0    0  501    0 -0.00000000000E+00 -0.00000000000E+00 -0.10854276765E+03  0.10854276765E+03  0.00000000000E+00 0. -1.
    9000006    2    1    2  501    0  0.00000000000E+00  0.00000000000E+00  0.89145723235E+03  0.11085427677E+04  0.65891658851E+03 0.  0.
         13    1    3    3    0    0 -0.11788491164E+03  0.18775455970E+03  0.35719216835E+02  0.22455397911E+03  0.00000000000E+00 0. -1.
          4    1    3    3  501    0  0.11788491164E+03 -0.18775455970E+03  0.85573801551E+03  0.88398878855E+03  0.00000000000E+00 0. -1.
<mgrwt>
<rscale>  0 0.65891659E+03</rscale>
<asrwt>0</asrwt>
<pdfrwt beam="1">0</pdfrwt>
<pdfrwt beam="2">  1        2 0.39470181E+00 0.65891659E+03</pdfrwt>
<totfact> 0.41659874E+00</totfact>
</mgrwt>
</event>
<event>
 5    1  0.2311484E-004  0.6585430E+03  0.7818608E-02  0.9790880E-01
         13   -1    0    0    0    0  0.00000000000E+00  0.00000000000E+00  0.10000000000E+04  0.10000000000E+04  0.00000000000E+00 0. -1.
          2   -1    0    0  501    0 -0.00000000000E+00 -0.00000000000E+00 -0.10841971862E+03  0.10841971862E+03  0.00000000000E+00 0. -1.
    9000006    2    1    2  501    0  0.00000000000E+00  0.00000000000E+00  0.89158028138E+03  0.11084197186E+04  0.65854299366E+03 0.  0.
         13    1    3    3    0    0 -0.17406297938E+03 -0.41708140024E+02 -0.19384759645E+02  0.18003682579E+03  0.00000000000E+00 0. -1.
          2    1    3    3  501    0  0.17406297938E+03  0.41708140024E+02  0.91096504102E+03  0.92838289283E+03  0.00000000000E+00 0. -1.
<mgrwt>
<rscale>  0 0.65854299E+03</rscale>
<asrwt>0</asrwt>
<pdfrwt beam="1">0</pdfrwt>
<pdfrwt beam="2">  1        2 0.39425435E+00 0.65854299E+03</pdfrwt>
<totfact> 0.41821660E+00</totfact>
</mgrwt>
</event>
<event>
 5    1  0.2311484E-004  0.6482277E+03  0.7818608E-02  0.9810111E-01
         13   -1    0    0    0    0  0.00000000000E+00  0.00000000000E+00  0.10000000000E+04  0.10000000000E+04  0.00000000000E+00 0. -1.
          2   -1    0    0  501    0 -0.00000000000E+00 -0.00000000000E+00 -0.10504977453E+03  0.10504977453E+03  0.00000000000E+00 0. -1.
    9000006    2    1    2  501    0  0.00000000000E+00  0.00000000000E+00  0.89495022547E+03  0.11050497745E+04  0.64822765918E+03 0.  0.
         13    1    3    3    0    0 -0.20608037994E+03 -0.24806684466E+03  0.39240716804E+03  0.50792683326E+03  0.00000000000E+00 0. -1.
          4    1    3    3  501    0  0.20608037994E+03  0.24806684466E+03  0.50254305743E+03  0.59712294127E+03  0.00000000000E+00 0. -1.
<mgrwt>
<rscale>  0 0.64822766E+03</rscale>
<asrwt>0</asrwt>
<pdfrwt beam="1">0</pdfrwt>
<pdfrwt beam="2">  1        2 0.38199999E+00 0.64822766E+03</pdfrwt>
<totfact> 0.46479691E+00</totfact>
</mgrwt>
</event>
<event>
 5    1  0.2311484E-004  0.6424823E+03  0.7818608E-02  0.9820989E-01
         13   -1    0    0    0    0  0.00000000000E+00  0.00000000000E+00  0.10000000000E+04  0.10000000000E+04  0.00000000000E+00 0. -1.
          2   -1    0    0  501    0 -0.00000000000E+00 -0.00000000000E+00 -0.10319588411E+03  0.10319588411E+03  0.00000000000E+00 0. -1.
    9000006    2    1    2  501    0  0.00000000000E+00  0.00000000000E+00  0.89680411589E+03  0.11031958841E+04  0.64248232382E+03 0.  0.
         13    1    3    3    0    0 -0.24002008026E+03 -0.21304723185E+03  0.42429416850E+03  0.53200028511E+03  0.00000000000E+00 0. -1.
          2    1    3    3  501    0  0.24002008026E+03  0.21304723185E+03  0.47250994739E+03  0.57119559900E+03  0.00000000000E+00 0. -1.
<mgrwt>
<rscale>  0 0.64248232E+03</rscale>
<asrwt>0</asrwt>
<pdfrwt beam="1">0</pdfrwt>
<pdfrwt beam="2">  1        2 0.37525855E+00 0.64248232E+03</pdfrwt>
<totfact> 0.49238364E+00</totfact>
</mgrwt>
</event>
<event>
 5    1  0.2311484E-004  0.6332424E+03  0.7818608E-02  0.9838742E-01
         13   -1    0    0    0    0  0.00000000000E+00  0.00000000000E+00  0.10000000000E+04  0.10000000000E+04  0.00000000000E+00 0. -1.
          2   -1    0    0  501    0 -0.00000000000E+00 -0.00000000000E+00 -0.10024898493E+03  0.10024898493E+03  0.00000000000E+00 0. -1.
    9000006    2    1    2  501    0  0.00000000000E+00  0.00000000000E+00  0.89975101507E+03  0.11002489849E+04  0.63324240201E+03 0.  0.
         13    1    3    3    0    0  0.32708926306E+02 -0.25608673230E+03  0.76835553647E+03  0.81056802228E+03  0.00000000000E+00 0. -1.
          2    1    3    3  501    0 -0.32708926306E+02  0.25608673230E+03  0.13139547860E+03  0.28968096264E+03  0.00000000000E+00 0. -1.
<mgrwt>
<rscale>  0 0.63324240E+03</rscale>
<asrwt>0</asrwt>
<pdfrwt beam="1">0</pdfrwt>
<pdfrwt beam="2">  1        2 0.36454253E+00 0.63324240E+03</pdfrwt>
<totfact> 0.53933305E+00</totfact>
</mgrwt>
</event>
<event>
 5    1  0.2311484E-004  0.5799676E+03  0.7818608E-02  0.9947861E-01
         13   -1    0    0    0    0  0.00000000000E+00  0.00000000000E+00  0.10000000000E+04  0.10000000000E+04  0.00000000000E+00 0. -1.
          2   -1    0    0  501    0 -0.00000000000E+00 -0.00000000000E+00 -0.84090611900E+02  0.84090611900E+02  0.00000000000E+00 0. -1.
    9000006    2    1    2  501    0  0.00000000000E+00  0.00000000000E+00  0.91590938810E+03  0.10840906119E+04  0.57996762634E+03 0.  0.
         13    1    3    3    0    0 -0.22322493873E+03  0.15195196738E+03  0.26038326057E+03  0.37512426747E+03  0.00000000000E+00 0. -1.
          2    1    3    3  501    0  0.22322493873E+03 -0.15195196738E+03  0.65552612753E+03  0.70896634443E+03  0.00000000000E+00 0. -1.
<mgrwt>
<rscale>  0 0.57996763E+03</rscale>
<asrwt>0</asrwt>
<pdfrwt beam="1">0</pdfrwt>
<pdfrwt beam="2">  1        2 0.30578469E+00 0.57996763E+03</pdfrwt>
<totfact> 0.88028742E+00</totfact>
</mgrwt>
</event>
<event>
 5    1  0.2311484E-004  0.6567366E+03  0.7818608E-02  0.9794220E-01
         13   -1    0    0    0    0  0.00000000000E+00  0.00000000000E+00  0.10000000000E+04  0.10000000000E+04  0.00000000000E+00 0. -1.
          2   -1    0    0  501    0 -0.00000000000E+00 -0.00000000000E+00 -0.10782575052E+03  0.10782575052E+03  0.00000000000E+00 0. -1.
    9000006    2    1    2  501    0  0.00000000000E+00  0.00000000000E+00  0.89217424948E+03  0.11078257505E+04  0.65673663067E+03 0.  0.
         13    1    3    3    0    0  0.23601516313E+03 -0.22827168088E+03  0.43963434466E+03  0.54871620582E+03  0.00000000000E+00 0. -1.
          2    1    3    3  501    0 -0.23601516313E+03  0.22827168088E+03  0.45253990482E+03  0.55910954470E+03  0.00000000000E+00 0. -1.
<mgrwt>
<rscale>  0 0.65673663E+03</rscale>
<asrwt>0</asrwt>
<pdfrwt beam="1">0</pdfrwt>
<pdfrwt beam="2">  1        2 0.39209447E+00 0.65673663E+03</pdfrwt>
<totfact> 0.42610667E+00</totfact>
</mgrwt>
</event>
<event>
 5    1  0.2311484E-004  0.6484493E+03  0.7818608E-02  0.9809693E-01
         13   -1    0    0    0    0  0.00000000000E+00  0.00000000000E+00  0.10000000000E+04  0.10000000000E+04  0.00000000000E+00 0. -1.
          2   -1    0    0  501    0 -0.00000000000E+00 -0.00000000000E+00 -0.10512162618E+03  0.10512162618E+03  0.00000000000E+00 0. -1.
    9000006    2    1    2  501    0  0.00000000000E+00  0.00000000000E+00  0.89487837382E+03  0.11051216262E+04  0.64844930775E+03 0.  0.
         13    1    3    3    0    0  0.96349299765E+02  0.19106590765E+03  0.86256475543E+03  0.88871104750E+03  0.00000000000E+00 0. -1.
          4    1    3    3  501    0 -0.96349299765E+02 -0.19106590765E+03  0.32313618389E+02  0.21641057868E+03  0.00000000000E+00 0. -1.
<mgrwt>
<rscale>  0 0.64844931E+03</rscale>
<asrwt>0</asrwt>
<pdfrwt beam="1">0</pdfrwt>
<pdfrwt beam="2">  1        2 0.38226126E+00 0.64844931E+03</pdfrwt>
<totfact> 0.46375662E+00</totfact>
</mgrwt>
</event>
<event>
 5    1  0.2311484E-004  0.6552293E+03  0.7818608E-02  0.9797016E-01
         13   -1    0    0    0    0  0.00000000000E+00  0.00000000000E+00  0.10000000000E+04  0.10000000000E+04  0.00000000000E+00 0. -1.
          2   -1    0    0  501    0 -0.00000000000E+00 -0.00000000000E+00 -0.10733136783E+03  0.10733136783E+03  0.00000000000E+00 0. -1.
    9000006    2    1    2  501    0  0.00000000000E+00  0.00000000000E+00  0.89266863217E+03  0.11073313678E+04  0.65522932727E+03 0.  0.
         13    1    3    3    0    0  0.48214476608E+02  0.16221470047E+03 -0.27746809655E+02  0.17148798865E+03  0.00000000000E+00 0. -1.
          4    1    3    3  501    0 -0.48214476608E+02 -0.16221470047E+03  0.92041544183E+03  0.93584337918E+03  0.00000000000E+00 0. -1.
<mgrwt>
<rscale>  0 0.65522933E+03</rscale>
<asrwt>0</asrwt>
<pdfrwt beam="1">0</pdfrwt>
<pdfrwt beam="2">  1        2 0.39029671E+00 0.65522933E+03</pdfrwt>
<totfact> 0.43277616E+00</totfact>
</mgrwt>
</event>
<event>
 5    1  0.2311484E-004  0.6449735E+03  0.7818608E-02  0.9816257E-01
         13   -1    0    0    0    0  0.00000000000E+00  0.00000000000E+00  0.10000000000E+04  0.10000000000E+04  0.00000000000E+00 0. -1.
          2   -1    0    0  501    0 -0.00000000000E+00 -0.00000000000E+00 -0.10399770165E+03  0.10399770165E+03  0.00000000000E+00 0. -1.
    9000006    2    1    2  501    0  0.00000000000E+00  0.00000000000E+00  0.89600229835E+03  0.11039977017E+04  0.64497349295E+03 0.  0.
         13    1    3    3    0    0 -0.16029339783E+03 -0.36414860880E+01  0.92694074901E+03  0.94070525989E+03  0.00000000000E+00 0. -1.
          2    1    3    3  501    0  0.16029339783E+03  0.36414860880E+01 -0.30938450661E+02  0.16329244176E+03  0.00000000000E+00 0. -1.
<mgrwt>
<rscale>  0 0.64497349E+03</rscale>
<asrwt>0</asrwt>
<pdfrwt beam="1">0</pdfrwt>
<pdfrwt beam="2">  1        2 0.37817426E+00 0.64497349E+03</pdfrwt>
<totfact> 0.48027415E+00</totfact>
</mgrwt>
</event>
<event>
 5    1  0.2311484E-004  0.6799831E+03  0.7818608E-02  0.9752090E-01
         13   -1    0    0    0    0  0.00000000000E+00  0.00000000000E+00  0.10000000000E+04  0.10000000000E+04  0.00000000000E+00 0. -1.
          2   -1    0    0  501    0 -0.00000000000E+00 -0.00000000000E+00 -0.11559424431E+03  0.11559424431E+03  0.00000000000E+00 0. -1.
    9000006    2    1    2  501    0  0.00000000000E+00  0.00000000000E+00  0.88440575569E+03  0.11155942443E+04  0.67998307128E+03 0.  0.
         13    1    3    3    0    0  0.14441737189E+03 -0.29802773075E+03  0.31599938386E+03  0.45774721867E+03  0.00000000000E+00 0. -1.
          2    1    3    3  501    0 -0.14441737189E+03  0.29802773075E+03  0.56840637183E+03  0.65784702564E+03  0.00000000000E+00 0. -1.
<mgrwt>
<rscale>  0 0.67998307E+03</rscale>
<asrwt>0</asrwt>
<pdfrwt beam="1">0</pdfrwt>
<pdfrwt beam="2">  1        2 0.42034359E+00 0.67998307E+03</pdfrwt>
<totfact> 0.33274175E+00</totfact>
</mgrwt>
</event>
<event>
 5    1  0.2311484E-004  0.6513398E+03  0.7818608E-02  0.9804268E-01
         13   -1    0    0    0    0  0.00000000000E+00  0.00000000000E+00  0.10000000000E+04  0.10000000000E+04  0.00000000000E+00 0. -1.
          2   -1    0    0  501    0 -0.00000000000E+00 -0.00000000000E+00 -0.10606087045E+03  0.10606087045E+03  0.00000000000E+00 0. -1.
    9000006    2    1    2  501    0  0.00000000000E+00  0.00000000000E+00  0.89393912955E+03  0.11060608705E+04  0.65133975912E+03 0.  0.
         13    1    3    3    0    0  0.92210136183E+02 -0.23823312390E+03  0.78998860817E+03  0.83026485628E+03  0.00000000000E+00 0. -1.
          2    1    3    3  501    0 -0.92210136183E+02  0.23823312390E+03  0.10395052138E+03  0.27579601417E+03  0.00000000000E+00 0. -1.
<mgrwt>
<rscale>  0 0.65133976E+03</rscale>
<asrwt>0</asrwt>
<pdfrwt beam="1">0</pdfrwt>
<pdfrwt beam="2">  1        2 0.38567671E+00 0.65133976E+03</pdfrwt>
<totfact> 0.45035100E+00</totfact>
</mgrwt>
</event>
<event>
 5    1  0.2311484E-004  0.6397901E+03  0.7818608E-02  0.9826128E-01
         13   -1    0    0    0    0  0.00000000000E+00  0.00000000000E+00  0.10000000000E+04  0.10000000000E+04  0.00000000000E+00 0. -1.
          2   -1    0    0  501    0 -0.00000000000E+00 -0.00000000000E+00 -0.10233284872E+03  0.10233284872E+03  0.00000000000E+00 0. -1.
    9000006    2    1    2  501    0  0.00000000000E+00  0.00000000000E+00  0.89766715128E+03  0.11023328487E+04  0.63979011784E+03 0.  0.
         13    1    3    3    0    0  0.16112052834E+02 -0.18593738490E+03  0.11936209370E+01  0.18663797599E+03  0.00000000000E+00 0. -1.
          2    1    3    3  501    0 -0.16112052834E+02  0.18593738490E+03  0.89647353034E+03  0.91569487273E+03  0.00000000000E+00 0. -1.
<mgrwt>
<rscale>  0 0.63979012E+03</rscale>
<asrwt>0</asrwt>
<pdfrwt beam="1">0</pdfrwt>
<pdfrwt beam="2">  1        2 0.37212023E+00 0.63979012E+03</pdfrwt>
<totfact> 0.50572988E+00</totfact>
</mgrwt>
</event>
<event>
 5    1  0.2311484E-004  0.6978394E+03  0.7818608E-02  0.9720934E-01
         13   -1    0    0    0    0  0.00000000000E+00  0.00000000000E+00  0.10000000000E+04  0.10000000000E+04  0.00000000000E+00 0. -1.
          2   -1    0    0  501    0 -0.00000000000E+00 -0.00000000000E+00 -0.12174495641E+03  0.12174495641E+03  0.00000000000E+00 0. -1.
    9000006    2    1    2  501    0  0.00000000000E+00  0.00000000000E+00  0.87825504359E+03  0.11217449564E+04  0.69783939817E+03 0.  0.
         13    1    3    3    0    0 -0.15857766054E+03  0.48339416433E+02  0.93264841572E+03  0.94726798792E+03  0.00000000000E+00 0. -1.
          4    1    3    3  501    0  0.15857766054E+03 -0.48339416433E+02 -0.54393372125E+02  0.17447696849E+03  0.00000000000E+00 0. -1.
<mgrwt>
<rscale>  0 0.69783940E+03</rscale>
<asrwt>0</asrwt>
<pdfrwt beam="1">0</pdfrwt>
<pdfrwt beam="2">  1        2 0.44270987E+00 0.69783940E+03</pdfrwt>
<totfact> 0.27221639E+00</totfact>
</mgrwt>
</event>
<event>
 5    1  0.2311484E-004  0.6455359E+03  0.7818608E-02  0.9815192E-01
         13   -1    0    0    0    0  0.00000000000E+00  0.00000000000E+00  0.10000000000E+04  0.10000000000E+04  0.00000000000E+00 0. -1.
          2   -1    0    0  501    0 -0.00000000000E+00 -0.00000000000E+00 -0.10417915640E+03  0.10417915640E+03  0.00000000000E+00 0. -1.
    9000006    2    1    2  501    0  0.00000000000E+00  0.00000000000E+00  0.89582084360E+03  0.11041791564E+04  0.64553592125E+03 0.  0.
         13    1    3    3    0    0  0.25503947983E+03 -0.29082751210E+02  0.11321352670E+03  0.28054989809E+03  0.00000000000E+00 0. -1.
          4    1    3    3  501    0 -0.25503947983E+03  0.29082751210E+02  0.78260731690E+03  0.82362925832E+03  0.00000000000E+00 0. -1.
<mgrwt>
<rscale>  0 0.64553592E+03</rscale>
<asrwt>0</asrwt>
<pdfrwt beam="1">0</pdfrwt>
<pdfrwt beam="2">  1        2 0.37883409E+00 0.64553592E+03</pdfrwt>
<totfact> 0.47757170E+00</totfact>
</mgrwt>
</event>
<event>
 5    1  0.2311484E-004  0.6496987E+03  0.7818608E-02  0.9807345E-01
         13   -1    0    0    0    0  0.00000000000E+00  0.00000000000E+00  0.10000000000E+04  0.10000000000E+04  0.00000000000E+00 0. -1.
          2   -1    0    0  501    0 -0.00000000000E+00 -0.00000000000E+00 -0.10552711346E+03  0.10552711346E+03  0.00000000000E+00 0. -1.
    9000006    2    1    2  501    0  0.00000000000E+00  0.00000000000E+00  0.89447288654E+03  0.11055271135E+04  0.64969874084E+03 0.  0.
         13    1    3    3    0    0  0.11340445475E+03  0.26252105202E+02 -0.68820786803E+02  0.13522590019E+03  0.00000000000E+00 0. -1.
          4    1    3    3  501    0 -0.11340445475E+03 -0.26252105202E+02  0.96329367334E+03  0.97030121327E+03  0.00000000000E+00 0. -1.
<mgrwt>
<rscale>  0 0.64969874E+03</rscale>
<asrwt>0</asrwt>
<pdfrwt beam="1">0</pdfrwt>
<pdfrwt beam="2">  1        2 0.38373577E+00 0.64969874E+03</pdfrwt>
<totfact> 0.45792540E+00</totfact>
</mgrwt>
</event>
<event>
 5    1  0.2311484E-004  0.6521900E+03  0.7818608E-02  0.9802678E-01
         13   -1    0    0    0    0  0.00000000000E+00  0.00000000000E+00  0.10000000000E+04  0.10000000000E+04  0.00000000000E+00 0. -1.
          2   -1    0    0  501    0 -0.00000000000E+00 -0.00000000000E+00 -0.10633795921E+03  0.10633795921E+03  0.00000000000E+00 0. -1.
    9000006    2    1    2  501    0  0.00000000000E+00  0.00000000000E+00  0.89366204079E+03  0.11063379592E+04  0.65219003123E+03 0.  0.
         13    1    3    3    0    0  0.12208453180E+03  0.14404563622E+03  0.89782918286E+03  0.91746990131E+03  0.00000000000E+00 0. -1.
          2    1    3    3  501    0 -0.12208453180E+03 -0.14404563622E+03 -0.41671420692E+01  0.18886805790E+03  0.00000000000E+00 0. -1.
<mgrwt>
<rscale>  0 0.65219003E+03</rscale>
<asrwt>0</asrwt>
<pdfrwt beam="1">0</pdfrwt>
<pdfrwt beam="2">  1        2 0.38668430E+00 0.65219003E+03</pdfrwt>
<totfact> 0.44646386E+00</totfact>
</mgrwt>
</event>
<event>
 5    1  0.2311484E-004  0.6520017E+03  0.7818608E-02  0.9803030E-01
         13   -1    0    0    0    0  0.00000000000E+00  0.00000000000E+00  0.10000000000E+04  0.10000000000E+04  0.00000000000E+00 0. -1.
          4   -1    0    0  501    0 -0.00000000000E+00 -0.00000000000E+00 -0.10627655217E+03  0.10627655217E+03  0.00000000000E+00 0. -1.
    9000006    2    1    2  501    0  0.00000000000E+00  0.00000000000E+00  0.89372344783E+03  0.11062765522E+04  0.65200169378E+03 0.  0.
         13    1    3    3    0    0 -0.18867070611E+03 -0.75987652280E+02  0.87913333580E+03  0.90235590581E+03  0.00000000000E+00 0. -1.
          4    1    3    3  501    0  0.18867070611E+03  0.75987652280E+02  0.14590112028E+02  0.20392064636E+03  0.00000000000E+00 0. -1.
<mgrwt>
<rscale>  0 0.65200169E+03</rscale>
<asrwt>0</asrwt>
<pdfrwt beam="1">0</pdfrwt>
<pdfrwt beam="2">  1        4 0.38646100E+00 0.65200169E+03</pdfrwt>
<totfact> 0.39679505E-02</totfact>
</mgrwt>
</event>
<event>
 5    1  0.2311484E-004  0.6509802E+03  0.7818608E-02  0.9804942E-01
         13   -1    0    0    0    0  0.00000000000E+00  0.00000000000E+00  0.10000000000E+04  0.10000000000E+04  0.00000000000E+00 0. -1.
          2   -1    0    0  501    0 -0.00000000000E+00 -0.00000000000E+00 -0.10594379039E+03  0.10594379039E+03  0.00000000000E+00 0. -1.
    9000006    2    1    2  501    0  0.00000000000E+00  0.00000000000E+00  0.89405620961E+03  0.11059437904E+04  0.65098015449E+03 0.  0.
         13    1    3    3    0    0  0.27743227122E+03  0.73605855838E+02  0.18627583847E+03  0.34217711076E+03  0.00000000000E+00 0. -1.
          2    1    3    3  501    0 -0.27743227122E+03 -0.73605855838E+02  0.70778037115E+03  0.76376667963E+03  0.00000000000E+00 0. -1.
<mgrwt>
<rscale>  0 0.65098015E+03</rscale>
<asrwt>0</asrwt>
<pdfrwt beam="1">0</pdfrwt>
<pdfrwt beam="2">  1        2 0.38525096E+00 0.65098015E+03</pdfrwt>
<totfact> 0.45200266E+00</totfact>
</mgrwt>
</event>
<event>
 5    1  0.2311484E-004  0.6647994E+03  0.7818608E-02  0.9779399E-01
         13   -1    0    0    0    0  0.00000000000E+00  0.00000000000E+00  0.10000000000E+04  0.10000000000E+04  0.00000000000E+00 0. -1.
          2   -1    0    0  501    0 -0.00000000000E+00 -0.00000000000E+00 -0.11048956358E+03  0.11048956358E+03  0.00000000000E+00 0. -1.
    9000006    2    1    2  501    0  0.00000000000E+00  0.00000000000E+00  0.88951043642E+03  0.11104895636E+04  0.66479940908E+03 0.  0.
         13    1    3    3    0    0 -0.22960429047E+03  0.38792037384E+02  0.48523501182E+02  0.23786021637E+03  0.00000000000E+00 0. -1.
          4    1    3    3  501    0  0.22960429047E+03 -0.38792037384E+02  0.84098693524E+03  0.87262934721E+03  0.00000000000E+00 0. -1.
<mgrwt>
<rscale>  0 0.66479941E+03</rscale>
<asrwt>0</asrwt>
<pdfrwt beam="1">0</pdfrwt>
<pdfrwt beam="2">  1        2 0.40178108E+00 0.66479941E+03</pdfrwt>
<totfact> 0.39174041E+00</totfact>
</mgrwt>
</event>
<event>
 5    1  0.2311484E-004  0.6407442E+03  0.7818608E-02  0.9824304E-01
         13   -1    0    0    0    0  0.00000000000E+00  0.00000000000E+00  0.10000000000E+04  0.10000000000E+04  0.00000000000E+00 0. -1.
          2   -1    0    0  501    0 -0.00000000000E+00 -0.00000000000E+00 -0.10263826785E+03  0.10263826785E+03  0.00000000000E+00 0. -1.
    9000006    2    1    2  501    0  0.00000000000E+00  0.00000000000E+00  0.89736173215E+03  0.11026382679E+04  0.64074415440E+03 0.  0.
         13    1    3    3    0    0 -0.16841394280E+03 -0.97369371470E+02  0.10638080617E+02  0.19482612604E+03  0.00000000000E+00 0. -1.
          2    1    3    3  501    0  0.16841394280E+03  0.97369371470E+02  0.88672365153E+03  0.90781214181E+03  0.00000000000E+00 0. -1.
<mgrwt>
<rscale>  0 0.64074415E+03</rscale>
<asrwt>0</asrwt>
<pdfrwt beam="1">0</pdfrwt>
<pdfrwt beam="2">  1        2 0.37323085E+00 0.64074415E+03</pdfrwt>
<totfact> 0.50096943E+00</totfact>
</mgrwt>
</event>
<event>
 5    1  0.2311484E-004  0.6509268E+03  0.7818608E-02  0.9805042E-01
         13   -1    0    0    0    0  0.00000000000E+00  0.00000000000E+00  0.10000000000E+04  0.10000000000E+04  0.00000000000E+00 0. -1.
          2   -1    0    0  501    0 -0.00000000000E+00 -0.00000000000E+00 -0.10592641932E+03  0.10592641932E+03  0.00000000000E+00 0. -1.
    9000006    2    1    2  501    0  0.00000000000E+00  0.00000000000E+00  0.89407358068E+03  0.11059264193E+04  0.65092678335E+03 0.  0.
         13    1    3    3    0    0 -0.67404047559E+02 -0.20743555415E+03  0.36617339043E+02  0.22116429249E+03  0.00000000000E+00 0. -1.
          2    1    3    3  501    0  0.67404047559E+02  0.20743555415E+03  0.85745624164E+03  0.88476212683E+03  0.00000000000E+00 0. -1.
<mgrwt>
<rscale>  0 0.65092678E+03</rscale>
<asrwt>0</asrwt>
<pdfrwt beam="1">0</pdfrwt>
<pdfrwt beam="2">  1        2 0.38518779E+00 0.65092678E+03</pdfrwt>
<totfact> 0.45224818E+00</totfact>
</mgrwt>
</event>
<event>
 5    1  0.2311484E-004  0.7133145E+03  0.7818608E-02  0.9694730E-01
         13   -1    0    0    0    0  0.00000000000E+00  0.00000000000E+00  0.10000000000E+04  0.10000000000E+04  0.00000000000E+00 0. -1.
          2   -1    0    0  501    0 -0.00000000000E+00 -0.00000000000E+00 -0.12720440194E+03  0.12720440194E+03  0.00000000000E+00 0. -1.
    9000006    2    1    2  501    0  0.00000000000E+00  0.00000000000E+00  0.87279559806E+03  0.11272044019E+04  0.71331452231E+03 0.  0.
         13    1    3    3    0    0 -0.13903644503E+03  0.32673375918E+03  0.38355271908E+03  0.52268419791E+03  0.00000000000E+00 0. -1.
          2    1    3    3  501    0  0.13903644503E+03 -0.32673375918E+03  0.48924287899E+03  0.60452020402E+03  0.00000000000E+00 0. -1.
<mgrwt>
<rscale>  0 0.71331452E+03</rscale>
<asrwt>0</asrwt>
<pdfrwt beam="1">0</pdfrwt>
<pdfrwt beam="2">  1        2 0.46256244E+00 0.71331452E+03</pdfrwt>
<totfact> 0.22681840E+00</totfact>
</mgrwt>
</event>
<event>
 5    1  0.2311484E-004  0.6544450E+03  0.7818608E-02  0.9798474E-01
         13   -1    0    0    0    0  0.00000000000E+00  0.00000000000E+00  0.10000000000E+04  0.10000000000E+04  0.00000000000E+00 0. -1.
          2   -1    0    0  501    0 -0.00000000000E+00 -0.00000000000E+00 -0.10707454956E+03  0.10707454956E+03  0.00000000000E+00 0. -1.
    9000006    2    1    2  501    0  0.00000000000E+00  0.00000000000E+00  0.89292545044E+03  0.11070745496E+04  0.65444495431E+03 0.  0.
         13    1    3    3    0    0 -0.56246286335E+02 -0.21726800253E+03  0.43637729142E+02  0.22863350816E+03  0.00000000000E+00 0. -1.
          2    1    3    3  501    0  0.56246286335E+02  0.21726800253E+03  0.84928772130E+03  0.87844104139E+03  0.00000000000E+00 0. -1.
<mgrwt>
<rscale>  0 0.65444495E+03</rscale>
<asrwt>0</asrwt>
<pdfrwt beam="1">0</pdfrwt>
<pdfrwt beam="2">  1        2 0.38936282E+00 0.65444495E+03</pdfrwt>
<totfact> 0.43627786E+00</totfact>
</mgrwt>
</event>
<event>
 5    1  0.2311484E-004  0.6506817E+03  0.7818608E-02  0.9805501E-01
         13   -1    0    0    0    0  0.00000000000E+00  0.00000000000E+00  0.10000000000E+04  0.10000000000E+04  0.00000000000E+00 0. -1.
          2   -1    0    0  501    0 -0.00000000000E+00 -0.00000000000E+00 -0.10584665673E+03  0.10584665673E+03  0.00000000000E+00 0. -1.
    9000006    2    1    2  501    0  0.00000000000E+00  0.00000000000E+00  0.89415334327E+03  0.11058466567E+04  0.65068166328E+03 0.  0.
         13    1    3    3    0    0 -0.28922408140E+03  0.53045809575E+02  0.68368400860E+03  0.74423669004E+03  0.00000000000E+00 0. -1.
          2    1    3    3  501    0  0.28922408140E+03 -0.53045809575E+02  0.21046933466E+03  0.36160996669E+03  0.00000000000E+00 0. -1.
<mgrwt>
<rscale>  0 0.65068166E+03</rscale>
<asrwt>0</asrwt>
<pdfrwt beam="1">0</pdfrwt>
<pdfrwt beam="2">  1        2 0.38489775E+00 0.65068166E+03</pdfrwt>
<totfact> 0.45337709E+00</totfact>
</mgrwt>
</event>
<event>
 5    1  0.2311484E-004  0.6318592E+03  0.7818608E-02  0.9841427E-01
         13   -1    0    0    0    0  0.00000000000E+00  0.00000000000E+00  0.10000000000E+04  0.10000000000E+04  0.00000000000E+00 0. -1.
          2   -1    0    0  501    0 -0.00000000000E+00 -0.00000000000E+00 -0.99811499660E+02  0.99811499660E+02  0.00000000000E+00 0. -1.
    9000006    2    1    2  501    0  0.00000000000E+00  0.00000000000E+00  0.90018850034E+03  0.10998114997E+04  0.63185916045E+03 0.  0.
         13    1    3    3    0    0 -0.99381073519E+02  0.25485998815E+03  0.17498487773E+03  0.32473053255E+03  0.00000000000E+00 0. -1.
          4    1    3    3  501    0  0.99381073519E+02 -0.25485998815E+03  0.72520362261E+03  0.77508096711E+03  0.00000000000E+00 0. -1.
<mgrwt>
<rscale>  0 0.63185916E+03</rscale>
<asrwt>0</asrwt>
<pdfrwt beam="1">0</pdfrwt>
<pdfrwt beam="2">  1        2 0.36295167E+00 0.63185916E+03</pdfrwt>
<totfact> 0.54664321E+00</totfact>
</mgrwt>
</event>
<event>
 5    1  0.2311484E-004  0.6539558E+03  0.7818608E-02  0.9799385E-01
         13   -1    0    0    0    0  0.00000000000E+00  0.00000000000E+00  0.10000000000E+04  0.10000000000E+04  0.00000000000E+00 0. -1.
          2   -1    0    0  501    0 -0.00000000000E+00 -0.00000000000E+00 -0.10691453183E+03  0.10691453183E+03  0.00000000000E+00 0. -1.
    9000006    2    1    2  501    0  0.00000000000E+00  0.00000000000E+00  0.89308546817E+03  0.11069145318E+04  0.65395575333E+03 0.  0.
         13    1    3    3    0    0  0.18082100626E+03 -0.72777241562E+02  0.89091191489E+03  0.91198508940E+03  0.00000000000E+00 0. -1.
          4    1    3    3  501    0 -0.18082100626E+03  0.72777241562E+02  0.21735532839E+01  0.19492944243E+03  0.00000000000E+00 0. -1.
<mgrwt>
<rscale>  0 0.65395575E+03</rscale>
<asrwt>0</asrwt>
<pdfrwt beam="1">0</pdfrwt>
<pdfrwt beam="2">  1        2 0.38878094E+00 0.65395575E+03</pdfrwt>
<totfact> 0.43847263E+00</totfact>
</mgrwt>
</event>
<event>
 5    1  0.2311484E-004  0.6396737E+03  0.7818608E-02  0.9826351E-01
         13   -1    0    0    0    0  0.00000000000E+00  0.00000000000E+00  0.10000000000E+04  0.10000000000E+04  0.00000000000E+00 0. -1.
          2   -1    0    0  501    0 -0.00000000000E+00 -0.00000000000E+00 -0.10229561552E+03  0.10229561552E+03  0.00000000000E+00 0. -1.
    9000006    2    1    2  501    0  0.00000000000E+00  0.00000000000E+00  0.89770438448E+03  0.11022956155E+04  0.63967371533E+03 0.  0.
         13    1    3    3    0    0 -0.31292291935E+03 -0.81174659725E+01  0.56196876796E+03  0.64326941702E+03  0.00000000000E+00 0. -1.
          4    1    3    3  501    0  0.31292291935E+03  0.81174659725E+01  0.33573561652E+03  0.45902619850E+03  0.00000000000E+00 0. -1.
<mgrwt>
<rscale>  0 0.63967372E+03</rscale>
<asrwt>0</asrwt>
<pdfrwt beam="1">0</pdfrwt>
<pdfrwt beam="2">  1        2 0.37198484E+00 0.63967372E+03</pdfrwt>
<totfact> 0.50631304E+00</totfact>
</mgrwt>
</event>
<event>
 5    1  0.2311484E-004  0.6448290E+03  0.7818608E-02  0.9816531E-01
         13   -1    0    0    0    0  0.00000000000E+00  0.00000000000E+00  0.10000000000E+04  0.10000000000E+04  0.00000000000E+00 0. -1.
          2   -1    0    0  501    0 -0.00000000000E+00 -0.00000000000E+00 -0.10395111044E+03  0.10395111044E+03  0.00000000000E+00 0. -1.
    9000006    2    1    2  501    0  0.00000000000E+00  0.00000000000E+00  0.89604888956E+03  0.11039511104E+04  0.64482900194E+03 0.  0.
         13    1    3    3    0    0  0.22985010475E+03 -0.12373050161E+03  0.77200004770E+03  0.81493826842E+03  0.00000000000E+00 0. -1.
          4    1    3    3  501    0 -0.22985010475E+03  0.12373050161E+03  0.12404884186E+03  0.28901284202E+03  0.00000000000E+00 0. -1.
<mgrwt>
<rscale>  0 0.64482900E+03</rscale>
<asrwt>0</asrwt>
<pdfrwt beam="1">0</pdfrwt>
<pdfrwt beam="2">  1        2 0.37800484E+00 0.64482900E+03</pdfrwt>
<totfact> 0.48097029E+00</totfact>
</mgrwt>
</event>
<event>
 5    1  0.2311484E-004  0.6585841E+03  0.7818608E-02  0.9790804E-01
         13   -1    0    0    0    0  0.00000000000E+00  0.00000000000E+00  0.10000000000E+04  0.10000000000E+04  0.00000000000E+00 0. -1.
          2   -1    0    0  501    0 -0.00000000000E+00 -0.00000000000E+00 -0.10843326539E+03  0.10843326539E+03  0.00000000000E+00 0. -1.
    9000006    2    1    2  501    0  0.00000000000E+00  0.00000000000E+00  0.89156673461E+03  0.11084332654E+04  0.65858413400E+03 0.  0.
         13    1    3    3    0    0 -0.26122793453E+03  0.16163602438E+03  0.24616548165E+03  0.39365426774E+03  0.00000000000E+00 0. -1.
          4    1    3    3  501    0  0.26122793453E+03 -0.16163602438E+03  0.64540125296E+03  0.71477899765E+03  0.00000000000E+00 0. -1.
<mgrwt>
<rscale>  0 0.65858413E+03</rscale>
<asrwt>0</asrwt>
<pdfrwt beam="1">0</pdfrwt>
<pdfrwt beam="2">  1        2 0.39430361E+00 0.65858413E+03</pdfrwt>
<totfact> 0.41803821E+00</totfact>
</mgrwt>
</event>
<event>
 5    1  0.2311484E-004  0.6502650E+03  0.7818608E-02  0.9806282E-01
         13   -1    0    0    0    0  0.00000000000E+00  0.00000000000E+00  0.10000000000E+04  0.10000000000E+04  0.00000000000E+00 0. -1.
          2   -1    0    0  501    0 -0.00000000000E+00 -0.00000000000E+00 -0.10571114924E+03  0.10571114924E+03  0.00000000000E+00 0. -1.
    9000006    2    1    2  501    0  0.00000000000E+00  0.00000000000E+00  0.89428885076E+03  0.11057111492E+04  0.65026502055E+03 0.  0.
         13    1    3    3    0    0 -0.31807549211E+03  0.44119890026E+02  0.36056470182E+03  0.48283070281E+03  0.00000000000E+00 0. -1.
          2    1    3    3  501    0  0.31807549211E+03 -0.44119890026E+02  0.53372414895E+03  0.62288044643E+03  0.00000000000E+00 0. -1.
<mgrwt>
<rscale>  0 0.65026502E+03</rscale>
<asrwt>0</asrwt>
<pdfrwt beam="1">0</pdfrwt>
<pdfrwt beam="2">  1        2 0.38440499E+00 0.65026502E+03</pdfrwt>
<totfact> 0.45530085E+00</totfact>
</mgrwt>
</event>
<event>
 5    1  0.2311484E-004  0.6364084E+03  0.7818608E-02  0.9832622E-01
         13   -1    0    0    0    0  0.00000000000E+00  0.00000000000E+00  0.10000000000E+04  0.10000000000E+04  0.00000000000E+00 0. -1.
          2   -1    0    0  501    0 -0.00000000000E+00 -0.00000000000E+00 -0.10125392827E+03  0.10125392827E+03  0.00000000000E+00 0. -1.
    9000006    2    1    2  501    0  0.00000000000E+00  0.00000000000E+00  0.89874607173E+03  0.11012539283E+04  0.63640844831E+03 0.  0.
         13    1    3    3    0    0 -0.30175934473E+03 -0.91453040719E+02  0.52342950412E+03  0.61106530467E+03  0.00000000000E+00 0. -1.
          2    1    3    3  501    0  0.30175934473E+03  0.91453040719E+02  0.37531656760E+03  0.49018862360E+03  0.00000000000E+00 0. -1.
<mgrwt>
<rscale>  0 0.63640845E+03</rscale>
<asrwt>0</asrwt>
<pdfrwt beam="1">0</pdfrwt>
<pdfrwt beam="2">  1        2 0.36819688E+00 0.63640845E+03</pdfrwt>
<totfact> 0.52288018E+00</totfact>
</mgrwt>
</event>
<event>
 5    1  0.2311484E-004  0.6695721E+03  0.7818608E-02  0.9770731E-01
         13   -1    0    0    0    0  0.00000000000E+00  0.00000000000E+00  0.10000000000E+04  0.10000000000E+04  0.00000000000E+00 0. -1.
          2   -1    0    0  501    0 -0.00000000000E+00 -0.00000000000E+00 -0.11208170254E+03  0.11208170254E+03  0.00000000000E+00 0. -1.
    9000006    2    1    2  501    0  0.00000000000E+00  0.00000000000E+00  0.88791829746E+03  0.11120817025E+04  0.66957210977E+03 0.  0.
         13    1    3    3    0    0 -0.31918502434E+03  0.81129403234E+02  0.34402079872E+03  0.47624717300E+03  0.00000000000E+00 0. -1.
          4    1    3    3  501    0  0.31918502434E+03 -0.81129403234E+02  0.54389749873E+03  0.63583452955E+03  0.00000000000E+00 0. -1.
<mgrwt>
<rscale>  0 0.66957211E+03</rscale>
<asrwt>0</asrwt>
<pdfrwt beam="1">0</pdfrwt>
<pdfrwt beam="2">  1        2 0.40757069E+00 0.66957211E+03</pdfrwt>
<totfact> 0.37240886E+00</totfact>
</mgrwt>
</event>
<event>
 5    1  0.2311484E-004  0.6487821E+03  0.7818608E-02  0.9809067E-01
         13   -1    0    0    0    0  0.00000000000E+00  0.00000000000E+00  0.10000000000E+04  0.10000000000E+04  0.00000000000E+00 0. -1.
          2   -1    0    0  501    0 -0.00000000000E+00 -0.00000000000E+00 -0.10522956668E+03  0.10522956668E+03  0.00000000000E+00 0. -1.
    9000006    2    1    2  501    0  0.00000000000E+00  0.00000000000E+00  0.89477043332E+03  0.11052295667E+04  0.64878214120E+03 0.  0.
         13    1    3    3    0    0 -0.22964918254E+03  0.33963608563E+02  0.61400516822E+02  0.24012975079E+03  0.00000000000E+00 0. -1.
          2    1    3    3  501    0  0.22964918254E+03 -0.33963608563E+02  0.83336991649E+03  0.86509981590E+03  0.00000000000E+00 0. -1.
<mgrwt>
<rscale>  0 0.64878214E+03</rscale>
<asrwt>0</asrwt>
<pdfrwt beam="1">0</pdfrwt>
<pdfrwt beam="2">  1        2 0.38265378E+00 0.64878214E+03</pdfrwt>
<totfact> 0.46219780E+00</totfact>
</mgrwt>
</event>
<event>
 5    1  0.2311484E-004  0.6347712E+03  0.7818608E-02  0.9835782E-01
         13   -1    0    0    0    0  0.00000000000E+00  0.00000000000E+00  0.10000000000E+04  0.10000000000E+04  0.00000000000E+00 0. -1.
          2   -1    0    0  501    0 -0.00000000000E+00 -0.00000000000E+00 -0.10073361238E+03  0.10073361238E+03  0.00000000000E+00 0. -1.
    9000006    2    1    2  501    0  0.00000000000E+00  0.00000000000E+00  0.89926638762E+03  0.11007336124E+04  0.63477117887E+03 0.  0.
         13    1    3    3    0    0  0.14220358817E+03 -0.26878754857E+03  0.60728051858E+03  0.67915994803E+03  0.00000000000E+00 0. -1.
          2    1    3    3  501    0 -0.14220358817E+03  0.26878754857E+03  0.29198586903E+03  0.42157366435E+03  0.00000000000E+00 0. -1.
<mgrwt>
<rscale>  0 0.63477118E+03</rscale>
<asrwt>0</asrwt>
<pdfrwt beam="1">0</pdfrwt>
<pdfrwt beam="2">  1        2 0.36630482E+00 0.63477118E+03</pdfrwt>
<totfact> 0.53134027E+00</totfact>
</mgrwt>
</event>
<event>
 5    1  0.2311484E-004  0.4889406E+03  0.7818608E-02  0.1016707E+00
         13   -1    0    0    0    0  0.00000000000E+00  0.00000000000E+00  0.10000000000E+04  0.10000000000E+04  0.00000000000E+00 0. -1.
          4   -1    0    0  501    0 -0.00000000000E+00 -0.00000000000E+00 -0.59765735905E+02  0.59765735905E+02  0.00000000000E+00 0. -1.
    9000006    2    1    2  501    0  0.00000000000E+00  0.00000000000E+00  0.94023426409E+03  0.10597657359E+04  0.48894063404E+03 0.  0.
         13    1    3    3    0    0 -0.50501029480E+02 -0.99015940448E+02  0.94206533090E+03  0.94859980926E+03  0.00000000000E+00 0. -1.
          2    1    3    3  501    0  0.50501029480E+02  0.99015940448E+02 -0.18310668065E+01  0.11116592665E+03  0.00000000000E+00 0. -1.
<mgrwt>
<rscale>  0 0.48894063E+03</rscale>
<asrwt>0</asrwt>
<pdfrwt beam="1">0</pdfrwt>
<pdfrwt beam="2">  1        4 0.21733041E+00 0.48894063E+03</pdfrwt>
<totfact> 0.45932580E-01</totfact>
</mgrwt>
</event>
<event>
 5    1  0.2311484E-004  0.6489555E+03  0.7818608E-02  0.9808741E-01
         13   -1    0    0    0    0  0.00000000000E+00  0.00000000000E+00  0.10000000000E+04  0.10000000000E+04  0.00000000000E+00 0. -1.
          2   -1    0    0  501    0 -0.00000000000E+00 -0.00000000000E+00 -0.10528581619E+03  0.10528581619E+03  0.00000000000E+00 0. -1.
    9000006    2    1    2  501    0  0.00000000000E+00  0.00000000000E+00  0.89471418381E+03  0.11052858162E+04  0.64895551832E+03 0.  0.
         13    1    3    3    0    0  0.16305060148E+03  0.18991972473E+03  0.95698293006E+02  0.26797978239E+03  0.00000000000E+00 0. -1.
          4    1    3    3  501    0 -0.16305060148E+03 -0.18991972473E+03  0.79901589081E+03  0.83730603380E+03  0.00000000000E+00 0. -1.
<mgrwt>
<rscale>  0 0.64895552E+03</rscale>
<asrwt>0</asrwt>
<pdfrwt beam="1">0</pdfrwt>
<pdfrwt beam="2">  1        2 0.38285832E+00 0.64895552E+03</pdfrwt>
<totfact> 0.46138736E+00</totfact>
</mgrwt>
</event>
<event>
 5    1  0.2311484E-004  0.6467767E+03  0.7818608E-02  0.9812846E-01
         13   -1    0    0    0    0  0.00000000000E+00  0.00000000000E+00  0.10000000000E+04  0.10000000000E+04  0.00000000000E+00 0. -1.
          2   -1    0    0  501    0 -0.00000000000E+00 -0.00000000000E+00 -0.10458002173E+03  0.10458002173E+03  0.00000000000E+00 0. -1.
    9000006    2    1    2  501    0  0.00000000000E+00  0.00000000000E+00  0.89541997827E+03  0.11045800217E+04  0.64677669014E+03 0.  0.
         13    1    3    3    0    0 -0.12398294847E+02  0.24077806252E+02  0.99805988501E+03  0.99842725952E+03  0.00000000000E+00 0. -1.
          4    1    3    3  501    0  0.12398294847E+02 -0.24077806252E+02 -0.10263990674E+03  0.10615276221E+03  0.00000000000E+00 0. -1.
<mgrwt>
<rscale>  0 0.64677669E+03</rscale>
<asrwt>0</asrwt>
<pdfrwt beam="1">0</pdfrwt>
<pdfrwt beam="2">  1        2 0.38029179E+00 0.64677669E+03</pdfrwt>
<totfact> 0.47165055E+00</totfact>
</mgrwt>
</event>
<event>
 5    1  0.2311484E-004  0.6644113E+03  0.7818608E-02  0.9780107E-01
         13   -1    0    0    0    0  0.00000000000E+00  0.00000000000E+00  0.10000000000E+04  0.10000000000E+04  0.00000000000E+00 0. -1.
          2   -1    0    0  501    0 -0.00000000000E+00 -0.00000000000E+00 -0.11036059679E+03  0.11036059679E+03  0.00000000000E+00 0. -1.
    9000006    2    1    2  501    0  0.00000000000E+00  0.00000000000E+00  0.88963940321E+03  0.11103605968E+04  0.66441130874E+03 0.  0.
         13    1    3    3    0    0  0.20138073243E+03  0.14052745314E+03  0.81872846859E+03  0.85476222996E+03  0.00000000000E+00 0. -1.
          2    1    3    3  501    0 -0.20138073243E+03 -0.14052745314E+03  0.70910934616E+02  0.25559836684E+03  0.00000000000E+00 0. -1.
<mgrwt>
<rscale>  0 0.66441131E+03</rscale>
<asrwt>0</asrwt>
<pdfrwt beam="1">0</pdfrwt>
<pdfrwt beam="2">  1        2 0.40131211E+00 0.66441131E+03</pdfrwt>
<totfact> 0.39334497E+00</totfact>
</mgrwt>
</event>
<event>
 5    1  0.2311484E-004  0.6655062E+03  0.7818608E-02  0.9778110E-01
         13   -1    0    0    0    0  0.00000000000E+00  0.00000000000E+00  0.10000000000E+04  0.10000000000E+04  0.00000000000E+00 0. -1.
          2   -1    0    0  501    0 -0.00000000000E+00 -0.00000000000E+00 -0.11072462651E+03  0.11072462651E+03  0.00000000000E+00 0. -1.
    9000006    2    1    2  501    0  0.00000000000E+00  0.00000000000E+00  0.88927537349E+03  0.11107246265E+04  0.66550620286E+03 0.  0.
         13    1    3    3    0    0  0.18766271541E+03 -0.21403934215E+03  0.15703546176E+03  0.32510040141E+03  0.00000000000E+00 0. -1.
          4    1    3    3  501    0 -0.18766271541E+03  0.21403934215E+03  0.73223991173E+03  0.78562422511E+03  0.00000000000E+00 0. -1.
<mgrwt>
<rscale>  0 0.66550620E+03</rscale>
<asrwt>0</asrwt>
<pdfrwt beam="1">0</pdfrwt>
<pdfrwt beam="2">  1        2 0.40263585E+00 0.66550620E+03</pdfrwt>
<totfact> 0.38883092E+00</totfact>
</mgrwt>
</event>
<event>
 5    1  0.2311484E-004  0.6495645E+03  0.7818608E-02  0.9807597E-01
         13   -1    0    0    0    0  0.00000000000E+00  0.00000000000E+00  0.10000000000E+04  0.10000000000E+04  0.00000000000E+00 0. -1.
          2   -1    0    0  501    0 -0.00000000000E+00 -0.00000000000E+00 -0.10548351561E+03  0.10548351561E+03  0.00000000000E+00 0. -1.
    9000006    2    1    2  501    0  0.00000000000E+00  0.00000000000E+00  0.89451648439E+03  0.11054835156E+04  0.64956451754E+03 0.  0.
         13    1    3    3    0    0 -0.10743858412E+03  0.30582582571E+03  0.48176205155E+03  0.58066096764E+03  0.00000000000E+00 0. -1.
          2    1    3    3  501    0  0.10743858412E+03 -0.30582582571E+03  0.41275443284E+03  0.52482254797E+03  0.00000000000E+00 0. -1.
<mgrwt>
<rscale>  0 0.64956452E+03</rscale>
<asrwt>0</asrwt>
<pdfrwt beam="1">0</pdfrwt>
<pdfrwt beam="2">  1        2 0.38357723E+00 0.64956452E+03</pdfrwt>
<totfact> 0.45854916E+00</totfact>
</mgrwt>
</event>
<event>
 5    1  0.2311484E-004  0.6598195E+03  0.7818608E-02  0.9788526E-01
         13   -1    0    0    0    0  0.00000000000E+00  0.00000000000E+00  0.10000000000E+04  0.10000000000E+04  0.00000000000E+00 0. -1.
          2   -1    0    0  501    0 -0.00000000000E+00 -0.00000000000E+00 -0.10884043439E+03  0.10884043439E+03  0.00000000000E+00 0. -1.
    9000006    2    1    2  501    0  0.00000000000E+00  0.00000000000E+00  0.89115956561E+03  0.11088404344E+04  0.65981947347E+03 0.  0.
         13    1    3    3    0    0  0.17334190145E+03 -0.27600203755E+03  0.53153140300E+03  0.62349833353E+03  0.00000000000E+00 0. -1.
          2    1    3    3  501    0 -0.17334190145E+03  0.27600203755E+03  0.35962816261E+03  0.48534210086E+03  0.00000000000E+00 0. -1.
<mgrwt>
<rscale>  0 0.65981947E+03</rscale>
<asrwt>0</asrwt>
<pdfrwt beam="1">0</pdfrwt>
<pdfrwt beam="2">  1        2 0.39578423E+00 0.65981947E+03</pdfrwt>
<totfact> 0.41270829E+00</totfact>
</mgrwt>
</event>
<event>
 5    1  0.2311484E-004  0.6341537E+03  0.7818608E-02  0.9836977E-01
         13   -1    0    0    0    0  0.00000000000E+00  0.00000000000E+00  0.10000000000E+04  0.10000000000E+04  0.00000000000E+00 0. -1.
          2   -1    0    0  501    0 -0.00000000000E+00 -0.00000000000E+00 -0.10053772367E+03  0.10053772367E+03  0.00000000000E+00 0. -1.
    9000006    2    1    2  501    0  0.00000000000E+00  0.00000000000E+00  0.89946227633E+03  0.11005377237E+04  0.63415368379E+03 0.  0.
         13    1    3    3    0    0 -0.11444575308E+03  0.28222200778E+03  0.29655301365E+03  0.42507738352E+03  0.00000000000E+00 0. -1.
          4    1    3    3  501    0  0.11444575308E+03 -0.28222200778E+03  0.60290926269E+03  0.67546034015E+03  0.00000000000E+00 0. -1.
<mgrwt>
<rscale>  0 0.63415368E+03</rscale>
<asrwt>0</asrwt>
<pdfrwt beam="1">0</pdfrwt>
<pdfrwt beam="2">  1        2 0.36559249E+00 0.63415368E+03</pdfrwt>
<totfact> 0.53455778E+00</totfact>
</mgrwt>
</event>
<event>
 5    1  0.2311484E-004  0.6413245E+03  0.7818608E-02  0.9823196E-01
         13   -1    0    0    0    0  0.00000000000E+00  0.00000000000E+00  0.10000000000E+04  0.10000000000E+04  0.00000000000E+00 0. -1.
          2   -1    0    0  501    0 -0.00000000000E+00 -0.00000000000E+00 -0.10282426889E+03  0.10282426889E+03  0.00000000000E+00 0. -1.
    9000006    2    1    2  501    0  0.00000000000E+00  0.00000000000E+00  0.89717573111E+03  0.11028242689E+04  0.64132446980E+03 0.  0.
         13    1    3    3    0    0  0.79426000445E+02 -0.22913526584E+03  0.80934759197E+03  0.84489939296E+03  0.00000000000E+00 0. -1.
          2    1    3    3  501    0 -0.79426000445E+02  0.22913526584E+03  0.87828139143E+02  0.25792487593E+03  0.00000000000E+00 0. -1.
<mgrwt>
<rscale>  0 0.64132447E+03</rscale>
<asrwt>0</asrwt>
<pdfrwt beam="1">0</pdfrwt>
<pdfrwt beam="2">  1        2 0.37390722E+00 0.64132447E+03</pdfrwt>
<totfact> 0.49809043E+00</totfact>
</mgrwt>
</event>
<event>
 5    1  0.2311484E-004  0.6488194E+03  0.7818608E-02  0.9808997E-01
         13   -1    0    0    0    0  0.00000000000E+00  0.00000000000E+00  0.10000000000E+04  0.10000000000E+04  0.00000000000E+00 0. -1.
          2   -1    0    0  501    0 -0.00000000000E+00 -0.00000000000E+00 -0.10524164341E+03  0.10524164341E+03  0.00000000000E+00 0. -1.
    9000006    2    1    2  501    0  0.00000000000E+00  0.00000000000E+00  0.89475835659E+03  0.11052416434E+04  0.64881936905E+03 0.  0.
         13    1    3    3    0    0 -0.91702749173E+02  0.31039927815E+03  0.40988213221E+03  0.52226474932E+03  0.00000000000E+00 0. -1.
          2    1    3    3  501    0  0.91702749173E+02 -0.31039927815E+03  0.48487622438E+03  0.58297689409E+03  0.00000000000E+00 0. -1.
<mgrwt>
<rscale>  0 0.64881937E+03</rscale>
<asrwt>0</asrwt>
<pdfrwt beam="1">0</pdfrwt>
<pdfrwt beam="2">  1        2 0.38269769E+00 0.64881937E+03</pdfrwt>
<totfact> 0.46202369E+00</totfact>
</mgrwt>
</event>
<event>
 5    1  0.2311484E-004  0.6563420E+03  0.7818608E-02  0.9794951E-01
         13   -1    0    0    0    0  0.00000000000E+00  0.00000000000E+00  0.10000000000E+04  0.10000000000E+04  0.00000000000E+00 0. -1.
          2   -1    0    0  501    0 -0.00000000000E+00 -0.00000000000E+00 -0.10769619382E+03  0.10769619382E+03  0.00000000000E+00 0. -1.
    9000006    2    1    2  501    0  0.00000000000E+00  0.00000000000E+00  0.89230380618E+03  0.11076961938E+04  0.65634196521E+03 0.  0.
         13    1    3    3    0    0  0.67838553260E+02  0.29705962700E+03  0.24049212292E+03  0.38817902118E+03  0.00000000000E+00 0. -1.
          2    1    3    3  501    0 -0.67838553260E+02 -0.29705962700E+03  0.65181168326E+03  0.71951717264E+03  0.00000000000E+00 0. -1.
<mgrwt>
<rscale>  0 0.65634197E+03</rscale>
<asrwt>0</asrwt>
<pdfrwt beam="1">0</pdfrwt>
<pdfrwt beam="2">  1        2 0.39162335E+00 0.65634197E+03</pdfrwt>
<totfact> 0.42784542E+00</totfact>
</mgrwt>
</event>
<event>
 5    1  0.2311484E-004  0.6188867E+03  0.7818608E-02  0.9866979E-01
         13   -1    0    0    0    0  0.00000000000E+00  0.00000000000E+00  0.10000000000E+04  0.10000000000E+04  0.00000000000E+00 0. -1.
          2   -1    0    0  501    0 -0.00000000000E+00 -0.00000000000E+00 -0.95755185305E+02  0.95755185305E+02  0.00000000000E+00 0. -1.
    9000006    2    1    2  501    0  0.00000000000E+00  0.00000000000E+00  0.90424481469E+03  0.10957551853E+04  0.61888669498E+03 0.  0.
         13    1    3    3    0    0 -0.29521730698E+03  0.55590796267E+01  0.28820739390E+03  0.41261078950E+03  0.00000000000E+00 0. -1.
          2    1    3    3  501    0  0.29521730698E+03 -0.55590796267E+01  0.61603742079E+03  0.68314439581E+03  0.00000000000E+00 0. -1.
<mgrwt>
<rscale>  0 0.61888669E+03</rscale>
<asrwt>0</asrwt>
<pdfrwt beam="1">0</pdfrwt>
<pdfrwt beam="2">  1        2 0.34820141E+00 0.61888669E+03</pdfrwt>
<totfact> 0.61892689E+00</totfact>
</mgrwt>
</event>
<event>
 5    1  0.2311484E-004  0.6666681E+03  0.7818608E-02  0.9775996E-01
         13   -1    0    0    0    0  0.00000000000E+00  0.00000000000E+00  0.10000000000E+04  0.10000000000E+04  0.00000000000E+00 0. -1.
          2   -1    0    0  501    0 -0.00000000000E+00 -0.00000000000E+00 -0.11111159555E+03  0.11111159555E+03  0.00000000000E+00 0. -1.
    9000006    2    1    2  501    0  0.00000000000E+00  0.00000000000E+00  0.88888840445E+03  0.11111115956E+04  0.66666812000E+03 0.  0.
         13    1    3    3    0    0  0.20502497476E+02  0.28248990633E+03  0.15151555986E+03  0.32121311378E+03  0.00000000000E+00 0. -1.
          4    1    3    3  501    0 -0.20502497476E+02 -0.28248990633E+03  0.73737284458E+03  0.78989848178E+03  0.00000000000E+00 0. -1.
<mgrwt>
<rscale>  0 0.66666812E+03</rscale>
<asrwt>0</asrwt>
<pdfrwt beam="1">0</pdfrwt>
<pdfrwt beam="2">  1        2 0.40404302E+00 0.66666812E+03</pdfrwt>
<totfact> 0.38408337E+00</totfact>
</mgrwt>
</event>
<event>
 5    1  0.2311484E-004  0.6534528E+03  0.7818608E-02  0.9800322E-01
         13   -1    0    0    0    0  0.00000000000E+00  0.00000000000E+00  0.10000000000E+04  0.10000000000E+04  0.00000000000E+00 0. -1.
          2   -1    0    0  501    0 -0.00000000000E+00 -0.00000000000E+00 -0.10675015279E+03  0.10675015279E+03  0.00000000000E+00 0. -1.
    9000006    2    1    2  501    0  0.00000000000E+00  0.00000000000E+00  0.89324984721E+03  0.11067501528E+04  0.65345283775E+03 0.  0.
         13    1    3    3    0    0  0.27944979242E+03  0.16737782719E+03  0.40368951564E+03  0.51872222679E+03  0.00000000000E+00 0. -1.
          4    1    3    3  501    0 -0.27944979242E+03 -0.16737782719E+03  0.48956033156E+03  0.58802792601E+03  0.00000000000E+00 0. -1.
<mgrwt>
<rscale>  0 0.65345284E+03</rscale>
<asrwt>0</asrwt>
<pdfrwt beam="1">0</pdfrwt>
<pdfrwt beam="2">  1        2 0.38818319E+00 0.65345284E+03</pdfrwt>
<totfact> 0.44073761E+00</totfact>
</mgrwt>
</event>
<event>
 5    1  0.2311484E-004  0.6749556E+03  0.7818608E-02  0.9761047E-01
         13   -1    0    0    0    0  0.00000000000E+00  0.00000000000E+00  0.10000000000E+04  0.10000000000E+04  0.00000000000E+00 0. -1.
          2   -1    0    0  501    0 -0.00000000000E+00 -0.00000000000E+00 -0.11389127301E+03  0.11389127301E+03  0.00000000000E+00 0. -1.
    9000006    2    1    2  501    0  0.00000000000E+00  0.00000000000E+00  0.88610872699E+03  0.11138912730E+04  0.67495562226E+03 0.  0.
         13    1    3    3    0    0 -0.29199130864E+03  0.64879256965E+02  0.18514485144E+03  0.35177671657E+03  0.00000000000E+00 0. -1.
          2    1    3    3  501    0  0.29199130864E+03 -0.64879256965E+02  0.70096387556E+03  0.76211455644E+03  0.00000000000E+00 0. -1.
<mgrwt>
<rscale>  0 0.67495562E+03</rscale>
<asrwt>0</asrwt>
<pdfrwt beam="1">0</pdfrwt>
<pdfrwt beam="2">  1        2 0.41415096E+00 0.67495562E+03</pdfrwt>
<totfact> 0.35147639E+00</totfact>
</mgrwt>
</event>
<event>
 5    1  0.2311484E-004  0.6537847E+03  0.7818608E-02  0.9799703E-01
         13   -1    0    0    0    0  0.00000000000E+00  0.00000000000E+00  0.10000000000E+04  0.10000000000E+04  0.00000000000E+00 0. -1.
          2   -1    0    0  501    0 -0.00000000000E+00 -0.00000000000E+00 -0.10685860311E+03  0.10685860311E+03  0.00000000000E+00 0. -1.
    9000006    2    1    2  501    0  0.00000000000E+00  0.00000000000E+00  0.89314139689E+03  0.11068586031E+04  0.65378468355E+03 0.  0.
         13    1    3    3    0    0  0.32704029597E+02  0.74482264195E+02 -0.89449376924E+02  0.12090637809E+03  0.00000000000E+00 0. -1.
          2    1    3    3  501    0 -0.32704029597E+02 -0.74482264195E+02  0.98259077381E+03  0.98595222502E+03  0.00000000000E+00 0. -1.
<mgrwt>
<rscale>  0 0.65378468E+03</rscale>
<asrwt>0</asrwt>
<pdfrwt beam="1">0</pdfrwt>
<pdfrwt beam="2">  1        2 0.38857756E+00 0.65378468E+03</pdfrwt>
<totfact> 0.43924209E+00</totfact>
</mgrwt>
</event>
<event>
 5    1  0.2311484E-004  0.6406511E+03  0.7818608E-02  0.9824482E-01
         13   -1    0    0    0    0  0.00000000000E+00  0.00000000000E+00  0.10000000000E+04  0.10000000000E+04  0.00000000000E+00 0. -1.
          2   -1    0    0  501    0 -0.00000000000E+00 -0.00000000000E+00 -0.10260844986E+03  0.10260844986E+03  0.00000000000E+00 0. -1.
    9000006    2    1    2  501    0  0.00000000000E+00  0.00000000000E+00  0.89739155014E+03  0.11026084499E+04  0.64065107465E+03 0.  0.
         13    1    3    3    0    0 -0.58996949888E+02 -0.93064014520E+02  0.96635577661E+03  0.97261762162E+03  0.00000000000E+00 0. -1.
          2    1    3    3  501    0  0.58996949888E+02  0.93064014520E+02 -0.68964226471E+02  0.12999082824E+03  0.00000000000E+00 0. -1.
<mgrwt>
<rscale>  0 0.64065107E+03</rscale>
<asrwt>0</asrwt>
<pdfrwt beam="1">0</pdfrwt>
<pdfrwt beam="2">  1        2 0.37312242E+00 0.64065107E+03</pdfrwt>
<totfact> 0.50143238E+00</totfact>
</mgrwt>
</event>
<event>
 5    1  0.2311484E-004  0.6568780E+03  0.7818608E-02  0.9793958E-01
         13   -1    0    0    0    0  0.00000000000E+00  0.00000000000E+00  0.10000000000E+04  0.10000000000E+04  0.00000000000E+00 0. -1.
          2   -1    0    0  501    0 -0.00000000000E+00 -0.00000000000E+00 -0.10787216376E+03  0.10787216376E+03  0.00000000000E+00 0. -1.
    9000006    2    1    2  501    0  0.00000000000E+00  0.00000000000E+00  0.89212783624E+03  0.11078721638E+04  0.65687796053E+03 0.  0.
         13    1    3    3    0    0 -0.26562015074E+03 -0.18446225953E+03  0.34929854602E+03  0.47601456271E+03  0.00000000000E+00 0. -1.
          2    1    3    3  501    0  0.26562015074E+03  0.18446225953E+03  0.54282929023E+03  0.63185760104E+03  0.00000000000E+00 0. -1.
<mgrwt>
<rscale>  0 0.65687796E+03</rscale>
<asrwt>0</asrwt>
<pdfrwt beam="1">0</pdfrwt>
<pdfrwt beam="2">  1        2 0.39226324E+00 0.65687796E+03</pdfrwt>
<totfact> 0.42548532E+00</totfact>
</mgrwt>
</event>
<event>
 5    1  0.2311484E-004  0.6031478E+03  0.7818608E-02  0.9898897E-01
         13   -1    0    0    0    0  0.00000000000E+00  0.00000000000E+00  0.10000000000E+04  0.10000000000E+04  0.00000000000E+00 0. -1.
          2   -1    0    0  501    0 -0.00000000000E+00 -0.00000000000E+00 -0.90946822442E+02  0.90946822442E+02  0.00000000000E+00 0. -1.
    9000006    2    1    2  501    0  0.00000000000E+00  0.00000000000E+00  0.90905317756E+03  0.10909468224E+04  0.60314781751E+03 0.  0.
         13    1    3    3    0    0  0.12318745901E+02  0.13005421622E+03  0.94616535557E+03  0.95514120984E+03  0.00000000000E+00 0. -1.
          2    1    3    3  501    0 -0.12318745901E+02 -0.13005421622E+03 -0.37112178009E+02  0.13580561260E+03  0.00000000000E+00 0. -1.
<mgrwt>
<rscale>  0 0.60314782E+03</rscale>
<asrwt>0</asrwt>
<pdfrwt beam="1">0</pdfrwt>
<pdfrwt beam="2">  1        2 0.33071642E+00 0.60314782E+03</pdfrwt>
<totfact> 0.71615817E+00</totfact>
</mgrwt>
</event>
<event>
 5    1  0.2311484E-004  0.6485260E+03  0.7818608E-02  0.9809549E-01
         13   -1    0    0    0    0  0.00000000000E+00  0.00000000000E+00  0.10000000000E+04  0.10000000000E+04  0.00000000000E+00 0. -1.
          2   -1    0    0  501    0 -0.00000000000E+00 -0.00000000000E+00 -0.10514648260E+03  0.10514648260E+03  0.00000000000E+00 0. -1.
    9000006    2    1    2  501    0  0.00000000000E+00  0.00000000000E+00  0.89485351740E+03  0.11051464826E+04  0.64852596742E+03 0.  0.
         13    1    3    3    0    0  0.78338097310E+02  0.28050291812E+03  0.69038800307E+03  0.74930256863E+03  0.00000000000E+00 0. -1.
          2    1    3    3  501    0 -0.78338097310E+02 -0.28050291812E+03  0.20446551433E+03  0.35584391398E+03  0.00000000000E+00 0. -1.
<mgrwt>
<rscale>  0 0.64852597E+03</rscale>
<asrwt>0</asrwt>
<pdfrwt beam="1">0</pdfrwt>
<pdfrwt beam="2">  1        2 0.38235165E+00 0.64852597E+03</pdfrwt>
<totfact> 0.46339723E+00</totfact>
</mgrwt>
</event>
<event>
 5    1  0.2311484E-004  0.6529899E+03  0.7818608E-02  0.9801185E-01
         13   -1    0    0    0    0  0.00000000000E+00  0.00000000000E+00  0.10000000000E+04  0.10000000000E+04  0.00000000000E+00 0. -1.
          2   -1    0    0  501    0 -0.00000000000E+00 -0.00000000000E+00 -0.10659895606E+03  0.10659895606E+03  0.00000000000E+00 0. -1.
    9000006    2    1    2  501    0  0.00000000000E+00  0.00000000000E+00  0.89340104394E+03  0.11065989561E+04  0.65298991128E+03 0.  0.
         13    1    3    3    0    0  0.28160289231E+03 -0.64115981380E+02  0.70475688330E+03  0.76163857084E+03  0.00000000000E+00 0. -1.
          4    1    3    3  501    0 -0.28160289231E+03  0.64115981380E+02  0.18864416064E+03  0.34496038522E+03  0.00000000000E+00 0. -1.
<mgrwt>
<rscale>  0 0.65298991E+03</rscale>
<asrwt>0</asrwt>
<pdfrwt beam="1">0</pdfrwt>
<pdfrwt beam="2">  1        2 0.38763338E+00 0.65298991E+03</pdfrwt>
<totfact> 0.44283029E+00</totfact>
</mgrwt>
</event>
<event>
 5    1  0.2311484E-004  0.6494758E+03  0.7818608E-02  0.9807763E-01
         13   -1    0    0    0    0  0.00000000000E+00  0.00000000000E+00  0.10000000000E+04  0.10000000000E+04  0.00000000000E+00 0. -1.
          2   -1    0    0  501    0 -0.00000000000E+00 -0.00000000000E+00 -0.10545469254E+03  0.10545469254E+03  0.00000000000E+00 0. -1.
    9000006    2    1    2  501    0  0.00000000000E+00  0.00000000000E+00  0.89454530746E+03  0.11054546925E+04  0.64947576564E+03 0.  0.
         13    1    3    3    0    0 -0.51770833145E+02 -0.28911962167E+03  0.21152293871E+03  0.36195625205E+03  0.00000000000E+00 0. -1.
          4    1    3    3  501    0  0.51770833145E+02  0.28911962167E+03  0.68302236875E+03  0.74349844049E+03  0.00000000000E+00 0. -1.
<mgrwt>
<rscale>  0 0.64947577E+03</rscale>
<asrwt>0</asrwt>
<pdfrwt beam="1">0</pdfrwt>
<pdfrwt beam="2">  1        2 0.38347242E+00 0.64947577E+03</pdfrwt>
<totfact> 0.45896196E+00</totfact>
</mgrwt>
</event>
<event>
 5    1  0.2311484E-004  0.6529355E+03  0.7818608E-02  0.9801286E-01
         13   -1    0    0    0    0  0.00000000000E+00  0.00000000000E+00  0.10000000000E+04  0.10000000000E+04  0.00000000000E+00 0. -1.
          2   -1    0    0  501    0 -0.00000000000E+00 -0.00000000000E+00 -0.10658120058E+03  0.10658120058E+03  0.00000000000E+00 0. -1.
    9000006    2    1    2  501    0  0.00000000000E+00  0.00000000000E+00  0.89341879942E+03  0.11065812006E+04  0.65293552692E+03 0.  0.
         13    1    3    3    0    0  0.18526828820E+03  0.19436037427E+03  0.13200535261E+03  0.29920846715E+03  0.00000000000E+00 0. -1.
          4    1    3    3  501    0 -0.18526828820E+03 -0.19436037427E+03  0.76141344681E+03  0.80737273343E+03  0.00000000000E+00 0. -1.
<mgrwt>
<rscale>  0 0.65293553E+03</rscale>
<asrwt>0</asrwt>
<pdfrwt beam="1">0</pdfrwt>
<pdfrwt beam="2">  1        2 0.38756882E+00 0.65293553E+03</pdfrwt>
<totfact> 0.44307663E+00</totfact>
</mgrwt>
</event>
<event>
 5    1  0.2311484E-004  0.6465149E+03  0.7818608E-02  0.9813341E-01
         13   -1    0    0    0    0  0.00000000000E+00  0.00000000000E+00  0.10000000000E+04  0.10000000000E+04  0.00000000000E+00 0. -1.
          2   -1    0    0  501    0 -0.00000000000E+00 -0.00000000000E+00 -0.10449537330E+03  0.10449537330E+03  0.00000000000E+00 0. -1.
    9000006    2    1    2  501    0  0.00000000000E+00  0.00000000000E+00  0.89550462670E+03  0.11044953733E+04  0.64651488243E+03 0.  0.
         13    1    3    3    0    0  0.11899021659E+03  0.27789175952E+03  0.25212284280E+03  0.39363489367E+03  0.00000000000E+00 0. -1.
          4    1    3    3  501    0 -0.11899021659E+03 -0.27789175952E+03  0.64338178390E+03  0.71086047963E+03  0.00000000000E+00 0. -1.
<mgrwt>
<rscale>  0 0.64651488E+03</rscale>
<asrwt>0</asrwt>
<pdfrwt beam="1">0</pdfrwt>
<pdfrwt beam="2">  1        2 0.37998398E+00 0.64651488E+03</pdfrwt>
<totfact> 0.47289529E+00</totfact>
</mgrwt>
</event>
<event>
 5    1  0.2311484E-004  0.6422148E+03  0.7818608E-02  0.9821498E-01
         13   -1    0    0    0    0  0.00000000000E+00  0.00000000000E+00  0.10000000000E+04  0.10000000000E+04  0.00000000000E+00 0. -1.
          2   -1    0    0  501    0 -0.00000000000E+00 -0.00000000000E+00 -0.10310994855E+03  0.10310994855E+03  0.00000000000E+00 0. -1.
    9000006    2    1    2  501    0  0.00000000000E+00  0.00000000000E+00  0.89689005145E+03  0.11031099486E+04  0.64221475708E+03 0.  0.
         13    1    3    3    0    0  0.88323952865E+02 -0.26927008856E+03  0.70782070478E+03  0.76244190031E+03  0.00000000000E+00 0. -1.
          4    1    3    3  501    0 -0.88323952865E+02  0.26927008856E+03  0.18906934667E+03  0.34066804824E+03  0.00000000000E+00 0. -1.
<mgrwt>
<rscale>  0 0.64221476E+03</rscale>
<asrwt>0</asrwt>
<pdfrwt beam="1">0</pdfrwt>
<pdfrwt beam="2">  1        2 0.37494606E+00 0.64221476E+03</pdfrwt>
<totfact> 0.49369799E+00</totfact>
</mgrwt>
</event>
<event>
 5    1  0.2311484E-004  0.6517479E+03  0.7818608E-02  0.9803505E-01
         13   -1    0    0    0    0  0.00000000000E+00  0.00000000000E+00  0.10000000000E+04  0.10000000000E+04  0.00000000000E+00 0. -1.
          2   -1    0    0  501    0 -0.00000000000E+00 -0.00000000000E+00 -0.10619383634E+03  0.10619383634E+03  0.00000000000E+00 0. -1.
    9000006    2    1    2  501    0  0.00000000000E+00  0.00000000000E+00  0.89380616366E+03  0.11061938363E+04  0.65174791551E+03 0.  0.
         13    1    3    3    0    0  0.32101929763E+03  0.32039780244E+02  0.36886730854E+03  0.49004390444E+03  0.00000000000E+00 0. -1.
          2    1    3    3  501    0 -0.32101929763E+03 -0.32039780244E+02  0.52493885511E+03  0.61614993190E+03  0.00000000000E+00 0. -1.
<mgrwt>
<rscale>  0 0.65174792E+03</rscale>
<asrwt>0</asrwt>
<pdfrwt beam="1">0</pdfrwt>
<pdfrwt beam="2">  1        2 0.38616022E+00 0.65174792E+03</pdfrwt>
<totfact> 0.44848188E+00</totfact>
</mgrwt>
</event>
<event>
 5    1  0.2311484E-004  0.6555221E+03  0.7818608E-02  0.9796472E-01
         13   -1    0    0    0    0  0.00000000000E+00  0.00000000000E+00  0.10000000000E+04  0.10000000000E+04  0.00000000000E+00 0. -1.
          2   -1    0    0  501    0 -0.00000000000E+00 -0.00000000000E+00 -0.10742730001E+03  0.10742730001E+03  0.00000000000E+00 0. -1.
    9000006    2    1    2  501    0  0.00000000000E+00  0.00000000000E+00  0.89257269999E+03  0.11074273000E+04  0.65552208204E+03 0.  0.
         13    1    3    3    0    0 -0.61041764812E+02 -0.31722336015E+03  0.53989920109E+03  0.62916444958E+03  0.00000000000E+00 0. -1.
          2    1    3    3  501    0  0.61041764812E+02  0.31722336015E+03  0.35267349890E+03  0.47826285043E+03  0.00000000000E+00 0. -1.
<mgrwt>
<rscale>  0 0.65552208E+03</rscale>
<asrwt>0</asrwt>
<pdfrwt beam="1">0</pdfrwt>
<pdfrwt beam="2">  1        2 0.39064555E+00 0.65552208E+03</pdfrwt>
<totfact> 0.43147465E+00</totfact>
</mgrwt>
</event>
<event>
 5    1  0.2311484E-004  0.6554232E+03  0.7818608E-02  0.9796656E-01
         13   -1    0    0    0    0  0.00000000000E+00  0.00000000000E+00  0.10000000000E+04  0.10000000000E+04  0.00000000000E+00 0. -1.
          2   -1    0    0  501    0 -0.00000000000E+00 -0.00000000000E+00 -0.10739488739E+03  0.10739488739E+03  0.00000000000E+00 0. -1.
    9000006    2    1    2  501    0  0.00000000000E+00  0.00000000000E+00  0.89260511261E+03  0.11073948874E+04  0.65542318356E+03 0.  0.
         13    1    3    3    0    0  0.29207745007E+03 -0.14824878536E+03  0.46385705342E+03  0.56784707906E+03  0.00000000000E+00 0. -1.
          2    1    3    3  501    0 -0.29207745007E+03  0.14824878536E+03  0.42874805920E+03  0.53954780832E+03  0.00000000000E+00 0. -1.
<mgrwt>
<rscale>  0 0.65542318E+03</rscale>
<asrwt>0</asrwt>
<pdfrwt beam="1">0</pdfrwt>
<pdfrwt beam="2">  1        2 0.39052769E+00 0.65542318E+03</pdfrwt>
<totfact> 0.43191400E+00</totfact>
</mgrwt>
</event>
<event>
 5    1  0.2311484E-004  0.6484774E+03  0.7818608E-02  0.9809640E-01
         13   -1    0    0    0    0  0.00000000000E+00  0.00000000000E+00  0.10000000000E+04  0.10000000000E+04  0.00000000000E+00 0. -1.
          2   -1    0    0  501    0 -0.00000000000E+00 -0.00000000000E+00 -0.10513073087E+03  0.10513073087E+03  0.00000000000E+00 0. -1.
    9000006    2    1    2  501    0  0.00000000000E+00  0.00000000000E+00  0.89486926913E+03  0.11051307309E+04  0.64847738856E+03 0.  0.
         13    1    3    3    0    0  0.27197304365E+03 -0.99057673144E+02  0.69643919427E+03  0.75419447784E+03  0.00000000000E+00 0. -1.
          2    1    3    3  501    0 -0.27197304365E+03  0.99057673144E+02  0.19843007486E+03  0.35093625303E+03  0.00000000000E+00 0. -1.
<mgrwt>
<rscale>  0 0.64847739E+03</rscale>
<asrwt>0</asrwt>
<pdfrwt beam="1">0</pdfrwt>
<pdfrwt beam="2">  1        2 0.38229437E+00 0.64847739E+03</pdfrwt>
<totfact> 0.46362495E+00</totfact>
</mgrwt>
</event>
<event>
 5    1  0.2311484E-004  0.6437497E+03  0.7818608E-02  0.9818579E-01
         13   -1    0    0    0    0  0.00000000000E+00  0.00000000000E+00  0.10000000000E+04  0.10000000000E+04  0.00000000000E+00 0. -1.
          2   -1    0    0  501    0 -0.00000000000E+00 -0.00000000000E+00 -0.10360343265E+03  0.10360343265E+03  0.00000000000E+00 0. -1.
    9000006    2    1    2  501    0  0.00000000000E+00  0.00000000000E+00  0.89639656735E+03  0.11036034326E+04  0.64374974221E+03 0.  0.
         13    1    3    3    0    0 -0.27444942137E+03  0.16354435970E+03  0.51534666874E+03  0.60634266835E+03  0.00000000000E+00 0. -1.
          4    1    3    3  501    0  0.27444942137E+03 -0.16354435970E+03  0.38104989862E+03  0.49726076430E+03  0.00000000000E+00 0. -1.
<mgrwt>
<rscale>  0 0.64374974E+03</rscale>
<asrwt>0</asrwt>
<pdfrwt beam="1">0</pdfrwt>
<pdfrwt beam="2">  1        2 0.37674055E+00 0.64374974E+03</pdfrwt>
<totfact> 0.48619420E+00</totfact>
</mgrwt>
</event>
<event>
 5    1  0.2311484E-004  0.6476503E+03  0.7818608E-02  0.9811198E-01
         13   -1    0    0    0    0  0.00000000000E+00  0.00000000000E+00  0.10000000000E+04  0.10000000000E+04  0.00000000000E+00 0. -1.
          2   -1    0    0  501    0 -0.00000000000E+00 -0.00000000000E+00 -0.10486273956E+03  0.10486273956E+03  0.00000000000E+00 0. -1.
    9000006    2    1    2  501    0  0.00000000000E+00  0.00000000000E+00  0.89513726044E+03  0.11048627396E+04  0.64765033641E+03 0.  0.
         13    1    3    3    0    0  0.10250188409E+02  0.32209610345E+03  0.39330493698E+03  0.50846803210E+03  0.00000000000E+00 0. -1.
          4    1    3    3  501    0 -0.10250188409E+02 -0.32209610345E+03  0.50183232346E+03  0.59639470746E+03  0.00000000000E+00 0. -1.
<mgrwt>
<rscale>  0 0.64765034E+03</rscale>
<asrwt>0</asrwt>
<pdfrwt beam="1">0</pdfrwt>
<pdfrwt beam="2">  1        2 0.38131986E+00 0.64765034E+03</pdfrwt>
<totfact> 0.46751480E+00</totfact>
</mgrwt>
</event>
<event>
 5    1  0.2311484E-004  0.6434133E+03  0.7818608E-02  0.9819218E-01
         13   -1    0    0    0    0  0.00000000000E+00  0.00000000000E+00  0.10000000000E+04  0.10000000000E+04  0.00000000000E+00 0. -1.
          2   -1    0    0  501    0 -0.00000000000E+00 -0.00000000000E+00 -0.10349516234E+03  0.10349516234E+03  0.00000000000E+00 0. -1.
    9000006    2    1    2  501    0  0.00000000000E+00  0.00000000000E+00  0.89650483766E+03  0.11034951623E+04  0.64341328037E+03 0.  0.
         13    1    3    3    0    0  0.17531032276E+03  0.42561823397E+02  0.90508433948E+03  0.92288833542E+03  0.00000000000E+00 0. -1.
          2    1    3    3  501    0 -0.17531032276E+03 -0.42561823397E+02 -0.85795018218E+01  0.18060682692E+03  0.00000000000E+00 0. -1.
<mgrwt>
<rscale>  0 0.64341328E+03</rscale>
<asrwt>0</asrwt>
<pdfrwt beam="1">0</pdfrwt>
<pdfrwt beam="2">  1        2 0.37634684E+00 0.64341328E+03</pdfrwt>
<totfact> 0.48783151E+00</totfact>
</mgrwt>
</event>
<event>
 5    1  0.2311484E-004  0.6482515E+03  0.7818608E-02  0.9810066E-01
         13   -1    0    0    0    0  0.00000000000E+00  0.00000000000E+00  0.10000000000E+04  0.10000000000E+04  0.00000000000E+00 0. -1.
          2   -1    0    0  501    0 -0.00000000000E+00 -0.00000000000E+00 -0.10505751695E+03  0.10505751695E+03  0.00000000000E+00 0. -1.
    9000006    2    1    2  501    0  0.00000000000E+00  0.00000000000E+00  0.89494248305E+03  0.11050575170E+04  0.64825154670E+03 0.  0.
         13    1    3    3    0    0  0.18648624656E+03 -0.10277623016E+03  0.30897467904E+02  0.21516209509E+03  0.00000000000E+00 0. -1.
          2    1    3    3  501    0 -0.18648624656E+03  0.10277623016E+03  0.86404501515E+03  0.88989542186E+03  0.00000000000E+00 0. -1.
<mgrwt>
<rscale>  0 0.64825155E+03</rscale>
<asrwt>0</asrwt>
<pdfrwt beam="1">0</pdfrwt>
<pdfrwt beam="2">  1        2 0.38202814E+00 0.64825155E+03</pdfrwt>
<totfact> 0.46468471E+00</totfact>
</mgrwt>
</event>
<event>
 5    1  0.2311484E-004  0.6490568E+03  0.7818608E-02  0.9808551E-01
         13   -1    0    0    0    0  0.00000000000E+00  0.00000000000E+00  0.10000000000E+04  0.10000000000E+04  0.00000000000E+00 0. -1.
          2   -1    0    0  501    0 -0.00000000000E+00 -0.00000000000E+00 -0.10531869690E+03  0.10531869690E+03  0.00000000000E+00 0. -1.
    9000006    2    1    2  501    0  0.00000000000E+00  0.00000000000E+00  0.89468130310E+03  0.11053186969E+04  0.64905684467E+03 0.  0.
         13    1    3    3    0    0  0.10576144307E+03  0.14307932431E+03 -0.14854221083E+02  0.17854361867E+03  0.00000000000E+00 0. -1.
          4    1    3    3  501    0 -0.10576144307E+03 -0.14307932431E+03  0.90953552418E+03  0.92677507823E+03  0.00000000000E+00 0. -1.
<mgrwt>
<rscale>  0 0.64905684E+03</rscale>
<asrwt>0</asrwt>
<pdfrwt beam="1">0</pdfrwt>
<pdfrwt beam="2">  1        2 0.38297789E+00 0.64905684E+03</pdfrwt>
<totfact> 0.46091422E+00</totfact>
</mgrwt>
</event>
<event>
 5    1  0.2311484E-004  0.6076134E+03  0.7818608E-02  0.9889735E-01
         13   -1    0    0    0    0  0.00000000000E+00  0.00000000000E+00  0.10000000000E+04  0.10000000000E+04  0.00000000000E+00 0. -1.
          2   -1    0    0  501    0 -0.00000000000E+00 -0.00000000000E+00 -0.92298526036E+02  0.92298526036E+02  0.00000000000E+00 0. -1.
    9000006    2    1    2  501    0  0.00000000000E+00  0.00000000000E+00  0.90770147396E+03  0.10922985260E+04  0.60761344961E+03 0.  0.
         13    1    3    3    0    0 -0.14229379230E+03  0.13265989794E+03  0.87334140070E+03  0.89474654178E+03  0.00000000000E+00 0. -1.
          4    1    3    3  501    0  0.14229379230E+03 -0.13265989794E+03  0.34360073262E+02  0.19755198426E+03  0.00000000000E+00 0. -1.
<mgrwt>
<rscale>  0 0.60761345E+03</rscale>
<asrwt>0</asrwt>
<pdfrwt beam="1">0</pdfrwt>
<pdfrwt beam="2">  1        2 0.33563171E+00 0.60761345E+03</pdfrwt>
<totfact> 0.68746213E+00</totfact>
</mgrwt>
</event>
<event>
 5    1  0.2311484E-004  0.6413273E+03  0.7818608E-02  0.9823190E-01
         13   -1    0    0    0    0  0.00000000000E+00  0.00000000000E+00  0.10000000000E+04  0.10000000000E+04  0.00000000000E+00 0. -1.
          2   -1    0    0  501    0 -0.00000000000E+00 -0.00000000000E+00 -0.10282516936E+03  0.10282516936E+03  0.00000000000E+00 0. -1.
    9000006    2    1    2  501    0  0.00000000000E+00  0.00000000000E+00  0.89717483064E+03  0.11028251694E+04  0.64132727796E+03 0.  0.
         13    1    3    3    0    0  0.12915490453E+03 -0.26718426453E+03  0.65747965145E+03  0.72135144877E+03  0.00000000000E+00 0. -1.
          4    1    3    3  501    0 -0.12915490453E+03  0.26718426453E+03  0.23969517919E+03  0.38147372059E+03  0.00000000000E+00 0. -1.
<mgrwt>
<rscale>  0 0.64132728E+03</rscale>
<asrwt>0</asrwt>
<pdfrwt beam="1">0</pdfrwt>
<pdfrwt beam="2">  1        2 0.37391050E+00 0.64132728E+03</pdfrwt>
<totfact> 0.49807653E+00</totfact>
</mgrwt>
</event>
<event>
 5    1  0.2311484E-004  0.6375575E+03  0.7818608E-02  0.9830411E-01
         13   -1    0    0    0    0  0.00000000000E+00  0.00000000000E+00  0.10000000000E+04  0.10000000000E+04  0.00000000000E+00 0. -1.
          2   -1    0    0  501    0 -0.00000000000E+00 -0.00000000000E+00 -0.10161987891E+03  0.10161987891E+03  0.00000000000E+00 0. -1.
    9000006    2    1    2  501    0  0.00000000000E+00  0.00000000000E+00  0.89838012109E+03  0.11016198789E+04  0.63755746066E+03 0.  0.
         13    1    3    3    0    0 -0.27668409575E+03 -0.15826299590E+03  0.44173528456E+03  0.54473050799E+03  0.00000000000E+00 0. -1.
          2    1    3    3  501    0  0.27668409575E+03  0.15826299590E+03  0.45664483653E+03  0.55688937092E+03  0.00000000000E+00 0. -1.
<mgrwt>
<rscale>  0 0.63755746E+03</rscale>
<asrwt>0</asrwt>
<pdfrwt beam="1">0</pdfrwt>
<pdfrwt beam="2">  1        2 0.36952761E+00 0.63755746E+03</pdfrwt>
<totfact> 0.51700426E+00</totfact>
</mgrwt>
</event>
<event>
 5    1  0.2311484E-004  0.6680572E+03  0.7818608E-02  0.9773474E-01
         13   -1    0    0    0    0  0.00000000000E+00  0.00000000000E+00  0.10000000000E+04  0.10000000000E+04  0.00000000000E+00 0. -1.
          2   -1    0    0  501    0 -0.00000000000E+00 -0.00000000000E+00 -0.11157509366E+03  0.11157509366E+03  0.00000000000E+00 0. -1.
    9000006    2    1    2  501    0  0.00000000000E+00  0.00000000000E+00  0.88842490634E+03  0.11115750937E+04  0.66805716420E+03 0.  0.
         13    1    3    3    0    0 -0.25967398306E+03 -0.46202935848E+02  0.78524867936E+03  0.82836029431E+03  0.00000000000E+00 0. -1.
          4    1    3    3  501    0  0.25967398306E+03  0.46202935848E+02  0.10317622698E+03  0.28321479935E+03  0.00000000000E+00 0. -1.
<mgrwt>
<rscale>  0 0.66805716E+03</rscale>
<asrwt>0</asrwt>
<pdfrwt beam="1">0</pdfrwt>
<pdfrwt beam="2">  1        2 0.40572847E+00 0.66805716E+03</pdfrwt>
<totfact> 0.37846529E+00</totfact>
</mgrwt>
</event>
<event>
 5    1  0.2311484E-004  0.6462678E+03  0.7818608E-02  0.9813808E-01
         13   -1    0    0    0    0  0.00000000000E+00  0.00000000000E+00  0.10000000000E+04  0.10000000000E+04  0.00000000000E+00 0. -1.
          2   -1    0    0  501    0 -0.00000000000E+00 -0.00000000000E+00 -0.10441551145E+03  0.10441551145E+03  0.00000000000E+00 0. -1.
    9000006    2    1    2  501    0  0.00000000000E+00  0.00000000000E+00  0.89558448855E+03  0.11044155115E+04  0.64626778181E+03 0.  0.
         13    1    3    3    0    0 -0.30149453957E+03 -0.11489152612E+03  0.47819415434E+03  0.57686104861E+03  0.00000000000E+00 0. -1.
          4    1    3    3  501    0  0.30149453957E+03  0.11489152612E+03  0.41739033421E+03  0.52755446284E+03  0.00000000000E+00 0. -1.
<mgrwt>
<rscale>  0 0.64626778E+03</rscale>
<asrwt>0</asrwt>
<pdfrwt beam="1">0</pdfrwt>
<pdfrwt beam="2">  1        2 0.37969357E+00 0.64626778E+03</pdfrwt>
<totfact> 0.47407239E+00</totfact>
</mgrwt>
</event>
<event>
 5    1  0.2311484E-004  0.6481711E+03  0.7818608E-02  0.9810217E-01
         13   -1    0    0    0    0  0.00000000000E+00  0.00000000000E+00  0.10000000000E+04  0.10000000000E+04  0.00000000000E+00 0. -1.
          2   -1    0    0  501    0 -0.00000000000E+00 -0.00000000000E+00 -0.10503143543E+03  0.10503143543E+03  0.00000000000E+00 0. -1.
    9000006    2    1    2  501    0  0.00000000000E+00  0.00000000000E+00  0.89496856457E+03  0.11050314354E+04  0.64817107442E+03 0.  0.
         13    1    3    3    0    0  0.50945565813E+02 -0.98438393942E+02  0.96668139688E+03  0.97301515463E+03  0.00000000000E+00 0. -1.
          4    1    3    3  501    0 -0.50945565813E+02  0.98438393942E+02 -0.71712832305E+02  0.13201628080E+03  0.00000000000E+00 0. -1.
<mgrwt>
<rscale>  0 0.64817107E+03</rscale>
<asrwt>0</asrwt>
<pdfrwt beam="1">0</pdfrwt>
<pdfrwt beam="2">  1        2 0.38193330E+00 0.64817107E+03</pdfrwt>
<totfact> 0.46506276E+00</totfact>
</mgrwt>
</event>
<event>
 5    1  0.2311484E-004  0.6517283E+03  0.7818608E-02  0.9803542E-01
         13   -1    0    0    0    0  0.00000000000E+00  0.00000000000E+00  0.10000000000E+04  0.10000000000E+04  0.00000000000E+00 0. -1.
          2   -1    0    0  501    0 -0.00000000000E+00 -0.00000000000E+00 -0.10618743201E+03  0.10618743201E+03  0.00000000000E+00 0. -1.
    9000006    2    1    2  501    0  0.00000000000E+00  0.00000000000E+00  0.89381256799E+03  0.11061874320E+04  0.65172826242E+03 0.  0.
         13    1    3    3    0    0 -0.36842099269E+02  0.15339640887E+02  0.99583656082E+03  0.99663589175E+03  0.00000000000E+00 0. -1.
          4    1    3    3  501    0  0.36842099269E+02 -0.15339640887E+02 -0.10202399283E+03  0.10955154026E+03  0.00000000000E+00 0. -1.
<mgrwt>
<rscale>  0 0.65172826E+03</rscale>
<asrwt>0</asrwt>
<pdfrwt beam="1">0</pdfrwt>
<pdfrwt beam="2">  1        2 0.38613693E+00 0.65172826E+03</pdfrwt>
<totfact> 0.44857175E+00</totfact>
</mgrwt>
</event>
<event>
 5    1  0.2311484E-004  0.6372997E+03  0.7818608E-02  0.9830907E-01
         13   -1    0    0    0    0  0.00000000000E+00  0.00000000000E+00  0.10000000000E+04  0.10000000000E+04  0.00000000000E+00 0. -1.
          2   -1    0    0  501    0 -0.00000000000E+00 -0.00000000000E+00 -0.10153772803E+03  0.10153772803E+03  0.00000000000E+00 0. -1.
    9000006    2    1    2  501    0  0.00000000000E+00  0.00000000000E+00  0.89846227197E+03  0.11015377280E+04  0.63729970352E+03 0.  0.
         13    1    3    3    0    0 -0.14708735221E+03  0.24658959314E+03  0.68808584917E+03  0.74558919819E+03  0.00000000000E+00 0. -1.
          2    1    3    3  501    0  0.14708735221E+03 -0.24658959314E+03  0.21037642280E+03  0.35594852984E+03  0.00000000000E+00 0. -1.
<mgrwt>
<rscale>  0 0.63729970E+03</rscale>
<asrwt>0</asrwt>
<pdfrwt beam="1">0</pdfrwt>
<pdfrwt beam="2">  1        2 0.36922888E+00 0.63729970E+03</pdfrwt>
<totfact> 0.51831803E+00</totfact>
</mgrwt>
</event>
<event>
 5    1  0.2311484E-004  0.6434640E+03  0.7818608E-02  0.9819121E-01
         13   -1    0    0    0    0  0.00000000000E+00  0.00000000000E+00  0.10000000000E+04  0.10000000000E+04  0.00000000000E+00 0. -1.
          2   -1    0    0  501    0 -0.00000000000E+00 -0.00000000000E+00 -0.10351147058E+03  0.10351147058E+03  0.00000000000E+00 0. -1.
    9000006    2    1    2  501    0  0.00000000000E+00  0.00000000000E+00  0.89648852942E+03  0.11035114706E+04  0.64346397125E+03 0.  0.
         13    1    3    3    0    0 -0.26326377116E+03  0.77963460112E+02  0.73585270904E+03  0.78540774361E+03  0.00000000000E+00 0. -1.
          2    1    3    3  501    0  0.26326377116E+03 -0.77963460112E+02  0.16063582038E+03  0.31810372697E+03  0.00000000000E+00 0. -1.
<mgrwt>
<rscale>  0 0.64346397E+03</rscale>
<asrwt>0</asrwt>
<pdfrwt beam="1">0</pdfrwt>
<pdfrwt beam="2">  1        2 0.37640614E+00 0.64346397E+03</pdfrwt>
<totfact> 0.48758457E+00</totfact>
</mgrwt>
</event>
<event>
 5    1  0.2311484E-004  0.6477564E+03  0.7818608E-02  0.9810998E-01
         13   -1    0    0    0    0  0.00000000000E+00  0.00000000000E+00  0.10000000000E+04  0.10000000000E+04  0.00000000000E+00 0. -1.
          2   -1    0    0  501    0 -0.00000000000E+00 -0.00000000000E+00 -0.10489707844E+03  0.10489707844E+03  0.00000000000E+00 0. -1.
    9000006    2    1    2  501    0  0.00000000000E+00  0.00000000000E+00  0.89510292156E+03  0.11048970784E+04  0.64775636914E+03 0.  0.
         13    1    3    3    0    0 -0.20661969196E+03  0.91256462232E+02  0.84347781701E+03  0.87319772492E+03  0.00000000000E+00 0. -1.
          4    1    3    3  501    0  0.20661969196E+03 -0.91256462232E+02  0.51625104547E+02  0.23169935352E+03  0.00000000000E+00 0. -1.
<mgrwt>
<rscale>  0 0.64775637E+03</rscale>
<asrwt>0</asrwt>
<pdfrwt beam="1">0</pdfrwt>
<pdfrwt beam="2">  1        2 0.38144473E+00 0.64775637E+03</pdfrwt>
<totfact> 0.46701473E+00</totfact>
</mgrwt>
</event>
<event>
 5    1  0.2311484E-004  0.6605558E+03  0.7818608E-02  0.9787171E-01
         13   -1    0    0    0    0  0.00000000000E+00  0.00000000000E+00  0.10000000000E+04  0.10000000000E+04  0.00000000000E+00 0. -1.
          2   -1    0    0  501    0 -0.00000000000E+00 -0.00000000000E+00 -0.10908349352E+03  0.10908349352E+03  0.00000000000E+00 0. -1.
    9000006    2    1    2  501    0  0.00000000000E+00  0.00000000000E+00  0.89091650648E+03  0.11090834935E+04  0.66055580694E+03 0.  0.
         13    1    3    3    0    0  0.69119096349E+02 -0.30417532084E+03  0.62771783663E+03  0.70094918340E+03  0.00000000000E+00 0. -1.
          2    1    3    3  501    0 -0.69119096349E+02  0.30417532084E+03  0.26319866985E+03  0.40813431012E+03  0.00000000000E+00 0. -1.
<mgrwt>
<rscale>  0 0.66055581E+03</rscale>
<asrwt>0</asrwt>
<pdfrwt beam="1">0</pdfrwt>
<pdfrwt beam="2">  1        2 0.39666809E+00 0.66055581E+03</pdfrwt>
<totfact> 0.40955585E+00</totfact>
</mgrwt>
</event>
<event>
 5    1  0.2311484E-004  0.5600943E+03  0.7818608E-02  0.9991841E-01
         13   -1    0    0    0    0  0.00000000000E+00  0.00000000000E+00  0.10000000000E+04  0.10000000000E+04  0.00000000000E+00 0. -1.
          2   -1    0    0  501    0 -0.00000000000E+00 -0.00000000000E+00 -0.78426407217E+02  0.78426407217E+02  0.00000000000E+00 0. -1.
    9000006    2    1    2  501    0  0.00000000000E+00  0.00000000000E+00  0.92157359278E+03  0.10784264072E+04  0.56009430355E+03 0.  0.
         13    1    3    3    0    0  0.46973189653E+02  0.22707680418E+03  0.15844991856E+03  0.28085001734E+03  0.00000000000E+00 0. -1.
          2    1    3    3  501    0 -0.46973189653E+02 -0.22707680418E+03  0.76312367422E+03  0.79757638988E+03  0.00000000000E+00 0. -1.
<mgrwt>
<rscale>  0 0.56009430E+03</rscale>
<asrwt>0</asrwt>
<pdfrwt beam="1">0</pdfrwt>
<pdfrwt beam="2">  1        2 0.28518754E+00 0.56009430E+03</pdfrwt>
<totfact> 0.10429901E+01</totfact>
</mgrwt>
</event>
<event>
 5    1  0.2311484E-004  0.6471611E+03  0.7818608E-02  0.9812121E-01
         13   -1    0    0    0    0  0.00000000000E+00  0.00000000000E+00  0.10000000000E+04  0.10000000000E+04  0.00000000000E+00 0. -1.
          2   -1    0    0  501    0 -0.00000000000E+00 -0.00000000000E+00 -0.10470437849E+03  0.10470437849E+03  0.00000000000E+00 0. -1.
    9000006    2    1    2  501    0  0.00000000000E+00  0.00000000000E+00  0.89529562151E+03  0.11047043785E+04  0.64716111902E+03 0.  0.
         13    1    3    3    0    0  0.15646770780E+03  0.27804960870E+03  0.35555438007E+03  0.47771607223E+03  0.00000000000E+00 0. -1.
          4    1    3    3  501    0 -0.15646770780E+03 -0.27804960870E+03  0.53974124144E+03  0.62698830626E+03  0.00000000000E+00 0. -1.
<mgrwt>
<rscale>  0 0.64716112E+03</rscale>
<asrwt>0</asrwt>
<pdfrwt beam="1">0</pdfrwt>
<pdfrwt beam="2">  1        2 0.38074400E+00 0.64716112E+03</pdfrwt>
<totfact> 0.46982731E+00</totfact>
</mgrwt>
</event>
<event>
 5    1  0.2311484E-004  0.6496087E+03  0.7818608E-02  0.9807514E-01
         13   -1    0    0    0    0  0.00000000000E+00  0.00000000000E+00  0.10000000000E+04  0.10000000000E+04  0.00000000000E+00 0. -1.
          2   -1    0    0  501    0 -0.00000000000E+00 -0.00000000000E+00 -0.10549786846E+03  0.10549786846E+03  0.00000000000E+00 0. -1.
    9000006    2    1    2  501    0  0.00000000000E+00  0.00000000000E+00  0.89450213154E+03  0.11054978685E+04  0.64960870825E+03 0.  0.
         13    1    3    3    0    0 -0.27531845156E+02 -0.29760473225E+03  0.23084053273E+03  0.37764259652E+03  0.00000000000E+00 0. -1.
          2    1    3    3  501    0  0.27531845156E+02  0.29760473225E+03  0.66366159881E+03  0.72785527194E+03  0.00000000000E+00 0. -1.
<mgrwt>
<rscale>  0 0.64960871E+03</rscale>
<asrwt>0</asrwt>
<pdfrwt beam="1">0</pdfrwt>
<pdfrwt beam="2">  1        2 0.38362942E+00 0.64960871E+03</pdfrwt>
<totfact> 0.45834373E+00</totfact>
</mgrwt>
</event>
<event>
 5    1  0.2311484E-004  0.6483818E+03  0.7818608E-02  0.9809820E-01
         13   -1    0    0    0    0  0.00000000000E+00  0.00000000000E+00  0.10000000000E+04  0.10000000000E+04  0.00000000000E+00 0. -1.
          2   -1    0    0  501    0 -0.00000000000E+00 -0.00000000000E+00 -0.10509975091E+03  0.10509975091E+03  0.00000000000E+00 0. -1.
    9000006    2    1    2  501    0  0.00000000000E+00  0.00000000000E+00  0.89490024909E+03  0.11050997509E+04  0.64838183475E+03 0.  0.
         13    1    3    3    0    0  0.16633495171E+03  0.21249524990E+03  0.14123592913E+03  0.30458026047E+03  0.00000000000E+00 0. -1.
          4    1    3    3  501    0 -0.16633495171E+03 -0.21249524990E+03  0.75366431996E+03  0.80051949044E+03  0.00000000000E+00 0. -1.
<mgrwt>
<rscale>  0 0.64838183E+03</rscale>
<asrwt>0</asrwt>
<pdfrwt beam="1">0</pdfrwt>
<pdfrwt beam="2">  1        2 0.38218172E+00 0.64838183E+03</pdfrwt>
<totfact> 0.46407311E+00</totfact>
</mgrwt>
</event>
<event>
 5    1  0.2311484E-004  0.6440256E+03  0.7818608E-02  0.9818055E-01
         13   -1    0    0    0    0  0.00000000000E+00  0.00000000000E+00  0.10000000000E+04  0.10000000000E+04  0.00000000000E+00 0. -1.
          2   -1    0    0  501    0 -0.00000000000E+00 -0.00000000000E+00 -0.10369222845E+03  0.10369222845E+03  0.00000000000E+00 0. -1.
    9000006    2    1    2  501    0  0.00000000000E+00  0.00000000000E+00  0.89630777155E+03  0.11036922284E+04  0.64402555367E+03 0.  0.
         13    1    3    3    0    0  0.30270328298E+03 -0.40375074510E+02  0.62319715457E+03  0.69399864383E+03  0.00000000000E+00 0. -1.
          2    1    3    3  501    0 -0.30270328298E+03  0.40375074510E+02  0.27311061698E+03  0.40969358462E+03  0.00000000000E+00 0. -1.
<mgrwt>
<rscale>  0 0.64402555E+03</rscale>
<asrwt>0</asrwt>
<pdfrwt beam="1">0</pdfrwt>
<pdfrwt beam="2">  1        2 0.37706344E+00 0.64402555E+03</pdfrwt>
<totfact> 0.48485513E+00</totfact>
</mgrwt>
</event>
<event>
 5    1  0.2311484E-004  0.6424184E+03  0.7818608E-02  0.9821110E-01
         13   -1    0    0    0    0  0.00000000000E+00  0.00000000000E+00  0.10000000000E+04  0.10000000000E+04  0.00000000000E+00 0. -1.
          2   -1    0    0  501    0 -0.00000000000E+00 -0.00000000000E+00 -0.10317535813E+03  0.10317535813E+03  0.00000000000E+00 0. -1.
    9000006    2    1    2  501    0  0.00000000000E+00  0.00000000000E+00  0.89682464187E+03  0.11031753581E+04  0.64241842480E+03 0.  0.
         13    1    3    3    0    0 -0.75696342103E+02 -0.68058410468E+02  0.97156936837E+03  0.97688736352E+03  0.00000000000E+00 0. -1.
          4    1    3    3  501    0  0.75696342103E+02  0.68058410468E+02 -0.74744726505E+02  0.12628799461E+03  0.00000000000E+00 0. -1.
<mgrwt>
<rscale>  0 0.64241842E+03</rscale>
<asrwt>0</asrwt>
<pdfrwt beam="1">0</pdfrwt>
<pdfrwt beam="2">  1        2 0.37518391E+00 0.64241842E+03</pdfrwt>
<totfact> 0.49269729E+00</totfact>
</mgrwt>
</event>
<event>
 5    1  0.2311484E-004  0.6524414E+03  0.7818608E-02  0.9802209E-01
         13   -1    0    0    0    0  0.00000000000E+00  0.00000000000E+00  0.10000000000E+04  0.10000000000E+04  0.00000000000E+00 0. -1.
          2   -1    0    0  501    0 -0.00000000000E+00 -0.00000000000E+00 -0.10641994876E+03  0.10641994876E+03  0.00000000000E+00 0. -1.
    9000006    2    1    2  501    0  0.00000000000E+00  0.00000000000E+00  0.89358005124E+03  0.11064199488E+04  0.65244141121E+03 0.  0.
         13    1    3    3    0    0 -0.31327590531E+03 -0.81885725974E+02  0.37953468153E+03  0.49889241270E+03  0.00000000000E+00 0. -1.
          4    1    3    3  501    0  0.31327590531E+03  0.81885725974E+02  0.51404536971E+03  0.60752753607E+03  0.00000000000E+00 0. -1.
<mgrwt>
<rscale>  0 0.65244141E+03</rscale>
<asrwt>0</asrwt>
<pdfrwt beam="1">0</pdfrwt>
<pdfrwt beam="2">  1        2 0.38698245E+00 0.65244141E+03</pdfrwt>
<totfact> 0.44531952E+00</totfact>
</mgrwt>
</event>
<event>
 5    1  0.2311484E-004  0.6188897E+03  0.7818608E-02  0.9866973E-01
         13   -1    0    0    0    0  0.00000000000E+00  0.00000000000E+00  0.10000000000E+04  0.10000000000E+04  0.00000000000E+00 0. -1.
          2   -1    0    0  501    0 -0.00000000000E+00 -0.00000000000E+00 -0.95756123602E+02  0.95756123602E+02  0.00000000000E+00 0. -1.
    9000006    2    1    2  501    0  0.00000000000E+00  0.00000000000E+00  0.90424387640E+03  0.10957561236E+04  0.61888972718E+03 0.  0.
         13    1    3    3    0    0  0.20731853457E+03 -0.19459227912E+03  0.66830656056E+03  0.72627872663E+03  0.00000000000E+00 0. -1.
          4    1    3    3  501    0 -0.20731853457E+03  0.19459227912E+03  0.23593731584E+03  0.36947739698E+03  0.00000000000E+00 0. -1.
<mgrwt>
<rscale>  0 0.61888973E+03</rscale>
<asrwt>0</asrwt>
<pdfrwt beam="1">0</pdfrwt>
<pdfrwt beam="2">  1        2 0.34820482E+00 0.61888973E+03</pdfrwt>
<totfact> 0.61890918E+00</totfact>
</mgrwt>
</event>
<event>
 5    1  0.2311484E-004  0.6816321E+03  0.7818608E-02  0.9749170E-01
         13   -1    0    0    0    0  0.00000000000E+00  0.00000000000E+00  0.10000000000E+04  0.10000000000E+04  0.00000000000E+00 0. -1.
          2   -1    0    0  501    0 -0.00000000000E+00 -0.00000000000E+00 -0.11615557379E+03  0.11615557379E+03  0.00000000000E+00 0. -1.
    9000006    2    1    2  501    0  0.00000000000E+00  0.00000000000E+00  0.88384442621E+03  0.11161555738E+04  0.68163208197E+03 0.  0.
         13    1    3    3    0    0  0.23135310981E+02 -0.32190183587E+03  0.62129518125E+03  0.70011694508E+03  0.00000000000E+00 0. -1.
          2    1    3    3  501    0 -0.23135310981E+02  0.32190183587E+03  0.26254924496E+03  0.41603862871E+03  0.00000000000E+00 0. -1.
<mgrwt>
<rscale>  0 0.68163208E+03</rscale>
<asrwt>0</asrwt>
<pdfrwt beam="1">0</pdfrwt>
<pdfrwt beam="2">  1        2 0.42238480E+00 0.68163208E+03</pdfrwt>
<totfact> 0.32676376E+00</totfact>
</mgrwt>
</event>
<event>
 5    1  0.2311484E-004  0.6488311E+03  0.7818608E-02  0.9808975E-01
         13   -1    0    0    0    0  0.00000000000E+00  0.00000000000E+00  0.10000000000E+04  0.10000000000E+04  0.00000000000E+00 0. -1.
          2   -1    0    0  501    0 -0.00000000000E+00 -0.00000000000E+00 -0.10524544397E+03  0.10524544397E+03  0.00000000000E+00 0. -1.
    9000006    2    1    2  501    0  0.00000000000E+00  0.00000000000E+00  0.89475455603E+03  0.11052454440E+04  0.64883108425E+03 0.  0.
         13    1    3    3    0    0  0.16051984669E+03  0.19475788126E+03  0.79459600654E+03  0.83371461970E+03  0.00000000000E+00 0. -1.
          4    1    3    3  501    0 -0.16051984669E+03 -0.19475788126E+03  0.10015854949E+03  0.27153082427E+03  0.00000000000E+00 0. -1.
<mgrwt>
<rscale>  0 0.64883108E+03</rscale>
<asrwt>0</asrwt>
<pdfrwt beam="1">0</pdfrwt>
<pdfrwt beam="2">  1        2 0.38271151E+00 0.64883108E+03</pdfrwt>
<totfact> 0.46196891E+00</totfact>
</mgrwt>
</event>
<event>
 5    1  0.2311484E-004  0.6455108E+03  0.7818608E-02  0.9815239E-01
         13   -1    0    0    0    0  0.00000000000E+00  0.00000000000E+00  0.10000000000E+04  0.10000000000E+04  0.00000000000E+00 0. -1.
          2   -1    0    0  501    0 -0.00000000000E+00 -0.00000000000E+00 -0.10417105335E+03  0.10417105335E+03  0.00000000000E+00 0. -1.
    9000006    2    1    2  501    0  0.00000000000E+00  0.00000000000E+00  0.89582894665E+03  0.11041710534E+04  0.64551081588E+03 0.  0.
         13    1    3    3    0    0 -0.19167874725E+03  0.66837725569E+02  0.18698730486E+02  0.20385697493E+03  0.00000000000E+00 0. -1.
          4    1    3    3  501    0  0.19167874725E+03 -0.66837725569E+02  0.87713021616E+03  0.90031407842E+03  0.00000000000E+00 0. -1.
<mgrwt>
<rscale>  0 0.64551082E+03</rscale>
<asrwt>0</asrwt>
<pdfrwt beam="1">0</pdfrwt>
<pdfrwt beam="2">  1        2 0.37880463E+00 0.64551082E+03</pdfrwt>
<totfact> 0.47769209E+00</totfact>
</mgrwt>
</event>
<event>
 5    1  0.2311484E-004  0.6566596E+03  0.7818608E-02  0.9794363E-01
         13   -1    0    0    0    0  0.00000000000E+00  0.00000000000E+00  0.10000000000E+04  0.10000000000E+04  0.00000000000E+00 0. -1.
          2   -1    0    0  501    0 -0.00000000000E+00 -0.00000000000E+00 -0.10780045571E+03  0.10780045571E+03  0.00000000000E+00 0. -1.
    9000006    2    1    2  501    0  0.00000000000E+00  0.00000000000E+00  0.89219954429E+03  0.11078004557E+04  0.65665959435E+03 0.  0.
         13    1    3    3    0    0 -0.32416577354E+03 -0.10495986145E+02  0.53223454999E+03  0.62327139407E+03  0.00000000000E+00 0. -1.
          4    1    3    3  501    0  0.32416577354E+03  0.10495986145E+02  0.35996499430E+03  0.48452906165E+03  0.00000000000E+00 0. -1.
<mgrwt>
<rscale>  0 0.65665959E+03</rscale>
<asrwt>0</asrwt>
<pdfrwt beam="1">0</pdfrwt>
<pdfrwt beam="2">  1        2 0.39200248E+00 0.65665959E+03</pdfrwt>
<totfact> 0.42644564E+00</totfact>
</mgrwt>
</event>
<event>
 5    1  0.2311484E-004  0.6576770E+03  0.7818608E-02  0.9792479E-01
         13   -1    0    0    0    0  0.00000000000E+00  0.00000000000E+00  0.10000000000E+04  0.10000000000E+04  0.00000000000E+00 0. -1.
          2   -1    0    0  501    0 -0.00000000000E+00 -0.00000000000E+00 -0.10813477137E+03  0.10813477137E+03  0.00000000000E+00 0. -1.
    9000006    2    1    2  501    0  0.00000000000E+00  0.00000000000E+00  0.89186522863E+03  0.11081347714E+04  0.65767703738E+03 0.  0.
         13    1    3    3    0    0 -0.22851079964E+03 -0.13395407647E+03  0.11759362680E+03  0.28980880114E+03  0.00000000000E+00 0. -1.
          4    1    3    3  501    0  0.22851079964E+03  0.13395407647E+03  0.77427160183E+03  0.81832597023E+03  0.00000000000E+00 0. -1.
<mgrwt>
<rscale>  0 0.65767704E+03</rscale>
<asrwt>0</asrwt>
<pdfrwt beam="1">0</pdfrwt>
<pdfrwt beam="2">  1        2 0.39321818E+00 0.65767704E+03</pdfrwt>
<totfact> 0.42198508E+00</totfact>
</mgrwt>
</event>
<event>
 5    1  0.2311484E-004  0.6525542E+03  0.7818608E-02  0.9801998E-01
         13   -1    0    0    0    0  0.00000000000E+00  0.00000000000E+00  0.10000000000E+04  0.10000000000E+04  0.00000000000E+00 0. -1.
          2   -1    0    0  501    0 -0.00000000000E+00 -0.00000000000E+00 -0.10645674043E+03  0.10645674043E+03  0.00000000000E+00 0. -1.
    9000006    2    1    2  501    0  0.00000000000E+00  0.00000000000E+00  0.89354325957E+03  0.11064567404E+04  0.65255418298E+03 0.  0.
         13    1    3    3    0    0 -0.70669801350E+02  0.16922632773E+03 -0.10798869823E+02  0.18370733902E+03  0.00000000000E+00 0. -1.
          4    1    3    3  501    0  0.70669801350E+02 -0.16922632773E+03  0.90434212939E+03  0.92274940142E+03  0.00000000000E+00 0. -1.
<mgrwt>
<rscale>  0 0.65255418E+03</rscale>
<asrwt>0</asrwt>
<pdfrwt beam="1">0</pdfrwt>
<pdfrwt beam="2">  1        2 0.38711624E+00 0.65255418E+03</pdfrwt>
<totfact> 0.44480687E+00</totfact>
</mgrwt>
</event>
<event>
 5    1  0.2311484E-004  0.6628396E+03  0.7818608E-02  0.9782980E-01
         13   -1    0    0    0    0  0.00000000000E+00  0.00000000000E+00  0.10000000000E+04  0.10000000000E+04  0.00000000000E+00 0. -1.
          2   -1    0    0  501    0 -0.00000000000E+00 -0.00000000000E+00 -0.10983908673E+03  0.10983908673E+03  0.00000000000E+00 0. -1.
    9000006    2    1    2  501    0  0.00000000000E+00  0.00000000000E+00  0.89016091327E+03  0.11098390867E+04  0.66283960873E+03 0.  0.
         13    1    3    3    0    0  0.11256319212E+03  0.28557051877E+03  0.65433050656E+03  0.72275127480E+03  0.00000000000E+00 0. -1.
          2    1    3    3  501    0 -0.11256319212E+03 -0.28557051877E+03  0.23583040671E+03  0.38708781193E+03  0.00000000000E+00 0. -1.
<mgrwt>
<rscale>  0 0.66283961E+03</rscale>
<asrwt>0</asrwt>
<pdfrwt beam="1">0</pdfrwt>
<pdfrwt beam="2">  1        2 0.39941570E+00 0.66283961E+03</pdfrwt>
<totfact> 0.39989376E+00</totfact>
</mgrwt>
</event>
<event>
 5    1  0.2311484E-004  0.6531785E+03  0.7818608E-02  0.9800833E-01
         13   -1    0    0    0    0  0.00000000000E+00  0.00000000000E+00  0.10000000000E+04  0.10000000000E+04  0.00000000000E+00 0. -1.
          2   -1    0    0  501    0 -0.00000000000E+00 -0.00000000000E+00 -0.10666054360E+03  0.10666054360E+03  0.00000000000E+00 0. -1.
    9000006    2    1    2  501    0  0.00000000000E+00  0.00000000000E+00  0.89333945640E+03  0.11066605436E+04  0.65317851648E+03 0.  0.
         13    1    3    3    0    0  0.22436154348E+03 -0.73420376203E+02  0.82903410945E+03  0.86198968002E+03  0.00000000000E+00 0. -1.
          4    1    3    3  501    0 -0.22436154348E+03  0.73420376203E+02  0.64305346951E+02  0.24467086357E+03  0.00000000000E+00 0. -1.
<mgrwt>
<rscale>  0 0.65317852E+03</rscale>
<asrwt>0</asrwt>
<pdfrwt beam="1">0</pdfrwt>
<pdfrwt beam="2">  1        2 0.38785734E+00 0.65317852E+03</pdfrwt>
<totfact> 0.44197679E+00</totfact>
</mgrwt>
</event>
<event>
 5    1  0.2311484E-004  0.6221594E+03  0.7818608E-02  0.9860470E-01
         13   -1    0    0    0    0  0.00000000000E+00  0.00000000000E+00  0.10000000000E+04  0.10000000000E+04  0.00000000000E+00 0. -1.
          2   -1    0    0  501    0 -0.00000000000E+00 -0.00000000000E+00 -0.96770577061E+02  0.96770577061E+02  0.00000000000E+00 0. -1.
    9000006    2    1    2  501    0  0.00000000000E+00  0.00000000000E+00  0.90322942294E+03  0.10967705771E+04  0.62215939135E+03 0.  0.
         13    1    3    3    0    0 -0.18673696739E+03 -0.16728320315E+03  0.12696292217E+03  0.28102303936E+03  0.00000000000E+00 0. -1.
          4    1    3    3  501    0  0.18673696739E+03  0.16728320315E+03  0.77626650077E+03  0.81574753770E+03  0.00000000000E+00 0. -1.
<mgrwt>
<rscale>  0 0.62215939E+03</rscale>
<asrwt>0</asrwt>
<pdfrwt beam="1">0</pdfrwt>
<pdfrwt beam="2">  1        2 0.35189375E+00 0.62215939E+03</pdfrwt>
<totfact> 0.60004347E+00</totfact>
</mgrwt>
</event>
<event>
 5    1  0.2311484E-004  0.6467138E+03  0.7818608E-02  0.9812965E-01
         13   -1    0    0    0    0  0.00000000000E+00  0.00000000000E+00  0.10000000000E+04  0.10000000000E+04  0.00000000000E+00 0. -1.
          2   -1    0    0  501    0 -0.00000000000E+00 -0.00000000000E+00 -0.10455967161E+03  0.10455967161E+03  0.00000000000E+00 0. -1.
    9000006    2    1    2  501    0  0.00000000000E+00  0.00000000000E+00  0.89544032839E+03  0.11045596716E+04  0.64671375927E+03 0.  0.
         13    1    3    3    0    0 -0.29531359322E+03  0.12019405002E+03  0.53974316293E+03  0.62688069832E+03  0.00000000000E+00 0. -1.
          2    1    3    3  501    0  0.29531359322E+03 -0.12019405002E+03  0.35569716547E+03  0.47767897329E+03  0.00000000000E+00 0. -1.
<mgrwt>
<rscale>  0 0.64671376E+03</rscale>
<asrwt>0</asrwt>
<pdfrwt beam="1">0</pdfrwt>
<pdfrwt beam="2">  1        2 0.38021779E+00 0.64671376E+03</pdfrwt>
<totfact> 0.47194952E+00</totfact>
</mgrwt>
</event>
<event>
 5    1  0.2311484E-004  0.6356220E+03  0.7818608E-02  0.9834139E-01
         13   -1    0    0    0    0  0.00000000000E+00  0.00000000000E+00  0.10000000000E+04  0.10000000000E+04  0.00000000000E+00 0. -1.
          2   -1    0    0  501    0 -0.00000000000E+00 -0.00000000000E+00 -0.10100383758E+03  0.10100383758E+03  0.00000000000E+00 0. -1.
    9000006    2    1    2  501    0  0.00000000000E+00  0.00000000000E+00  0.89899616242E+03  0.11010038376E+04  0.63562201844E+03 0.  0.
         13    1    3    3    0    0  0.16787163504E+03  0.23987779421E+03  0.66362647074E+03  0.72534290833E+03  0.00000000000E+00 0. -1.
          2    1    3    3  501    0 -0.16787163504E+03 -0.23987779421E+03  0.23536969168E+03  0.37566092925E+03  0.00000000000E+00 0. -1.
<mgrwt>
<rscale>  0 0.63562202E+03</rscale>
<asrwt>0</asrwt>
<pdfrwt beam="1">0</pdfrwt>
<pdfrwt beam="2">  1        2 0.36728746E+00 0.63562202E+03</pdfrwt>
<totfact> 0.52693097E+00</totfact>
</mgrwt>
</event>
<event>
 5    1  0.2311484E-004  0.5919496E+03  0.7818608E-02  0.9922250E-01
         13   -1    0    0    0    0  0.00000000000E+00  0.00000000000E+00  0.10000000000E+04  0.10000000000E+04  0.00000000000E+00 0. -1.
          2   -1    0    0  501    0 -0.00000000000E+00 -0.00000000000E+00 -0.87601090170E+02  0.87601090170E+02  0.00000000000E+00 0. -1.
    9000006    2    1    2  501    0  0.00000000000E+00  0.00000000000E+00  0.91239890983E+03  0.10876010902E+04  0.59194962681E+03 0.  0.
         13    1    3    3    0    0 -0.25664981553E+03 -0.10634250862E+03  0.64377927318E+03  0.70116304062E+03  0.00000000000E+00 0. -1.
          4    1    3    3  501    0  0.25664981553E+03  0.10634250862E+03  0.26861963665E+03  0.38643804955E+03  0.00000000000E+00 0. -1.
<mgrwt>
<rscale>  0 0.59194963E+03</rscale>
<asrwt>0</asrwt>
<pdfrwt beam="1">0</pdfrwt>
<pdfrwt beam="2">  1        2 0.31855009E+00 0.59194963E+03</pdfrwt>
<totfact> 0.79218031E+00</totfact>
</mgrwt>
</event>
<event>
 5    1  0.2311484E-004  0.6759786E+03  0.7818608E-02  0.9759217E-01
         13   -1    0    0    0    0  0.00000000000E+00  0.00000000000E+00  0.10000000000E+04  0.10000000000E+04  0.00000000000E+00 0. -1.
          2   -1    0    0  501    0 -0.00000000000E+00 -0.00000000000E+00 -0.11423676608E+03  0.11423676608E+03  0.00000000000E+00 0. -1.
    9000006    2    1    2  501    0  0.00000000000E+00  0.00000000000E+00  0.88576323392E+03  0.11142367661E+04  0.67597859752E+03 0.  0.
         13    1    3    3    0    0 -0.50731391993E+02  0.33243406604E+03  0.38696736549E+03  0.51266931287E+03  0.00000000000E+00 0. -1.
          4    1    3    3  501    0  0.50731391993E+02 -0.33243406604E+03  0.49879586843E+03  0.60156745321E+03  0.00000000000E+00 0. -1.
<mgrwt>
<rscale>  0 0.67597860E+03</rscale>
<asrwt>0</asrwt>
<pdfrwt beam="1">0</pdfrwt>
<pdfrwt beam="2">  1        2 0.41540730E+00 0.67597860E+03</pdfrwt>
<totfact> 0.34760150E+00</totfact>
</mgrwt>
</event>
<event>
 5    1  0.2311484E-004  0.5213549E+03  0.7818608E-02  0.1008351E+00
         13   -1    0    0    0    0  0.00000000000E+00  0.00000000000E+00  0.10000000000E+04  0.10000000000E+04  0.00000000000E+00 0. -1.
          2   -1    0    0  501    0 -0.00000000000E+00 -0.00000000000E+00 -0.67952738464E+02  0.67952738464E+02  0.00000000000E+00 0. -1.
    9000006    2    1    2  501    0  0.00000000000E+00  0.00000000000E+00  0.93204726154E+03  0.10679527385E+04  0.52135492119E+03 0.  0.
         13    1    3    3    0    0  0.21545794213E+03 -0.11309308898E+03  0.27451499787E+03  0.36683873250E+03  0.00000000000E+00 0. -1.
          2    1    3    3  501    0 -0.21545794213E+03  0.11309308898E+03  0.65753226366E+03  0.70111400596E+03  0.00000000000E+00 0. -1.
<mgrwt>
<rscale>  0 0.52135492E+03</rscale>
<asrwt>0</asrwt>
<pdfrwt beam="1">0</pdfrwt>
<pdfrwt beam="2">  1        2 0.24710139E+00 0.52135492E+03</pdfrwt>
<totfact> 0.14278373E+01</totfact>
</mgrwt>
</event>
<event>
 5    1  0.2311484E-004  0.6580225E+03  0.7818608E-02  0.9791841E-01
         13   -1    0    0    0    0  0.00000000000E+00  0.00000000000E+00  0.10000000000E+04  0.10000000000E+04  0.00000000000E+00 0. -1.
          2   -1    0    0  501    0 -0.00000000000E+00 -0.00000000000E+00 -0.10824840038E+03  0.10824840038E+03  0.00000000000E+00 0. -1.
    9000006    2    1    2  501    0  0.00000000000E+00  0.00000000000E+00  0.89175159962E+03  0.11082484004E+04  0.65802249316E+03 0.  0.
         13    1    3    3    0    0  0.95907641239E+02 -0.17738393307E+03  0.80294416763E+01  0.20181131607E+03  0.00000000000E+00 0. -1.
          4    1    3    3  501    0 -0.95907641239E+02  0.17738393307E+03  0.88372215795E+03  0.90643708431E+03  0.00000000000E+00 0. -1.
<mgrwt>
<rscale>  0 0.65802249E+03</rscale>
<asrwt>0</asrwt>
<pdfrwt beam="1">0</pdfrwt>
<pdfrwt beam="2">  1        2 0.39363138E+00 0.65802249E+03</pdfrwt>
<totfact> 0.42047861E+00</totfact>
</mgrwt>
</event>
<event>
 5    1  0.2311484E-004  0.6225783E+03  0.7818608E-02  0.9859640E-01
         13   -1    0    0    0    0  0.00000000000E+00  0.00000000000E+00  0.10000000000E+04  0.10000000000E+04  0.00000000000E+00 0. -1.
          2   -1    0    0  501    0 -0.00000000000E+00 -0.00000000000E+00 -0.96900947036E+02  0.96900947036E+02  0.00000000000E+00 0. -1.
    9000006    2    1    2  501    0  0.00000000000E+00  0.00000000000E+00  0.90309905296E+03  0.10969009470E+04  0.62257833896E+03 0.  0.
         13    1    3    3    0    0 -0.20064400398E+03  0.20027643795E+03  0.67808685219E+03  0.73496288821E+03  0.00000000000E+00 0. -1.
          2    1    3    3  501    0  0.20064400398E+03 -0.20027643795E+03  0.22501220077E+03  0.36193805883E+03  0.00000000000E+00 0. -1.
<mgrwt>
<rscale>  0 0.62257834E+03</rscale>
<asrwt>0</asrwt>
<pdfrwt beam="1">0</pdfrwt>
<pdfrwt beam="2">  1        2 0.35236782E+00 0.62257834E+03</pdfrwt>
<totfact> 0.59765818E+00</totfact>
</mgrwt>
</event>
<event>
 5    1  0.2311484E-004  0.6653230E+03  0.7818608E-02  0.9778444E-01
         13   -1    0    0    0    0  0.00000000000E+00  0.00000000000E+00  0.10000000000E+04  0.10000000000E+04  0.00000000000E+00 0. -1.
          2   -1    0    0  501    0 -0.00000000000E+00 -0.00000000000E+00 -0.11066366453E+03  0.11066366453E+03  0.00000000000E+00 0. -1.
    9000006    2    1    2  501    0  0.00000000000E+00  0.00000000000E+00  0.88933633547E+03  0.11106636645E+04  0.66532297278E+03 0.  0.
         13    1    3    3    0    0  0.32949290320E+03 -0.45803381282E+02  0.44529618349E+03  0.55583470027E+03  0.00000000000E+00 0. -1.
          4    1    3    3  501    0 -0.32949290320E+03  0.45803381282E+02  0.44404015199E+03  0.55482896425E+03  0.00000000000E+00 0. -1.
<mgrwt>
<rscale>  0 0.66532297E+03</rscale>
<asrwt>0</asrwt>
<pdfrwt beam="1">0</pdfrwt>
<pdfrwt beam="2">  1        2 0.40241417E+00 0.66532297E+03</pdfrwt>
<totfact> 0.38958361E+00</totfact>
</mgrwt>
</event>
<event>
 5    1  0.2311484E-004  0.6435174E+03  0.7818608E-02  0.9819020E-01
         13   -1    0    0    0    0  0.00000000000E+00  0.00000000000E+00  0.10000000000E+04  0.10000000000E+04  0.00000000000E+00 0. -1.
          2   -1    0    0  501    0 -0.00000000000E+00 -0.00000000000E+00 -0.10352866525E+03  0.10352866525E+03  0.00000000000E+00 0. -1.
    9000006    2    1    2  501    0  0.00000000000E+00  0.00000000000E+00  0.89647133475E+03  0.11035286653E+04  0.64351741314E+03 0.  0.
         13    1    3    3    0    0 -0.52232026642E+02 -0.21704976574E+03  0.84558229531E+03  0.87455600367E+03  0.00000000000E+00 0. -1.
          2    1    3    3  501    0  0.52232026642E+02  0.21704976574E+03  0.50889039434E+02  0.22897266158E+03  0.00000000000E+00 0. -1.
<mgrwt>
<rscale>  0 0.64351741E+03</rscale>
<asrwt>0</asrwt>
<pdfrwt beam="1">0</pdfrwt>
<pdfrwt beam="2">  1        2 0.37646867E+00 0.64351741E+03</pdfrwt>
<totfact> 0.48732433E+00</totfact>
</mgrwt>
</event>
<event>
 5    1  0.2311484E-004  0.7453811E+03  0.7818608E-02  0.9642625E-01
         13   -1    0    0    0    0  0.00000000000E+00  0.00000000000E+00  0.10000000000E+04  0.10000000000E+04  0.00000000000E+00 0. -1.
          2   -1    0    0  501    0 -0.00000000000E+00 -0.00000000000E+00 -0.13889824563E+03  0.13889824563E+03  0.00000000000E+00 0. -1.
    9000006    2    1    2  501    0  0.00000000000E+00  0.00000000000E+00  0.86110175437E+03  0.11388982456E+04  0.74538109884E+03 0.  0.
         13    1    3    3    0    0 -0.33611975536E+03 -0.36052399648E+02  0.67030607796E+03  0.75072398630E+03  0.00000000000E+00 0. -1.
          4    1    3    3  501    0  0.33611975536E+03  0.36052399648E+02  0.19079567641E+03  0.38817425932E+03  0.00000000000E+00 0. -1.
<mgrwt>
<rscale>  0 0.74538110E+03</rscale>
<asrwt>0</asrwt>
<pdfrwt beam="1">0</pdfrwt>
<pdfrwt beam="2">  1        2 0.50508559E+00 0.74538110E+03</pdfrwt>
<totfact> 0.15107961E+00</totfact>
</mgrwt>
</event>
<event>
 5    1  0.2311484E-004  0.6539314E+03  0.7818608E-02  0.9799430E-01
         13   -1    0    0    0    0  0.00000000000E+00  0.00000000000E+00  0.10000000000E+04  0.10000000000E+04  0.00000000000E+00 0. -1.
          2   -1    0    0  501    0 -0.00000000000E+00 -0.00000000000E+00 -0.10690656798E+03  0.10690656798E+03  0.00000000000E+00 0. -1.
    9000006    2    1    2  501    0  0.00000000000E+00  0.00000000000E+00  0.89309343202E+03  0.11069065680E+04  0.65393139695E+03 0.  0.
         13    1    3    3    0    0 -0.22529370461E+03 -0.51970103598E+02  0.55213940855E+02  0.23771143067E+03  0.00000000000E+00 0. -1.
          2    1    3    3  501    0  0.22529370461E+03  0.51970103598E+02  0.83787949117E+03  0.86919513731E+03  0.00000000000E+00 0. -1.
<mgrwt>
<rscale>  0 0.65393140E+03</rscale>
<asrwt>0</asrwt>
<pdfrwt beam="1">0</pdfrwt>
<pdfrwt beam="2">  1        2 0.38875198E+00 0.65393140E+03</pdfrwt>
<totfact> 0.43858212E+00</totfact>
</mgrwt>
</event>
<event>
 5    1  0.2311484E-004  0.6373643E+03  0.7818608E-02  0.9830782E-01
         13   -1    0    0    0    0  0.00000000000E+00  0.00000000000E+00  0.10000000000E+04  0.10000000000E+04  0.00000000000E+00 0. -1.
          2   -1    0    0  501    0 -0.00000000000E+00 -0.00000000000E+00 -0.10155830143E+03  0.10155830143E+03  0.00000000000E+00 0. -1.
    9000006    2    1    2  501    0  0.00000000000E+00  0.00000000000E+00  0.89844169857E+03  0.11015583014E+04  0.63736426454E+03 0.  0.
         13    1    3    3    0    0 -0.92354694216E+02 -0.90126377817E+02  0.95282505305E+03  0.96152365298E+03  0.00000000000E+00 0. -1.
          2    1    3    3  501    0  0.92354694216E+02  0.90126377817E+02 -0.54383354478E+02  0.14003464845E+03  0.00000000000E+00 0. -1.
<mgrwt>
<rscale>  0 0.63736426E+03</rscale>
<asrwt>0</asrwt>
<pdfrwt beam="1">0</pdfrwt>
<pdfrwt beam="2">  1        2 0.36930369E+00 0.63736426E+03</pdfrwt>
<totfact> 0.51798873E+00</totfact>
</mgrwt>
</event>
<event>
 5    1  0.2311484E-004  0.6448594E+03  0.7818608E-02  0.9816473E-01
         13   -1    0    0    0    0  0.00000000000E+00  0.00000000000E+00  0.10000000000E+04  0.10000000000E+04  0.00000000000E+00 0. -1.
          2   -1    0    0  501    0 -0.00000000000E+00 -0.00000000000E+00 -0.10396092221E+03  0.10396092221E+03  0.00000000000E+00 0. -1.
    9000006    2    1    2  501    0  0.00000000000E+00  0.00000000000E+00  0.89603907779E+03  0.11039609222E+04  0.64485943339E+03 0.  0.
         13    1    3    3    0    0  0.36358281823E+01  0.29988561411E+03  0.24534197892E+03  0.38747553138E+03  0.00000000000E+00 0. -1.
          2    1    3    3  501    0 -0.36358281823E+01 -0.29988561411E+03  0.65069709887E+03  0.71648539083E+03  0.00000000000E+00 0. -1.
<mgrwt>
<rscale>  0 0.64485943E+03</rscale>
<asrwt>0</asrwt>
<pdfrwt beam="1">0</pdfrwt>
<pdfrwt beam="2">  1        2 0.37804051E+00 0.64485943E+03</pdfrwt>
<totfact> 0.48082361E+00</totfact>
</mgrwt>
</event>
<event>
 5    1  0.2311484E-004  0.6502562E+03  0.7818608E-02  0.9806299E-01
         13   -1    0    0    0    0  0.00000000000E+00  0.00000000000E+00  0.10000000000E+04  0.10000000000E+04  0.00000000000E+00 0. -1.
          2   -1    0    0  501    0 -0.00000000000E+00 -0.00000000000E+00 -0.10570827773E+03  0.10570827773E+03  0.00000000000E+00 0. -1.
    9000006    2    1    2  501    0  0.00000000000E+00  0.00000000000E+00  0.89429172227E+03  0.11057082777E+04  0.65025618868E+03 0.  0.
         13    1    3    3    0    0 -0.54815706341E+02 -0.29702756878E+03  0.65174907178E+03  0.71833626585E+03  0.00000000000E+00 0. -1.
          2    1    3    3  501    0  0.54815706341E+02  0.29702756878E+03  0.24254265049E+03  0.38737201188E+03  0.00000000000E+00 0. -1.
<mgrwt>
<rscale>  0 0.65025619E+03</rscale>
<asrwt>0</asrwt>
<pdfrwt beam="1">0</pdfrwt>
<pdfrwt beam="2">  1        2 0.38439455E+00 0.65025619E+03</pdfrwt>
<totfact> 0.45534169E+00</totfact>
</mgrwt>
</event>
<event>
 5    1  0.2311484E-004  0.6317374E+03  0.7818608E-02  0.9841664E-01
         13   -1    0    0    0    0  0.00000000000E+00  0.00000000000E+00  0.10000000000E+04  0.10000000000E+04  0.00000000000E+00 0. -1.
          2   -1    0    0  501    0 -0.00000000000E+00 -0.00000000000E+00 -0.99773036193E+02  0.99773036193E+02  0.00000000000E+00 0. -1.
    9000006    2    1    2  501    0  0.00000000000E+00  0.00000000000E+00  0.90022696381E+03  0.10997730362E+04  0.63173740175E+03 0.  0.
         13    1    3    3    0    0 -0.20391650241E+02  0.28435514936E+03  0.68689341748E+03  0.74370440186E+03  0.00000000000E+00 0. -1.
          2    1    3    3  501    0  0.20391650241E+02 -0.28435514936E+03  0.21333354633E+03  0.35606863434E+03  0.00000000000E+00 0. -1.
<mgrwt>
<rscale>  0 0.63173740E+03</rscale>
<asrwt>0</asrwt>
<pdfrwt beam="1">0</pdfrwt>
<pdfrwt beam="2">  1        2 0.36281181E+00 0.63173740E+03</pdfrwt>
<totfact> 0.54729026E+00</totfact>
</mgrwt>
</event>
<event>
 5    1  0.2311484E-004  0.6510527E+03  0.7818608E-02  0.9804806E-01
         13   -1    0    0    0    0  0.00000000000E+00  0.00000000000E+00  0.10000000000E+04  0.10000000000E+04  0.00000000000E+00 0. -1.
          2   -1    0    0  501    0 -0.00000000000E+00 -0.00000000000E+00 -0.10596739393E+03  0.10596739393E+03  0.00000000000E+00 0. -1.
    9000006    2    1    2  501    0  0.00000000000E+00  0.00000000000E+00  0.89403260607E+03  0.11059673939E+04  0.65105266740E+03 0.  0.
         13    1    3    3    0    0 -0.57187972943E+02 -0.18836304688E+03  0.65999087624E+01  0.19696360190E+03  0.00000000000E+00 0. -1.
          4    1    3    3  501    0  0.57187972943E+02  0.18836304688E+03  0.88743269730E+03  0.90900379203E+03  0.00000000000E+00 0. -1.
<mgrwt>
<rscale>  0 0.65105267E+03</rscale>
<asrwt>0</asrwt>
<pdfrwt beam="1">0</pdfrwt>
<pdfrwt beam="2">  1        2 0.38533679E+00 0.65105267E+03</pdfrwt>
<totfact> 0.45166924E+00</totfact>
</mgrwt>
</event>
<event>
 5    1  0.2311484E-004  0.6560899E+03  0.7818608E-02  0.9795419E-01
         13   -1    0    0    0    0  0.00000000000E+00  0.00000000000E+00  0.10000000000E+04  0.10000000000E+04  0.00000000000E+00 0. -1.
          2   -1    0    0  501    0 -0.00000000000E+00 -0.00000000000E+00 -0.10761348429E+03  0.10761348429E+03  0.00000000000E+00 0. -1.
    9000006    2    1    2  501    0  0.00000000000E+00  0.00000000000E+00  0.89238651571E+03  0.11076134843E+04  0.65608988498E+03 0.  0.
         13    1    3    3    0    0  0.92902239116E+02  0.50155099484E+02  0.97053515143E+03  0.97626064153E+03  0.00000000000E+00 0. -1.
          4    1    3    3  501    0 -0.92902239116E+02 -0.50155099484E+02 -0.78148635722E+02  0.13135284276E+03  0.00000000000E+00 0. -1.
<mgrwt>
<rscale>  0 0.65608988E+03</rscale>
<asrwt>0</asrwt>
<pdfrwt beam="1">0</pdfrwt>
<pdfrwt beam="2">  1        2 0.39132259E+00 0.65608988E+03</pdfrwt>
<totfact> 0.42895880E+00</totfact>
</mgrwt>
</event>
<event>
 5    1  0.2311484E-004  0.6520736E+03  0.7818608E-02  0.9802896E-01
         13   -1    0    0    0    0  0.00000000000E+00  0.00000000000E+00  0.10000000000E+04  0.10000000000E+04  0.00000000000E+00 0. -1.
          2   -1    0    0  501    0 -0.00000000000E+00 -0.00000000000E+00 -0.10629999743E+03  0.10629999743E+03  0.00000000000E+00 0. -1.
    9000006    2    1    2  501    0  0.00000000000E+00  0.00000000000E+00  0.89370000257E+03  0.11062999974E+04  0.65207360760E+03 0.  0.
         13    1    3    3    0    0 -0.31711208940E+03 -0.36527324382E+02  0.33423856300E+03  0.46217933713E+03  0.00000000000E+00 0. -1.
          4    1    3    3  501    0  0.31711208940E+03  0.36527324382E+02  0.55946143956E+03  0.64412066030E+03  0.00000000000E+00 0. -1.
<mgrwt>
<rscale>  0 0.65207361E+03</rscale>
<asrwt>0</asrwt>
<pdfrwt beam="1">0</pdfrwt>
<pdfrwt beam="2">  1        2 0.38654626E+00 0.65207361E+03</pdfrwt>
<totfact> 0.44699461E+00</totfact>
</mgrwt>
</event>
<event>
 5    1  0.2311484E-004  0.6466762E+03  0.7818608E-02  0.9813036E-01
         13   -1    0    0    0    0  0.00000000000E+00  0.00000000000E+00  0.10000000000E+04  0.10000000000E+04  0.00000000000E+00 0. -1.
          2   -1    0    0  501    0 -0.00000000000E+00 -0.00000000000E+00 -0.10454752057E+03  0.10454752057E+03  0.00000000000E+00 0. -1.
    9000006    2    1    2  501    0  0.00000000000E+00  0.00000000000E+00  0.89545247943E+03  0.11045475206E+04  0.64667618038E+03 0.  0.
         13    1    3    3    0    0 -0.58343994554E+02 -0.22150923915E+03  0.83750769197E+03  0.86826810309E+03  0.00000000000E+00 0. -1.
          2    1    3    3  501    0  0.58343994554E+02  0.22150923915E+03  0.57944787465E+02  0.23627941748E+03  0.00000000000E+00 0. -1.
<mgrwt>
<rscale>  0 0.64667618E+03</rscale>
<asrwt>0</asrwt>
<pdfrwt beam="1">0</pdfrwt>
<pdfrwt beam="2">  1        2 0.38017360E+00 0.64667618E+03</pdfrwt>
<totfact> 0.47212812E+00</totfact>
</mgrwt>
</event>
<event>
 5    1  0.2311484E-004  0.6521160E+03  0.7818608E-02  0.9802817E-01
         13   -1    0    0    0    0  0.00000000000E+00  0.00000000000E+00  0.10000000000E+04  0.10000000000E+04  0.00000000000E+00 0. -1.
          2   -1    0    0  501    0 -0.00000000000E+00 -0.00000000000E+00 -0.10631381996E+03  0.10631381996E+03  0.00000000000E+00 0. -1.
    9000006    2    1    2  501    0  0.00000000000E+00  0.00000000000E+00  0.89368618004E+03  0.11063138200E+04  0.65211600183E+03 0.  0.
         13    1    3    3    0    0  0.12915619490E+03 -0.14310359152E+03  0.89297336046E+03  0.91354331210E+03  0.00000000000E+00 0. -1.
          2    1    3    3  501    0 -0.12915619490E+03  0.14310359152E+03  0.71281957554E+00  0.19277050786E+03  0.00000000000E+00 0. -1.
<mgrwt>
<rscale>  0 0.65211600E+03</rscale>
<asrwt>0</asrwt>
<pdfrwt beam="1">0</pdfrwt>
<pdfrwt beam="2">  1        2 0.38659652E+00 0.65211600E+03</pdfrwt>
<totfact> 0.44680129E+00</totfact>
</mgrwt>
</event>
<event>
 5    1  0.2311484E-004  0.6553080E+03  0.7818608E-02  0.9796870E-01
         13   -1    0    0    0    0  0.00000000000E+00  0.00000000000E+00  0.10000000000E+04  0.10000000000E+04  0.00000000000E+00 0. -1.
          2   -1    0    0  501    0 -0.00000000000E+00 -0.00000000000E+00 -0.10735714445E+03  0.10735714445E+03  0.00000000000E+00 0. -1.
    9000006    2    1    2  501    0  0.00000000000E+00  0.00000000000E+00  0.89264285555E+03  0.11073571445E+04  0.65530800224E+03 0.  0.
         13    1    3    3    0    0 -0.30345299644E+03 -0.10906182820E+03  0.34809405084E+03  0.47449728308E+03  0.00000000000E+00 0. -1.
          2    1    3    3  501    0  0.30345299644E+03  0.10906182820E+03  0.54454880471E+03  0.63285986137E+03  0.00000000000E+00 0. -1.
<mgrwt>
<rscale>  0 0.65530800E+03</rscale>
<asrwt>0</asrwt>
<pdfrwt beam="1">0</pdfrwt>
<pdfrwt beam="2">  1        2 0.39039044E+00 0.65530800E+03</pdfrwt>
<totfact> 0.43242610E+00</totfact>
</mgrwt>
</event>
<event>
 5    1  0.2311484E-004  0.6523799E+03  0.7818608E-02  0.9802324E-01
         13   -1    0    0    0    0  0.00000000000E+00  0.00000000000E+00  0.10000000000E+04  0.10000000000E+04  0.00000000000E+00 0. -1.
          2   -1    0    0  501    0 -0.00000000000E+00 -0.00000000000E+00 -0.10639988179E+03  0.10639988179E+03  0.00000000000E+00 0. -1.
    9000006    2    1    2  501    0  0.00000000000E+00  0.00000000000E+00  0.89360011821E+03  0.11063998818E+04  0.65237989481E+03 0.  0.
         13    1    3    3    0    0 -0.20688763507E+03 -0.11508049376E+02  0.19553539273E+02  0.20812801264E+03  0.00000000000E+00 0. -1.
          2    1    3    3  501    0  0.20688763507E+03  0.11508049376E+02  0.87404657894E+03  0.89827186915E+03  0.00000000000E+00 0. -1.
<mgrwt>
<rscale>  0 0.65237989E+03</rscale>
<asrwt>0</asrwt>
<pdfrwt beam="1">0</pdfrwt>
<pdfrwt beam="2">  1        2 0.38690948E+00 0.65237989E+03</pdfrwt>
<totfact> 0.44559935E+00</totfact>
</mgrwt>
</event>
<event>
 5    1  0.2311484E-004  0.6507485E+03  0.7818608E-02  0.9805376E-01
         13   -1    0    0    0    0  0.00000000000E+00  0.00000000000E+00  0.10000000000E+04  0.10000000000E+04  0.00000000000E+00 0. -1.
          2   -1    0    0  501    0 -0.00000000000E+00 -0.00000000000E+00 -0.10586840393E+03  0.10586840393E+03  0.00000000000E+00 0. -1.
    9000006    2    1    2  501    0  0.00000000000E+00  0.00000000000E+00  0.89413159607E+03  0.11058684039E+04  0.65074850419E+03 0.  0.
         13    1    3    3    0    0 -0.18471470881E+03 -0.47550722108E+02 -0.89971504838E+00  0.19073910011E+03  0.00000000000E+00 0. -1.
          4    1    3    3  501    0  0.18471470881E+03  0.47550722108E+02  0.89503131112E+03  0.91512930382E+03  0.00000000000E+00 0. -1.
<mgrwt>
<rscale>  0 0.65074850E+03</rscale>
<asrwt>0</asrwt>
<pdfrwt beam="1">0</pdfrwt>
<pdfrwt beam="2">  1        2 0.38497683E+00 0.65074850E+03</pdfrwt>
<totfact> 0.45306904E+00</totfact>
</mgrwt>
</event>
<event>
 5    1  0.2311484E-004  0.6299615E+03  0.7818608E-02  0.9845124E-01
         13   -1    0    0    0    0  0.00000000000E+00  0.00000000000E+00  0.10000000000E+04  0.10000000000E+04  0.00000000000E+00 0. -1.
          2   -1    0    0  501    0 -0.00000000000E+00 -0.00000000000E+00 -0.99212869222E+02  0.99212869222E+02  0.00000000000E+00 0. -1.
    9000006    2    1    2  501    0  0.00000000000E+00  0.00000000000E+00  0.90078713078E+03  0.10992128692E+04  0.62996148842E+03 0.  0.
         13    1    3    3    0    0  0.88304948669E+02  0.22805995691E+03  0.10402645716E+03  0.26576420318E+03  0.00000000000E+00 0. -1.
          2    1    3    3  501    0 -0.88304948669E+02 -0.22805995691E+03  0.79676067362E+03  0.83344866604E+03  0.00000000000E+00 0. -1.
<mgrwt>
<rscale>  0 0.62996149E+03</rscale>
<asrwt>0</asrwt>
<pdfrwt beam="1">0</pdfrwt>
<pdfrwt beam="2">  1        2 0.36077483E+00 0.62996149E+03</pdfrwt>
<totfact> 0.55679407E+00</totfact>
</mgrwt>
</event>
<event>
 5    1  0.2311484E-004  0.6478882E+03  0.7818608E-02  0.9810750E-01
         13   -1    0    0    0    0  0.00000000000E+00  0.00000000000E+00  0.10000000000E+04  0.10000000000E+04  0.00000000000E+00 0. -1.
          2   -1    0    0  501    0 -0.00000000000E+00 -0.00000000000E+00 -0.10493977965E+03  0.10493977965E+03  0.00000000000E+00 0. -1.
    9000006    2    1    2  501    0  0.00000000000E+00  0.00000000000E+00  0.89506022035E+03  0.11049397796E+04  0.64788819914E+03 0.  0.
         13    1    3    3    0    0  0.22067047493E+03 -0.38601622747E+02  0.48461654152E+02  0.22920313197E+03  0.00000000000E+00 0. -1.
          2    1    3    3  501    0 -0.22067047493E+03  0.38601622747E+02  0.84659856620E+03  0.87573664767E+03  0.00000000000E+00 0. -1.
<mgrwt>
<rscale>  0 0.64788820E+03</rscale>
<asrwt>0</asrwt>
<pdfrwt beam="1">0</pdfrwt>
<pdfrwt beam="2">  1        2 0.38160000E+00 0.64788820E+03</pdfrwt>
<totfact> 0.46639355E+00</totfact>
</mgrwt>
</event>
<event>
 5    1  0.2311484E-004  0.6275784E+03  0.7818608E-02  0.9849786E-01
         13   -1    0    0    0    0  0.00000000000E+00  0.00000000000E+00  0.10000000000E+04  0.10000000000E+04  0.00000000000E+00 0. -1.
          2   -1    0    0  501    0 -0.00000000000E+00 -0.00000000000E+00 -0.98463670334E+02  0.98463670334E+02  0.00000000000E+00 0. -1.
    9000006    2    1    2  501    0  0.00000000000E+00  0.00000000000E+00  0.90153632967E+03  0.10984636703E+04  0.62757842644E+03 0.  0.
         13    1    3    3    0    0  0.27325456285E+03  0.67642851230E+02  0.20810992158E+03  0.35007620727E+03  0.00000000000E+00 0. -1.
          2    1    3    3  501    0 -0.27325456285E+03 -0.67642851230E+02  0.69342640808E+03  0.74838746306E+03  0.00000000000E+00 0. -1.
<mgrwt>
<rscale>  0 0.62757843E+03</rscale>
<asrwt>0</asrwt>
<pdfrwt beam="1">0</pdfrwt>
<pdfrwt beam="2">  1        2 0.35805047E+00 0.62757843E+03</pdfrwt>
<totfact> 0.56974329E+00</totfact>
</mgrwt>
</event>
<event>
 5    1  0.2311484E-004  0.6201428E+03  0.7818608E-02  0.9864475E-01
         13   -1    0    0    0    0  0.00000000000E+00  0.00000000000E+00  0.10000000000E+04  0.10000000000E+04  0.00000000000E+00 0. -1.
          2   -1    0    0  501    0 -0.00000000000E+00 -0.00000000000E+00 -0.96144281567E+02  0.96144281567E+02  0.00000000000E+00 0. -1.
    9000006    2    1    2  501    0  0.00000000000E+00  0.00000000000E+00  0.90385571843E+03  0.10961442816E+04  0.62014282731E+03 0.  0.
         13    1    3    3    0    0  0.24065919573E+03  0.10429561726E+03  0.15961122470E+03  0.30703447253E+03  0.00000000000E+00 0. -1.
          4    1    3    3  501    0 -0.24065919573E+03 -0.10429561726E+03  0.74424449373E+03  0.78910980904E+03  0.00000000000E+00 0. -1.
<mgrwt>
<rscale>  0 0.62014283E+03</rscale>
<asrwt>0</asrwt>
<pdfrwt beam="1">0</pdfrwt>
<pdfrwt beam="2">  1        2 0.34961631E+00 0.62014283E+03</pdfrwt>
<totfact> 0.61162633E+00</totfact>
</mgrwt>
</event>
<event>
 5    1  0.2311484E-004  0.6521505E+03  0.7818608E-02  0.9802752E-01
         13   -1    0    0    0    0  0.00000000000E+00  0.00000000000E+00  0.10000000000E+04  0.10000000000E+04  0.00000000000E+00 0. -1.
          2   -1    0    0  501    0 -0.00000000000E+00 -0.00000000000E+00 -0.10632507757E+03  0.10632507757E+03  0.00000000000E+00 0. -1.
    9000006    2    1    2  501    0  0.00000000000E+00  0.00000000000E+00  0.89367492243E+03  0.11063250776E+04  0.65215052732E+03 0.  0.
         13    1    3    3    0    0  0.68435148826E+01 -0.27622722793E+03  0.74055323464E+03  0.79042229756E+03  0.00000000000E+00 0. -1.
          2    1    3    3  501    0 -0.68435148826E+01  0.27622722793E+03  0.15312168778E+03  0.31590278001E+03  0.00000000000E+00 0. -1.
<mgrwt>
<rscale>  0 0.65215053E+03</rscale>
<asrwt>0</asrwt>
<pdfrwt beam="1">0</pdfrwt>
<pdfrwt beam="2">  1        2 0.38663746E+00 0.65215053E+03</pdfrwt>
<totfact> 0.44664390E+00</totfact>
</mgrwt>
</event>
<event>
 5    1  0.2311484E-004  0.6833425E+03  0.7818608E-02  0.9746150E-01
         13   -1    0    0    0    0  0.00000000000E+00  0.00000000000E+00  0.10000000000E+04  0.10000000000E+04  0.00000000000E+00 0. -1.
          2   -1    0    0  501    0 -0.00000000000E+00 -0.00000000000E+00 -0.11673925077E+03  0.11673925077E+03  0.00000000000E+00 0. -1.
    9000006    2    1    2  501    0  0.00000000000E+00  0.00000000000E+00  0.88326074923E+03  0.11167392508E+04  0.68334252252E+03 0.  0.
         13    1    3    3    0    0  0.29780594736E+03  0.14026424350E+03  0.29205755546E+03  0.44006824015E+03  0.00000000000E+00 0. -1.
          2    1    3    3  501    0 -0.29780594736E+03 -0.14026424350E+03  0.59120319377E+03  0.67667101062E+03  0.00000000000E+00 0. -1.
<mgrwt>
<rscale>  0 0.68334252E+03</rscale>
<asrwt>0</asrwt>
<pdfrwt beam="1">0</pdfrwt>
<pdfrwt beam="2">  1        2 0.42450726E+00 0.68334252E+03</pdfrwt>
<totfact> 0.32064887E+00</totfact>
</mgrwt>
</event>
<event>
 5    1  0.2311484E-004  0.6297778E+03  0.7818608E-02  0.9845482E-01
         13   -1    0    0    0    0  0.00000000000E+00  0.00000000000E+00  0.10000000000E+04  0.10000000000E+04  0.00000000000E+00 0. -1.
          2   -1    0    0  501    0 -0.00000000000E+00 -0.00000000000E+00 -0.99155033088E+02  0.99155033088E+02  0.00000000000E+00 0. -1.
    9000006    2    1    2  501    0  0.00000000000E+00  0.00000000000E+00  0.90084496691E+03  0.10991550331E+04  0.62977784365E+03 0.  0.
         13    1    3    3    0    0 -0.24687317019E+03  0.12389399664E+03  0.71429836681E+03  0.76584478936E+03  0.00000000000E+00 0. -1.
          4    1    3    3  501    0  0.24687317019E+03 -0.12389399664E+03  0.18654660010E+03  0.33331024373E+03  0.00000000000E+00 0. -1.
<mgrwt>
<rscale>  0 0.62977784E+03</rscale>
<asrwt>0</asrwt>
<pdfrwt beam="1">0</pdfrwt>
<pdfrwt beam="2">  1        2 0.36056452E+00 0.62977784E+03</pdfrwt>
<totfact> 0.55778394E+00</totfact>
</mgrwt>
</event>
<event>
 5    1  0.2311484E-004  0.6616928E+03  0.7818608E-02  0.9785083E-01
         13   -1    0    0    0    0  0.00000000000E+00  0.00000000000E+00  0.10000000000E+04  0.10000000000E+04  0.00000000000E+00 0. -1.
          2   -1    0    0  501    0 -0.00000000000E+00 -0.00000000000E+00 -0.10945933090E+03  0.10945933090E+03  0.00000000000E+00 0. -1.
    9000006    2    1    2  501    0  0.00000000000E+00  0.00000000000E+00  0.89054066910E+03  0.11094593309E+04  0.66169277130E+03 0.  0.
         13    1    3    3    0    0 -0.88909713317E+02 -0.31800777629E+03  0.41068609457E+03  0.52696959227E+03  0.00000000000E+00 0. -1.
          2    1    3    3  501    0  0.88909713317E+02  0.31800777629E+03  0.47985457454E+03  0.58248973863E+03  0.00000000000E+00 0. -1.
<mgrwt>
<rscale>  0 0.66169277E+03</rscale>
<asrwt>0</asrwt>
<pdfrwt beam="1">0</pdfrwt>
<pdfrwt beam="2">  1        2 0.39803477E+00 0.66169277E+03</pdfrwt>
<totfact> 0.40472393E+00</totfact>
</mgrwt>
</event>
<event>
 5    1  0.2311484E-004  0.6438105E+03  0.7818608E-02  0.9818463E-01
         13   -1    0    0    0    0  0.00000000000E+00  0.00000000000E+00  0.10000000000E+04  0.10000000000E+04  0.00000000000E+00 0. -1.
          2   -1    0    0  501    0 -0.00000000000E+00 -0.00000000000E+00 -0.10362299013E+03  0.10362299013E+03  0.00000000000E+00 0. -1.
    9000006    2    1    2  501    0  0.00000000000E+00  0.00000000000E+00  0.89637700987E+03  0.11036229901E+04  0.64381050047E+03 0.  0.
         13    1    3    3    0    0  0.31653623025E+03 -0.56932261971E+02  0.42477704848E+03  0.53279640429E+03  0.00000000000E+00 0. -1.
          4    1    3    3  501    0 -0.31653623025E+03  0.56932261971E+02  0.47159996140E+03  0.57082658584E+03  0.00000000000E+00 0. -1.
<mgrwt>
<rscale>  0 0.64381050E+03</rscale>
<asrwt>0</asrwt>
<pdfrwt beam="1">0</pdfrwt>
<pdfrwt beam="2">  1        2 0.37681167E+00 0.64381050E+03</pdfrwt>
<totfact> 0.48589897E+00</totfact>
</mgrwt>
</event>
<event>
 5    1  0.2311484E-004  0.6753935E+03  0.7818608E-02  0.9760263E-01
         13   -1    0    0    0    0  0.00000000000E+00  0.00000000000E+00  0.10000000000E+04  0.10000000000E+04  0.00000000000E+00 0. -1.
          2   -1    0    0  501    0 -0.00000000000E+00 -0.00000000000E+00 -0.11403908434E+03  0.11403908434E+03  0.00000000000E+00 0. -1.
    9000006    2    1    2  501    0  0.00000000000E+00  0.00000000000E+00  0.88596091566E+03  0.11140390843E+04  0.67539346855E+03 0.  0.
         13    1    3    3    0    0 -0.11231499905E+03  0.26325456513E+03  0.14735542612E+03  0.32191807448E+03  0.00000000000E+00 0. -1.
          2    1    3    3  501    0  0.11231499905E+03 -0.26325456513E+03  0.73860548954E+03  0.79212100986E+03  0.00000000000E+00 0. -1.
<mgrwt>
<rscale>  0 0.67539347E+03</rscale>
<asrwt>0</asrwt>
<pdfrwt beam="1">0</pdfrwt>
<pdfrwt beam="2">  1        2 0.41468845E+00 0.67539347E+03</pdfrwt>
<totfact> 0.34981392E+00</totfact>
</mgrwt>
</event>
<event>
 5    1  0.2311484E-004  0.6613765E+03  0.7818608E-02  0.9785663E-01
         13   -1    0    0    0    0  0.00000000000E+00  0.00000000000E+00  0.10000000000E+04  0.10000000000E+04  0.00000000000E+00 0. -1.
          2   -1    0    0  501    0 -0.00000000000E+00 -0.00000000000E+00 -0.10935471488E+03  0.10935471488E+03  0.00000000000E+00 0. -1.
    9000006    2    1    2  501    0  0.00000000000E+00  0.00000000000E+00  0.89064528512E+03  0.11093547149E+04  0.66137648849E+03 0.  0.
         13    1    3    3    0    0  0.21709815694E+03  0.80003022284E+02  0.84162512758E+03  0.87284875477E+03  0.00000000000E+00 0. -1.
          4    1    3    3  501    0 -0.21709815694E+03 -0.80003022284E+02  0.49020157537E+02  0.23650596011E+03  0.00000000000E+00 0. -1.
<mgrwt>
<rscale>  0 0.66137649E+03</rscale>
<asrwt>0</asrwt>
<pdfrwt beam="1">0</pdfrwt>
<pdfrwt beam="2">  1        2 0.39765435E+00 0.66137649E+03</pdfrwt>
<totfact> 0.40606374E+00</totfact>
</mgrwt>
</event>
<event>
 5    1  0.2311484E-004  0.6469439E+03  0.7818608E-02  0.9812531E-01
         13   -1    0    0    0    0  0.00000000000E+00  0.00000000000E+00  0.10000000000E+04  0.10000000000E+04  0.00000000000E+00 0. -1.
          2   -1    0    0  501    0 -0.00000000000E+00 -0.00000000000E+00 -0.10463410611E+03  0.10463410611E+03  0.00000000000E+00 0. -1.
    9000006    2    1    2  501    0  0.00000000000E+00  0.00000000000E+00  0.89536589389E+03  0.11046341061E+04  0.64694391136E+03 0.  0.
         13    1    3    3    0    0 -0.18858322790E+03  0.24676057692E+03  0.60210888179E+03  0.67748765428E+03  0.00000000000E+00 0. -1.
          4    1    3    3  501    0  0.18858322790E+03 -0.24676057692E+03  0.29325701210E+03  0.42714645183E+03  0.00000000000E+00 0. -1.
<mgrwt>
<rscale>  0 0.64694391E+03</rscale>
<asrwt>0</asrwt>
<pdfrwt beam="1">0</pdfrwt>
<pdfrwt beam="2">  1        2 0.38048846E+00 0.64694391E+03</pdfrwt>
<totfact> 0.47085681E+00</totfact>
</mgrwt>
</event>
<event>
 5    1  0.2311484E-004  0.5624369E+03  0.7818608E-02  0.9986556E-01
         13   -1    0    0    0    0  0.00000000000E+00  0.00000000000E+00  0.10000000000E+04  0.10000000000E+04  0.00000000000E+00 0. -1.
          2   -1    0    0  501    0 -0.00000000000E+00 -0.00000000000E+00 -0.79083819392E+02  0.79083819392E+02  0.00000000000E+00 0. -1.
    9000006    2    1    2  501    0  0.00000000000E+00  0.00000000000E+00  0.92091618061E+03  0.10790838194E+04  0.56243690986E+03 0.  0.
         13    1    3    3    0    0 -0.13346336064E+03 -0.11353726743E+03  0.38453504819E+02  0.17939300923E+03  0.00000000000E+00 0. -1.
          4    1    3    3  501    0  0.13346336064E+03  0.11353726743E+03  0.88246267579E+03  0.89969081016E+03  0.00000000000E+00 0. -1.
<mgrwt>
<rscale>  0 0.56243691E+03</rscale>
<asrwt>0</asrwt>
<pdfrwt beam="1">0</pdfrwt>
<pdfrwt beam="2">  1        2 0.28757813E+00 0.56243691E+03</pdfrwt>
<totfact> 0.10226790E+01</totfact>
</mgrwt>
</event>
<event>
 5    1  0.2311484E-004  0.6443828E+03  0.7818608E-02  0.9817377E-01
         13   -1    0    0    0    0  0.00000000000E+00  0.00000000000E+00  0.10000000000E+04  0.10000000000E+04  0.00000000000E+00 0. -1.
          2   -1    0    0  501    0 -0.00000000000E+00 -0.00000000000E+00 -0.10380730729E+03  0.10380730729E+03  0.00000000000E+00 0. -1.
    9000006    2    1    2  501    0  0.00000000000E+00  0.00000000000E+00  0.89619269271E+03  0.11038073073E+04  0.64438282812E+03 0.  0.
         13    1    3    3    0    0  0.13156673813E+03 -0.23807111771E+03  0.74389795446E+03  0.79206807177E+03  0.00000000000E+00 0. -1.
          4    1    3    3  501    0 -0.13156673813E+03  0.23807111771E+03  0.15229473825E+03  0.31173923553E+03  0.00000000000E+00 0. -1.
<mgrwt>
<rscale>  0 0.64438283E+03</rscale>
<asrwt>0</asrwt>
<pdfrwt beam="1">0</pdfrwt>
<pdfrwt beam="2">  1        2 0.37748191E+00 0.64438283E+03</pdfrwt>
<totfact> 0.48312471E+00</totfact>
</mgrwt>
</event>
<event>
 5    1  0.2311484E-004  0.6358894E+03  0.7818608E-02  0.9833623E-01
         13   -1    0    0    0    0  0.00000000000E+00  0.00000000000E+00  0.10000000000E+04  0.10000000000E+04  0.00000000000E+00 0. -1.
          2   -1    0    0  501    0 -0.00000000000E+00 -0.00000000000E+00 -0.10108884729E+03  0.10108884729E+03  0.00000000000E+00 0. -1.
    9000006    2    1    2  501    0  0.00000000000E+00  0.00000000000E+00  0.89891115271E+03  0.11010888473E+04  0.63588944728E+03 0.  0.
         13    1    3    3    0    0  0.31487596362E+03  0.60701043824E+01  0.37387627019E+03  0.48884269867E+03  0.00000000000E+00 0. -1.
          2    1    3    3  501    0 -0.31487596362E+03 -0.60701043824E+01  0.52503488252E+03  0.61224614862E+03  0.00000000000E+00 0. -1.
<mgrwt>
<rscale>  0 0.63588945E+03</rscale>
<asrwt>0</asrwt>
<pdfrwt beam="1">0</pdfrwt>
<pdfrwt beam="2">  1        2 0.36759658E+00 0.63588945E+03</pdfrwt>
<totfact> 0.52555083E+00</totfact>
</mgrwt>
</event>
<event>
 5    1  0.2311484E-004  0.6892716E+03  0.7818608E-02  0.9735757E-01
         13   -1    0    0    0    0  0.00000000000E+00  0.00000000000E+00  0.10000000000E+04  0.10000000000E+04  0.00000000000E+00 0. -1.
          2   -1    0    0  501    0 -0.00000000000E+00 -0.00000000000E+00 -0.11877384293E+03  0.11877384293E+03  0.00000000000E+00 0. -1.
    9000006    2    1    2  501    0  0.00000000000E+00  0.00000000000E+00  0.88122615707E+03  0.11187738429E+04  0.68927162404E+03 0.  0.
         13    1    3    3    0    0 -0.94003581080E+02 -0.28917430324E+03  0.70391669621E+03  0.76678365013E+03  0.00000000000E+00 0. -1.
          2    1    3    3  501    0  0.94003581080E+02  0.28917430324E+03  0.17730946087E+03  0.35199019279E+03  0.00000000000E+00 0. -1.
<mgrwt>
<rscale>  0 0.68927162E+03</rscale>
<asrwt>0</asrwt>
<pdfrwt beam="1">0</pdfrwt>
<pdfrwt beam="2">  1        2 0.43190579E+00 0.68927162E+03</pdfrwt>
<totfact> 0.30011696E+00</totfact>
</mgrwt>
</event>
<event>
 5    1  0.2311484E-004  0.6576633E+03  0.7818608E-02  0.9792505E-01
         13   -1    0    0    0    0  0.00000000000E+00  0.00000000000E+00  0.10000000000E+04  0.10000000000E+04  0.00000000000E+00 0. -1.
          2   -1    0    0  501    0 -0.00000000000E+00 -0.00000000000E+00 -0.10813026885E+03  0.10813026885E+03  0.00000000000E+00 0. -1.
    9000006    2    1    2  501    0  0.00000000000E+00  0.00000000000E+00  0.89186973115E+03  0.11081302689E+04  0.65766334503E+03 0.  0.
         13    1    3    3    0    0 -0.31569399209E+03 -0.72419252809E+01  0.60050212658E+03  0.67846735084E+03  0.00000000000E+00 0. -1.
          2    1    3    3  501    0  0.31569399209E+03  0.72419252809E+01  0.29136760457E+03  0.42966291801E+03  0.00000000000E+00 0. -1.
<mgrwt>
<rscale>  0 0.65766335E+03</rscale>
<asrwt>0</asrwt>
<pdfrwt beam="1">0</pdfrwt>
<pdfrwt beam="2">  1        2 0.39320181E+00 0.65766335E+03</pdfrwt>
<totfact> 0.42204488E+00</totfact>
</mgrwt>
</event>
<event>
 5    1  0.2311484E-004  0.6495727E+03  0.7818608E-02  0.9807581E-01
         13   -1    0    0    0    0  0.00000000000E+00  0.00000000000E+00  0.10000000000E+04  0.10000000000E+04  0.00000000000E+00 0. -1.
          2   -1    0    0  501    0 -0.00000000000E+00 -0.00000000000E+00 -0.10548618609E+03  0.10548618609E+03  0.00000000000E+00 0. -1.
    9000006    2    1    2  501    0  0.00000000000E+00  0.00000000000E+00  0.89451381391E+03  0.11054861861E+04  0.64957273985E+03 0.  0.
         13    1    3    3    0    0  0.14812352159E+03 -0.82749918575E+02  0.91857891259E+03  0.93411741517E+03  0.00000000000E+00 0. -1.
          4    1    3    3  501    0 -0.14812352159E+03  0.82749918575E+02 -0.24065098674E+02  0.17136877092E+03  0.00000000000E+00 0. -1.
<mgrwt>
<rscale>  0 0.64957274E+03</rscale>
<asrwt>0</asrwt>
<pdfrwt beam="1">0</pdfrwt>
<pdfrwt beam="2">  1        2 0.38358694E+00 0.64957274E+03</pdfrwt>
<totfact> 0.45851093E+00</totfact>
</mgrwt>
</event>
<event>
 5    1  0.2311484E-004  0.6494824E+03  0.7818608E-02  0.9807751E-01
         13   -1    0    0    0    0  0.00000000000E+00  0.00000000000E+00  0.10000000000E+04  0.10000000000E+04  0.00000000000E+00 0. -1.
          2   -1    0    0  501    0 -0.00000000000E+00 -0.00000000000E+00 -0.10545685555E+03  0.10545685555E+03  0.00000000000E+00 0. -1.
    9000006    2    1    2  501    0  0.00000000000E+00  0.00000000000E+00  0.89454314445E+03  0.11054568555E+04  0.64948242639E+03 0.  0.
         13    1    3    3    0    0 -0.29878815305E+03  0.63164960258E+02  0.63521365400E+03  0.70481242812E+03  0.00000000000E+00 0. -1.
          4    1    3    3  501    0  0.29878815305E+03 -0.63164960258E+02  0.25932949046E+03  0.40064442743E+03  0.00000000000E+00 0. -1.
<mgrwt>
<rscale>  0 0.64948243E+03</rscale>
<asrwt>0</asrwt>
<pdfrwt beam="1">0</pdfrwt>
<pdfrwt beam="2">  1        2 0.38348028E+00 0.64948243E+03</pdfrwt>
<totfact> 0.45893097E+00</totfact>
</mgrwt>
</event>
<event>
 5    1  0.2311484E-004  0.6674432E+03  0.7818608E-02  0.9774588E-01
         13   -1    0    0    0    0  0.00000000000E+00  0.00000000000E+00  0.10000000000E+04  0.10000000000E+04  0.00000000000E+00 0. -1.
          2   -1    0    0  501    0 -0.00000000000E+00 -0.00000000000E+00 -0.11137011713E+03  0.11137011713E+03  0.00000000000E+00 0. -1.
    9000006    2    1    2  501    0  0.00000000000E+00  0.00000000000E+00  0.88862988287E+03  0.11113701171E+04  0.66744323243E+03 0.  0.
         13    1    3    3    0    0 -0.19890225053E+03 -0.50650686777E+02  0.61568731949E+01  0.20534240776E+03  0.00000000000E+00 0. -1.
          4    1    3    3  501    0  0.19890225053E+03  0.50650686777E+02  0.88247300968E+03  0.90602770937E+03  0.00000000000E+00 0. -1.
<mgrwt>
<rscale>  0 0.66744323E+03</rscale>
<asrwt>0</asrwt>
<pdfrwt beam="1">0</pdfrwt>
<pdfrwt beam="2">  1        2 0.40498310E+00 0.66744323E+03</pdfrwt>
<totfact> 0.38094068E+00</totfact>
</mgrwt>
</event>
<event>
 5    1  0.2311484E-004  0.6523456E+03  0.7818608E-02  0.9802388E-01
         13   -1    0    0    0    0  0.00000000000E+00  0.00000000000E+00  0.10000000000E+04  0.10000000000E+04  0.00000000000E+00 0. -1.
          2   -1    0    0  501    0 -0.00000000000E+00 -0.00000000000E+00 -0.10638870821E+03  0.10638870821E+03  0.00000000000E+00 0. -1.
    9000006    2    1    2  501    0  0.00000000000E+00  0.00000000000E+00  0.89361129179E+03  0.11063887082E+04  0.65234563908E+03 0.  0.
         13    1    3    3    0    0  0.20377196431E+03  0.16247896208E+03  0.11416901380E+03  0.28452941898E+03  0.00000000000E+00 0. -1.
          2    1    3    3  501    0 -0.20377196431E+03 -0.16247896208E+03  0.77944227800E+03  0.82185928922E+03  0.00000000000E+00 0. -1.
<mgrwt>
<rscale>  0 0.65234564E+03</rscale>
<asrwt>0</asrwt>
<pdfrwt beam="1">0</pdfrwt>
<pdfrwt beam="2">  1        2 0.38686885E+00 0.65234564E+03</pdfrwt>
<totfact> 0.44575523E+00</totfact>
</mgrwt>
</event>
<event>
 5    1  0.2311484E-004  0.6529694E+03  0.7818608E-02  0.9801223E-01
         13   -1    0    0    0    0  0.00000000000E+00  0.00000000000E+00  0.10000000000E+04  0.10000000000E+04  0.00000000000E+00 0. -1.
          2   -1    0    0  501    0 -0.00000000000E+00 -0.00000000000E+00 -0.10659226526E+03  0.10659226526E+03  0.00000000000E+00 0. -1.
    9000006    2    1    2  501    0  0.00000000000E+00  0.00000000000E+00  0.89340773474E+03  0.11065922653E+04  0.65296941816E+03 0.  0.
         13    1    3    3    0    0 -0.28648803834E+03 -0.15554776312E+03  0.41630464119E+03  0.52875330448E+03  0.00000000000E+00 0. -1.
          2    1    3    3  501    0  0.28648803834E+03  0.15554776312E+03  0.47710309354E+03  0.57783896078E+03  0.00000000000E+00 0. -1.
<mgrwt>
<rscale>  0 0.65296942E+03</rscale>
<asrwt>0</asrwt>
<pdfrwt beam="1">0</pdfrwt>
<pdfrwt beam="2">  1        2 0.38760905E+00 0.65296942E+03</pdfrwt>
<totfact> 0.44292310E+00</totfact>
</mgrwt>
</event>
<event>
 5    1  0.2311484E-004  0.6503474E+03  0.7818608E-02  0.9806127E-01
         13   -1    0    0    0    0  0.00000000000E+00  0.00000000000E+00  0.10000000000E+04  0.10000000000E+04  0.00000000000E+00 0. -1.
          2   -1    0    0  501    0 -0.00000000000E+00 -0.00000000000E+00 -0.10573794065E+03  0.10573794065E+03  0.00000000000E+00 0. -1.
    9000006    2    1    2  501    0  0.00000000000E+00  0.00000000000E+00  0.89426205935E+03  0.11057379406E+04  0.65034741684E+03 0.  0.
         13    1    3    3    0    0 -0.11238396266E+03 -0.27797190108E+03  0.66111254666E+03  0.72592584483E+03  0.00000000000E+00 0. -1.
          2    1    3    3  501    0  0.11238396266E+03  0.27797190108E+03  0.23314951270E+03  0.37981209581E+03  0.00000000000E+00 0. -1.
<mgrwt>
<rscale>  0 0.65034742E+03</rscale>
<asrwt>0</asrwt>
<pdfrwt beam="1">0</pdfrwt>
<pdfrwt beam="2">  1        2 0.38450241E+00 0.65034742E+03</pdfrwt>
<totfact> 0.45491991E+00</totfact>
</mgrwt>
</event>
<event>
 5    1  0.2311484E-004  0.6536293E+03  0.7818608E-02  0.9799993E-01
         13   -1    0    0    0    0  0.00000000000E+00  0.00000000000E+00  0.10000000000E+04  0.10000000000E+04  0.00000000000E+00 0. -1.
          2   -1    0    0  501    0 -0.00000000000E+00 -0.00000000000E+00 -0.10680782988E+03  0.10680782988E+03  0.00000000000E+00 0. -1.
    9000006    2    1    2  501    0  0.00000000000E+00  0.00000000000E+00  0.89319217012E+03  0.11068078299E+04  0.65362934414E+03 0.  0.
         13    1    3    3    0    0  0.10987821480E+03  0.35581631708E+02  0.96429046047E+03  0.97118245802E+03  0.00000000000E+00 0. -1.
          2    1    3    3  501    0 -0.10987821480E+03 -0.35581631708E+02 -0.71098290351E+02  0.13562537187E+03  0.00000000000E+00 0. -1.
<mgrwt>
<rscale>  0 0.65362934E+03</rscale>
<asrwt>0</asrwt>
<pdfrwt beam="1">0</pdfrwt>
<pdfrwt beam="2">  1        2 0.38839293E+00 0.65362934E+03</pdfrwt>
<totfact> 0.43994167E+00</totfact>
</mgrwt>
</event>
<event>
 5    1  0.2311484E-004  0.6165343E+03  0.7818608E-02  0.9871684E-01
         13   -1    0    0    0    0  0.00000000000E+00  0.00000000000E+00  0.10000000000E+04  0.10000000000E+04  0.00000000000E+00 0. -1.
          2   -1    0    0  501    0 -0.00000000000E+00 -0.00000000000E+00 -0.95028624118E+02  0.95028624118E+02  0.00000000000E+00 0. -1.
    9000006    2    1    2  501    0  0.00000000000E+00  0.00000000000E+00  0.90497137588E+03  0.10950286241E+04  0.61653426221E+03 0.  0.
         13    1    3    3    0    0  0.82178145251E+02 -0.15044698553E+03  0.90753254395E+03  0.92358154017E+03  0.00000000000E+00 0. -1.
          4    1    3    3  501    0 -0.82178145251E+02  0.15044698553E+03 -0.25611680708E+01  0.17144708395E+03  0.00000000000E+00 0. -1.
<mgrwt>
<rscale>  0 0.61653426E+03</rscale>
<asrwt>0</asrwt>
<pdfrwt beam="1">0</pdfrwt>
<pdfrwt beam="2">  1        2 0.34555936E+00 0.61653426E+03</pdfrwt>
<totfact> 0.63277737E+00</totfact>
</mgrwt>
</event>
<event>
 5    1  0.2311484E-004  0.6401777E+03  0.7818608E-02  0.9825387E-01
         13   -1    0    0    0    0  0.00000000000E+00  0.00000000000E+00  0.10000000000E+04  0.10000000000E+04  0.00000000000E+00 0. -1.
          2   -1    0    0  501    0 -0.00000000000E+00 -0.00000000000E+00 -0.10245687419E+03  0.10245687419E+03  0.00000000000E+00 0. -1.
    9000006    2    1    2  501    0  0.00000000000E+00  0.00000000000E+00  0.89754312581E+03  0.11024568742E+04  0.64017770716E+03 0.  0.
         13    1    3    3    0    0 -0.19229974838E+03  0.19417015676E+03  0.16176420449E+03  0.31756715960E+03  0.00000000000E+00 0. -1.
          2    1    3    3  501    0  0.19229974838E+03 -0.19417015676E+03  0.73577892132E+03  0.78488971459E+03  0.00000000000E+00 0. -1.
<mgrwt>
<rscale>  0 0.64017771E+03</rscale>
<asrwt>0</asrwt>
<pdfrwt beam="1">0</pdfrwt>
<pdfrwt beam="2">  1        2 0.37257124E+00 0.64017771E+03</pdfrwt>
<totfact> 0.50379177E+00</totfact>
</mgrwt>
</event>
<event>
 5    1  0.2311484E-004  0.6405208E+03  0.7818608E-02  0.9824731E-01
         13   -1    0    0    0    0  0.00000000000E+00  0.00000000000E+00  0.10000000000E+04  0.10000000000E+04  0.00000000000E+00 0. -1.
          2   -1    0    0  501    0 -0.00000000000E+00 -0.00000000000E+00 -0.10256672277E+03  0.10256672277E+03  0.00000000000E+00 0. -1.
    9000006    2    1    2  501    0  0.00000000000E+00  0.00000000000E+00  0.89743327723E+03  0.11025667228E+04  0.64052079677E+03 0.  0.
         13    1    3    3    0    0 -0.21296612528E+03 -0.21724225779E+03  0.62100706874E+03  0.69151901530E+03  0.00000000000E+00 0. -1.
          2    1    3    3  501    0  0.21296612528E+03  0.21724225779E+03  0.27642620848E+03  0.41104770748E+03  0.00000000000E+00 0. -1.
<mgrwt>
<rscale>  0 0.64052080E+03</rscale>
<asrwt>0</asrwt>
<pdfrwt beam="1">0</pdfrwt>
<pdfrwt beam="2">  1        2 0.37297069E+00 0.64052080E+03</pdfrwt>
<totfact> 0.50208089E+00</totfact>
</mgrwt>
</event>
<event>
 5    1  0.2311484E-004  0.6517991E+03  0.7818608E-02  0.9803409E-01
         13   -1    0    0    0    0  0.00000000000E+00  0.00000000000E+00  0.10000000000E+04  0.10000000000E+04  0.00000000000E+00 0. -1.
          2   -1    0    0  501    0 -0.00000000000E+00 -0.00000000000E+00 -0.10621050680E+03  0.10621050680E+03  0.00000000000E+00 0. -1.
    9000006    2    1    2  501    0  0.00000000000E+00  0.00000000000E+00  0.89378949320E+03  0.11062105068E+04  0.65179906964E+03 0.  0.
         13    1    3    3    0    0  0.18360749963E+03 -0.26906830278E+03  0.42983496197E+03  0.53932138843E+03  0.00000000000E+00 0. -1.
          2    1    3    3  501    0 -0.18360749963E+03  0.26906830278E+03  0.46395453123E+03  0.56688911837E+03  0.00000000000E+00 0. -1.
<mgrwt>
<rscale>  0 0.65179907E+03</rscale>
<asrwt>0</asrwt>
<pdfrwt beam="1">0</pdfrwt>
<pdfrwt beam="2">  1        2 0.38622084E+00 0.65179907E+03</pdfrwt>
<totfact> 0.44824804E+00</totfact>
</mgrwt>
</event>
<event>
 5    1  0.2311484E-004  0.5971256E+03  0.7818608E-02  0.9911388E-01
         13   -1    0    0    0    0  0.00000000000E+00  0.00000000000E+00  0.10000000000E+04  0.10000000000E+04  0.00000000000E+00 0. -1.
          2   -1    0    0  501    0 -0.00000000000E+00 -0.00000000000E+00 -0.89139732826E+02  0.89139732826E+02  0.00000000000E+00 0. -1.
    9000006    2    1    2  501    0  0.00000000000E+00  0.00000000000E+00  0.91086026717E+03  0.10891397328E+04  0.59712555740E+03 0.  0.
         13    1    3    3    0    0 -0.25196944615E+03  0.47056155970E+02  0.17619661100E+03  0.31104361324E+03  0.00000000000E+00 0. -1.
          4    1    3    3  501    0  0.25196944615E+03 -0.47056155970E+02  0.73466365618E+03  0.77809611959E+03  0.00000000000E+00 0. -1.
<mgrwt>
<rscale>  0 0.59712556E+03</rscale>
<asrwt>0</asrwt>
<pdfrwt beam="1">0</pdfrwt>
<pdfrwt beam="2">  1        2 0.32414517E+00 0.59712556E+03</pdfrwt>
<totfact> 0.75629950E+00</totfact>
</mgrwt>
</event>
<event>
 5    1  0.2311484E-004  0.6326703E+03  0.7818608E-02  0.9839852E-01
         13   -1    0    0    0    0  0.00000000000E+00  0.00000000000E+00  0.10000000000E+04  0.10000000000E+04  0.00000000000E+00 0. -1.
          2   -1    0    0  501    0 -0.00000000000E+00 -0.00000000000E+00 -0.10006793069E+03  0.10006793069E+03  0.00000000000E+00 0. -1.
    9000006    2    1    2  501    0  0.00000000000E+00  0.00000000000E+00  0.89993206931E+03  0.11000679307E+04  0.63267031127E+03 0.  0.
         13    1    3    3    0    0 -0.24642707998E+02  0.79891936932E+02 -0.80509604351E+02  0.11606800178E+03  0.00000000000E+00 0. -1.
          4    1    3    3  501    0  0.24642707998E+02 -0.79891936932E+02  0.98044167366E+03  0.98399992891E+03  0.00000000000E+00 0. -1.
<mgrwt>
<rscale>  0 0.63267031E+03</rscale>
<asrwt>0</asrwt>
<pdfrwt beam="1">0</pdfrwt>
<pdfrwt beam="2">  1        2 0.36388415E+00 0.63267031E+03</pdfrwt>
<totfact> 0.54234739E+00</totfact>
</mgrwt>
</event>
<event>
 5    1  0.2311484E-004  0.6520372E+03  0.7818608E-02  0.9802964E-01
         13   -1    0    0    0    0  0.00000000000E+00  0.00000000000E+00  0.10000000000E+04  0.10000000000E+04  0.00000000000E+00 0. -1.
          2   -1    0    0  501    0 -0.00000000000E+00 -0.00000000000E+00 -0.10628812280E+03  0.10628812280E+03  0.00000000000E+00 0. -1.
    9000006    2    1    2  501    0  0.00000000000E+00  0.00000000000E+00  0.89371187720E+03  0.11062881228E+04  0.65203718544E+03 0.  0.
         13    1    3    3    0    0  0.42132302232E+02  0.32034187249E+01  0.99533455926E+03  0.99623103628E+03  0.00000000000E+00 0. -1.
          2    1    3    3  501    0 -0.42132302232E+02 -0.32034187249E+01 -0.10162268206E+03  0.11005708652E+03  0.00000000000E+00 0. -1.
<mgrwt>
<rscale>  0 0.65203719E+03</rscale>
<asrwt>0</asrwt>
<pdfrwt beam="1">0</pdfrwt>
<pdfrwt beam="2">  1        2 0.38650308E+00 0.65203719E+03</pdfrwt>
<totfact> 0.44716074E+00</totfact>
</mgrwt>
</event>
<event>
 5    1  0.2311484E-004  0.6564618E+03  0.7818608E-02  0.9794729E-01
         13   -1    0    0    0    0  0.00000000000E+00  0.00000000000E+00  0.10000000000E+04  0.10000000000E+04  0.00000000000E+00 0. -1.
          2   -1    0    0  501    0 -0.00000000000E+00 -0.00000000000E+00 -0.10773552110E+03  0.10773552110E+03  0.00000000000E+00 0. -1.
    9000006    2    1    2  501    0  0.00000000000E+00  0.00000000000E+00  0.89226447890E+03  0.11077355211E+04  0.65646179204E+03 0.  0.
         13    1    3    3    0    0 -0.53233787004E+02  0.19854256022E+03  0.14325540017E+02  0.20605388954E+03  0.00000000000E+00 0. -1.
          4    1    3    3  501    0  0.53233787004E+02 -0.19854256022E+03  0.87793893888E+03  0.90168163156E+03  0.00000000000E+00 0. -1.
<mgrwt>
<rscale>  0 0.65646179E+03</rscale>
<asrwt>0</asrwt>
<pdfrwt beam="1">0</pdfrwt>
<pdfrwt beam="2">  1        2 0.39176636E+00 0.65646179E+03</pdfrwt>
<totfact> 0.42731694E+00</totfact>
</mgrwt>
</event>
<event>
 5    1  0.2311484E-004  0.6560294E+03  0.7818608E-02  0.9795531E-01
         13   -1    0    0    0    0  0.00000000000E+00  0.00000000000E+00  0.10000000000E+04  0.10000000000E+04  0.00000000000E+00 0. -1.
          2   -1    0    0  501    0 -0.00000000000E+00 -0.00000000000E+00 -0.10759364376E+03  0.10759364376E+03  0.00000000000E+00 0. -1.
    9000006    2    1    2  501    0  0.00000000000E+00  0.00000000000E+00  0.89240635624E+03  0.11075936438E+04  0.65602940106E+03 0.  0.
         13    1    3    3    0    0 -0.42330143288E+02 -0.24608533803E+03  0.80532081297E+03  0.84314378751E+03  0.00000000000E+00 0. -1.
          2    1    3    3  501    0  0.42330143288E+02  0.24608533803E+03  0.87085543271E+02  0.26444985625E+03  0.00000000000E+00 0. -1.
<mgrwt>
<rscale>  0 0.65602940E+03</rscale>
<asrwt>0</asrwt>
<pdfrwt beam="1">0</pdfrwt>
<pdfrwt beam="2">  1        2 0.39125044E+00 0.65602940E+03</pdfrwt>
<totfact> 0.42922627E+00</totfact>
</mgrwt>
</event>
<event>
 5    1  0.2311484E-004  0.6478646E+03  0.7818608E-02  0.9810794E-01
         13   -1    0    0    0    0  0.00000000000E+00  0.00000000000E+00  0.10000000000E+04  0.10000000000E+04  0.00000000000E+00 0. -1.
          2   -1    0    0  501    0 -0.00000000000E+00 -0.00000000000E+00 -0.10493213933E+03  0.10493213933E+03  0.00000000000E+00 0. -1.
    9000006    2    1    2  501    0  0.00000000000E+00  0.00000000000E+00  0.89506786067E+03  0.11049321393E+04  0.64786461341E+03 0.  0.
         13    1    3    3    0    0 -0.21016851996E+03  0.92134852449E+01  0.27425488989E+02  0.21215054216E+03  0.00000000000E+00 0. -1.
          4    1    3    3  501    0  0.21016851996E+03 -0.92134852449E+01  0.86764237169E+03  0.89278159717E+03  0.00000000000E+00 0. -1.
<mgrwt>
<rscale>  0 0.64786461E+03</rscale>
<asrwt>0</asrwt>
<pdfrwt beam="1">0</pdfrwt>
<pdfrwt beam="2">  1        2 0.38157222E+00 0.64786461E+03</pdfrwt>
<totfact> 0.46650464E+00</totfact>
</mgrwt>
</event>
<event>
 5    1  0.2311484E-004  0.6484531E+03  0.7818608E-02  0.9809686E-01
         13   -1    0    0    0    0  0.00000000000E+00  0.00000000000E+00  0.10000000000E+04  0.10000000000E+04  0.00000000000E+00 0. -1.
          2   -1    0    0  501    0 -0.00000000000E+00 -0.00000000000E+00 -0.10512284272E+03  0.10512284272E+03  0.00000000000E+00 0. -1.
    9000006    2    1    2  501    0  0.00000000000E+00  0.00000000000E+00  0.89487715728E+03  0.11051228427E+04  0.64845305988E+03 0.  0.
         13    1    3    3    0    0 -0.16273696740E+03  0.26753874689E+02 -0.28298433436E+02  0.16733168171E+03  0.00000000000E+00 0. -1.
          2    1    3    3  501    0  0.16273696740E+03 -0.26753874689E+02  0.92317559072E+03  0.93779116101E+03  0.00000000000E+00 0. -1.
<mgrwt>
<rscale>  0 0.64845306E+03</rscale>
<asrwt>0</asrwt>
<pdfrwt beam="1">0</pdfrwt>
<pdfrwt beam="2">  1        2 0.38226569E+00 0.64845306E+03</pdfrwt>
<totfact> 0.46373902E+00</totfact>
</mgrwt>
</event>
<event>
 5    1  0.2311484E-004  0.6663057E+03  0.7818608E-02  0.9776655E-01
         13   -1    0    0    0    0  0.00000000000E+00  0.00000000000E+00  0.10000000000E+04  0.10000000000E+04  0.00000000000E+00 0. -1.
          2   -1    0    0  501    0 -0.00000000000E+00 -0.00000000000E+00 -0.11099083467E+03  0.11099083467E+03  0.00000000000E+00 0. -1.
    9000006    2    1    2  501    0  0.00000000000E+00  0.00000000000E+00  0.88900916533E+03  0.11109908347E+04  0.66630573965E+03 0.  0.
         13    1    3    3    0    0 -0.99736996088E+01 -0.32418009769E+03  0.31753508381E+03  0.45389507584E+03  0.00000000000E+00 0. -1.
          2    1    3    3  501    0  0.99736996088E+01  0.32418009769E+03  0.57147408152E+03  0.65709575883E+03  0.00000000000E+00 0. -1.
<mgrwt>
<rscale>  0 0.66630574E+03</rscale>
<asrwt>0</asrwt>
<pdfrwt beam="1">0</pdfrwt>
<pdfrwt beam="2">  1        2 0.40360389E+00 0.66630574E+03</pdfrwt>
<totfact> 0.38555933E+00</totfact>
</mgrwt>
</event>
<event>
 5    1  0.2311484E-004  0.6468174E+03  0.7818608E-02  0.9812770E-01
         13   -1    0    0    0    0  0.00000000000E+00  0.00000000000E+00  0.10000000000E+04  0.10000000000E+04  0.00000000000E+00 0. -1.
          2   -1    0    0  501    0 -0.00000000000E+00 -0.00000000000E+00 -0.10459317920E+03  0.10459317920E+03  0.00000000000E+00 0. -1.
    9000006    2    1    2  501    0  0.00000000000E+00  0.00000000000E+00  0.89540682080E+03  0.11045931792E+04  0.64681737515E+03 0.  0.
         13    1    3    3    0    0  0.65758335257E+02  0.75165087857E+02  0.97300701935E+03  0.97811891342E+03  0.00000000000E+00 0. -1.
          4    1    3    3  501    0 -0.65758335257E+02 -0.75165087857E+02 -0.77600198551E+02  0.12647426578E+03  0.00000000000E+00 0. -1.
<mgrwt>
<rscale>  0 0.64681738E+03</rscale>
<asrwt>0</asrwt>
<pdfrwt beam="1">0</pdfrwt>
<pdfrwt beam="2">  1        2 0.38033964E+00 0.64681738E+03</pdfrwt>
<totfact> 0.47145734E+00</totfact>
</mgrwt>
</event>
<event>
 5    1  0.2311484E-004  0.6404928E+03  0.7818608E-02  0.9824784E-01
         13   -1    0    0    0    0  0.00000000000E+00  0.00000000000E+00  0.10000000000E+04  0.10000000000E+04  0.00000000000E+00 0. -1.
          2   -1    0    0  501    0 -0.00000000000E+00 -0.00000000000E+00 -0.10255774584E+03  0.10255774584E+03  0.00000000000E+00 0. -1.
    9000006    2    1    2  501    0  0.00000000000E+00  0.00000000000E+00  0.89744225416E+03  0.11025577458E+04  0.64049276604E+03 0.  0.
         13    1    3    3    0    0  0.70561606451E+02  0.22739468130E+03  0.81740461238E+03  0.85137393766E+03  0.00000000000E+00 0. -1.
          4    1    3    3  501    0 -0.70561606451E+02 -0.22739468130E+03  0.80037641784E+02  0.25118380818E+03  0.00000000000E+00 0. -1.
<mgrwt>
<rscale>  0 0.64049277E+03</rscale>
<asrwt>0</asrwt>
<pdfrwt beam="1">0</pdfrwt>
<pdfrwt beam="2">  1        2 0.37293804E+00 0.64049277E+03</pdfrwt>
<totfact> 0.50222050E+00</totfact>
</mgrwt>
</event>
<event>
 5    1  0.2311484E-004  0.6525081E+03  0.7818608E-02  0.9802084E-01
         13   -1    0    0    0    0  0.00000000000E+00  0.00000000000E+00  0.10000000000E+04  0.10000000000E+04  0.00000000000E+00 0. -1.
          2   -1    0    0  501    0 -0.00000000000E+00 -0.00000000000E+00 -0.10644169949E+03  0.10644169949E+03  0.00000000000E+00 0. -1.
    9000006    2    1    2  501    0  0.00000000000E+00  0.00000000000E+00  0.89355830051E+03  0.11064416995E+04  0.65250808268E+03 0.  0.
         13    1    3    3    0    0 -0.33595361559E+02  0.13879074816E+02  0.99655567052E+03  0.99721837201E+03  0.00000000000E+00 0. -1.
          2    1    3    3  501    0  0.33595361559E+02 -0.13879074816E+02 -0.10299737001E+03  0.10922332748E+03  0.00000000000E+00 0. -1.
<mgrwt>
<rscale>  0 0.65250808E+03</rscale>
<asrwt>0</asrwt>
<pdfrwt beam="1">0</pdfrwt>
<pdfrwt beam="2">  1        2 0.38706154E+00 0.65250808E+03</pdfrwt>
<totfact> 0.44501638E+00</totfact>
</mgrwt>
</event>
<event>
 5    1  0.2311484E-004  0.6534084E+03  0.7818608E-02  0.9800405E-01
         13   -1    0    0    0    0  0.00000000000E+00  0.00000000000E+00  0.10000000000E+04  0.10000000000E+04  0.00000000000E+00 0. -1.
          2   -1    0    0  501    0 -0.00000000000E+00 -0.00000000000E+00 -0.10673563274E+03  0.10673563274E+03  0.00000000000E+00 0. -1.
    9000006    2    1    2  501    0  0.00000000000E+00  0.00000000000E+00  0.89326436726E+03  0.11067356327E+04  0.65340839524E+03 0.  0.
         13    1    3    3    0    0 -0.23647549332E+03  0.55851825251E+02  0.81654391226E+03  0.85192960153E+03  0.00000000000E+00 0. -1.
          4    1    3    3  501    0  0.23647549332E+03 -0.55851825251E+02  0.76720455000E+02  0.25480603121E+03  0.00000000000E+00 0. -1.
<mgrwt>
<rscale>  0 0.65340840E+03</rscale>
<asrwt>0</asrwt>
<pdfrwt beam="1">0</pdfrwt>
<pdfrwt beam="2">  1        2 0.38813039E+00 0.65340840E+03</pdfrwt>
<totfact> 0.44093819E+00</totfact>
</mgrwt>
</event>
<event>
 5    1  0.2311484E-004  0.6766497E+03  0.7818608E-02  0.9758019E-01
         13   -1    0    0    0    0  0.00000000000E+00  0.00000000000E+00  0.10000000000E+04  0.10000000000E+04  0.00000000000E+00 0. -1.
          2   -1    0    0  501    0 -0.00000000000E+00 -0.00000000000E+00 -0.11446371338E+03  0.11446371338E+03  0.00000000000E+00 0. -1.
    9000006    2    1    2  501    0  0.00000000000E+00  0.00000000000E+00  0.88553628662E+03  0.11144637134E+04  0.67664972736E+03 0.  0.
         13    1    3    3    0    0  0.52549213387E+02 -0.26252692891E+03  0.10209956220E+03  0.28654167032E+03  0.00000000000E+00 0. -1.
          2    1    3    3  501    0 -0.52549213387E+02  0.26252692891E+03  0.78343672441E+03  0.82792204306E+03  0.00000000000E+00 0. -1.
<mgrwt>
<rscale>  0 0.67664973E+03</rscale>
<asrwt>0</asrwt>
<pdfrwt beam="1">0</pdfrwt>
<pdfrwt beam="2">  1        2 0.41623256E+00 0.67664973E+03</pdfrwt>
<totfact> 0.34507689E+00</totfact>
</mgrwt>
</event>
<event>
 5    1  0.2311484E-004  0.6485202E+03  0.7818608E-02  0.9809560E-01
         13   -1    0    0    0    0  0.00000000000E+00  0.00000000000E+00  0.10000000000E+04  0.10000000000E+04  0.00000000000E+00 0. -1.
          2   -1    0    0  501    0 -0.00000000000E+00 -0.00000000000E+00 -0.10514461852E+03  0.10514461852E+03  0.00000000000E+00 0. -1.
    9000006    2    1    2  501    0  0.00000000000E+00  0.00000000000E+00  0.89485538148E+03  0.11051446185E+04  0.64852021870E+03 0.  0.
         13    1    3    3    0    0 -0.45770220500E+02 -0.11059454898E+02  0.99414280586E+03  0.99525732505E+03  0.00000000000E+00 0. -1.
          2    1    3    3  501    0  0.45770220500E+02  0.11059454898E+02 -0.99287424373E+02  0.10988729347E+03  0.00000000000E+00 0. -1.
<mgrwt>
<rscale>  0 0.64852022E+03</rscale>
<asrwt>0</asrwt>
<pdfrwt beam="1">0</pdfrwt>
<pdfrwt beam="2">  1        2 0.38234487E+00 0.64852022E+03</pdfrwt>
<totfact> 0.46342418E+00</totfact>
</mgrwt>
</event>
<event>
 5    1  0.2311484E-004  0.6285497E+03  0.7818608E-02  0.9847883E-01
         13   -1    0    0    0    0  0.00000000000E+00  0.00000000000E+00  0.10000000000E+04  0.10000000000E+04  0.00000000000E+00 0. -1.
          2   -1    0    0  501    0 -0.00000000000E+00 -0.00000000000E+00 -0.98768688629E+02  0.98768688629E+02  0.00000000000E+00 0. -1.
    9000006    2    1    2  501    0  0.00000000000E+00  0.00000000000E+00  0.90123131137E+03  0.10987686886E+04  0.62854972318E+03 0.  0.
         13    1    3    3    0    0 -0.61077538559E+02 -0.99692451022E+02 -0.59337744812E+02  0.13111071072E+03  0.00000000000E+00 0. -1.
          4    1    3    3  501    0  0.61077538559E+02  0.99692451022E+02  0.96056905618E+03  0.96765797790E+03  0.00000000000E+00 0. -1.
<mgrwt>
<rscale>  0 0.62854972E+03</rscale>
<asrwt>0</asrwt>
<pdfrwt beam="1">0</pdfrwt>
<pdfrwt beam="2">  1        2 0.35915963E+00 0.62854972E+03</pdfrwt>
<totfact> 0.56443809E+00</totfact>
</mgrwt>
</event>
<event>
 5    1  0.2311484E-004  0.6400029E+03  0.7818608E-02  0.9825721E-01
         13   -1    0    0    0    0  0.00000000000E+00  0.00000000000E+00  0.10000000000E+04  0.10000000000E+04  0.00000000000E+00 0. -1.
          2   -1    0    0  501    0 -0.00000000000E+00 -0.00000000000E+00 -0.10240093602E+03  0.10240093602E+03  0.00000000000E+00 0. -1.
    9000006    2    1    2  501    0  0.00000000000E+00  0.00000000000E+00  0.89759906398E+03  0.11024009360E+04  0.64000292504E+03 0.  0.
         13    1    3    3    0    0  0.26936301731E+03 -0.16779661698E+03  0.51958534800E+03  0.60883583471E+03  0.00000000000E+00 0. -1.
          4    1    3    3  501    0 -0.26936301731E+03  0.16779661698E+03  0.37801371598E+03  0.49356510131E+03  0.00000000000E+00 0. -1.
<mgrwt>
<rscale>  0 0.64000293E+03</rscale>
<asrwt>0</asrwt>
<pdfrwt beam="1">0</pdfrwt>
<pdfrwt beam="2">  1        2 0.37236783E+00 0.64000293E+03</pdfrwt>
<totfact> 0.50466506E+00</totfact>
</mgrwt>
</event>
<event>
 5    1  0.2311484E-004  0.6529657E+03  0.7818608E-02  0.9801230E-01
         13   -1    0    0    0    0  0.00000000000E+00  0.00000000000E+00  0.10000000000E+04  0.10000000000E+04  0.00000000000E+00 0. -1.
          2   -1    0    0  501    0 -0.00000000000E+00 -0.00000000000E+00 -0.10659103923E+03  0.10659103923E+03  0.00000000000E+00 0. -1.
    9000006    2    1    2  501    0  0.00000000000E+00  0.00000000000E+00  0.89340896077E+03  0.11065910392E+04  0.65296566289E+03 0.  0.
         13    1    3    3    0    0  0.88093246256E+02 -0.21183325344E+03  0.53043946106E+02  0.23547273201E+03  0.00000000000E+00 0. -1.
          4    1    3    3  501    0 -0.88093246256E+02  0.21183325344E+03  0.84036501467E+03  0.87111830722E+03  0.00000000000E+00 0. -1.
<mgrwt>
<rscale>  0 0.65296566E+03</rscale>
<asrwt>0</asrwt>
<pdfrwt beam="1">0</pdfrwt>
<pdfrwt beam="2">  1        2 0.38760460E+00 0.65296566E+03</pdfrwt>
<totfact> 0.44294011E+00</totfact>
</mgrwt>
</event>
<event>
 5    1  0.2311484E-004  0.6540160E+03  0.7818608E-02  0.9799272E-01
         13   -1    0    0    0    0  0.00000000000E+00  0.00000000000E+00  0.10000000000E+04  0.10000000000E+04  0.00000000000E+00 0. -1.
          2   -1    0    0  501    0 -0.00000000000E+00 -0.00000000000E+00 -0.10693424639E+03  0.10693424639E+03  0.00000000000E+00 0. -1.
    9000006    2    1    2  501    0  0.00000000000E+00  0.00000000000E+00  0.89306575361E+03  0.11069342464E+04  0.65401604380E+03 0.  0.
         13    1    3    3    0    0 -0.25784180455E+03 -0.15205234579E+03  0.22371145589E+03  0.37369657147E+03  0.00000000000E+00 0. -1.
          2    1    3    3  501    0  0.25784180455E+03  0.15205234579E+03  0.66935429772E+03  0.73323767491E+03  0.00000000000E+00 0. -1.
<mgrwt>
<rscale>  0 0.65401604E+03</rscale>
<asrwt>0</asrwt>
<pdfrwt beam="1">0</pdfrwt>
<pdfrwt beam="2">  1        2 0.38885263E+00 0.65401604E+03</pdfrwt>
<totfact> 0.43820169E+00</totfact>
</mgrwt>
</event>
<event>
 5    1  0.2311484E-004  0.7042015E+03  0.7818608E-02  0.9710074E-01
         13   -1    0    0    0    0  0.00000000000E+00  0.00000000000E+00  0.10000000000E+04  0.10000000000E+04  0.00000000000E+00 0. -1.
          2   -1    0    0  501    0 -0.00000000000E+00 -0.00000000000E+00 -0.12397495029E+03  0.12397495029E+03  0.00000000000E+00 0. -1.
    9000006    2    1    2  501    0  0.00000000000E+00  0.00000000000E+00  0.87602504971E+03  0.11239749503E+04  0.70420153448E+03 0.  0.
         13    1    3    3    0    0 -0.16339665950E+03  0.29829511633E+03  0.58339339659E+03  0.67529719379E+03  0.00000000000E+00 0. -1.
          2    1    3    3  501    0  0.16339665950E+03 -0.29829511633E+03  0.29263165312E+03  0.44867775650E+03  0.00000000000E+00 0. -1.
<mgrwt>
<rscale>  0 0.70420153E+03</rscale>
<asrwt>0</asrwt>
<pdfrwt beam="1">0</pdfrwt>
<pdfrwt beam="2">  1        2 0.45081895E+00 0.70420153E+03</pdfrwt>
<totfact> 0.25279631E+00</totfact>
</mgrwt>
</event>
<event>
 5    1  0.2311484E-004  0.6476416E+03  0.7818608E-02  0.9811215E-01
         13   -1    0    0    0    0  0.00000000000E+00  0.00000000000E+00  0.10000000000E+04  0.10000000000E+04  0.00000000000E+00 0. -1.
          2   -1    0    0  501    0 -0.00000000000E+00 -0.00000000000E+00 -0.10485991728E+03  0.10485991728E+03  0.00000000000E+00 0. -1.
    9000006    2    1    2  501    0  0.00000000000E+00  0.00000000000E+00  0.89514008272E+03  0.11048599173E+04  0.64764162091E+03 0.  0.
         13    1    3    3    0    0  0.27570110989E+03 -0.15176436796E+03  0.31746345033E+03  0.44701965021E+03  0.00000000000E+00 0. -1.
          2    1    3    3  501    0 -0.27570110989E+03  0.15176436796E+03  0.57767663239E+03  0.65784026707E+03  0.00000000000E+00 0. -1.
<mgrwt>
<rscale>  0 0.64764162E+03</rscale>
<asrwt>0</asrwt>
<pdfrwt beam="1">0</pdfrwt>
<pdfrwt beam="2">  1        2 0.38130959E+00 0.64764162E+03</pdfrwt>
<totfact> 0.46755592E+00</totfact>
</mgrwt>
</event>
<event>
 5    1  0.2311484E-004  0.6185100E+03  0.7818608E-02  0.9867731E-01
         13   -1    0    0    0    0  0.00000000000E+00  0.00000000000E+00  0.10000000000E+04  0.10000000000E+04  0.00000000000E+00 0. -1.
          2   -1    0    0  501    0 -0.00000000000E+00 -0.00000000000E+00 -0.95638653107E+02  0.95638653107E+02  0.00000000000E+00 0. -1.
    9000006    2    1    2  501    0  0.00000000000E+00  0.00000000000E+00  0.90436134689E+03  0.10956386531E+04  0.61850999380E+03 0.  0.
         13    1    3    3    0    0 -0.17624865224E+03  0.62099462334E+02  0.15682996480E+02  0.18752569696E+03  0.00000000000E+00 0. -1.
          4    1    3    3  501    0  0.17624865224E+03 -0.62099462334E+02  0.88867835041E+03  0.90811295615E+03  0.00000000000E+00 0. -1.
<mgrwt>
<rscale>  0 0.61850999E+03</rscale>
<asrwt>0</asrwt>
<pdfrwt beam="1">0</pdfrwt>
<pdfrwt beam="2">  1        2 0.34777765E+00 0.61850999E+03</pdfrwt>
<totfact> 0.62112912E+00</totfact>
</mgrwt>
</event>
<event>
 5    1  0.2311484E-004  0.6272912E+03  0.7818608E-02  0.9850349E-01
         13   -1    0    0    0    0  0.00000000000E+00  0.00000000000E+00  0.10000000000E+04  0.10000000000E+04  0.00000000000E+00 0. -1.
          2   -1    0    0  501    0 -0.00000000000E+00 -0.00000000000E+00 -0.98373558960E+02  0.98373558960E+02  0.00000000000E+00 0. -1.
    9000006    2    1    2  501    0  0.00000000000E+00  0.00000000000E+00  0.90162644104E+03  0.10983735590E+04  0.62729118903E+03 0.  0.
         13    1    3    3    0    0  0.18991778290E+02  0.28595678184E+03  0.22766411164E+03  0.36600944858E+03  0.00000000000E+00 0. -1.
          4    1    3    3  501    0 -0.18991778290E+02 -0.28595678184E+03  0.67396232940E+03  0.73236411038E+03  0.00000000000E+00 0. -1.
<mgrwt>
<rscale>  0 0.62729119E+03</rscale>
<asrwt>0</asrwt>
<pdfrwt beam="1">0</pdfrwt>
<pdfrwt beam="2">  1        2 0.35772279E+00 0.62729119E+03</pdfrwt>
<totfact> 0.57131941E+00</totfact>
</mgrwt>
</event>
<event>
 5    1  0.2311484E-004  0.6515741E+03  0.7818608E-02  0.9803830E-01
         13   -1    0    0    0    0  0.00000000000E+00  0.00000000000E+00  0.10000000000E+04  0.10000000000E+04  0.00000000000E+00 0. -1.
          2   -1    0    0  501    0 -0.00000000000E+00 -0.00000000000E+00 -0.10613718718E+03  0.10613718718E+03  0.00000000000E+00 0. -1.
    9000006    2    1    2  501    0  0.00000000000E+00  0.00000000000E+00  0.89386281282E+03  0.11061371872E+04  0.65157405469E+03 0.  0.
         13    1    3    3    0    0 -0.62878711470E+02 -0.20188115198E+03  0.26179131500E+02  0.21306120906E+03  0.00000000000E+00 0. -1.
          4    1    3    3  501    0  0.62878711470E+02  0.20188115198E+03  0.86768368132E+03  0.89307597812E+03  0.00000000000E+00 0. -1.
<mgrwt>
<rscale>  0 0.65157405E+03</rscale>
<asrwt>0</asrwt>
<pdfrwt beam="1">0</pdfrwt>
<pdfrwt beam="2">  1        2 0.38595422E+00 0.65157405E+03</pdfrwt>
<totfact> 0.44927735E+00</totfact>
</mgrwt>
</event>
<event>
 5    1  0.2311484E-004  0.6460448E+03  0.7818608E-02  0.9814229E-01
         13   -1    0    0    0    0  0.00000000000E+00  0.00000000000E+00  0.10000000000E+04  0.10000000000E+04  0.00000000000E+00 0. -1.
          2   -1    0    0  501    0 -0.00000000000E+00 -0.00000000000E+00 -0.10434346384E+03  0.10434346384E+03  0.00000000000E+00 0. -1.
    9000006    2    1    2  501    0  0.00000000000E+00  0.00000000000E+00  0.89565653616E+03  0.11043434638E+04  0.64604477813E+03 0.  0.
         13    1    3    3    0    0 -0.16422532494E+03 -0.17771308860E+03  0.81362033800E+03  0.84884035815E+03  0.00000000000E+00 0. -1.
          4    1    3    3  501    0  0.16422532494E+03  0.17771308860E+03  0.82036198163E+02  0.25550310569E+03  0.00000000000E+00 0. -1.
<mgrwt>
<rscale>  0 0.64604478E+03</rscale>
<asrwt>0</asrwt>
<pdfrwt beam="1">0</pdfrwt>
<pdfrwt beam="2">  1        2 0.37943158E+00 0.64604478E+03</pdfrwt>
<totfact> 0.47513659E+00</totfact>
</mgrwt>
</event>
<event>
 5    1  0.2311484E-004  0.6557336E+03  0.7818608E-02  0.9796079E-01
         13   -1    0    0    0    0  0.00000000000E+00  0.00000000000E+00  0.10000000000E+04  0.10000000000E+04  0.00000000000E+00 0. -1.
          2   -1    0    0  501    0 -0.00000000000E+00 -0.00000000000E+00 -0.10749665390E+03  0.10749665390E+03  0.00000000000E+00 0. -1.
    9000006    2    1    2  501    0  0.00000000000E+00  0.00000000000E+00  0.89250334610E+03  0.11074966539E+04  0.65573364685E+03 0.  0.
         13    1    3    3    0    0 -0.21746786772E+03 -0.23406266907E+03  0.32192153169E+03  0.45355383264E+03  0.00000000000E+00 0. -1.
          4    1    3    3  501    0  0.21746786772E+03  0.23406266907E+03  0.57058181441E+03  0.65394282126E+03  0.00000000000E+00 0. -1.
<mgrwt>
<rscale>  0 0.65573365E+03</rscale>
<asrwt>0</asrwt>
<pdfrwt beam="1">0</pdfrwt>
<pdfrwt beam="2">  1        2 0.39089775E+00 0.65573365E+03</pdfrwt>
<totfact> 0.43053594E+00</totfact>
</mgrwt>
</event>
<event>
 5    1  0.2311484E-004  0.5953681E+03  0.7818608E-02  0.9915063E-01
         13   -1    0    0    0    0  0.00000000000E+00  0.00000000000E+00  0.10000000000E+04  0.10000000000E+04  0.00000000000E+00 0. -1.
          4   -1    0    0  501    0 -0.00000000000E+00 -0.00000000000E+00 -0.88615788377E+02  0.88615788377E+02  0.00000000000E+00 0. -1.
    9000006    2    1    2  501    0  0.00000000000E+00  0.00000000000E+00  0.91138421162E+03  0.10886157884E+04  0.59536808237E+03 0.  0.
         13    1    3    3    0    0  0.12422492587E+03 -0.21067112830E+03  0.76600343229E+03  0.80409913244E+03  0.00000000000E+00 0. -1.
          2    1    3    3  501    0 -0.12422492587E+03  0.21067112830E+03  0.14538077933E+03  0.28451665594E+03  0.00000000000E+00 0. -1.
<mgrwt>
<rscale>  0 0.59536808E+03</rscale>
<asrwt>0</asrwt>
<pdfrwt beam="1">0</pdfrwt>
<pdfrwt beam="2">  1        4 0.32223991E+00 0.59536808E+03</pdfrwt>
<totfact> 0.10377027E-01</totfact>
</mgrwt>
</event>
<event>
 5    1  0.2311484E-004  0.6659433E+03  0.7818608E-02  0.9777314E-01
         13   -1    0    0    0    0  0.00000000000E+00  0.00000000000E+00  0.10000000000E+04  0.10000000000E+04  0.00000000000E+00 0. -1.
          2   -1    0    0  501    0 -0.00000000000E+00 -0.00000000000E+00 -0.11087013297E+03  0.11087013297E+03  0.00000000000E+00 0. -1.
    9000006    2    1    2  501    0  0.00000000000E+00  0.00000000000E+00  0.88912986703E+03  0.11108701330E+04  0.66594333984E+03 0.  0.
         13    1    3    3    0    0  0.17348724209E+03  0.26832395080E+02  0.91653342425E+03  0.93319414827E+03  0.00000000000E+00 0. -1.
          4    1    3    3  501    0 -0.17348724209E+03 -0.26832395080E+02 -0.27403557218E+02  0.17767598470E+03  0.00000000000E+00 0. -1.
<mgrwt>
<rscale>  0 0.66594334E+03</rscale>
<asrwt>0</asrwt>
<pdfrwt beam="1">0</pdfrwt>
<pdfrwt beam="2">  1        2 0.40316497E+00 0.66594334E+03</pdfrwt>
<totfact> 0.38703963E+00</totfact>
</mgrwt>
</event>
<event>
 5    1  0.2311484E-004  0.6462905E+03  0.7818608E-02  0.9813765E-01
         13   -1    0    0    0    0  0.00000000000E+00  0.00000000000E+00  0.10000000000E+04  0.10000000000E+04  0.00000000000E+00 0. -1.
          2   -1    0    0  501    0 -0.00000000000E+00 -0.00000000000E+00 -0.10442284709E+03  0.10442284709E+03  0.00000000000E+00 0. -1.
    9000006    2    1    2  501    0  0.00000000000E+00  0.00000000000E+00  0.89557715291E+03  0.11044228471E+04  0.64629048295E+03 0.  0.
         13    1    3    3    0    0  0.16524614535E+03  0.26977991375E+03  0.56030606710E+03  0.64345192458E+03  0.00000000000E+00 0. -1.
          4    1    3    3  501    0 -0.16524614535E+03 -0.26977991375E+03  0.33527108581E+03  0.46097092251E+03  0.00000000000E+00 0. -1.
<mgrwt>
<rscale>  0 0.64629048E+03</rscale>
<asrwt>0</asrwt>
<pdfrwt beam="1">0</pdfrwt>
<pdfrwt beam="2">  1        2 0.37972024E+00 0.64629048E+03</pdfrwt>
<totfact> 0.47396416E+00</totfact>
</mgrwt>
</event>
<event>
 5    1  0.2311484E-004  0.6489555E+03  0.7818608E-02  0.9808741E-01
         13   -1    0    0    0    0  0.00000000000E+00  0.00000000000E+00  0.10000000000E+04  0.10000000000E+04  0.00000000000E+00 0. -1.
          2   -1    0    0  501    0 -0.00000000000E+00 -0.00000000000E+00 -0.10528581420E+03  0.10528581420E+03  0.00000000000E+00 0. -1.
    9000006    2    1    2  501    0  0.00000000000E+00  0.00000000000E+00  0.89471418580E+03  0.11052858142E+04  0.64895551218E+03 0.  0.
         13    1    3    3    0    0 -0.21512559842E+03  0.24227282420E+03  0.41733719845E+03  0.52834220128E+03  0.00000000000E+00 0. -1.
          4    1    3    3  501    0  0.21512559842E+03 -0.24227282420E+03  0.47737698735E+03  0.57694361292E+03  0.00000000000E+00 0. -1.
<mgrwt>
<rscale>  0 0.64895551E+03</rscale>
<asrwt>0</asrwt>
<pdfrwt beam="1">0</pdfrwt>
<pdfrwt beam="2">  1        2 0.38285831E+00 0.64895551E+03</pdfrwt>
<totfact> 0.46138739E+00</totfact>
</mgrwt>
</event>
<event>
 5    1  0.2311484E-004  0.6339181E+03  0.7818608E-02  0.9837433E-01
         13   -1    0    0    0    0  0.00000000000E+00  0.00000000000E+00  0.10000000000E+04  0.10000000000E+04  0.00000000000E+00 0. -1.
          2   -1    0    0  501    0 -0.00000000000E+00 -0.00000000000E+00 -0.10046303534E+03  0.10046303534E+03  0.00000000000E+00 0. -1.
    9000006    2    1    2  501    0  0.00000000000E+00  0.00000000000E+00  0.89953696466E+03  0.11004630353E+04  0.63391808726E+03 0.  0.
         13    1    3    3    0    0  0.19874317927E+02 -0.21190381589E+03  0.42037778398E+02  0.21694559344E+03  0.00000000000E+00 0. -1.
          4    1    3    3  501    0 -0.19874317927E+02  0.21190381589E+03  0.85749918626E+03  0.88351744190E+03  0.00000000000E+00 0. -1.
<mgrwt>
<rscale>  0 0.63391809E+03</rscale>
<asrwt>0</asrwt>
<pdfrwt beam="1">0</pdfrwt>
<pdfrwt beam="2">  1        2 0.36532090E+00 0.63391809E+03</pdfrwt>
<totfact> 0.53578926E+00</totfact>
</mgrwt>
</event>
<event>
 5    1  0.2311484E-004  0.6405400E+03  0.7818608E-02  0.9824694E-01
         13   -1    0    0    0    0  0.00000000000E+00  0.00000000000E+00  0.10000000000E+04  0.10000000000E+04  0.00000000000E+00 0. -1.
          2   -1    0    0  501    0 -0.00000000000E+00 -0.00000000000E+00 -0.10257288636E+03  0.10257288636E+03  0.00000000000E+00 0. -1.
    9000006    2    1    2  501    0  0.00000000000E+00  0.00000000000E+00  0.89742711364E+03  0.11025728864E+04  0.64054004202E+03 0.  0.
         13    1    3    3    0    0  0.59176756852E+02  0.31466744427E+03  0.46152521739E+03  0.56171435384E+03  0.00000000000E+00 0. -1.
          4    1    3    3  501    0 -0.59176756852E+02 -0.31466744427E+03  0.43590189626E+03  0.54085853251E+03  0.00000000000E+00 0. -1.
<mgrwt>
<rscale>  0 0.64054004E+03</rscale>
<asrwt>0</asrwt>
<pdfrwt beam="1">0</pdfrwt>
<pdfrwt beam="2">  1        2 0.37299310E+00 0.64054004E+03</pdfrwt>
<totfact> 0.50198505E+00</totfact>
</mgrwt>
</event>
<event>
 5    1  0.2311484E-004  0.6396820E+03  0.7818608E-02  0.9826335E-01
         13   -1    0    0    0    0  0.00000000000E+00  0.00000000000E+00  0.10000000000E+04  0.10000000000E+04  0.00000000000E+00 0. -1.
          2   -1    0    0  501    0 -0.00000000000E+00 -0.00000000000E+00 -0.10229826639E+03  0.10229826639E+03  0.00000000000E+00 0. -1.
    9000006    2    1    2  501    0  0.00000000000E+00  0.00000000000E+00  0.89770173361E+03  0.11022982664E+04  0.63968200346E+03 0.  0.
         13    1    3    3    0    0  0.16363005895E+03 -0.26481652376E+03  0.57542881212E+03  0.65423306647E+03  0.00000000000E+00 0. -1.
          2    1    3    3  501    0 -0.16363005895E+03  0.26481652376E+03  0.32227292149E+03  0.44806519992E+03  0.00000000000E+00 0. -1.
<mgrwt>
<rscale>  0 0.63968200E+03</rscale>
<asrwt>0</asrwt>
<pdfrwt beam="1">0</pdfrwt>
<pdfrwt beam="2">  1        2 0.37199448E+00 0.63968200E+03</pdfrwt>
<totfact> 0.50627150E+00</totfact>
</mgrwt>
</event>
<event>
 5    1  0.2311484E-004  0.6254025E+03  0.7818608E-02  0.9854062E-01
         13   -1    0    0    0    0  0.00000000000E+00  0.00000000000E+00  0.10000000000E+04  0.10000000000E+04  0.00000000000E+00 0. -1.
          2   -1    0    0  501    0 -0.00000000000E+00 -0.00000000000E+00 -0.97782073068E+02  0.97782073068E+02  0.00000000000E+00 0. -1.
    9000006    2    1    2  501    0  0.00000000000E+00  0.00000000000E+00  0.90221792693E+03  0.10977820731E+04  0.62540250421E+03 0.  0.
         13    1    3    3    0    0 -0.30455498229E+02 -0.23514701424E+03  0.93262714841E+02  0.25479322922E+03  0.00000000000E+00 0. -1.
          2    1    3    3  501    0  0.30455498229E+02  0.23514701424E+03  0.80895521209E+03  0.84298884385E+03  0.00000000000E+00 0. -1.
<mgrwt>
<rscale>  0 0.62540250E+03</rscale>
<asrwt>0</asrwt>
<pdfrwt beam="1">0</pdfrwt>
<pdfrwt beam="2">  1        2 0.35557192E+00 0.62540250E+03</pdfrwt>
<totfact> 0.58176630E+00</totfact>
</mgrwt>
</event>
<event>
 5    1  0.2311484E-004  0.6461313E+03  0.7818608E-02  0.9814066E-01
         13   -1    0    0    0    0  0.00000000000E+00  0.00000000000E+00  0.10000000000E+04  0.10000000000E+04  0.00000000000E+00 0. -1.
          2   -1    0    0  501    0 -0.00000000000E+00 -0.00000000000E+00 -0.10437140038E+03  0.10437140038E+03  0.00000000000E+00 0. -1.
    9000006    2    1    2  501    0  0.00000000000E+00  0.00000000000E+00  0.89562859962E+03  0.11043714004E+04  0.64613125718E+03 0.  0.
         13    1    3    3    0    0  0.10929511166E+02 -0.31567414038E+03  0.56376075629E+03  0.64621653294E+03  0.00000000000E+00 0. -1.
          4    1    3    3  501    0 -0.10929511166E+02  0.31567414038E+03  0.33186784334E+03  0.45815486744E+03  0.00000000000E+00 0. -1.
<mgrwt>
<rscale>  0 0.64613126E+03</rscale>
<asrwt>0</asrwt>
<pdfrwt beam="1">0</pdfrwt>
<pdfrwt beam="2">  1        2 0.37953317E+00 0.64613126E+03</pdfrwt>
<totfact> 0.47472369E+00</totfact>
</mgrwt>
</event>
<event>
 5    1  0.2311484E-004  0.6623049E+03  0.7818608E-02  0.9783960E-01
         13   -1    0    0    0    0  0.00000000000E+00  0.00000000000E+00  0.10000000000E+04  0.10000000000E+04  0.00000000000E+00 0. -1.
          2   -1    0    0  501    0 -0.00000000000E+00 -0.00000000000E+00 -0.10966193170E+03  0.10966193170E+03  0.00000000000E+00 0. -1.
    9000006    2    1    2  501    0  0.00000000000E+00  0.00000000000E+00  0.89033806830E+03  0.11096619317E+04  0.66230485943E+03 0.  0.
         13    1    3    3    0    0  0.29927247896E+03  0.84866034041E+02  0.25490586634E+03  0.40217317301E+03  0.00000000000E+00 0. -1.
          2    1    3    3  501    0 -0.29927247896E+03 -0.84866034041E+02  0.63543220196E+03  0.70748875869E+03  0.00000000000E+00 0. -1.
<mgrwt>
<rscale>  0 0.66230486E+03</rscale>
<asrwt>0</asrwt>
<pdfrwt beam="1">0</pdfrwt>
<pdfrwt beam="2">  1        2 0.39877150E+00 0.66230486E+03</pdfrwt>
<totfact> 0.40214054E+00</totfact>
</mgrwt>
</event>
<event>
 5    1  0.2311484E-004  0.6557121E+03  0.7818608E-02  0.9796120E-01
         13   -1    0    0    0    0  0.00000000000E+00  0.00000000000E+00  0.10000000000E+04  0.10000000000E+04  0.00000000000E+00 0. -1.
          2   -1    0    0  501    0 -0.00000000000E+00 -0.00000000000E+00 -0.10748957428E+03  0.10748957428E+03  0.00000000000E+00 0. -1.
    9000006    2    1    2  501    0  0.00000000000E+00  0.00000000000E+00  0.89251042572E+03  0.11074895743E+04  0.65571205350E+03 0.  0.
         13    1    3    3    0    0 -0.13828344884E+03  0.29223793804E+03  0.35429840938E+03  0.47963807974E+03  0.00000000000E+00 0. -1.
          4    1    3    3  501    0  0.13828344884E+03 -0.29223793804E+03  0.53821201634E+03  0.62785149453E+03  0.00000000000E+00 0. -1.
<mgrwt>
<rscale>  0 0.65571205E+03</rscale>
<asrwt>0</asrwt>
<pdfrwt beam="1">0</pdfrwt>
<pdfrwt beam="2">  1        2 0.39087200E+00 0.65571205E+03</pdfrwt>
<totfact> 0.43063168E+00</totfact>
</mgrwt>
</event>
<event>
 5    1  0.2311484E-004  0.5881474E+03  0.7818608E-02  0.9930306E-01
         13   -1    0    0    0    0  0.00000000000E+00  0.00000000000E+00  0.10000000000E+04  0.10000000000E+04  0.00000000000E+00 0. -1.
          2   -1    0    0  501    0 -0.00000000000E+00 -0.00000000000E+00 -0.86479350907E+02  0.86479350907E+02  0.00000000000E+00 0. -1.
    9000006    2    1    2  501    0  0.00000000000E+00  0.00000000000E+00  0.91352064909E+03  0.10864793509E+04  0.58814743358E+03 0.  0.
         13    1    3    3    0    0 -0.23154976365E+03 -0.16461522694E+03  0.59703144157E+03  0.66118076818E+03  0.00000000000E+00 0. -1.
          4    1    3    3  501    0  0.23154976365E+03  0.16461522694E+03  0.31648920752E+03  0.42529858273E+03  0.00000000000E+00 0. -1.
<mgrwt>
<rscale>  0 0.58814743E+03</rscale>
<asrwt>0</asrwt>
<pdfrwt beam="1">0</pdfrwt>
<pdfrwt beam="2">  1        2 0.31447103E+00 0.58814743E+03</pdfrwt>
<totfact> 0.81936564E+00</totfact>
</mgrwt>
</event>
<event>
 5    1  0.2311484E-004  0.6499531E+03  0.7818608E-02  0.9806867E-01
         13   -1    0    0    0    0  0.00000000000E+00  0.00000000000E+00  0.10000000000E+04  0.10000000000E+04  0.00000000000E+00 0. -1.
          2   -1    0    0  501    0 -0.00000000000E+00 -0.00000000000E+00 -0.10560975038E+03  0.10560975038E+03  0.00000000000E+00 0. -1.
    9000006    2    1    2  501    0  0.00000000000E+00  0.00000000000E+00  0.89439024962E+03  0.11056097504E+04  0.64995307641E+03 0.  0.
         13    1    3    3    0    0  0.31040336842E+03  0.91577920057E+02  0.49745517896E+03  0.59346307521E+03  0.00000000000E+00 0. -1.
          4    1    3    3  501    0 -0.31040336842E+03 -0.91577920057E+02  0.39693507066E+03  0.51214667517E+03  0.00000000000E+00 0. -1.
<mgrwt>
<rscale>  0 0.64995308E+03</rscale>
<asrwt>0</asrwt>
<pdfrwt beam="1">0</pdfrwt>
<pdfrwt beam="2">  1        2 0.38403627E+00 0.64995308E+03</pdfrwt>
<totfact> 0.45674521E+00</totfact>
</mgrwt>
</event>
<event>
 5    1  0.2311484E-004  0.6658737E+03  0.7818608E-02  0.9777441E-01
         13   -1    0    0    0    0  0.00000000000E+00  0.00000000000E+00  0.10000000000E+04  0.10000000000E+04  0.00000000000E+00 0. -1.
          2   -1    0    0  501    0 -0.00000000000E+00 -0.00000000000E+00 -0.11084694822E+03  0.11084694822E+03  0.00000000000E+00 0. -1.
    9000006    2    1    2  501    0  0.00000000000E+00  0.00000000000E+00  0.88915305178E+03  0.11108469482E+04  0.66587370640E+03 0.  0.
         13    1    3    3    0    0  0.11316104587E+03 -0.31019971232E+03  0.51570102321E+03  0.61235351649E+03  0.00000000000E+00 0. -1.
          2    1    3    3  501    0 -0.11316104587E+03  0.31019971232E+03  0.37345202857E+03  0.49849343172E+03  0.00000000000E+00 0. -1.
<mgrwt>
<rscale>  0 0.66587371E+03</rscale>
<asrwt>0</asrwt>
<pdfrwt beam="1">0</pdfrwt>
<pdfrwt beam="2">  1        2 0.40308066E+00 0.66587371E+03</pdfrwt>
<totfact> 0.38732456E+00</totfact>
</mgrwt>
</event>
<event>
 5    1  0.2311484E-004  0.6496565E+03  0.7818608E-02  0.9807424E-01
         13   -1    0    0    0    0  0.00000000000E+00  0.00000000000E+00  0.10000000000E+04  0.10000000000E+04  0.00000000000E+00 0. -1.
          2   -1    0    0  501    0 -0.00000000000E+00 -0.00000000000E+00 -0.10551338775E+03  0.10551338775E+03  0.00000000000E+00 0. -1.
    9000006    2    1    2  501    0  0.00000000000E+00  0.00000000000E+00  0.89448661225E+03  0.11055133877E+04  0.64965648692E+03 0.  0.
         13    1    3    3    0    0  0.11777667884E+03 -0.29371629157E+03  0.32251074898E+03  0.45183380708E+03  0.00000000000E+00 0. -1.
          2    1    3    3  501    0 -0.11777667884E+03  0.29371629157E+03  0.57197586327E+03  0.65367958066E+03  0.00000000000E+00 0. -1.
<mgrwt>
<rscale>  0 0.64965649E+03</rscale>
<asrwt>0</asrwt>
<pdfrwt beam="1">0</pdfrwt>
<pdfrwt beam="2">  1        2 0.38368586E+00 0.64965649E+03</pdfrwt>
<totfact> 0.45812169E+00</totfact>
</mgrwt>
</event>
<event>
 5    1  0.2311484E-004  0.6704508E+03  0.7818608E-02  0.9769144E-01
         13   -1    0    0    0    0  0.00000000000E+00  0.00000000000E+00  0.10000000000E+04  0.10000000000E+04  0.00000000000E+00 0. -1.
          2   -1    0    0  501    0 -0.00000000000E+00 -0.00000000000E+00 -0.11237605963E+03  0.11237605963E+03  0.00000000000E+00 0. -1.
    9000006    2    1    2  501    0  0.00000000000E+00  0.00000000000E+00  0.88762394037E+03  0.11123760596E+04  0.67045077264E+03 0.  0.
         13    1    3    3    0    0  0.12149865449E+03 -0.23638184489E+03  0.78277263796E+03  0.82666275008E+03  0.00000000000E+00 0. -1.
          2    1    3    3  501    0 -0.12149865449E+03  0.23638184489E+03  0.10485130241E+03  0.28571330955E+03  0.00000000000E+00 0. -1.
<mgrwt>
<rscale>  0 0.67045077E+03</rscale>
<asrwt>0</asrwt>
<pdfrwt beam="1">0</pdfrwt>
<pdfrwt beam="2">  1        2 0.40864108E+00 0.67045077E+03</pdfrwt>
<totfact> 0.36892979E+00</totfact>
</mgrwt>
</event>
<event>
 5    1  0.2311484E-004  0.6338161E+03  0.7818608E-02  0.9837630E-01
         13   -1    0    0    0    0  0.00000000000E+00  0.00000000000E+00  0.10000000000E+04  0.10000000000E+04  0.00000000000E+00 0. -1.
          2   -1    0    0  501    0 -0.00000000000E+00 -0.00000000000E+00 -0.10043070721E+03  0.10043070721E+03  0.00000000000E+00 0. -1.
    9000006    2    1    2  501    0  0.00000000000E+00  0.00000000000E+00  0.89956929279E+03  0.11004307072E+04  0.63381608439E+03 0.  0.
         13    1    3    3    0    0 -0.27212529537E+03 -0.10106312423E+03  0.22904299530E+03  0.36976563544E+03  0.00000000000E+00 0. -1.
          2    1    3    3  501    0  0.27212529537E+03  0.10106312423E+03  0.67052629750E+03  0.73066507176E+03  0.00000000000E+00 0. -1.
<mgrwt>
<rscale>  0 0.63381608E+03</rscale>
<asrwt>0</asrwt>
<pdfrwt beam="1">0</pdfrwt>
<pdfrwt beam="2">  1        2 0.36520334E+00 0.63381608E+03</pdfrwt>
<totfact> 0.53632310E+00</totfact>
</mgrwt>
</event>
<event>
 5    1  0.2311484E-004  0.6566417E+03  0.7818608E-02  0.9794396E-01
         13   -1    0    0    0    0  0.00000000000E+00  0.00000000000E+00  0.10000000000E+04  0.10000000000E+04  0.00000000000E+00 0. -1.
          2   -1    0    0  501    0 -0.00000000000E+00 -0.00000000000E+00 -0.10779459553E+03  0.10779459553E+03  0.00000000000E+00 0. -1.
    9000006    2    1    2  501    0  0.00000000000E+00  0.00000000000E+00  0.89220540447E+03  0.11077945955E+04  0.65664174565E+03 0.  0.
         13    1    3    3    0    0 -0.30924435962E+02 -0.18730008727E+03  0.89802393310E+03  0.91786961375E+03  0.00000000000E+00 0. -1.
          4    1    3    3  501    0  0.30924435962E+02  0.18730008727E+03 -0.58185286303E+01  0.18992498178E+03  0.00000000000E+00 0. -1.
<mgrwt>
<rscale>  0 0.65664175E+03</rscale>
<asrwt>0</asrwt>
<pdfrwt beam="1">0</pdfrwt>
<pdfrwt beam="2">  1        2 0.39198117E+00 0.65664175E+03</pdfrwt>
<totfact> 0.42652421E+00</totfact>
</mgrwt>
</event>
<event>
 5    1  0.2311484E-004  0.6633942E+03  0.7818608E-02  0.9781965E-01
         13   -1    0    0    0    0  0.00000000000E+00  0.00000000000E+00  0.10000000000E+04  0.10000000000E+04  0.00000000000E+00 0. -1.
          2   -1    0    0  501    0 -0.00000000000E+00 -0.00000000000E+00 -0.11002297333E+03  0.11002297333E+03  0.00000000000E+00 0. -1.
    9000006    2    1    2  501    0  0.00000000000E+00  0.00000000000E+00  0.88997702667E+03  0.11100229733E+04  0.66339422166E+03 0.  0.
         13    1    3    3    0    0  0.21898947632E+03  0.23451474973E+03  0.30430214669E+03  0.44221415068E+03  0.00000000000E+00 0. -1.
          4    1    3    3  501    0 -0.21898947632E+03 -0.23451474973E+03  0.58567487998E+03  0.66780882265E+03  0.00000000000E+00 0. -1.
<mgrwt>
<rscale>  0 0.66339422E+03</rscale>
<asrwt>0</asrwt>
<pdfrwt beam="1">0</pdfrwt>
<pdfrwt beam="2">  1        2 0.40008438E+00 0.66339422E+03</pdfrwt>
<totfact> 0.39757355E+00</totfact>
</mgrwt>
</event>
<event>
 5    1  0.2311484E-004  0.6587630E+03  0.7818608E-02  0.9790474E-01
         13   -1    0    0    0    0  0.00000000000E+00  0.00000000000E+00  0.10000000000E+04  0.10000000000E+04  0.00000000000E+00 0. -1.
          2   -1    0    0  501    0 -0.00000000000E+00 -0.00000000000E+00 -0.10849215742E+03  0.10849215742E+03  0.00000000000E+00 0. -1.
    9000006    2    1    2  501    0  0.00000000000E+00  0.00000000000E+00  0.89150784258E+03  0.11084921574E+04  0.65876295409E+03 0.  0.
         13    1    3    3    0    0 -0.28843565169E+03 -0.15644200876E+03  0.39748307158E+03  0.51542411610E+03  0.00000000000E+00 0. -1.
          4    1    3    3  501    0  0.28843565169E+03  0.15644200876E+03  0.49402477100E+03  0.59306804132E+03  0.00000000000E+00 0. -1.
<mgrwt>
<rscale>  0 0.65876295E+03</rscale>
<asrwt>0</asrwt>
<pdfrwt beam="1">0</pdfrwt>
<pdfrwt beam="2">  1        2 0.39451777E+00 0.65876295E+03</pdfrwt>
<totfact> 0.41726348E+00</totfact>
</mgrwt>
</event>
<event>
 5    1  0.2311484E-004  0.6419030E+03  0.7818608E-02  0.9822092E-01
         13   -1    0    0    0    0  0.00000000000E+00  0.00000000000E+00  0.10000000000E+04  0.10000000000E+04  0.00000000000E+00 0. -1.
          2   -1    0    0  501    0 -0.00000000000E+00 -0.00000000000E+00 -0.10300987568E+03  0.10300987568E+03  0.00000000000E+00 0. -1.
    9000006    2    1    2  501    0  0.00000000000E+00  0.00000000000E+00  0.89699012432E+03  0.11030098757E+04  0.64190303217E+03 0.  0.
         13    1    3    3    0    0  0.27432302295E+03 -0.14777149064E+03  0.58071085881E+03  0.65902551992E+03  0.00000000000E+00 0. -1.
          4    1    3    3  501    0 -0.27432302295E+03  0.14777149064E+03  0.31627926551E+03  0.44398435576E+03  0.00000000000E+00 0. -1.
<mgrwt>
<rscale>  0 0.64190303E+03</rscale>
<asrwt>0</asrwt>
<pdfrwt beam="1">0</pdfrwt>
<pdfrwt beam="2">  1        2 0.37458216E+00 0.64190303E+03</pdfrwt>
<totfact> 0.49523261E+00</totfact>
</mgrwt>
</event>
<event>
 5    1  0.2311484E-004  0.6337227E+03  0.7818608E-02  0.9837811E-01
         13   -1    0    0    0    0  0.00000000000E+00  0.00000000000E+00  0.10000000000E+04  0.10000000000E+04  0.00000000000E+00 0. -1.
          2   -1    0    0  501    0 -0.00000000000E+00 -0.00000000000E+00 -0.10040111271E+03  0.10040111271E+03  0.00000000000E+00 0. -1.
    9000006    2    1    2  501    0  0.00000000000E+00  0.00000000000E+00  0.89959888729E+03  0.11004011127E+04  0.63372269239E+03 0.  0.
         13    1    3    3    0    0  0.20009824274E+03 -0.23403588547E+03  0.57961275142E+03  0.65632541018E+03  0.00000000000E+00 0. -1.
          4    1    3    3  501    0 -0.20009824274E+03  0.23403588547E+03  0.31998613586E+03  0.44407570253E+03  0.00000000000E+00 0. -1.
<mgrwt>
<rscale>  0 0.63372269E+03</rscale>
<asrwt>0</asrwt>
<pdfrwt beam="1">0</pdfrwt>
<pdfrwt beam="2">  1        2 0.36509573E+00 0.63372269E+03</pdfrwt>
<totfact> 0.53681223E+00</totfact>
</mgrwt>
</event>
<event>
 5    1  0.2311484E-004  0.6579614E+03  0.7818608E-02  0.9791954E-01
         13   -1    0    0    0    0  0.00000000000E+00  0.00000000000E+00  0.10000000000E+04  0.10000000000E+04  0.00000000000E+00 0. -1.
          2   -1    0    0  501    0 -0.00000000000E+00 -0.00000000000E+00 -0.10822831519E+03  0.10822831519E+03  0.00000000000E+00 0. -1.
    9000006    2    1    2  501    0  0.00000000000E+00  0.00000000000E+00  0.89177168481E+03  0.11082283152E+04  0.65796144321E+03 0.  0.
         13    1    3    3    0    0 -0.27052173482E+03 -0.17985522529E+03  0.35839103238E+03  0.48370863458E+03  0.00000000000E+00 0. -1.
          2    1    3    3  501    0  0.27052173482E+03  0.17985522529E+03  0.53338065243E+03  0.62451968061E+03  0.00000000000E+00 0. -1.
<mgrwt>
<rscale>  0 0.65796144E+03</rscale>
<asrwt>0</asrwt>
<pdfrwt beam="1">0</pdfrwt>
<pdfrwt beam="2">  1        2 0.39355834E+00 0.65796144E+03</pdfrwt>
<totfact> 0.42074455E+00</totfact>
</mgrwt>
</event>
<event>
 5    1  0.2311484E-004  0.5820506E+03  0.7818608E-02  0.9943361E-01
         13   -1    0    0    0    0  0.00000000000E+00  0.00000000000E+00  0.10000000000E+04  0.10000000000E+04  0.00000000000E+00 0. -1.
          4   -1    0    0  501    0 -0.00000000000E+00 -0.00000000000E+00 -0.84695711001E+02  0.84695711001E+02  0.00000000000E+00 0. -1.
    9000006    2    1    2  501    0  0.00000000000E+00  0.00000000000E+00  0.91530428900E+03  0.10846957110E+04  0.58205055107E+03 0.  0.
         13    1    3    3    0    0 -0.14585085737E+03  0.21726098120E+03  0.69499969349E+03  0.74263004282E+03  0.00000000000E+00 0. -1.
          2    1    3    3  501    0  0.14585085737E+03 -0.21726098120E+03  0.22030459551E+03  0.34206566819E+03  0.00000000000E+00 0. -1.
<mgrwt>
<rscale>  0 0.58205055E+03</rscale>
<asrwt>0</asrwt>
<pdfrwt beam="1">0</pdfrwt>
<pdfrwt beam="2">  1        4 0.30798505E+00 0.58205055E+03</pdfrwt>
<totfact> 0.12727842E-01</totfact>
</mgrwt>
</event>
<event>
 5    1  0.2311484E-004  0.6150339E+03  0.7818608E-02  0.9874697E-01
         13   -1    0    0    0    0  0.00000000000E+00  0.00000000000E+00  0.10000000000E+04  0.10000000000E+04  0.00000000000E+00 0. -1.
          2   -1    0    0  501    0 -0.00000000000E+00 -0.00000000000E+00 -0.94566672241E+02  0.94566672241E+02  0.00000000000E+00 0. -1.
    9000006    2    1    2  501    0  0.00000000000E+00  0.00000000000E+00  0.90543332776E+03  0.10945666722E+04  0.61503389253E+03 0.  0.
         13    1    3    3    0    0  0.26791109176E+03 -0.14741395876E+03  0.39478951453E+03  0.49936558663E+03  0.00000000000E+00 0. -1.
          4    1    3    3  501    0 -0.26791109176E+03  0.14741395876E+03  0.51064381323E+03  0.59520108561E+03  0.00000000000E+00 0. -1.
<mgrwt>
<rscale>  0 0.61503389E+03</rscale>
<asrwt>0</asrwt>
<pdfrwt beam="1">0</pdfrwt>
<pdfrwt beam="2">  1        2 0.34387953E+00 0.61503389E+03</pdfrwt>
<totfact> 0.64173367E+00</totfact>
</mgrwt>
</event>
<event>
 5    1  0.2311484E-004  0.6517424E+03  0.7818608E-02  0.9803515E-01
         13   -1    0    0    0    0  0.00000000000E+00  0.00000000000E+00  0.10000000000E+04  0.10000000000E+04  0.00000000000E+00 0. -1.
          2   -1    0    0  501    0 -0.00000000000E+00 -0.00000000000E+00 -0.10619203541E+03  0.10619203541E+03  0.00000000000E+00 0. -1.
    9000006    2    1    2  501    0  0.00000000000E+00  0.00000000000E+00  0.89380796459E+03  0.11061920354E+04  0.65174238901E+03 0.  0.
         13    1    3    3    0    0  0.29068626900E+02 -0.42450270094E+02 -0.99255121825E+02  0.11179709169E+03  0.00000000000E+00 0. -1.
          2    1    3    3  501    0 -0.29068626900E+02  0.42450270094E+02  0.99306308642E+03  0.99439494372E+03  0.00000000000E+00 0. -1.
<mgrwt>
<rscale>  0 0.65174239E+03</rscale>
<asrwt>0</asrwt>
<pdfrwt beam="1">0</pdfrwt>
<pdfrwt beam="2">  1        2 0.38615367E+00 0.65174239E+03</pdfrwt>
<totfact> 0.44850715E+00</totfact>
</mgrwt>
</event>
<event>
 5    1  0.2311484E-004  0.6418956E+03  0.7818608E-02  0.9822107E-01
         13   -1    0    0    0    0  0.00000000000E+00  0.00000000000E+00  0.10000000000E+04  0.10000000000E+04  0.00000000000E+00 0. -1.
          2   -1    0    0  501    0 -0.00000000000E+00 -0.00000000000E+00 -0.10300748299E+03  0.10300748299E+03  0.00000000000E+00 0. -1.
    9000006    2    1    2  501    0  0.00000000000E+00  0.00000000000E+00  0.89699251701E+03  0.11030074830E+04  0.64189557716E+03 0.  0.
         13    1    3    3    0    0 -0.34947162744E+02  0.16829510037E+03 -0.17248763807E+02  0.17274855961E+03  0.00000000000E+00 0. -1.
          2    1    3    3  501    0  0.34947162744E+02 -0.16829510037E+03  0.91424128081E+03  0.93025892338E+03  0.00000000000E+00 0. -1.
<mgrwt>
<rscale>  0 0.64189558E+03</rscale>
<asrwt>0</asrwt>
<pdfrwt beam="1">0</pdfrwt>
<pdfrwt beam="2">  1        2 0.37457346E+00 0.64189558E+03</pdfrwt>
<totfact> 0.49526935E+00</totfact>
</mgrwt>
</event>
<event>
 5    1  0.2311484E-004  0.6506604E+03  0.7818608E-02  0.9805541E-01
         13   -1    0    0    0    0  0.00000000000E+00  0.00000000000E+00  0.10000000000E+04  0.10000000000E+04  0.00000000000E+00 0. -1.
          2   -1    0    0  501    0 -0.00000000000E+00 -0.00000000000E+00 -0.10583974773E+03  0.10583974773E+03  0.00000000000E+00 0. -1.
    9000006    2    1    2  501    0  0.00000000000E+00  0.00000000000E+00  0.89416025227E+03  0.11058397477E+04  0.65066042675E+03 0.  0.
         13    1    3    3    0    0  0.30940470149E+03 -0.97952469221E+02  0.48560414225E+03  0.58406963498E+03  0.00000000000E+00 0. -1.
          4    1    3    3  501    0 -0.30940470149E+03  0.97952469221E+02  0.40855611001E+03  0.52177011275E+03  0.00000000000E+00 0. -1.
<mgrwt>
<rscale>  0 0.65066043E+03</rscale>
<asrwt>0</asrwt>
<pdfrwt beam="1">0</pdfrwt>
<pdfrwt beam="2">  1        2 0.38487262E+00 0.65066043E+03</pdfrwt>
<totfact> 0.45347500E+00</totfact>
</mgrwt>
</event>
<event>
 5    1  0.2311484E-004  0.6574855E+03  0.7818608E-02  0.9792834E-01
         13   -1    0    0    0    0  0.00000000000E+00  0.00000000000E+00  0.10000000000E+04  0.10000000000E+04  0.00000000000E+00 0. -1.
          2   -1    0    0  501    0 -0.00000000000E+00 -0.00000000000E+00 -0.10807177932E+03  0.10807177932E+03  0.00000000000E+00 0. -1.
    9000006    2    1    2  501    0  0.00000000000E+00  0.00000000000E+00  0.89192822068E+03  0.11080717793E+04  0.65748545023E+03 0.  0.
         13    1    3    3    0    0 -0.30335335892E+03  0.79010866732E+02  0.61285141672E+03  0.68836969457E+03  0.00000000000E+00 0. -1.
          2    1    3    3  501    0  0.30335335892E+03 -0.79010866732E+02  0.27907680396E+03  0.41970208474E+03  0.00000000000E+00 0. -1.
<mgrwt>
<rscale>  0 0.65748545E+03</rscale>
<asrwt>0</asrwt>
<pdfrwt beam="1">0</pdfrwt>
<pdfrwt beam="2">  1        2 0.39298912E+00 0.65748545E+03</pdfrwt>
<totfact> 0.42282231E+00</totfact>
</mgrwt>
</event>
<event>
 5    1  0.2311484E-004  0.6474343E+03  0.7818608E-02  0.9811605E-01
         13   -1    0    0    0    0  0.00000000000E+00  0.00000000000E+00  0.10000000000E+04  0.10000000000E+04  0.00000000000E+00 0. -1.
          2   -1    0    0  501    0 -0.00000000000E+00 -0.00000000000E+00 -0.10479279287E+03  0.10479279287E+03  0.00000000000E+00 0. -1.
    9000006    2    1    2  501    0  0.00000000000E+00  0.00000000000E+00  0.89520720713E+03  0.11047927929E+04  0.64743429896E+03 0.  0.
         13    1    3    3    0    0 -0.52621877327E+02  0.15595064535E+03 -0.28064880575E+02  0.16696497621E+03  0.00000000000E+00 0. -1.
          2    1    3    3  501    0  0.52621877327E+02 -0.15595064535E+03  0.92327208771E+03  0.93782781666E+03  0.00000000000E+00 0. -1.
<mgrwt>
<rscale>  0 0.64743430E+03</rscale>
<asrwt>0</asrwt>
<pdfrwt beam="1">0</pdfrwt>
<pdfrwt beam="2">  1        2 0.38106550E+00 0.64743430E+03</pdfrwt>
<totfact> 0.46853494E+00</totfact>
</mgrwt>
</event>
<event>
 5    1  0.2311484E-004  0.6580716E+03  0.7818608E-02  0.9791750E-01
         13   -1    0    0    0    0  0.00000000000E+00  0.00000000000E+00  0.10000000000E+04  0.10000000000E+04  0.00000000000E+00 0. -1.
          2   -1    0    0  501    0 -0.00000000000E+00 -0.00000000000E+00 -0.10826454977E+03  0.10826454977E+03  0.00000000000E+00 0. -1.
    9000006    2    1    2  501    0  0.00000000000E+00  0.00000000000E+00  0.89173545023E+03  0.11082645498E+04  0.65807157597E+03 0.  0.
         13    1    3    3    0    0 -0.17559274462E+03 -0.20253311960E+03  0.76722860873E+03  0.81270672112E+03  0.00000000000E+00 0. -1.
          2    1    3    3  501    0  0.17559274462E+03  0.20253311960E+03  0.12450684149E+03  0.29555782865E+03  0.00000000000E+00 0. -1.
<mgrwt>
<rscale>  0 0.65807158E+03</rscale>
<asrwt>0</asrwt>
<pdfrwt beam="1">0</pdfrwt>
<pdfrwt beam="2">  1        2 0.39369010E+00 0.65807158E+03</pdfrwt>
<totfact> 0.42026490E+00</totfact>
</mgrwt>
</event>
<event>
 5    1  0.2311484E-004  0.6484788E+03  0.7818608E-02  0.9809638E-01
         13   -1    0    0    0    0  0.00000000000E+00  0.00000000000E+00  0.10000000000E+04  0.10000000000E+04  0.00000000000E+00 0. -1.
          2   -1    0    0  501    0 -0.00000000000E+00 -0.00000000000E+00 -0.10513119209E+03  0.10513119209E+03  0.00000000000E+00 0. -1.
    9000006    2    1    2  501    0  0.00000000000E+00  0.00000000000E+00  0.89486880791E+03  0.11051311921E+04  0.64847881104E+03 0.  0.
         13    1    3    3    0    0 -0.15952012393E+03  0.43185218671E+02  0.92283796400E+03  0.93751882160E+03  0.00000000000E+00 0. -1.
          2    1    3    3  501    0  0.15952012393E+03 -0.43185218671E+02 -0.27969156091E+02  0.16761237049E+03  0.00000000000E+00 0. -1.
<mgrwt>
<rscale>  0 0.64847881E+03</rscale>
<asrwt>0</asrwt>
<pdfrwt beam="1">0</pdfrwt>
<pdfrwt beam="2">  1        2 0.38229605E+00 0.64847881E+03</pdfrwt>
<totfact> 0.46361828E+00</totfact>
</mgrwt>
</event>
<event>
 5    1  0.2311484E-004  0.6321260E+03  0.7818608E-02  0.9840909E-01
         13   -1    0    0    0    0  0.00000000000E+00  0.00000000000E+00  0.10000000000E+04  0.10000000000E+04  0.00000000000E+00 0. -1.
          2   -1    0    0  501    0 -0.00000000000E+00 -0.00000000000E+00 -0.99895812154E+02  0.99895812154E+02  0.00000000000E+00 0. -1.
    9000006    2    1    2  501    0  0.00000000000E+00  0.00000000000E+00  0.90010418785E+03  0.10998958122E+04  0.63212597527E+03 0.  0.
         13    1    3    3    0    0 -0.23869533211E+03 -0.10779491163E+03  0.14221262873E+03  0.29802623427E+03  0.00000000000E+00 0. -1.
          4    1    3    3  501    0  0.23869533211E+03  0.10779491163E+03  0.75789155912E+03  0.80186957788E+03  0.00000000000E+00 0. -1.
<mgrwt>
<rscale>  0 0.63212598E+03</rscale>
<asrwt>0</asrwt>
<pdfrwt beam="1">0</pdfrwt>
<pdfrwt beam="2">  1        2 0.36325826E+00 0.63212598E+03</pdfrwt>
<totfact> 0.54522733E+00</totfact>
</mgrwt>
</event>
<event>
 5    1  0.2311484E-004  0.6338093E+03  0.7818608E-02  0.9837643E-01
         13   -1    0    0    0    0  0.00000000000E+00  0.00000000000E+00  0.10000000000E+04  0.10000000000E+04  0.00000000000E+00 0. -1.
          2   -1    0    0  501    0 -0.00000000000E+00 -0.00000000000E+00 -0.10042854589E+03  0.10042854589E+03  0.00000000000E+00 0. -1.
    9000006    2    1    2  501    0  0.00000000000E+00  0.00000000000E+00  0.89957145411E+03  0.11004285459E+04  0.63380926432E+03 0.  0.
         13    1    3    3    0    0  0.19186934304E+03 -0.20572072487E+02  0.13337668588E+02  0.19342944028E+03  0.00000000000E+00 0. -1.
          4    1    3    3  501    0 -0.19186934304E+03  0.20572072487E+02  0.88623378553E+03  0.90699910561E+03  0.00000000000E+00 0. -1.
<mgrwt>
<rscale>  0 0.63380926E+03</rscale>
<asrwt>0</asrwt>
<pdfrwt beam="1">0</pdfrwt>
<pdfrwt beam="2">  1        2 0.36519548E+00 0.63380926E+03</pdfrwt>
<totfact> 0.53635881E+00</totfact>
</mgrwt>
</event>
<event>
 5    1  0.2311484E-004  0.6341965E+03  0.7818608E-02  0.9836894E-01
         13   -1    0    0    0    0  0.00000000000E+00  0.00000000000E+00  0.10000000000E+04  0.10000000000E+04  0.00000000000E+00 0. -1.
          2   -1    0    0  501    0 -0.00000000000E+00 -0.00000000000E+00 -0.10055130277E+03  0.10055130277E+03  0.00000000000E+00 0. -1.
    9000006    2    1    2  501    0  0.00000000000E+00  0.00000000000E+00  0.89944869723E+03  0.11005513028E+04  0.63419650826E+03 0.  0.
         13    1    3    3    0    0  0.25066568469E+03 -0.15575071328E+02  0.78566285252E+03  0.82482845862E+03  0.00000000000E+00 0. -1.
          2    1    3    3  501    0 -0.25066568469E+03  0.15575071328E+02  0.11378584471E+03  0.27572284415E+03  0.00000000000E+00 0. -1.
<mgrwt>
<rscale>  0 0.63419651E+03</rscale>
<asrwt>0</asrwt>
<pdfrwt beam="1">0</pdfrwt>
<pdfrwt beam="2">  1        2 0.36564187E+00 0.63419651E+03</pdfrwt>
<totfact> 0.53433416E+00</totfact>
</mgrwt>
</event>
<event>
 5    1  0.2311484E-004  0.6510230E+03  0.7818608E-02  0.9804861E-01
         13   -1    0    0    0    0  0.00000000000E+00  0.00000000000E+00  0.10000000000E+04  0.10000000000E+04  0.00000000000E+00 0. -1.
          2   -1    0    0  501    0 -0.00000000000E+00 -0.00000000000E+00 -0.10595773842E+03  0.10595773842E+03  0.00000000000E+00 0. -1.
    9000006    2    1    2  501    0  0.00000000000E+00  0.00000000000E+00  0.89404226158E+03  0.11059577384E+04  0.65102300550E+03 0.  0.
         13    1    3    3    0    0 -0.31626556072E+03  0.62115384831E+02  0.36962756223E+03  0.49041488628E+03  0.00000000000E+00 0. -1.
          4    1    3    3  501    0  0.31626556072E+03 -0.62115384831E+02  0.52441469935E+03  0.61554285214E+03  0.00000000000E+00 0. -1.
<mgrwt>
<rscale>  0 0.65102301E+03</rscale>
<asrwt>0</asrwt>
<pdfrwt beam="1">0</pdfrwt>
<pdfrwt beam="2">  1        2 0.38530168E+00 0.65102301E+03</pdfrwt>
<totfact> 0.45180560E+00</totfact>
</mgrwt>
</event>
<event>
 5    1  0.2311484E-004  0.6521027E+03  0.7818608E-02  0.9802842E-01
         13   -1    0    0    0    0  0.00000000000E+00  0.00000000000E+00  0.10000000000E+04  0.10000000000E+04  0.00000000000E+00 0. -1.
          2   -1    0    0  501    0 -0.00000000000E+00 -0.00000000000E+00 -0.10630949495E+03  0.10630949495E+03  0.00000000000E+00 0. -1.
    9000006    2    1    2  501    0  0.00000000000E+00  0.00000000000E+00  0.89369050505E+03  0.11063094949E+04  0.65210273715E+03 0.  0.
         13    1    3    3    0    0 -0.10046904076E+02  0.19902346062E+03  0.88466154308E+03  0.90682816672E+03  0.00000000000E+00 0. -1.
          4    1    3    3  501    0  0.10046904076E+02 -0.19902346062E+03  0.90289619699E+01  0.19948132823E+03  0.00000000000E+00 0. -1.
<mgrwt>
<rscale>  0 0.65210274E+03</rscale>
<asrwt>0</asrwt>
<pdfrwt beam="1">0</pdfrwt>
<pdfrwt beam="2">  1        2 0.38658080E+00 0.65210274E+03</pdfrwt>
<totfact> 0.44686177E+00</totfact>
</mgrwt>
</event>
<event>
 5    1  0.2311484E-004  0.6537400E+03  0.7818608E-02  0.9799786E-01
         13   -1    0    0    0    0  0.00000000000E+00  0.00000000000E+00  0.10000000000E+04  0.10000000000E+04  0.00000000000E+00 0. -1.
          2   -1    0    0  501    0 -0.00000000000E+00 -0.00000000000E+00 -0.10684400434E+03  0.10684400434E+03  0.00000000000E+00 0. -1.
    9000006    2    1    2  501    0  0.00000000000E+00  0.00000000000E+00  0.89315599566E+03  0.11068440043E+04  0.65374002277E+03 0.  0.
         13    1    3    3    0    0  0.28910480098E+03  0.15205656753E+03  0.46669797058E+03  0.56965760016E+03  0.00000000000E+00 0. -1.
          4    1    3    3  501    0 -0.28910480098E+03 -0.15205656753E+03  0.42645802508E+03  0.53718640418E+03  0.00000000000E+00 0. -1.
<mgrwt>
<rscale>  0 0.65374002E+03</rscale>
<asrwt>0</asrwt>
<pdfrwt beam="1">0</pdfrwt>
<pdfrwt beam="2">  1        2 0.38852447E+00 0.65374002E+03</pdfrwt>
<totfact> 0.43944314E+00</totfact>
</mgrwt>
</event>
<event>
 5    1  0.2311484E-004  0.6433373E+03  0.7818608E-02  0.9819362E-01
         13   -1    0    0    0    0  0.00000000000E+00  0.00000000000E+00  0.10000000000E+04  0.10000000000E+04  0.00000000000E+00 0. -1.
          2   -1    0    0  501    0 -0.00000000000E+00 -0.00000000000E+00 -0.10347071490E+03  0.10347071490E+03  0.00000000000E+00 0. -1.
    9000006    2    1    2  501    0  0.00000000000E+00  0.00000000000E+00  0.89652928510E+03  0.11034707149E+04  0.64333728291E+03 0.  0.
         13    1    3    3    0    0  0.31677847562E+03  0.22199541261E+02  0.53621579910E+03  0.62319243052E+03  0.00000000000E+00 0. -1.
          4    1    3    3  501    0 -0.31677847562E+03 -0.22199541261E+02  0.36031348600E+03  0.48027828438E+03  0.00000000000E+00 0. -1.
<mgrwt>
<rscale>  0 0.64333728E+03</rscale>
<asrwt>0</asrwt>
<pdfrwt beam="1">0</pdfrwt>
<pdfrwt beam="2">  1        2 0.37625794E+00 0.64333728E+03</pdfrwt>
<totfact> 0.48820191E+00</totfact>
</mgrwt>
</event>
<event>
 5    1  0.2311484E-004  0.6528073E+03  0.7818608E-02  0.9801526E-01
         13   -1    0    0    0    0  0.00000000000E+00  0.00000000000E+00  0.10000000000E+04  0.10000000000E+04  0.00000000000E+00 0. -1.
          2   -1    0    0  501    0 -0.00000000000E+00 -0.00000000000E+00 -0.10653934788E+03  0.10653934788E+03  0.00000000000E+00 0. -1.
    9000006    2    1    2  501    0  0.00000000000E+00  0.00000000000E+00  0.89346065212E+03  0.11065393479E+04  0.65280731578E+03 0.  0.
         13    1    3    3    0    0  0.27675064894E+03 -0.15360752060E+03  0.31162371443E+03  0.44417961622E+03  0.00000000000E+00 0. -1.
          4    1    3    3  501    0 -0.27675064894E+03  0.15360752060E+03  0.58183693768E+03  0.66235973166E+03  0.00000000000E+00 0. -1.
<mgrwt>
<rscale>  0 0.65280732E+03</rscale>
<asrwt>0</asrwt>
<pdfrwt beam="1">0</pdfrwt>
<pdfrwt beam="2">  1        2 0.38741663E+00 0.65280732E+03</pdfrwt>
<totfact> 0.44365778E+00</totfact>
</mgrwt>
</event>
<event>
 5    1  0.2311484E-004  0.6511616E+03  0.7818608E-02  0.9804602E-01
         13   -1    0    0    0    0  0.00000000000E+00  0.00000000000E+00  0.10000000000E+04  0.10000000000E+04  0.00000000000E+00 0. -1.
          2   -1    0    0  501    0 -0.00000000000E+00 -0.00000000000E+00 -0.10600284276E+03  0.10600284276E+03  0.00000000000E+00 0. -1.
    9000006    2    1    2  501    0  0.00000000000E+00  0.00000000000E+00  0.89399715724E+03  0.11060028428E+04  0.65116155526E+03 0.  0.
         13    1    3    3    0    0  0.14389607962E+03  0.11922445749E+03  0.89984213879E+03  0.91904103703E+03  0.00000000000E+00 0. -1.
          4    1    3    3  501    0 -0.14389607962E+03 -0.11922445749E+03 -0.58449815554E+01  0.18696180573E+03  0.00000000000E+00 0. -1.
<mgrwt>
<rscale>  0 0.65116156E+03</rscale>
<asrwt>0</asrwt>
<pdfrwt beam="1">0</pdfrwt>
<pdfrwt beam="2">  1        2 0.38546570E+00 0.65116156E+03</pdfrwt>
<totfact> 0.45116892E+00</totfact>
</mgrwt>
</event>
<event>
 5    1  0.2311484E-004  0.6419450E+03  0.7818608E-02  0.9822012E-01
         13   -1    0    0    0    0  0.00000000000E+00  0.00000000000E+00  0.10000000000E+04  0.10000000000E+04  0.00000000000E+00 0. -1.
          2   -1    0    0  501    0 -0.00000000000E+00 -0.00000000000E+00 -0.10302333276E+03  0.10302333276E+03  0.00000000000E+00 0. -1.
    9000006    2    1    2  501    0  0.00000000000E+00  0.00000000000E+00  0.89697666724E+03  0.11030233328E+04  0.64194495952E+03 0.  0.
         13    1    3    3    0    0 -0.28151692377E+03  0.15015832826E+03  0.38837330093E+03  0.50262622573E+03  0.00000000000E+00 0. -1.
          4    1    3    3  501    0  0.28151692377E+03 -0.15015832826E+03  0.50860336630E+03  0.60039710703E+03  0.00000000000E+00 0. -1.
<mgrwt>
<rscale>  0 0.64194496E+03</rscale>
<asrwt>0</asrwt>
<pdfrwt beam="1">0</pdfrwt>
<pdfrwt beam="2">  1        2 0.37463109E+00 0.64194496E+03</pdfrwt>
<totfact> 0.49502599E+00</totfact>
</mgrwt>
</event>
<event>
 5    1  0.2311484E-004  0.6504527E+03  0.7818608E-02  0.9805930E-01
         13   -1    0    0    0    0  0.00000000000E+00  0.00000000000E+00  0.10000000000E+04  0.10000000000E+04  0.00000000000E+00 0. -1.
          2   -1    0    0  501    0 -0.00000000000E+00 -0.00000000000E+00 -0.10577216793E+03  0.10577216793E+03  0.00000000000E+00 0. -1.
    9000006    2    1    2  501    0  0.00000000000E+00  0.00000000000E+00  0.89422783207E+03  0.11057721679E+04  0.65045266677E+03 0.  0.
         13    1    3    3    0    0  0.11844769009E+03 -0.28966326496E+02  0.95966799746E+03  0.96738387867E+03  0.00000000000E+00 0. -1.
          2    1    3    3  501    0 -0.11844769009E+03  0.28966326496E+02 -0.65440165390E+02  0.13838828926E+03  0.00000000000E+00 0. -1.
<mgrwt>
<rscale>  0 0.65045267E+03</rscale>
<asrwt>0</asrwt>
<pdfrwt beam="1">0</pdfrwt>
<pdfrwt beam="2">  1        2 0.38462688E+00 0.65045267E+03</pdfrwt>
<totfact> 0.45443367E+00</totfact>
</mgrwt>
</event>
<event>
 5    1  0.2311484E-004  0.6477947E+03  0.7818608E-02  0.9810926E-01
         13   -1    0    0    0    0  0.00000000000E+00  0.00000000000E+00  0.10000000000E+04  0.10000000000E+04  0.00000000000E+00 0. -1.
          2   -1    0    0  501    0 -0.00000000000E+00 -0.00000000000E+00 -0.10490949246E+03  0.10490949246E+03  0.00000000000E+00 0. -1.
    9000006    2    1    2  501    0  0.00000000000E+00  0.00000000000E+00  0.89509050754E+03  0.11049094925E+04  0.64779469729E+03 0.  0.
         13    1    3    3    0    0  0.49449793902E+02 -0.59714294113E+02 -0.88848828990E+02  0.11792028431E+03  0.00000000000E+00 0. -1.
          2    1    3    3  501    0 -0.49449793902E+02  0.59714294113E+02  0.98393933653E+03  0.98698920815E+03  0.00000000000E+00 0. -1.
<mgrwt>
<rscale>  0 0.64779470E+03</rscale>
<asrwt>0</asrwt>
<pdfrwt beam="1">0</pdfrwt>
<pdfrwt beam="2">  1        2 0.38148987E+00 0.64779470E+03</pdfrwt>
<totfact> 0.46683406E+00</totfact>
</mgrwt>
</event>
<event>
 5    1  0.2311484E-004  0.7225322E+03  0.7818608E-02  0.9679457E-01
         13   -1    0    0    0    0  0.00000000000E+00  0.00000000000E+00  0.10000000000E+04  0.10000000000E+04  0.00000000000E+00 0. -1.
          2   -1    0    0  501    0 -0.00000000000E+00 -0.00000000000E+00 -0.13051318532E+03  0.13051318532E+03  0.00000000000E+00 0. -1.
    9000006    2    1    2  501    0  0.00000000000E+00  0.00000000000E+00  0.86948681468E+03  0.11305131853E+04  0.72253217317E+03 0.  0.
         13    1    3    3    0    0  0.35811225259E+03 -0.35655687502E+02  0.48415954037E+03  0.60326293939E+03  0.00000000000E+00 0. -1.
          4    1    3    3  501    0 -0.35811225259E+03  0.35655687502E+02  0.38532727431E+03  0.52725024593E+03  0.00000000000E+00 0. -1.
<mgrwt>
<rscale>  0 0.72253217E+03</rscale>
<asrwt>0</asrwt>
<pdfrwt beam="1">0</pdfrwt>
<pdfrwt beam="2">  1        2 0.47459440E+00 0.72253217E+03</pdfrwt>
<totfact> 0.20264249E+00</totfact>
</mgrwt>
</event>
<event>
 5    1  0.2311484E-004  0.6486202E+03  0.7818608E-02  0.9809372E-01
         13   -1    0    0    0    0  0.00000000000E+00  0.00000000000E+00  0.10000000000E+04  0.10000000000E+04  0.00000000000E+00 0. -1.
          2   -1    0    0  501    0 -0.00000000000E+00 -0.00000000000E+00 -0.10517705170E+03  0.10517705170E+03  0.00000000000E+00 0. -1.
    9000006    2    1    2  501    0  0.00000000000E+00  0.00000000000E+00  0.89482294830E+03  0.11051770517E+04  0.64862023311E+03 0.  0.
         13    1    3    3    0    0  0.29797853114E+03  0.58465265556E+02  0.25338000854E+03  0.39548807950E+03  0.00000000000E+00 0. -1.
          2    1    3    3  501    0 -0.29797853114E+03 -0.58465265556E+02  0.64144293976E+03  0.70968897220E+03  0.00000000000E+00 0. -1.
<mgrwt>
<rscale>  0 0.64862023E+03</rscale>
<asrwt>0</asrwt>
<pdfrwt beam="1">0</pdfrwt>
<pdfrwt beam="2">  1        2 0.38246281E+00 0.64862023E+03</pdfrwt>
<totfact> 0.46295560E+00</totfact>
</mgrwt>
</event>
<event>
 5    1  0.2311484E-004  0.6548225E+03  0.7818608E-02  0.9797772E-01
         13   -1    0    0    0    0  0.00000000000E+00  0.00000000000E+00  0.10000000000E+04  0.10000000000E+04  0.00000000000E+00 0. -1.
          2   -1    0    0  501    0 -0.00000000000E+00 -0.00000000000E+00 -0.10719812643E+03  0.10719812643E+03  0.00000000000E+00 0. -1.
    9000006    2    1    2  501    0  0.00000000000E+00  0.00000000000E+00  0.89280187357E+03  0.11071981264E+04  0.65482249941E+03 0.  0.
         13    1    3    3    0    0  0.24254832989E+03 -0.62486480017E+02  0.80293858708E+03  0.84109727567E+03  0.00000000000E+00 0. -1.
          2    1    3    3  501    0 -0.24254832989E+03  0.62486480017E+02  0.89863286487E+02  0.26610085076E+03  0.00000000000E+00 0. -1.
<mgrwt>
<rscale>  0 0.65482250E+03</rscale>
<asrwt>0</asrwt>
<pdfrwt beam="1">0</pdfrwt>
<pdfrwt beam="2">  1        2 0.38981219E+00 0.65482250E+03</pdfrwt>
<totfact> 0.43458971E+00</totfact>
</mgrwt>
</event>
<event>
 5    1  0.2311484E-004  0.5009623E+03  0.7818608E-02  0.1013528E+00
         13   -1    0    0    0    0  0.00000000000E+00  0.00000000000E+00  0.10000000000E+04  0.10000000000E+04  0.00000000000E+00 0. -1.
          2   -1    0    0  501    0 -0.00000000000E+00 -0.00000000000E+00 -0.62740816322E+02  0.62740816322E+02  0.00000000000E+00 0. -1.
    9000006    2    1    2  501    0  0.00000000000E+00  0.00000000000E+00  0.93725918368E+03  0.10627408163E+04  0.50096233919E+03 0.  0.
         13    1    3    3    0    0 -0.93830895281E+02  0.41941695845E+02  0.95320771763E+03  0.95873265080E+03  0.00000000000E+00 0. -1.
          4    1    3    3  501    0  0.93830895281E+02 -0.41941695845E+02 -0.15948533955E+02  0.10400816552E+03  0.00000000000E+00 0. -1.
<mgrwt>
<rscale>  0 0.50096234E+03</rscale>
<asrwt>0</asrwt>
<pdfrwt beam="1">0</pdfrwt>
<pdfrwt beam="2">  1        2 0.22814890E+00 0.50096234E+03</pdfrwt>
<totfact> 0.16721927E+01</totfact>
</mgrwt>
</event>
<event>
 5    1  0.2311484E-004  0.6456630E+03  0.7818608E-02  0.9814951E-01
         13   -1    0    0    0    0  0.00000000000E+00  0.00000000000E+00  0.10000000000E+04  0.10000000000E+04  0.00000000000E+00 0. -1.
          2   -1    0    0  501    0 -0.00000000000E+00 -0.00000000000E+00 -0.10422018528E+03  0.10422018528E+03  0.00000000000E+00 0. -1.
    9000006    2    1    2  501    0  0.00000000000E+00  0.00000000000E+00  0.89577981472E+03  0.11042201853E+04  0.64566302445E+03 0.  0.
         13    1    3    3    0    0 -0.21241798379E+03  0.14083168811E+03  0.10900378136E+03  0.27719449592E+03  0.00000000000E+00 0. -1.
          2    1    3    3  501    0  0.21241798379E+03 -0.14083168811E+03  0.78677603335E+03  0.82702568937E+03  0.00000000000E+00 0. -1.
<mgrwt>
<rscale>  0 0.64566302E+03</rscale>
<asrwt>0</asrwt>
<pdfrwt beam="1">0</pdfrwt>
<pdfrwt beam="2">  1        2 0.37898329E+00 0.64566302E+03</pdfrwt>
<totfact> 0.47696258E+00</totfact>
</mgrwt>
</event>
<event>
 5    1  0.2311484E-004  0.6508321E+03  0.7818608E-02  0.9805219E-01
         13   -1    0    0    0    0  0.00000000000E+00  0.00000000000E+00  0.10000000000E+04  0.10000000000E+04  0.00000000000E+00 0. -1.
          2   -1    0    0  501    0 -0.00000000000E+00 -0.00000000000E+00 -0.10589561298E+03  0.10589561298E+03  0.00000000000E+00 0. -1.
    9000006    2    1    2  501    0  0.00000000000E+00  0.00000000000E+00  0.89410438702E+03  0.11058956130E+04  0.65083212270E+03 0.  0.
         13    1    3    3    0    0 -0.35847905814E+02  0.24410119160E+02 -0.10096285948E+03  0.10988368970E+03  0.00000000000E+00 0. -1.
          4    1    3    3  501    0  0.35847905814E+02 -0.24410119160E+02  0.99506724650E+03  0.99601192328E+03  0.00000000000E+00 0. -1.
<mgrwt>
<rscale>  0 0.65083212E+03</rscale>
<asrwt>0</asrwt>
<pdfrwt beam="1">0</pdfrwt>
<pdfrwt beam="2">  1        2 0.38507577E+00 0.65083212E+03</pdfrwt>
<totfact> 0.45268389E+00</totfact>
</mgrwt>
</event>
<event>
 5    1  0.2311484E-004  0.5567600E+03  0.7818608E-02  0.9999413E-01
         13   -1    0    0    0    0  0.00000000000E+00  0.00000000000E+00  0.10000000000E+04  0.10000000000E+04  0.00000000000E+00 0. -1.
          2   -1    0    0  501    0 -0.00000000000E+00 -0.00000000000E+00 -0.77495430068E+02  0.77495430068E+02  0.00000000000E+00 0. -1.
    9000006    2    1    2  501    0  0.00000000000E+00  0.00000000000E+00  0.92250456993E+03  0.10774954301E+04  0.55676002036E+03 0.  0.
         13    1    3    3    0    0 -0.90922793821E+02 -0.20648144118E+03  0.77685325509E+03  0.80895149418E+03  0.00000000000E+00 0. -1.
          2    1    3    3  501    0  0.90922793821E+02  0.20648144118E+03  0.14565131484E+03  0.26854393589E+03  0.00000000000E+00 0. -1.
<mgrwt>
<rscale>  0 0.55676002E+03</rscale>
<asrwt>0</asrwt>
<pdfrwt beam="1">0</pdfrwt>
<pdfrwt beam="2">  1        2 0.28180216E+00 0.55676002E+03</pdfrwt>
<totfact> 0.10724449E+01</totfact>
</mgrwt>
</event>
<event>
 5    1  0.2311484E-004  0.6489398E+03  0.7818608E-02  0.9808771E-01
         13   -1    0    0    0    0  0.00000000000E+00  0.00000000000E+00  0.10000000000E+04  0.10000000000E+04  0.00000000000E+00 0. -1.
          2   -1    0    0  501    0 -0.00000000000E+00 -0.00000000000E+00 -0.10528071264E+03  0.10528071264E+03  0.00000000000E+00 0. -1.
    9000006    2    1    2  501    0  0.00000000000E+00  0.00000000000E+00  0.89471928736E+03  0.11052807126E+04  0.64893978963E+03 0.  0.
         13    1    3    3    0    0  0.60511642359E+02 -0.33096691137E+02  0.98737031269E+03  0.98977633039E+03  0.00000000000E+00 0. -1.
          2    1    3    3  501    0 -0.60511642359E+02  0.33096691137E+02 -0.92651025329E+02  0.11550438225E+03  0.00000000000E+00 0. -1.
<mgrwt>
<rscale>  0 0.64893979E+03</rscale>
<asrwt>0</asrwt>
<pdfrwt beam="1">0</pdfrwt>
<pdfrwt beam="2">  1        2 0.38283976E+00 0.64893979E+03</pdfrwt>
<totfact> 0.46146084E+00</totfact>
</mgrwt>
</event>
<event>
 5    1  0.2311484E-004  0.6499252E+03  0.7818608E-02  0.9806919E-01
         13   -1    0    0    0    0  0.00000000000E+00  0.00000000000E+00  0.10000000000E+04  0.10000000000E+04  0.00000000000E+00 0. -1.
          2   -1    0    0  501    0 -0.00000000000E+00 -0.00000000000E+00 -0.10560070322E+03  0.10560070322E+03  0.00000000000E+00 0. -1.
    9000006    2    1    2  501    0  0.00000000000E+00  0.00000000000E+00  0.89439929678E+03  0.11056007032E+04  0.64992523638E+03 0.  0.
         13    1    3    3    0    0 -0.16959574117E+03  0.18313188701E+03  0.93216683209E+02  0.26643827332E+03  0.00000000000E+00 0. -1.
          4    1    3    3  501    0  0.16959574117E+03 -0.18313188701E+03  0.80118261357E+03  0.83916242990E+03  0.00000000000E+00 0. -1.
<mgrwt>
<rscale>  0 0.64992524E+03</rscale>
<asrwt>0</asrwt>
<pdfrwt beam="1">0</pdfrwt>
<pdfrwt beam="2">  1        2 0.38400337E+00 0.64992524E+03</pdfrwt>
<totfact> 0.45687428E+00</totfact>
</mgrwt>
</event>
<event>
 5    1  0.2311484E-004  0.6535670E+03  0.7818608E-02  0.9800109E-01
         13   -1    0    0    0    0  0.00000000000E+00  0.00000000000E+00  0.10000000000E+04  0.10000000000E+04  0.00000000000E+00 0. -1.
          2   -1    0    0  501    0 -0.00000000000E+00 -0.00000000000E+00 -0.10678747050E+03  0.10678747050E+03  0.00000000000E+00 0. -1.
    9000006    2    1    2  501    0  0.00000000000E+00  0.00000000000E+00  0.89321252950E+03  0.11067874705E+04  0.65356704476E+03 0.  0.
         13    1    3    3    0    0 -0.25501901453E+03 -0.86024626591E+02  0.76047892808E+03  0.80669891174E+03  0.00000000000E+00 0. -1.
          2    1    3    3  501    0  0.25501901453E+03  0.86024626591E+02  0.13273360142E+03  0.30008855875E+03  0.00000000000E+00 0. -1.
<mgrwt>
<rscale>  0 0.65356704E+03</rscale>
<asrwt>0</asrwt>
<pdfrwt beam="1">0</pdfrwt>
<pdfrwt beam="2">  1        2 0.38831889E+00 0.65356704E+03</pdfrwt>
<totfact> 0.44022248E+00</totfact>
</mgrwt>
</event>
<event>
 5    1  0.2311484E-004  0.6585295E+03  0.7818608E-02  0.9790905E-01
         13   -1    0    0    0    0  0.00000000000E+00  0.00000000000E+00  0.10000000000E+04  0.10000000000E+04  0.00000000000E+00 0. -1.
          2   -1    0    0  501    0 -0.00000000000E+00 -0.00000000000E+00 -0.10841526781E+03  0.10841526781E+03  0.00000000000E+00 0. -1.
    9000006    2    1    2  501    0  0.00000000000E+00  0.00000000000E+00  0.89158473219E+03  0.11084152678E+04  0.65852947635E+03 0.  0.
         13    1    3    3    0    0 -0.93024145201E+02  0.31573748452E+03  0.46003648502E+03  0.56566528820E+03  0.00000000000E+00 0. -1.
          2    1    3    3  501    0  0.93024145201E+02 -0.31573748452E+03  0.43154824717E+03  0.54274997960E+03  0.00000000000E+00 0. -1.
<mgrwt>
<rscale>  0 0.65852948E+03</rscale>
<asrwt>0</asrwt>
<pdfrwt beam="1">0</pdfrwt>
<pdfrwt beam="2">  1        2 0.39423817E+00 0.65852948E+03</pdfrwt>
<totfact> 0.41827522E+00</totfact>
</mgrwt>
</event>
<event>
 5    1  0.2311484E-004  0.6538269E+03  0.7818608E-02  0.9799625E-01
         13   -1    0    0    0    0  0.00000000000E+00  0.00000000000E+00  0.10000000000E+04  0.10000000000E+04  0.00000000000E+00 0. -1.
          2   -1    0    0  501    0 -0.00000000000E+00 -0.00000000000E+00 -0.10687240000E+03  0.10687240000E+03  0.00000000000E+00 0. -1.
    9000006    2    1    2  501    0  0.00000000000E+00  0.00000000000E+00  0.89312760000E+03  0.11068724000E+04  0.65382688839E+03 0.  0.
         13    1    3    3    0    0 -0.72197367901E+02 -0.27810578750E+03  0.18257179747E+03  0.34042289906E+03  0.00000000000E+00 0. -1.
          2    1    3    3  501    0  0.72197367901E+02  0.27810578750E+03  0.71055580253E+03  0.76644950094E+03  0.00000000000E+00 0. -1.
<mgrwt>
<rscale>  0 0.65382689E+03</rscale>
<asrwt>0</asrwt>
<pdfrwt beam="1">0</pdfrwt>
<pdfrwt beam="2">  1        2 0.38862773E+00 0.65382689E+03</pdfrwt>
<totfact> 0.43905216E+00</totfact>
</mgrwt>
</event>
<event>
 5    1  0.2311484E-004  0.6312174E+03  0.7818608E-02  0.9842676E-01
         13   -1    0    0    0    0  0.00000000000E+00  0.00000000000E+00  0.10000000000E+04  0.10000000000E+04  0.00000000000E+00 0. -1.
          2   -1    0    0  501    0 -0.00000000000E+00 -0.00000000000E+00 -0.99608843192E+02  0.99608843192E+02  0.00000000000E+00 0. -1.
    9000006    2    1    2  501    0  0.00000000000E+00  0.00000000000E+00  0.90039115681E+03  0.10996088432E+04  0.63121737363E+03 0.  0.
         13    1    3    3    0    0  0.14868210905E+03 -0.27162846477E+03  0.34393869812E+03  0.46279825031E+03  0.00000000000E+00 0. -1.
          2    1    3    3  501    0 -0.14868210905E+03  0.27162846477E+03  0.55645245869E+03  0.63681059288E+03  0.00000000000E+00 0. -1.
<mgrwt>
<rscale>  0 0.63121737E+03</rscale>
<asrwt>0</asrwt>
<pdfrwt beam="1">0</pdfrwt>
<pdfrwt beam="2">  1        2 0.36221474E+00 0.63121737E+03</pdfrwt>
<totfact> 0.55006035E+00</totfact>
</mgrwt>
</event>
<event>
 5    1  0.2311484E-004  0.6505337E+03  0.7818608E-02  0.9805778E-01
         13   -1    0    0    0    0  0.00000000000E+00  0.00000000000E+00  0.10000000000E+04  0.10000000000E+04  0.00000000000E+00 0. -1.
          2   -1    0    0  501    0 -0.00000000000E+00 -0.00000000000E+00 -0.10579852321E+03  0.10579852321E+03  0.00000000000E+00 0. -1.
    9000006    2    1    2  501    0  0.00000000000E+00  0.00000000000E+00  0.89420147679E+03  0.11057985232E+04  0.65053369847E+03 0.  0.
         13    1    3    3    0    0  0.12071491397E+03 -0.28488571659E+03  0.61764879584E+03  0.69081256283E+03  0.00000000000E+00 0. -1.
          2    1    3    3  501    0 -0.12071491397E+03  0.28488571659E+03  0.27655268095E+03  0.41498596038E+03  0.00000000000E+00 0. -1.
<mgrwt>
<rscale>  0 0.65053370E+03</rscale>
<asrwt>0</asrwt>
<pdfrwt beam="1">0</pdfrwt>
<pdfrwt beam="2">  1        2 0.38472271E+00 0.65053370E+03</pdfrwt>
<totfact> 0.45405958E+00</totfact>
</mgrwt>
</event>
<event>
 5    1  0.2311484E-004  0.4587197E+03  0.7818608E-02  0.1025153E+00
         13   -1    0    0    0    0  0.00000000000E+00  0.00000000000E+00  0.10000000000E+04  0.10000000000E+04  0.00000000000E+00 0. -1.
          2   -1    0    0  501    0 -0.00000000000E+00 -0.00000000000E+00 -0.52605946947E+02  0.52605946947E+02  0.00000000000E+00 0. -1.
    9000006    2    1    2  501    0  0.00000000000E+00  0.00000000000E+00  0.94739405305E+03  0.10526059469E+04  0.45871972684E+03 0.  0.
         13    1    3    3    0    0 -0.15476012783E+02  0.77407251714E+02 -0.20452394684E+02  0.81545631629E+02  0.00000000000E+00 0. -1.
          2    1    3    3  501    0  0.15476012783E+02 -0.77407251714E+02  0.96784644774E+03  0.97106031532E+03  0.00000000000E+00 0. -1.
<mgrwt>
<rscale>  0 0.45871973E+03</rscale>
<asrwt>0</asrwt>
<pdfrwt beam="1">0</pdfrwt>
<pdfrwt beam="2">  1        2 0.19129476E+00 0.45871973E+03</pdfrwt>
<totfact> 0.22915510E+01</totfact>
</mgrwt>
</event>
<event>
 5    1  0.2311484E-004  0.6604586E+03  0.7818608E-02  0.9787350E-01
         13   -1    0    0    0    0  0.00000000000E+00  0.00000000000E+00  0.10000000000E+04  0.10000000000E+04  0.00000000000E+00 0. -1.
          2   -1    0    0  501    0 -0.00000000000E+00 -0.00000000000E+00 -0.10905139213E+03  0.10905139213E+03  0.00000000000E+00 0. -1.
    9000006    2    1    2  501    0  0.00000000000E+00  0.00000000000E+00  0.89094860787E+03  0.11090513921E+04  0.66045860469E+03 0.  0.
         13    1    3    3    0    0  0.77938111503E+02 -0.13780644213E+03  0.93211746276E+03  0.94546704284E+03  0.00000000000E+00 0. -1.
          4    1    3    3  501    0 -0.77938111503E+02  0.13780644213E+03 -0.41168854891E+02  0.16358434928E+03  0.00000000000E+00 0. -1.
<mgrwt>
<rscale>  0 0.66045860E+03</rscale>
<asrwt>0</asrwt>
<pdfrwt beam="1">0</pdfrwt>
<pdfrwt beam="2">  1        2 0.39655135E+00 0.66045860E+03</pdfrwt>
<totfact> 0.40997095E+00</totfact>
</mgrwt>
</event>
<event>
 5    1  0.2311484E-004  0.6606418E+03  0.7818608E-02  0.9787013E-01
         13   -1    0    0    0    0  0.00000000000E+00  0.00000000000E+00  0.10000000000E+04  0.10000000000E+04  0.00000000000E+00 0. -1.
          2   -1    0    0  501    0 -0.00000000000E+00 -0.00000000000E+00 -0.10911188046E+03  0.10911188046E+03  0.00000000000E+00 0. -1.
    9000006    2    1    2  501    0  0.00000000000E+00  0.00000000000E+00  0.89088811954E+03  0.11091118805E+04  0.66064175001E+03 0.  0.
         13    1    3    3    0    0 -0.23853262941E+03 -0.11367600360E+03  0.77822655758E+03  0.82186168180E+03  0.00000000000E+00 0. -1.
          2    1    3    3  501    0  0.23853262941E+03  0.11367600360E+03  0.11266156195E+03  0.28725019866E+03  0.00000000000E+00 0. -1.
<mgrwt>
<rscale>  0 0.66064175E+03</rscale>
<asrwt>0</asrwt>
<pdfrwt beam="1">0</pdfrwt>
<pdfrwt beam="2">  1        2 0.39677131E+00 0.66064175E+03</pdfrwt>
<totfact> 0.40918909E+00</totfact>
</mgrwt>
</event>
<event>
 5    1  0.2311484E-004  0.6802024E+03  0.7818608E-02  0.9751701E-01
         13   -1    0    0    0    0  0.00000000000E+00  0.00000000000E+00  0.10000000000E+04  0.10000000000E+04  0.00000000000E+00 0. -1.
          2   -1    0    0  501    0 -0.00000000000E+00 -0.00000000000E+00 -0.11566881281E+03  0.11566881281E+03  0.00000000000E+00 0. -1.
    9000006    2    1    2  501    0  0.00000000000E+00  0.00000000000E+00  0.88433118719E+03  0.11156688128E+04  0.68020236050E+03 0.  0.
         13    1    3    3    0    0  0.24487261414E+03 -0.20607387297E+03  0.63089407826E+03  0.70742941433E+03  0.00000000000E+00 0. -1.
          4    1    3    3  501    0 -0.24487261414E+03  0.20607387297E+03  0.25343710893E+03  0.40823939847E+03  0.00000000000E+00 0. -1.
<mgrwt>
<rscale>  0 0.68020236E+03</rscale>
<asrwt>0</asrwt>
<pdfrwt beam="1">0</pdfrwt>
<pdfrwt beam="2">  1        2 0.42061475E+00 0.68020236E+03</pdfrwt>
<totfact> 0.33194208E+00</totfact>
</mgrwt>
</event>
<event>
 5    1  0.2311484E-004  0.6566624E+03  0.7818608E-02  0.9794357E-01
         13   -1    0    0    0    0  0.00000000000E+00  0.00000000000E+00  0.10000000000E+04  0.10000000000E+04  0.00000000000E+00 0. -1.
          2   -1    0    0  501    0 -0.00000000000E+00 -0.00000000000E+00 -0.10780137656E+03  0.10780137656E+03  0.00000000000E+00 0. -1.
    9000006    2    1    2  501    0  0.00000000000E+00  0.00000000000E+00  0.89219862344E+03  0.11078013766E+04  0.65666239898E+03 0.  0.
         13    1    3    3    0    0 -0.25708150891E+03  0.63680597686E+02  0.77346454346E+03  0.81755337485E+03  0.00000000000E+00 0. -1.
          4    1    3    3  501    0  0.25708150891E+03 -0.63680597686E+02  0.11873407999E+03  0.29024800171E+03  0.00000000000E+00 0. -1.
<mgrwt>
<rscale>  0 0.65666240E+03</rscale>
<asrwt>0</asrwt>
<pdfrwt beam="1">0</pdfrwt>
<pdfrwt beam="2">  1        2 0.39200583E+00 0.65666240E+03</pdfrwt>
<totfact> 0.42643330E+00</totfact>
</mgrwt>
</event>
<event>
 5    1  0.2311484E-004  0.6544578E+03  0.7818608E-02  0.9798450E-01
         13   -1    0    0    0    0  0.00000000000E+00  0.00000000000E+00  0.10000000000E+04  0.10000000000E+04  0.00000000000E+00 0. -1.
          2   -1    0    0  501    0 -0.00000000000E+00 -0.00000000000E+00 -0.10707875861E+03  0.10707875861E+03  0.00000000000E+00 0. -1.
    9000006    2    1    2  501    0  0.00000000000E+00  0.00000000000E+00  0.89292124139E+03  0.11070787586E+04  0.65445781715E+03 0.  0.
         13    1    3    3    0    0 -0.21268328143E+02 -0.11107942939E+02  0.99850989239E+03  0.99879814447E+03  0.00000000000E+00 0. -1.
          2    1    3    3  501    0  0.21268328143E+02  0.11107942939E+02 -0.10558865100E+03  0.10828061414E+03  0.00000000000E+00 0. -1.
<mgrwt>
<rscale>  0 0.65445782E+03</rscale>
<asrwt>0</asrwt>
<pdfrwt beam="1">0</pdfrwt>
<pdfrwt beam="2">  1        2 0.38937813E+00 0.65445782E+03</pdfrwt>
<totfact> 0.43622027E+00</totfact>
</mgrwt>
</event>
<event>
 5    1  0.2311484E-004  0.6453548E+03  0.7818608E-02  0.9815535E-01
         13   -1    0    0    0    0  0.00000000000E+00  0.00000000000E+00  0.10000000000E+04  0.10000000000E+04  0.00000000000E+00 0. -1.
          2   -1    0    0  501    0 -0.00000000000E+00 -0.00000000000E+00 -0.10412069051E+03  0.10412069051E+03  0.00000000000E+00 0. -1.
    9000006    2    1    2  501    0  0.00000000000E+00  0.00000000000E+00  0.89587930949E+03  0.11041206905E+04  0.64535475673E+03 0.  0.
         13    1    3    3    0    0 -0.21755356486E+03  0.21350799934E+03  0.62904576108E+03  0.69900914794E+03  0.00000000000E+00 0. -1.
          4    1    3    3  501    0  0.21755356486E+03 -0.21350799934E+03  0.26683354841E+03  0.40511154257E+03  0.00000000000E+00 0. -1.
<mgrwt>
<rscale>  0 0.64535476E+03</rscale>
<asrwt>0</asrwt>
<pdfrwt beam="1">0</pdfrwt>
<pdfrwt beam="2">  1        2 0.37862149E+00 0.64535476E+03</pdfrwt>
<totfact> 0.47844093E+00</totfact>
</mgrwt>
</event>
<event>
 5    1  0.2311484E-004  0.6303057E+03  0.7818608E-02  0.9844453E-01
         13   -1    0    0    0    0  0.00000000000E+00  0.00000000000E+00  0.10000000000E+04  0.10000000000E+04  0.00000000000E+00 0. -1.
          2   -1    0    0  501    0 -0.00000000000E+00 -0.00000000000E+00 -0.99321305001E+02  0.99321305001E+02  0.00000000000E+00 0. -1.
    9000006    2    1    2  501    0  0.00000000000E+00  0.00000000000E+00  0.90067869500E+03  0.10993213050E+04  0.63030565602E+03 0.  0.
         13    1    3    3    0    0  0.25427350483E+03 -0.11745133796E+03  0.19836867783E+03  0.34321999416E+03  0.00000000000E+00 0. -1.
          4    1    3    3  501    0 -0.25427350483E+03  0.11745133796E+03  0.70231001716E+03  0.75610131084E+03  0.00000000000E+00 0. -1.
<mgrwt>
<rscale>  0 0.63030566E+03</rscale>
<asrwt>0</asrwt>
<pdfrwt beam="1">0</pdfrwt>
<pdfrwt beam="2">  1        2 0.36116914E+00 0.63030566E+03</pdfrwt>
<totfact> 0.55494254E+00</totfact>
</mgrwt>
</event>
<event>
 5    1  0.2311484E-004  0.6515126E+03  0.7818608E-02  0.9803945E-01
         13   -1    0    0    0    0  0.00000000000E+00  0.00000000000E+00  0.10000000000E+04  0.10000000000E+04  0.00000000000E+00 0. -1.
          2   -1    0    0  501    0 -0.00000000000E+00 -0.00000000000E+00 -0.10611715481E+03  0.10611715481E+03  0.00000000000E+00 0. -1.
    9000006    2    1    2  501    0  0.00000000000E+00  0.00000000000E+00  0.89388284519E+03  0.11061171548E+04  0.65151256260E+03 0.  0.
         13    1    3    3    0    0 -0.11436546836E+02 -0.29217305359E+03  0.69074271632E+03  0.75008092097E+03  0.00000000000E+00 0. -1.
          2    1    3    3  501    0  0.11436546836E+02  0.29217305359E+03  0.20314012888E+03  0.35603623384E+03  0.00000000000E+00 0. -1.
<mgrwt>
<rscale>  0 0.65151256E+03</rscale>
<asrwt>0</asrwt>
<pdfrwt beam="1">0</pdfrwt>
<pdfrwt beam="2">  1        2 0.38588138E+00 0.65151256E+03</pdfrwt>
<totfact> 0.44955895E+00</totfact>
</mgrwt>
</event>
<event>
 5    1  0.2311484E-004  0.6583505E+03  0.7818608E-02  0.9791235E-01
         13   -1    0    0    0    0  0.00000000000E+00  0.00000000000E+00  0.10000000000E+04  0.10000000000E+04  0.00000000000E+00 0. -1.
          2   -1    0    0  501    0 -0.00000000000E+00 -0.00000000000E+00 -0.10835633897E+03  0.10835633897E+03  0.00000000000E+00 0. -1.
    9000006    2    1    2  501    0  0.00000000000E+00  0.00000000000E+00  0.89164366103E+03  0.11083563390E+04  0.65835048102E+03 0.  0.
         13    1    3    3    0    0  0.23362031078E+03 -0.16274425222E+03  0.16769588373E+03  0.33043312585E+03  0.00000000000E+00 0. -1.
          4    1    3    3  501    0 -0.23362031078E+03  0.16274425222E+03  0.72394777730E+03  0.77792321311E+03  0.00000000000E+00 0. -1.
<mgrwt>
<rscale>  0 0.65835048E+03</rscale>
<asrwt>0</asrwt>
<pdfrwt beam="1">0</pdfrwt>
<pdfrwt beam="2">  1        2 0.39402388E+00 0.65835048E+03</pdfrwt>
<totfact> 0.41905213E+00</totfact>
</mgrwt>
</event>
<event>
 5    1  0.2311484E-004  0.6543927E+03  0.7818608E-02  0.9798571E-01
         13   -1    0    0    0    0  0.00000000000E+00  0.00000000000E+00  0.10000000000E+04  0.10000000000E+04  0.00000000000E+00 0. -1.
          2   -1    0    0  501    0 -0.00000000000E+00 -0.00000000000E+00 -0.10705744037E+03  0.10705744037E+03  0.00000000000E+00 0. -1.
    9000006    2    1    2  501    0  0.00000000000E+00  0.00000000000E+00  0.89294255963E+03  0.11070574404E+04  0.65439266614E+03 0.  0.
         13    1    3    3    0    0  0.26303872997E+03 -0.10443841474E+03  0.16869370095E+03  0.32947582715E+03  0.00000000000E+00 0. -1.
          2    1    3    3  501    0 -0.26303872997E+03  0.10443841474E+03  0.72424885868E+03  0.77758161323E+03  0.00000000000E+00 0. -1.
<mgrwt>
<rscale>  0 0.65439267E+03</rscale>
<asrwt>0</asrwt>
<pdfrwt beam="1">0</pdfrwt>
<pdfrwt beam="2">  1        2 0.38930060E+00 0.65439267E+03</pdfrwt>
<totfact> 0.43651205E+00</totfact>
</mgrwt>
</event>
<event>
 5    1  0.2311484E-004  0.6235345E+03  0.7818608E-02  0.9857748E-01
         13   -1    0    0    0    0  0.00000000000E+00  0.00000000000E+00  0.10000000000E+04  0.10000000000E+04  0.00000000000E+00 0. -1.
          2   -1    0    0  501    0 -0.00000000000E+00 -0.00000000000E+00 -0.97198805981E+02  0.97198805981E+02  0.00000000000E+00 0. -1.
    9000006    2    1    2  501    0  0.00000000000E+00  0.00000000000E+00  0.90280119402E+03  0.10971988060E+04  0.62353446089E+03 0.  0.
         13    1    3    3    0    0 -0.66676029478E+02 -0.18935416639E+02  0.98627039257E+03  0.98870295345E+03  0.00000000000E+00 0. -1.
          4    1    3    3  501    0  0.66676029478E+02  0.18935416639E+02 -0.83469198547E+02  0.10849585253E+03  0.00000000000E+00 0. -1.
<mgrwt>
<rscale>  0 0.62353446E+03</rscale>
<asrwt>0</asrwt>
<pdfrwt beam="1">0</pdfrwt>
<pdfrwt beam="2">  1        2 0.35345095E+00 0.62353446E+03</pdfrwt>
<totfact> 0.59224149E+00</totfact>
</mgrwt>
</event>
<event>
 5    1  0.2311484E-004  0.6430050E+03  0.7818608E-02  0.9819994E-01
         13   -1    0    0    0    0  0.00000000000E+00  0.00000000000E+00  0.10000000000E+04  0.10000000000E+04  0.00000000000E+00 0. -1.
          2   -1    0    0  501    0 -0.00000000000E+00 -0.00000000000E+00 -0.10336385329E+03  0.10336385329E+03  0.00000000000E+00 0. -1.
    9000006    2    1    2  501    0  0.00000000000E+00  0.00000000000E+00  0.89663614671E+03  0.11033638533E+04  0.64300498689E+03 0.  0.
         13    1    3    3    0    0  0.25048208984E+03 -0.12068015029E+03  0.72531966301E+03  0.77678413318E+03  0.00000000000E+00 0. -1.
          2    1    3    3  501    0 -0.25048208984E+03  0.12068015029E+03  0.17131648370E+03  0.32657972012E+03  0.00000000000E+00 0. -1.
<mgrwt>
<rscale>  0 0.64300499E+03</rscale>
<asrwt>0</asrwt>
<pdfrwt beam="1">0</pdfrwt>
<pdfrwt beam="2">  1        2 0.37586935E+00 0.64300499E+03</pdfrwt>
<totfact> 0.48982398E+00</totfact>
</mgrwt>
</event>
<event>
 5    1  0.2311484E-004  0.6580989E+03  0.7818608E-02  0.9791700E-01
         13   -1    0    0    0    0  0.00000000000E+00  0.00000000000E+00  0.10000000000E+04  0.10000000000E+04  0.00000000000E+00 0. -1.
          2   -1    0    0  501    0 -0.00000000000E+00 -0.00000000000E+00 -0.10827353887E+03  0.10827353887E+03  0.00000000000E+00 0. -1.
    9000006    2    1    2  501    0  0.00000000000E+00  0.00000000000E+00  0.89172646113E+03  0.11082735389E+04  0.65809889490E+03 0.  0.
         13    1    3    3    0    0 -0.15196693571E+03  0.10726293626E+02  0.93703123823E+03  0.94933479044E+03  0.00000000000E+00 0. -1.
          2    1    3    3  501    0  0.15196693571E+03 -0.10726293626E+02 -0.45304777100E+02  0.15893874843E+03  0.00000000000E+00 0. -1.
<mgrwt>
<rscale>  0 0.65809889E+03</rscale>
<asrwt>0</asrwt>
<pdfrwt beam="1">0</pdfrwt>
<pdfrwt beam="2">  1        2 0.39372279E+00 0.65809889E+03</pdfrwt>
<totfact> 0.42014599E+00</totfact>
</mgrwt>
</event>
<event>
 5    1  0.2311484E-004  0.6452234E+03  0.7818608E-02  0.9815784E-01
         13   -1    0    0    0    0  0.00000000000E+00  0.00000000000E+00  0.10000000000E+04  0.10000000000E+04  0.00000000000E+00 0. -1.
          2   -1    0    0  501    0 -0.00000000000E+00 -0.00000000000E+00 -0.10407831762E+03  0.10407831762E+03  0.00000000000E+00 0. -1.
    9000006    2    1    2  501    0  0.00000000000E+00  0.00000000000E+00  0.89592168238E+03  0.11040783176E+04  0.64522342679E+03 0.  0.
         13    1    3    3    0    0  0.36495196876E+02 -0.15286633424E+03 -0.34143071558E+02  0.16082837086E+03  0.00000000000E+00 0. -1.
          4    1    3    3  501    0 -0.36495196876E+02  0.15286633424E+03  0.93006475394E+03  0.94324994676E+03  0.00000000000E+00 0. -1.
<mgrwt>
<rscale>  0 0.64522343E+03</rscale>
<asrwt>0</asrwt>
<pdfrwt beam="1">0</pdfrwt>
<pdfrwt beam="2">  1        2 0.37846741E+00 0.64522343E+03</pdfrwt>
<totfact> 0.47907180E+00</totfact>
</mgrwt>
</event>
<event>
 5    1  0.2311484E-004  0.6202070E+03  0.7818608E-02  0.9864348E-01
         13   -1    0    0    0    0  0.00000000000E+00  0.00000000000E+00  0.10000000000E+04  0.10000000000E+04  0.00000000000E+00 0. -1.
          2   -1    0    0  501    0 -0.00000000000E+00 -0.00000000000E+00 -0.96164184101E+02  0.96164184101E+02  0.00000000000E+00 0. -1.
    9000006    2    1    2  501    0  0.00000000000E+00  0.00000000000E+00  0.90383581590E+03  0.10961641841E+04  0.62020701093E+03 0.  0.
         13    1    3    3    0    0  0.10656440354E+02  0.68050938564E+02 -0.82472702345E+02  0.10745341592E+03  0.00000000000E+00 0. -1.
          4    1    3    3  501    0 -0.10656440354E+02 -0.68050938564E+02  0.98630851824E+03  0.98871076818E+03  0.00000000000E+00 0. -1.
<mgrwt>
<rscale>  0 0.62020701E+03</rscale>
<asrwt>0</asrwt>
<pdfrwt beam="1">0</pdfrwt>
<pdfrwt beam="2">  1        2 0.34968868E+00 0.62020701E+03</pdfrwt>
<totfact> 0.61125507E+00</totfact>
</mgrwt>
</event>
<event>
 5    1  0.2311484E-004  0.6514487E+03  0.7818608E-02  0.9804065E-01
         13   -1    0    0    0    0  0.00000000000E+00  0.00000000000E+00  0.10000000000E+04  0.10000000000E+04  0.00000000000E+00 0. -1.
          2   -1    0    0  501    0 -0.00000000000E+00 -0.00000000000E+00 -0.10609633892E+03  0.10609633892E+03  0.00000000000E+00 0. -1.
    9000006    2    1    2  501    0  0.00000000000E+00  0.00000000000E+00  0.89390366108E+03  0.11060963389E+04  0.65144865930E+03 0.  0.
         13    1    3    3    0    0  0.32104359498E+03  0.23018523645E+02  0.36209921879E+03  0.48447361802E+03  0.00000000000E+00 0. -1.
          2    1    3    3  501    0 -0.32104359498E+03 -0.23018523645E+02  0.53180444229E+03  0.62162272091E+03  0.00000000000E+00 0. -1.
<mgrwt>
<rscale>  0 0.65144866E+03</rscale>
<asrwt>0</asrwt>
<pdfrwt beam="1">0</pdfrwt>
<pdfrwt beam="2">  1        2 0.38580568E+00 0.65144866E+03</pdfrwt>
<totfact> 0.44985173E+00</totfact>
</mgrwt>
</event>
<event>
 5    1  0.2311484E-004  0.6420038E+03  0.7818608E-02  0.9821900E-01
         13   -1    0    0    0    0  0.00000000000E+00  0.00000000000E+00  0.10000000000E+04  0.10000000000E+04  0.00000000000E+00 0. -1.
          2   -1    0    0  501    0 -0.00000000000E+00 -0.00000000000E+00 -0.10304222801E+03  0.10304222801E+03  0.00000000000E+00 0. -1.
    9000006    2    1    2  501    0  0.00000000000E+00  0.00000000000E+00  0.89695777199E+03  0.11030422280E+04  0.64200382556E+03 0.  0.
         13    1    3    3    0    0  0.74813983686E+02 -0.31216185281E+03  0.44801307796E+03  0.55114233418E+03  0.00000000000E+00 0. -1.
          2    1    3    3  501    0 -0.74813983686E+02  0.31216185281E+03  0.44894469403E+03  0.55189989382E+03  0.00000000000E+00 0. -1.
<mgrwt>
<rscale>  0 0.64200383E+03</rscale>
<asrwt>0</asrwt>
<pdfrwt beam="1">0</pdfrwt>
<pdfrwt beam="2">  1        2 0.37469980E+00 0.64200383E+03</pdfrwt>
<totfact> 0.49473601E+00</totfact>
</mgrwt>
</event>
<event>
 5    1  0.2311484E-004  0.6502998E+03  0.7818608E-02  0.9806217E-01
         13   -1    0    0    0    0  0.00000000000E+00  0.00000000000E+00  0.10000000000E+04  0.10000000000E+04  0.00000000000E+00 0. -1.
          2   -1    0    0  501    0 -0.00000000000E+00 -0.00000000000E+00 -0.10572245654E+03  0.10572245654E+03  0.00000000000E+00 0. -1.
    9000006    2    1    2  501    0  0.00000000000E+00  0.00000000000E+00  0.89427754346E+03  0.11057224565E+04  0.65029979714E+03 0.  0.
         13    1    3    3    0    0  0.41875775433E+02 -0.10128500567E+03  0.96764508140E+03  0.97383224248E+03  0.00000000000E+00 0. -1.
          2    1    3    3  501    0 -0.41875775433E+02  0.10128500567E+03 -0.73367537940E+02  0.13189021406E+03  0.00000000000E+00 0. -1.
<mgrwt>
<rscale>  0 0.65029980E+03</rscale>
<asrwt>0</asrwt>
<pdfrwt beam="1">0</pdfrwt>
<pdfrwt beam="2">  1        2 0.38444611E+00 0.65029980E+03</pdfrwt>
<totfact> 0.45514004E+00</totfact>
</mgrwt>
</event>
<event>
 5    1  0.2311484E-004  0.6524002E+03  0.7818608E-02  0.9802286E-01
         13   -1    0    0    0    0  0.00000000000E+00  0.00000000000E+00  0.10000000000E+04  0.10000000000E+04  0.00000000000E+00 0. -1.
          2   -1    0    0  501    0 -0.00000000000E+00 -0.00000000000E+00 -0.10640651385E+03  0.10640651385E+03  0.00000000000E+00 0. -1.
    9000006    2    1    2  501    0  0.00000000000E+00  0.00000000000E+00  0.89359348615E+03  0.11064065139E+04  0.65240022640E+03 0.  0.
         13    1    3    3    0    0 -0.52037241989E+02  0.10417159201E+03 -0.69957877589E+02  0.13584439544E+03  0.00000000000E+00 0. -1.
          2    1    3    3  501    0  0.52037241989E+02 -0.10417159201E+03  0.96355136374E+03  0.97056211841E+03  0.00000000000E+00 0. -1.
<mgrwt>
<rscale>  0 0.65240023E+03</rscale>
<asrwt>0</asrwt>
<pdfrwt beam="1">0</pdfrwt>
<pdfrwt beam="2">  1        2 0.38693359E+00 0.65240023E+03</pdfrwt>
<totfact> 0.44550685E+00</totfact>
</mgrwt>
</event>
<event>
 5    1  0.2311484E-004  0.6434946E+03  0.7818608E-02  0.9819063E-01
         13   -1    0    0    0    0  0.00000000000E+00  0.00000000000E+00  0.10000000000E+04  0.10000000000E+04  0.00000000000E+00 0. -1.
          2   -1    0    0  501    0 -0.00000000000E+00 -0.00000000000E+00 -0.10352133967E+03  0.10352133967E+03  0.00000000000E+00 0. -1.
    9000006    2    1    2  501    0  0.00000000000E+00  0.00000000000E+00  0.89647866033E+03  0.11035213397E+04  0.64349464542E+03 0.  0.
         13    1    3    3    0    0  0.83751883647E+02  0.19272043559E+03  0.86607349110E+03  0.89120078338E+03  0.00000000000E+00 0. -1.
          2    1    3    3  501    0 -0.83751883647E+02 -0.19272043559E+03  0.30405169230E+02  0.21232055629E+03  0.00000000000E+00 0. -1.
<mgrwt>
<rscale>  0 0.64349465E+03</rscale>
<asrwt>0</asrwt>
<pdfrwt beam="1">0</pdfrwt>
<pdfrwt beam="2">  1        2 0.37644203E+00 0.64349465E+03</pdfrwt>
<totfact> 0.48743518E+00</totfact>
</mgrwt>
</event>
<event>
 5    1  0.2311484E-004  0.6528692E+03  0.7818608E-02  0.9801410E-01
         13   -1    0    0    0    0  0.00000000000E+00  0.00000000000E+00  0.10000000000E+04  0.10000000000E+04  0.00000000000E+00 0. -1.
          2   -1    0    0  501    0 -0.00000000000E+00 -0.00000000000E+00 -0.10655955684E+03  0.10655955684E+03  0.00000000000E+00 0. -1.
    9000006    2    1    2  501    0  0.00000000000E+00  0.00000000000E+00  0.89344044316E+03  0.11065595568E+04  0.65286922684E+03 0.  0.
         13    1    3    3    0    0  0.11129238271E+03  0.30344464482E+03  0.52429691621E+03  0.61591550010E+03  0.00000000000E+00 0. -1.
          4    1    3    3  501    0 -0.11129238271E+03 -0.30344464482E+03  0.36914352695E+03  0.49064405674E+03  0.00000000000E+00 0. -1.
<mgrwt>
<rscale>  0 0.65286923E+03</rscale>
<asrwt>0</asrwt>
<pdfrwt beam="1">0</pdfrwt>
<pdfrwt beam="2">  1        2 0.38749011E+00 0.65286923E+03</pdfrwt>
<totfact> 0.44337708E+00</totfact>
</mgrwt>
</event>
<event>
 5    1  0.2311484E-004  0.6468976E+03  0.7818608E-02  0.9812618E-01
         13   -1    0    0    0    0  0.00000000000E+00  0.00000000000E+00  0.10000000000E+04  0.10000000000E+04  0.00000000000E+00 0. -1.
          2   -1    0    0  501    0 -0.00000000000E+00 -0.00000000000E+00 -0.10461913924E+03  0.10461913924E+03  0.00000000000E+00 0. -1.
    9000006    2    1    2  501    0  0.00000000000E+00  0.00000000000E+00  0.89538086076E+03  0.11046191392E+04  0.64689764025E+03 0.  0.
         13    1    3    3    0    0  0.20501961847E+03  0.16771750765E+03  0.13072251362E+03  0.29538209475E+03  0.00000000000E+00 0. -1.
          4    1    3    3  501    0 -0.20501961847E+03 -0.16771750765E+03  0.76465834714E+03  0.80923704449E+03  0.00000000000E+00 0. -1.
<mgrwt>
<rscale>  0 0.64689764E+03</rscale>
<asrwt>0</asrwt>
<pdfrwt beam="1">0</pdfrwt>
<pdfrwt beam="2">  1        2 0.38043404E+00 0.64689764E+03</pdfrwt>
<totfact> 0.47107634E+00</totfact>
</mgrwt>
</event>
<event>
 5    1  0.2311484E-004  0.6499161E+03  0.7818608E-02  0.9806937E-01
         13   -1    0    0    0    0  0.00000000000E+00  0.00000000000E+00  0.10000000000E+04  0.10000000000E+04  0.00000000000E+00 0. -1.
          2   -1    0    0  501    0 -0.00000000000E+00 -0.00000000000E+00 -0.10559774359E+03  0.10559774359E+03  0.00000000000E+00 0. -1.
    9000006    2    1    2  501    0  0.00000000000E+00  0.00000000000E+00  0.89440225641E+03  0.11055977436E+04  0.64991612872E+03 0.  0.
         13    1    3    3    0    0  0.23263380432E+02  0.25637067981E+03  0.78457022493E+03  0.82572244016E+03  0.00000000000E+00 0. -1.
          4    1    3    3  501    0 -0.23263380432E+02 -0.25637067981E+03  0.10983203148E+03  0.27987530343E+03  0.00000000000E+00 0. -1.
<mgrwt>
<rscale>  0 0.64991613E+03</rscale>
<asrwt>0</asrwt>
<pdfrwt beam="1">0</pdfrwt>
<pdfrwt beam="2">  1        2 0.38399260E+00 0.64991613E+03</pdfrwt>
<totfact> 0.45691652E+00</totfact>
</mgrwt>
</event>
<event>
 5    1  0.2311484E-004  0.6637841E+03  0.7818608E-02  0.9781253E-01
         13   -1    0    0    0    0  0.00000000000E+00  0.00000000000E+00  0.10000000000E+04  0.10000000000E+04  0.00000000000E+00 0. -1.
          2   -1    0    0  501    0 -0.00000000000E+00 -0.00000000000E+00 -0.11015234743E+03  0.11015234743E+03  0.00000000000E+00 0. -1.
    9000006    2    1    2  501    0  0.00000000000E+00  0.00000000000E+00  0.88984765257E+03  0.11101523474E+04  0.66378414391E+03 0.  0.
         13    1    3    3    0    0  0.11369472044E+03 -0.83730714858E+02  0.94726080051E+03  0.95772665529E+03  0.00000000000E+00 0. -1.
          2    1    3    3  501    0 -0.11369472044E+03  0.83730714858E+02 -0.57413147938E+02  0.15242569213E+03  0.00000000000E+00 0. -1.
<mgrwt>
<rscale>  0 0.66378414E+03</rscale>
<asrwt>0</asrwt>
<pdfrwt beam="1">0</pdfrwt>
<pdfrwt beam="2">  1        2 0.40055484E+00 0.66378414E+03</pdfrwt>
<totfact> 0.39594840E+00</totfact>
</mgrwt>
</event>
<event>
 5    1  0.2311484E-004  0.5752074E+03  0.7818608E-02  0.9958221E-01
         13   -1    0    0    0    0  0.00000000000E+00  0.00000000000E+00  0.10000000000E+04  0.10000000000E+04  0.00000000000E+00 0. -1.
          2   -1    0    0  501    0 -0.00000000000E+00 -0.00000000000E+00 -0.82715887289E+02  0.82715887289E+02  0.00000000000E+00 0. -1.
    9000006    2    1    2  501    0  0.00000000000E+00  0.00000000000E+00  0.91728411271E+03  0.10827158873E+04  0.57520739665E+03 0.  0.
         13    1    3    3    0    0  0.22202423497E+03  0.17339704828E+03  0.56766295884E+03  0.63372117852E+03  0.00000000000E+00 0. -1.
          2    1    3    3  501    0 -0.22202423497E+03 -0.17339704828E+03  0.34962115387E+03  0.44899470877E+03  0.00000000000E+00 0. -1.
<mgrwt>
<rscale>  0 0.57520740E+03</rscale>
<asrwt>0</asrwt>
<pdfrwt beam="1">0</pdfrwt>
<pdfrwt beam="2">  1        2 0.30078568E+00 0.57520740E+03</pdfrwt>
<totfact> 0.91731947E+00</totfact>
</mgrwt>
</event>
<event>
 5    1  0.2311484E-004  0.6628271E+03  0.7818608E-02  0.9783003E-01
         13   -1    0    0    0    0  0.00000000000E+00  0.00000000000E+00  0.10000000000E+04  0.10000000000E+04  0.00000000000E+00 0. -1.
          4   -1    0    0  501    0 -0.00000000000E+00 -0.00000000000E+00 -0.10983494928E+03  0.10983494928E+03  0.00000000000E+00 0. -1.
    9000006    2    1    2  501    0  0.00000000000E+00  0.00000000000E+00  0.89016505072E+03  0.11098349493E+04  0.66282712462E+03 0.  0.
         13    1    3    3    0    0 -0.25823388933E+03  0.11759428232E+02  0.79234076296E+03  0.83344280572E+03  0.00000000000E+00 0. -1.
          4    1    3    3  501    0  0.25823388933E+03 -0.11759428232E+02  0.97824287754E+02  0.27639214356E+03  0.00000000000E+00 0. -1.
<mgrwt>
<rscale>  0 0.66282712E+03</rscale>
<asrwt>0</asrwt>
<pdfrwt beam="1">0</pdfrwt>
<pdfrwt beam="2">  1        4 0.39940066E+00 0.66282712E+03</pdfrwt>
<totfact> 0.32353426E-02</totfact>
</mgrwt>
</event>
<event>
 5    1  0.2311484E-004  0.6396610E+03  0.7818608E-02  0.9826375E-01
         13   -1    0    0    0    0  0.00000000000E+00  0.00000000000E+00  0.10000000000E+04  0.10000000000E+04  0.00000000000E+00 0. -1.
          2   -1    0    0  501    0 -0.00000000000E+00 -0.00000000000E+00 -0.10229156445E+03  0.10229156445E+03  0.00000000000E+00 0. -1.
    9000006    2    1    2  501    0  0.00000000000E+00  0.00000000000E+00  0.89770843555E+03  0.11022915645E+04  0.63966104916E+03 0.  0.
         13    1    3    3    0    0 -0.22069915943E+02 -0.22760818313E+03  0.83417925527E+03  0.86495525673E+03  0.00000000000E+00 0. -1.
          2    1    3    3  501    0  0.22069915943E+02  0.22760818313E+03  0.63529180280E+02  0.23733630773E+03  0.00000000000E+00 0. -1.
<mgrwt>
<rscale>  0 0.63966105E+03</rscale>
<asrwt>0</asrwt>
<pdfrwt beam="1">0</pdfrwt>
<pdfrwt beam="2">  1        2 0.37197011E+00 0.63966105E+03</pdfrwt>
<totfact> 0.50637652E+00</totfact>
</mgrwt>
</event>
<event>
 5    1  0.2311484E-004  0.6387928E+03  0.7818608E-02  0.9828039E-01
         13   -1    0    0    0    0  0.00000000000E+00  0.00000000000E+00  0.10000000000E+04  0.10000000000E+04  0.00000000000E+00 0. -1.
          2   -1    0    0  501    0 -0.00000000000E+00 -0.00000000000E+00 -0.10201405109E+03  0.10201405109E+03  0.00000000000E+00 0. -1.
    9000006    2    1    2  501    0  0.00000000000E+00  0.00000000000E+00  0.89798594891E+03  0.11020140511E+04  0.63879277107E+03 0.  0.
         13    1    3    3    0    0  0.28355714624E+03  0.24625742565E+02  0.69900878981E+03  0.75473463589E+03  0.00000000000E+00 0. -1.
          4    1    3    3  501    0 -0.28355714624E+03 -0.24625742565E+02  0.19897715910E+03  0.34727941521E+03  0.00000000000E+00 0. -1.
<mgrwt>
<rscale>  0 0.63879277E+03</rscale>
<asrwt>0</asrwt>
<pdfrwt beam="1">0</pdfrwt>
<pdfrwt beam="2">  1        2 0.37096097E+00 0.63879277E+03</pdfrwt>
<totfact> 0.51074297E+00</totfact>
</mgrwt>
</event>
<event>
 5    1  0.2311484E-004  0.6490736E+03  0.7818608E-02  0.9808519E-01
         13   -1    0    0    0    0  0.00000000000E+00  0.00000000000E+00  0.10000000000E+04  0.10000000000E+04  0.00000000000E+00 0. -1.
          2   -1    0    0  501    0 -0.00000000000E+00 -0.00000000000E+00 -0.10532413967E+03  0.10532413967E+03  0.00000000000E+00 0. -1.
    9000006    2    1    2  501    0  0.00000000000E+00  0.00000000000E+00  0.89467586033E+03  0.11053241397E+04  0.64907361576E+03 0.  0.
         13    1    3    3    0    0 -0.29982058842E+03  0.93329920130E+02  0.30772626496E+03  0.43965704063E+03  0.00000000000E+00 0. -1.
          2    1    3    3  501    0  0.29982058842E+03 -0.93329920130E+02  0.58694959537E+03  0.66566709904E+03  0.00000000000E+00 0. -1.
<mgrwt>
<rscale>  0 0.64907362E+03</rscale>
<asrwt>0</asrwt>
<pdfrwt beam="1">0</pdfrwt>
<pdfrwt beam="2">  1        2 0.38299768E+00 0.64907362E+03</pdfrwt>
<totfact> 0.46083594E+00</totfact>
</mgrwt>
</event>
<event>
 5    1  0.2311484E-004  0.6490287E+03  0.7818608E-02  0.9808603E-01
         13   -1    0    0    0    0  0.00000000000E+00  0.00000000000E+00  0.10000000000E+04  0.10000000000E+04  0.00000000000E+00 0. -1.
          2   -1    0    0  501    0 -0.00000000000E+00 -0.00000000000E+00 -0.10530956358E+03  0.10530956358E+03  0.00000000000E+00 0. -1.
    9000006    2    1    2  501    0  0.00000000000E+00  0.00000000000E+00  0.89469043642E+03  0.11053095636E+04  0.64902870070E+03 0.  0.
         13    1    3    3    0    0 -0.10666180101E+03  0.13198147624E+03 -0.23729358337E+02  0.17134448433E+03  0.00000000000E+00 0. -1.
          2    1    3    3  501    0  0.10666180101E+03 -0.13198147624E+03  0.91841979475E+03  0.93396507925E+03  0.00000000000E+00 0. -1.
<mgrwt>
<rscale>  0 0.64902870E+03</rscale>
<asrwt>0</asrwt>
<pdfrwt beam="1">0</pdfrwt>
<pdfrwt beam="2">  1        2 0.38294468E+00 0.64902870E+03</pdfrwt>
<totfact> 0.46104560E+00</totfact>
</mgrwt>
</event>
<event>
 5    1  0.2311484E-004  0.6485206E+03  0.7818608E-02  0.9809559E-01
         13   -1    0    0    0    0  0.00000000000E+00  0.00000000000E+00  0.10000000000E+04  0.10000000000E+04  0.00000000000E+00 0. -1.
          2   -1    0    0  501    0 -0.00000000000E+00 -0.00000000000E+00 -0.10514475131E+03  0.10514475131E+03  0.00000000000E+00 0. -1.
    9000006    2    1    2  501    0  0.00000000000E+00  0.00000000000E+00  0.89485524869E+03  0.11051447513E+04  0.64852062824E+03 0.  0.
         13    1    3    3    0    0  0.17352630078E+03 -0.33562553584E+02  0.91070164834E+03  0.92769354549E+03  0.00000000000E+00 0. -1.
          4    1    3    3  501    0 -0.17352630078E+03  0.33562553584E+02 -0.15846399650E+02  0.17745120582E+03  0.00000000000E+00 0. -1.
<mgrwt>
<rscale>  0 0.64852063E+03</rscale>
<asrwt>0</asrwt>
<pdfrwt beam="1">0</pdfrwt>
<pdfrwt beam="2">  1        2 0.38234536E+00 0.64852063E+03</pdfrwt>
<totfact> 0.46342226E+00</totfact>
</mgrwt>
</event>
<event>
 5    1  0.2311484E-004  0.6193896E+03  0.7818608E-02  0.9865976E-01
         13   -1    0    0    0    0  0.00000000000E+00  0.00000000000E+00  0.10000000000E+04  0.10000000000E+04  0.00000000000E+00 0. -1.
          2   -1    0    0  501    0 -0.00000000000E+00 -0.00000000000E+00 -0.95910862133E+02  0.95910862133E+02  0.00000000000E+00 0. -1.
    9000006    2    1    2  501    0  0.00000000000E+00  0.00000000000E+00  0.90408913787E+03  0.10959108621E+04  0.61938957735E+03 0.  0.
         13    1    3    3    0    0 -0.27714850901E+03  0.11637905346E+03  0.58392252601E+03  0.65675025429E+03  0.00000000000E+00 0. -1.
          4    1    3    3  501    0  0.27714850901E+03 -0.11637905346E+03  0.32016661186E+03  0.43916060784E+03  0.00000000000E+00 0. -1.
<mgrwt>
<rscale>  0 0.61938958E+03</rscale>
<asrwt>0</asrwt>
<pdfrwt beam="1">0</pdfrwt>
<pdfrwt beam="2">  1        2 0.34876751E+00 0.61938958E+03</pdfrwt>
<totfact> 0.61599625E+00</totfact>
</mgrwt>
</event>
<event>
 5    1  0.2311484E-004  0.6481264E+03  0.7818608E-02  0.9810301E-01
         13   -1    0    0    0    0  0.00000000000E+00  0.00000000000E+00  0.10000000000E+04  0.10000000000E+04  0.00000000000E+00 0. -1.
          2   -1    0    0  501    0 -0.00000000000E+00 -0.00000000000E+00 -0.10501695833E+03  0.10501695833E+03  0.00000000000E+00 0. -1.
    9000006    2    1    2  501    0  0.00000000000E+00  0.00000000000E+00  0.89498304167E+03  0.11050169583E+04  0.64812640227E+03 0.  0.
         13    1    3    3    0    0  0.76196121178E+02  0.81012181541E+02 -0.71460936171E+02  0.13219488583E+03  0.00000000000E+00 0. -1.
          2    1    3    3  501    0 -0.76196121178E+02 -0.81012181541E+02  0.96644397784E+03  0.97282207250E+03  0.00000000000E+00 0. -1.
<mgrwt>
<rscale>  0 0.64812640E+03</rscale>
<asrwt>0</asrwt>
<pdfrwt beam="1">0</pdfrwt>
<pdfrwt beam="2">  1        2 0.38188065E+00 0.64812640E+03</pdfrwt>
<totfact> 0.46527273E+00</totfact>
</mgrwt>
</event>
<event>
 5    1  0.2311484E-004  0.6547052E+03  0.7818608E-02  0.9797990E-01
         13   -1    0    0    0    0  0.00000000000E+00  0.00000000000E+00  0.10000000000E+04  0.10000000000E+04  0.00000000000E+00 0. -1.
          2   -1    0    0  501    0 -0.00000000000E+00 -0.00000000000E+00 -0.10715973311E+03  0.10715973311E+03  0.00000000000E+00 0. -1.
    9000006    2    1    2  501    0  0.00000000000E+00  0.00000000000E+00  0.89284026689E+03  0.11071597331E+04  0.65470522562E+03 0.  0.
         13    1    3    3    0    0 -0.18213583435E+03  0.16550502294E+03  0.81145230554E+03  0.84795059935E+03  0.00000000000E+00 0. -1.
          4    1    3    3  501    0  0.18213583435E+03 -0.16550502294E+03  0.81387961346E+02  0.25920913376E+03  0.00000000000E+00 0. -1.
<mgrwt>
<rscale>  0 0.65470523E+03</rscale>
<asrwt>0</asrwt>
<pdfrwt beam="1">0</pdfrwt>
<pdfrwt beam="2">  1        2 0.38967258E+00 0.65470523E+03</pdfrwt>
<totfact> 0.43511356E+00</totfact>
</mgrwt>
</event>
<event>
 5    1  0.2311484E-004  0.6040813E+03  0.7818608E-02  0.9896975E-01
         13   -1    0    0    0    0  0.00000000000E+00  0.00000000000E+00  0.10000000000E+04  0.10000000000E+04  0.00000000000E+00 0. -1.
          2   -1    0    0  501    0 -0.00000000000E+00 -0.00000000000E+00 -0.91228540315E+02  0.91228540315E+02  0.00000000000E+00 0. -1.
    9000006    2    1    2  501    0  0.00000000000E+00  0.00000000000E+00  0.90877145968E+03  0.10912285403E+04  0.60408125386E+03 0.  0.
         13    1    3    3    0    0  0.48234674665E+02 -0.27238008470E+03  0.67348560658E+03  0.72807991089E+03  0.00000000000E+00 0. -1.
          4    1    3    3  501    0 -0.48234674665E+02  0.27238008470E+03  0.23528585311E+03  0.36314862942E+03  0.00000000000E+00 0. -1.
<mgrwt>
<rscale>  0 0.60408125E+03</rscale>
<asrwt>0</asrwt>
<pdfrwt beam="1">0</pdfrwt>
<pdfrwt beam="2">  1        2 0.33174085E+00 0.60408125E+03</pdfrwt>
<totfact> 0.71008555E+00</totfact>
</mgrwt>
</event>
<event>
 5    1  0.2311484E-004  0.6387778E+03  0.7818608E-02  0.9828068E-01
         13   -1    0    0    0    0  0.00000000000E+00  0.00000000000E+00  0.10000000000E+04  0.10000000000E+04  0.00000000000E+00 0. -1.
          2   -1    0    0  501    0 -0.00000000000E+00 -0.00000000000E+00 -0.10200926682E+03  0.10200926682E+03  0.00000000000E+00 0. -1.
    9000006    2    1    2  501    0  0.00000000000E+00  0.00000000000E+00  0.89799073318E+03  0.11020092668E+04  0.63877779179E+03 0.  0.
         13    1    3    3    0    0 -0.16927730157E+03  0.16382304769E+03  0.76913232332E+02  0.24780726602E+03  0.00000000000E+00 0. -1.
          2    1    3    3  501    0  0.16927730157E+03 -0.16382304769E+03  0.82107750085E+03  0.85420200081E+03  0.00000000000E+00 0. -1.
<mgrwt>
<rscale>  0 0.63877779E+03</rscale>
<asrwt>0</asrwt>
<pdfrwt beam="1">0</pdfrwt>
<pdfrwt beam="2">  1        2 0.37094357E+00 0.63877779E+03</pdfrwt>
<totfact> 0.51081855E+00</totfact>
</mgrwt>
</event>
<event>
 5    1  0.2311484E-004  0.6475906E+03  0.7818608E-02  0.9811311E-01
         13   -1    0    0    0    0  0.00000000000E+00  0.00000000000E+00  0.10000000000E+04  0.10000000000E+04  0.00000000000E+00 0. -1.
          2   -1    0    0  501    0 -0.00000000000E+00 -0.00000000000E+00 -0.10484339616E+03  0.10484339616E+03  0.00000000000E+00 0. -1.
    9000006    2    1    2  501    0  0.00000000000E+00  0.00000000000E+00  0.89515660384E+03  0.11048433962E+04  0.64759059957E+03 0.  0.
         13    1    3    3    0    0 -0.54785441690E+02  0.17344179737E+03  0.90460448751E+03  0.92270947785E+03  0.00000000000E+00 0. -1.
          2    1    3    3  501    0  0.54785441690E+02 -0.17344179737E+03 -0.94478836731E+01  0.18213391831E+03  0.00000000000E+00 0. -1.
<mgrwt>
<rscale>  0 0.64759060E+03</rscale>
<asrwt>0</asrwt>
<pdfrwt beam="1">0</pdfrwt>
<pdfrwt beam="2">  1        2 0.38124952E+00 0.64759060E+03</pdfrwt>
<totfact> 0.46779671E+00</totfact>
</mgrwt>
</event>
<event>
 5    1  0.2311484E-004  0.6464414E+03  0.7818608E-02  0.9813480E-01
         13   -1    0    0    0    0  0.00000000000E+00  0.00000000000E+00  0.10000000000E+04  0.10000000000E+04  0.00000000000E+00 0. -1.
          2   -1    0    0  501    0 -0.00000000000E+00 -0.00000000000E+00 -0.10447160547E+03  0.10447160547E+03  0.00000000000E+00 0. -1.
    9000006    2    1    2  501    0  0.00000000000E+00  0.00000000000E+00  0.89552839453E+03  0.11044716055E+04  0.64644135223E+03 0.  0.
         13    1    3    3    0    0 -0.66634554305E+02 -0.47093006282E+02  0.98211350056E+03  0.98549725674E+03  0.00000000000E+00 0. -1.
          2    1    3    3  501    0  0.66634554305E+02  0.47093006282E+02 -0.86585106027E+02  0.11897434872E+03  0.00000000000E+00 0. -1.
<mgrwt>
<rscale>  0 0.64644135E+03</rscale>
<asrwt>0</asrwt>
<pdfrwt beam="1">0</pdfrwt>
<pdfrwt beam="2">  1        2 0.37989755E+00 0.64644135E+03</pdfrwt>
<totfact> 0.47324533E+00</totfact>
</mgrwt>
</event>
<event>
 5    1  0.2311484E-004  0.6258987E+03  0.7818608E-02  0.9853085E-01
         13   -1    0    0    0    0  0.00000000000E+00  0.00000000000E+00  0.10000000000E+04  0.10000000000E+04  0.00000000000E+00 0. -1.
          2   -1    0    0  501    0 -0.00000000000E+00 -0.00000000000E+00 -0.97937310279E+02  0.97937310279E+02  0.00000000000E+00 0. -1.
    9000006    2    1    2  501    0  0.00000000000E+00  0.00000000000E+00  0.90206268972E+03  0.10979373103E+04  0.62589874670E+03 0.  0.
         13    1    3    3    0    0  0.15652786323E+03 -0.24098883338E+03  0.66844121423E+03  0.72759208809E+03  0.00000000000E+00 0. -1.
          4    1    3    3  501    0 -0.15652786323E+03  0.24098883338E+03  0.23362147550E+03  0.37034522218E+03  0.00000000000E+00 0. -1.
<mgrwt>
<rscale>  0 0.62589875E+03</rscale>
<asrwt>0</asrwt>
<pdfrwt beam="1">0</pdfrwt>
<pdfrwt beam="2">  1        2 0.35613642E+00 0.62589875E+03</pdfrwt>
<totfact> 0.57900742E+00</totfact>
</mgrwt>
</event>
<event>
 5    1  0.2311484E-004  0.7246105E+03  0.7818608E-02  0.9676046E-01
         13   -1    0    0    0    0  0.00000000000E+00  0.00000000000E+00  0.10000000000E+04  0.10000000000E+04  0.00000000000E+00 0. -1.
          2   -1    0    0  501    0 -0.00000000000E+00 -0.00000000000E+00 -0.13126511228E+03  0.13126511228E+03  0.00000000000E+00 0. -1.
    9000006    2    1    2  501    0  0.00000000000E+00  0.00000000000E+00  0.86873488772E+03  0.11312651123E+04  0.72461054995E+03 0.  0.
         13    1    3    3    0    0 -0.37731988905E+02  0.16642944166E+03 -0.64589765498E+02  0.18246725691E+03  0.00000000000E+00 0. -1.
          4    1    3    3  501    0  0.37731988905E+02 -0.16642944166E+03  0.93332465322E+03  0.94879785537E+03  0.00000000000E+00 0. -1.
<mgrwt>
<rscale>  0 0.72461055E+03</rscale>
<asrwt>0</asrwt>
<pdfrwt beam="1">0</pdfrwt>
<pdfrwt beam="2">  1        2 0.47732869E+00 0.72461055E+03</pdfrwt>
<totfact> 0.19747277E+00</totfact>
</mgrwt>
</event>
<event>
 5    1  0.2311484E-004  0.6765284E+03  0.7818608E-02  0.9758236E-01
         13   -1    0    0    0    0  0.00000000000E+00  0.00000000000E+00  0.10000000000E+04  0.10000000000E+04  0.00000000000E+00 0. -1.
          2   -1    0    0  501    0 -0.00000000000E+00 -0.00000000000E+00 -0.11442266571E+03  0.11442266571E+03  0.00000000000E+00 0. -1.
    9000006    2    1    2  501    0  0.00000000000E+00  0.00000000000E+00  0.88557733429E+03  0.11144226657E+04  0.67652839027E+03 0.  0.
         13    1    3    3    0    0  0.23580206140E+03  0.89060939063E+02  0.81438589567E+03  0.85250152498E+03  0.00000000000E+00 0. -1.
          4    1    3    3  501    0 -0.23580206140E+03 -0.89060939063E+02  0.71191438622E+02  0.26192114073E+03  0.00000000000E+00 0. -1.
<mgrwt>
<rscale>  0 0.67652839E+03</rscale>
<asrwt>0</asrwt>
<pdfrwt beam="1">0</pdfrwt>
<pdfrwt beam="2">  1        2 0.41608330E+00 0.67652839E+03</pdfrwt>
<totfact> 0.34553230E+00</totfact>
</mgrwt>
</event>
<event>
 5    1  0.2311484E-004  0.6169763E+03  0.7818608E-02  0.9870798E-01
         13   -1    0    0    0    0  0.00000000000E+00  0.00000000000E+00  0.10000000000E+04  0.10000000000E+04  0.00000000000E+00 0. -1.
          2   -1    0    0  501    0 -0.00000000000E+00 -0.00000000000E+00 -0.95164949294E+02  0.95164949294E+02  0.00000000000E+00 0. -1.
    9000006    2    1    2  501    0  0.00000000000E+00  0.00000000000E+00  0.90483505071E+03  0.10951649493E+04  0.61697633437E+03 0.  0.
         13    1    3    3    0    0  0.15228671045E+03 -0.11652947816E+03  0.88135829682E+03  0.90197716647E+03  0.00000000000E+00 0. -1.
          4    1    3    3  501    0 -0.15228671045E+03  0.11652947816E+03  0.23476753886E+02  0.19318778282E+03  0.00000000000E+00 0. -1.
<mgrwt>
<rscale>  0 0.61697633E+03</rscale>
<asrwt>0</asrwt>
<pdfrwt beam="1">0</pdfrwt>
<pdfrwt beam="2">  1        2 0.34605509E+00 0.61697633E+03</pdfrwt>
<totfact> 0.63015673E+00</totfact>
</mgrwt>
</event>
<event>
 5    1  0.2311484E-004  0.6382070E+03  0.7818608E-02  0.9829163E-01
         13   -1    0    0    0    0  0.00000000000E+00  0.00000000000E+00  0.10000000000E+04  0.10000000000E+04  0.00000000000E+00 0. -1.
          2   -1    0    0  501    0 -0.00000000000E+00 -0.00000000000E+00 -0.10182704761E+03  0.10182704761E+03  0.00000000000E+00 0. -1.
    9000006    2    1    2  501    0  0.00000000000E+00  0.00000000000E+00  0.89817295239E+03  0.11018270476E+04  0.63820701221E+03 0.  0.
         13    1    3    3    0    0  0.95213586897E+02 -0.30322178737E+03  0.39971000450E+03  0.51066345783E+03  0.00000000000E+00 0. -1.
          4    1    3    3  501    0 -0.95213586897E+02  0.30322178737E+03  0.49846294789E+03  0.59116358978E+03  0.00000000000E+00 0. -1.
<mgrwt>
<rscale>  0 0.63820701E+03</rscale>
<asrwt>0</asrwt>
<pdfrwt beam="1">0</pdfrwt>
<pdfrwt beam="2">  1        2 0.37028095E+00 0.63820701E+03</pdfrwt>
<totfact> 0.51370474E+00</totfact>
</mgrwt>
</event>
<event>
 5    1  0.2311484E-004  0.6649345E+03  0.7818608E-02  0.9779152E-01
         13   -1    0    0    0    0  0.00000000000E+00  0.00000000000E+00  0.10000000000E+04  0.10000000000E+04  0.00000000000E+00 0. -1.
          2   -1    0    0  501    0 -0.00000000000E+00 -0.00000000000E+00 -0.11053448817E+03  0.11053448817E+03  0.00000000000E+00 0. -1.
    9000006    2    1    2  501    0  0.00000000000E+00  0.00000000000E+00  0.88946551183E+03  0.11105344882E+04  0.66493454768E+03 0.  0.
         13    1    3    3    0    0  0.25400597912E+03  0.21438648230E+03  0.45699288288E+03  0.56508680415E+03  0.00000000000E+00 0. -1.
          4    1    3    3  501    0 -0.25400597912E+03 -0.21438648230E+03  0.43247262895E+03  0.54544768403E+03  0.00000000000E+00 0. -1.
<mgrwt>
<rscale>  0 0.66493455E+03</rscale>
<asrwt>0</asrwt>
<pdfrwt beam="1">0</pdfrwt>
<pdfrwt beam="2">  1        2 0.40194444E+00 0.66493455E+03</pdfrwt>
<totfact> 0.39118285E+00</totfact>
</mgrwt>
</event>
<event>
 5    1  0.2311484E-004  0.6505902E+03  0.7818608E-02  0.9805672E-01
         13   -1    0    0    0    0  0.00000000000E+00  0.00000000000E+00  0.10000000000E+04  0.10000000000E+04  0.00000000000E+00 0. -1.
          2   -1    0    0  501    0 -0.00000000000E+00 -0.00000000000E+00 -0.10581690198E+03  0.10581690198E+03  0.00000000000E+00 0. -1.
    9000006    2    1    2  501    0  0.00000000000E+00  0.00000000000E+00  0.89418309802E+03  0.11058169020E+04  0.65059019969E+03 0.  0.
         13    1    3    3    0    0 -0.27893209381E+03 -0.13279243496E+03  0.62026188915E+03  0.69293704972E+03  0.00000000000E+00 0. -1.
          2    1    3    3  501    0  0.27893209381E+03  0.13279243496E+03  0.27392120887E+03  0.41287985227E+03  0.00000000000E+00 0. -1.
<mgrwt>
<rscale>  0 0.65059020E+03</rscale>
<asrwt>0</asrwt>
<pdfrwt beam="1">0</pdfrwt>
<pdfrwt beam="2">  1        2 0.38478955E+00 0.65059020E+03</pdfrwt>
<totfact> 0.45379888E+00</totfact>
</mgrwt>
</event>
<event>
 5    1  0.2311484E-004  0.6612033E+03  0.7818608E-02  0.9785981E-01
         13   -1    0    0    0    0  0.00000000000E+00  0.00000000000E+00  0.10000000000E+04  0.10000000000E+04  0.00000000000E+00 0. -1.
          2   -1    0    0  501    0 -0.00000000000E+00 -0.00000000000E+00 -0.10929745972E+03  0.10929745972E+03  0.00000000000E+00 0. -1.
    9000006    2    1    2  501    0  0.00000000000E+00  0.00000000000E+00  0.89070254028E+03  0.11092974597E+04  0.66120332642E+03 0.  0.
         13    1    3    3    0    0  0.17538557979E+02 -0.31434827673E+03  0.27611999911E+03  0.41876567912E+03  0.00000000000E+00 0. -1.
          2    1    3    3  501    0 -0.17538557979E+02  0.31434827673E+03  0.61458254117E+03  0.69053178060E+03  0.00000000000E+00 0. -1.
<mgrwt>
<rscale>  0 0.66120333E+03</rscale>
<asrwt>0</asrwt>
<pdfrwt beam="1">0</pdfrwt>
<pdfrwt beam="2">  1        2 0.39744615E+00 0.66120333E+03</pdfrwt>
<totfact> 0.40679869E+00</totfact>
</mgrwt>
</event>
<event>
 5    1  0.2311484E-004  0.6443950E+03  0.7818608E-02  0.9817354E-01
         13   -1    0    0    0    0  0.00000000000E+00  0.00000000000E+00  0.10000000000E+04  0.10000000000E+04  0.00000000000E+00 0. -1.
          2   -1    0    0  501    0 -0.00000000000E+00 -0.00000000000E+00 -0.10381122708E+03  0.10381122708E+03  0.00000000000E+00 0. -1.
    9000006    2    1    2  501    0  0.00000000000E+00  0.00000000000E+00  0.89618877292E+03  0.11038112271E+04  0.64439499402E+03 0.  0.
         13    1    3    3    0    0 -0.10974712916E+03 -0.12565536924E+03  0.92025006166E+03  0.93525070444E+03  0.00000000000E+00 0. -1.
          4    1    3    3  501    0  0.10974712916E+03  0.12565536924E+03 -0.24061288735E+02  0.16856052264E+03  0.00000000000E+00 0. -1.
<mgrwt>
<rscale>  0 0.64439499E+03</rscale>
<asrwt>0</asrwt>
<pdfrwt beam="1">0</pdfrwt>
<pdfrwt beam="2">  1        2 0.37749617E+00 0.64439499E+03</pdfrwt>
<totfact> 0.48306587E+00</totfact>
</mgrwt>
</event>
<event>
 5    1  0.2311484E-004  0.6460488E+03  0.7818608E-02  0.9814222E-01
         13   -1    0    0    0    0  0.00000000000E+00  0.00000000000E+00  0.10000000000E+04  0.10000000000E+04  0.00000000000E+00 0. -1.
          2   -1    0    0  501    0 -0.00000000000E+00 -0.00000000000E+00 -0.10434475227E+03  0.10434475227E+03  0.00000000000E+00 0. -1.
    9000006    2    1    2  501    0  0.00000000000E+00  0.00000000000E+00  0.89565524773E+03  0.11043447523E+04  0.64604876681E+03 0.  0.
         13    1    3    3    0    0  0.23414391560E+03  0.75505446698E+02  0.80565789361E+03  0.84238298132E+03  0.00000000000E+00 0. -1.
          2    1    3    3  501    0 -0.23414391560E+03 -0.75505446698E+02  0.89997354119E+02  0.26196177095E+03  0.00000000000E+00 0. -1.
<mgrwt>
<rscale>  0 0.64604877E+03</rscale>
<asrwt>0</asrwt>
<pdfrwt beam="1">0</pdfrwt>
<pdfrwt beam="2">  1        2 0.37943626E+00 0.64604877E+03</pdfrwt>
<totfact> 0.47511754E+00</totfact>
</mgrwt>
</event>
<event>
 5    1  0.2311484E-004  0.6370962E+03  0.7818608E-02  0.9831298E-01
         13   -1    0    0    0    0  0.00000000000E+00  0.00000000000E+00  0.10000000000E+04  0.10000000000E+04  0.00000000000E+00 0. -1.
          2   -1    0    0  501    0 -0.00000000000E+00 -0.00000000000E+00 -0.10147289159E+03  0.10147289159E+03  0.00000000000E+00 0. -1.
    9000006    2    1    2  501    0  0.00000000000E+00  0.00000000000E+00  0.89852710841E+03  0.11014728916E+04  0.63709619866E+03 0.  0.
         13    1    3    3    0    0 -0.30239371453E+03 -0.70187455657E+02  0.32573938045E+03  0.44997153409E+03  0.00000000000E+00 0. -1.
          4    1    3    3  501    0  0.30239371453E+03  0.70187455657E+02  0.57278772796E+03  0.65150135749E+03  0.00000000000E+00 0. -1.
<mgrwt>
<rscale>  0 0.63709620E+03</rscale>
<asrwt>0</asrwt>
<pdfrwt beam="1">0</pdfrwt>
<pdfrwt beam="2">  1        2 0.36899311E+00 0.63709620E+03</pdfrwt>
<totfact> 0.51935706E+00</totfact>
</mgrwt>
</event>
<event>
 5    1  0.2311484E-004  0.6485043E+03  0.7818608E-02  0.9809590E-01
         13   -1    0    0    0    0  0.00000000000E+00  0.00000000000E+00  0.10000000000E+04  0.10000000000E+04  0.00000000000E+00 0. -1.
          2   -1    0    0  501    0 -0.00000000000E+00 -0.00000000000E+00 -0.10513945501E+03  0.10513945501E+03  0.00000000000E+00 0. -1.
    9000006    2    1    2  501    0  0.00000000000E+00  0.00000000000E+00  0.89486054499E+03  0.11051394550E+04  0.64850429453E+03 0.  0.
         13    1    3    3    0    0  0.26887155995E+03  0.10543744080E+03  0.19621910568E+03  0.34915742453E+03  0.00000000000E+00 0. -1.
          4    1    3    3  501    0 -0.26887155995E+03 -0.10543744080E+03  0.69864143931E+03  0.75598203047E+03  0.00000000000E+00 0. -1.
<mgrwt>
<rscale>  0 0.64850429E+03</rscale>
<asrwt>0</asrwt>
<pdfrwt beam="1">0</pdfrwt>
<pdfrwt beam="2">  1        2 0.38232610E+00 0.64850429E+03</pdfrwt>
<totfact> 0.46349881E+00</totfact>
</mgrwt>
</event>
<event>
 5    1  0.2311484E-004  0.6488094E+03  0.7818608E-02  0.9809016E-01
         13   -1    0    0    0    0  0.00000000000E+00  0.00000000000E+00  0.10000000000E+04  0.10000000000E+04  0.00000000000E+00 0. -1.
          2   -1    0    0  501    0 -0.00000000000E+00 -0.00000000000E+00 -0.10523839364E+03  0.10523839364E+03  0.00000000000E+00 0. -1.
    9000006    2    1    2  501    0  0.00000000000E+00  0.00000000000E+00  0.89476160636E+03  0.11052383936E+04  0.64880935147E+03 0.  0.
         13    1    3    3    0    0 -0.31279130066E+03  0.70147806423E+02  0.36256012335E+03  0.48395139793E+03  0.00000000000E+00 0. -1.
          2    1    3    3  501    0  0.31279130066E+03 -0.70147806423E+02  0.53220148301E+03  0.62128699571E+03  0.00000000000E+00 0. -1.
<mgrwt>
<rscale>  0 0.64880935E+03</rscale>
<asrwt>0</asrwt>
<pdfrwt beam="1">0</pdfrwt>
<pdfrwt beam="2">  1        2 0.38268587E+00 0.64880935E+03</pdfrwt>
<totfact> 0.46207054E+00</totfact>
</mgrwt>
</event>
<event>
 5    1  0.2311484E-004  0.4945488E+03  0.7818608E-02  0.1015212E+00
         13   -1    0    0    0    0  0.00000000000E+00  0.00000000000E+00  0.10000000000E+04  0.10000000000E+04  0.00000000000E+00 0. -1.
          2   -1    0    0  501    0 -0.00000000000E+00 -0.00000000000E+00 -0.61144627882E+02  0.61144627882E+02  0.00000000000E+00 0. -1.
    9000006    2    1    2  501    0  0.00000000000E+00  0.00000000000E+00  0.93885537212E+03  0.10611446279E+04  0.49454879590E+03 0.  0.
         13    1    3    3    0    0  0.91964285909E+02  0.13911432219E+03  0.86118018376E+03  0.87717816516E+03  0.00000000000E+00 0. -1.
          4    1    3    3  501    0 -0.91964285909E+02 -0.13911432219E+03  0.77675188354E+02  0.18396646272E+03  0.00000000000E+00 0. -1.
<mgrwt>
<rscale>  0 0.49454880E+03</rscale>
<asrwt>0</asrwt>
<pdfrwt beam="1">0</pdfrwt>
<pdfrwt beam="2">  1        2 0.22234457E+00 0.49454880E+03</pdfrwt>
<totfact> 0.17558203E+01</totfact>
</mgrwt>
</event>
<event>
 5    1  0.2311484E-004  0.6124832E+03  0.7818608E-02  0.9879841E-01
         13   -1    0    0    0    0  0.00000000000E+00  0.00000000000E+00  0.10000000000E+04  0.10000000000E+04  0.00000000000E+00 0. -1.
          2   -1    0    0  501    0 -0.00000000000E+00 -0.00000000000E+00 -0.93783911399E+02  0.93783911399E+02  0.00000000000E+00 0. -1.
    9000006    2    1    2  501    0  0.00000000000E+00  0.00000000000E+00  0.90621608860E+03  0.10937839114E+04  0.61248317985E+03 0.  0.
         13    1    3    3    0    0  0.11882085675E+02 -0.20056354677E+03  0.40367554441E+02  0.20493037770E+03  0.00000000000E+00 0. -1.
          2    1    3    3  501    0 -0.11882085675E+02  0.20056354677E+03  0.86584853416E+03  0.88885353369E+03  0.00000000000E+00 0. -1.
<mgrwt>
<rscale>  0 0.61248318E+03</rscale>
<asrwt>0</asrwt>
<pdfrwt beam="1">0</pdfrwt>
<pdfrwt beam="2">  1        2 0.34103312E+00 0.61248318E+03</pdfrwt>
<totfact> 0.65718136E+00</totfact>
</mgrwt>
</event>
<event>
 5    1  0.2311484E-004  0.6559506E+03  0.7818608E-02  0.9795677E-01
         13   -1    0    0    0    0  0.00000000000E+00  0.00000000000E+00  0.10000000000E+04  0.10000000000E+04  0.00000000000E+00 0. -1.
          2   -1    0    0  501    0 -0.00000000000E+00 -0.00000000000E+00 -0.10756780710E+03  0.10756780710E+03  0.00000000000E+00 0. -1.
    9000006    2    1    2  501    0  0.00000000000E+00  0.00000000000E+00  0.89243219290E+03  0.11075678071E+04  0.65595062955E+03 0.  0.
         13    1    3    3    0    0 -0.98849462842E+02  0.31179703986E+03  0.48685221538E+03  0.58652680245E+03  0.00000000000E+00 0. -1.
          4    1    3    3  501    0  0.98849462842E+02 -0.31179703986E+03  0.40557997752E+03  0.52104100465E+03  0.00000000000E+00 0. -1.
<mgrwt>
<rscale>  0 0.65595063E+03</rscale>
<asrwt>0</asrwt>
<pdfrwt beam="1">0</pdfrwt>
<pdfrwt beam="2">  1        2 0.39115649E+00 0.65595063E+03</pdfrwt>
<totfact> 0.42957479E+00</totfact>
</mgrwt>
</event>
<event>
 5    1  0.2311484E-004  0.6435844E+03  0.7818608E-02  0.9818893E-01
         13   -1    0    0    0    0  0.00000000000E+00  0.00000000000E+00  0.10000000000E+04  0.10000000000E+04  0.00000000000E+00 0. -1.
          2   -1    0    0  501    0 -0.00000000000E+00 -0.00000000000E+00 -0.10355021762E+03  0.10355021762E+03  0.00000000000E+00 0. -1.
    9000006    2    1    2  501    0  0.00000000000E+00  0.00000000000E+00  0.89644978238E+03  0.11035502176E+04  0.64358439267E+03 0.  0.
         13    1    3    3    0    0  0.32154799910E+03  0.56011077869E+01  0.46745160971E+03  0.56739359844E+03  0.00000000000E+00 0. -1.
          2    1    3    3  501    0 -0.32154799910E+03 -0.56011077869E+01  0.42899817267E+03  0.53615661918E+03  0.00000000000E+00 0. -1.
<mgrwt>
<rscale>  0 0.64358439E+03</rscale>
<asrwt>0</asrwt>
<pdfrwt beam="1">0</pdfrwt>
<pdfrwt beam="2">  1        2 0.37654704E+00 0.64358439E+03</pdfrwt>
<totfact> 0.48699831E+00</totfact>
</mgrwt>
</event>
<event>
 5    1  0.2311484E-004  0.6543738E+03  0.7818608E-02  0.9798607E-01
         13   -1    0    0    0    0  0.00000000000E+00  0.00000000000E+00  0.10000000000E+04  0.10000000000E+04  0.00000000000E+00 0. -1.
          2   -1    0    0  501    0 -0.00000000000E+00 -0.00000000000E+00 -0.10705125865E+03  0.10705125865E+03  0.00000000000E+00 0. -1.
    9000006    2    1    2  501    0  0.00000000000E+00  0.00000000000E+00  0.89294874135E+03  0.11070512586E+04  0.65437377285E+03 0.  0.
         13    1    3    3    0    0  0.14624911706E+03  0.11702155426E+03  0.90032485176E+03  0.91960191773E+03  0.00000000000E+00 0. -1.
          4    1    3    3  501    0 -0.14624911706E+03 -0.11702155426E+03 -0.73761104084E+01  0.18744934091E+03  0.00000000000E+00 0. -1.
<mgrwt>
<rscale>  0 0.65437377E+03</rscale>
<asrwt>0</asrwt>
<pdfrwt beam="1">0</pdfrwt>
<pdfrwt beam="2">  1        2 0.38927813E+00 0.65437377E+03</pdfrwt>
<totfact> 0.43659670E+00</totfact>
</mgrwt>
</event>
<event>
 5    1  0.2311484E-004  0.6529122E+03  0.7818608E-02  0.9801330E-01
         13   -1    0    0    0    0  0.00000000000E+00  0.00000000000E+00  0.10000000000E+04  0.10000000000E+04  0.00000000000E+00 0. -1.
          2   -1    0    0  501    0 -0.00000000000E+00 -0.00000000000E+00 -0.10657358172E+03  0.10657358172E+03  0.00000000000E+00 0. -1.
    9000006    2    1    2  501    0  0.00000000000E+00  0.00000000000E+00  0.89342641828E+03  0.11065735817E+04  0.65291218925E+03 0.  0.
         13    1    3    3    0    0 -0.23295034127E+03 -0.10067219850E+03  0.79476340854E+03  0.83429588792E+03  0.00000000000E+00 0. -1.
          4    1    3    3  501    0  0.23295034127E+03  0.10067219850E+03  0.98663009742E+02  0.27227769380E+03  0.00000000000E+00 0. -1.
<mgrwt>
<rscale>  0 0.65291219E+03</rscale>
<asrwt>0</asrwt>
<pdfrwt beam="1">0</pdfrwt>
<pdfrwt beam="2">  1        2 0.38754111E+00 0.65291219E+03</pdfrwt>
<totfact> 0.44318237E+00</totfact>
</mgrwt>
</event>
<event>
 5    1  0.2311484E-004  0.6301024E+03  0.7818608E-02  0.9844849E-01
         13   -1    0    0    0    0  0.00000000000E+00  0.00000000000E+00  0.10000000000E+04  0.10000000000E+04  0.00000000000E+00 0. -1.
          2   -1    0    0  501    0 -0.00000000000E+00 -0.00000000000E+00 -0.99257251679E+02  0.99257251679E+02  0.00000000000E+00 0. -1.
    9000006    2    1    2  501    0  0.00000000000E+00  0.00000000000E+00  0.90074274832E+03  0.10992572517E+04  0.63010237796E+03 0.  0.
         13    1    3    3    0    0 -0.27715934757E+03  0.13435547448E+03  0.33480035198E+03  0.45492853631E+03  0.00000000000E+00 0. -1.
          2    1    3    3  501    0  0.27715934757E+03 -0.13435547448E+03  0.56594239634E+03  0.64432871536E+03  0.00000000000E+00 0. -1.
<mgrwt>
<rscale>  0 0.63010238E+03</rscale>
<asrwt>0</asrwt>
<pdfrwt beam="1">0</pdfrwt>
<pdfrwt beam="2">  1        2 0.36093622E+00 0.63010238E+03</pdfrwt>
<totfact> 0.55603556E+00</totfact>
</mgrwt>
</event>
<event>
 5    1  0.2311484E-004  0.6498455E+03  0.7818608E-02  0.9807069E-01
         13   -1    0    0    0    0  0.00000000000E+00  0.00000000000E+00  0.10000000000E+04  0.10000000000E+04  0.00000000000E+00 0. -1.
          2   -1    0    0  501    0 -0.00000000000E+00 -0.00000000000E+00 -0.10557480346E+03  0.10557480346E+03  0.00000000000E+00 0. -1.
    9000006    2    1    2  501    0  0.00000000000E+00  0.00000000000E+00  0.89442519654E+03  0.11055748035E+04  0.64984553074E+03 0.  0.
         13    1    3    3    0    0  0.26334729132E+03 -0.17188342062E+02  0.12474067410E+03  0.29190318724E+03  0.00000000000E+00 0. -1.
          4    1    3    3  501    0 -0.26334729132E+03  0.17188342062E+02  0.76968452244E+03  0.81367161621E+03  0.00000000000E+00 0. -1.
<mgrwt>
<rscale>  0 0.64984553E+03</rscale>
<asrwt>0</asrwt>
<pdfrwt beam="1">0</pdfrwt>
<pdfrwt beam="2">  1        2 0.38390919E+00 0.64984553E+03</pdfrwt>
<totfact> 0.45724397E+00</totfact>
</mgrwt>
</event>
<event>
 5    1  0.2311484E-004  0.6341699E+03  0.7818608E-02  0.9836945E-01
         13   -1    0    0    0    0  0.00000000000E+00  0.00000000000E+00  0.10000000000E+04  0.10000000000E+04  0.00000000000E+00 0. -1.
          2   -1    0    0  501    0 -0.00000000000E+00 -0.00000000000E+00 -0.10054286201E+03  0.10054286201E+03  0.00000000000E+00 0. -1.
    9000006    2    1    2  501    0  0.00000000000E+00  0.00000000000E+00  0.89945713799E+03  0.11005428620E+04  0.63416988896E+03 0.  0.
         13    1    3    3    0    0 -0.28345903085E+03  0.14210467452E+03  0.45028097212E+03  0.55072290178E+03  0.00000000000E+00 0. -1.
          4    1    3    3  501    0  0.28345903085E+03 -0.14210467452E+03  0.44917616586E+03  0.54981996023E+03  0.00000000000E+00 0. -1.
<mgrwt>
<rscale>  0 0.63416989E+03</rscale>
<asrwt>0</asrwt>
<pdfrwt beam="1">0</pdfrwt>
<pdfrwt beam="2">  1        2 0.36561118E+00 0.63416989E+03</pdfrwt>
<totfact> 0.53447315E+00</totfact>
</mgrwt>
</event>
<event>
 5    1  0.2311484E-004  0.6666834E+03  0.7818608E-02  0.9775968E-01
         13   -1    0    0    0    0  0.00000000000E+00  0.00000000000E+00  0.10000000000E+04  0.10000000000E+04  0.00000000000E+00 0. -1.
          2   -1    0    0  501    0 -0.00000000000E+00 -0.00000000000E+00 -0.11111669018E+03  0.11111669018E+03  0.00000000000E+00 0. -1.
    9000006    2    1    2  501    0  0.00000000000E+00  0.00000000000E+00  0.88888330982E+03  0.11111166902E+04  0.66668340366E+03 0.  0.
         13    1    3    3    0    0  0.16261093088E+03 -0.78761441862E+02 -0.22426928334E+02  0.18206769807E+03  0.00000000000E+00 0. -1.
          4    1    3    3  501    0 -0.16261093088E+03  0.78761441862E+02  0.91131023816E+03  0.92904899211E+03  0.00000000000E+00 0. -1.
<mgrwt>
<rscale>  0 0.66668340E+03</rscale>
<asrwt>0</asrwt>
<pdfrwt beam="1">0</pdfrwt>
<pdfrwt beam="2">  1        2 0.40406154E+00 0.66668340E+03</pdfrwt>
<totfact> 0.38402121E+00</totfact>
</mgrwt>
</event>
<event>
 5    1  0.2311484E-004  0.6522584E+03  0.7818608E-02  0.9802551E-01
         13   -1    0    0    0    0  0.00000000000E+00  0.00000000000E+00  0.10000000000E+04  0.10000000000E+04  0.00000000000E+00 0. -1.
          2   -1    0    0  501    0 -0.00000000000E+00 -0.00000000000E+00 -0.10636024686E+03  0.10636024686E+03  0.00000000000E+00 0. -1.
    9000006    2    1    2  501    0  0.00000000000E+00  0.00000000000E+00  0.89363975314E+03  0.11063602469E+04  0.65225837475E+03 0.  0.
         13    1    3    3    0    0 -0.13361955218E+03 -0.53621122244E+01 -0.57716929234E+02  0.14565088703E+03  0.00000000000E+00 0. -1.
          2    1    3    3  501    0  0.13361955218E+03  0.53621122244E+01  0.95135668238E+03  0.96070935983E+03  0.00000000000E+00 0. -1.
<mgrwt>
<rscale>  0 0.65225837E+03</rscale>
<asrwt>0</asrwt>
<pdfrwt beam="1">0</pdfrwt>
<pdfrwt beam="2">  1        2 0.38676535E+00 0.65225837E+03</pdfrwt>
<totfact> 0.44615253E+00</totfact>
</mgrwt>
</event>
<event>
 5    1  0.2311484E-004  0.6212393E+03  0.7818608E-02  0.9862295E-01
         13   -1    0    0    0    0  0.00000000000E+00  0.00000000000E+00  0.10000000000E+04  0.10000000000E+04  0.00000000000E+00 0. -1.
          2   -1    0    0  501    0 -0.00000000000E+00 -0.00000000000E+00 -0.96484567931E+02  0.96484567931E+02  0.00000000000E+00 0. -1.
    9000006    2    1    2  501    0  0.00000000000E+00  0.00000000000E+00  0.90351543207E+03  0.10964845679E+04  0.62123930311E+03 0.  0.
         13    1    3    3    0    0 -0.12136894538E+03  0.17831669464E+03  0.57261270930E+02  0.22317284252E+03  0.00000000000E+00 0. -1.
          2    1    3    3  501    0  0.12136894538E+03 -0.17831669464E+03  0.84625416114E+03  0.87331172541E+03  0.00000000000E+00 0. -1.
<mgrwt>
<rscale>  0 0.62123930E+03</rscale>
<asrwt>0</asrwt>
<pdfrwt beam="1">0</pdfrwt>
<pdfrwt beam="2">  1        2 0.35085371E+00 0.62123930E+03</pdfrwt>
<totfact> 0.60530743E+00</totfact>
</mgrwt>
</event>
<event>
 5    1  0.2311484E-004  0.6076472E+03  0.7818608E-02  0.9889666E-01
         13   -1    0    0    0    0  0.00000000000E+00  0.00000000000E+00  0.10000000000E+04  0.10000000000E+04  0.00000000000E+00 0. -1.
          2   -1    0    0  501    0 -0.00000000000E+00 -0.00000000000E+00 -0.92308791063E+02  0.92308791063E+02  0.00000000000E+00 0. -1.
    9000006    2    1    2  501    0  0.00000000000E+00  0.00000000000E+00  0.90769120894E+03  0.10923087911E+04  0.60764723669E+03 0.  0.
         13    1    3    3    0    0 -0.66011125158E+02 -0.29096982218E+03  0.55692033565E+03  0.63180785555E+03  0.00000000000E+00 0. -1.
          4    1    3    3  501    0  0.66011125158E+02  0.29096982218E+03  0.35077087329E+03  0.46050093552E+03  0.00000000000E+00 0. -1.
<mgrwt>
<rscale>  0 0.60764724E+03</rscale>
<asrwt>0</asrwt>
<pdfrwt beam="1">0</pdfrwt>
<pdfrwt beam="2">  1        2 0.33566904E+00 0.60764724E+03</pdfrwt>
<totfact> 0.68724843E+00</totfact>
</mgrwt>
</event>
<event>
 5    1  0.2311484E-004  0.6534988E+03  0.7818608E-02  0.9800236E-01
         13   -1    0    0    0    0  0.00000000000E+00  0.00000000000E+00  0.10000000000E+04  0.10000000000E+04  0.00000000000E+00 0. -1.
          2   -1    0    0  501    0 -0.00000000000E+00 -0.00000000000E+00 -0.10676517594E+03  0.10676517594E+03  0.00000000000E+00 0. -1.
    9000006    2    1    2  501    0  0.00000000000E+00  0.00000000000E+00  0.89323482406E+03  0.11067651759E+04  0.65349881695E+03 0.  0.
         13    1    3    3    0    0 -0.21086353076E+03  0.24347205407E+03  0.53973621479E+03  0.62853579952E+03  0.00000000000E+00 0. -1.
          2    1    3    3  501    0  0.21086353076E+03 -0.24347205407E+03  0.35349860927E+03  0.47822937642E+03  0.00000000000E+00 0. -1.
<mgrwt>
<rscale>  0 0.65349882E+03</rscale>
<asrwt>0</asrwt>
<pdfrwt beam="1">0</pdfrwt>
<pdfrwt beam="2">  1        2 0.38823782E+00 0.65349882E+03</pdfrwt>
<totfact> 0.44053017E+00</totfact>
</mgrwt>
</event>
<event>
 5    1  0.2311484E-004  0.6569910E+03  0.7818608E-02  0.9793749E-01
         13   -1    0    0    0    0  0.00000000000E+00  0.00000000000E+00  0.10000000000E+04  0.10000000000E+04  0.00000000000E+00 0. -1.
          2   -1    0    0  501    0 -0.00000000000E+00 -0.00000000000E+00 -0.10790928017E+03  0.10790928017E+03  0.00000000000E+00 0. -1.
    9000006    2    1    2  501    0  0.00000000000E+00  0.00000000000E+00  0.89209071983E+03  0.11079092802E+04  0.65699095935E+03 0.  0.
         13    1    3    3    0    0 -0.93220389161E+02  0.14334697007E+03  0.91903521479E+03  0.93480699655E+03  0.00000000000E+00 0. -1.
          4    1    3    3  501    0  0.93220389161E+02 -0.14334697007E+03 -0.26944494953E+02  0.17310228362E+03  0.00000000000E+00 0. -1.
<mgrwt>
<rscale>  0 0.65699096E+03</rscale>
<asrwt>0</asrwt>
<pdfrwt beam="1">0</pdfrwt>
<pdfrwt beam="2">  1        2 0.39239821E+00 0.65699096E+03</pdfrwt>
<totfact> 0.42498902E+00</totfact>
</mgrwt>
</event>
<event>
 5    1  0.2311484E-004  0.6087594E+03  0.7818608E-02  0.9887398E-01
         13   -1    0    0    0    0  0.00000000000E+00  0.00000000000E+00  0.10000000000E+04  0.10000000000E+04  0.00000000000E+00 0. -1.
          2   -1    0    0  501    0 -0.00000000000E+00 -0.00000000000E+00 -0.92647002622E+02  0.92647002622E+02  0.00000000000E+00 0. -1.
    9000006    2    1    2  501    0  0.00000000000E+00  0.00000000000E+00  0.90735299738E+03  0.10926470026E+04  0.60875940279E+03 0.  0.
         13    1    3    3    0    0  0.28333624567E+03  0.56046176989E+02  0.28127130331E+03  0.40315524073E+03  0.00000000000E+00 0. -1.
          2    1    3    3  501    0 -0.28333624567E+03 -0.56046176989E+02  0.62608169407E+03  0.68949176189E+03  0.00000000000E+00 0. -1.
<mgrwt>
<rscale>  0 0.60875940E+03</rscale>
<asrwt>0</asrwt>
<pdfrwt beam="1">0</pdfrwt>
<pdfrwt beam="2">  1        2 0.33689890E+00 0.60875940E+03</pdfrwt>
<totfact> 0.68024218E+00</totfact>
</mgrwt>
</event>
<event>
 5    1  0.2311484E-004  0.6456973E+03  0.7818608E-02  0.9814887E-01
         13   -1    0    0    0    0  0.00000000000E+00  0.00000000000E+00  0.10000000000E+04  0.10000000000E+04  0.00000000000E+00 0. -1.
          2   -1    0    0  501    0 -0.00000000000E+00 -0.00000000000E+00 -0.10423124800E+03  0.10423124800E+03  0.00000000000E+00 0. -1.
    9000006    2    1    2  501    0  0.00000000000E+00  0.00000000000E+00  0.89576875200E+03  0.11042312480E+04  0.64569729130E+03 0.  0.
         13    1    3    3    0    0 -0.54730980948E+02  0.25812138873E+03  0.76603027108E+03  0.81020028870E+03  0.00000000000E+00 0. -1.
          4    1    3    3  501    0  0.54730980948E+02 -0.25812138873E+03  0.12973848092E+03  0.29403095930E+03  0.00000000000E+00 0. -1.
<mgrwt>
<rscale>  0 0.64569729E+03</rscale>
<asrwt>0</asrwt>
<pdfrwt beam="1">0</pdfrwt>
<pdfrwt beam="2">  1        2 0.37902352E+00 0.64569729E+03</pdfrwt>
<totfact> 0.47679846E+00</totfact>
</mgrwt>
</event>
<event>
 5    1  0.2311484E-004  0.6522672E+03  0.7818608E-02  0.9802534E-01
         13   -1    0    0    0    0  0.00000000000E+00  0.00000000000E+00  0.10000000000E+04  0.10000000000E+04  0.00000000000E+00 0. -1.
          2   -1    0    0  501    0 -0.00000000000E+00 -0.00000000000E+00 -0.10636311574E+03  0.10636311574E+03  0.00000000000E+00 0. -1.
    9000006    2    1    2  501    0  0.00000000000E+00  0.00000000000E+00  0.89363688426E+03  0.11063631157E+04  0.65226717147E+03 0.  0.
         13    1    3    3    0    0  0.92063053617E+02  0.26021335665E+03  0.15216824410E+03  0.31518529682E+03  0.00000000000E+00 0. -1.
          2    1    3    3  501    0 -0.92063053617E+02 -0.26021335665E+03  0.74146864016E+03  0.79117781893E+03  0.00000000000E+00 0. -1.
<mgrwt>
<rscale>  0 0.65226717E+03</rscale>
<asrwt>0</asrwt>
<pdfrwt beam="1">0</pdfrwt>
<pdfrwt beam="2">  1        2 0.38677578E+00 0.65226717E+03</pdfrwt>
<totfact> 0.44611247E+00</totfact>
</mgrwt>
</event>
<event>
 5    1  0.2311484E-004  0.6524979E+03  0.7818608E-02  0.9802103E-01
         13   -1    0    0    0    0  0.00000000000E+00  0.00000000000E+00  0.10000000000E+04  0.10000000000E+04  0.00000000000E+00 0. -1.
          2   -1    0    0  501    0 -0.00000000000E+00 -0.00000000000E+00 -0.10643838301E+03  0.10643838301E+03  0.00000000000E+00 0. -1.
    9000006    2    1    2  501    0  0.00000000000E+00  0.00000000000E+00  0.89356161699E+03  0.11064383830E+04  0.65249791727E+03 0.  0.
         13    1    3    3    0    0 -0.27684748655E+03 -0.15088624090E+03  0.30463335271E+03  0.43842065198E+03  0.00000000000E+00 0. -1.
          4    1    3    3  501    0  0.27684748655E+03  0.15088624090E+03  0.58892826428E+03  0.66801773103E+03  0.00000000000E+00 0. -1.
<mgrwt>
<rscale>  0 0.65249792E+03</rscale>
<asrwt>0</asrwt>
<pdfrwt beam="1">0</pdfrwt>
<pdfrwt beam="2">  1        2 0.38704948E+00 0.65249792E+03</pdfrwt>
<totfact> 0.44506259E+00</totfact>
</mgrwt>
</event>
<event>
 5    1  0.2311484E-004  0.6587075E+03  0.7818608E-02  0.9790576E-01
         13   -1    0    0    0    0  0.00000000000E+00  0.00000000000E+00  0.10000000000E+04  0.10000000000E+04  0.00000000000E+00 0. -1.
          2   -1    0    0  501    0 -0.00000000000E+00 -0.00000000000E+00 -0.10847389988E+03  0.10847389988E+03  0.00000000000E+00 0. -1.
    9000006    2    1    2  501    0  0.00000000000E+00  0.00000000000E+00  0.89152610012E+03  0.11084738999E+04  0.65870752198E+03 0.  0.
         13    1    3    3    0    0 -0.43310958266E+02 -0.14868046826E+03  0.93491197619E+03  0.94765084497E+03  0.00000000000E+00 0. -1.
          2    1    3    3  501    0  0.43310958266E+02  0.14868046826E+03 -0.43385876067E+02  0.16082305491E+03  0.00000000000E+00 0. -1.
<mgrwt>
<rscale>  0 0.65870752E+03</rscale>
<asrwt>0</asrwt>
<pdfrwt beam="1">0</pdfrwt>
<pdfrwt beam="2">  1        2 0.39445138E+00 0.65870752E+03</pdfrwt>
<totfact> 0.41750352E+00</totfact>
</mgrwt>
</event>
<event>
 5    1  0.2311484E-004  0.6460874E+03  0.7818608E-02  0.9814149E-01
         13   -1    0    0    0    0  0.00000000000E+00  0.00000000000E+00  0.10000000000E+04  0.10000000000E+04  0.00000000000E+00 0. -1.
          2   -1    0    0  501    0 -0.00000000000E+00 -0.00000000000E+00 -0.10435721749E+03  0.10435721749E+03  0.00000000000E+00 0. -1.
    9000006    2    1    2  501    0  0.00000000000E+00  0.00000000000E+00  0.89564278251E+03  0.11043572175E+04  0.64608735475E+03 0.  0.
         13    1    3    3    0    0  0.33940889820E+02 -0.31194284622E+03  0.31656211663E+03  0.44572625791E+03  0.00000000000E+00 0. -1.
          4    1    3    3  501    0 -0.33940889820E+02  0.31194284622E+03  0.57908066588E+03  0.65863095958E+03  0.00000000000E+00 0. -1.
<mgrwt>
<rscale>  0 0.64608735E+03</rscale>
<asrwt>0</asrwt>
<pdfrwt beam="1">0</pdfrwt>
<pdfrwt beam="2">  1        2 0.37948159E+00 0.64608735E+03</pdfrwt>
<totfact> 0.47493327E+00</totfact>
</mgrwt>
</event>
<event>
 5    1  0.2311484E-004  0.6535304E+03  0.7818608E-02  0.9800177E-01
         13   -1    0    0    0    0  0.00000000000E+00  0.00000000000E+00  0.10000000000E+04  0.10000000000E+04  0.00000000000E+00 0. -1.
          2   -1    0    0  501    0 -0.00000000000E+00 -0.00000000000E+00 -0.10677548304E+03  0.10677548304E+03  0.00000000000E+00 0. -1.
    9000006    2    1    2  501    0  0.00000000000E+00  0.00000000000E+00  0.89322451696E+03  0.11067754830E+04  0.65353036056E+03 0.  0.
         13    1    3    3    0    0  0.29779334647E+03 -0.75277115719E+02  0.25781585577E+03  0.40101937216E+03  0.00000000000E+00 0. -1.
          4    1    3    3  501    0 -0.29779334647E+03  0.75277115719E+02  0.63540866118E+03  0.70575611089E+03  0.00000000000E+00 0. -1.
<mgrwt>
<rscale>  0 0.65353036E+03</rscale>
<asrwt>0</asrwt>
<pdfrwt beam="1">0</pdfrwt>
<pdfrwt beam="2">  1        2 0.38827530E+00 0.65353036E+03</pdfrwt>
<totfact> 0.44038789E+00</totfact>
</mgrwt>
</event>
<event>
 5    1  0.2311484E-004  0.6927278E+03  0.7818608E-02  0.9729750E-01
         13   -1    0    0    0    0  0.00000000000E+00  0.00000000000E+00  0.10000000000E+04  0.10000000000E+04  0.00000000000E+00 0. -1.
          2   -1    0    0  501    0 -0.00000000000E+00 -0.00000000000E+00 -0.11996795869E+03  0.11996795869E+03  0.00000000000E+00 0. -1.
    9000006    2    1    2  501    0  0.00000000000E+00  0.00000000000E+00  0.88003204131E+03  0.11199679587E+04  0.69272782156E+03 0.  0.
         13    1    3    3    0    0  0.20845451809E+03 -0.16915173773E+02 -0.63609656150E+01  0.20923640003E+03  0.00000000000E+00 0. -1.
          4    1    3    3  501    0 -0.20845451809E+03  0.16915173773E+02  0.88639300692E+03  0.91073155866E+03  0.00000000000E+00 0. -1.
<mgrwt>
<rscale>  0 0.69272782E+03</rscale>
<asrwt>0</asrwt>
<pdfrwt beam="1">0</pdfrwt>
<pdfrwt beam="2">  1        2 0.43624804E+00 0.69272782E+03</pdfrwt>
<totfact> 0.28861524E+00</totfact>
</mgrwt>
</event>
<event>
 5    1  0.2311484E-004  0.6386839E+03  0.7818608E-02  0.9828248E-01
         13   -1    0    0    0    0  0.00000000000E+00  0.00000000000E+00  0.10000000000E+04  0.10000000000E+04  0.00000000000E+00 0. -1.
          2   -1    0    0  501    0 -0.00000000000E+00 -0.00000000000E+00 -0.10197929608E+03  0.10197929608E+03  0.00000000000E+00 0. -1.
    9000006    2    1    2  501    0  0.00000000000E+00  0.00000000000E+00  0.89802070392E+03  0.11019792961E+04  0.63868394714E+03 0.  0.
         13    1    3    3    0    0  0.12935737172E+03 -0.23533292240E+03  0.74718052767E+03  0.79397333388E+03  0.00000000000E+00 0. -1.
          2    1    3    3  501    0 -0.12935737172E+03  0.23533292240E+03  0.15084017625E+03  0.30800596221E+03  0.00000000000E+00 0. -1.
<mgrwt>
<rscale>  0 0.63868395E+03</rscale>
<asrwt>0</asrwt>
<pdfrwt beam="1">0</pdfrwt>
<pdfrwt beam="2">  1        2 0.37083459E+00 0.63868395E+03</pdfrwt>
<totfact> 0.51129224E+00</totfact>
</mgrwt>
</event>
<event>
 5    1  0.2311484E-004  0.6470628E+03  0.7818608E-02  0.9812306E-01
         13   -1    0    0    0    0  0.00000000000E+00  0.00000000000E+00  0.10000000000E+04  0.10000000000E+04  0.00000000000E+00 0. -1.
          2   -1    0    0  501    0 -0.00000000000E+00 -0.00000000000E+00 -0.10467255495E+03  0.10467255495E+03  0.00000000000E+00 0. -1.
    9000006    2    1    2  501    0  0.00000000000E+00  0.00000000000E+00  0.89532744505E+03  0.11046725549E+04  0.64706276341E+03 0.  0.
         13    1    3    3    0    0  0.21710652552E+03  0.21658388148E+02  0.85549857946E+03  0.88288286237E+03  0.00000000000E+00 0. -1.
          2    1    3    3  501    0 -0.21710652552E+03 -0.21658388148E+02  0.39828865591E+02  0.22178969258E+03  0.00000000000E+00 0. -1.
<mgrwt>
<rscale>  0 0.64706276E+03</rscale>
<asrwt>0</asrwt>
<pdfrwt beam="1">0</pdfrwt>
<pdfrwt beam="2">  1        2 0.38062828E+00 0.64706276E+03</pdfrwt>
<totfact> 0.47029328E+00</totfact>
</mgrwt>
</event>
<event>
 5    1  0.2311484E-004  0.6493166E+03  0.7818608E-02  0.9808062E-01
         13   -1    0    0    0    0  0.00000000000E+00  0.00000000000E+00  0.10000000000E+04  0.10000000000E+04  0.00000000000E+00 0. -1.
          2   -1    0    0  501    0 -0.00000000000E+00 -0.00000000000E+00 -0.10540300735E+03  0.10540300735E+03  0.00000000000E+00 0. -1.
    9000006    2    1    2  501    0  0.00000000000E+00  0.00000000000E+00  0.89459699265E+03  0.11054030073E+04  0.64931658642E+03 0.  0.
         13    1    3    3    0    0  0.11992027716E+03 -0.24575722131E+03  0.74522277703E+03  0.79381009827E+03  0.00000000000E+00 0. -1.
          2    1    3    3  501    0 -0.11992027716E+03  0.24575722131E+03  0.14937421562E+03  0.31159290908E+03  0.00000000000E+00 0. -1.
<mgrwt>
<rscale>  0 0.64931659E+03</rscale>
<asrwt>0</asrwt>
<pdfrwt beam="1">0</pdfrwt>
<pdfrwt beam="2">  1        2 0.38328447E+00 0.64931659E+03</pdfrwt>
<totfact> 0.45970303E+00</totfact>
</mgrwt>
</event>
<event>
 5    1  0.2311484E-004  0.6410470E+03  0.7818608E-02  0.9823725E-01
         13   -1    0    0    0    0  0.00000000000E+00  0.00000000000E+00  0.10000000000E+04  0.10000000000E+04  0.00000000000E+00 0. -1.
          2   -1    0    0  501    0 -0.00000000000E+00 -0.00000000000E+00 -0.10273530849E+03  0.10273530849E+03  0.00000000000E+00 0. -1.
    9000006    2    1    2  501    0  0.00000000000E+00  0.00000000000E+00  0.89726469151E+03  0.11027353085E+04  0.64104698265E+03 0.  0.
         13    1    3    3    0    0  0.28890031066E+03 -0.63561716313E+02  0.23632871452E+03  0.37862216336E+03  0.00000000000E+00 0. -1.
          4    1    3    3  501    0 -0.28890031066E+03  0.63561716313E+02  0.66093597699E+03  0.72411314513E+03  0.00000000000E+00 0. -1.
<mgrwt>
<rscale>  0 0.64104698E+03</rscale>
<asrwt>0</asrwt>
<pdfrwt beam="1">0</pdfrwt>
<pdfrwt beam="2">  1        2 0.37358373E+00 0.64104698E+03</pdfrwt>
<totfact> 0.49946550E+00</totfact>
</mgrwt>
</event>
<event>
 5    1  0.2311484E-004  0.6467004E+03  0.7818608E-02  0.9812990E-01
         13   -1    0    0    0    0  0.00000000000E+00  0.00000000000E+00  0.10000000000E+04  0.10000000000E+04  0.00000000000E+00 0. -1.
          2   -1    0    0  501    0 -0.00000000000E+00 -0.00000000000E+00 -0.10455535369E+03  0.10455535369E+03  0.00000000000E+00 0. -1.
    9000006    2    1    2  501    0  0.00000000000E+00  0.00000000000E+00  0.89544464631E+03  0.11045553537E+04  0.64670040572E+03 0.  0.
         13    1    3    3    0    0 -0.76350016344E+01  0.16713887270E+03  0.92031829495E+03  0.93540336756E+03  0.00000000000E+00 0. -1.
          4    1    3    3  501    0  0.76350016344E+01 -0.16713887270E+03 -0.24873648641E+02  0.16915198613E+03  0.00000000000E+00 0. -1.
<mgrwt>
<rscale>  0 0.64670041E+03</rscale>
<asrwt>0</asrwt>
<pdfrwt beam="1">0</pdfrwt>
<pdfrwt beam="2">  1        2 0.38020209E+00 0.64670041E+03</pdfrwt>
<totfact> 0.47201298E+00</totfact>
</mgrwt>
</event>
<event>
 5    1  0.2311484E-004  0.6509148E+03  0.7818608E-02  0.9805064E-01
         13   -1    0    0    0    0  0.00000000000E+00  0.00000000000E+00  0.10000000000E+04  0.10000000000E+04  0.00000000000E+00 0. -1.
          2   -1    0    0  501    0 -0.00000000000E+00 -0.00000000000E+00 -0.10592253018E+03  0.10592253018E+03  0.00000000000E+00 0. -1.
    9000006    2    1    2  501    0  0.00000000000E+00  0.00000000000E+00  0.89407746982E+03  0.11059225302E+04  0.65091483371E+03 0.  0.
         13    1    3    3    0    0  0.24087915736E+02 -0.29628284393E+03  0.67217615856E+03  0.73497247529E+03  0.00000000000E+00 0. -1.
          4    1    3    3  501    0 -0.24087915736E+02  0.29628284393E+03  0.22190131126E+03  0.37095005490E+03  0.00000000000E+00 0. -1.
<mgrwt>
<rscale>  0 0.65091483E+03</rscale>
<asrwt>0</asrwt>
<pdfrwt beam="1">0</pdfrwt>
<pdfrwt beam="2">  1        2 0.38517365E+00 0.65091483E+03</pdfrwt>
<totfact> 0.45230316E+00</totfact>
</mgrwt>
</event>
<event>
 5    1  0.2311484E-004  0.6081271E+03  0.7818608E-02  0.9888687E-01
         13   -1    0    0    0    0  0.00000000000E+00  0.00000000000E+00  0.10000000000E+04  0.10000000000E+04  0.00000000000E+00 0. -1.
          2   -1    0    0  501    0 -0.00000000000E+00 -0.00000000000E+00 -0.92454637454E+02  0.92454637454E+02  0.00000000000E+00 0. -1.
    9000006    2    1    2  501    0  0.00000000000E+00  0.00000000000E+00  0.90754536255E+03  0.10924546375E+04  0.60812708361E+03 0.  0.
         13    1    3    3    0    0 -0.20341424831E+03  0.22221752672E+03  0.37977715984E+03  0.48475630655E+03  0.00000000000E+00 0. -1.
          4    1    3    3  501    0  0.20341424831E+03 -0.22221752672E+03  0.52776820271E+03  0.60769833091E+03  0.00000000000E+00 0. -1.
<mgrwt>
<rscale>  0 0.60812708E+03</rscale>
<asrwt>0</asrwt>
<pdfrwt beam="1">0</pdfrwt>
<pdfrwt beam="2">  1        2 0.33619939E+00 0.60812708E+03</pdfrwt>
<totfact> 0.68421883E+00</totfact>
</mgrwt>
</event>
<event>
 5    1  0.2311484E-004  0.6229642E+03  0.7818608E-02  0.9858876E-01
         13   -1    0    0    0    0  0.00000000000E+00  0.00000000000E+00  0.10000000000E+04  0.10000000000E+04  0.00000000000E+00 0. -1.
          2   -1    0    0  501    0 -0.00000000000E+00 -0.00000000000E+00 -0.97021096948E+02  0.97021096948E+02  0.00000000000E+00 0. -1.
    9000006    2    1    2  501    0  0.00000000000E+00  0.00000000000E+00  0.90297890305E+03  0.10970210969E+04  0.62296419463E+03 0.  0.
         13    1    3    3    0    0  0.10253895419E+03 -0.20159227931E+03  0.82863068349E+03  0.85894266038E+03  0.00000000000E+00 0. -1.
          4    1    3    3  501    0 -0.10253895419E+03  0.20159227931E+03  0.74348219562E+02  0.23807843656E+03  0.00000000000E+00 0. -1.
<mgrwt>
<rscale>  0 0.62296419E+03</rscale>
<asrwt>0</asrwt>
<pdfrwt beam="1">0</pdfrwt>
<pdfrwt beam="2">  1        2 0.35280473E+00 0.62296419E+03</pdfrwt>
<totfact> 0.59546769E+00</totfact>
</mgrwt>
</event>
<event>
 5    1  0.2311484E-004  0.6485850E+03  0.7818608E-02  0.9809438E-01
         13   -1    0    0    0    0  0.00000000000E+00  0.00000000000E+00  0.10000000000E+04  0.10000000000E+04  0.00000000000E+00 0. -1.
          2   -1    0    0  501    0 -0.00000000000E+00 -0.00000000000E+00 -0.10516561825E+03  0.10516561825E+03  0.00000000000E+00 0. -1.
    9000006    2    1    2  501    0  0.00000000000E+00  0.00000000000E+00  0.89483438175E+03  0.11051656182E+04  0.64858497746E+03 0.  0.
         13    1    3    3    0    0 -0.15656318764E+03 -0.65085862748E+02  0.91845596401E+03  0.93397513836E+03  0.00000000000E+00 0. -1.
          2    1    3    3  501    0  0.15656318764E+03  0.65085862748E+02 -0.23621582258E+02  0.17119047988E+03  0.00000000000E+00 0. -1.
<mgrwt>
<rscale>  0 0.64858498E+03</rscale>
<asrwt>0</asrwt>
<pdfrwt beam="1">0</pdfrwt>
<pdfrwt beam="2">  1        2 0.38242124E+00 0.64858498E+03</pdfrwt>
<totfact> 0.46312073E+00</totfact>
</mgrwt>
</event>
<event>
 5    1  0.2311484E-004  0.6503911E+03  0.7818608E-02  0.9806046E-01
         13   -1    0    0    0    0  0.00000000000E+00  0.00000000000E+00  0.10000000000E+04  0.10000000000E+04  0.00000000000E+00 0. -1.
          2   -1    0    0  501    0 -0.00000000000E+00 -0.00000000000E+00 -0.10575214753E+03  0.10575214753E+03  0.00000000000E+00 0. -1.
    9000006    2    1    2  501    0  0.00000000000E+00  0.00000000000E+00  0.89424785247E+03  0.11057521475E+04  0.65039110551E+03 0.  0.
         13    1    3    3    0    0 -0.28697687986E+03  0.14759248884E+03  0.37884548781E+03  0.49765768955E+03  0.00000000000E+00 0. -1.
          4    1    3    3  501    0  0.28697687986E+03 -0.14759248884E+03  0.51540236465E+03  0.60809445798E+03  0.00000000000E+00 0. -1.
<mgrwt>
<rscale>  0 0.65039111E+03</rscale>
<asrwt>0</asrwt>
<pdfrwt beam="1">0</pdfrwt>
<pdfrwt beam="2">  1        2 0.38455407E+00 0.65039111E+03</pdfrwt>
<totfact> 0.45471803E+00</totfact>
</mgrwt>
</event>
<event>
 5    1  0.2311484E-004  0.6442681E+03  0.7818608E-02  0.9817595E-01
         13   -1    0    0    0    0  0.00000000000E+00  0.00000000000E+00  0.10000000000E+04  0.10000000000E+04  0.00000000000E+00 0. -1.
          2   -1    0    0  501    0 -0.00000000000E+00 -0.00000000000E+00 -0.10377034206E+03  0.10377034206E+03  0.00000000000E+00 0. -1.
    9000006    2    1    2  501    0  0.00000000000E+00  0.00000000000E+00  0.89622965794E+03  0.11037703421E+04  0.64426808724E+03 0.  0.
         13    1    3    3    0    0 -0.17692096641E+03  0.16477736291E+03  0.81282358953E+03  0.84801815746E+03  0.00000000000E+00 0. -1.
          2    1    3    3  501    0  0.17692096641E+03 -0.16477736291E+03  0.83406068408E+02  0.25575218460E+03  0.00000000000E+00 0. -1.
<mgrwt>
<rscale>  0 0.64426809E+03</rscale>
<asrwt>0</asrwt>
<pdfrwt beam="1">0</pdfrwt>
<pdfrwt beam="2">  1        2 0.37734749E+00 0.64426809E+03</pdfrwt>
<totfact> 0.48367993E+00</totfact>
</mgrwt>
</event>
<event>
 5    1  0.2311484E-004  0.6468666E+03  0.7818608E-02  0.9812677E-01
         13   -1    0    0    0    0  0.00000000000E+00  0.00000000000E+00  0.10000000000E+04  0.10000000000E+04  0.00000000000E+00 0. -1.
          2   -1    0    0  501    0 -0.00000000000E+00 -0.00000000000E+00 -0.10460910711E+03  0.10460910711E+03  0.00000000000E+00 0. -1.
    9000006    2    1    2  501    0  0.00000000000E+00  0.00000000000E+00  0.89539089289E+03  0.11046091071E+04  0.64686662337E+03 0.  0.
         13    1    3    3    0    0 -0.27502666347E+03 -0.20469432326E+02  0.15915924621E+03  0.31841848083E+03  0.00000000000E+00 0. -1.
          2    1    3    3  501    0  0.27502666347E+03  0.20469432326E+02  0.73623164668E+03  0.78619062628E+03  0.00000000000E+00 0. -1.
<mgrwt>
<rscale>  0 0.64686662E+03</rscale>
<asrwt>0</asrwt>
<pdfrwt beam="1">0</pdfrwt>
<pdfrwt beam="2">  1        2 0.38039756E+00 0.64686662E+03</pdfrwt>
<totfact> 0.47122354E+00</totfact>
</mgrwt>
</event>
<event>
 5    1  0.2311484E-004  0.6426751E+03  0.7818608E-02  0.9820622E-01
         13   -1    0    0    0    0  0.00000000000E+00  0.00000000000E+00  0.10000000000E+04  0.10000000000E+04  0.00000000000E+00 0. -1.
          2   -1    0    0  501    0 -0.00000000000E+00 -0.00000000000E+00 -0.10325783396E+03  0.10325783396E+03  0.00000000000E+00 0. -1.
    9000006    2    1    2  501    0  0.00000000000E+00  0.00000000000E+00  0.89674216604E+03  0.11032578340E+04  0.64267514022E+03 0.  0.
         13    1    3    3    0    0  0.95287179598E+02  0.29875618240E+03  0.32792369497E+03  0.45372772985E+03  0.00000000000E+00 0. -1.
          2    1    3    3  501    0 -0.95287179598E+02 -0.29875618240E+03  0.56881847107E+03  0.64953010411E+03  0.00000000000E+00 0. -1.
<mgrwt>
<rscale>  0 0.64267514E+03</rscale>
<asrwt>0</asrwt>
<pdfrwt beam="1">0</pdfrwt>
<pdfrwt beam="2">  1        2 0.37548382E+00 0.64267514E+03</pdfrwt>
<totfact> 0.49143813E+00</totfact>
</mgrwt>
</event>
<event>
 5    1  0.2311484E-004  0.6444743E+03  0.7818608E-02  0.9817203E-01
         13   -1    0    0    0    0  0.00000000000E+00  0.00000000000E+00  0.10000000000E+04  0.10000000000E+04  0.00000000000E+00 0. -1.
          2   -1    0    0  501    0 -0.00000000000E+00 -0.00000000000E+00 -0.10383678529E+03  0.10383678529E+03  0.00000000000E+00 0. -1.
    9000006    2    1    2  501    0  0.00000000000E+00  0.00000000000E+00  0.89616321471E+03  0.11038367853E+04  0.64447431381E+03 0.  0.
         13    1    3    3    0    0 -0.82004921380E+02  0.27122980518E+03  0.18525989486E+03  0.33854341375E+03  0.00000000000E+00 0. -1.
          2    1    3    3  501    0  0.82004921380E+02 -0.27122980518E+03  0.71090331985E+03  0.76529337154E+03  0.00000000000E+00 0. -1.
<mgrwt>
<rscale>  0 0.64447431E+03</rscale>
<asrwt>0</asrwt>
<pdfrwt beam="1">0</pdfrwt>
<pdfrwt beam="2">  1        2 0.37758911E+00 0.64447431E+03</pdfrwt>
<totfact> 0.48268236E+00</totfact>
</mgrwt>
</event>
<event>
 5    1  0.2311484E-004  0.6525967E+03  0.7818608E-02  0.9801919E-01
         13   -1    0    0    0    0  0.00000000000E+00  0.00000000000E+00  0.10000000000E+04  0.10000000000E+04  0.00000000000E+00 0. -1.
          2   -1    0    0  501    0 -0.00000000000E+00 -0.00000000000E+00 -0.10647061423E+03  0.10647061423E+03  0.00000000000E+00 0. -1.
    9000006    2    1    2  501    0  0.00000000000E+00  0.00000000000E+00  0.89352938577E+03  0.11064706142E+04  0.65259670312E+03 0.  0.
         13    1    3    3    0    0 -0.24168349395E+03  0.21918621433E+02  0.81659621778E+03  0.85189243458E+03  0.00000000000E+00 0. -1.
          2    1    3    3  501    0  0.24168349395E+03 -0.21918621433E+02  0.76933167992E+02  0.25457817965E+03  0.00000000000E+00 0. -1.
<mgrwt>
<rscale>  0 0.65259670E+03</rscale>
<asrwt>0</asrwt>
<pdfrwt beam="1">0</pdfrwt>
<pdfrwt beam="2">  1        2 0.38716669E+00 0.65259670E+03</pdfrwt>
<totfact> 0.44461369E+00</totfact>
</mgrwt>
</event>
<event>
 5    1  0.2311484E-004  0.6446188E+03  0.7818608E-02  0.9816929E-01
         13   -1    0    0    0    0  0.00000000000E+00  0.00000000000E+00  0.10000000000E+04  0.10000000000E+04  0.00000000000E+00 0. -1.
          2   -1    0    0  501    0 -0.00000000000E+00 -0.00000000000E+00 -0.10388334673E+03  0.10388334673E+03  0.00000000000E+00 0. -1.
    9000006    2    1    2  501    0  0.00000000000E+00  0.00000000000E+00  0.89611665327E+03  0.11038833467E+04  0.64461879194E+03 0.  0.
         13    1    3    3    0    0  0.10363029903E+03 -0.30373238640E+03  0.49916728042E+03  0.59343118832E+03  0.00000000000E+00 0. -1.
          4    1    3    3  501    0 -0.10363029903E+03  0.30373238640E+03  0.39694937284E+03  0.51045215841E+03  0.00000000000E+00 0. -1.
<mgrwt>
<rscale>  0 0.64461879E+03</rscale>
<asrwt>0</asrwt>
<pdfrwt beam="1">0</pdfrwt>
<pdfrwt beam="2">  1        2 0.37775842E+00 0.64461879E+03</pdfrwt>
<totfact> 0.48198441E+00</totfact>
</mgrwt>
</event>
<event>
 5    1  0.2311484E-004  0.6605599E+03  0.7818608E-02  0.9787164E-01
         13   -1    0    0    0    0  0.00000000000E+00  0.00000000000E+00  0.10000000000E+04  0.10000000000E+04  0.00000000000E+00 0. -1.
          2   -1    0    0  501    0 -0.00000000000E+00 -0.00000000000E+00 -0.10908483934E+03  0.10908483934E+03  0.00000000000E+00 0. -1.
    9000006    2    1    2  501    0  0.00000000000E+00  0.00000000000E+00  0.89091516066E+03  0.11090848393E+04  0.66055988173E+03 0.  0.
         13    1    3    3    0    0 -0.16061960491E+03 -0.13616674184E+03  0.87268097116E+03  0.89772608099E+03  0.00000000000E+00 0. -1.
          4    1    3    3  501    0  0.16061960491E+03  0.13616674184E+03  0.18234189506E+02  0.21135875835E+03  0.00000000000E+00 0. -1.
<mgrwt>
<rscale>  0 0.66055988E+03</rscale>
<asrwt>0</asrwt>
<pdfrwt beam="1">0</pdfrwt>
<pdfrwt beam="2">  1        2 0.39667298E+00 0.66055988E+03</pdfrwt>
<totfact> 0.40953845E+00</totfact>
</mgrwt>
</event>
<event>
 5    1  0.2311484E-004  0.6706020E+03  0.7818608E-02  0.9768871E-01
         13   -1    0    0    0    0  0.00000000000E+00  0.00000000000E+00  0.10000000000E+04  0.10000000000E+04  0.00000000000E+00 0. -1.
          2   -1    0    0  501    0 -0.00000000000E+00 -0.00000000000E+00 -0.11242677030E+03  0.11242677030E+03  0.00000000000E+00 0. -1.
    9000006    2    1    2  501    0  0.00000000000E+00  0.00000000000E+00  0.88757322970E+03  0.11124267703E+04  0.67060202892E+03 0.  0.
         13    1    3    3    0    0 -0.29628616986E+00 -0.30848708380E+03  0.22583646248E+03  0.38231724581E+03  0.00000000000E+00 0. -1.
          2    1    3    3  501    0  0.29628616986E+00  0.30848708380E+03  0.66173676722E+03  0.73010952449E+03  0.00000000000E+00 0. -1.
<mgrwt>
<rscale>  0 0.67060203E+03</rscale>
<asrwt>0</asrwt>
<pdfrwt beam="1">0</pdfrwt>
<pdfrwt beam="2">  1        2 0.40882548E+00 0.67060203E+03</pdfrwt>
<totfact> 0.36833337E+00</totfact>
</mgrwt>
</event>
<event>
 5    1  0.2311484E-004  0.6461670E+03  0.7818608E-02  0.9813998E-01
         13   -1    0    0    0    0  0.00000000000E+00  0.00000000000E+00  0.10000000000E+04  0.10000000000E+04  0.00000000000E+00 0. -1.
          4   -1    0    0  501    0 -0.00000000000E+00 -0.00000000000E+00 -0.10438294696E+03  0.10438294696E+03  0.00000000000E+00 0. -1.
    9000006    2    1    2  501    0  0.00000000000E+00  0.00000000000E+00  0.89561705304E+03  0.11043829470E+04  0.64616699688E+03 0.  0.
         13    1    3    3    0    0  0.12498742302E+03  0.30584367106E+02 -0.58698761354E+02  0.14143126956E+03  0.00000000000E+00 0. -1.
          2    1    3    3  501    0 -0.12498742302E+03 -0.30584367106E+02  0.95431581439E+03  0.96295167741E+03  0.00000000000E+00 0. -1.
<mgrwt>
<rscale>  0 0.64616700E+03</rscale>
<asrwt>0</asrwt>
<pdfrwt beam="1">0</pdfrwt>
<pdfrwt beam="2">  1        4 0.37957515E+00 0.64616700E+03</pdfrwt>
<totfact> 0.44163104E-02</totfact>
</mgrwt>
</event>
<event>
 5    1  0.2311484E-004  0.6465595E+03  0.7818608E-02  0.9813256E-01
         13   -1    0    0    0    0  0.00000000000E+00  0.00000000000E+00  0.10000000000E+04  0.10000000000E+04  0.00000000000E+00 0. -1.
          2   -1    0    0  501    0 -0.00000000000E+00 -0.00000000000E+00 -0.10450980432E+03  0.10450980432E+03  0.00000000000E+00 0. -1.
    9000006    2    1    2  501    0  0.00000000000E+00  0.00000000000E+00  0.89549019568E+03  0.11045098043E+04  0.64655952340E+03 0.  0.
         13    1    3    3    0    0  0.31893449065E+03 -0.52722708844E+02  0.45338787218E+03  0.55682982678E+03  0.00000000000E+00 0. -1.
          4    1    3    3  501    0 -0.31893449065E+03  0.52722708844E+02  0.44210232350E+03  0.54767997754E+03  0.00000000000E+00 0. -1.
<mgrwt>
<rscale>  0 0.64655952E+03</rscale>
<asrwt>0</asrwt>
<pdfrwt beam="1">0</pdfrwt>
<pdfrwt beam="2">  1        2 0.38003645E+00 0.64655952E+03</pdfrwt>
<totfact> 0.47268288E+00</totfact>
</mgrwt>
</event>
<event>
 5    1  0.2311484E-004  0.6431463E+03  0.7818608E-02  0.9819725E-01
         13   -1    0    0    0    0  0.00000000000E+00  0.00000000000E+00  0.10000000000E+04  0.10000000000E+04  0.00000000000E+00 0. -1.
          2   -1    0    0  501    0 -0.00000000000E+00 -0.00000000000E+00 -0.10340929266E+03  0.10340929266E+03  0.00000000000E+00 0. -1.
    9000006    2    1    2  501    0  0.00000000000E+00  0.00000000000E+00  0.89659070734E+03  0.11034092927E+04  0.64314630580E+03 0.  0.
         13    1    3    3    0    0  0.28950856963E+03 -0.11232599252E+03  0.30499088574E+03  0.43526058961E+03  0.00000000000E+00 0. -1.
          2    1    3    3  501    0 -0.28950856963E+03  0.11232599252E+03  0.59159982159E+03  0.66814870305E+03  0.00000000000E+00 0. -1.
<mgrwt>
<rscale>  0 0.64314631E+03</rscale>
<asrwt>0</asrwt>
<pdfrwt beam="1">0</pdfrwt>
<pdfrwt beam="2">  1        2 0.37603458E+00 0.64314631E+03</pdfrwt>
<totfact> 0.48913365E+00</totfact>
</mgrwt>
</event>
<event>
 5    1  0.2311484E-004  0.6510823E+03  0.7818608E-02  0.9804750E-01
         13   -1    0    0    0    0  0.00000000000E+00  0.00000000000E+00  0.10000000000E+04  0.10000000000E+04  0.00000000000E+00 0. -1.
          2   -1    0    0  501    0 -0.00000000000E+00 -0.00000000000E+00 -0.10597703214E+03  0.10597703214E+03  0.00000000000E+00 0. -1.
    9000006    2    1    2  501    0  0.00000000000E+00  0.00000000000E+00  0.89402296786E+03  0.11059770321E+04  0.65108227479E+03 0.  0.
         13    1    3    3    0    0 -0.16346272440E+03 -0.26268551889E+03  0.61901677826E+03  0.69202999637E+03  0.00000000000E+00 0. -1.
          4    1    3    3  501    0  0.16346272440E+03  0.26268551889E+03  0.27500618960E+03  0.41394703577E+03  0.00000000000E+00 0. -1.
<mgrwt>
<rscale>  0 0.65108227E+03</rscale>
<asrwt>0</asrwt>
<pdfrwt beam="1">0</pdfrwt>
<pdfrwt beam="2">  1        2 0.38537184E+00 0.65108227E+03</pdfrwt>
<totfact> 0.45153316E+00</totfact>
</mgrwt>
</event>
<event>
 5    1  0.2311484E-004  0.6552940E+03  0.7818608E-02  0.9796896E-01
         13   -1    0    0    0    0  0.00000000000E+00  0.00000000000E+00  0.10000000000E+04  0.10000000000E+04  0.00000000000E+00 0. -1.
          2   -1    0    0  501    0 -0.00000000000E+00 -0.00000000000E+00 -0.10735254803E+03  0.10735254803E+03  0.00000000000E+00 0. -1.
    9000006    2    1    2  501    0  0.00000000000E+00  0.00000000000E+00  0.89264745197E+03  0.11073525480E+04  0.65529397383E+03 0.  0.
         13    1    3    3    0    0 -0.14770275688E+03  0.28119916172E+03  0.31046648991E+03  0.44416046008E+03  0.00000000000E+00 0. -1.
          4    1    3    3  501    0  0.14770275688E+03 -0.28119916172E+03  0.58218096206E+03  0.66319208795E+03  0.00000000000E+00 0. -1.
<mgrwt>
<rscale>  0 0.65529397E+03</rscale>
<asrwt>0</asrwt>
<pdfrwt beam="1">0</pdfrwt>
<pdfrwt beam="2">  1        2 0.39037373E+00 0.65529397E+03</pdfrwt>
<totfact> 0.43248850E+00</totfact>
</mgrwt>
</event>
<event>
 5    1  0.2311484E-004  0.6538402E+03  0.7818608E-02  0.9799600E-01
         13   -1    0    0    0    0  0.00000000000E+00  0.00000000000E+00  0.10000000000E+04  0.10000000000E+04  0.00000000000E+00 0. -1.
          2   -1    0    0  501    0 -0.00000000000E+00 -0.00000000000E+00 -0.10687673915E+03  0.10687673915E+03  0.00000000000E+00 0. -1.
    9000006    2    1    2  501    0  0.00000000000E+00  0.00000000000E+00  0.89312326085E+03  0.11068767392E+04  0.65384016137E+03 0.  0.
         13    1    3    3    0    0 -0.29202708808E+03 -0.57379783834E+02  0.21752425497E+03  0.36863133517E+03  0.00000000000E+00 0. -1.
          2    1    3    3  501    0  0.29202708808E+03  0.57379783834E+02  0.67559900587E+03  0.73824540399E+03  0.00000000000E+00 0. -1.
<mgrwt>
<rscale>  0 0.65384016E+03</rscale>
<asrwt>0</asrwt>
<pdfrwt beam="1">0</pdfrwt>
<pdfrwt beam="2">  1        2 0.38864351E+00 0.65384016E+03</pdfrwt>
<totfact> 0.43899244E+00</totfact>
</mgrwt>
</event>
<event>
 5    1  0.2311484E-004  0.6342393E+03  0.7818608E-02  0.9836811E-01
         13   -1    0    0    0    0  0.00000000000E+00  0.00000000000E+00  0.10000000000E+04  0.10000000000E+04  0.00000000000E+00 0. -1.
          2   -1    0    0  501    0 -0.00000000000E+00 -0.00000000000E+00 -0.10056485746E+03  0.10056485746E+03  0.00000000000E+00 0. -1.
    9000006    2    1    2  501    0  0.00000000000E+00  0.00000000000E+00  0.89943514254E+03  0.11005648575E+04  0.63423925282E+03 0.  0.
         13    1    3    3    0    0  0.23839959523E+01  0.92097999114E+02  0.97626611667E+03  0.98060351592E+03  0.00000000000E+00 0. -1.
          4    1    3    3  501    0 -0.23839959523E+01 -0.92097999114E+02 -0.76830974126E+02  0.11996134153E+03  0.00000000000E+00 0. -1.
<mgrwt>
<rscale>  0 0.63423925E+03</rscale>
<asrwt>0</asrwt>
<pdfrwt beam="1">0</pdfrwt>
<pdfrwt beam="2">  1        2 0.36569116E+00 0.63423925E+03</pdfrwt>
<totfact> 0.53411103E+00</totfact>
</mgrwt>
</event>
<event>
 5    1  0.2311484E-004  0.6726803E+03  0.7818608E-02  0.9765128E-01
         13   -1    0    0    0    0  0.00000000000E+00  0.00000000000E+00  0.10000000000E+04  0.10000000000E+04  0.00000000000E+00 0. -1.
          2   -1    0    0  501    0 -0.00000000000E+00 -0.00000000000E+00 -0.11312470904E+03  0.11312470904E+03  0.00000000000E+00 0. -1.
    9000006    2    1    2  501    0  0.00000000000E+00  0.00000000000E+00  0.88687529096E+03  0.11131247090E+04  0.67268033728E+03 0.  0.
         13    1    3    3    0    0  0.19705927867E+03 -0.23578940368E+03  0.66969673481E+03  0.73683289748E+03  0.00000000000E+00 0. -1.
          2    1    3    3  501    0 -0.19705927867E+03  0.23578940368E+03  0.21717855615E+03  0.37629181156E+03  0.00000000000E+00 0. -1.
<mgrwt>
<rscale>  0 0.67268034E+03</rscale>
<asrwt>0</asrwt>
<pdfrwt beam="1">0</pdfrwt>
<pdfrwt beam="2">  1        2 0.41136345E+00 0.67268034E+03</pdfrwt>
<totfact> 0.36021174E+00</totfact>
</mgrwt>
</event>
<event>
 5    1  0.2311484E-004  0.6633873E+03  0.7818608E-02  0.9781978E-01
         13   -1    0    0    0    0  0.00000000000E+00  0.00000000000E+00  0.10000000000E+04  0.10000000000E+04  0.00000000000E+00 0. -1.
          2   -1    0    0  501    0 -0.00000000000E+00 -0.00000000000E+00 -0.11002067609E+03  0.11002067609E+03  0.00000000000E+00 0. -1.
    9000006    2    1    2  501    0  0.00000000000E+00  0.00000000000E+00  0.88997932391E+03  0.11100206761E+04  0.66338729591E+03 0.  0.
         13    1    3    3    0    0  0.31584767680E+03  0.75415481002E+01  0.61401434346E+03  0.69052895947E+03  0.00000000000E+00 0. -1.
          4    1    3    3  501    0 -0.31584767680E+03 -0.75415481002E+01  0.27596498045E+03  0.41949171663E+03  0.00000000000E+00 0. -1.
<mgrwt>
<rscale>  0 0.66338730E+03</rscale>
<asrwt>0</asrwt>
<pdfrwt beam="1">0</pdfrwt>
<pdfrwt beam="2">  1        2 0.40007603E+00 0.66338730E+03</pdfrwt>
<totfact> 0.39760246E+00</totfact>
</mgrwt>
</event>
<event>
 5    1  0.2311484E-004  0.6493996E+03  0.7818608E-02  0.9807906E-01
         13   -1    0    0    0    0  0.00000000000E+00  0.00000000000E+00  0.10000000000E+04  0.10000000000E+04  0.00000000000E+00 0. -1.
          2   -1    0    0  501    0 -0.00000000000E+00 -0.00000000000E+00 -0.10542997126E+03  0.10542997126E+03  0.00000000000E+00 0. -1.
    9000006    2    1    2  501    0  0.00000000000E+00  0.00000000000E+00  0.89457002874E+03  0.11054299713E+04  0.64939963432E+03 0.  0.
         13    1    3    3    0    0  0.20148887077E+03  0.18823425039E+03  0.73915766452E+03  0.78891314547E+03  0.00000000000E+00 0. -1.
          2    1    3    3  501    0 -0.20148887077E+03 -0.18823425039E+03  0.15541236421E+03  0.31651682580E+03  0.00000000000E+00 0. -1.
<mgrwt>
<rscale>  0 0.64939963E+03</rscale>
<asrwt>0</asrwt>
<pdfrwt beam="1">0</pdfrwt>
<pdfrwt beam="2">  1        2 0.38338252E+00 0.64939963E+03</pdfrwt>
<totfact> 0.45931628E+00</totfact>
</mgrwt>
</event>
<event>
 5    1  0.2311484E-004  0.6453196E+03  0.7818608E-02  0.9815601E-01
         13   -1    0    0    0    0  0.00000000000E+00  0.00000000000E+00  0.10000000000E+04  0.10000000000E+04  0.00000000000E+00 0. -1.
          2   -1    0    0  501    0 -0.00000000000E+00 -0.00000000000E+00 -0.10410935620E+03  0.10410935620E+03  0.00000000000E+00 0. -1.
    9000006    2    1    2  501    0  0.00000000000E+00  0.00000000000E+00  0.89589064380E+03  0.11041093562E+04  0.64531962996E+03 0.  0.
         13    1    3    3    0    0  0.28545073804E+03 -0.14781813536E+03  0.49563852022E+03  0.59075364384E+03  0.00000000000E+00 0. -1.
          2    1    3    3  501    0 -0.28545073804E+03  0.14781813536E+03  0.40025212358E+03  0.51335571236E+03  0.00000000000E+00 0. -1.
<mgrwt>
<rscale>  0 0.64531963E+03</rscale>
<asrwt>0</asrwt>
<pdfrwt beam="1">0</pdfrwt>
<pdfrwt beam="2">  1        2 0.37858028E+00 0.64531963E+03</pdfrwt>
<totfact> 0.47860961E+00</totfact>
</mgrwt>
</event>
<event>
 5    1  0.2311484E-004  0.6543251E+03  0.7818608E-02  0.9798697E-01
         13   -1    0    0    0    0  0.00000000000E+00  0.00000000000E+00  0.10000000000E+04  0.10000000000E+04  0.00000000000E+00 0. -1.
          2   -1    0    0  501    0 -0.00000000000E+00 -0.00000000000E+00 -0.10703531813E+03  0.10703531813E+03  0.00000000000E+00 0. -1.
    9000006    2    1    2  501    0  0.00000000000E+00  0.00000000000E+00  0.89296468187E+03  0.11070353181E+04  0.65432505113E+03 0.  0.
         13    1    3    3    0    0 -0.10653890255E+03  0.24463905696E+03  0.76676306104E+03  0.81186476566E+03  0.00000000000E+00 0. -1.
          4    1    3    3  501    0  0.10653890255E+03 -0.24463905696E+03  0.12620162083E+03  0.29517055247E+03  0.00000000000E+00 0. -1.
<mgrwt>
<rscale>  0 0.65432505E+03</rscale>
<asrwt>0</asrwt>
<pdfrwt beam="1">0</pdfrwt>
<pdfrwt beam="2">  1        2 0.38922016E+00 0.65432505E+03</pdfrwt>
<totfact> 0.43681503E+00</totfact>
</mgrwt>
</event>
<event>
 5    1  0.2311484E-004  0.6504762E+03  0.7818608E-02  0.9805886E-01
         13   -1    0    0    0    0  0.00000000000E+00  0.00000000000E+00  0.10000000000E+04  0.10000000000E+04  0.00000000000E+00 0. -1.
          2   -1    0    0  501    0 -0.00000000000E+00 -0.00000000000E+00 -0.10577981989E+03  0.10577981989E+03  0.00000000000E+00 0. -1.
    9000006    2    1    2  501    0  0.00000000000E+00  0.00000000000E+00  0.89422018011E+03  0.11057798199E+04  0.65047619445E+03 0.  0.
         13    1    3    3    0    0 -0.17580515918E+03  0.15375093478E+02 -0.17310376440E+02  0.17732314183E+03  0.00000000000E+00 0. -1.
          4    1    3    3  501    0  0.17580515918E+03 -0.15375093478E+02  0.91153055655E+03  0.92845667806E+03  0.00000000000E+00 0. -1.
<mgrwt>
<rscale>  0 0.65047619E+03</rscale>
<asrwt>0</asrwt>
<pdfrwt beam="1">0</pdfrwt>
<pdfrwt beam="2">  1        2 0.38465470E+00 0.65047619E+03</pdfrwt>
<totfact> 0.45432503E+00</totfact>
</mgrwt>
</event>
<event>
 5    1  0.2311484E-004  0.6385065E+03  0.7818608E-02  0.9828588E-01
         13   -1    0    0    0    0  0.00000000000E+00  0.00000000000E+00  0.10000000000E+04  0.10000000000E+04  0.00000000000E+00 0. -1.
          2   -1    0    0  501    0 -0.00000000000E+00 -0.00000000000E+00 -0.10192263603E+03  0.10192263603E+03  0.00000000000E+00 0. -1.
    9000006    2    1    2  501    0  0.00000000000E+00  0.00000000000E+00  0.89807736397E+03  0.11019226360E+04  0.63850649498E+03 0.  0.
         13    1    3    3    0    0 -0.12988502091E+03 -0.14526723998E+03  0.88545992058E+03  0.90664875262E+03  0.00000000000E+00 0. -1.
          2    1    3    3  501    0  0.12988502091E+03  0.14526723998E+03  0.12617443384E+02  0.19527388342E+03  0.00000000000E+00 0. -1.
<mgrwt>
<rscale>  0 0.63850649E+03</rscale>
<asrwt>0</asrwt>
<pdfrwt beam="1">0</pdfrwt>
<pdfrwt beam="2">  1        2 0.37062855E+00 0.63850649E+03</pdfrwt>
<totfact> 0.51218885E+00</totfact>
</mgrwt>
</event>
<event>
 5    1  0.2311484E-004  0.6582274E+03  0.7818608E-02  0.9791462E-01
         13   -1    0    0    0    0  0.00000000000E+00  0.00000000000E+00  0.10000000000E+04  0.10000000000E+04  0.00000000000E+00 0. -1.
          2   -1    0    0  501    0 -0.00000000000E+00 -0.00000000000E+00 -0.10831581890E+03  0.10831581890E+03  0.00000000000E+00 0. -1.
    9000006    2    1    2  501    0  0.00000000000E+00  0.00000000000E+00  0.89168418110E+03  0.11083158189E+04  0.65822737379E+03 0.  0.
         13    1    3    3    0    0  0.19782830020E+03  0.85174928110E+02  0.26835697020E+02  0.21705059174E+03  0.00000000000E+00 0. -1.
          4    1    3    3  501    0 -0.19782830020E+03 -0.85174928110E+02  0.86484848408E+03  0.89126522716E+03  0.00000000000E+00 0. -1.
<mgrwt>
<rscale>  0 0.65822737E+03</rscale>
<asrwt>0</asrwt>
<pdfrwt beam="1">0</pdfrwt>
<pdfrwt beam="2">  1        2 0.39387654E+00 0.65822737E+03</pdfrwt>
<totfact> 0.41958709E+00</totfact>
</mgrwt>
</event>
<event>
 5    1  0.2311484E-004  0.6564628E+03  0.7818608E-02  0.9794727E-01
         13   -1    0    0    0    0  0.00000000000E+00  0.00000000000E+00  0.10000000000E+04  0.10000000000E+04  0.00000000000E+00 0. -1.
          2   -1    0    0  501    0 -0.00000000000E+00 -0.00000000000E+00 -0.10773585192E+03  0.10773585192E+03  0.00000000000E+00 0. -1.
    9000006    2    1    2  501    0  0.00000000000E+00  0.00000000000E+00  0.89226414808E+03  0.11077358519E+04  0.65646279993E+03 0.  0.
         13    1    3    3    0    0  0.92885048569E+02 -0.31481377870E+03  0.44493362425E+03  0.55290259314E+03  0.00000000000E+00 0. -1.
          2    1    3    3  501    0 -0.92885048569E+02  0.31481377870E+03  0.44733052382E+03  0.55483325879E+03  0.00000000000E+00 0. -1.
<mgrwt>
<rscale>  0 0.65646280E+03</rscale>
<asrwt>0</asrwt>
<pdfrwt beam="1">0</pdfrwt>
<pdfrwt beam="2">  1        2 0.39176756E+00 0.65646280E+03</pdfrwt>
<totfact> 0.42731250E+00</totfact>
</mgrwt>
</event>
<event>
 5    1  0.2311484E-004  0.6454959E+03  0.7818608E-02  0.9815268E-01
         13   -1    0    0    0    0  0.00000000000E+00  0.00000000000E+00  0.10000000000E+04  0.10000000000E+04  0.00000000000E+00 0. -1.
          4   -1    0    0  501    0 -0.00000000000E+00 -0.00000000000E+00 -0.10416623716E+03  0.10416623716E+03  0.00000000000E+00 0. -1.
    9000006    2    1    2  501    0  0.00000000000E+00  0.00000000000E+00  0.89583376284E+03  0.11041662372E+04  0.64549589360E+03 0.  0.
         13    1    3    3    0    0 -0.16184579740E+03 -0.27544138983E+03  0.52638371316E+03  0.61574494302E+03  0.00000000000E+00 0. -1.
          4    1    3    3  501    0  0.16184579740E+03  0.27544138983E+03  0.36945004968E+03  0.48842129415E+03  0.00000000000E+00 0. -1.
<mgrwt>
<rscale>  0 0.64549589E+03</rscale>
<asrwt>0</asrwt>
<pdfrwt beam="1">0</pdfrwt>
<pdfrwt beam="2">  1        4 0.37878712E+00 0.64549589E+03</pdfrwt>
<totfact> 0.44704522E-02</totfact>
</mgrwt>
</event>
<event>
 5    1  0.2311484E-004  0.5100855E+03  0.7818608E-02  0.1011179E+00
         13   -1    0    0    0    0  0.00000000000E+00  0.00000000000E+00  0.10000000000E+04  0.10000000000E+04  0.00000000000E+00 0. -1.
          2   -1    0    0  501    0 -0.00000000000E+00 -0.00000000000E+00 -0.65046791879E+02  0.65046791879E+02  0.00000000000E+00 0. -1.
    9000006    2    1    2  501    0  0.00000000000E+00  0.00000000000E+00  0.93495320812E+03  0.10650467919E+04  0.51008545119E+03 0.  0.
         13    1    3    3    0    0 -0.23511458062E+03  0.10273832373E+01  0.67382612412E+03  0.71366768673E+03  0.00000000000E+00 0. -1.
          4    1    3    3  501    0  0.23511458062E+03 -0.10273832373E+01  0.26112708400E+03  0.35137910515E+03  0.00000000000E+00 0. -1.
<mgrwt>
<rscale>  0 0.51008545E+03</rscale>
<asrwt>0</asrwt>
<pdfrwt beam="1">0</pdfrwt>
<pdfrwt beam="2">  1        2 0.23653429E+00 0.51008545E+03</pdfrwt>
<totfact> 0.15589550E+01</totfact>
</mgrwt>
</event>
<event>
 5    1  0.2311484E-004  0.6540539E+03  0.7818608E-02  0.9799202E-01
         13   -1    0    0    0    0  0.00000000000E+00  0.00000000000E+00  0.10000000000E+04  0.10000000000E+04  0.00000000000E+00 0. -1.
          2   -1    0    0  501    0 -0.00000000000E+00 -0.00000000000E+00 -0.10694662780E+03  0.10694662780E+03  0.00000000000E+00 0. -1.
    9000006    2    1    2  501    0  0.00000000000E+00  0.00000000000E+00  0.89305337220E+03  0.11069466278E+04  0.65405390543E+03 0.  0.
         13    1    3    3    0    0  0.35923602829E+02 -0.32448703656E+03  0.41422433155E+03  0.52741268375E+03  0.00000000000E+00 0. -1.
          4    1    3    3  501    0 -0.35923602829E+02  0.32448703656E+03  0.47882904065E+03  0.57953394405E+03  0.00000000000E+00 0. -1.
<mgrwt>
<rscale>  0 0.65405391E+03</rscale>
<asrwt>0</asrwt>
<pdfrwt beam="1">0</pdfrwt>
<pdfrwt beam="2">  1        2 0.38889765E+00 0.65405391E+03</pdfrwt>
<totfact> 0.43803161E+00</totfact>
</mgrwt>
</event>
<event>
 5    1  0.2311484E-004  0.6546377E+03  0.7818608E-02  0.9798116E-01
         13   -1    0    0    0    0  0.00000000000E+00  0.00000000000E+00  0.10000000000E+04  0.10000000000E+04  0.00000000000E+00 0. -1.
          2   -1    0    0  501    0 -0.00000000000E+00 -0.00000000000E+00 -0.10713761738E+03  0.10713761738E+03  0.00000000000E+00 0. -1.
    9000006    2    1    2  501    0  0.00000000000E+00  0.00000000000E+00  0.89286238262E+03  0.11071376174E+04  0.65463766276E+03 0.  0.
         13    1    3    3    0    0 -0.11341281145E+03  0.28656277063E+03  0.25995964223E+03  0.40318693295E+03  0.00000000000E+00 0. -1.
          4    1    3    3  501    0  0.11341281145E+03 -0.28656277063E+03  0.63290274039E+03  0.70395068443E+03  0.00000000000E+00 0. -1.
<mgrwt>
<rscale>  0 0.65463766E+03</rscale>
<asrwt>0</asrwt>
<pdfrwt beam="1">0</pdfrwt>
<pdfrwt beam="2">  1        2 0.38959216E+00 0.65463766E+03</pdfrwt>
<totfact> 0.43541557E+00</totfact>
</mgrwt>
</event>
<event>
 5    1  0.2311484E-004  0.6518344E+03  0.7818608E-02  0.9803343E-01
         13   -1    0    0    0    0  0.00000000000E+00  0.00000000000E+00  0.10000000000E+04  0.10000000000E+04  0.00000000000E+00 0. -1.
          2   -1    0    0  501    0 -0.00000000000E+00 -0.00000000000E+00 -0.10622202708E+03  0.10622202708E+03  0.00000000000E+00 0. -1.
    9000006    2    1    2  501    0  0.00000000000E+00  0.00000000000E+00  0.89377797292E+03  0.11062220271E+04  0.65183441786E+03 0.  0.
         13    1    3    3    0    0 -0.39597388415E+01 -0.26042763178E+03  0.11439868952E+03  0.28447370896E+03  0.00000000000E+00 0. -1.
          4    1    3    3  501    0  0.39597388415E+01  0.26042763178E+03  0.77937928340E+03  0.82174831812E+03  0.00000000000E+00 0. -1.
<mgrwt>
<rscale>  0 0.65183442E+03</rscale>
<asrwt>0</asrwt>
<pdfrwt beam="1">0</pdfrwt>
<pdfrwt beam="2">  1        2 0.38626273E+00 0.65183442E+03</pdfrwt>
<totfact> 0.44808650E+00</totfact>
</mgrwt>
</event>
<event>
 5    1  0.2311484E-004  0.6525843E+03  0.7818608E-02  0.9801942E-01
         13   -1    0    0    0    0  0.00000000000E+00  0.00000000000E+00  0.10000000000E+04  0.10000000000E+04  0.00000000000E+00 0. -1.
          2   -1    0    0  501    0 -0.00000000000E+00 -0.00000000000E+00 -0.10646657025E+03  0.10646657025E+03  0.00000000000E+00 0. -1.
    9000006    2    1    2  501    0  0.00000000000E+00  0.00000000000E+00  0.89353342975E+03  0.11064665703E+04  0.65258430950E+03 0.  0.
         13    1    3    3    0    0  0.12456199961E+03  0.10445950590E+03 -0.32914533079E+02  0.16586394005E+03  0.00000000000E+00 0. -1.
          4    1    3    3  501    0 -0.12456199961E+03 -0.10445950590E+03  0.92644796283E+03  0.94060263020E+03  0.00000000000E+00 0. -1.
<mgrwt>
<rscale>  0 0.65258431E+03</rscale>
<asrwt>0</asrwt>
<pdfrwt beam="1">0</pdfrwt>
<pdfrwt beam="2">  1        2 0.38715198E+00 0.65258431E+03</pdfrwt>
<totfact> 0.44466999E+00</totfact>
</mgrwt>
</event>
<event>
 5    1  0.2311484E-004  0.5744209E+03  0.7818608E-02  0.9959943E-01
         13   -1    0    0    0    0  0.00000000000E+00  0.00000000000E+00  0.10000000000E+04  0.10000000000E+04  0.00000000000E+00 0. -1.
          2   -1    0    0  501    0 -0.00000000000E+00 -0.00000000000E+00 -0.82489843160E+02  0.82489843160E+02  0.00000000000E+00 0. -1.
    9000006    2    1    2  501    0  0.00000000000E+00  0.00000000000E+00  0.91751015684E+03  0.10824898432E+04  0.57442090199E+03 0.  0.
         13    1    3    3    0    0  0.25306646927E+03  0.39850481899E+02  0.21406781687E+03  0.33384985996E+03  0.00000000000E+00 0. -1.
          2    1    3    3  501    0 -0.25306646927E+03 -0.39850481899E+02  0.70344233997E+03  0.74863998320E+03  0.00000000000E+00 0. -1.
<mgrwt>
<rscale>  0 0.57442090E+03</rscale>
<asrwt>0</asrwt>
<pdfrwt beam="1">0</pdfrwt>
<pdfrwt beam="2">  1        2 0.29996370E+00 0.57442090E+03</pdfrwt>
<totfact> 0.92355295E+00</totfact>
</mgrwt>
</event>
<event>
 5    1  0.2311484E-004  0.6879676E+03  0.7818608E-02  0.9738033E-01
         13   -1    0    0    0    0  0.00000000000E+00  0.00000000000E+00  0.10000000000E+04  0.10000000000E+04  0.00000000000E+00 0. -1.
          2   -1    0    0  501    0 -0.00000000000E+00 -0.00000000000E+00 -0.11832484476E+03  0.11832484476E+03  0.00000000000E+00 0. -1.
    9000006    2    1    2  501    0  0.00000000000E+00  0.00000000000E+00  0.88167515524E+03  0.11183248448E+04  0.68796757121E+03 0.  0.
         13    1    3    3    0    0 -0.24486340454E+03 -0.24158207989E+03  0.43725526121E+03  0.55633816305E+03  0.00000000000E+00 0. -1.
          2    1    3    3  501    0  0.24486340454E+03  0.24158207989E+03  0.44441989403E+03  0.56198668171E+03  0.00000000000E+00 0. -1.
<mgrwt>
<rscale>  0 0.68796757E+03</rscale>
<asrwt>0</asrwt>
<pdfrwt beam="1">0</pdfrwt>
<pdfrwt beam="2">  1        2 0.43027307E+00 0.68796757E+03</pdfrwt>
<totfact> 0.30454512E+00</totfact>
</mgrwt>
</event>
<event>
 5    1  0.2311484E-004  0.6346535E+03  0.7818608E-02  0.9836010E-01
         13   -1    0    0    0    0  0.00000000000E+00  0.00000000000E+00  0.10000000000E+04  0.10000000000E+04  0.00000000000E+00 0. -1.
          2   -1    0    0  501    0 -0.00000000000E+00 -0.00000000000E+00 -0.10069627268E+03  0.10069627268E+03  0.00000000000E+00 0. -1.
    9000006    2    1    2  501    0  0.00000000000E+00  0.00000000000E+00  0.89930372732E+03  0.11006962727E+04  0.63465352021E+03 0.  0.
         13    1    3    3    0    0  0.91101140698E+02  0.30395720446E+03  0.45419854337E+03  0.55406291771E+03  0.00000000000E+00 0. -1.
          2    1    3    3  501    0 -0.91101140698E+02 -0.30395720446E+03  0.44510518395E+03  0.54663335496E+03  0.00000000000E+00 0. -1.
<mgrwt>
<rscale>  0 0.63465352E+03</rscale>
<asrwt>0</asrwt>
<pdfrwt beam="1">0</pdfrwt>
<pdfrwt beam="2">  1        2 0.36616904E+00 0.63465352E+03</pdfrwt>
<totfact> 0.53195220E+00</totfact>
</mgrwt>
</event>
<event>
 5    1  0.2311484E-004  0.6658346E+03  0.7818608E-02  0.9777512E-01
         13   -1    0    0    0    0  0.00000000000E+00  0.00000000000E+00  0.10000000000E+04  0.10000000000E+04  0.00000000000E+00 0. -1.
          2   -1    0    0  501    0 -0.00000000000E+00 -0.00000000000E+00 -0.11083392021E+03  0.11083392021E+03  0.00000000000E+00 0. -1.
    9000006    2    1    2  501    0  0.00000000000E+00  0.00000000000E+00  0.88916607979E+03  0.11108339202E+04  0.66583457468E+03 0.  0.
         13    1    3    3    0    0  0.19363343295E+03  0.12965898304E+03  0.84124153391E+03  0.87292191896E+03  0.00000000000E+00 0. -1.
          2    1    3    3  501    0 -0.19363343295E+03 -0.12965898304E+03  0.47924545885E+02  0.23791200125E+03  0.00000000000E+00 0. -1.
<mgrwt>
<rscale>  0 0.66583457E+03</rscale>
<asrwt>0</asrwt>
<pdfrwt beam="1">0</pdfrwt>
<pdfrwt beam="2">  1        2 0.40303329E+00 0.66583457E+03</pdfrwt>
<totfact> 0.38748474E+00</totfact>
</mgrwt>
</event>
<event>
 5    1  0.2311484E-004  0.6500207E+03  0.7818608E-02  0.9806740E-01
         13   -1    0    0    0    0  0.00000000000E+00  0.00000000000E+00  0.10000000000E+04  0.10000000000E+04  0.00000000000E+00 0. -1.
          2   -1    0    0  501    0 -0.00000000000E+00 -0.00000000000E+00 -0.10563172277E+03  0.10563172277E+03  0.00000000000E+00 0. -1.
    9000006    2    1    2  501    0  0.00000000000E+00  0.00000000000E+00  0.89436827723E+03  0.11056317228E+04  0.65002068513E+03 0.  0.
         13    1    3    3    0    0 -0.12658900312E+02 -0.15421928205E+03 -0.38956747109E+02  0.15956648413E+03  0.00000000000E+00 0. -1.
          4    1    3    3  501    0  0.12658900312E+02  0.15421928205E+03  0.93332502434E+03  0.94606523864E+03  0.00000000000E+00 0. -1.
<mgrwt>
<rscale>  0 0.65002069E+03</rscale>
<asrwt>0</asrwt>
<pdfrwt beam="1">0</pdfrwt>
<pdfrwt beam="2">  1        2 0.38411617E+00 0.65002069E+03</pdfrwt>
<totfact> 0.45643188E+00</totfact>
</mgrwt>
</event>
<event>
 5    1  0.2311484E-004  0.6485265E+03  0.7818608E-02  0.9809548E-01
         13   -1    0    0    0    0  0.00000000000E+00  0.00000000000E+00  0.10000000000E+04  0.10000000000E+04  0.00000000000E+00 0. -1.
          2   -1    0    0  501    0 -0.00000000000E+00 -0.00000000000E+00 -0.10514665973E+03  0.10514665973E+03  0.00000000000E+00 0. -1.
    9000006    2    1    2  501    0  0.00000000000E+00  0.00000000000E+00  0.89485334027E+03  0.11051466597E+04  0.64852651366E+03 0.  0.
         13    1    3    3    0    0 -0.31108424331E+03 -0.18529073695E+02  0.60012981121E+03  0.67621928641E+03  0.00000000000E+00 0. -1.
          2    1    3    3  501    0  0.31108424331E+03  0.18529073695E+02  0.29472352906E+03  0.42892737332E+03  0.00000000000E+00 0. -1.
<mgrwt>
<rscale>  0 0.64852651E+03</rscale>
<asrwt>0</asrwt>
<pdfrwt beam="1">0</pdfrwt>
<pdfrwt beam="2">  1        2 0.38235230E+00 0.64852651E+03</pdfrwt>
<totfact> 0.46339467E+00</totfact>
</mgrwt>
</event>
<event>
 5    1  0.2311484E-004  0.6452225E+03  0.7818608E-02  0.9815785E-01
         13   -1    0    0    0    0  0.00000000000E+00  0.00000000000E+00  0.10000000000E+04  0.10000000000E+04  0.00000000000E+00 0. -1.
          2   -1    0    0  501    0 -0.00000000000E+00 -0.00000000000E+00 -0.10407801399E+03  0.10407801399E+03  0.00000000000E+00 0. -1.
    9000006    2    1    2  501    0  0.00000000000E+00  0.00000000000E+00  0.89592198601E+03  0.11040780140E+04  0.64522248561E+03 0.  0.
         13    1    3    3    0    0  0.11145190483E+03 -0.28828856153E+02 -0.67735156831E+02  0.13356901403E+03  0.00000000000E+00 0. -1.
          2    1    3    3  501    0 -0.11145190483E+03  0.28828856153E+02  0.96365714285E+03  0.97050899996E+03  0.00000000000E+00 0. -1.
<mgrwt>
<rscale>  0 0.64522249E+03</rscale>
<asrwt>0</asrwt>
<pdfrwt beam="1">0</pdfrwt>
<pdfrwt beam="2">  1        2 0.37846630E+00 0.64522249E+03</pdfrwt>
<totfact> 0.47907633E+00</totfact>
</mgrwt>
</event>
<event>
 5    1  0.2311484E-004  0.6496349E+03  0.7818608E-02  0.9807464E-01
         13   -1    0    0    0    0  0.00000000000E+00  0.00000000000E+00  0.10000000000E+04  0.10000000000E+04  0.00000000000E+00 0. -1.
          2   -1    0    0  501    0 -0.00000000000E+00 -0.00000000000E+00 -0.10550638780E+03  0.10550638780E+03  0.00000000000E+00 0. -1.
    9000006    2    1    2  501    0  0.00000000000E+00  0.00000000000E+00  0.89449361220E+03  0.11055063878E+04  0.64963493685E+03 0.  0.
         13    1    3    3    0    0 -0.32205844893E+03  0.41938957059E+02  0.45590178793E+03  0.55975616199E+03  0.00000000000E+00 0. -1.
          2    1    3    3  501    0  0.32205844893E+03 -0.41938957059E+02  0.43859182427E+03  0.54575022580E+03  0.00000000000E+00 0. -1.
<mgrwt>
<rscale>  0 0.64963494E+03</rscale>
<asrwt>0</asrwt>
<pdfrwt beam="1">0</pdfrwt>
<pdfrwt beam="2">  1        2 0.38366040E+00 0.64963494E+03</pdfrwt>
<totfact> 0.45822183E+00</totfact>
</mgrwt>
</event>
<event>
 5    1  0.2311484E-004  0.6482806E+03  0.7818608E-02  0.9810011E-01
         13   -1    0    0    0    0  0.00000000000E+00  0.00000000000E+00  0.10000000000E+04  0.10000000000E+04  0.00000000000E+00 0. -1.
          2   -1    0    0  501    0 -0.00000000000E+00 -0.00000000000E+00 -0.10506692373E+03  0.10506692373E+03  0.00000000000E+00 0. -1.
    9000006    2    1    2  501    0  0.00000000000E+00  0.00000000000E+00  0.89493307627E+03  0.11050669237E+04  0.64828056805E+03 0.  0.
         13    1    3    3    0    0 -0.55753976530E+02  0.31760673973E+03  0.39133387254E+03  0.50707469550E+03  0.00000000000E+00 0. -1.
          2    1    3    3  501    0  0.55753976530E+02 -0.31760673973E+03  0.50359920373E+03  0.59799222822E+03  0.00000000000E+00 0. -1.
<mgrwt>
<rscale>  0 0.64828057E+03</rscale>
<asrwt>0</asrwt>
<pdfrwt beam="1">0</pdfrwt>
<pdfrwt beam="2">  1        2 0.38206235E+00 0.64828057E+03</pdfrwt>
<totfact> 0.46454842E+00</totfact>
</mgrwt>
</event>
<event>
 5    1  0.2311484E-004  0.6257265E+03  0.7818608E-02  0.9853424E-01
         13   -1    0    0    0    0  0.00000000000E+00  0.00000000000E+00  0.10000000000E+04  0.10000000000E+04  0.00000000000E+00 0. -1.
          2   -1    0    0  501    0 -0.00000000000E+00 -0.00000000000E+00 -0.97883416997E+02  0.97883416997E+02  0.00000000000E+00 0. -1.
    9000006    2    1    2  501    0  0.00000000000E+00  0.00000000000E+00  0.90211658300E+03  0.10978834170E+04  0.62572651213E+03 0.  0.
         13    1    3    3    0    0  0.15324093732E+03 -0.21538445746E+03  0.74470796523E+03  0.79022984180E+03  0.00000000000E+00 0. -1.
          4    1    3    3  501    0 -0.15324093732E+03  0.21538445746E+03  0.15740861777E+03  0.30765357520E+03  0.00000000000E+00 0. -1.
<mgrwt>
<rscale>  0 0.62572651E+03</rscale>
<asrwt>0</asrwt>
<pdfrwt beam="1">0</pdfrwt>
<pdfrwt beam="2">  1        2 0.35594045E+00 0.62572651E+03</pdfrwt>
<totfact> 0.57996384E+00</totfact>
</mgrwt>
</event>
<event>
 5    1  0.2311484E-004  0.6399416E+03  0.7818608E-02  0.9825838E-01
         13   -1    0    0    0    0  0.00000000000E+00  0.00000000000E+00  0.10000000000E+04  0.10000000000E+04  0.00000000000E+00 0. -1.
          2   -1    0    0  501    0 -0.00000000000E+00 -0.00000000000E+00 -0.10238130587E+03  0.10238130587E+03  0.00000000000E+00 0. -1.
    9000006    2    1    2  501    0  0.00000000000E+00  0.00000000000E+00  0.89761869413E+03  0.11023813059E+04  0.63994157818E+03 0.  0.
         13    1    3    3    0    0  0.68912453929E+02 -0.18996525138E+03  0.87616549519E+03  0.89916722471E+03  0.00000000000E+00 0. -1.
          2    1    3    3  501    0 -0.68912453929E+02  0.18996525138E+03  0.21453198940E+02  0.20321408116E+03  0.00000000000E+00 0. -1.
<mgrwt>
<rscale>  0 0.63994158E+03</rscale>
<asrwt>0</asrwt>
<pdfrwt beam="1">0</pdfrwt>
<pdfrwt beam="2">  1        2 0.37229644E+00 0.63994158E+03</pdfrwt>
<totfact> 0.50497184E+00</totfact>
</mgrwt>
</event>
<event>
 5    1  0.2311484E-004  0.6604945E+03  0.7818608E-02  0.9787284E-01
         13   -1    0    0    0    0  0.00000000000E+00  0.00000000000E+00  0.10000000000E+04  0.10000000000E+04  0.00000000000E+00 0. -1.
          2   -1    0    0  501    0 -0.00000000000E+00 -0.00000000000E+00 -0.10906325115E+03  0.10906325115E+03  0.00000000000E+00 0. -1.
    9000006    2    1    2  501    0  0.00000000000E+00  0.00000000000E+00  0.89093674885E+03  0.11090632512E+04  0.66049451520E+03 0.  0.
         13    1    3    3    0    0  0.30577908533E+02  0.28358266069E+02 -0.10462400543E+03  0.11262940227E+03  0.00000000000E+00 0. -1.
          2    1    3    3  501    0 -0.30577908533E+02 -0.28358266069E+02  0.99556075427E+03  0.99643384888E+03  0.00000000000E+00 0. -1.
<mgrwt>
<rscale>  0 0.66049452E+03</rscale>
<asrwt>0</asrwt>
<pdfrwt beam="1">0</pdfrwt>
<pdfrwt beam="2">  1        2 0.39659448E+00 0.66049452E+03</pdfrwt>
<totfact> 0.40981756E+00</totfact>
</mgrwt>
</event>
<event>
 5    1  0.2311484E-004  0.6352918E+03  0.7818608E-02  0.9834776E-01
         13   -1    0    0    0    0  0.00000000000E+00  0.00000000000E+00  0.10000000000E+04  0.10000000000E+04  0.00000000000E+00 0. -1.
          2   -1    0    0  501    0 -0.00000000000E+00 -0.00000000000E+00 -0.10089891524E+03  0.10089891524E+03  0.00000000000E+00 0. -1.
    9000006    2    1    2  501    0  0.00000000000E+00  0.00000000000E+00  0.89910108476E+03  0.11008989152E+04  0.63529179199E+03 0.  0.
         13    1    3    3    0    0 -0.87009425552E+02  0.33846532375E+02  0.97568758812E+03  0.98014412078E+03  0.00000000000E+00 0. -1.
          2    1    3    3  501    0  0.87009425552E+02 -0.33846532375E+02 -0.76586503362E+02  0.12075479446E+03  0.00000000000E+00 0. -1.
<mgrwt>
<rscale>  0 0.63529179E+03</rscale>
<asrwt>0</asrwt>
<pdfrwt beam="1">0</pdfrwt>
<pdfrwt beam="2">  1        2 0.36690592E+00 0.63529179E+03</pdfrwt>
<totfact> 0.52863899E+00</totfact>
</mgrwt>
</event>
<event>
 5    1  0.2311484E-004  0.6495192E+03  0.7818608E-02  0.9807682E-01
         13   -1    0    0    0    0  0.00000000000E+00  0.00000000000E+00  0.10000000000E+04  0.10000000000E+04  0.00000000000E+00 0. -1.
          2   -1    0    0  501    0 -0.00000000000E+00 -0.00000000000E+00 -0.10546881285E+03  0.10546881285E+03  0.00000000000E+00 0. -1.
    9000006    2    1    2  501    0  0.00000000000E+00  0.00000000000E+00  0.89453118715E+03  0.11054688128E+04  0.64951924636E+03 0.  0.
         13    1    3    3    0    0 -0.18023107062E+03  0.26567008577E+03  0.53073170198E+03  0.62027411100E+03  0.00000000000E+00 0. -1.
          2    1    3    3  501    0  0.18023107062E+03 -0.26567008577E+03  0.36379948517E+03  0.48519470185E+03  0.00000000000E+00 0. -1.
<mgrwt>
<rscale>  0 0.64951925E+03</rscale>
<asrwt>0</asrwt>
<pdfrwt beam="1">0</pdfrwt>
<pdfrwt beam="2">  1        2 0.38352376E+00 0.64951925E+03</pdfrwt>
<totfact> 0.45875969E+00</totfact>
</mgrwt>
</event>
<event>
 5    1  0.2311484E-004  0.6427670E+03  0.7818608E-02  0.9820447E-01
         13   -1    0    0    0    0  0.00000000000E+00  0.00000000000E+00  0.10000000000E+04  0.10000000000E+04  0.00000000000E+00 0. -1.
          2   -1    0    0  501    0 -0.00000000000E+00 -0.00000000000E+00 -0.10328734114E+03  0.10328734114E+03  0.00000000000E+00 0. -1.
    9000006    2    1    2  501    0  0.00000000000E+00  0.00000000000E+00  0.89671265886E+03  0.11032873411E+04  0.64276695977E+03 0.  0.
         13    1    3    3    0    0  0.51908499585E+02 -0.13630072465E+03  0.93992209874E+03  0.95117082145E+03  0.00000000000E+00 0. -1.
          4    1    3    3  501    0 -0.51908499585E+02  0.13630072465E+03 -0.43209439888E+02  0.15211651970E+03  0.00000000000E+00 0. -1.
<mgrwt>
<rscale>  0 0.64276696E+03</rscale>
<asrwt>0</asrwt>
<pdfrwt beam="1">0</pdfrwt>
<pdfrwt beam="2">  1        2 0.37559112E+00 0.64276696E+03</pdfrwt>
<totfact> 0.49098839E+00</totfact>
</mgrwt>
</event>
<event>
 5    1  0.2311484E-004  0.6364522E+03  0.7818608E-02  0.9832538E-01
         13   -1    0    0    0    0  0.00000000000E+00  0.00000000000E+00  0.10000000000E+04  0.10000000000E+04  0.00000000000E+00 0. -1.
          2   -1    0    0  501    0 -0.00000000000E+00 -0.00000000000E+00 -0.10126785118E+03  0.10126785118E+03  0.00000000000E+00 0. -1.
    9000006    2    1    2  501    0  0.00000000000E+00  0.00000000000E+00  0.89873214882E+03  0.11012678512E+04  0.63645220144E+03 0.  0.
         13    1    3    3    0    0 -0.26934563767E+03 -0.11789541601E+03  0.66002143152E+03  0.72254736296E+03  0.00000000000E+00 0. -1.
          4    1    3    3  501    0  0.26934563767E+03  0.11789541601E+03  0.23871071730E+03  0.37872048822E+03  0.00000000000E+00 0. -1.
<mgrwt>
<rscale>  0 0.63645220E+03</rscale>
<asrwt>0</asrwt>
<pdfrwt beam="1">0</pdfrwt>
<pdfrwt beam="2">  1        2 0.36824751E+00 0.63645220E+03</pdfrwt>
<totfact> 0.52265551E+00</totfact>
</mgrwt>
</event>
<event>
 5    1  0.2311484E-004  0.6571379E+03  0.7818608E-02  0.9793477E-01
         13   -1    0    0    0    0  0.00000000000E+00  0.00000000000E+00  0.10000000000E+04  0.10000000000E+04  0.00000000000E+00 0. -1.
          2   -1    0    0  501    0 -0.00000000000E+00 -0.00000000000E+00 -0.10795756934E+03  0.10795756934E+03  0.00000000000E+00 0. -1.
    9000006    2    1    2  501    0  0.00000000000E+00  0.00000000000E+00  0.89204243066E+03  0.11079575693E+04  0.65713794394E+03 0.  0.
         13    1    3    3    0    0 -0.27525881743E+03 -0.23009391002E+02  0.14601725870E+03  0.31243861555E+03  0.00000000000E+00 0. -1.
          2    1    3    3  501    0  0.27525881743E+03  0.23009391002E+02  0.74602517196E+03  0.79551895379E+03  0.00000000000E+00 0. -1.
<mgrwt>
<rscale>  0 0.65713794E+03</rscale>
<asrwt>0</asrwt>
<pdfrwt beam="1">0</pdfrwt>
<pdfrwt beam="2">  1        2 0.39257381E+00 0.65713794E+03</pdfrwt>
<totfact> 0.42434410E+00</totfact>
</mgrwt>
</event>
<event>
 5    1  0.2311484E-004  0.6437404E+03  0.7818608E-02  0.9818596E-01
         13   -1    0    0    0    0  0.00000000000E+00  0.00000000000E+00  0.10000000000E+04  0.10000000000E+04  0.00000000000E+00 0. -1.
          2   -1    0    0  501    0 -0.00000000000E+00 -0.00000000000E+00 -0.10360043158E+03  0.10360043158E+03  0.00000000000E+00 0. -1.
    9000006    2    1    2  501    0  0.00000000000E+00  0.00000000000E+00  0.89639956842E+03  0.11036004316E+04  0.64374041844E+03 0.  0.
         13    1    3    3    0    0  0.13422944018E+03  0.25528592599E+03  0.20326881358E+03  0.35285500874E+03  0.00000000000E+00 0. -1.
          2    1    3    3  501    0 -0.13422944018E+03 -0.25528592599E+03  0.69313075483E+03  0.75074542284E+03  0.00000000000E+00 0. -1.
<mgrwt>
<rscale>  0 0.64374042E+03</rscale>
<asrwt>0</asrwt>
<pdfrwt beam="1">0</pdfrwt>
<pdfrwt beam="2">  1        2 0.37672964E+00 0.64374042E+03</pdfrwt>
<totfact> 0.48623951E+00</totfact>
</mgrwt>
</event>
<event>
 5    1  0.2311484E-004  0.6305771E+03  0.7818608E-02  0.9843923E-01
         13   -1    0    0    0    0  0.00000000000E+00  0.00000000000E+00  0.10000000000E+04  0.10000000000E+04  0.00000000000E+00 0. -1.
          2   -1    0    0  501    0 -0.00000000000E+00 -0.00000000000E+00 -0.99406884632E+02  0.99406884632E+02  0.00000000000E+00 0. -1.
    9000006    2    1    2  501    0  0.00000000000E+00  0.00000000000E+00  0.90059311537E+03  0.10994068846E+04  0.63057714717E+03 0.  0.
         13    1    3    3    0    0  0.16063691100E+02  0.15774851260E+03 -0.24830892639E+02  0.16049675582E+03  0.00000000000E+00 0. -1.
          2    1    3    3  501    0 -0.16063691100E+02 -0.15774851260E+03  0.92542400801E+03  0.93891012882E+03  0.00000000000E+00 0. -1.
<mgrwt>
<rscale>  0 0.63057715E+03</rscale>
<asrwt>0</asrwt>
<pdfrwt beam="1">0</pdfrwt>
<pdfrwt beam="2">  1        2 0.36148034E+00 0.63057715E+03</pdfrwt>
<totfact> 0.55348530E+00</totfact>
</mgrwt>
</event>
<event>
 5    1  0.2311484E-004  0.6599717E+03  0.7818608E-02  0.9788246E-01
         13   -1    0    0    0    0  0.00000000000E+00  0.00000000000E+00  0.10000000000E+04  0.10000000000E+04  0.00000000000E+00 0. -1.
          2   -1    0    0  501    0 -0.00000000000E+00 -0.00000000000E+00 -0.10889067452E+03  0.10889067452E+03  0.00000000000E+00 0. -1.
    9000006    2    1    2  501    0  0.00000000000E+00  0.00000000000E+00  0.89110932548E+03  0.11088906745E+04  0.65997174035E+03 0.  0.
         13    1    3    3    0    0  0.25305519764E+03 -0.16808255766E+02  0.80027874344E+03  0.83950313741E+03  0.00000000000E+00 0. -1.
          4    1    3    3  501    0 -0.25305519764E+03  0.16808255766E+02  0.90830582042E+02  0.26938753711E+03  0.00000000000E+00 0. -1.
<mgrwt>
<rscale>  0 0.65997174E+03</rscale>
<asrwt>0</asrwt>
<pdfrwt beam="1">0</pdfrwt>
<pdfrwt beam="2">  1        2 0.39596692E+00 0.65997174E+03</pdfrwt>
<totfact> 0.41205489E+00</totfact>
</mgrwt>
</event>
<event>
 5    1  0.2311484E-004  0.6519300E+03  0.7818608E-02  0.9803164E-01
         13   -1    0    0    0    0  0.00000000000E+00  0.00000000000E+00  0.10000000000E+04  0.10000000000E+04  0.00000000000E+00 0. -1.
          2   -1    0    0  501    0 -0.00000000000E+00 -0.00000000000E+00 -0.10625317633E+03  0.10625317633E+03  0.00000000000E+00 0. -1.
    9000006    2    1    2  501    0  0.00000000000E+00  0.00000000000E+00  0.89374682367E+03  0.11062531763E+04  0.65192998498E+03 0.  0.
         13    1    3    3    0    0  0.96394045198E+01  0.42336171650E+02  0.99507092464E+03  0.99601777826E+03  0.00000000000E+00 0. -1.
          4    1    3    3  501    0 -0.96394045198E+01 -0.42336171650E+02 -0.10132410097E+03  0.11023539807E+03  0.00000000000E+00 0. -1.
<mgrwt>
<rscale>  0 0.65192998E+03</rscale>
<asrwt>0</asrwt>
<pdfrwt beam="1">0</pdfrwt>
<pdfrwt beam="2">  1        2 0.38637600E+00 0.65192998E+03</pdfrwt>
<totfact> 0.44765000E+00</totfact>
</mgrwt>
</event>
<event>
 5    1  0.2311484E-004  0.6402340E+03  0.7818608E-02  0.9825279E-01
         13   -1    0    0    0    0  0.00000000000E+00  0.00000000000E+00  0.10000000000E+04  0.10000000000E+04  0.00000000000E+00 0. -1.
          2   -1    0    0  501    0 -0.00000000000E+00 -0.00000000000E+00 -0.10247488517E+03  0.10247488517E+03  0.00000000000E+00 0. -1.
    9000006    2    1    2  501    0  0.00000000000E+00  0.00000000000E+00  0.89752511483E+03  0.11024748852E+04  0.64023397339E+03 0.  0.
         13    1    3    3    0    0  0.28409849218E+03  0.14393624857E+03  0.50443599341E+03  0.59656120253E+03  0.00000000000E+00 0. -1.
          4    1    3    3  501    0 -0.28409849218E+03 -0.14393624857E+03  0.39308912142E+03  0.50591368264E+03  0.00000000000E+00 0. -1.
<mgrwt>
<rscale>  0 0.64023397E+03</rscale>
<asrwt>0</asrwt>
<pdfrwt beam="1">0</pdfrwt>
<pdfrwt beam="2">  1        2 0.37263673E+00 0.64023397E+03</pdfrwt>
<totfact> 0.50351089E+00</totfact>
</mgrwt>
</event>
<event>
 5    1  0.2311484E-004  0.6621667E+03  0.7818608E-02  0.9784213E-01
         13   -1    0    0    0    0  0.00000000000E+00  0.00000000000E+00  0.10000000000E+04  0.10000000000E+04  0.00000000000E+00 0. -1.
          2   -1    0    0  501    0 -0.00000000000E+00 -0.00000000000E+00 -0.10961617639E+03  0.10961617639E+03  0.00000000000E+00 0. -1.
    9000006    2    1    2  501    0  0.00000000000E+00  0.00000000000E+00  0.89038382361E+03  0.11096161764E+04  0.66216667506E+03 0.  0.
         13    1    3    3    0    0  0.25630225878E+03 -0.19389885478E+03  0.31188336287E+03  0.44783796821E+03  0.00000000000E+00 0. -1.
          4    1    3    3  501    0 -0.25630225878E+03  0.19389885478E+03  0.57850046074E+03  0.66177820818E+03  0.00000000000E+00 0. -1.
<mgrwt>
<rscale>  0 0.66216668E+03</rscale>
<asrwt>0</asrwt>
<pdfrwt beam="1">0</pdfrwt>
<pdfrwt beam="2">  1        2 0.39860512E+00 0.66216668E+03</pdfrwt>
<totfact> 0.40272267E+00</totfact>
</mgrwt>
</event>
<event>
 5    1  0.2311484E-004  0.6399079E+03  0.7818608E-02  0.9825903E-01
         13   -1    0    0    0    0  0.00000000000E+00  0.00000000000E+00  0.10000000000E+04  0.10000000000E+04  0.00000000000E+00 0. -1.
          2   -1    0    0  501    0 -0.00000000000E+00 -0.00000000000E+00 -0.10237052963E+03  0.10237052963E+03  0.00000000000E+00 0. -1.
    9000006    2    1    2  501    0  0.00000000000E+00  0.00000000000E+00  0.89762947037E+03  0.11023705296E+04  0.63990789848E+03 0.  0.
         13    1    3    3    0    0  0.29008896117E+03 -0.85154070546E+02  0.26840163327E+03  0.40427992513E+03  0.00000000000E+00 0. -1.
          4    1    3    3  501    0 -0.29008896117E+03  0.85154070546E+02  0.62922783710E+03  0.69809060450E+03  0.00000000000E+00 0. -1.
<mgrwt>
<rscale>  0 0.63990790E+03</rscale>
<asrwt>0</asrwt>
<pdfrwt beam="1">0</pdfrwt>
<pdfrwt beam="2">  1        2 0.37225726E+00 0.63990790E+03</pdfrwt>
<totfact> 0.50514033E+00</totfact>
</mgrwt>
</event>
<event>
 5    1  0.2311484E-004  0.6665151E+03  0.7818608E-02  0.9776274E-01
         13   -1    0    0    0    0  0.00000000000E+00  0.00000000000E+00  0.10000000000E+04  0.10000000000E+04  0.00000000000E+00 0. -1.
          2   -1    0    0  501    0 -0.00000000000E+00 -0.00000000000E+00 -0.11106059902E+03  0.11106059902E+03  0.00000000000E+00 0. -1.
    9000006    2    1    2  501    0  0.00000000000E+00  0.00000000000E+00  0.88893940098E+03  0.11110605990E+04  0.66651511317E+03 0.  0.
         13    1    3    3    0    0  0.29981592986E+03 -0.90206754297E+02  0.63478005442E+03  0.70779415638E+03  0.00000000000E+00 0. -1.
          4    1    3    3  501    0 -0.29981592986E+03  0.90206754297E+02  0.25415934656E+03  0.40326644264E+03  0.00000000000E+00 0. -1.
<mgrwt>
<rscale>  0 0.66651511E+03</rscale>
<asrwt>0</asrwt>
<pdfrwt beam="1">0</pdfrwt>
<pdfrwt beam="2">  1        2 0.40385758E+00 0.66651511E+03</pdfrwt>
<totfact> 0.38470604E+00</totfact>
</mgrwt>
</event>
<event>
 5    1  0.2311484E-004  0.6411373E+03  0.7818608E-02  0.9823553E-01
         13   -1    0    0    0    0  0.00000000000E+00  0.00000000000E+00  0.10000000000E+04  0.10000000000E+04  0.00000000000E+00 0. -1.
          2   -1    0    0  501    0 -0.00000000000E+00 -0.00000000000E+00 -0.10276424778E+03  0.10276424778E+03  0.00000000000E+00 0. -1.
    9000006    2    1    2  501    0  0.00000000000E+00  0.00000000000E+00  0.89723575222E+03  0.11027642478E+04  0.64113726385E+03 0.  0.
         13    1    3    3    0    0  0.18889321417E+03 -0.79605497203E+02  0.87254628892E+03  0.89630056781E+03  0.00000000000E+00 0. -1.
          4    1    3    3  501    0 -0.18889321417E+03  0.79605497203E+02  0.24689463301E+02  0.20646367996E+03  0.00000000000E+00 0. -1.
<mgrwt>
<rscale>  0 0.64113726E+03</rscale>
<asrwt>0</asrwt>
<pdfrwt beam="1">0</pdfrwt>
<pdfrwt beam="2">  1        2 0.37368896E+00 0.64113726E+03</pdfrwt>
<totfact> 0.49901780E+00</totfact>
</mgrwt>
</event>
<event>
 5    1  0.2311484E-004  0.6681061E+03  0.7818608E-02  0.9773385E-01
         13   -1    0    0    0    0  0.00000000000E+00  0.00000000000E+00  0.10000000000E+04  0.10000000000E+04  0.00000000000E+00 0. -1.
          2   -1    0    0  501    0 -0.00000000000E+00 -0.00000000000E+00 -0.11159143862E+03  0.11159143862E+03  0.00000000000E+00 0. -1.
    9000006    2    1    2  501    0  0.00000000000E+00  0.00000000000E+00  0.88840856138E+03  0.11115914386E+04  0.66810609522E+03 0.  0.
         13    1    3    3    0    0  0.29097675952E+03  0.25223155143E+02  0.71396363959E+03  0.77139338913E+03  0.00000000000E+00 0. -1.
          2    1    3    3  501    0 -0.29097675952E+03 -0.25223155143E+02  0.17444492179E+03  0.34019804949E+03  0.00000000000E+00 0. -1.
<mgrwt>
<rscale>  0 0.66810610E+03</rscale>
<asrwt>0</asrwt>
<pdfrwt beam="1">0</pdfrwt>
<pdfrwt beam="2">  1        2 0.40578791E+00 0.66810610E+03</pdfrwt>
<totfact> 0.37826852E+00</totfact>
</mgrwt>
</event>
<event>
 5    1  0.2311484E-004  0.6440143E+03  0.7818608E-02  0.9818076E-01
         13   -1    0    0    0    0  0.00000000000E+00  0.00000000000E+00  0.10000000000E+04  0.10000000000E+04  0.00000000000E+00 0. -1.
          2   -1    0    0  501    0 -0.00000000000E+00 -0.00000000000E+00 -0.10368859751E+03  0.10368859751E+03  0.00000000000E+00 0. -1.
    9000006    2    1    2  501    0  0.00000000000E+00  0.00000000000E+00  0.89631140249E+03  0.11036885975E+04  0.64401427782E+03 0.  0.
         13    1    3    3    0    0 -0.27584076273E+03 -0.16612979748E+03  0.45015538896E+03  0.55346825583E+03  0.00000000000E+00 0. -1.
          4    1    3    3  501    0  0.27584076273E+03  0.16612979748E+03  0.44615601353E+03  0.55022034168E+03  0.00000000000E+00 0. -1.
<mgrwt>
<rscale>  0 0.64401428E+03</rscale>
<asrwt>0</asrwt>
<pdfrwt beam="1">0</pdfrwt>
<pdfrwt beam="2">  1        2 0.37705024E+00 0.64401428E+03</pdfrwt>
<totfact> 0.48490982E+00</totfact>
</mgrwt>
</event>
<event>
 5    1  0.2311484E-004  0.6317114E+03  0.7818608E-02  0.9841715E-01
         13   -1    0    0    0    0  0.00000000000E+00  0.00000000000E+00  0.10000000000E+04  0.10000000000E+04  0.00000000000E+00 0. -1.
          2   -1    0    0  501    0 -0.00000000000E+00 -0.00000000000E+00 -0.99764828905E+02  0.99764828905E+02  0.00000000000E+00 0. -1.
    9000006    2    1    2  501    0  0.00000000000E+00  0.00000000000E+00  0.90023517110E+03  0.10997648289E+04  0.63171141799E+03 0.  0.
         13    1    3    3    0    0  0.24848243634E+02 -0.28331989238E+03  0.21092359756E+03  0.35408524488E+03  0.00000000000E+00 0. -1.
          2    1    3    3  501    0 -0.24848243634E+02  0.28331989238E+03  0.68931157353E+03  0.74567958403E+03  0.00000000000E+00 0. -1.
<mgrwt>
<rscale>  0 0.63171142E+03</rscale>
<asrwt>0</asrwt>
<pdfrwt beam="1">0</pdfrwt>
<pdfrwt beam="2">  1        2 0.36278196E+00 0.63171142E+03</pdfrwt>
<totfact> 0.54742842E+00</totfact>
</mgrwt>
</event>
<event>
 5    1  0.2311484E-004  0.6583794E+03  0.7818608E-02  0.9791182E-01
         13   -1    0    0    0    0  0.00000000000E+00  0.00000000000E+00  0.10000000000E+04  0.10000000000E+04  0.00000000000E+00 0. -1.
          2   -1    0    0  501    0 -0.00000000000E+00 -0.00000000000E+00 -0.10836586674E+03  0.10836586674E+03  0.00000000000E+00 0. -1.
    9000006    2    1    2  501    0  0.00000000000E+00  0.00000000000E+00  0.89163413326E+03  0.11083658667E+04  0.65837942478E+03 0.  0.
         13    1    3    3    0    0 -0.44241541301E+01  0.96871115785E+02  0.97540946171E+03  0.98021793710E+03  0.00000000000E+00 0. -1.
          4    1    3    3  501    0  0.44241541301E+01 -0.96871115785E+02 -0.83775328457E+02  0.12814792964E+03  0.00000000000E+00 0. -1.
<mgrwt>
<rscale>  0 0.65837942E+03</rscale>
<asrwt>0</asrwt>
<pdfrwt beam="1">0</pdfrwt>
<pdfrwt beam="2">  1        2 0.39405853E+00 0.65837942E+03</pdfrwt>
<totfact> 0.41892643E+00</totfact>
</mgrwt>
</event>
<event>
 5    1  0.2311484E-004  0.6481225E+03  0.7818608E-02  0.9810308E-01
         13   -1    0    0    0    0  0.00000000000E+00  0.00000000000E+00  0.10000000000E+04  0.10000000000E+04  0.00000000000E+00 0. -1.
          2   -1    0    0  501    0 -0.00000000000E+00 -0.00000000000E+00 -0.10501570555E+03  0.10501570555E+03  0.00000000000E+00 0. -1.
    9000006    2    1    2  501    0  0.00000000000E+00  0.00000000000E+00  0.89498429445E+03  0.11050157056E+04  0.64812253641E+03 0.  0.
         13    1    3    3    0    0 -0.92374443507E+02 -0.26068478072E+03  0.73545245273E+03  0.78573526263E+03  0.00000000000E+00 0. -1.
          4    1    3    3  501    0  0.92374443507E+02  0.26068478072E+03  0.15953184172E+03  0.31928044293E+03  0.00000000000E+00 0. -1.
<mgrwt>
<rscale>  0 0.64812254E+03</rscale>
<asrwt>0</asrwt>
<pdfrwt beam="1">0</pdfrwt>
<pdfrwt beam="2">  1        2 0.38187610E+00 0.64812254E+03</pdfrwt>
<totfact> 0.46529091E+00</totfact>
</mgrwt>
</event>
<event>
 5    1  0.2311484E-004  0.6555566E+03  0.7818608E-02  0.9796408E-01
         13   -1    0    0    0    0  0.00000000000E+00  0.00000000000E+00  0.10000000000E+04  0.10000000000E+04  0.00000000000E+00 0. -1.
          2   -1    0    0  501    0 -0.00000000000E+00 -0.00000000000E+00 -0.10743861701E+03  0.10743861701E+03  0.00000000000E+00 0. -1.
    9000006    2    1    2  501    0  0.00000000000E+00  0.00000000000E+00  0.89256138299E+03  0.11074386170E+04  0.65555660933E+03 0.  0.
         13    1    3    3    0    0  0.22536821204E+03 -0.11590781551E+03  0.79745076437E+03  0.83675156067E+03  0.00000000000E+00 0. -1.
          4    1    3    3  501    0 -0.22536821204E+03  0.11590781551E+03  0.95110618621E+02  0.27068705634E+03  0.00000000000E+00 0. -1.
<mgrwt>
<rscale>  0 0.65555661E+03</rscale>
<asrwt>0</asrwt>
<pdfrwt beam="1">0</pdfrwt>
<pdfrwt beam="2">  1        2 0.39068670E+00 0.65555661E+03</pdfrwt>
<totfact> 0.43132135E+00</totfact>
</mgrwt>
</event>
<event>
 5    1  0.2311484E-004  0.4991535E+03  0.7818608E-02  0.1014000E+00
         13   -1    0    0    0    0  0.00000000000E+00  0.00000000000E+00  0.10000000000E+04  0.10000000000E+04  0.00000000000E+00 0. -1.
          2   -1    0    0  501    0 -0.00000000000E+00 -0.00000000000E+00 -0.62288547170E+02  0.62288547170E+02  0.00000000000E+00 0. -1.
    9000006    2    1    2  501    0  0.00000000000E+00  0.00000000000E+00  0.93771145283E+03  0.10622885472E+04  0.49915347207E+03 0.  0.
         13    1    3    3    0    0 -0.23150552932E+02 -0.19788773277E+03  0.14896932398E+03  0.24877170733E+03  0.00000000000E+00 0. -1.
          2    1    3    3  501    0  0.23150552932E+02  0.19788773277E+03  0.78874212885E+03  0.81351683984E+03  0.00000000000E+00 0. -1.
<mgrwt>
<rscale>  0 0.49915347E+03</rscale>
<asrwt>0</asrwt>
<pdfrwt beam="1">0</pdfrwt>
<pdfrwt beam="2">  1        2 0.22650429E+00 0.49915347E+03</pdfrwt>
<totfact> 0.16954355E+01</totfact>
</mgrwt>
</event>
<event>
 5    1  0.2311484E-004  0.6543969E+03  0.7818608E-02  0.9798564E-01
         13   -1    0    0    0    0  0.00000000000E+00  0.00000000000E+00  0.10000000000E+04  0.10000000000E+04  0.00000000000E+00 0. -1.
          2   -1    0    0  501    0 -0.00000000000E+00 -0.00000000000E+00 -0.10705881828E+03  0.10705881828E+03  0.00000000000E+00 0. -1.
    9000006    2    1    2  501    0  0.00000000000E+00  0.00000000000E+00  0.89294118172E+03  0.11070588183E+04  0.65439687736E+03 0.  0.
         13    1    3    3    0    0  0.19574215120E+03 -0.61531658006E+02  0.87763682438E+03  0.90130323987E+03  0.00000000000E+00 0. -1.
          2    1    3    3  501    0 -0.19574215120E+03  0.61531658006E+02  0.15304357344E+02  0.20575557841E+03  0.00000000000E+00 0. -1.
<mgrwt>
<rscale>  0 0.65439688E+03</rscale>
<asrwt>0</asrwt>
<pdfrwt beam="1">0</pdfrwt>
<pdfrwt beam="2">  1        2 0.38930561E+00 0.65439688E+03</pdfrwt>
<totfact> 0.43649319E+00</totfact>
</mgrwt>
</event>
<event>
 5    1  0.2311484E-004  0.6509180E+03  0.7818608E-02  0.9805058E-01
         13   -1    0    0    0    0  0.00000000000E+00  0.00000000000E+00  0.10000000000E+04  0.10000000000E+04  0.00000000000E+00 0. -1.
          2   -1    0    0  501    0 -0.00000000000E+00 -0.00000000000E+00 -0.10592355636E+03  0.10592355636E+03  0.00000000000E+00 0. -1.
    9000006    2    1    2  501    0  0.00000000000E+00  0.00000000000E+00  0.89407644364E+03  0.11059235564E+04  0.65091798672E+03 0.  0.
         13    1    3    3    0    0  0.25438221299E+03 -0.13349365366E+03  0.18717852723E+03  0.34287995992E+03  0.00000000000E+00 0. -1.
          2    1    3    3  501    0 -0.25438221299E+03  0.13349365366E+03  0.70689791641E+03  0.76304359644E+03  0.00000000000E+00 0. -1.
<mgrwt>
<rscale>  0 0.65091799E+03</rscale>
<asrwt>0</asrwt>
<pdfrwt beam="1">0</pdfrwt>
<pdfrwt beam="2">  1        2 0.38517738E+00 0.65091799E+03</pdfrwt>
<totfact> 0.45228866E+00</totfact>
</mgrwt>
</event>
<event>
 5    1  0.2311484E-004  0.6731453E+03  0.7818608E-02  0.9764292E-01
         13   -1    0    0    0    0  0.00000000000E+00  0.00000000000E+00  0.10000000000E+04  0.10000000000E+04  0.00000000000E+00 0. -1.
          2   -1    0    0  501    0 -0.00000000000E+00 -0.00000000000E+00 -0.11328115198E+03  0.11328115198E+03  0.00000000000E+00 0. -1.
    9000006    2    1    2  501    0  0.00000000000E+00  0.00000000000E+00  0.88671884802E+03  0.11132811520E+04  0.67314530965E+03 0.  0.
         13    1    3    3    0    0  0.29258767446E+03  0.26346455167E+02  0.71501131438E+03  0.77300896672E+03  0.00000000000E+00 0. -1.
          2    1    3    3  501    0 -0.29258767446E+03 -0.26346455167E+02  0.17170753365E+03  0.34027218525E+03  0.00000000000E+00 0. -1.
<mgrwt>
<rscale>  0 0.67314531E+03</rscale>
<asrwt>0</asrwt>
<pdfrwt beam="1">0</pdfrwt>
<pdfrwt beam="2">  1        2 0.41193233E+00 0.67314531E+03</pdfrwt>
<totfact> 0.35841335E+00</totfact>
</mgrwt>
</event>
<event>
 5    1  0.2311484E-004  0.6555709E+03  0.7818608E-02  0.9796382E-01
         13   -1    0    0    0    0  0.00000000000E+00  0.00000000000E+00  0.10000000000E+04  0.10000000000E+04  0.00000000000E+00 0. -1.
          2   -1    0    0  501    0 -0.00000000000E+00 -0.00000000000E+00 -0.10744329839E+03  0.10744329839E+03  0.00000000000E+00 0. -1.
    9000006    2    1    2  501    0  0.00000000000E+00  0.00000000000E+00  0.89255670161E+03  0.11074432984E+04  0.65557089133E+03 0.  0.
         13    1    3    3    0    0  0.27161991864E+03  0.46752535279E+02  0.14655538747E+03  0.31215646934E+03  0.00000000000E+00 0. -1.
          2    1    3    3  501    0 -0.27161991864E+03 -0.46752535279E+02  0.74600131414E+03  0.79528682905E+03  0.00000000000E+00 0. -1.
<mgrwt>
<rscale>  0 0.65557089E+03</rscale>
<asrwt>0</asrwt>
<pdfrwt beam="1">0</pdfrwt>
<pdfrwt beam="2">  1        2 0.39070373E+00 0.65557089E+03</pdfrwt>
<totfact> 0.43125795E+00</totfact>
</mgrwt>
</event>
<event>
 5    1  0.2311484E-004  0.6433314E+03  0.7818608E-02  0.9819373E-01
         13   -1    0    0    0    0  0.00000000000E+00  0.00000000000E+00  0.10000000000E+04  0.10000000000E+04  0.00000000000E+00 0. -1.
          2   -1    0    0  501    0 -0.00000000000E+00 -0.00000000000E+00 -0.10346882174E+03  0.10346882174E+03  0.00000000000E+00 0. -1.
    9000006    2    1    2  501    0  0.00000000000E+00  0.00000000000E+00  0.89653117826E+03  0.11034688217E+04  0.64333139747E+03 0.  0.
         13    1    3    3    0    0 -0.15995558613E+03 -0.48328886064E+02  0.91971482881E+03  0.93477100784E+03  0.00000000000E+00 0. -1.
          4    1    3    3  501    0  0.15995558613E+03  0.48328886064E+02 -0.23183650554E+02  0.16869781390E+03  0.00000000000E+00 0. -1.
<mgrwt>
<rscale>  0 0.64333140E+03</rscale>
<asrwt>0</asrwt>
<pdfrwt beam="1">0</pdfrwt>
<pdfrwt beam="2">  1        2 0.37625105E+00 0.64333140E+03</pdfrwt>
<totfact> 0.48823060E+00</totfact>
</mgrwt>
</event>
<event>
 5    1  0.2311484E-004  0.6263305E+03  0.7818608E-02  0.9852236E-01
         13   -1    0    0    0    0  0.00000000000E+00  0.00000000000E+00  0.10000000000E+04  0.10000000000E+04  0.00000000000E+00 0. -1.
          2   -1    0    0  501    0 -0.00000000000E+00 -0.00000000000E+00 -0.98072464377E+02  0.98072464377E+02  0.00000000000E+00 0. -1.
    9000006    2    1    2  501    0  0.00000000000E+00  0.00000000000E+00  0.90192753562E+03  0.10980724644E+04  0.62633046989E+03 0.  0.
         13    1    3    3    0    0 -0.25631108897E+03  0.17968405058E+03  0.46766343232E+03  0.56275289274E+03  0.00000000000E+00 0. -1.
          4    1    3    3  501    0  0.25631108897E+03 -0.17968405058E+03  0.43426410331E+03  0.53531957164E+03  0.00000000000E+00 0. -1.
<mgrwt>
<rscale>  0 0.62633047E+03</rscale>
<asrwt>0</asrwt>
<pdfrwt beam="1">0</pdfrwt>
<pdfrwt beam="2">  1        2 0.35662790E+00 0.62633047E+03</pdfrwt>
<totfact> 0.57661534E+00</totfact>
</mgrwt>
</event>
<event>
 5    1  0.2311484E-004  0.5509465E+03  0.7818608E-02  0.1001275E+00
         13   -1    0    0    0    0  0.00000000000E+00  0.00000000000E+00  0.10000000000E+04  0.10000000000E+04  0.00000000000E+00 0. -1.
          2   -1    0    0  501    0 -0.00000000000E+00 -0.00000000000E+00 -0.75885520255E+02  0.75885520255E+02  0.00000000000E+00 0. -1.
    9000006    2    1    2  501    0  0.00000000000E+00  0.00000000000E+00  0.92411447974E+03  0.10758855203E+04  0.55094653191E+03 0.  0.
         13    1    3    3    0    0 -0.13772366218E+03 -0.20178644560E+03  0.71060700608E+03  0.75143056489E+03  0.00000000000E+00 0. -1.
          4    1    3    3  501    0  0.13772366218E+03  0.20178644560E+03  0.21350747366E+03  0.32445495537E+03  0.00000000000E+00 0. -1.
<mgrwt>
<rscale>  0 0.55094653E+03</rscale>
<asrwt>0</asrwt>
<pdfrwt beam="1">0</pdfrwt>
<pdfrwt beam="2">  1        2 0.27594793E+00 0.55094653E+03</pdfrwt>
<totfact> 0.11253642E+01</totfact>
</mgrwt>
</event>
<event>
 5    1  0.2311484E-004  0.6306742E+03  0.7818608E-02  0.9843734E-01
         13   -1    0    0    0    0  0.00000000000E+00  0.00000000000E+00  0.10000000000E+04  0.10000000000E+04  0.00000000000E+00 0. -1.
          2   -1    0    0  501    0 -0.00000000000E+00 -0.00000000000E+00 -0.99437479358E+02  0.99437479358E+02  0.00000000000E+00 0. -1.
    9000006    2    1    2  501    0  0.00000000000E+00  0.00000000000E+00  0.90056252064E+03  0.10994374794E+04  0.63067417692E+03 0.  0.
         13    1    3    3    0    0 -0.13038390736E+03 -0.27837574497E+03  0.32769975449E+03  0.44931074746E+03  0.00000000000E+00 0. -1.
          4    1    3    3  501    0  0.13038390736E+03  0.27837574497E+03  0.57286276615E+03  0.65012673190E+03  0.00000000000E+00 0. -1.
<mgrwt>
<rscale>  0 0.63067418E+03</rscale>
<asrwt>0</asrwt>
<pdfrwt beam="1">0</pdfrwt>
<pdfrwt beam="2">  1        2 0.36159160E+00 0.63067418E+03</pdfrwt>
<totfact> 0.55296519E+00</totfact>
</mgrwt>
</event>
<event>
 5    1  0.2311484E-004  0.6522638E+03  0.7818608E-02  0.9802541E-01
         13   -1    0    0    0    0  0.00000000000E+00  0.00000000000E+00  0.10000000000E+04  0.10000000000E+04  0.00000000000E+00 0. -1.
          2   -1    0    0  501    0 -0.00000000000E+00 -0.00000000000E+00 -0.10636200322E+03  0.10636200322E+03  0.00000000000E+00 0. -1.
    9000006    2    1    2  501    0  0.00000000000E+00  0.00000000000E+00  0.89363799678E+03  0.11063620032E+04  0.65226376019E+03 0.  0.
         13    1    3    3    0    0 -0.32349990823E+02 -0.29466857696E+03  0.21620034504E+03  0.36690418551E+03  0.00000000000E+00 0. -1.
          4    1    3    3  501    0  0.32349990823E+02  0.29466857696E+03  0.67743765175E+03  0.73945781770E+03  0.00000000000E+00 0. -1.
<mgrwt>
<rscale>  0 0.65226376E+03</rscale>
<asrwt>0</asrwt>
<pdfrwt beam="1">0</pdfrwt>
<pdfrwt beam="2">  1        2 0.38677174E+00 0.65226376E+03</pdfrwt>
<totfact> 0.44612800E+00</totfact>
</mgrwt>
</event>
<event>
 5    1  0.2311484E-004  0.6504159E+03  0.7818608E-02  0.9805999E-01
         13   -1    0    0    0    0  0.00000000000E+00  0.00000000000E+00  0.10000000000E+04  0.10000000000E+04  0.00000000000E+00 0. -1.
          2   -1    0    0  501    0 -0.00000000000E+00 -0.00000000000E+00 -0.10576022173E+03  0.10576022173E+03  0.00000000000E+00 0. -1.
    9000006    2    1    2  501    0  0.00000000000E+00  0.00000000000E+00  0.89423977827E+03  0.11057602217E+04  0.65041593379E+03 0.  0.
         13    1    3    3    0    0 -0.28350013889E+03 -0.10328557308E+03  0.24085588211E+03  0.38607226565E+03  0.00000000000E+00 0. -1.
          2    1    3    3  501    0  0.28350013889E+03  0.10328557308E+03  0.65338389616E+03  0.71968795608E+03  0.00000000000E+00 0. -1.
<mgrwt>
<rscale>  0 0.65041593E+03</rscale>
<asrwt>0</asrwt>
<pdfrwt beam="1">0</pdfrwt>
<pdfrwt beam="2">  1        2 0.38458344E+00 0.65041593E+03</pdfrwt>
<totfact> 0.45460333E+00</totfact>
</mgrwt>
</event>
<event>
 5    1  0.2311484E-004  0.6448946E+03  0.7818608E-02  0.9816407E-01
         13   -1    0    0    0    0  0.00000000000E+00  0.00000000000E+00  0.10000000000E+04  0.10000000000E+04  0.00000000000E+00 0. -1.
          2   -1    0    0  501    0 -0.00000000000E+00 -0.00000000000E+00 -0.10397225602E+03  0.10397225602E+03  0.00000000000E+00 0. -1.
    9000006    2    1    2  501    0  0.00000000000E+00  0.00000000000E+00  0.89602774398E+03  0.11039722560E+04  0.64489458369E+03 0.  0.
         13    1    3    3    0    0  0.78692952605E+02 -0.31163907090E+03  0.49201794253E+03  0.58770157995E+03  0.00000000000E+00 0. -1.
          4    1    3    3  501    0 -0.78692952605E+02  0.31163907090E+03  0.40400980145E+03  0.51627067607E+03  0.00000000000E+00 0. -1.
<mgrwt>
<rscale>  0 0.64489458E+03</rscale>
<asrwt>0</asrwt>
<pdfrwt beam="1">0</pdfrwt>
<pdfrwt beam="2">  1        2 0.37808173E+00 0.64489458E+03</pdfrwt>
<totfact> 0.48065423E+00</totfact>
</mgrwt>
</event>
<event>
 5    1  0.2311484E-004  0.6441127E+03  0.7818608E-02  0.9817889E-01
         13   -1    0    0    0    0  0.00000000000E+00  0.00000000000E+00  0.10000000000E+04  0.10000000000E+04  0.00000000000E+00 0. -1.
          2   -1    0    0  501    0 -0.00000000000E+00 -0.00000000000E+00 -0.10372030732E+03  0.10372030732E+03  0.00000000000E+00 0. -1.
    9000006    2    1    2  501    0  0.00000000000E+00  0.00000000000E+00  0.89627969268E+03  0.11037203073E+04  0.64411274579E+03 0.  0.
         13    1    3    3    0    0 -0.31831513608E+03  0.42675750866E+02  0.40706598841E+03  0.51850599272E+03  0.00000000000E+00 0. -1.
          4    1    3    3  501    0  0.31831513608E+03 -0.42675750866E+02  0.48921370427E+03  0.58521431460E+03  0.00000000000E+00 0. -1.
<mgrwt>
<rscale>  0 0.64411275E+03</rscale>
<asrwt>0</asrwt>
<pdfrwt beam="1">0</pdfrwt>
<pdfrwt beam="2">  1        2 0.37716555E+00 0.64411275E+03</pdfrwt>
<totfact> 0.48443239E+00</totfact>
</mgrwt>
</event>
<event>
 5    1  0.2311484E-004  0.6360605E+03  0.7818608E-02  0.9833293E-01
         13   -1    0    0    0    0  0.00000000000E+00  0.00000000000E+00  0.10000000000E+04  0.10000000000E+04  0.00000000000E+00 0. -1.
          2   -1    0    0  501    0 -0.00000000000E+00 -0.00000000000E+00 -0.10114323845E+03  0.10114323845E+03  0.00000000000E+00 0. -1.
    9000006    2    1    2  501    0  0.00000000000E+00  0.00000000000E+00  0.89885676155E+03  0.11011432385E+04  0.63606049540E+03 0.  0.
         13    1    3    3    0    0  0.12508170234E+02 -0.14405327291E+03  0.93980359285E+03  0.95086202621E+03  0.00000000000E+00 0. -1.
          4    1    3    3  501    0 -0.12508170234E+02  0.14405327291E+03 -0.40946831304E+02  0.15028121224E+03  0.00000000000E+00 0. -1.
<mgrwt>
<rscale>  0 0.63606050E+03</rscale>
<asrwt>0</asrwt>
<pdfrwt beam="1">0</pdfrwt>
<pdfrwt beam="2">  1        2 0.36779437E+00 0.63606050E+03</pdfrwt>
<totfact> 0.52466952E+00</totfact>
</mgrwt>
</event>
<event>
 5    1  0.2311484E-004  0.6325665E+03  0.7818608E-02  0.9840053E-01
         13   -1    0    0    0    0  0.00000000000E+00  0.00000000000E+00  0.10000000000E+04  0.10000000000E+04  0.00000000000E+00 0. -1.
          2   -1    0    0  501    0 -0.00000000000E+00 -0.00000000000E+00 -0.10003509284E+03  0.10003509284E+03  0.00000000000E+00 0. -1.
    9000006    2    1    2  501    0  0.00000000000E+00  0.00000000000E+00  0.89996490716E+03  0.11000350928E+04  0.63256649560E+03 0.  0.
         13    1    3    3    0    0  0.28316631277E+03 -0.23255059312E+02  0.20832274499E+03  0.35230998361E+03  0.00000000000E+00 0. -1.
          2    1    3    3  501    0 -0.28316631277E+03  0.23255059312E+02  0.69164216218E+03  0.74772510923E+03  0.00000000000E+00 0. -1.
<mgrwt>
<rscale>  0 0.63256650E+03</rscale>
<asrwt>0</asrwt>
<pdfrwt beam="1">0</pdfrwt>
<pdfrwt beam="2">  1        2 0.36376474E+00 0.63256650E+03</pdfrwt>
<totfact> 0.54289576E+00</totfact>
</mgrwt>
</event>
<event>
 5    1  0.2311484E-004  0.6431898E+03  0.7818608E-02  0.9819643E-01
         13   -1    0    0    0    0  0.00000000000E+00  0.00000000000E+00  0.10000000000E+04  0.10000000000E+04  0.00000000000E+00 0. -1.
          2   -1    0    0  501    0 -0.00000000000E+00 -0.00000000000E+00 -0.10342326365E+03  0.10342326365E+03  0.00000000000E+00 0. -1.
    9000006    2    1    2  501    0  0.00000000000E+00  0.00000000000E+00  0.89657673635E+03  0.11034232637E+04  0.64318975008E+03 0.  0.
         13    1    3    3    0    0  0.15443146769E+03 -0.25632907622E+03  0.65032719343E+03  0.71587647820E+03  0.00000000000E+00 0. -1.
          4    1    3    3  501    0 -0.15443146769E+03  0.25632907622E+03  0.24624954292E+03  0.38754678545E+03  0.00000000000E+00 0. -1.
<mgrwt>
<rscale>  0 0.64318975E+03</rscale>
<asrwt>0</asrwt>
<pdfrwt beam="1">0</pdfrwt>
<pdfrwt beam="2">  1        2 0.37608539E+00 0.64318975E+03</pdfrwt>
<totfact> 0.48892157E+00</totfact>
</mgrwt>
</event>
<event>
 5    1  0.2311484E-004  0.6592485E+03  0.7818608E-02  0.9789578E-01
         13   -1    0    0    0    0  0.00000000000E+00  0.00000000000E+00  0.10000000000E+04  0.10000000000E+04  0.00000000000E+00 0. -1.
          2   -1    0    0  501    0 -0.00000000000E+00 -0.00000000000E+00 -0.10865215121E+03  0.10865215121E+03  0.00000000000E+00 0. -1.
    9000006    2    1    2  501    0  0.00000000000E+00  0.00000000000E+00  0.89134784879E+03  0.11086521512E+04  0.65924851524E+03 0.  0.
         13    1    3    3    0    0 -0.10959468783E+03  0.30526797063E+02  0.96593717032E+03  0.97261374551E+03  0.00000000000E+00 0. -1.
          2    1    3    3  501    0  0.10959468783E+03 -0.30526797063E+02 -0.74589321535E+02  0.13603840570E+03  0.00000000000E+00 0. -1.
<mgrwt>
<rscale>  0 0.65924852E+03</rscale>
<asrwt>0</asrwt>
<pdfrwt beam="1">0</pdfrwt>
<pdfrwt beam="2">  1        2 0.39509956E+00 0.65924852E+03</pdfrwt>
<totfact> 0.41516529E+00</totfact>
</mgrwt>
</event>
<event>
 5    1  0.2311484E-004  0.6486363E+03  0.7818608E-02  0.9809342E-01
         13   -1    0    0    0    0  0.00000000000E+00  0.00000000000E+00  0.10000000000E+04  0.10000000000E+04  0.00000000000E+00 0. -1.
          2   -1    0    0  501    0 -0.00000000000E+00 -0.00000000000E+00 -0.10518225068E+03  0.10518225068E+03  0.00000000000E+00 0. -1.
    9000006    2    1    2  501    0  0.00000000000E+00  0.00000000000E+00  0.89481774932E+03  0.11051822507E+04  0.64863626379E+03 0.  0.
         13    1    3    3    0    0  0.17532299231E+03  0.26775369392E+03  0.53679322777E+03  0.62496172812E+03  0.00000000000E+00 0. -1.
          4    1    3    3  501    0 -0.17532299231E+03 -0.26775369392E+03  0.35802452156E+03  0.48022052255E+03  0.00000000000E+00 0. -1.
<mgrwt>
<rscale>  0 0.64863626E+03</rscale>
<asrwt>0</asrwt>
<pdfrwt beam="1">0</pdfrwt>
<pdfrwt beam="2">  1        2 0.38248172E+00 0.64863626E+03</pdfrwt>
<totfact> 0.46288053E+00</totfact>
</mgrwt>
</event>
<event>
 5    1  0.2311484E-004  0.6374996E+03  0.7818608E-02  0.9830522E-01
         13   -1    0    0    0    0  0.00000000000E+00  0.00000000000E+00  0.10000000000E+04  0.10000000000E+04  0.00000000000E+00 0. -1.
          2   -1    0    0  501    0 -0.00000000000E+00 -0.00000000000E+00 -0.10160143888E+03  0.10160143888E+03  0.00000000000E+00 0. -1.
    9000006    2    1    2  501    0  0.00000000000E+00  0.00000000000E+00  0.89839856112E+03  0.11016014389E+04  0.63749961219E+03 0.  0.
         13    1    3    3    0    0 -0.26300125335E+03  0.82299957991E+02  0.17240304958E+03  0.32506269219E+03  0.00000000000E+00 0. -1.
          2    1    3    3  501    0  0.26300125335E+03 -0.82299957991E+02  0.72599551154E+03  0.77653874670E+03  0.00000000000E+00 0. -1.
<mgrwt>
<rscale>  0 0.63749961E+03</rscale>
<asrwt>0</asrwt>
<pdfrwt beam="1">0</pdfrwt>
<pdfrwt beam="2">  1        2 0.36946056E+00 0.63749961E+03</pdfrwt>
<totfact> 0.51729889E+00</totfact>
</mgrwt>
</event>
<event>
 5    1  0.2311484E-004  0.6831780E+03  0.7818608E-02  0.9746441E-01
         13   -1    0    0    0    0  0.00000000000E+00  0.00000000000E+00  0.10000000000E+04  0.10000000000E+04  0.00000000000E+00 0. -1.
          2   -1    0    0  501    0 -0.00000000000E+00 -0.00000000000E+00 -0.11668304155E+03  0.11668304155E+03  0.00000000000E+00 0. -1.
    9000006    2    1    2  501    0  0.00000000000E+00  0.00000000000E+00  0.88331695845E+03  0.11166830416E+04  0.68317799014E+03 0.  0.
         13    1    3    3    0    0 -0.10409150197E+03  0.18328407411E+02 -0.89283576137E+02  0.13835652593E+03  0.00000000000E+00 0. -1.
          2    1    3    3  501    0  0.10409150197E+03 -0.18328407411E+02  0.97260053458E+03  0.97832651562E+03  0.00000000000E+00 0. -1.
<mgrwt>
<rscale>  0 0.68317799E+03</rscale>
<asrwt>0</asrwt>
<pdfrwt beam="1">0</pdfrwt>
<pdfrwt beam="2">  1        2 0.42430286E+00 0.68317799E+03</pdfrwt>
<totfact> 0.32123331E+00</totfact>
</mgrwt>
</event>
<event>
 5    1  0.2311484E-004  0.6574968E+03  0.7818608E-02  0.9792813E-01
         13   -1    0    0    0    0  0.00000000000E+00  0.00000000000E+00  0.10000000000E+04  0.10000000000E+04  0.00000000000E+00 0. -1.
          2   -1    0    0  501    0 -0.00000000000E+00 -0.00000000000E+00 -0.10807550300E+03  0.10807550300E+03  0.00000000000E+00 0. -1.
    9000006    2    1    2  501    0  0.00000000000E+00  0.00000000000E+00  0.89192449700E+03  0.11080755030E+04  0.65749677717E+03 0.  0.
         13    1    3    3    0    0  0.22948906756E+03  0.19880082700E+03  0.65839291051E+03  0.72502981011E+03  0.00000000000E+00 0. -1.
          2    1    3    3  501    0 -0.22948906756E+03 -0.19880082700E+03  0.23353158649E+03  0.38304569288E+03  0.00000000000E+00 0. -1.
<mgrwt>
<rscale>  0 0.65749678E+03</rscale>
<asrwt>0</asrwt>
<pdfrwt beam="1">0</pdfrwt>
<pdfrwt beam="2">  1        2 0.39300266E+00 0.65749678E+03</pdfrwt>
<totfact> 0.42277278E+00</totfact>
</mgrwt>
</event>
<event>
 5    1  0.2311484E-004  0.6573233E+03  0.7818608E-02  0.9793134E-01
         13   -1    0    0    0    0  0.00000000000E+00  0.00000000000E+00  0.10000000000E+04  0.10000000000E+04  0.00000000000E+00 0. -1.
          2   -1    0    0  501    0 -0.00000000000E+00 -0.00000000000E+00 -0.10801848534E+03  0.10801848534E+03  0.00000000000E+00 0. -1.
    9000006    2    1    2  501    0  0.00000000000E+00  0.00000000000E+00  0.89198151466E+03  0.11080184853E+04  0.65732331570E+03 0.  0.
         13    1    3    3    0    0 -0.13901263922E+03  0.29550218479E+03  0.50843797759E+03  0.60428075605E+03  0.00000000000E+00 0. -1.
          4    1    3    3  501    0  0.13901263922E+03 -0.29550218479E+03  0.38354353707E+03  0.50373772929E+03  0.00000000000E+00 0. -1.
<mgrwt>
<rscale>  0 0.65732332E+03</rscale>
<asrwt>0</asrwt>
<pdfrwt beam="1">0</pdfrwt>
<pdfrwt beam="2">  1        2 0.39279532E+00 0.65732332E+03</pdfrwt>
<totfact> 0.42353181E+00</totfact>
</mgrwt>
</event>
<event>
 5    1  0.2311484E-004  0.6365704E+03  0.7818608E-02  0.9832310E-01
         13   -1    0    0    0    0  0.00000000000E+00  0.00000000000E+00  0.10000000000E+04  0.10000000000E+04  0.00000000000E+00 0. -1.
          2   -1    0    0  501    0 -0.00000000000E+00 -0.00000000000E+00 -0.10130548185E+03  0.10130548185E+03  0.00000000000E+00 0. -1.
    9000006    2    1    2  501    0  0.00000000000E+00  0.00000000000E+00  0.89869451815E+03  0.11013054819E+04  0.63657044182E+03 0.  0.
         13    1    3    3    0    0 -0.25410704747E+03 -0.16539409403E+03  0.61690329003E+03  0.68738291161E+03  0.00000000000E+00 0. -1.
          4    1    3    3  501    0  0.25410704747E+03  0.16539409403E+03  0.28179122812E+03  0.41392257024E+03  0.00000000000E+00 0. -1.
<mgrwt>
<rscale>  0 0.63657044E+03</rscale>
<asrwt>0</asrwt>
<pdfrwt beam="1">0</pdfrwt>
<pdfrwt beam="2">  1        2 0.36838435E+00 0.63657044E+03</pdfrwt>
<totfact> 0.52204872E+00</totfact>
</mgrwt>
</event>
<event>
 5    1  0.2311484E-004  0.6537827E+03  0.7818608E-02  0.9799707E-01
         13   -1    0    0    0    0  0.00000000000E+00  0.00000000000E+00  0.10000000000E+04  0.10000000000E+04  0.00000000000E+00 0. -1.
          2   -1    0    0  501    0 -0.00000000000E+00 -0.00000000000E+00 -0.10685796637E+03  0.10685796637E+03  0.00000000000E+00 0. -1.
    9000006    2    1    2  501    0  0.00000000000E+00  0.00000000000E+00  0.89314203363E+03  0.11068579664E+04  0.65378273569E+03 0.  0.
         13    1    3    3    0    0  0.58118194149E+02 -0.34081294809E+02 -0.94975752380E+02  0.11644592173E+03  0.00000000000E+00 0. -1.
          2    1    3    3  501    0 -0.58118194149E+02  0.34081294809E+02  0.98811778601E+03  0.99041204464E+03  0.00000000000E+00 0. -1.
<mgrwt>
<rscale>  0 0.65378274E+03</rscale>
<asrwt>0</asrwt>
<pdfrwt beam="1">0</pdfrwt>
<pdfrwt beam="2">  1        2 0.38857524E+00 0.65378274E+03</pdfrwt>
<totfact> 0.43925085E+00</totfact>
</mgrwt>
</event>
<event>
 5    1  0.2311484E-004  0.6417825E+03  0.7818608E-02  0.9822322E-01
         13   -1    0    0    0    0  0.00000000000E+00  0.00000000000E+00  0.10000000000E+04  0.10000000000E+04  0.00000000000E+00 0. -1.
          2   -1    0    0  501    0 -0.00000000000E+00 -0.00000000000E+00 -0.10297118427E+03  0.10297118427E+03  0.00000000000E+00 0. -1.
    9000006    2    1    2  501    0  0.00000000000E+00  0.00000000000E+00  0.89702881573E+03  0.11029711843E+04  0.64178246865E+03 0.  0.
         13    1    3    3    0    0  0.17455642125E+03 -0.16870744324E+02 -0.13329149957E+02  0.17587561643E+03  0.00000000000E+00 0. -1.
          4    1    3    3  501    0 -0.17455642125E+03  0.16870744324E+02  0.91035796569E+03  0.92709556784E+03  0.00000000000E+00 0. -1.
<mgrwt>
<rscale>  0 0.64178247E+03</rscale>
<asrwt>0</asrwt>
<pdfrwt beam="1">0</pdfrwt>
<pdfrwt beam="2">  1        2 0.37444146E+00 0.64178247E+03</pdfrwt>
<totfact> 0.49582711E+00</totfact>
</mgrwt>
</event>
<event>
 5    1  0.2311484E-004  0.6441965E+03  0.7818608E-02  0.9817730E-01
         13   -1    0    0    0    0  0.00000000000E+00  0.00000000000E+00  0.10000000000E+04  0.10000000000E+04  0.00000000000E+00 0. -1.
          2   -1    0    0  501    0 -0.00000000000E+00 -0.00000000000E+00 -0.10374729469E+03  0.10374729469E+03  0.00000000000E+00 0. -1.
    9000006    2    1    2  501    0  0.00000000000E+00  0.00000000000E+00  0.89625270531E+03  0.11037472947E+04  0.64419653737E+03 0.  0.
         13    1    3    3    0    0 -0.27255495028E+03 -0.49352498681E+02  0.72979436516E+03  0.78059060042E+03  0.00000000000E+00 0. -1.
          2    1    3    3  501    0  0.27255495028E+03  0.49352498681E+02  0.16645834015E+03  0.32315669427E+03  0.00000000000E+00 0. -1.
<mgrwt>
<rscale>  0 0.64419654E+03</rscale>
<asrwt>0</asrwt>
<pdfrwt beam="1">0</pdfrwt>
<pdfrwt beam="2">  1        2 0.37726369E+00 0.64419654E+03</pdfrwt>
<totfact> 0.48402640E+00</totfact>
</mgrwt>
</event>
<event>
 5    1  0.2311484E-004  0.6428108E+03  0.7818608E-02  0.9820364E-01
         13   -1    0    0    0    0  0.00000000000E+00  0.00000000000E+00  0.10000000000E+04  0.10000000000E+04  0.00000000000E+00 0. -1.
          2   -1    0    0  501    0 -0.00000000000E+00 -0.00000000000E+00 -0.10330142419E+03  0.10330142419E+03  0.00000000000E+00 0. -1.
    9000006    2    1    2  501    0  0.00000000000E+00  0.00000000000E+00  0.89669857581E+03  0.11033014242E+04  0.64281077836E+03 0.  0.
         13    1    3    3    0    0  0.92571824843E+02 -0.23192849185E+03  0.10106067048E+03  0.26939492795E+03  0.00000000000E+00 0. -1.
          4    1    3    3  501    0 -0.92571824843E+02  0.23192849185E+03  0.79563790533E+03  0.83390649625E+03  0.00000000000E+00 0. -1.
<mgrwt>
<rscale>  0 0.64281078E+03</rscale>
<asrwt>0</asrwt>
<pdfrwt beam="1">0</pdfrwt>
<pdfrwt beam="2">  1        2 0.37564233E+00 0.64281078E+03</pdfrwt>
<totfact> 0.49077387E+00</totfact>
</mgrwt>
</event>
<event>
 5    1  0.2311484E-004  0.6315093E+03  0.7818608E-02  0.9842108E-01
         13   -1    0    0    0    0  0.00000000000E+00  0.00000000000E+00  0.10000000000E+04  0.10000000000E+04  0.00000000000E+00 0. -1.
          2   -1    0    0  501    0 -0.00000000000E+00 -0.00000000000E+00 -0.99701000127E+02  0.99701000127E+02  0.00000000000E+00 0. -1.
    9000006    2    1    2  501    0  0.00000000000E+00  0.00000000000E+00  0.90029899987E+03  0.10997010001E+04  0.63150930358E+03 0.  0.
         13    1    3    3    0    0 -0.22161185959E+03  0.21700252196E+03  0.34714116221E+03  0.46552002895E+03  0.00000000000E+00 0. -1.
          2    1    3    3  501    0  0.22161185959E+03 -0.21700252196E+03  0.55315783766E+03  0.63418097118E+03  0.00000000000E+00 0. -1.
<mgrwt>
<rscale>  0 0.63150930E+03</rscale>
<asrwt>0</asrwt>
<pdfrwt beam="1">0</pdfrwt>
<pdfrwt beam="2">  1        2 0.36254986E+00 0.63150930E+03</pdfrwt>
<totfact> 0.54850399E+00</totfact>
</mgrwt>
</event>
<event>
 5    1  0.2311484E-004  0.6469685E+03  0.7818608E-02  0.9812484E-01
         13   -1    0    0    0    0  0.00000000000E+00  0.00000000000E+00  0.10000000000E+04  0.10000000000E+04  0.00000000000E+00 0. -1.
          2   -1    0    0  501    0 -0.00000000000E+00 -0.00000000000E+00 -0.10464206679E+03  0.10464206679E+03  0.00000000000E+00 0. -1.
    9000006    2    1    2  501    0  0.00000000000E+00  0.00000000000E+00  0.89535793321E+03  0.11046420668E+04  0.64696852101E+03 0.  0.
         13    1    3    3    0    0  0.14392594061E+03 -0.28824702732E+03  0.39816278112E+03  0.51218612380E+03  0.00000000000E+00 0. -1.
          4    1    3    3  501    0 -0.14392594061E+03  0.28824702732E+03  0.49719515208E+03  0.59245594300E+03  0.00000000000E+00 0. -1.
<mgrwt>
<rscale>  0 0.64696852E+03</rscale>
<asrwt>0</asrwt>
<pdfrwt beam="1">0</pdfrwt>
<pdfrwt beam="2">  1        2 0.38051741E+00 0.64696852E+03</pdfrwt>
<totfact> 0.47074008E+00</totfact>
</mgrwt>
</event>
<event>
 5    1  0.2311484E-004  0.6635494E+03  0.7818608E-02  0.9781682E-01
         13   -1    0    0    0    0  0.00000000000E+00  0.00000000000E+00  0.10000000000E+04  0.10000000000E+04  0.00000000000E+00 0. -1.
          2   -1    0    0  501    0 -0.00000000000E+00 -0.00000000000E+00 -0.11007446771E+03  0.11007446771E+03  0.00000000000E+00 0. -1.
    9000006    2    1    2  501    0  0.00000000000E+00  0.00000000000E+00  0.88992553229E+03  0.11100744677E+04  0.66354944868E+03 0.  0.
         13    1    3    3    0    0  0.25722461112E+03  0.13239760302E+03  0.71668372994E+03  0.77287074897E+03  0.00000000000E+00 0. -1.
          2    1    3    3  501    0 -0.25722461112E+03 -0.13239760302E+03  0.17324180235E+03  0.33720371875E+03  0.00000000000E+00 0. -1.
<mgrwt>
<rscale>  0 0.66354945E+03</rscale>
<asrwt>0</asrwt>
<pdfrwt beam="1">0</pdfrwt>
<pdfrwt beam="2">  1        2 0.40027164E+00 0.66354945E+03</pdfrwt>
<totfact> 0.39692598E+00</totfact>
</mgrwt>
</event>
<event>
 5    1  0.2311484E-004  0.6501086E+03  0.7818608E-02  0.9806575E-01
         13   -1    0    0    0    0  0.00000000000E+00  0.00000000000E+00  0.10000000000E+04  0.10000000000E+04  0.00000000000E+00 0. -1.
          2   -1    0    0  501    0 -0.00000000000E+00 -0.00000000000E+00 -0.10566029903E+03  0.10566029903E+03  0.00000000000E+00 0. -1.
    9000006    2    1    2  501    0  0.00000000000E+00  0.00000000000E+00  0.89433970097E+03  0.11056602990E+04  0.65010860333E+03 0.  0.
         13    1    3    3    0    0 -0.56917035036E+02  0.12462212387E+03  0.94849661583E+03  0.95834025945E+03  0.00000000000E+00 0. -1.
          4    1    3    3  501    0  0.56917035036E+02 -0.12462212387E+03 -0.54156914863E+02  0.14732003958E+03  0.00000000000E+00 0. -1.
<mgrwt>
<rscale>  0 0.65010860E+03</rscale>
<asrwt>0</asrwt>
<pdfrwt beam="1">0</pdfrwt>
<pdfrwt beam="2">  1        2 0.38422008E+00 0.65010860E+03</pdfrwt>
<totfact> 0.45602466E+00</totfact>
</mgrwt>
</event>
<event>
 5    1  0.2311484E-004  0.7198656E+03  0.7818608E-02  0.9683850E-01
         13   -1    0    0    0    0  0.00000000000E+00  0.00000000000E+00  0.10000000000E+04  0.10000000000E+04  0.00000000000E+00 0. -1.
          2   -1    0    0  501    0 -0.00000000000E+00 -0.00000000000E+00 -0.12955162236E+03  0.12955162236E+03  0.00000000000E+00 0. -1.
    9000006    2    1    2  501    0  0.00000000000E+00  0.00000000000E+00  0.87044837764E+03  0.11295516224E+04  0.71986560512E+03 0.  0.
         13    1    3    3    0    0  0.19621520705E+03  0.77547293603E+02 -0.22348652395E+02  0.21216373980E+03  0.00000000000E+00 0. -1.
          2    1    3    3  501    0 -0.19621520705E+03 -0.77547293603E+02  0.89279703004E+03  0.91738788256E+03  0.00000000000E+00 0. -1.
<mgrwt>
<rscale>  0 0.71986561E+03</rscale>
<asrwt>0</asrwt>
<pdfrwt beam="1">0</pdfrwt>
<pdfrwt beam="2">  1        2 0.47109780E+00 0.71986561E+03</pdfrwt>
<totfact> 0.20942345E+00</totfact>
</mgrwt>
</event>
<event>
 5    1  0.2311484E-004  0.6513727E+03  0.7818608E-02  0.9804207E-01
         13   -1    0    0    0    0  0.00000000000E+00  0.00000000000E+00  0.10000000000E+04  0.10000000000E+04  0.00000000000E+00 0. -1.
          2   -1    0    0  501    0 -0.00000000000E+00 -0.00000000000E+00 -0.10607159448E+03  0.10607159448E+03  0.00000000000E+00 0. -1.
    9000006    2    1    2  501    0  0.00000000000E+00  0.00000000000E+00  0.89392840552E+03  0.11060715945E+04  0.65137268741E+03 0.  0.
         13    1    3    3    0    0 -0.11893139694E+03 -0.30303189755E+03  0.46382437963E+03  0.56666221266E+03  0.00000000000E+00 0. -1.
          2    1    3    3  501    0  0.11893139694E+03  0.30303189755E+03  0.43010402589E+03  0.53940938182E+03  0.00000000000E+00 0. -1.
<mgrwt>
<rscale>  0 0.65137269E+03</rscale>
<asrwt>0</asrwt>
<pdfrwt beam="1">0</pdfrwt>
<pdfrwt beam="2">  1        2 0.38571570E+00 0.65137269E+03</pdfrwt>
<totfact> 0.45019999E+00</totfact>
</mgrwt>
</event>
<event>
 5    1  0.2311484E-004  0.6534256E+03  0.7818608E-02  0.9800373E-01
         13   -1    0    0    0    0  0.00000000000E+00  0.00000000000E+00  0.10000000000E+04  0.10000000000E+04  0.00000000000E+00 0. -1.
          4   -1    0    0  501    0 -0.00000000000E+00 -0.00000000000E+00 -0.10674124254E+03  0.10674124254E+03  0.00000000000E+00 0. -1.
    9000006    2    1    2  501    0  0.00000000000E+00  0.00000000000E+00  0.89325875746E+03  0.11067412425E+04  0.65342556588E+03 0.  0.
         13    1    3    3    0    0 -0.30733263418E+03 -0.95738611938E+02  0.54126776001E+03  0.62975393439E+03  0.00000000000E+00 0. -1.
          4    1    3    3  501    0  0.30733263418E+03  0.95738611938E+02  0.35199099745E+03  0.47698730815E+03  0.00000000000E+00 0. -1.
<mgrwt>
<rscale>  0 0.65342557E+03</rscale>
<asrwt>0</asrwt>
<pdfrwt beam="1">0</pdfrwt>
<pdfrwt beam="2">  1        4 0.38815079E+00 0.65342557E+03</pdfrwt>
<totfact> 0.38644402E-02</totfact>
</mgrwt>
</event>
<event>
 5    1  0.2311484E-004  0.6572632E+03  0.7818608E-02  0.9793245E-01
         13   -1    0    0    0    0  0.00000000000E+00  0.00000000000E+00  0.10000000000E+04  0.10000000000E+04  0.00000000000E+00 0. -1.
          2   -1    0    0  501    0 -0.00000000000E+00 -0.00000000000E+00 -0.10799871226E+03  0.10799871226E+03  0.00000000000E+00 0. -1.
    9000006    2    1    2  501    0  0.00000000000E+00  0.00000000000E+00  0.89200128774E+03  0.11079987123E+04  0.65726315051E+03 0.  0.
         13    1    3    3    0    0 -0.28404803787E+03 -0.10456362146E+03  0.66176602038E+03  0.72770262091E+03  0.00000000000E+00 0. -1.
          2    1    3    3  501    0  0.28404803787E+03  0.10456362146E+03  0.23023526736E+03  0.38029609134E+03  0.00000000000E+00 0. -1.
<mgrwt>
<rscale>  0 0.65726315E+03</rscale>
<asrwt>0</asrwt>
<pdfrwt beam="1">0</pdfrwt>
<pdfrwt beam="2">  1        2 0.39272342E+00 0.65726315E+03</pdfrwt>
<totfact> 0.42379533E+00</totfact>
</mgrwt>
</event>
<event>
 5    1  0.2311484E-004  0.7386201E+03  0.7818608E-02  0.9653375E-01
         13   -1    0    0    0    0  0.00000000000E+00  0.00000000000E+00  0.10000000000E+04  0.10000000000E+04  0.00000000000E+00 0. -1.
          2   -1    0    0  501    0 -0.00000000000E+00 -0.00000000000E+00 -0.13638991460E+03  0.13638991460E+03  0.00000000000E+00 0. -1.
    9000006    2    1    2  501    0  0.00000000000E+00  0.00000000000E+00  0.86361008540E+03  0.11363899146E+04  0.73862010424E+03 0.  0.
         13    1    3    3    0    0 -0.27898409617E+03 -0.29192888437E+02  0.62219400566E+02  0.28732491096E+03  0.00000000000E+00 0. -1.
          2    1    3    3  501    0  0.27898409617E+03  0.29192888437E+02  0.80139068484E+03  0.84906500363E+03  0.00000000000E+00 0. -1.
<mgrwt>
<rscale>  0 0.73862010E+03</rscale>
<asrwt>0</asrwt>
<pdfrwt beam="1">0</pdfrwt>
<pdfrwt beam="2">  1        2 0.49596437E+00 0.73862010E+03</pdfrwt>
<totfact> 0.16516499E+00</totfact>
</mgrwt>
</event>
<event>
 5    1  0.2311484E-004  0.6458610E+03  0.7818608E-02  0.9814577E-01
         13   -1    0    0    0    0  0.00000000000E+00  0.00000000000E+00  0.10000000000E+04  0.10000000000E+04  0.00000000000E+00 0. -1.
          2   -1    0    0  501    0 -0.00000000000E+00 -0.00000000000E+00 -0.10428409259E+03  0.10428409259E+03  0.00000000000E+00 0. -1.
    9000006    2    1    2  501    0  0.00000000000E+00  0.00000000000E+00  0.89571590741E+03  0.11042840926E+04  0.64586095281E+03 0.  0.
         13    1    3    3    0    0 -0.11104751893E+03  0.22880356834E+03  0.10760850426E+03  0.27615614158E+03  0.00000000000E+00 0. -1.
          2    1    3    3  501    0  0.11104751893E+03 -0.22880356834E+03  0.78810740315E+03  0.82812795101E+03  0.00000000000E+00 0. -1.
<mgrwt>
<rscale>  0 0.64586095E+03</rscale>
<asrwt>0</asrwt>
<pdfrwt beam="1">0</pdfrwt>
<pdfrwt beam="2">  1        2 0.37921568E+00 0.64586095E+03</pdfrwt>
<totfact> 0.47601520E+00</totfact>
</mgrwt>
</event>
