<event>
 6    1  0.2108260E-003  0.6530165E+03  0.7818608E-02  0.9801135E-01
          1   -1    0    0  502    0  0.00000000000E+00  0.00000000000E+00  0.10660957359E+03  0.10660957359E+03  0.00000000000E+00 0.  1.
         13   -1    0    0    0    0 -0.00000000000E+00 -0.00000000000E+00 -0.10000000000E+04  0.10000000000E+04  0.00000000000E+00 0.  1.
    9000005    2    1    2  501    0  0.30228545052E-03  0.57000905628E-03 -0.89339231354E+03  0.11066075792E+04  0.65301646875E+03 0.  0.
         13    1    3    3    0    0 -0.26016564774E+03  0.10051680726E+03 -0.15902250728E+03  0.32105755034E+03  0.00000000000E+00 0.  1.
          1    1    3    3  501    0  0.26016595003E+03 -0.10051623725E+03 -0.73436980626E+03  0.78555002887E+03  0.00000000000E+00 0.  1.
         21    1    1    2  502  501 -0.30228545050E-03 -0.57000905628E-03  0.18871366378E-02  0.19943849948E-02  0.00000000000E+00 0. -1.
<mgrwt>
<rscale>  1 0.65301647E+03</rscale>
<asrwt>0</asrwt>
<pdfrwt beam="1">  1        1 0.38767199E+00 0.65301647E+03</pdfrwt>
<pdfrwt beam="2">0</pdfrwt>
<totfact> 0.15168517E+00</totfact>
</mgrwt>
</event>
<event>
 6    1  0.2108260E-003  0.7036371E+03  0.7818608E-02  0.9711032E-01
          1   -1    0    0  502    0  0.00000000000E+00  0.00000000000E+00  0.12377744867E+03  0.12377744867E+03  0.00000000000E+00 0.  1.
         13   -1    0    0    0    0 -0.00000000000E+00 -0.00000000000E+00 -0.10000000000E+04  0.10000000000E+04  0.00000000000E+00 0.  1.
    9000005    2    1    2  501    0 -0.28885668152E-03  0.10742891802E-03 -0.87622367943E+03  0.11237762792E+04  0.70363711484E+03 0.  0.
         13    1    3    3    0    0  0.13632812434E+03 -0.22162313934E+02 -0.95488962951E+03  0.96482678767E+03  0.00000000000E+00 0.  1.
          1    1    3    3  501    0 -0.13632841320E+03  0.22162421363E+02  0.78665950087E+02  0.15894949157E+03  0.00000000000E+00 0.  1.
         21    1    1    2  502  501  0.28885668153E-03 -0.10742891802E-03  0.11280951517E-02  0.11694348319E-02  0.00000000000E+00 0. -1.
<mgrwt>
<rscale>  1 0.70363711E+03</rscale>
<asrwt>0</asrwt>
<pdfrwt beam="1">  1        1 0.45010076E+00 0.70363711E+03</pdfrwt>
<pdfrwt beam="2">0</pdfrwt>
<totfact> 0.78509431E-01</totfact>
</mgrwt>
</event>
<event>
 6    1  0.2108260E-003  0.6466521E+03  0.7818608E-02  0.9813082E-01
          1   -1    0    0  502    0  0.00000000000E+00  0.00000000000E+00  0.10490477331E+03  0.10490477331E+03  0.00000000000E+00 0.  1.
         13   -1    0    0    0    0 -0.00000000000E+00 -0.00000000000E+00 -0.10000000000E+04  0.10000000000E+04  0.00000000000E+00 0.  1.
    9000005    2    1    2  501    0  0.18962320378E+00  0.10282297120E+00 -0.89542475406E+03  0.11045109233E+04  0.64665202624E+03 0.  0.
         13    1    3    3    0    0  0.49562577882E+01  0.30174405208E+03 -0.24934128402E+03  0.39146534122E+03  0.00000000000E+00 0.  1.
          1    1    3    3  501    0 -0.47666345844E+01 -0.30164122911E+03 -0.64608347004E+03  0.71304558211E+03  0.00000000000E+00 0.  1.
         21    1    1    2  502  501 -0.18962320378E+00 -0.10282297120E+00  0.32952736859E+00  0.39384998346E+00  0.00000000000E+00 0.  1.
<mgrwt>
<rscale>  1 0.64665206E+03</rscale>
<asrwt>0</asrwt>
<pdfrwt beam="1">  1        1 0.38147271E+00 0.64665206E+03</pdfrwt>
<pdfrwt beam="2">0</pdfrwt>
<totfact> 0.16175895E+00</totfact>
</mgrwt>
</event>
<event>
 6    1  0.2108260E-003  0.6562327E+03  0.7818608E-02  0.9795154E-01
          1   -1    0    0  502    0  0.00000000000E+00  0.00000000000E+00  0.10767457456E+03  0.10767457456E+03  0.00000000000E+00 0.  1.
         13   -1    0    0    0    0 -0.00000000000E+00 -0.00000000000E+00 -0.10000000000E+04  0.10000000000E+04  0.00000000000E+00 0.  1.
    9000005    2    1    2  501    0 -0.20198490003E-02 -0.61432510532E-03 -0.89233957051E+03  0.11076602728E+04  0.65623271089E+03 0.  0.
         13    1    3    3    0    0  0.25902317709E+03  0.16575119886E+03 -0.63930859376E+03  0.70942367049E+03  0.00000000000E+00 0.  1.
          3    1    3    3  501    0 -0.25902519694E+03 -0.16575181319E+03 -0.25303097676E+03  0.39823660232E+03  0.00000000000E+00 0.  1.
         21    1    1    2  502  501  0.20198490003E-02  0.61432510532E-03  0.14145071424E-01  0.14301756218E-01  0.00000000000E+00 0.  1.
<mgrwt>
<rscale>  1 0.65623271E+03</rscale>
<asrwt>0</asrwt>
<pdfrwt beam="1">  1        1 0.39154473E+00 0.65623271E+03</pdfrwt>
<pdfrwt beam="2">0</pdfrwt>
<totfact> 0.14571791E+00</totfact>
</mgrwt>
</event>
<event>
 6    1  0.2108260E-003  0.6497058E+03  0.7818608E-02  0.9807331E-01
          1   -1    0    0  502    0  0.00000000000E+00  0.00000000000E+00  0.10552972162E+03  0.10552972162E+03  0.00000000000E+00 0.  1.
         13   -1    0    0    0    0 -0.00000000000E+00 -0.00000000000E+00 -0.10000000000E+04  0.10000000000E+04  0.00000000000E+00 0.  1.
    9000005    2    1    2  501    0  0.55822100919E-04  0.12652533997E-03 -0.89447056146E+03  0.11055294066E+04  0.64970584380E+03 0.  0.
         13    1    3    3    0    0  0.10265360971E+03  0.30721840867E+03 -0.48921147734E+03  0.58672718002E+03  0.00000000000E+00 0.  1.
          3    1    3    3  501    0 -0.10265355389E+03 -0.30721828214E+03 -0.40525908412E+03  0.51880222655E+03  0.00000000000E+00 0.  1.
         21    1    1    2  502  501 -0.55822100921E-04 -0.12652533997E-03  0.28307638597E-03  0.31505080368E-03  0.00000000000E+00 0. -1.
<mgrwt>
<rscale>  1 0.64970584E+03</rscale>
<asrwt>0</asrwt>
<pdfrwt beam="1">  1        1 0.38374525E+00 0.64970584E+03</pdfrwt>
<pdfrwt beam="2">0</pdfrwt>
<totfact> 0.15797344E+00</totfact>
</mgrwt>
</event>
<event>
 6    1  0.2471167E-003  0.6304611E+03  0.7818608E-02  0.9844149E-01
          1   -1    0    0  502    0  0.00000000000E+00  0.00000000000E+00  0.99370339952E+02  0.99370339952E+02  0.00000000000E+00 0.  1.
         13   -1    0    0    0    0 -0.00000000000E+00 -0.00000000000E+00 -0.10000000000E+04  0.10000000000E+04  0.00000000000E+00 0.  1.
    9000005    2    1    2  501    0  0.28630203957E-04  0.14352093956E-04 -0.90062968674E+03  0.10993702983E+04  0.63046111700E+03 0.  0.
         13    1    3    3    0    0  0.14242860067E+03 -0.19079063533E+03 -0.81057386152E+03  0.84481770684E+03  0.00000000000E+00 0.  1.
          3    1    3    3  501    0 -0.14242857204E+03  0.19079064968E+03 -0.90055825223E+02  0.25455259141E+03  0.00000000000E+00 0.  1.
         21    1    1    2  502  501 -0.28630203933E-04 -0.14352093963E-04  0.26695397893E-04  0.41693110307E-04  0.00000000000E+00 0.  1.
<mgrwt>
<rscale>  1 0.63046112E+03</rscale>
<asrwt>0</asrwt>
<pdfrwt beam="1">  1        1 0.36134745E+00 0.63046112E+03</pdfrwt>
<pdfrwt beam="2">0</pdfrwt>
<totfact> 0.19888357E+00</totfact>
</mgrwt>
</event>
<event>
 6    1  0.2108260E-003  0.6456327E+03  0.7818608E-02  0.9815009E-01
          1   -1    0    0  502    0  0.00000000000E+00  0.00000000000E+00  0.10421073310E+03  0.10421073310E+03  0.00000000000E+00 0.  1.
         13   -1    0    0    0    0 -0.00000000000E+00 -0.00000000000E+00 -0.10000000000E+04  0.10000000000E+04  0.00000000000E+00 0.  1.
    9000005    2    1    2  501    0  0.90951012942E-03  0.38572538344E-04 -0.89578874106E+03  0.11042096818E+04  0.64563267638E+03 0.  0.
         13    1    3    3    0    0 -0.31896066415E+03  0.44337985458E+02 -0.48645420658E+03  0.58338619913E+03  0.00000000000E+00 0.  1.
          3    1    3    3  501    0  0.31896157366E+03 -0.44337946886E+02 -0.40933453448E+03  0.52082348269E+03  0.00000000000E+00 0.  1.
         21    1    1    2  502  501 -0.90951012946E-03 -0.38572538347E-04 -0.52583632994E-03  0.10512851003E-02  0.00000000000E+00 0. -1.
<mgrwt>
<rscale>  1 0.64563268E+03</rscale>
<asrwt>0</asrwt>
<pdfrwt beam="1">  1        1 0.37894892E+00 0.64563268E+03</pdfrwt>
<pdfrwt beam="2">0</pdfrwt>
<totfact> 0.16599167E+00</totfact>
</mgrwt>
</event>
<event>
 6    1  0.2108260E-003  0.6514181E+03  0.7818608E-02  0.9804122E-01
          1   -1    0    0  502    0  0.00000000000E+00  0.00000000000E+00  0.10658851449E+03  0.10658851449E+03  0.00000000000E+00 0.  1.
         13   -1    0    0    0    0 -0.00000000000E+00 -0.00000000000E+00 -0.10000000000E+04  0.10000000000E+04  0.00000000000E+00 0.  1.
    9000005    2    1    2  501    0  0.88700296903E-02 -0.10557682082E-01 -0.89391351361E+03  0.11060862971E+04  0.65141808889E+03 0.  0.
         13    1    3    3    0    0  0.11026876225E+03 -0.30564924361E+03 -0.40862288430E+03  0.52206639579E+03  0.00000000000E+00 0.  1.
          3    1    3    3  501    0 -0.11025989222E+03  0.30563868593E+03 -0.48529062931E+03  0.58401990126E+03  0.00000000000E+00 0.  1.
         21    1    1    2  502  501 -0.88700296903E-02  0.10557682082E-01  0.50202809366E+00  0.50221743189E+00  0.00000000000E+00 0. -1.
<mgrwt>
<rscale>  1 0.65141809E+03</rscale>
<asrwt>0</asrwt>
<pdfrwt beam="1">  1        1 0.38759542E+00 0.65141809E+03</pdfrwt>
<pdfrwt beam="2">0</pdfrwt>
<totfact> 0.15184862E+00</totfact>
</mgrwt>
</event>
<event>
 6    1  0.2108260E-003  0.6444402E+03  0.7818608E-02  0.9817268E-01
          1   -1    0    0  502    0  0.00000000000E+00  0.00000000000E+00  0.10486003443E+03  0.10486003443E+03  0.00000000000E+00 0.  1.
         13   -1    0    0    0    0 -0.00000000000E+00 -0.00000000000E+00 -0.10000000000E+04  0.10000000000E+04  0.00000000000E+00 0.  1.
    9000005    2    1    2  501    0  0.14873846895E-01  0.17893827025E-01 -0.89617405065E+03  0.11038256876E+04  0.64444023696E+03 0.  0.
         13    1    3    3    0    0  0.24769970521E+03 -0.10386921945E+03 -0.75297564176E+03  0.79944748158E+03  0.00000000000E+00 0.  1.
          1    1    3    3  501    0 -0.24768483136E+03  0.10388711328E+03 -0.14319840888E+03  0.30437820602E+03  0.00000000000E+00 0.  1.
         21    1    1    2  502  501 -0.14873846895E-01 -0.17893827025E-01  0.10340850770E+01  0.10343468310E+01  0.00000000000E+00 0. -1.
<mgrwt>
<rscale>  1 0.64444024E+03</rscale>
<asrwt>0</asrwt>
<pdfrwt beam="1">  1        1 0.38131002E+00 0.64444024E+03</pdfrwt>
<pdfrwt beam="2">0</pdfrwt>
<totfact> 0.16209283E+00</totfact>
</mgrwt>
</event>
<event>
 6    1  0.2108260E-003  0.6408063E+03  0.7818608E-02  0.9824185E-01
          1   -1    0    0  502    0  0.00000000000E+00  0.00000000000E+00  0.10265892532E+03  0.10265892532E+03  0.00000000000E+00 0.  1.
         13   -1    0    0    0    0 -0.00000000000E+00 -0.00000000000E+00 -0.10000000000E+04  0.10000000000E+04  0.00000000000E+00 0.  1.
    9000005    2    1    2  501    0 -0.35756920246E-03  0.66275588446E-03 -0.89734159135E+03  0.11026580121E+04  0.64080633579E+03 0.  0.
         13    1    3    3    0    0  0.22045232070E+03  0.13285360488E+03 -0.12033536337E+03  0.28413008589E+03  0.00000000000E+00 0.  1.
          3    1    3    3  501    0 -0.22045267827E+03 -0.13285294212E+03 -0.77700622798E+03  0.81852792616E+03  0.00000000000E+00 0.  1.
         21    1    1    2  502  501  0.35756920248E-03 -0.66275588446E-03  0.51667217831E-03  0.91326405644E-03  0.00000000000E+00 0.  1.
<mgrwt>
<rscale>  1 0.64080634E+03</rscale>
<asrwt>0</asrwt>
<pdfrwt beam="1">  1        1 0.37330597E+00 0.64080634E+03</pdfrwt>
<pdfrwt beam="2">0</pdfrwt>
<totfact> 0.17592294E+00</totfact>
</mgrwt>
</event>
<event>
 6    1  0.2108260E-003  0.6089636E+03  0.7818608E-02  0.9886982E-01
          1   -1    0    0  502    0  0.00000000000E+00  0.00000000000E+00  0.11771126319E+03  0.11771126319E+03  0.00000000000E+00 0.  1.
         13   -1    0    0    0    0 -0.00000000000E+00 -0.00000000000E+00 -0.10000000000E+04  0.10000000000E+04  0.00000000000E+00 0.  1.
    9000005    2    1    2  501    0  0.58572790410E+01  0.89815951439E+00 -0.90690664083E+03  0.10923902125E+04  0.60893481328E+03 0.  0.
         13    1    3    3    0    0  0.11030718122E+03  0.22968169520E+03 -0.15199707301E+03  0.29668917328E+03  0.00000000000E+00 0.  1.
          1    1    3    3  501    0 -0.10444990218E+03 -0.22878353568E+03 -0.75490956782E+03  0.79570103924E+03  0.00000000000E+00 0.  1.
         21    1    1    2  502  501 -0.58572790410E+01 -0.89815951439E+00  0.24617904025E+02  0.25321050666E+02  0.00000000000E+00 0. -1.
<mgrwt>
<rscale>  1 0.60896365E+03</rscale>
<asrwt>0</asrwt>
<pdfrwt beam="1">  1        1 0.42804186E+00 0.60896365E+03</pdfrwt>
<pdfrwt beam="2">0</pdfrwt>
<totfact> 0.10094196E+00</totfact>
</mgrwt>
</event>
<event>
 6    1  0.2108260E-003  0.6410732E+03  0.7818608E-02  0.9823675E-01
          1   -1    0    0  502    0  0.00000000000E+00  0.00000000000E+00  0.10274733201E+03  0.10274733201E+03  0.00000000000E+00 0.  1.
         13   -1    0    0    0    0 -0.00000000000E+00 -0.00000000000E+00 -0.10000000000E+04  0.10000000000E+04  0.00000000000E+00 0.  1.
    9000005    2    1    2  501    0 -0.25183183176E-02  0.74099414022E-03 -0.89725576413E+03  0.11027432728E+04  0.64107317794E+03 0.  0.
         13    1    3    3    0    0  0.23055091562E+03 -0.21754759964E+03 -0.53044259606E+03  0.61794015125E+03  0.00000000000E+00 0.  1.
          3    1    3    3  501    0 -0.23055343394E+03  0.21754834064E+03 -0.36681316806E+03  0.48480312157E+03  0.00000000000E+00 0.  1.
         21    1    1    2  502  501  0.25183183176E-02 -0.74099414022E-03  0.30961320818E-02  0.40591912166E-02  0.00000000000E+00 0.  1.
<mgrwt>
<rscale>  1 0.64107318E+03</rscale>
<asrwt>0</asrwt>
<pdfrwt beam="1">  1        1 0.37362745E+00 0.64107318E+03</pdfrwt>
<pdfrwt beam="2">0</pdfrwt>
<totfact> 0.17534251E+00</totfact>
</mgrwt>
</event>
<event>
 6    1  0.2108260E-003  0.6522838E+03  0.7818608E-02  0.9802503E-01
          1   -1    0    0  502    0  0.00000000000E+00  0.00000000000E+00  0.10652932351E+03  0.10652932351E+03  0.00000000000E+00 0.  1.
         13   -1    0    0    0    0 -0.00000000000E+00 -0.00000000000E+00 -0.10000000000E+04  0.10000000000E+04  0.00000000000E+00 0.  1.
    9000005    2    1    2  501    0  0.50393077294E-01  0.71531359510E-01 -0.89361818226E+03  0.11063578180E+04  0.65228380177E+03 0.  0.
         13    1    3    3    0    0  0.71068725004E+02 -0.30239931501E+03 -0.61514463839E+03  0.68912918638E+03  0.00000000000E+00 0.  1.
          3    1    3    3  501    0 -0.71018331927E+02  0.30247084637E+03 -0.27847354388E+03  0.41722863158E+03  0.00000000000E+00 0.  1.
         21    1    1    2  502  501 -0.50393077294E-01 -0.71531359510E-01  0.14750577455E+00  0.17150554265E+00  0.00000000000E+00 0. -1.
<mgrwt>
<rscale>  1 0.65228381E+03</rscale>
<asrwt>0</asrwt>
<pdfrwt beam="1">  1        1 0.38738018E+00 0.65228381E+03</pdfrwt>
<pdfrwt beam="2">0</pdfrwt>
<totfact> 0.15215788E+00</totfact>
</mgrwt>
</event>
<event>
 6    1  0.2108260E-003  0.6521556E+03  0.7818608E-02  0.9802743E-01
          1   -1    0    0  502    0  0.00000000000E+00  0.00000000000E+00  0.11051050199E+03  0.11051050199E+03  0.00000000000E+00 0.  1.
         13   -1    0    0    0    0 -0.00000000000E+00 -0.00000000000E+00 -0.10000000000E+04  0.10000000000E+04  0.00000000000E+00 0.  1.
    9000005    2    1    2  501    0 -0.92912092869E+00 -0.14711962079E+01 -0.89347219507E+03  0.11061642899E+04  0.65215323746E+03 0.  0.
         13    1    3    3    0    0  0.64065936825E+01  0.31227254217E+03 -0.60033146860E+03  0.67672228960E+03  0.00000000000E+00 0.  1.
          1    1    3    3  501    0 -0.73357146112E+01 -0.31374373838E+03 -0.29314072646E+03  0.42944200027E+03  0.00000000000E+00 0.  1.
         21    1    1    2  502  501  0.92912092869E+00  0.14711962079E+01  0.39826970627E+01  0.43462121296E+01  0.00000000000E+00 0. -1.
<mgrwt>
<rscale>  1 0.65215556E+03</rscale>
<asrwt>0</asrwt>
<pdfrwt beam="1">  1        1 0.40185722E+00 0.65215556E+03</pdfrwt>
<pdfrwt beam="2">0</pdfrwt>
<totfact> 0.13120610E+00</totfact>
</mgrwt>
</event>
<event>
 6    1  0.2108260E-003  0.6463067E+03  0.7818608E-02  0.9813734E-01
          1   -1    0    0  502    0  0.00000000000E+00  0.00000000000E+00  0.10442832193E+03  0.10442832193E+03  0.00000000000E+00 0.  1.
         13   -1    0    0    0    0 -0.00000000000E+00 -0.00000000000E+00 -0.10000000000E+04  0.10000000000E+04  0.00000000000E+00 0.  1.
    9000005    2    1    2  501    0  0.56451787160E-04 -0.45588821706E-04 -0.89557190587E+03  0.11044280829E+04  0.64630670088E+03 0.  0.
         13    1    3    3    0    0  0.88016801359E+02 -0.31006967618E+03 -0.40815198884E+03  0.52007519399E+03  0.00000000000E+00 0.  1.
          1    1    3    3  501    0 -0.88016744907E+02  0.31006963060E+03 -0.48741991703E+03  0.58435288886E+03  0.00000000000E+00 0.  1.
         21    1    1    2  502  501 -0.56451787154E-04  0.45588821730E-04  0.22780233098E-03  0.23907958286E-03  0.00000000000E+00 0.  1.
<mgrwt>
<rscale>  1 0.64630670E+03</rscale>
<asrwt>0</asrwt>
<pdfrwt beam="1">  1        1 0.37974015E+00 0.64630670E+03</pdfrwt>
<pdfrwt beam="2">0</pdfrwt>
<totfact> 0.16464271E+00</totfact>
</mgrwt>
</event>
<event>
 6    1  0.2108260E-003  0.6477473E+03  0.7818608E-02  0.9811015E-01
          1   -1    0    0  502    0  0.00000000000E+00  0.00000000000E+00  0.10512994218E+03  0.10512994218E+03  0.00000000000E+00 0.  1.
         13   -1    0    0    0    0 -0.00000000000E+00 -0.00000000000E+00 -0.10000000000E+04  0.10000000000E+04  0.00000000000E+00 0.  1.
    9000005    2    1    2  501    0 -0.23317501370E-02 -0.13499762124E-01 -0.89510565175E+03  0.11048939503E+04  0.64774726041E+03 0.  0.
         13    1    3    3    0    0 -0.11430405014E+02 -0.57191635617E+02 -0.99097236650E+03  0.99268714533E+03  0.00000000000E+00 0.  1.
          3    1    3    3  501    0  0.11428073264E+02  0.57178135855E+02  0.95866714751E+02  0.11220680494E+03  0.00000000000E+00 0.  1.
         21    1    1    2  502  501  0.23317501370E-02  0.13499762124E-01  0.23559392498E+00  0.23599190267E+00  0.00000000000E+00 0. -1.
<mgrwt>
<rscale>  1 0.64774726E+03</rscale>
<asrwt>0</asrwt>
<pdfrwt beam="1">  1        1 0.38229150E+00 0.64774726E+03</pdfrwt>
<pdfrwt beam="2">0</pdfrwt>
<totfact> 0.16038535E+00</totfact>
</mgrwt>
</event>
<event>
 6    1  0.3330347E-003  0.6462026E+03  0.7818608E-02  0.9813931E-01
          1   -1    0    0  502    0  0.00000000000E+00  0.00000000000E+00  0.10439444432E+03  0.10439444432E+03  0.00000000000E+00 0.  1.
         13   -1    0    0    0    0 -0.00000000000E+00 -0.00000000000E+00 -0.10000000000E+04  0.10000000000E+04  0.00000000000E+00 0.  1.
    9000005    2    1    2  501    0  0.87507566775E-05 -0.14132844626E-04 -0.89560554784E+03  0.11043944259E+04  0.64620256170E+03 0.  0.
         13    1    3    3    0    0 -0.13291947034E+03  0.27588391158E+03 -0.62388428283E+03  0.69499001189E+03  0.00000000000E+00 0.  1.
          1    1    3    3  501    0  0.13291947909E+03 -0.27588392572E+03 -0.27172126500E+03  0.40940441405E+03  0.00000000000E+00 0.  1.
         21    1    1    2  502  501 -0.87507566590E-05  0.14132844644E-04 -0.78399578673E-05  0.18378737149E-04  0.00000000000E+00 0. -1.
<mgrwt>
<rscale>  1 0.64620256E+03</rscale>
<asrwt>0</asrwt>
<pdfrwt beam="1">  1        1 0.37961696E+00 0.64620256E+03</pdfrwt>
<pdfrwt beam="2">0</pdfrwt>
<totfact> 0.16485203E+00</totfact>
</mgrwt>
</event>
<event>
 6    1  0.2108260E-003  0.5840577E+03  0.7818608E-02  0.9939045E-01
          1   -1    0    0  502    0  0.00000000000E+00  0.00000000000E+00  0.86016474448E+02  0.86016474448E+02  0.00000000000E+00 0.  1.
         13   -1    0    0    0    0 -0.00000000000E+00 -0.00000000000E+00 -0.10000000000E+04  0.10000000000E+04  0.00000000000E+00 0.  1.
    9000005    2    1    2  501    0 -0.36334443770E-01 -0.80138013590E+00 -0.91447546523E+03  0.10850754458E+04  0.58405710593E+03 0.  0.
         13    1    3    3    0    0  0.87994157198E+02  0.50931573047E+02  0.51325795790E+02  0.11389176506E+03  0.00000000000E+00 0.  1.
          3    1    3    3  501    0 -0.88030491642E+02 -0.51732953183E+02 -0.96580126102E+03  0.97118368072E+03  0.00000000000E+00 0.  1.
         21    1    1    2  502  501  0.36334443770E-01  0.80138013590E+00  0.49193968018E+00  0.94102867276E+00  0.00000000000E+00 0.  1.
<mgrwt>
<rscale>  1 0.58405766E+03</rscale>
<asrwt>0</asrwt>
<pdfrwt beam="1">  1        1 0.31278784E+00 0.58405766E+03</pdfrwt>
<pdfrwt beam="2">0</pdfrwt>
<totfact> 0.32587149E+00</totfact>
</mgrwt>
</event>
<event>
 6    1  0.2108260E-003  0.6535248E+03  0.7818608E-02  0.9800188E-01
          1   -1    0    0  502    0  0.00000000000E+00  0.00000000000E+00  0.10677432496E+03  0.10677432496E+03  0.00000000000E+00 0.  1.
         13   -1    0    0    0    0 -0.00000000000E+00 -0.00000000000E+00 -0.10000000000E+04  0.10000000000E+04  0.00000000000E+00 0.  1.
    9000005    2    1    2  501    0  0.24098930837E-04  0.75477898577E-04 -0.89322634145E+03  0.11067736539E+04  0.65352476910E+03 0.  0.
         13    1    3    3    0    0  0.99501701834E+02 -0.17203447086E+03 -0.73439959170E+01  0.19887277870E+03  0.00000000000E+00 0.  1.
          3    1    3    3  501    0 -0.99501677735E+02  0.17203454633E+03 -0.88588234553E+03  0.90790087516E+03  0.00000000000E+00 0.  1.
         21    1    1    2  502  501 -0.24098930837E-04 -0.75477898584E-04  0.66640623460E-03  0.67109979970E-03  0.00000000000E+00 0.  1.
<mgrwt>
<rscale>  1 0.65352477E+03</rscale>
<asrwt>0</asrwt>
<pdfrwt beam="1">  1        1 0.38827109E+00 0.65352477E+03</pdfrwt>
<pdfrwt beam="2">0</pdfrwt>
<totfact> 0.15074684E+00</totfact>
</mgrwt>
</event>
<event>
 6    1  0.2108260E-003  0.6404115E+03  0.7818608E-02  0.9824940E-01
          1   -1    0    0  502    0  0.00000000000E+00  0.00000000000E+00  0.10253178570E+03  0.10253178570E+03  0.00000000000E+00 0.  1.
         13   -1    0    0    0    0 -0.00000000000E+00 -0.00000000000E+00 -0.10000000000E+04  0.10000000000E+04  0.00000000000E+00 0.  1.
    9000005    2    1    2  501    0 -0.65784003908E-04  0.23642850465E-04 -0.89746826237E+03  0.11025317009E+04  0.64041148447E+03 0.  0.
         13    1    3    3    0    0  0.16367221813E+03  0.27521095284E+03 -0.45119880698E+03  0.55327210934E+03  0.00000000000E+00 0.  1.
          3    1    3    3  501    0 -0.16367228391E+03 -0.27521092919E+03 -0.44626945539E+03  0.54925959153E+03  0.00000000000E+00 0.  1.
         21    1    1    2  502  501  0.65784003910E-04 -0.23642850440E-04  0.48072770728E-04  0.84838144916E-04  0.00000000000E+00 0. -1.
<mgrwt>
<rscale>  1 0.64041148E+03</rscale>
<asrwt>0</asrwt>
<pdfrwt beam="1">  1        1 0.37284364E+00 0.64041148E+03</pdfrwt>
<pdfrwt beam="2">0</pdfrwt>
<totfact> 0.17676126E+00</totfact>
</mgrwt>
</event>
<event>
 6    1  0.2108260E-003  0.6564945E+03  0.7818608E-02  0.9794668E-01
          1   -1    0    0  502    0  0.00000000000E+00  0.00000000000E+00  0.15934484609E+03  0.15934484609E+03  0.00000000000E+00 0.  1.
         13   -1    0    0    0    0 -0.00000000000E+00 -0.00000000000E+00 -0.10000000000E+04  0.10000000000E+04  0.00000000000E+00 0.  1.
    9000005    2    1    2  501    0  0.45158684523E+00  0.24384293017E+02 -0.88904097955E+03  0.11051601084E+04  0.65604131287E+03 0.  0.
         13    1    3    3    0    0  0.18045286216E+03  0.28281879674E+03 -0.38338337499E+03  0.50944334274E+03  0.00000000000E+00 0.  1.
          1    1    3    3  501    0 -0.18000127531E+03 -0.25843450372E+03 -0.50565760456E+03  0.59571676565E+03  0.00000000000E+00 0.  1.
         21    1    1    2  502  501 -0.45158684523E+00 -0.24384293017E+02  0.48385825638E+02  0.54184737697E+02  0.00000000000E+00 0. -1.
<mgrwt>
<rscale>  1 0.65649448E+03</rscale>
<asrwt>0</asrwt>
<pdfrwt beam="1">  1        1 0.57943703E+00 0.65649448E+03</pdfrwt>
<pdfrwt beam="2">0</pdfrwt>
<totfact> 0.18397477E-01</totfact>
</mgrwt>
</event>
<event>
 6    1  0.2108260E-003  0.6574865E+03  0.7818608E-02  0.9792832E-01
          1   -1    0    0  502    0  0.00000000000E+00  0.00000000000E+00  0.10807328828E+03  0.10807328828E+03  0.00000000000E+00 0.  1.
         13   -1    0    0    0    0 -0.00000000000E+00 -0.00000000000E+00 -0.10000000000E+04  0.10000000000E+04  0.00000000000E+00 0.  1.
    9000005    2    1    2  501    0  0.80010022714E-05  0.56038504425E-04 -0.89192788855E+03  0.11080721101E+04  0.65748645824E+03 0.  0.
         13    1    3    3    0    0  0.16219283221E+03  0.22596649164E+03 -0.15064997990E+03  0.31632702479E+03  0.00000000000E+00 0.  1.
          1    1    3    3  501    0 -0.16219282421E+03 -0.22596643560E+03 -0.74127790865E+03  0.79174508530E+03  0.00000000000E+00 0.  1.
         21    1    1    2  502  501 -0.80010022676E-05 -0.56038504431E-04  0.11768347455E-02  0.11781953778E-02  0.00000000000E+00 0. -1.
<mgrwt>
<rscale>  1 0.65748646E+03</rscale>
<asrwt>0</asrwt>
<pdfrwt beam="1">  1        1 0.39299460E+00 0.65748646E+03</pdfrwt>
<pdfrwt beam="2">0</pdfrwt>
<totfact> 0.14354038E+00</totfact>
</mgrwt>
</event>
<event>
 6    1  0.2108260E-003  0.7538810E+03  0.7818608E-02  0.9629281E-01
          1   -1    0    0  502    0  0.00000000000E+00  0.00000000000E+00  0.14208836472E+03  0.14208836472E+03  0.00000000000E+00 0.  1.
         13   -1    0    0    0    0 -0.00000000000E+00 -0.00000000000E+00 -0.10000000000E+04  0.10000000000E+04  0.00000000000E+00 0.  1.
    9000005    2    1    2  501    0 -0.70498293258E-03  0.29480561733E-03 -0.85791581905E+03  0.11420841117E+04  0.75388100236E+03 0.  0.
         13    1    3    3    0    0  0.16095364248E+03 -0.33867357295E+03 -0.48720034414E+03  0.61479267999E+03  0.00000000000E+00 0.  1.
          1    1    3    3  501    0 -0.16095434746E+03  0.33867386775E+03 -0.37071547491E+03  0.52729143175E+03  0.00000000000E+00 0.  1.
         21    1    1    2  502  501  0.70498293257E-03 -0.29480561729E-03  0.41837717323E-02  0.42529821531E-02  0.00000000000E+00 0.  1.
<mgrwt>
<rscale>  1 0.75388100E+03</rscale>
<asrwt>0</asrwt>
<pdfrwt beam="1">  1        1 0.51668605E+00 0.75388100E+03</pdfrwt>
<pdfrwt beam="2">0</pdfrwt>
<totfact> 0.37526506E-01</totfact>
</mgrwt>
</event>
<event>
 6    1  0.2108260E-003  0.6471603E+03  0.7818608E-02  0.9812122E-01
          1   -1    0    0  502    0  0.00000000000E+00  0.00000000000E+00  0.10474727724E+03  0.10474727724E+03  0.00000000000E+00 0.  1.
         13   -1    0    0    0    0 -0.00000000000E+00 -0.00000000000E+00 -0.10000000000E+04  0.10000000000E+04  0.00000000000E+00 0.  1.
    9000005    2    1    2  501    0 -0.24095979787E-03 -0.20045197591E-02 -0.89529587469E+03  0.11047040781E+04  0.64716025601E+03 0.  0.
         13    1    3    3    0    0 -0.65444026780E+01 -0.18594195825E+03 -0.89956042656E+03  0.91860013176E+03  0.00000000000E+00 0.  1.
          1    1    3    3  501    0  0.65441617182E+01  0.18593995373E+03  0.42645518726E+01  0.18610394635E+03  0.00000000000E+00 0.  1.
         21    1    1    2  502  501  0.24095979787E-03  0.20045197591E-02  0.43151924187E-01  0.43199128720E-01  0.00000000000E+00 0.  1.
<mgrwt>
<rscale>  1 0.64716026E+03</rscale>
<asrwt>0</asrwt>
<pdfrwt beam="1">  1        1 0.38089999E+00 0.64716026E+03</pdfrwt>
<pdfrwt beam="2">0</pdfrwt>
<totfact> 0.16268820E+00</totfact>
</mgrwt>
</event>
<event>
 6    1  0.2108260E-003  0.5827133E+03  0.7818608E-02  0.9941934E-01
          1   -1    0    0  502    0  0.00000000000E+00  0.00000000000E+00  0.85673744757E+02  0.85673744757E+02  0.00000000000E+00 0.  1.
         13   -1    0    0    0    0 -0.00000000000E+00 -0.00000000000E+00 -0.10000000000E+04  0.10000000000E+04  0.00000000000E+00 0.  1.
    9000005    2    1    2  501    0 -0.86826162872E+00 -0.12069048888E+01 -0.91427837844E+03  0.10841861998E+04  0.58271137982E+03 0.  0.
         13    1    3    3    0    0  0.20602346125E+03 -0.11288919530E+03 -0.77742713024E+03  0.81214689548E+03  0.00000000000E+00 0.  1.
          3    1    3    3  501    0 -0.20689172288E+03  0.11168229041E+03 -0.13685124819E+03  0.27203930437E+03  0.00000000000E+00 0.  1.
         21    1    1    2  502  501  0.86826162872E+00  0.12069048888E+01 -0.47876807690E-01  0.14875449086E+01  0.00000000000E+00 0. -1.
<mgrwt>
<rscale>  1 0.58271328E+03</rscale>
<asrwt>0</asrwt>
<pdfrwt beam="1">  1        1 0.31154155E+00 0.58271328E+03</pdfrwt>
<pdfrwt beam="2">0</pdfrwt>
<totfact> 0.33001372E+00</totfact>
</mgrwt>
</event>
<event>
 6    1  0.2108260E-003  0.6400327E+03  0.7818608E-02  0.9825664E-01
          1   -1    0    0  502    0  0.00000000000E+00  0.00000000000E+00  0.10241051296E+03  0.10241051296E+03  0.00000000000E+00 0.  1.
         13   -1    0    0    0    0 -0.00000000000E+00 -0.00000000000E+00 -0.10000000000E+04  0.10000000000E+04  0.00000000000E+00 0.  1.
    9000005    2    1    2  501    0  0.91801622091E-05 -0.10257926817E-04 -0.89758953557E+03  0.11024104625E+04  0.64003269720E+03 0.  0.
         13    1    3    3    0    0  0.17481096153E+03 -0.26529150930E+03 -0.38271073176E+03  0.49739919721E+03  0.00000000000E+00 0.  1.
          1    1    3    3  501    0 -0.17481095235E+03  0.26529149905E+03 -0.51487880381E+03  0.60501126530E+03  0.00000000000E+00 0.  1.
         21    1    1    2  502  501 -0.91801622263E-05  0.10257926852E-04  0.48529187265E-04  0.50443854516E-04  0.00000000000E+00 0. -1.
<mgrwt>
<rscale>  1 0.64003270E+03</rscale>
<asrwt>0</asrwt>
<pdfrwt beam="1">  1        1 0.37240265E+00 0.64003270E+03</pdfrwt>
<pdfrwt beam="2">0</pdfrwt>
<totfact> 0.17756451E+00</totfact>
</mgrwt>
</event>
<event>
 6    1  0.2108260E-003  0.5723405E+03  0.7818608E-02  0.9964513E-01
          1   -1    0    0  502    0  0.00000000000E+00  0.00000000000E+00  0.81957866970E+02  0.81957866970E+02  0.00000000000E+00 0.  1.
         13   -1    0    0    0    0 -0.00000000000E+00 -0.00000000000E+00 -0.10000000000E+04  0.10000000000E+04  0.00000000000E+00 0.  1.
    9000005    2    1    2  501    0  0.12880217008E-01 -0.12181848392E-01 -0.91810527252E+03  0.10818922858E+04  0.57234048107E+03 0.  0.
         13    1    3    3    0    0 -0.26343151252E+03 -0.27101978293E+02 -0.25405671721E+03  0.36698159978E+03  0.00000000000E+00 0.  1.
          3    1    3    3  501    0  0.26344439274E+03  0.27089796444E+02 -0.66404855532E+03  0.71491068600E+03  0.00000000000E+00 0.  1.
         21    1    1    2  502  501 -0.12880217008E-01  0.12181848392E-01  0.63139493144E-01  0.65581194064E-01  0.00000000000E+00 0. -1.
<mgrwt>
<rscale>  1 0.57234048E+03</rscale>
<asrwt>0</asrwt>
<pdfrwt beam="1">  1        1 0.29802924E+00 0.57234048E+03</pdfrwt>
<pdfrwt beam="2">0</pdfrwt>
<totfact> 0.37812468E+00</totfact>
</mgrwt>
</event>
<event>
 6    1  0.2108260E-003  0.6494284E+03  0.7818608E-02  0.9807852E-01
          1   -1    0    0  502    0  0.00000000000E+00  0.00000000000E+00  0.10550639492E+03  0.10550639492E+03  0.00000000000E+00 0.  1.
         13   -1    0    0    0    0 -0.00000000000E+00 -0.00000000000E+00 -0.10000000000E+04  0.10000000000E+04  0.00000000000E+00 0.  1.
    9000005    2    1    2  501    0  0.34971971158E-02  0.30071993496E-02 -0.89456058797E+03  0.11054392534E+04  0.64942843904E+03 0.  0.
         13    1    3    3    0    0 -0.25233444779E+03 -0.17369234836E+03 -0.26397764035E+03  0.40438335775E+03  0.00000000000E+00 0.  1.
          1    1    3    3  501    0  0.25233794499E+03  0.17369535555E+03 -0.63058294762E+03  0.70105589567E+03  0.00000000000E+00 0.  1.
         21    1    1    2  502  501 -0.34971971158E-02 -0.30071993495E-02  0.66982890896E-01  0.67141502131E-01  0.00000000000E+00 0.  1.
<mgrwt>
<rscale>  1 0.64942844E+03</rscale>
<asrwt>0</asrwt>
<pdfrwt beam="1">  1        1 0.38366043E+00 0.64942844E+03</pdfrwt>
<pdfrwt beam="2">0</pdfrwt>
<totfact> 0.15811798E+00</totfact>
</mgrwt>
</event>
<event>
 6    1  0.2108260E-003  0.6360468E+03  0.7818608E-02  0.9833319E-01
          1   -1    0    0  502    0  0.00000000000E+00  0.00000000000E+00  0.10114290571E+03  0.10114290571E+03  0.00000000000E+00 0.  1.
         13   -1    0    0    0    0 -0.00000000000E+00 -0.00000000000E+00 -0.10000000000E+04  0.10000000000E+04  0.00000000000E+00 0.  1.
    9000005    2    1    2  501    0 -0.81932245228E-02 -0.32483234151E-02 -0.89885490907E+03  0.11011338252E+04  0.63604681696E+03 0.  0.
         13    1    3    3    0    0 -0.71476845951E+02 -0.25513555441E+03 -0.75393361920E+03  0.79913640437E+03  0.00000000000E+00 0.  1.
          1    1    3    3  501    0  0.71468652726E+02  0.25513230608E+03 -0.14492128986E+03  0.30199742083E+03  0.00000000000E+00 0.  1.
         21    1    1    2  502  501  0.81932245228E-02  0.32483234151E-02 -0.21852227020E-02  0.90805138262E-02  0.00000000000E+00 0.  1.
<mgrwt>
<rscale>  1 0.63604682E+03</rscale>
<asrwt>0</asrwt>
<pdfrwt beam="1">  1        1 0.36779316E+00 0.63604682E+03</pdfrwt>
<pdfrwt beam="2">0</pdfrwt>
<totfact> 0.18617297E+00</totfact>
</mgrwt>
</event>
<event>
 6    1  0.2108260E-003  0.6512034E+03  0.7818608E-02  0.9804524E-01
          1   -1    0    0  502    0  0.00000000000E+00  0.00000000000E+00  0.10604090839E+03  0.10604090839E+03  0.00000000000E+00 0.  1.
         13   -1    0    0    0    0 -0.00000000000E+00 -0.00000000000E+00 -0.10000000000E+04  0.10000000000E+04  0.00000000000E+00 0.  1.
    9000005    2    1    2  501    0  0.10154726576E-01 -0.26369694009E-02 -0.89398227846E+03  0.11060154584E+04  0.65120340902E+03 0.  0.
         13    1    3    3    0    0 -0.18841279851E+02  0.31025286246E+03 -0.28228952194E+03  0.41987999081E+03  0.00000000000E+00 0.  1.
          1    1    3    3  501    0  0.18851434578E+02 -0.31025549942E+03 -0.61169275651E+03  0.68613546759E+03  0.00000000000E+00 0.  1.
         21    1    1    2  502  501 -0.10154726576E-01  0.26369694009E-02  0.23186842153E-01  0.25449984843E-01  0.00000000000E+00 0.  1.
<mgrwt>
<rscale>  1 0.65120341E+03</rscale>
<asrwt>0</asrwt>
<pdfrwt beam="1">  1        1 0.38560412E+00 0.65120341E+03</pdfrwt>
<pdfrwt beam="2">0</pdfrwt>
<totfact> 0.15496840E+00</totfact>
</mgrwt>
</event>
<event>
 6    1  0.2108260E-003  0.6459506E+03  0.7818608E-02  0.9814407E-01
          1   -1    0    0  502    0  0.00000000000E+00  0.00000000000E+00  0.10431387316E+03  0.10431387316E+03  0.00000000000E+00 0.  1.
         13   -1    0    0    0    0 -0.00000000000E+00 -0.00000000000E+00 -0.10000000000E+04  0.10000000000E+04  0.00000000000E+00 0.  1.
    9000005    2    1    2  501    0 -0.48267430299E-03 -0.47300226734E-03 -0.89568678173E+03  0.11043129321E+04  0.64595064909E+03 0.  0.
         13    1    3    3    0    0 -0.51618207925E+02  0.24594275757E+03 -0.10099923190E+03  0.27083781906E+03  0.00000000000E+00 0.  1.
          3    1    3    3  501    0  0.51617725251E+02 -0.24594323057E+03 -0.79468754982E+03  0.83347511305E+03  0.00000000000E+00 0.  1.
         21    1    1    2  502  501  0.48267430299E-03  0.47300226736E-03  0.65489220695E-03  0.94105761270E-03  0.00000000000E+00 0. -1.
<mgrwt>
<rscale>  1 0.64595065E+03</rscale>
<asrwt>0</asrwt>
<pdfrwt beam="1">  1        1 0.37932398E+00 0.64595065E+03</pdfrwt>
<pdfrwt beam="2">0</pdfrwt>
<totfact> 0.16535098E+00</totfact>
</mgrwt>
</event>
<event>
 6    1  0.2108260E-003  0.6361130E+03  0.7818608E-02  0.9833192E-01
          1   -1    0    0  502    0  0.00000000000E+00  0.00000000000E+00  0.10115994789E+03  0.10115994789E+03  0.00000000000E+00 0.  1.
         13   -1    0    0    0    0 -0.00000000000E+00 -0.00000000000E+00 -0.10000000000E+04  0.10000000000E+04  0.00000000000E+00 0.  1.
    9000005    2    1    2  501    0  0.23877882711E-05 -0.42025737699E-05 -0.89884005771E+03  0.11011599405E+04  0.63611301292E+03 0.  0.
         13    1    3    3    0    0 -0.23891351754E+03  0.34986798919E+02 -0.91057218749E+02  0.25806038450E+03  0.00000000000E+00 0.  1.
          3    1    3    3  501    0  0.23891351993E+03 -0.34986803122E+02 -0.80778283896E+03  0.84309955599E+03  0.00000000000E+00 0.  1.
         21    1    1    2  502  501 -0.23877882819E-05  0.42025737741E-05  0.56040736630E-05  0.74005946265E-05  0.00000000000E+00 0.  1.
<mgrwt>
<rscale>  1 0.63611301E+03</rscale>
<asrwt>0</asrwt>
<pdfrwt beam="1">  1        1 0.36785513E+00 0.63611301E+03</pdfrwt>
<pdfrwt beam="2">0</pdfrwt>
<totfact> 0.18605420E+00</totfact>
</mgrwt>
</event>
<event>
 6    1  0.2108260E-003  0.6508511E+03  0.7818608E-02  0.9805183E-01
          1   -1    0    0  502    0  0.00000000000E+00  0.00000000000E+00  0.10590184009E+03  0.10590184009E+03  0.00000000000E+00 0.  1.
         13   -1    0    0    0    0 -0.00000000000E+00 -0.00000000000E+00 -0.10000000000E+04  0.10000000000E+04  0.00000000000E+00 0.  1.
    9000005    2    1    2  501    0 -0.69219970555E-06 -0.78866459985E-05 -0.89409819714E+03  0.11059018020E+04  0.65085114243E+03 0.  0.
         13    1    3    3    0    0  0.29733011574E+03 -0.72784933579E+01 -0.22263336387E+03  0.37151552982E+03  0.00000000000E+00 0.  1.
          3    1    3    3  501    0 -0.29733011643E+03  0.72784854713E+01 -0.67146483327E+03  0.73438627220E+03  0.00000000000E+00 0.  1.
         21    1    1    2  502  501  0.69219967778E-06  0.78866459981E-05  0.37230783491E-04  0.38063231140E-04  0.00000000000E+00 0. -1.
<mgrwt>
<rscale>  1 0.65085114E+03</rscale>
<asrwt>0</asrwt>
<pdfrwt beam="1">  1        1 0.38509841E+00 0.65085114E+03</pdfrwt>
<pdfrwt beam="2">0</pdfrwt>
<totfact> 0.15577892E+00</totfact>
</mgrwt>
</event>
<event>
 6    1  0.2108260E-003  0.6515403E+03  0.7818608E-02  0.9803893E-01
          1   -1    0    0  502    0  0.00000000000E+00  0.00000000000E+00  0.10625337107E+03  0.10625337107E+03  0.00000000000E+00 0.  1.
         13   -1    0    0    0    0 -0.00000000000E+00 -0.00000000000E+00 -0.10000000000E+04  0.10000000000E+04  0.00000000000E+00 0.  1.
    9000005    2    1    2  501    0 -0.14940452837E-02 -0.54597377861E-02 -0.89387373157E+03  0.11061261424E+04  0.65154032491E+03 0.  0.
         13    1    3    3    0    0 -0.24415955430E+03  0.25529423478E+02 -0.83370641084E+02  0.25926107153E+03  0.00000000000E+00 0.  1.
          3    1    3    3  501    0  0.24415806025E+03 -0.25534883215E+02 -0.81050309049E+03  0.84686507091E+03  0.00000000000E+00 0.  1.
         21    1    1    2  502  501  0.14940452837E-02  0.54597377861E-02  0.12710264216E+00  0.12722862316E+00  0.00000000000E+00 0. -1.
<mgrwt>
<rscale>  1 0.65154032E+03</rscale>
<asrwt>0</asrwt>
<pdfrwt beam="1">  1        1 0.38637671E+00 0.65154032E+03</pdfrwt>
<pdfrwt beam="2">0</pdfrwt>
<totfact> 0.15374359E+00</totfact>
</mgrwt>
</event>
<event>
 6    1  0.2108260E-003  0.6835543E+03  0.7818608E-02  0.9745777E-01
          1   -1    0    0  502    0  0.00000000000E+00  0.00000000000E+00  0.11681183895E+03  0.11681183895E+03  0.00000000000E+00 0.  1.
         13   -1    0    0    0    0 -0.00000000000E+00 -0.00000000000E+00 -0.10000000000E+04  0.10000000000E+04  0.00000000000E+00 0.  1.
    9000005    2    1    2  501    0  0.12021290758E-04  0.10508666094E-04 -0.88318837841E+03  0.11168116210E+04  0.68355430292E+03 0.  0.
         13    1    3    3    0    0  0.13697890396E+03  0.88981522702E+02 -0.93209898813E+03  0.94630304617E+03  0.00000000000E+00 0.  1.
          3    1    3    3  501    0 -0.13697889194E+03 -0.88981512193E+02  0.48910609722E+02  0.17050857483E+03  0.00000000000E+00 0.  1.
         21    1    1    2  502  501 -0.12021290759E-04 -0.10508666097E-04  0.21735895846E-03  0.21794462672E-03  0.00000000000E+00 0.  1.
<mgrwt>
<rscale>  1 0.68355430E+03</rscale>
<asrwt>0</asrwt>
<pdfrwt beam="1">  1        1 0.42477122E+00 0.68355430E+03</pdfrwt>
<pdfrwt beam="2">0</pdfrwt>
<totfact> 0.10288751E+00</totfact>
</mgrwt>
</event>
<event>
 6    1  0.2108260E-003  0.6514779E+03  0.7818608E-02  0.9804010E-01
          1   -1    0    0  502    0  0.00000000000E+00  0.00000000000E+00  0.12340816973E+03  0.12340816973E+03  0.00000000000E+00 0.  1.
         13   -1    0    0    0    0 -0.00000000000E+00 -0.00000000000E+00 -0.10000000000E+04  0.10000000000E+04  0.00000000000E+00 0.  1.
    9000005    2    1    2  501    0 -0.34310119177E+01  0.74904402438E+00 -0.89369682790E+03  0.11059463871E+04  0.65146838601E+03 0.  0.
         13    1    3    3    0    0 -0.13376810212E+03 -0.20361265441E+03 -0.81572342495E+03  0.85132644984E+03  0.00000000000E+00 0.  1.
          1    1    3    3  501    0  0.13033709020E+03  0.20436169843E+03 -0.77973402946E+02  0.25461993723E+03  0.00000000000E+00 0.  1.
         21    1    1    2  502  501  0.34310119177E+01 -0.74904402438E+00  0.17104997632E+02  0.17461782662E+02  0.00000000000E+00 0. -1.
<mgrwt>
<rscale>  1 0.65147785E+03</rscale>
<asrwt>0</asrwt>
<pdfrwt beam="1">  1        1 0.44875793E+00 0.65147785E+03</pdfrwt>
<pdfrwt beam="2">0</pdfrwt>
<totfact> 0.80475832E-01</totfact>
</mgrwt>
</event>
<event>
 6    1  0.2108260E-003  0.6309735E+03  0.7818608E-02  0.9843151E-01
          1   -1    0    0  502    0  0.00000000000E+00  0.00000000000E+00  0.99533216136E+02  0.99533216136E+02  0.00000000000E+00 0.  1.
         13   -1    0    0    0    0 -0.00000000000E+00 -0.00000000000E+00 -0.10000000000E+04  0.10000000000E+04  0.00000000000E+00 0.  1.
    9000005    2    1    2  501    0  0.19455893558E-03 -0.71031327138E-04 -0.90046809788E+03  0.10995318859E+04  0.63097351197E+03 0.  0.
         13    1    3    3    0    0  0.47112423704E+02  0.31191020354E+03 -0.44163952820E+03  0.54272739788E+03  0.00000000000E+00 0.  1.
          3    1    3    3  501    0 -0.47112229145E+02 -0.31191027458E+03 -0.45882856968E+03  0.55680448802E+03  0.00000000000E+00 0.  1.
         21    1    1    2  502  501 -0.19455893558E-03  0.71031327115E-04  0.13140150904E-02  0.13302384322E-02  0.00000000000E+00 0. -1.
<mgrwt>
<rscale>  1 0.63097351E+03</rscale>
<asrwt>0</asrwt>
<pdfrwt beam="1">  1        1 0.36193973E+00 0.63097351E+03</pdfrwt>
<pdfrwt beam="2">0</pdfrwt>
<totfact> 0.19768180E+00</totfact>
</mgrwt>
</event>
<event>
 6    1  0.2108260E-003  0.6530073E+03  0.7818608E-02  0.9801153E-01
          1   -1    0    0  502    0  0.00000000000E+00  0.00000000000E+00  0.10721025234E+03  0.10721025234E+03  0.00000000000E+00 0.  1.
         13   -1    0    0    0    0 -0.00000000000E+00 -0.00000000000E+00 -0.10000000000E+04  0.10000000000E+04  0.00000000000E+00 0.  1.
    9000005    2    1    2  501    0 -0.12952924989E-01  0.11312914337E+00 -0.89338944858E+03  0.11065998368E+04  0.65300725794E+03 0.  0.
         13    1    3    3    0    0  0.14445169319E+03 -0.21989987255E+03 -0.11910904645E+03  0.28880652790E+03  0.00000000000E+00 0.  1.
          1    1    3    3  501    0 -0.14446464611E+03  0.22001300170E+03 -0.77428040213E+03  0.81779330886E+03  0.00000000000E+00 0.  1.
         21    1    1    2  502  501  0.12952924989E-01 -0.11312914337E+00  0.59970091848E+00  0.61041557399E+00  0.00000000000E+00 0.  1.
<mgrwt>
<rscale>  1 0.65300727E+03</rscale>
<asrwt>0</asrwt>
<pdfrwt beam="1">  1        1 0.38985629E+00 0.65300727E+03</pdfrwt>
<pdfrwt beam="2">0</pdfrwt>
<totfact> 0.14834181E+00</totfact>
</mgrwt>
</event>
<event>
 6    1  0.2108260E-003  0.6449685E+03  0.7818608E-02  0.9816267E-01
          1   -1    0    0  502    0  0.00000000000E+00  0.00000000000E+00  0.10416409053E+03  0.10416409053E+03  0.00000000000E+00 0.  1.
         13   -1    0    0    0    0 -0.00000000000E+00 -0.00000000000E+00 -0.10000000000E+04  0.10000000000E+04  0.00000000000E+00 0.  1.
    9000005    2    1    2  501    0 -0.12421958144E+00 -0.61426950589E-01 -0.89597178291E+03  0.11039700149E+04  0.64496847888E+03 0.  0.
         13    1    3    3    0    0  0.16215084055E+03 -0.27636608961E+03 -0.51020939563E+03  0.60248214742E+03  0.00000000000E+00 0.  1.
          1    1    3    3  501    0 -0.16227506014E+03  0.27630466266E+03 -0.38576238728E+03  0.50148786744E+03  0.00000000000E+00 0.  1.
         21    1    1    2  502  501  0.12421958144E+00  0.61426950589E-01  0.13587343642E+00  0.19407566925E+00  0.00000000000E+00 0.  1.
<mgrwt>
<rscale>  1 0.64496849E+03</rscale>
<asrwt>0</asrwt>
<pdfrwt beam="1">  1        1 0.37877931E+00 0.64496849E+03</pdfrwt>
<pdfrwt beam="2">0</pdfrwt>
<totfact> 0.16629807E+00</totfact>
</mgrwt>
</event>
<event>
 6    1  0.2108260E-003  0.6544894E+03  0.7818608E-02  0.9798391E-01
          1   -1    0    0  502    0  0.00000000000E+00  0.00000000000E+00  0.12133642998E+03  0.12133642998E+03  0.00000000000E+00 0.  1.
         13   -1    0    0    0    0 -0.00000000000E+00 -0.00000000000E+00 -0.10000000000E+04  0.10000000000E+04  0.00000000000E+00 0.  1.
    9000005    2    1    2  501    0  0.12349834456E+00 -0.39363388188E+01 -0.89260897377E+03  0.11068455949E+04  0.65447756333E+03 0.  0.
         13    1    3    3    0    0 -0.80712815885E+02 -0.57908665317E+02  0.81135986409E+02  0.12826153148E+03  0.00000000000E+00 0.  1.
          3    1    3    3  501    0  0.80836314230E+02  0.53972326498E+02 -0.97374496018E+03  0.97858406343E+03  0.00000000000E+00 0.  1.
         21    1    1    2  502  501 -0.12349834456E+00  0.39363388188E+01  0.13945403749E+02  0.14490835064E+02  0.00000000000E+00 0.  1.
<mgrwt>
<rscale>  1 0.65448941E+03</rscale>
<asrwt>0</asrwt>
<pdfrwt beam="1">  1        1 0.44122431E+00 0.65448941E+03</pdfrwt>
<pdfrwt beam="2">0</pdfrwt>
<totfact> 0.87088600E-01</totfact>
</mgrwt>
</event>
<event>
 6    1  0.2108260E-003  0.6420774E+03  0.7818608E-02  0.9821760E-01
          1   -1    0    0  502    0  0.00000000000E+00  0.00000000000E+00  0.10306626983E+03  0.10306626983E+03  0.00000000000E+00 0.  1.
         13   -1    0    0    0    0 -0.00000000000E+00 -0.00000000000E+00 -0.10000000000E+04  0.10000000000E+04  0.00000000000E+00 0.  1.
    9000005    2    1    2  501    0  0.12265012697E-03 -0.62318204897E-04 -0.89693413906E+03  0.11030658384E+04  0.64207740504E+03 0.  0.
         13    1    3    3    0    0 -0.18186100701E+03  0.25201541629E+03 -0.31016699811E+03  0.43907717161E+03  0.00000000000E+00 0.  1.
          3    1    3    3  501    0  0.18186112966E+03 -0.25201547861E+03 -0.58676714095E+03  0.66398866680E+03  0.00000000000E+00 0.  1.
         21    1    1    2  502  501 -0.12265012697E-03  0.62318204924E-04  0.40888739069E-03  0.43141106914E-03  0.00000000000E+00 0. -1.
<mgrwt>
<rscale>  1 0.64207741E+03</rscale>
<asrwt>0</asrwt>
<pdfrwt beam="1">  1        1 0.37478723E+00 0.64207741E+03</pdfrwt>
<pdfrwt beam="2">0</pdfrwt>
<totfact> 0.17326235E+00</totfact>
</mgrwt>
</event>
<event>
 6    1  0.2108260E-003  0.6087747E+03  0.7818608E-02  0.9887367E-01
          1   -1    0    0  502    0  0.00000000000E+00  0.00000000000E+00  0.93563500613E+02  0.93563500613E+02  0.00000000000E+00 0.  1.
         13   -1    0    0    0    0 -0.00000000000E+00 -0.00000000000E+00 -0.10000000000E+04  0.10000000000E+04  0.00000000000E+00 0.  1.
    9000005    2    1    2  501    0  0.63511788280E-01  0.58604320528E-02 -0.90734712544E+03  0.10926506436E+04  0.60877468646E+03 0.  0.
         13    1    3    3    0    0  0.54732803815E+02  0.16728111702E+03 -0.79379373324E+01  0.17618644322E+03  0.00000000000E+00 0.  1.
          1    1    3    3  501    0 -0.54669292027E+02 -0.16727525659E+03 -0.89940918811E+03  0.91646420040E+03  0.00000000000E+00 0.  1.
         21    1    1    2  502  501 -0.63511788280E-01 -0.58604320528E-02  0.91062605377E+00  0.91285699960E+00  0.00000000000E+00 0. -1.
<mgrwt>
<rscale>  1 0.60877469E+03</rscale>
<asrwt>0</asrwt>
<pdfrwt beam="1">  1        1 0.34023163E+00 0.60877469E+03</pdfrwt>
<pdfrwt beam="2">0</pdfrwt>
<totfact> 0.24678852E+00</totfact>
</mgrwt>
</event>
<event>
 6    1  0.2108260E-003  0.6505348E+03  0.7818608E-02  0.9805776E-01
          1   -1    0    0  502    0  0.00000000000E+00  0.00000000000E+00  0.14071291047E+03  0.14071291047E+03  0.00000000000E+00 0.  1.
         13   -1    0    0    0    0 -0.00000000000E+00 -0.00000000000E+00 -0.10000000000E+04  0.10000000000E+04  0.00000000000E+00 0.  1.
    9000005    2    1    2  501    0 -0.71128541695E+01 -0.26748613381E+01 -0.89374327398E+03  0.11054286899E+04  0.65049043114E+03 0.  0.
         13    1    3    3    0    0 -0.19370744412E+02  0.30031201249E+03 -0.24048305122E+03  0.38522023377E+03  0.00000000000E+00 0.  1.
          3    1    3    3  501    0  0.12257890243E+02 -0.30298687382E+03 -0.65326022276E+03  0.72020845609E+03  0.00000000000E+00 0.  1.
         21    1    1    2  502  501  0.71128541695E+01  0.26748613381E+01  0.34456184451E+02  0.35284220616E+02  0.00000000000E+00 0.  1.
<mgrwt>
<rscale>  1 0.65053482E+03</rscale>
<asrwt>0</asrwt>
<pdfrwt beam="1">  1        1 0.51168439E+00 0.65053482E+03</pdfrwt>
<pdfrwt beam="2">0</pdfrwt>
<totfact> 0.40589304E-01</totfact>
</mgrwt>
</event>
<event>
 6    1  0.2108260E-003  0.6489761E+03  0.7818608E-02  0.9808702E-01
          1   -1    0    0  502    0  0.00000000000E+00  0.00000000000E+00  0.10529259492E+03  0.10529259492E+03  0.00000000000E+00 0.  1.
         13   -1    0    0    0    0 -0.00000000000E+00 -0.00000000000E+00 -0.10000000000E+04  0.10000000000E+04  0.00000000000E+00 0.  1.
    9000005    2    1    2  501    0 -0.56359383251E-04  0.22018070638E-04 -0.89470748713E+03  0.11052924930E+04  0.64897612244E+03 0.  0.
         13    1    3    3    0    0  0.16148840287E+02 -0.25678377712E+03 -0.11060772081E+03  0.28005849592E+03  0.00000000000E+00 0.  1.
          3    1    3    3  501    0 -0.16148896646E+02  0.25678379913E+03 -0.78409976632E+03  0.82523399706E+03  0.00000000000E+00 0.  1.
         21    1    1    2  502  501  0.56359383249E-04 -0.22018070583E-04  0.82045595662E-04  0.10194437346E-03  0.00000000000E+00 0. -1.
<mgrwt>
<rscale>  1 0.64897612E+03</rscale>
<asrwt>0</asrwt>
<pdfrwt beam="1">  1        1 0.38288297E+00 0.64897612E+03</pdfrwt>
<pdfrwt beam="2">0</pdfrwt>
<totfact> 0.15938717E+00</totfact>
</mgrwt>
</event>
<event>
 6    1  0.2108260E-003  0.6492854E+03  0.7818608E-02  0.9808121E-01
          1   -1    0    0  502    0  0.00000000000E+00  0.00000000000E+00  0.10539588277E+03  0.10539588277E+03  0.00000000000E+00 0.  1.
         13   -1    0    0    0    0 -0.00000000000E+00 -0.00000000000E+00 -0.10000000000E+04  0.10000000000E+04  0.00000000000E+00 0.  1.
    9000005    2    1    2  501    0 -0.46438296309E-04  0.32748175570E-04 -0.89460712087E+03  0.11053928786E+04  0.64928538820E+03 0.  0.
         13    1    3    3    0    0  0.87549180517E+02  0.85199042547E+02 -0.95937583907E+03  0.96712239993E+03  0.00000000000E+00 0.  1.
          1    1    3    3  501    0 -0.87549226956E+02 -0.85199009799E+02  0.64768718201E+02  0.13827047866E+03  0.00000000000E+00 0.  1.
         21    1    1    2  502  501  0.46438296297E-04 -0.32748175570E-04  0.30036353407E-02  0.30041728010E-02  0.00000000000E+00 0. -1.
<mgrwt>
<rscale>  1 0.64928539E+03</rscale>
<asrwt>0</asrwt>
<pdfrwt beam="1">  1        1 0.38325856E+00 0.64928539E+03</pdfrwt>
<pdfrwt beam="2">0</pdfrwt>
<totfact> 0.15877015E+00</totfact>
</mgrwt>
</event>
<event>
 6    1  0.2108260E-003  0.6483591E+03  0.7818608E-02  0.9809863E-01
          1   -1    0    0  502    0  0.00000000000E+00  0.00000000000E+00  0.10509334831E+03  0.10509334831E+03  0.00000000000E+00 0.  1.
         13   -1    0    0    0    0 -0.00000000000E+00 -0.00000000000E+00 -0.10000000000E+04  0.10000000000E+04  0.00000000000E+00 0.  1.
    9000005    2    1    2  501    0  0.81117478094E-04  0.10560470243E-02 -0.89490727363E+03  0.11050921200E+04  0.64835913303E+03 0.  0.
         13    1    3    3    0    0  0.12930074323E+01  0.32243213044E+03 -0.39019463350E+03  0.50617783695E+03  0.00000000000E+00 0.  1.
          1    1    3    3  501    0 -0.12929263149E+01 -0.32243107439E+03 -0.50471264014E+03  0.59891428310E+03  0.00000000000E+00 0.  1.
         21    1    1    2  502  501 -0.81117478095E-04 -0.10560470244E-02  0.62194836917E-03  0.12282650923E-02  0.00000000000E+00 0.  1.
<mgrwt>
<rscale>  1 0.64835913E+03</rscale>
<asrwt>0</asrwt>
<pdfrwt beam="1">  1        1 0.38215844E+00 0.64835913E+03</pdfrwt>
<pdfrwt beam="2">0</pdfrwt>
<totfact> 0.16058446E+00</totfact>
</mgrwt>
</event>
<event>
 6    1  0.2559599E-003  0.6676796E+03  0.7818608E-02  0.9774159E-01
          1   -1    0    0  502    0  0.00000000000E+00  0.00000000000E+00  0.11144906478E+03  0.11144906478E+03  0.00000000000E+00 0.  1.
         13   -1    0    0    0    0 -0.00000000000E+00 -0.00000000000E+00 -0.10000000000E+04  0.10000000000E+04  0.00000000000E+00 0.  1.
    9000005    2    1    2  501    0 -0.27798618845E-04 -0.87582766071E-05 -0.88855097438E+03  0.11114490160E+04  0.66767962453E+03 0.  0.
         13    1    3    3    0    0  0.13791534021E+03  0.23387995607E+03 -0.12093772010E+03  0.29723123500E+03  0.00000000000E+00 0.  1.
          3    1    3    3  501    0 -0.13791536801E+03 -0.23387996483E+03 -0.76761325428E+03  0.81421778096E+03  0.00000000000E+00 0.  1.
         21    1    1    2  502  501  0.27798618844E-04  0.87582766002E-05  0.39168088324E-04  0.48822226102E-04  0.00000000000E+00 0.  1.
<mgrwt>
<rscale>  1 0.66767962E+03</rscale>
<asrwt>0</asrwt>
<pdfrwt beam="1">  1        1 0.40527018E+00 0.66767962E+03</pdfrwt>
<pdfrwt beam="2">0</pdfrwt>
<totfact> 0.12630810E+00</totfact>
</mgrwt>
</event>
<event>
 6    1  0.2108260E-003  0.6505818E+03  0.7818608E-02  0.9805688E-01
          1   -1    0    0  502    0  0.00000000000E+00  0.00000000000E+00  0.10610443485E+03  0.10610443485E+03  0.00000000000E+00 0.  1.
         13   -1    0    0    0    0 -0.00000000000E+00 -0.00000000000E+00 -0.10000000000E+04  0.10000000000E+04  0.00000000000E+00 0.  1.
    9000005    2    1    2  501    0 -0.43132017902E-01  0.52831716360E-01 -0.89418140863E+03  0.11058105674E+04  0.65058175109E+03 0.  0.
         13    1    3    3    0    0 -0.27243870771E+03  0.97248907213E+02 -0.70009926782E+03  0.75750853739E+03  0.00000000000E+00 0.  1.
          1    1    3    3  501    0  0.27239557569E+03 -0.97196075497E+02 -0.19408214081E+03  0.34830203004E+03  0.00000000000E+00 0.  1.
         21    1    1    2  502  501  0.43132017902E-01 -0.52831716360E-01  0.28584348390E+00  0.29386741655E+00  0.00000000000E+00 0.  1.
<mgrwt>
<rscale>  1 0.65058175E+03</rscale>
<asrwt>0</asrwt>
<pdfrwt beam="1">  1        1 0.38583512E+00 0.65058175E+03</pdfrwt>
<pdfrwt beam="2">0</pdfrwt>
<totfact> 0.15462186E+00</totfact>
</mgrwt>
</event>
<event>
 6    1  0.2108260E-003  0.6472102E+03  0.7818608E-02  0.9812028E-01
          1   -1    0    0  502    0  0.00000000000E+00  0.00000000000E+00  0.10528446291E+03  0.10528446291E+03  0.00000000000E+00 0.  1.
         13   -1    0    0    0    0 -0.00000000000E+00 -0.00000000000E+00 -0.10000000000E+04  0.10000000000E+04  0.00000000000E+00 0.  1.
    9000005    2    1    2  501    0 -0.14178551256E-01 -0.49252812681E-02 -0.89527963387E+03  0.11047201665E+04  0.64721018470E+03 0.  0.
         13    1    3    3    0    0  0.23439735328E+03 -0.20253394327E+03 -0.28791636687E+03  0.42291601023E+03  0.00000000000E+00 0.  1.
          1    1    3    3  501    0 -0.23441153183E+03  0.20252901798E+03 -0.60736326700E+03  0.68180415625E+03  0.00000000000E+00 0.  1.
         21    1    1    2  502  501  0.14178551256E-01  0.49252812681E-02  0.56409678000E+00  0.56429643533E+00  0.00000000000E+00 0.  1.
<mgrwt>
<rscale>  1 0.64721018E+03</rscale>
<asrwt>0</asrwt>
<pdfrwt beam="1">  1        1 0.38285340E+00 0.64721018E+03</pdfrwt>
<pdfrwt beam="2">0</pdfrwt>
<totfact> 0.15948706E+00</totfact>
</mgrwt>
</event>
<event>
 6    1  0.2108260E-003  0.5943935E+03  0.7818608E-02  0.9917106E-01
          1   -1    0    0  502    0  0.00000000000E+00  0.00000000000E+00  0.88621690537E+02  0.88621690537E+02  0.00000000000E+00 0.  1.
         13   -1    0    0    0    0 -0.00000000000E+00 -0.00000000000E+00 -0.10000000000E+04  0.10000000000E+04  0.00000000000E+00 0.  1.
    9000005    2    1    2  501    0 -0.58149696390E+00  0.55632959218E+00 -0.91092368652E+03  0.10876973944E+04  0.59439297731E+03 0.  0.
         13    1    3    3    0    0 -0.22442758610E+03 -0.85893889789E+02 -0.13523915573E+03  0.27574468435E+03  0.00000000000E+00 0.  1.
          1    1    3    3  501    0  0.22384608913E+03  0.86450219381E+02 -0.77568453079E+03  0.81195271005E+03  0.00000000000E+00 0.  1.
         21    1    1    2  502  501  0.58149696390E+00 -0.55632959218E+00 -0.45462294576E+00  0.92429614138E+00  0.00000000000E+00 0.  1.
<mgrwt>
<rscale>  1 0.59439352E+03</rscale>
<asrwt>0</asrwt>
<pdfrwt beam="1">  1        1 0.32226137E+00 0.59439352E+03</pdfrwt>
<pdfrwt beam="2">0</pdfrwt>
<totfact> 0.29600639E+00</totfact>
</mgrwt>
</event>
<event>
 6    1  0.2108260E-003  0.6599396E+03  0.7818608E-02  0.9788305E-01
          1   -1    0    0  502    0  0.00000000000E+00  0.00000000000E+00  0.12311056065E+03  0.12311056065E+03  0.00000000000E+00 0.  1.
         13   -1    0    0    0    0 -0.00000000000E+00 -0.00000000000E+00 -0.10000000000E+04  0.10000000000E+04  0.00000000000E+00 0.  1.
    9000005    2    1    2  501    0  0.22812472426E+00 -0.25954655705E+00 -0.89111760655E+03  0.11088781980E+04  0.65993950468E+03 0.  0.
         13    1    3    3    0    0 -0.21130415851E+02 -0.11249780752E+02 -0.99852791459E+03  0.99881482180E+03  0.00000000000E+00 0.  1.
          1    1    3    3  501    0  0.21358540575E+02  0.10990234195E+02  0.10741030803E+03  0.11006337618E+03  0.00000000000E+00 0.  1.
         21    1    1    2  502  501 -0.22812472426E+00  0.25954655705E+00  0.14228167204E+02  0.14232362675E+02  0.00000000000E+00 0. -1.
<mgrwt>
<rscale>  1 0.65993960E+03</rscale>
<asrwt>0</asrwt>
<pdfrwt beam="1">  1        1 0.44767571E+00 0.65993960E+03</pdfrwt>
<pdfrwt beam="2">0</pdfrwt>
<totfact> 0.81261444E-01</totfact>
</mgrwt>
</event>
<event>
 6    1  0.2108260E-003  0.6601929E+03  0.7818608E-02  0.9787839E-01
          1   -1    0    0  502    0  0.00000000000E+00  0.00000000000E+00  0.11136854262E+03  0.11136854262E+03  0.00000000000E+00 0.  1.
         13   -1    0    0    0    0 -0.00000000000E+00 -0.00000000000E+00 -0.10000000000E+04  0.10000000000E+04  0.00000000000E+00 0.  1.
    9000005    2    1    2  501    0  0.18750887753E+00 -0.10346655948E+00 -0.89103102908E+03  0.11089594330E+04  0.66019291374E+03 0.  0.
         13    1    3    3    0    0  0.23998907826E+03  0.12922684233E+03 -0.13267296794E+03  0.30314427404E+03  0.00000000000E+00 0.  1.
          1    1    3    3  501    0 -0.23980156938E+03 -0.12933030889E+03 -0.75835806114E+03  0.80581515894E+03  0.00000000000E+00 0.  1.
         21    1    1    2  502  501 -0.18750887753E+00  0.10346655948E+00  0.23995717047E+01  0.24091096434E+01  0.00000000000E+00 0. -1.
<mgrwt>
<rscale>  1 0.66019295E+03</rscale>
<asrwt>0</asrwt>
<pdfrwt beam="1">  1        1 0.40497737E+00 0.66019295E+03</pdfrwt>
<pdfrwt beam="2">0</pdfrwt>
<totfact> 0.12686859E+00</totfact>
</mgrwt>
</event>
<event>
 6    1  0.2108260E-003  0.6661574E+03  0.7818608E-02  0.9776925E-01
          1   -1    0    0  502    0  0.00000000000E+00  0.00000000000E+00  0.11094143503E+03  0.11094143503E+03  0.00000000000E+00 0.  1.
         13   -1    0    0    0    0 -0.00000000000E+00 -0.00000000000E+00 -0.10000000000E+04  0.10000000000E+04  0.00000000000E+00 0.  1.
    9000005    2    1    2  501    0 -0.32795819607E-05 -0.19354637857E-04 -0.88905858813E+03  0.11109414047E+04  0.66615736241E+03 0.  0.
         13    1    3    3    0    0  0.71732465165E+02 -0.31623556138E+03 -0.31762138232E+03  0.45390948364E+03  0.00000000000E+00 0.  1.
          3    1    3    3  501    0 -0.71732468445E+02  0.31623554202E+03 -0.57143720581E+03  0.65703192103E+03  0.00000000000E+00 0.  1.
         21    1    1    2  502  501  0.32795819648E-05  0.19354637838E-04  0.23159610462E-04  0.30359927873E-04  0.00000000000E+00 0.  1.
<mgrwt>
<rscale>  1 0.66615736E+03</rscale>
<asrwt>0</asrwt>
<pdfrwt beam="1">  1        1 0.40342425E+00 0.66615736E+03</pdfrwt>
<pdfrwt beam="2">0</pdfrwt>
<totfact> 0.12876796E+00</totfact>
</mgrwt>
</event>
<event>
 6    1  0.2108260E-003  0.6105966E+03  0.7818608E-02  0.9883662E-01
          1   -1    0    0  502    0  0.00000000000E+00  0.00000000000E+00  0.93207203614E+02  0.93207203614E+02  0.00000000000E+00 0.  1.
         13   -1    0    0    0    0 -0.00000000000E+00 -0.00000000000E+00 -0.10000000000E+04  0.10000000000E+04  0.00000000000E+00 0.  1.
    9000005    2    1    2  501    0  0.88836179089E-04  0.41737642562E-04 -0.90679292368E+03  0.10932070429E+04  0.61059661984E+03 0.  0.
         13    1    3    3    0    0  0.26304258541E+03 -0.15279124919E+03 -0.49975718693E+03  0.58505881197E+03  0.00000000000E+00 0.  1.
          1    1    3    3  501    0 -0.26304249658E+03  0.15279129093E+03 -0.40703573675E+03  0.50814823091E+03  0.00000000000E+00 0.  1.
         21    1    1    2  502  501 -0.88836179078E-04 -0.41737642569E-04  0.12729092231E-03  0.16073853434E-03  0.00000000000E+00 0.  1.
<mgrwt>
<rscale>  1 0.61059662E+03</rscale>
<asrwt>0</asrwt>
<pdfrwt beam="1">  1        1 0.33893600E+00 0.61059662E+03</pdfrwt>
<pdfrwt beam="2">0</pdfrwt>
<totfact> 0.24992576E+00</totfact>
</mgrwt>
</event>
<event>
 6    1  0.2108260E-003  0.6281680E+03  0.7818608E-02  0.9848630E-01
          1   -1    0    0  502    0  0.00000000000E+00  0.00000000000E+00  0.10000956868E+03  0.10000956868E+03  0.00000000000E+00 0.  1.
         13   -1    0    0    0    0 -0.00000000000E+00 -0.00000000000E+00 -0.10000000000E+04  0.10000000000E+04  0.00000000000E+00 0.  1.
    9000005    2    1    2  501    0 -0.13125536918E-01  0.35156833511E-01 -0.90135094105E+03  0.10986485415E+04  0.62816804869E+03 0.  0.
         13    1    3    3    0    0  0.24939016353E+03  0.17886784379E+03 -0.33384590035E+03  0.45347794256E+03  0.00000000000E+00 0.  1.
          1    1    3    3  501    0 -0.24940328907E+03 -0.17883268695E+03 -0.56750504069E+03  0.64517059894E+03  0.00000000000E+00 0.  1.
         21    1    1    2  502  501  0.13125536918E-01 -0.35156833511E-01  0.13605097290E+01  0.13610271876E+01  0.00000000000E+00 0. -1.
<mgrwt>
<rscale>  1 0.62816805E+03</rscale>
<asrwt>0</asrwt>
<pdfrwt beam="1">  1        1 0.36367193E+00 0.62816805E+03</pdfrwt>
<pdfrwt beam="2">0</pdfrwt>
<totfact> 0.19435879E+00</totfact>
</mgrwt>
</event>
<event>
 6    1  0.2108260E-003  0.6530524E+03  0.7818608E-02  0.9801068E-01
          1   -1    0    0  502    0  0.00000000000E+00  0.00000000000E+00  0.10728278900E+03  0.10728278900E+03  0.00000000000E+00 0.  1.
         13   -1    0    0    0    0 -0.00000000000E+00 -0.00000000000E+00 -0.10000000000E+04  0.10000000000E+04  0.00000000000E+00 0.  1.
    9000005    2    1    2  501    0 -0.55459652639E-01 -0.23776609795E-01 -0.89337912443E+03  0.11066181308E+04  0.65305238984E+03 0.  0.
         13    1    3    3    0    0  0.22186762783E+03 -0.58529507895E+01 -0.85246003090E+03  0.88087888248E+03  0.00000000000E+00 0.  1.
          3    1    3    3  501    0 -0.22192308748E+03  0.58291741797E+01 -0.40919093522E+02  0.22573924835E+03  0.00000000000E+00 0.  1.
         21    1    1    2  502  501  0.55459652639E-01  0.23776609795E-01  0.66191342292E+00  0.66465816754E+00  0.00000000000E+00 0.  1.
<mgrwt>
<rscale>  1 0.65305239E+03</rscale>
<asrwt>0</asrwt>
<pdfrwt beam="1">  1        1 0.39012006E+00 0.65305239E+03</pdfrwt>
<pdfrwt beam="2">0</pdfrwt>
<totfact> 0.14794158E+00</totfact>
</mgrwt>
</event>
<event>
 6    1  0.2108260E-003  0.6508715E+03  0.7818608E-02  0.9805145E-01
          1   -1    0    0  502    0  0.00000000000E+00  0.00000000000E+00  0.10590843987E+03  0.10590843987E+03  0.00000000000E+00 0.  1.
         13   -1    0    0    0    0 -0.00000000000E+00 -0.00000000000E+00 -0.10000000000E+04  0.10000000000E+04  0.00000000000E+00 0.  1.
    9000005    2    1    2  501    0  0.20574934751E-05 -0.12372589708E-06 -0.89409156341E+03  0.11059084360E+04  0.65087152730E+03 0.  0.
         13    1    3    3    0    0  0.26132385159E+03  0.17694032427E+03 -0.58202050600E+03  0.66207696166E+03  0.00000000000E+00 0.  1.
          1    1    3    3  501    0 -0.26132384953E+03 -0.17694032440E+03 -0.31207105741E+03  0.44383147433E+03  0.00000000000E+00 0.  1.
         21    1    1    2  502  501 -0.20574935033E-05  0.12372588445E-06  0.32825965105E-05  0.38760840369E-05  0.00000000000E+00 0. -1.
<mgrwt>
<rscale>  1 0.65087153E+03</rscale>
<asrwt>0</asrwt>
<pdfrwt beam="1">  1        1 0.38512241E+00 0.65087153E+03</pdfrwt>
<pdfrwt beam="2">0</pdfrwt>
<totfact> 0.15574025E+00</totfact>
</mgrwt>
</event>
<event>
 6    1  0.2108260E-003  0.6422451E+03  0.7818608E-02  0.9821441E-01
          1   -1    0    0  502    0  0.00000000000E+00  0.00000000000E+00  0.10341056430E+03  0.10341056430E+03  0.00000000000E+00 0.  1.
         13   -1    0    0    0    0 -0.00000000000E+00 -0.00000000000E+00 -0.10000000000E+04  0.10000000000E+04  0.00000000000E+00 0.  1.
    9000005    2    1    2  501    0  0.57962852484E+00  0.53888662389E+00 -0.89608089509E+03  0.11024698297E+04  0.64224460176E+03 0.  0.
         13    1    3    3    0    0  0.12800691308E+03 -0.15857223525E+02  0.56820632173E+02  0.14094610876E+03  0.00000000000E+00 0.  1.
          3    1    3    3  501    0 -0.12742728455E+03  0.16396110149E+02 -0.95290152726E+03  0.96152372094E+03  0.00000000000E+00 0.  1.
         21    1    1    2  502  501 -0.57962852484E+00 -0.53888662389E+00 -0.50854061340E+00  0.94073459365E+00  0.00000000000E+00 0.  1.
<mgrwt>
<rscale>  1 0.64224509E+03</rscale>
<asrwt>0</asrwt>
<pdfrwt beam="1">  1        1 0.37603921E+00 0.64224509E+03</pdfrwt>
<pdfrwt beam="2">0</pdfrwt>
<totfact> 0.17107199E+00</totfact>
</mgrwt>
</event>
<event>
 6    1  0.2108260E-003  0.6080171E+03  0.7818608E-02  0.9888911E-01
          1   -1    0    0  502    0  0.00000000000E+00  0.00000000000E+00  0.92453900017E+02  0.92453900017E+02  0.00000000000E+00 0.  1.
         13   -1    0    0    0    0 -0.00000000000E+00 -0.00000000000E+00 -0.10000000000E+04  0.10000000000E+04  0.00000000000E+00 0.  1.
    9000005    2    1    2  501    0 -0.64857746678E-01 -0.82935199282E-01 -0.90742515108E+03  0.10922935460E+04  0.60801708424E+03 0.  0.
         13    1    3    3    0    0  0.29081560397E+03 -0.86049844422E+02 -0.49098734720E+03  0.57710212818E+03  0.00000000000E+00 0.  1.
          1    1    3    3  501    0 -0.29088046172E+03  0.85966909222E+02 -0.41643780388E+03  0.51519141781E+03  0.00000000000E+00 0.  1.
         21    1    1    2  502  501  0.64857746678E-01  0.82935199282E-01 -0.12094890473E+00  0.16035402127E+00  0.00000000000E+00 0. -1.
<mgrwt>
<rscale>  1 0.60801709E+03</rscale>
<asrwt>0</asrwt>
<pdfrwt beam="1">  1        1 0.33619671E+00 0.60801709E+03</pdfrwt>
<pdfrwt beam="2">0</pdfrwt>
<totfact> 0.25697979E+00</totfact>
</mgrwt>
</event>
<event>
 6    1  0.2638216E-003  0.6510223E+03  0.7818608E-02  0.9804863E-01
          1   -1    0    0  502    0  0.00000000000E+00  0.00000000000E+00  0.10595751756E+03  0.10595751756E+03  0.00000000000E+00 0.  1.
         13   -1    0    0    0    0 -0.00000000000E+00 -0.00000000000E+00 -0.10000000000E+04  0.10000000000E+04  0.00000000000E+00 0.  1.
    9000005    2    1    2  501    0 -0.74036637443E-06  0.17118566120E-05 -0.89404248334E+03  0.11059575155E+04  0.65102232225E+03 0.  0.
         13    1    3    3    0    0 -0.15851302611E+03 -0.28429655055E+03 -0.45138803332E+03  0.55650881820E+03  0.00000000000E+00 0.  1.
          3    1    3    3  501    0  0.15851302537E+03  0.28429655226E+03 -0.44265445001E+03  0.54944869730E+03  0.00000000000E+00 0.  1.
         21    1    1    2  502  501  0.74036634693E-06 -0.17118566154E-05  0.89989439628E-06  0.20708465235E-05  0.00000000000E+00 0. -1.
<mgrwt>
<rscale>  1 0.65102232E+03</rscale>
<asrwt>0</asrwt>
<pdfrwt beam="1">  1        1 0.38530088E+00 0.65102232E+03</pdfrwt>
<pdfrwt beam="2">0</pdfrwt>
<totfact> 0.15545307E+00</totfact>
</mgrwt>
</event>
<event>
 6    1  0.2108260E-003  0.6472645E+03  0.7818608E-02  0.9811926E-01
          1   -1    0    0  502    0  0.00000000000E+00  0.00000000000E+00  0.10473803425E+03  0.10473803425E+03  0.00000000000E+00 0.  1.
         13   -1    0    0    0    0 -0.00000000000E+00 -0.00000000000E+00 -0.10000000000E+04  0.10000000000E+04  0.00000000000E+00 0.  1.
    9000005    2    1    2  501    0 -0.12714472078E-04  0.21407995973E-04 -0.89526215093E+03  0.11047378474E+04  0.64726454606E+03 0.  0.
         13    1    3    3    0    0 -0.10266418144E+03  0.21220294701E+03 -0.69172878386E+02  0.24567236713E+03  0.00000000000E+00 0.  1.
          1    1    3    3  501    0  0.10266416872E+03 -0.21220292560E+03 -0.82608927255E+03  0.85906548027E+03  0.00000000000E+00 0.  1.
         21    1    1    2  502  501  0.12714472078E-04 -0.21407995974E-04  0.18518631835E-03  0.18685270294E-03  0.00000000000E+00 0.  1.
<mgrwt>
<rscale>  1 0.64726455E+03</rscale>
<asrwt>0</asrwt>
<pdfrwt beam="1">  1        1 0.38086638E+00 0.64726455E+03</pdfrwt>
<pdfrwt beam="2">0</pdfrwt>
<totfact> 0.16274067E+00</totfact>
</mgrwt>
</event>
<event>
 6    1  0.2108260E-003  0.6476824E+03  0.7818608E-02  0.9811138E-01
          1   -1    0    0  502    0  0.00000000000E+00  0.00000000000E+00  0.10508587663E+03  0.10508587663E+03  0.00000000000E+00 0.  1.
         13   -1    0    0    0    0 -0.00000000000E+00 -0.00000000000E+00 -0.10000000000E+04  0.10000000000E+04  0.00000000000E+00 0.  1.
    9000005    2    1    2  501    0 -0.93595475717E-02 -0.20459913052E-02 -0.89512674366E+03  0.11048730406E+04  0.64768244421E+03 0.  0.
         13    1    3    3    0    0 -0.22415637863E+02  0.47652267416E+02  0.97520130577E+02  0.11083038969E+03  0.00000000000E+00 0.  1.
          1    1    3    3  501    0  0.22406278316E+02 -0.47654313408E+02 -0.99264687424E+03  0.99404265091E+03  0.00000000000E+00 0.  1.
         21    1    1    2  502  501  0.93595475717E-02  0.20459913052E-02  0.21262028968E+00  0.21283602795E+00  0.00000000000E+00 0. -1.
<mgrwt>
<rscale>  1 0.64768244E+03</rscale>
<asrwt>0</asrwt>
<pdfrwt beam="1">  1        1 0.38213127E+00 0.64768244E+03</pdfrwt>
<pdfrwt beam="2">0</pdfrwt>
<totfact> 0.16064886E+00</totfact>
</mgrwt>
</event>
<event>
 6    1  0.2108260E-003  0.6482214E+03  0.7818608E-02  0.9810122E-01
          1   -1    0    0  502    0  0.00000000000E+00  0.00000000000E+00  0.10603334152E+03  0.10603334152E+03  0.00000000000E+00 0.  1.
         13   -1    0    0    0    0 -0.00000000000E+00 -0.00000000000E+00 -0.10000000000E+04  0.10000000000E+04  0.00000000000E+00 0.  1.
    9000005    2    1    2  501    0  0.77426336277E-01 -0.29326919146E-02 -0.89495057318E+03  0.11050463807E+04  0.64822138899E+03 0.  0.
         13    1    3    3    0    0  0.24651625146E+03  0.17803188276E+03 -0.25615341218E+03  0.39759298797E+03  0.00000000000E+00 0.  1.
          1    1    3    3  501    0 -0.24643882512E+03 -0.17803481545E+03 -0.63879716100E+03  0.70745339277E+03  0.00000000000E+00 0.  1.
         21    1    1    2  502  501 -0.77426336277E-01  0.29326919146E-02  0.98391470662E+00  0.98696078348E+00  0.00000000000E+00 0.  1.
<mgrwt>
<rscale>  1 0.64822139E+03</rscale>
<asrwt>0</asrwt>
<pdfrwt beam="1">  1        1 0.38557660E+00 0.64822139E+03</pdfrwt>
<pdfrwt beam="2">0</pdfrwt>
<totfact> 0.15509741E+00</totfact>
</mgrwt>
</event>
<event>
 6    1  0.2143524E-003  0.6587364E+03  0.7818608E-02  0.9790523E-01
          1   -1    0    0  502    0  0.00000000000E+00  0.00000000000E+00  0.10848339765E+03  0.10848339765E+03  0.00000000000E+00 0.  1.
         13   -1    0    0    0    0 -0.00000000000E+00 -0.00000000000E+00 -0.10000000000E+04  0.10000000000E+04  0.00000000000E+00 0.  1.
    9000005    2    1    2  501    0 -0.60519152498E-05 -0.26914754869E-05 -0.89151660016E+03  0.11084833907E+04  0.65873635016E+03 0.  0.
         13    1    3    3    0    0  0.18248724982E+03 -0.16214433996E+03 -0.73681946428E+02  0.25499296570E+03  0.00000000000E+00 0.  1.
          3    1    3    3  501    0 -0.18248725587E+03  0.16214433727E+03 -0.81783465374E+03  0.85349042497E+03  0.00000000000E+00 0.  1.
         21    1    1    2  502  501  0.60519152280E-05  0.26914754664E-05 -0.21895798451E-05  0.69759571395E-05  0.00000000000E+00 0. -1.
<mgrwt>
<rscale>  1 0.65873635E+03</rscale>
<asrwt>0</asrwt>
<pdfrwt beam="1">  1        1 0.39448591E+00 0.65873635E+03</pdfrwt>
<pdfrwt beam="2">0</pdfrwt>
<totfact> 0.14133382E+00</totfact>
</mgrwt>
</event>
<event>
 6    1  0.3287266E-003  0.6307260E+03  0.7818608E-02  0.9843633E-01
          1   -1    0    0  502    0  0.00000000000E+00  0.00000000000E+00  0.99453834882E+02  0.99453834882E+02  0.00000000000E+00 0.  1.
         13   -1    0    0    0    0 -0.00000000000E+00 -0.00000000000E+00 -0.10000000000E+04  0.10000000000E+04  0.00000000000E+00 0.  1.
    9000005    2    1    2  501    0 -0.19899885757E-05 -0.17571892386E-06 -0.90054617050E+03  0.10994538291E+04  0.63072602390E+03 0.  0.
         13    1    3    3    0    0 -0.83647440920E+02  0.23825715972E+03 -0.77958870051E+03  0.81946440465E+03  0.00000000000E+00 0.  1.
          3    1    3    3  501    0  0.83647438930E+02 -0.23825715990E+03 -0.12095746999E+03  0.27998942449E+03  0.00000000000E+00 0.  1.
         21    1    1    2  502  501  0.19899885819E-05  0.17571893059E-06  0.53774258276E-05  0.57365181277E-05  0.00000000000E+00 0.  1.
<mgrwt>
<rscale>  1 0.63072602E+03</rscale>
<asrwt>0</asrwt>
<pdfrwt beam="1">  1        1 0.36165107E+00 0.63072602E+03</pdfrwt>
<pdfrwt beam="2">0</pdfrwt>
<totfact> 0.19826656E+00</totfact>
</mgrwt>
</event>
<event>
 6    1  0.2108260E-003  0.6485375E+03  0.7818608E-02  0.9809527E-01
          1   -1    0    0  502    0  0.00000000000E+00  0.00000000000E+00  0.10515025901E+03  0.10515025901E+03  0.00000000000E+00 0.  1.
         13   -1    0    0    0    0 -0.00000000000E+00 -0.00000000000E+00 -0.10000000000E+04  0.10000000000E+04  0.00000000000E+00 0.  1.
    9000005    2    1    2  501    0  0.84126485618E-05 -0.11242511359E-04 -0.89484976849E+03  0.11051502281E+04  0.64853752287E+03 0.  0.
         13    1    3    3    0    0 -0.39243157687E+02 -0.26497859762E+02 -0.99407685835E+03  0.99520398025E+03  0.00000000000E+00 0.  1.
          1    1    3    3  501    0  0.39243166099E+02  0.26497848519E+02  0.99227089858E+02  0.10994624788E+03  0.00000000000E+00 0.  1.
         21    1    1    2  502  501 -0.84126485572E-05  0.11242511362E-04  0.27498846358E-04  0.30876419296E-04  0.00000000000E+00 0.  1.
<mgrwt>
<rscale>  1 0.64853752E+03</rscale>
<asrwt>0</asrwt>
<pdfrwt beam="1">  1        1 0.38236538E+00 0.64853752E+03</pdfrwt>
<pdfrwt beam="2">0</pdfrwt>
<totfact> 0.16024154E+00</totfact>
</mgrwt>
</event>
<event>
 6    1  0.2108260E-003  0.6307954E+03  0.7818608E-02  0.9843498E-01
          1   -1    0    0  502    0  0.00000000000E+00  0.00000000000E+00  0.99882566083E+02  0.99882566083E+02  0.00000000000E+00 0.  1.
         13   -1    0    0    0    0 -0.00000000000E+00 -0.00000000000E+00 -0.10000000000E+04  0.10000000000E+04  0.00000000000E+00 0.  1.
    9000005    2    1    2  501    0 -0.41048646906E-02 -0.23243756839E-01 -0.90052390711E+03  0.10994754082E+04  0.63079542270E+03 0.  0.
         13    1    3    3    0    0 -0.16755731003E+03 -0.22248501982E+03 -0.19229649920E+03  0.33845676207E+03  0.00000000000E+00 0.  1.
          1    1    3    3  501    0  0.16755320516E+03  0.22246177606E+03 -0.70822740791E+03  0.76101864608E+03  0.00000000000E+00 0.  1.
         21    1    1    2  502  501  0.41048646906E-02  0.23243756839E-01  0.40647319495E+00  0.40715793048E+00  0.00000000000E+00 0. -1.
<mgrwt>
<rscale>  1 0.63079542E+03</rscale>
<asrwt>0</asrwt>
<pdfrwt beam="1">  1        1 0.36321010E+00 0.63079542E+03</pdfrwt>
<pdfrwt beam="2">0</pdfrwt>
<totfact> 0.19517276E+00</totfact>
</mgrwt>
</event>
<event>
 6    1  0.2108260E-003  0.6486956E+03  0.7818608E-02  0.9809230E-01
          1   -1    0    0  502    0  0.00000000000E+00  0.00000000000E+00  0.10520557779E+03  0.10520557779E+03  0.00000000000E+00 0.  1.
         13   -1    0    0    0    0 -0.00000000000E+00 -0.00000000000E+00 -0.10000000000E+04  0.10000000000E+04  0.00000000000E+00 0.  1.
    9000005    2    1    2  501    0  0.12384686627E-01 -0.22711921644E-02 -0.89477597777E+03  0.11051832454E+04  0.64869557988E+03 0.  0.
         13    1    3    3    0    0  0.31852959128E+03 -0.27623173818E+02 -0.54042164077E+03  0.62791694520E+03  0.00000000000E+00 0.  1.
          3    1    3    3  501    0 -0.31851720659E+03  0.27620902626E+02 -0.35435433700E+03  0.47726630020E+03  0.00000000000E+00 0.  1.
         21    1    1    2  502  501 -0.12384686627E-01  0.22711921644E-02 -0.18444437768E-01  0.22332399362E-01  0.00000000000E+00 0.  1.
<mgrwt>
<rscale>  1 0.64869558E+03</rscale>
<asrwt>0</asrwt>
<pdfrwt beam="1">  1        1 0.38256654E+00 0.64869558E+03</pdfrwt>
<pdfrwt beam="2">0</pdfrwt>
<totfact> 0.15990934E+00</totfact>
</mgrwt>
</event>
<event>
 6    1  0.2108260E-003  0.6570838E+03  0.7818608E-02  0.9793577E-01
          1   -1    0    0  502    0  0.00000000000E+00  0.00000000000E+00  0.10884169583E+03  0.10884169583E+03  0.00000000000E+00 0.  1.
         13   -1    0    0    0    0 -0.00000000000E+00 -0.00000000000E+00 -0.10000000000E+04  0.10000000000E+04  0.00000000000E+00 0.  1.
    9000005    2    1    2  501    0  0.48654322536E+00 -0.24064914041E+01 -0.88949792512E+03  0.11058777822E+04  0.65707920568E+03 0.  0.
         13    1    3    3    0    0  0.26994419829E+03  0.11996216273E+03 -0.20333861738E+03  0.35861871674E+03  0.00000000000E+00 0.  1.
          1    1    3    3  501    0 -0.26945765506E+03 -0.12236865413E+03 -0.68615930774E+03  0.74725906551E+03  0.00000000000E+00 0.  1.
         21    1    1    2  502  501 -0.48654322536E+00  0.24064914041E+01 -0.16603790445E+01  0.29639135884E+01  0.00000000000E+00 0.  1.
<mgrwt>
<rscale>  1 0.65708379E+03</rscale>
<asrwt>0</asrwt>
<pdfrwt beam="1">  1        1 0.39578882E+00 0.65708379E+03</pdfrwt>
<pdfrwt beam="2">0</pdfrwt>
<totfact> 0.13950378E+00</totfact>
</mgrwt>
</event>
<event>
 6    1  0.2108260E-003  0.6435335E+03  0.7818608E-02  0.9818989E-01
          1   -1    0    0  502    0  0.00000000000E+00  0.00000000000E+00  0.10353453929E+03  0.10353453929E+03  0.00000000000E+00 0.  1.
         13   -1    0    0    0    0 -0.00000000000E+00 -0.00000000000E+00 -0.10000000000E+04  0.10000000000E+04  0.00000000000E+00 0.  1.
    9000005    2    1    2  501    0 -0.97681162629E-04  0.11386353452E-03 -0.89646616260E+03  0.11035338215E+04  0.64353346036E+03 0.  0.
         13    1    3    3    0    0 -0.28203106354E+03 -0.15011712942E+03 -0.38277415998E+03  0.49859074489E+03  0.00000000000E+00 0.  1.
          1    1    3    3  501    0  0.28203096585E+03  0.15011724329E+03 -0.51369200262E+03  0.60494307665E+03  0.00000000000E+00 0.  1.
         21    1    1    2  502  501  0.97681162622E-04 -0.11386353453E-03  0.70188722137E-03  0.71774102958E-03  0.00000000000E+00 0.  1.
<mgrwt>
<rscale>  1 0.64353346E+03</rscale>
<asrwt>0</asrwt>
<pdfrwt beam="1">  1        1 0.37649003E+00 0.64353346E+03</pdfrwt>
<pdfrwt beam="2">0</pdfrwt>
<totfact> 0.17025145E+00</totfact>
</mgrwt>
</event>
<event>
 6    1  0.2108260E-003  0.4569015E+03  0.7818608E-02  0.1025684E+00
          1   -1    0    0  502    0  0.00000000000E+00  0.00000000000E+00  0.52712754977E+02  0.52712754977E+02  0.00000000000E+00 0.  1.
         13   -1    0    0    0    0 -0.00000000000E+00 -0.00000000000E+00 -0.10000000000E+04  0.10000000000E+04  0.00000000000E+00 0.  1.
    9000005    2    1    2  501    0  0.16043757991E-01  0.76467998492E-01 -0.94780719398E+03  0.10521869683E+04  0.45690144790E+03 0.  0.
         13    1    3    3    0    0 -0.44910873605E+01  0.16516434160E+03 -0.11055216814E+03  0.19879942526E+03  0.00000000000E+00 0.  1.
          1    1    3    3  501    0  0.45071311185E+01 -0.16508787361E+03 -0.83725502584E+03  0.85338754299E+03  0.00000000000E+00 0.  1.
         21    1    1    2  502  501 -0.16043757991E-01 -0.76467998492E-01  0.51994895880E+00  0.52578672171E+00  0.00000000000E+00 0.  1.
<mgrwt>
<rscale>  1 0.45690145E+03</rscale>
<asrwt>0</asrwt>
<pdfrwt beam="1">  1        1 0.19168315E+00 0.45690145E+03</pdfrwt>
<pdfrwt beam="2">0</pdfrwt>
<totfact> 0.11293931E+01</totfact>
</mgrwt>
</event>
<event>
 6    1  0.2108260E-003  0.6548715E+03  0.7818608E-02  0.9797681E-01
          1   -1    0    0  502    0  0.00000000000E+00  0.00000000000E+00  0.10748228540E+03  0.10748228540E+03  0.00000000000E+00 0.  1.
         13   -1    0    0    0    0 -0.00000000000E+00 -0.00000000000E+00 -0.10000000000E+04  0.10000000000E+04  0.00000000000E+00 0.  1.
    9000005    2    1    2  501    0  0.22558003320E-02  0.52439990449E-02 -0.89278578762E+03  0.11072141516E+04  0.65487152551E+03 0.  0.
         13    1    3    3    0    0 -0.24761277620E+03 -0.20343621204E+03 -0.55998593668E+03  0.64519968117E+03  0.00000000000E+00 0.  1.
          1    1    3    3  501    0  0.24761503200E+03  0.20344145604E+03 -0.33279985094E+03  0.46201447044E+03  0.00000000000E+00 0.  1.
         21    1    1    2  502  501 -0.22558003320E-02 -0.52439990449E-02  0.26807301501E+00  0.26813379036E+00  0.00000000000E+00 0. -1.
<mgrwt>
<rscale>  1 0.65487153E+03</rscale>
<asrwt>0</asrwt>
<pdfrwt beam="1">  1        1 0.39084550E+00 0.65487153E+03</pdfrwt>
<pdfrwt beam="2">0</pdfrwt>
<totfact> 0.14679985E+00</totfact>
</mgrwt>
</event>
<event>
 6    1  0.2108260E-003  0.5679739E+03  0.7818608E-02  0.9974172E-01
          1   -1    0    0  502    0  0.00000000000E+00  0.00000000000E+00  0.84122579401E+02  0.84122579401E+02  0.00000000000E+00 0.  1.
         13   -1    0    0    0    0 -0.00000000000E+00 -0.00000000000E+00 -0.10000000000E+04  0.10000000000E+04  0.00000000000E+00 0.  1.
    9000005    2    1    2  501    0 -0.30130316300E+01  0.68320284293E+00 -0.91859683516E+03  0.10800067148E+04  0.56796550366E+03 0.  0.
         13    1    3    3    0    0  0.13553185059E+03  0.24731868905E+03 -0.40254276805E+03  0.49150391309E+03  0.00000000000E+00 0.  1.
          3    1    3    3  501    0 -0.13854488222E+03 -0.24663548621E+03 -0.51605406711E+03  0.58850280172E+03  0.00000000000E+00 0.  1.
         21    1    1    2  502  501  0.30130316300E+01 -0.68320284293E+00  0.27194145642E+01  0.41158645872E+01  0.00000000000E+00 0. -1.
<mgrwt>
<rscale>  1 0.56797391E+03</rscale>
<asrwt>0</asrwt>
<pdfrwt beam="1">  1        1 0.30590093E+00 0.56797391E+03</pdfrwt>
<pdfrwt beam="2">0</pdfrwt>
<totfact> 0.34996307E+00</totfact>
</mgrwt>
</event>
<event>
 6    1  0.2108260E-003  0.6526009E+03  0.7818608E-02  0.9801911E-01
          1   -1    0    0  502    0  0.00000000000E+00  0.00000000000E+00  0.10785178642E+03  0.10785178642E+03  0.00000000000E+00 0.  1.
         13   -1    0    0    0    0 -0.00000000000E+00 -0.00000000000E+00 -0.10000000000E+04  0.10000000000E+04  0.00000000000E+00 0.  1.
    9000005    2    1    2  501    0 -0.12301166539E+01  0.37499922175E+01 -0.88891390430E+03  0.11027492003E+04  0.65258891644E+03 0.  0.
         13    1    3    3    0    0 -0.25627993315E+02  0.18994874487E+03  0.25840862905E+01  0.19168723802E+03  0.00000000000E+00 0.  1.
          3    1    3    3  501    0  0.24397876661E+02 -0.18619875265E+03 -0.89149799059E+03  0.91106196227E+03  0.00000000000E+00 0.  1.
         21    1    1    2  502  501  0.12301166539E+01 -0.37499922175E+01 -0.32343092826E+01  0.51025861237E+01  0.00000000000E+00 0. -1.
<mgrwt>
<rscale>  1 0.65260085E+03</rscale>
<asrwt>0</asrwt>
<pdfrwt beam="1">  1        1 0.39218914E+00 0.65260085E+03</pdfrwt>
<pdfrwt beam="2">0</pdfrwt>
<totfact> 0.14485922E+00</totfact>
</mgrwt>
</event>
<event>
 6    1  0.2108260E-003  0.6498608E+03  0.7818608E-02  0.9807040E-01
          1   -1    0    0  502    0  0.00000000000E+00  0.00000000000E+00  0.10559633246E+03  0.10559633246E+03  0.00000000000E+00 0.  1.
         13   -1    0    0    0    0 -0.00000000000E+00 -0.00000000000E+00 -0.10000000000E+04  0.10000000000E+04  0.00000000000E+00 0.  1.
    9000005    2    1    2  501    0 -0.24788714148E-03  0.10894404308E-03 -0.89442024544E+03  0.11055797523E+04  0.64986076458E+03 0.  0.
         13    1    3    3    0    0 -0.30724095748E+03 -0.92683241863E+02 -0.36058590228E+03  0.48271045379E+03  0.00000000000E+00 0.  1.
          3    1    3    3  501    0  0.30724070959E+03  0.92683350807E+02 -0.53383434316E+03  0.62286929856E+03  0.00000000000E+00 0.  1.
         21    1    1    2  502  501  0.24788714150E-03 -0.10894404308E-03  0.16577905104E-01  0.16580116239E-01  0.00000000000E+00 0. -1.
<mgrwt>
<rscale>  1 0.64986076E+03</rscale>
<asrwt>0</asrwt>
<pdfrwt beam="1">  1        1 0.38398747E+00 0.64986076E+03</pdfrwt>
<pdfrwt beam="2">0</pdfrwt>
<totfact> 0.15757992E+00</totfact>
</mgrwt>
</event>
<event>
 6    1  0.2108260E-003  0.6470016E+03  0.7818608E-02  0.9812422E-01
          1   -1    0    0  502    0  0.00000000000E+00  0.00000000000E+00  0.13387604376E+03  0.13387604376E+03  0.00000000000E+00 0.  1.
         13   -1    0    0    0    0 -0.00000000000E+00 -0.00000000000E+00 -0.10000000000E+04  0.10000000000E+04  0.00000000000E+00 0.  1.
    9000005    2    1    2  501    0  0.60670943061E+00 -0.15883989274E+01 -0.89531991484E+03  0.11046306150E+04  0.64699934658E+03 0.  0.
         13    1    3    3    0    0 -0.13192421151E+03  0.28357753089E+03 -0.31099494146E+03  0.44106469732E+03  0.00000000000E+00 0.  1.
          1    1    3    3  501    0  0.13253092094E+03 -0.28516592981E+03 -0.58432497338E+03  0.66356591763E+03  0.00000000000E+00 0.  1.
         21    1    1    2  502  501 -0.60670943061E+00  0.15883989274E+01  0.29195958595E+02  0.29245428801E+02  0.00000000000E+00 0.  1.
<mgrwt>
<rscale>  1 0.64700158E+03</rscale>
<asrwt>0</asrwt>
<pdfrwt beam="1">  1        1 0.48682300E+00 0.64700158E+03</pdfrwt>
<pdfrwt beam="2">0</pdfrwt>
<totfact> 0.53486935E-01</totfact>
</mgrwt>
</event>
<event>
 6    1  0.2108260E-003  0.6457867E+03  0.7818608E-02  0.9814717E-01
          1   -1    0    0  502    0  0.00000000000E+00  0.00000000000E+00  0.10426014163E+03  0.10426014163E+03  0.00000000000E+00 0.  1.
         13   -1    0    0    0    0 -0.00000000000E+00 -0.00000000000E+00 -0.10000000000E+04  0.10000000000E+04  0.00000000000E+00 0.  1.
    9000005    2    1    2  501    0 -0.19115794601E-05 -0.26494786880E-05 -0.89573987395E+03  0.11042601257E+04  0.64578673219E+03 0.  0.
         13    1    3    3    0    0  0.14277733855E+03 -0.28782747882E+03 -0.50275094195E+03  0.59664774834E+03  0.00000000000E+00 0.  1.
          3    1    3    3  501    0 -0.14277734046E+03  0.28782747617E+03 -0.39298893200E+03  0.50761237738E+03  0.00000000000E+00 0.  1.
         21    1    1    2  502  501  0.19115794658E-05  0.26494787240E-05  0.15575477437E-04  0.15914439071E-04  0.00000000000E+00 0. -1.
<mgrwt>
<rscale>  1 0.64578673E+03</rscale>
<asrwt>0</asrwt>
<pdfrwt beam="1">  1        1 0.37912859E+00 0.64578673E+03</pdfrwt>
<pdfrwt beam="2">0</pdfrwt>
<totfact> 0.16568441E+00</totfact>
</mgrwt>
</event>
<event>
 6    1  0.2108260E-003  0.6454867E+03  0.7818608E-02  0.9815285E-01
          1   -1    0    0  502    0  0.00000000000E+00  0.00000000000E+00  0.10422575421E+03  0.10422575421E+03  0.00000000000E+00 0.  1.
         13   -1    0    0    0    0 -0.00000000000E+00 -0.00000000000E+00 -0.10000000000E+04  0.10000000000E+04  0.00000000000E+00 0.  1.
    9000005    2    1    2  501    0  0.19540632848E-01  0.51636824942E-02 -0.89583491777E+03  0.11041618043E+04  0.64548670769E+03 0.  0.
         13    1    3    3    0    0  0.28860470164E+03 -0.13328523810E+03 -0.54333223137E+03  0.62949784921E+03  0.00000000000E+00 0.  1.
          1    1    3    3  501    0 -0.28858516101E+03  0.13329040178E+03 -0.35250268640E+03  0.47466395511E+03  0.00000000000E+00 0.  1.
         21    1    1    2  502  501 -0.19540632848E-01 -0.51636824943E-02  0.60671975366E-01  0.63949890882E-01  0.00000000000E+00 0. -1.
<mgrwt>
<rscale>  1 0.64548671E+03</rscale>
<asrwt>0</asrwt>
<pdfrwt beam="1">  1        1 0.37900354E+00 0.64548671E+03</pdfrwt>
<pdfrwt beam="2">0</pdfrwt>
<totfact> 0.16590407E+00</totfact>
</mgrwt>
</event>
<event>
 6    1  0.2108260E-003  0.6585505E+03  0.7818608E-02  0.9790866E-01
          1   -1    0    0  502    0  0.00000000000E+00  0.00000000000E+00  0.12469924188E+03  0.12469924188E+03  0.00000000000E+00 0.  1.
         13   -1    0    0    0    0 -0.00000000000E+00 -0.00000000000E+00 -0.10000000000E+04  0.10000000000E+04  0.00000000000E+00 0.  1.
    9000005    2    1    2  501    0 -0.19820940074E+00  0.13677494184E+01 -0.89154529221E+03  0.11083960240E+04  0.65854903229E+03 0.  0.
         13    1    3    3    0    0 -0.44723789249E+02  0.21400924877E+02  0.10212646706E+03  0.11352546932E+03  0.00000000000E+00 0.  1.
          3    1    3    3  501    0  0.44525579848E+02 -0.20033175458E+02 -0.99367175927E+03  0.99487055468E+03  0.00000000000E+00 0.  1.
         21    1    1    2  502  501  0.19820940074E+00 -0.13677494184E+01  0.16244534095E+02  0.16303217885E+02  0.00000000000E+00 0.  1.
<mgrwt>
<rscale>  1 0.65855048E+03</rscale>
<asrwt>0</asrwt>
<pdfrwt beam="1">  1        1 0.45345274E+00 0.65855048E+03</pdfrwt>
<pdfrwt beam="2">0</pdfrwt>
<totfact> 0.76451486E-01</totfact>
</mgrwt>
</event>
<event>
 6    1  0.2108260E-003  0.6223665E+03  0.7818608E-02  0.9860059E-01
          1   -1    0    0  502    0  0.00000000000E+00  0.00000000000E+00  0.96835287962E+02  0.96835287962E+02  0.00000000000E+00 0.  1.
         13   -1    0    0    0    0 -0.00000000000E+00 -0.00000000000E+00 -0.10000000000E+04  0.10000000000E+04  0.00000000000E+00 0.  1.
    9000005    2    1    2  501    0 -0.19126708788E-03 -0.72884318541E-04 -0.90316492451E+03  0.10968349929E+04  0.62236654864E+03 0.  0.
         13    1    3    3    0    0 -0.63719734352E+02  0.17618721628E+03 -0.13704225110E+02  0.18785618306E+03  0.00000000000E+00 0.  1.
          3    1    3    3  501    0  0.63719543085E+02 -0.17618728916E+03 -0.88946069940E+03  0.90897880988E+03  0.00000000000E+00 0.  1.
         21    1    1    2  502  501  0.19126708788E-03  0.72884318527E-04  0.21247180179E-03  0.29502455720E-03  0.00000000000E+00 0.  1.
<mgrwt>
<rscale>  1 0.62236655E+03</rscale>
<asrwt>0</asrwt>
<pdfrwt beam="1">  1        1 0.35212906E+00 0.62236655E+03</pdfrwt>
<pdfrwt beam="2">0</pdfrwt>
<totfact> 0.21852341E+00</totfact>
</mgrwt>
</event>
<event>
 6    1  0.2108260E-003  0.6598772E+03  0.7818608E-02  0.9788420E-01
          1   -1    0    0  502    0  0.00000000000E+00  0.00000000000E+00  0.10899485866E+03  0.10899485866E+03  0.00000000000E+00 0.  1.
         13   -1    0    0    0    0 -0.00000000000E+00 -0.00000000000E+00 -0.10000000000E+04  0.10000000000E+04  0.00000000000E+00 0.  1.
    9000005    2    1    2  501    0  0.31169345127E-01 -0.40119788958E-01 -0.89113522760E+03  0.11088552035E+04  0.65987715972E+03 0.  0.
         13    1    3    3    0    0  0.12709994718E+03 -0.90160056094E+02 -0.93429778434E+03  0.94720408683E+03  0.00000000000E+00 0.  1.
          1    1    3    3  501    0 -0.12706877783E+03  0.90119936305E+02  0.43162556746E+02  0.16165111668E+03  0.00000000000E+00 0.  1.
         21    1    1    2  502  501 -0.31169345127E-01  0.40119788958E-01  0.13008625182E+00  0.13965514117E+00  0.00000000000E+00 0. -1.
<mgrwt>
<rscale>  1 0.65987716E+03</rscale>
<asrwt>0</asrwt>
<pdfrwt beam="1">  1        1 0.39634578E+00 0.65987716E+03</pdfrwt>
<pdfrwt beam="2">0</pdfrwt>
<totfact> 0.13863773E+00</totfact>
</mgrwt>
</event>
<event>
 6    1  0.2108260E-003  0.6476518E+03  0.7818608E-02  0.9811195E-01
          1   -1    0    0  502    0  0.00000000000E+00  0.00000000000E+00  0.10487704598E+03  0.10487704598E+03  0.00000000000E+00 0.  1.
         13   -1    0    0    0    0 -0.00000000000E+00 -0.00000000000E+00 -0.10000000000E+04  0.10000000000E+04  0.00000000000E+00 0.  1.
    9000005    2    1    2  501    0  0.35228309201E-02  0.11350887402E-01 -0.89513389784E+03  0.11048608899E+04  0.64765182833E+03 0.  0.
         13    1    3    3    0    0  0.23087831257E+03  0.20627655126E+03 -0.28562919958E+03  0.42123491126E+03  0.00000000000E+00 0.  1.
          3    1    3    3  501    0 -0.23087478973E+03 -0.20626520037E+03 -0.60950469826E+03  0.68362597860E+03  0.00000000000E+00 0.  1.
         21    1    1    2  502  501 -0.35228309201E-02 -0.11350887402E-01  0.10943822921E-01  0.16156120903E-01  0.00000000000E+00 0. -1.
<mgrwt>
<rscale>  1 0.64765183E+03</rscale>
<asrwt>0</asrwt>
<pdfrwt beam="1">  1        1 0.38137188E+00 0.64765183E+03</pdfrwt>
<pdfrwt beam="2">0</pdfrwt>
<totfact> 0.16189504E+00</totfact>
</mgrwt>
</event>
<event>
 6    1  0.2108260E-003  0.4594773E+03  0.7818608E-02  0.1024933E+00
          1   -1    0    0  502    0  0.00000000000E+00  0.00000000000E+00  0.52847876682E+02  0.52847876682E+02  0.00000000000E+00 0.  1.
         13   -1    0    0    0    0 -0.00000000000E+00 -0.00000000000E+00 -0.10000000000E+04  0.10000000000E+04  0.00000000000E+00 0.  1.
    9000005    2    1    2  501    0  0.54680574191E-01  0.59822296733E-01 -0.94719423493E+03  0.10527565418E+04  0.45947732375E+03 0.  0.
         13    1    3    3    0    0 -0.21817892602E+03  0.19637752089E+02 -0.63198048473E+03  0.66886995607E+03  0.00000000000E+00 0.  1.
          1    1    3    3  501    0  0.21823360659E+03 -0.19577929792E+02 -0.31521375021E+03  0.38388658573E+03  0.00000000000E+00 0.  1.
         21    1    1    2  502  501 -0.54680574191E-01 -0.59822296733E-01  0.42111616171E-01  0.91334881599E-01  0.00000000000E+00 0.  1.
<mgrwt>
<rscale>  1 0.45947733E+03</rscale>
<asrwt>0</asrwt>
<pdfrwt beam="1">  1        1 0.19217450E+00 0.45947733E+03</pdfrwt>
<pdfrwt beam="2">0</pdfrwt>
<totfact> 0.11231103E+01</totfact>
</mgrwt>
</event>
<event>
 6    1  0.2108260E-003  0.5833899E+03  0.7818608E-02  0.9940479E-01
          3   -1    0    0  502    0  0.00000000000E+00  0.00000000000E+00  0.85130370324E+02  0.85130370324E+02  0.00000000000E+00 0.  1.
         13   -1    0    0    0    0 -0.00000000000E+00 -0.00000000000E+00 -0.10000000000E+04  0.10000000000E+04  0.00000000000E+00 0.  1.
    9000005    2    1    2  501    0  0.76914962583E-01  0.20353318399E-01 -0.91487235739E+03  0.10850507612E+04  0.58338985060E+03 0.  0.
         13    1    3    3    0    0 -0.12307669831E+03 -0.10904896351E+03 -0.90546357178E+03  0.92027377987E+03  0.00000000000E+00 0.  1.
          1    1    3    3  501    0  0.12315361327E+03  0.10906931683E+03 -0.94087856124E+01  0.16477698135E+03  0.00000000000E+00 0.  1.
         21    1    1    2  502  501 -0.76914962583E-01 -0.20353318399E-01  0.27277124165E-02  0.79609104090E-01  0.00000000000E+00 0.  1.
<mgrwt>
<rscale>  1 0.58338986E+03</rscale>
<asrwt>0</asrwt>
<pdfrwt beam="1">  1        3 0.30956564E+00 0.58338986E+03</pdfrwt>
<pdfrwt beam="2">0</pdfrwt>
<totfact> 0.18114520E-01</totfact>
</mgrwt>
</event>
<event>
 6    1  0.2108260E-003  0.6433125E+03  0.7818608E-02  0.9819409E-01
          1   -1    0    0  502    0  0.00000000000E+00  0.00000000000E+00  0.10349546760E+03  0.10349546760E+03  0.00000000000E+00 0.  1.
         13   -1    0    0    0    0 -0.00000000000E+00 -0.00000000000E+00 -0.10000000000E+04  0.10000000000E+04  0.00000000000E+00 0.  1.
    9000005    2    1    2  501    0  0.24279298397E-01 -0.48406712840E-01 -0.89651048892E+03  0.11034409866E+04  0.64331248342E+03 0.  0.
         13    1    3    3    0    0 -0.75121505104E+02 -0.27629194570E+03 -0.19681163323E+03  0.34744107236E+03  0.00000000000E+00 0.  1.
          3    1    3    3  501    0  0.75145784402E+02  0.27624353898E+03 -0.69969885569E+03  0.75599991428E+03  0.00000000000E+00 0.  1.
         21    1    1    2  502  501 -0.24279298397E-01  0.48406712840E-01  0.59565174319E-02  0.54480953356E-01  0.00000000000E+00 0.  1.
<mgrwt>
<rscale>  1 0.64331249E+03</rscale>
<asrwt>0</asrwt>
<pdfrwt beam="1">  1        1 0.37634795E+00 0.64331249E+03</pdfrwt>
<pdfrwt beam="2">0</pdfrwt>
<totfact> 0.17050386E+00</totfact>
</mgrwt>
</event>
<event>
 6    1  0.2108260E-003  0.6742328E+03  0.7818608E-02  0.9762341E-01
          1   -1    0    0  502    0  0.00000000000E+00  0.00000000000E+00  0.11364767348E+03  0.11364767348E+03  0.00000000000E+00 0.  1.
         13   -1    0    0    0    0 -0.00000000000E+00 -0.00000000000E+00 -0.10000000000E+04  0.10000000000E+04  0.00000000000E+00 0.  1.
    9000005    2    1    2  501    0 -0.24521802914E-04  0.13787132591E-06 -0.88635254069E+03  0.11136474579E+04  0.67423277444E+03 0.  0.
         13    1    3    3    0    0 -0.29174948001E+03  0.77569737700E+01 -0.72187057025E+03  0.77863666105E+03  0.00000000000E+00 0.  1.
          1    1    3    3  501    0  0.29174945549E+03 -0.77569736322E+01 -0.16448197043E+03  0.33501079686E+03  0.00000000000E+00 0.  1.
         21    1    1    2  502  501  0.24521802940E-04 -0.13787132579E-06  0.21417001519E-03  0.21556932350E-03  0.00000000000E+00 0. -1.
<mgrwt>
<rscale>  1 0.67423277E+03</rscale>
<asrwt>0</asrwt>
<pdfrwt beam="1">  1        1 0.41326514E+00 0.67423277E+03</pdfrwt>
<pdfrwt beam="2">0</pdfrwt>
<totfact> 0.11615703E+00</totfact>
</mgrwt>
</event>
<event>
 6    1  0.2108260E-003  0.6357289E+03  0.7818608E-02  0.9833933E-01
          1   -1    0    0  502    0  0.00000000000E+00  0.00000000000E+00  0.10291453508E+03  0.10291453508E+03  0.00000000000E+00 0.  1.
         13   -1    0    0    0    0 -0.00000000000E+00 -0.00000000000E+00 -0.10000000000E+04  0.10000000000E+04  0.00000000000E+00 0.  1.
    9000005    2    1    2  501    0 -0.10199683856E+01  0.22723261418E+00 -0.89880076872E+03  0.11009059940E+04  0.63572800299E+03 0.  0.
         13    1    3    3    0    0  0.92956183400E+01  0.31492359301E+03 -0.37533415176E+03  0.49003979781E+03  0.00000000000E+00 0.  1.
          1    1    3    3  501    0 -0.10315586726E+02 -0.31469636040E+03 -0.52346661696E+03  0.61086619619E+03  0.00000000000E+00 0.  1.
         21    1    1    2  502  501  0.10199683856E+01 -0.22723261418E+00  0.17153038006E+01  0.20085410867E+01  0.00000000000E+00 0. -1.
<mgrwt>
<rscale>  1 0.63572886E+03</rscale>
<asrwt>0</asrwt>
<pdfrwt beam="1">  1        1 0.37423546E+00 0.63572886E+03</pdfrwt>
<pdfrwt beam="2">0</pdfrwt>
<totfact> 0.17443690E+00</totfact>
</mgrwt>
</event>
<event>
 6    1  0.2108260E-003  0.6498816E+03  0.7818608E-02  0.9807001E-01
          1   -1    0    0  502    0  0.00000000000E+00  0.00000000000E+00  0.10558657618E+03  0.10558657618E+03  0.00000000000E+00 0.  1.
         13   -1    0    0    0    0 -0.00000000000E+00 -0.00000000000E+00 -0.10000000000E+04  0.10000000000E+04  0.00000000000E+00 0.  1.
    9000005    2    1    2  501    0  0.13093001400E-04  0.80029553430E-04 -0.89441341937E+03  0.11055864950E+04  0.64988163006E+03 0.  0.
         13    1    3    3    0    0 -0.78178291786E+02  0.23734585197E+03 -0.80055817676E+03  0.83865266537E+03  0.00000000000E+00 0.  1.
          3    1    3    3  501    0  0.78178304879E+02 -0.23734577195E+03 -0.93855242608E+02  0.26693382959E+03  0.00000000000E+00 0.  1.
         21    1    1    2  502  501 -0.13093001399E-04 -0.80029553443E-04 -0.44494137742E-05  0.81215475082E-04  0.00000000000E+00 0. -1.
<mgrwt>
<rscale>  1 0.64988163E+03</rscale>
<asrwt>0</asrwt>
<pdfrwt beam="1">  1        1 0.38395200E+00 0.64988163E+03</pdfrwt>
<pdfrwt beam="2">0</pdfrwt>
<totfact> 0.15763624E+00</totfact>
</mgrwt>
</event>
<event>
 6    1  0.2108260E-003  0.6428333E+03  0.7818608E-02  0.9820321E-01
          1   -1    0    0  502    0  0.00000000000E+00  0.00000000000E+00  0.10331162010E+03  0.10331162010E+03  0.00000000000E+00 0.  1.
         13   -1    0    0    0    0 -0.00000000000E+00 -0.00000000000E+00 -0.10000000000E+04  0.10000000000E+04  0.00000000000E+00 0.  1.
    9000005    2    1    2  501    0 -0.76127474966E-03  0.59493036022E-03 -0.89669123465E+03  0.11033086063E+04  0.64283334575E+03 0.  0.
         13    1    3    3    0    0  0.16562005003E+03 -0.22906047471E+03 -0.71094621729E+03  0.76507726795E+03  0.00000000000E+00 0.  1.
          1    1    3    3  501    0 -0.16562081131E+03  0.22906106964E+03 -0.18574501736E+03  0.33823133834E+03  0.00000000000E+00 0.  1.
         21    1    1    2  502  501  0.76127474966E-03 -0.59493036023E-03  0.28547466989E-02  0.30138115557E-02  0.00000000000E+00 0. -1.
<mgrwt>
<rscale>  1 0.64283335E+03</rscale>
<asrwt>0</asrwt>
<pdfrwt beam="1">  1        1 0.37567941E+00 0.64283335E+03</pdfrwt>
<pdfrwt beam="2">0</pdfrwt>
<totfact> 0.17167872E+00</totfact>
</mgrwt>
</event>
<event>
 6    1  0.2108260E-003  0.6704079E+03  0.7818608E-02  0.9769221E-01
          1   -1    0    0  502    0  0.00000000000E+00  0.00000000000E+00  0.11236222309E+03  0.11236222309E+03  0.00000000000E+00 0.  1.
         13   -1    0    0    0    0 -0.00000000000E+00 -0.00000000000E+00 -0.10000000000E+04  0.10000000000E+04  0.00000000000E+00 0.  1.
    9000005    2    1    2  501    0  0.65527066795E-04  0.81245022809E-04 -0.88763828966E+03  0.11123616998E+04  0.67040794891E+03 0.  0.
         13    1    3    3    0    0  0.31547451018E+03 -0.23903741624E+02 -0.62758355711E+03  0.70282051521E+03  0.00000000000E+00 0.  1.
          1    1    3    3  501    0 -0.31547444465E+03  0.23903822869E+02 -0.26005473255E+03  0.40954118462E+03  0.00000000000E+00 0.  1.
         21    1    1    2  502  501 -0.65527066816E-04 -0.81245022810E-04  0.51275257196E-03  0.52326833486E-03  0.00000000000E+00 0.  1.
<mgrwt>
<rscale>  1 0.67040795E+03</rscale>
<asrwt>0</asrwt>
<pdfrwt beam="1">  1        1 0.40859076E+00 0.67040795E+03</pdfrwt>
<pdfrwt beam="2">0</pdfrwt>
<totfact> 0.12199447E+00</totfact>
</mgrwt>
</event>
<event>
 6    1  0.2108260E-003  0.6515252E+03  0.7818608E-02  0.9803922E-01
          1   -1    0    0  502    0  0.00000000000E+00  0.00000000000E+00  0.10614585340E+03  0.10614585340E+03  0.00000000000E+00 0.  1.
         13   -1    0    0    0    0 -0.00000000000E+00 -0.00000000000E+00 -0.10000000000E+04  0.10000000000E+04  0.00000000000E+00 0.  1.
    9000005    2    1    2  501    0  0.10468159620E-02 -0.48498241750E-03 -0.89387872352E+03  0.11061212494E+04  0.65152516915E+03 0.  0.
         13    1    3    3    0    0 -0.18121628752E+03 -0.22876380234E+03 -0.69266615089E+03  0.75163729066E+03  0.00000000000E+00 0.  1.
          1    1    3    3  501    0  0.18121733433E+03  0.22876331735E+03 -0.20121257263E+03  0.35448395875E+03  0.00000000000E+00 0.  1.
         21    1    1    2  502  501 -0.10468159620E-02  0.48498241750E-03  0.24576926413E-01  0.24603990398E-01  0.00000000000E+00 0.  1.
<mgrwt>
<rscale>  1 0.65152517E+03</rscale>
<asrwt>0</asrwt>
<pdfrwt beam="1">  1        1 0.38598574E+00 0.65152517E+03</pdfrwt>
<pdfrwt beam="2">0</pdfrwt>
<totfact> 0.15435783E+00</totfact>
</mgrwt>
</event>
<event>
 6    1  0.2108260E-003  0.6515505E+03  0.7818608E-02  0.9803874E-01
          3   -1    0    0  502    0  0.00000000000E+00  0.00000000000E+00  0.10613781066E+03  0.10613781066E+03  0.00000000000E+00 0.  1.
         13   -1    0    0    0    0 -0.00000000000E+00 -0.00000000000E+00 -0.10000000000E+04  0.10000000000E+04  0.00000000000E+00 0.  1.
    9000005    2    1    2  501    0  0.68835001628E-03 -0.21245322230E-02 -0.89387032634E+03  0.11061293728E+04  0.65155048075E+03 0.  0.
         13    1    3    3    0    0 -0.15752475269E+03  0.13764264347E+03 -0.22955461548E+02  0.21044357492E+03  0.00000000000E+00 0.  1.
          3    1    3    3  501    0  0.15752544104E+03 -0.13764476800E+03 -0.87091486479E+03  0.89568579784E+03  0.00000000000E+00 0.  1.
         21    1    1    2  502  501 -0.68835001627E-03  0.21245322229E-02  0.81369989397E-02  0.84379034515E-02  0.00000000000E+00 0. -1.
<mgrwt>
<rscale>  1 0.65155048E+03</rscale>
<asrwt>0</asrwt>
<pdfrwt beam="1">  1        3 0.38595649E+00 0.65155048E+03</pdfrwt>
<pdfrwt beam="2">0</pdfrwt>
<totfact> 0.70191844E-02</totfact>
</mgrwt>
</event>
<event>
 6    1  0.2108260E-003  0.6496202E+03  0.7818608E-02  0.9807492E-01
          1   -1    0    0  502    0  0.00000000000E+00  0.00000000000E+00  0.10550757843E+03  0.10550757843E+03  0.00000000000E+00 0.  1.
         13   -1    0    0    0    0 -0.00000000000E+00 -0.00000000000E+00 -0.10000000000E+04  0.10000000000E+04  0.00000000000E+00 0.  1.
    9000005    2    1    2  501    0  0.56709384296E-04 -0.27138574006E-03 -0.89449839415E+03  0.11055015994E+04  0.64962020379E+03 0.  0.
         13    1    3    3    0    0  0.24147276831E+03  0.21628805184E+03 -0.48178858389E+03  0.58069773443E+03  0.00000000000E+00 0.  1.
          1    1    3    3  501    0 -0.24147271160E+03 -0.21628832323E+03 -0.41270981026E+03  0.52480386498E+03  0.00000000000E+00 0.  1.
         21    1    1    2  502  501 -0.56709384300E-04  0.27138574005E-03  0.59725834961E-02  0.59790149516E-02  0.00000000000E+00 0.  1.
<mgrwt>
<rscale>  1 0.64962020E+03</rscale>
<asrwt>0</asrwt>
<pdfrwt beam="1">  1        1 0.38366473E+00 0.64962020E+03</pdfrwt>
<pdfrwt beam="2">0</pdfrwt>
<totfact> 0.15810546E+00</totfact>
</mgrwt>
</event>
<event>
 6    1  0.2108260E-003  0.6316298E+03  0.7818608E-02  0.9841873E-01
          1   -1    0    0  502    0  0.00000000000E+00  0.00000000000E+00  0.99916243334E+02  0.99916243334E+02  0.00000000000E+00 0.  1.
         13   -1    0    0    0    0 -0.00000000000E+00 -0.00000000000E+00 -0.10000000000E+04  0.10000000000E+04  0.00000000000E+00 0.  1.
    9000005    2    1    2  501    0  0.55281284318E-02  0.12503981178E-01 -0.90026065103E+03  0.10997388214E+04  0.63162982467E+03 0.  0.
         13    1    3    3    0    0 -0.69615388008E+02  0.29458825182E+03 -0.60697152221E+03  0.67826467483E+03  0.00000000000E+00 0.  1.
          3    1    3    3  501    0  0.69620916137E+02 -0.29457574784E+03 -0.29328912882E+03  0.42147414661E+03  0.00000000000E+00 0.  1.
         21    1    1    2  502  501 -0.55281284318E-02 -0.12503981178E-01  0.17689436397E+00  0.17742188634E+00  0.00000000000E+00 0. -1.
<mgrwt>
<rscale>  1 0.63162982E+03</rscale>
<asrwt>0</asrwt>
<pdfrwt beam="1">  1        1 0.36333256E+00 0.63162982E+03</pdfrwt>
<pdfrwt beam="2">0</pdfrwt>
<totfact> 0.19490243E+00</totfact>
</mgrwt>
</event>
<event>
 6    1  0.2108260E-003  0.6527037E+03  0.7818608E-02  0.9801719E-01
          1   -1    0    0  502    0  0.00000000000E+00  0.00000000000E+00  0.10652068232E+03  0.10652068232E+03  0.00000000000E+00 0.  1.
         13   -1    0    0    0    0 -0.00000000000E+00 -0.00000000000E+00 -0.10000000000E+04  0.10000000000E+04  0.00000000000E+00 0.  1.
    9000005    2    1    2  501    0  0.80651019530E-04 -0.19215045576E-03 -0.89349446017E+03  0.11065055384E+04  0.65270372770E+03 0.  0.
         13    1    3    3    0    0  0.10356929075E+03  0.10265331739E+03 -0.94169836233E+03  0.95292187884E+03  0.00000000000E+00 0.  1.
          1    1    3    3  501    0 -0.10356921010E+03 -0.10265350954E+03  0.48203902158E+02  0.15358365956E+03  0.00000000000E+00 0.  1.
         21    1    1    2  502  501 -0.80651019535E-04  0.19215045576E-03  0.15142483899E-01  0.15143917757E-01  0.00000000000E+00 0.  1.
<mgrwt>
<rscale>  1 0.65270373E+03</rscale>
<asrwt>0</asrwt>
<pdfrwt beam="1">  1        1 0.38734875E+00 0.65270373E+03</pdfrwt>
<pdfrwt beam="2">0</pdfrwt>
<totfact> 0.15219482E+00</totfact>
</mgrwt>
</event>
<event>
 6    1  0.2108260E-003  0.5235406E+03  0.7818608E-02  0.1007811E+00
          1   -1    0    0  502    0  0.00000000000E+00  0.00000000000E+00  0.68527193822E+02  0.68527193822E+02  0.00000000000E+00 0.  1.
         13   -1    0    0    0    0 -0.00000000000E+00 -0.00000000000E+00 -0.10000000000E+04  0.10000000000E+04  0.00000000000E+00 0.  1.
    9000005    2    1    2  501    0  0.78561517714E-03 -0.34262020003E-03 -0.93147626387E+03  0.10685236315E+04  0.52354056282E+03 0.  0.
         13    1    3    3    0    0  0.15839094997E+03 -0.86748320606E+02 -0.78974016830E+02  0.19710367702E+03  0.00000000000E+00 0.  1.
          1    1    3    3  501    0 -0.15839016436E+03  0.86747977985E+02 -0.85250224704E+03  0.87141995447E+03  0.00000000000E+00 0.  1.
         21    1    1    2  502  501 -0.78561517713E-03  0.34262020003E-03  0.34576879268E-02  0.35623286776E-02  0.00000000000E+00 0.  1.
<mgrwt>
<rscale>  1 0.52354056E+03</rscale>
<asrwt>0</asrwt>
<pdfrwt beam="1">  1        1 0.24919032E+00 0.52354056E+03</pdfrwt>
<pdfrwt beam="2">0</pdfrwt>
<totfact> 0.62016353E+00</totfact>
</mgrwt>
</event>
<event>
 6    1  0.2108260E-003  0.6412466E+03  0.7818608E-02  0.9823344E-01
          3   -1    0    0  502    0  0.00000000000E+00  0.00000000000E+00  0.10287423710E+03  0.10287423710E+03  0.00000000000E+00 0.  1.
         13   -1    0    0    0    0 -0.00000000000E+00 -0.00000000000E+00 -0.10000000000E+04  0.10000000000E+04  0.00000000000E+00 0.  1.
    9000005    2    1    2  501    0  0.24217230814E-01 -0.29171434923E-01 -0.89719536554E+03  0.11027949782E+04  0.64124662848E+03 0.  0.
         13    1    3    3    0    0  0.17664839963E+03  0.50238618298E+02  0.33827825693E+01  0.18368456407E+03  0.00000000000E+00 0.  1.
          1    1    3    3  501    0 -0.17662418239E+03 -0.50267789733E+02 -0.90057814811E+03  0.91911041412E+03  0.00000000000E+00 0.  1.
         21    1    1    2  502  501 -0.24217230814E-01  0.29171434923E-01  0.69602643938E-01  0.79258910710E-01  0.00000000000E+00 0. -1.
<mgrwt>
<rscale>  1 0.64124663E+03</rscale>
<asrwt>0</asrwt>
<pdfrwt beam="1">  1        3 0.37408892E+00 0.64124663E+03</pdfrwt>
<pdfrwt beam="2">0</pdfrwt>
<totfact> 0.81227986E-02</totfact>
</mgrwt>
</event>
<event>
 6    1  0.2108260E-003  0.6530661E+03  0.7818608E-02  0.9801043E-01
          1   -1    0    0  502    0  0.00000000000E+00  0.00000000000E+00  0.10965591821E+03  0.10965591821E+03  0.00000000000E+00 0.  1.
         13   -1    0    0    0    0 -0.00000000000E+00 -0.00000000000E+00 -0.10000000000E+04  0.10000000000E+04  0.00000000000E+00 0.  1.
    9000005    2    1    2  501    0  0.10509089271E+00  0.68514563293E-02 -0.89337515963E+03  0.11066230114E+04  0.65306607809E+03 0.  0.
         13    1    3    3    0    0  0.24918651963E+03  0.17247281841E+03 -0.65296259924E+03  0.71986175802E+03  0.00000000000E+00 0.  1.
          3    1    3    3  501    0 -0.24908142874E+03 -0.17246596695E+03 -0.24041256039E+03  0.38676125335E+03  0.00000000000E+00 0.  1.
         21    1    1    2  502  501 -0.10509089271E+00 -0.68514563293E-02  0.30310778431E+01  0.30329068448E+01  0.00000000000E+00 0. -1.
<mgrwt>
<rscale>  1 0.65306609E+03</rscale>
<asrwt>0</asrwt>
<pdfrwt beam="1">  1        1 0.39874963E+00 0.65306609E+03</pdfrwt>
<pdfrwt beam="2">0</pdfrwt>
<totfact> 0.13543593E+00</totfact>
</mgrwt>
</event>
<event>
 6    1  0.2108260E-003  0.6297191E+03  0.7818608E-02  0.9845597E-01
          1   -1    0    0  502    0  0.00000000000E+00  0.00000000000E+00  0.11007974356E+03  0.11007974356E+03  0.00000000000E+00 0.  1.
         13   -1    0    0    0    0 -0.00000000000E+00 -0.00000000000E+00 -0.10000000000E+04  0.10000000000E+04  0.00000000000E+00 0.  1.
    9000005    2    1    2  501    0 -0.64329365415E+01  0.51593188746E+00 -0.89980838196E+03  0.10982719544E+04  0.62968604301E+03 0.  0.
         13    1    3    3    0    0 -0.15823853593E+03 -0.73100976406E+02  0.84153547646E+01  0.17451075955E+03  0.00000000000E+00 0.  1.
          1    1    3    3  501    0  0.15180559939E+03  0.73616908293E+02 -0.90822373672E+03  0.92376119486E+03  0.00000000000E+00 0.  1.
         21    1    1    2  502  501  0.64329365415E+01 -0.51593188746E+00  0.98881255198E+01  0.11807789148E+02  0.00000000000E+00 0.  1.
<mgrwt>
<rscale>  1 0.62971911E+03</rscale>
<asrwt>0</asrwt>
<pdfrwt beam="1">  1        1 0.40029082E+00 0.62971911E+03</pdfrwt>
<pdfrwt beam="2">0</pdfrwt>
<totfact> 0.13391187E+00</totfact>
</mgrwt>
</event>
<event>
 6    1  0.2108260E-003  0.6398887E+03  0.7818608E-02  0.9825939E-01
          1   -1    0    0  502    0  0.00000000000E+00  0.00000000000E+00  0.10329806170E+03  0.10329806170E+03  0.00000000000E+00 0.  1.
         13   -1    0    0    0    0 -0.00000000000E+00 -0.00000000000E+00 -0.10000000000E+04  0.10000000000E+04  0.00000000000E+00 0.  1.
    9000005    2    1    2  501    0 -0.13230043990E+00 -0.38253462332E-01 -0.89763000267E+03  0.11023598345E+04  0.63988871231E+03 0.  0.
         13    1    3    3    0    0 -0.26499058194E+03  0.17783930653E+03 -0.40862912533E+03  0.51848296937E+03  0.00000000000E+00 0.  1.
          1    1    3    3  501    0  0.26485828150E+03 -0.17787755999E+03 -0.48900087734E+03  0.58387686516E+03  0.00000000000E+00 0.  1.
         21    1    1    2  502  501  0.13230043990E+00  0.38253462332E-01  0.92806436995E+00  0.93822716255E+00  0.00000000000E+00 0. -1.
<mgrwt>
<rscale>  1 0.63988873E+03</rscale>
<asrwt>0</asrwt>
<pdfrwt beam="1">  1        1 0.37563011E+00 0.63988873E+03</pdfrwt>
<pdfrwt beam="2">0</pdfrwt>
<totfact> 0.17185734E+00</totfact>
</mgrwt>
</event>
<event>
 6    1  0.2108260E-003  0.6510450E+03  0.7818608E-02  0.9804820E-01
          1   -1    0    0  502    0  0.00000000000E+00  0.00000000000E+00  0.10596980445E+03  0.10596980445E+03  0.00000000000E+00 0.  1.
         13   -1    0    0    0    0 -0.00000000000E+00 -0.00000000000E+00 -0.10000000000E+04  0.10000000000E+04  0.00000000000E+00 0.  1.
    9000005    2    1    2  501    0  0.52170782402E-02 -0.13880235859E-01 -0.89400515510E+03  0.11059407029E+04  0.65104502199E+03 0.  0.
         13    1    3    3    0    0 -0.30197289015E+03 -0.63275175066E+02 -0.27068751247E+03  0.41044257037E+03  0.00000000000E+00 0.  1.
          3    1    3    3  501    0  0.30197810723E+03  0.63261294830E+02 -0.62331764263E+03  0.69549813248E+03  0.00000000000E+00 0.  1.
         21    1    1    2  502  501 -0.52170782401E-02  0.13880235859E-01 -0.25040451117E-01  0.29101598667E-01  0.00000000000E+00 0. -1.
<mgrwt>
<rscale>  1 0.65104502E+03</rscale>
<asrwt>0</asrwt>
<pdfrwt beam="1">  1        1 0.38534556E+00 0.65104502E+03</pdfrwt>
<pdfrwt beam="2">0</pdfrwt>
<totfact> 0.15538168E+00</totfact>
</mgrwt>
</event>
<event>
 6    1  0.2108260E-003  0.6540587E+03  0.7818608E-02  0.9799193E-01
          1   -1    0    0  502    0  0.00000000000E+00  0.00000000000E+00  0.10694894878E+03  0.10694894878E+03  0.00000000000E+00 0.  1.
         13   -1    0    0    0    0 -0.00000000000E+00 -0.00000000000E+00 -0.10000000000E+04  0.10000000000E+04  0.00000000000E+00 0.  1.
    9000005    2    1    2  501    0 -0.19968241792E-02  0.27118889565E-03 -0.89304971785E+03  0.11069465324E+04  0.65405873369E+03 0.  0.
         13    1    3    3    0    0  0.21832692400E+03 -0.49064343013E+02 -0.42910103354E+02  0.22784914410E+03  0.00000000000E+00 0.  1.
          1    1    3    3  501    0 -0.21832892082E+03  0.49064614202E+02 -0.85013961450E+03  0.87909738833E+03  0.00000000000E+00 0.  1.
         21    1    1    2  502  501  0.19968241792E-02 -0.27118889566E-03 -0.13333676801E-02  0.24163442615E-02  0.00000000000E+00 0. -1.
<mgrwt>
<rscale>  1 0.65405873E+03</rscale>
<asrwt>0</asrwt>
<pdfrwt beam="1">  1        1 0.38890609E+00 0.65405873E+03</pdfrwt>
<pdfrwt beam="2">0</pdfrwt>
<totfact> 0.14975844E+00</totfact>
</mgrwt>
</event>
<event>
 6    1  0.2108260E-003  0.6244146E+03  0.7818608E-02  0.9856009E-01
          1   -1    0    0  502    0  0.00000000000E+00  0.00000000000E+00  0.97510306511E+02  0.97510306511E+02  0.00000000000E+00 0.  1.
         13   -1    0    0    0    0 -0.00000000000E+00 -0.00000000000E+00 -0.10000000000E+04  0.10000000000E+04  0.00000000000E+00 0.  1.
    9000005    2    1    2  501    0  0.65883151605E-01  0.27833557105E-01 -0.90248423544E+03  0.10974385772E+04  0.62441463028E+03 0.  0.
         13    1    3    3    0    0  0.11255742639E+03 -0.28868982449E+03 -0.51843781770E+03  0.60397744976E+03  0.00000000000E+00 0.  1.
          3    1    3    3  501    0 -0.11249154324E+03  0.28871765804E+03 -0.38404641774E+03  0.49346112749E+03  0.00000000000E+00 0.  1.
         21    1    1    2  502  501 -0.65883151605E-01 -0.27833557105E-01 -0.54580524223E-02  0.71729261134E-01  0.00000000000E+00 0.  1.
<mgrwt>
<rscale>  1 0.62441463E+03</rscale>
<asrwt>0</asrwt>
<pdfrwt beam="1">  1        1 0.35458368E+00 0.62441463E+03</pdfrwt>
<pdfrwt beam="2">0</pdfrwt>
<totfact> 0.21312285E+00</totfact>
</mgrwt>
</event>
<event>
 6    1  0.2108260E-003  0.6342535E+03  0.7818608E-02  0.9836783E-01
          1   -1    0    0  502    0  0.00000000000E+00  0.00000000000E+00  0.10150786785E+03  0.10150786785E+03  0.00000000000E+00 0.  1.
         13   -1    0    0    0    0 -0.00000000000E+00 -0.00000000000E+00 -0.10000000000E+04  0.10000000000E+04  0.00000000000E+00 0.  1.
    9000005    2    1    2  501    0  0.78631481669E-01 -0.86348394400E-01 -0.89942662704E+03  0.11005661037E+04  0.63425348058E+03 0.  0.
         13    1    3    3    0    0 -0.18264823922E+03 -0.21010244593E+03 -0.71327872445E+03  0.76568267306E+03  0.00000000000E+00 0.  1.
          1    1    3    3  501    0  0.18272687070E+03  0.21001609754E+03 -0.18614790259E+03  0.33488343068E+03  0.00000000000E+00 0.  1.
         21    1    1    2  502  501 -0.78631481669E-01  0.86348394400E-01  0.93449489239E+00  0.94176412069E+00  0.00000000000E+00 0. -1.
<mgrwt>
<rscale>  1 0.63425349E+03</rscale>
<asrwt>0</asrwt>
<pdfrwt beam="1">  1        1 0.36912030E+00 0.63425349E+03</pdfrwt>
<pdfrwt beam="2">0</pdfrwt>
<totfact> 0.18375291E+00</totfact>
</mgrwt>
</event>
<event>
 6    1  0.2108260E-003  0.6609755E+03  0.7818608E-02  0.9786400E-01
          1   -1    0    0  502    0  0.00000000000E+00  0.00000000000E+00  0.10922217456E+03  0.10922217456E+03  0.00000000000E+00 0.  1.
         13   -1    0    0    0    0 -0.00000000000E+00 -0.00000000000E+00 -0.10000000000E+04  0.10000000000E+04  0.00000000000E+00 0.  1.
    9000005    2    1    2  501    0 -0.20037439995E-04 -0.64025635595E-04 -0.89077765041E+03  0.11092219871E+04  0.66097548685E+03 0.  0.
         13    1    3    3    0    0  0.11258857180E+03 -0.16133120197E+03  0.25074895724E+00  0.19673333756E+03  0.00000000000E+00 0.  1.
          1    1    3    3  501    0 -0.11258859184E+03  0.16133113795E+03 -0.89102839937E+03  0.91248864955E+03  0.00000000000E+00 0.  1.
         21    1    1    2  502  501  0.20037440007E-04  0.64025635588E-04 -0.17503100002E-03  0.18744767799E-03  0.00000000000E+00 0. -1.
<mgrwt>
<rscale>  1 0.66097549E+03</rscale>
<asrwt>0</asrwt>
<pdfrwt beam="1">  1        1 0.39717238E+00 0.66097549E+03</pdfrwt>
<pdfrwt beam="2">0</pdfrwt>
<totfact> 0.13743999E+00</totfact>
</mgrwt>
</event>
<event>
 6    1  0.2591238E-003  0.6388400E+03  0.7818608E-02  0.9827948E-01
          1   -1    0    0  502    0  0.00000000000E+00  0.00000000000E+00  0.10202914096E+03  0.10202914096E+03  0.00000000000E+00 0.  1.
         13   -1    0    0    0    0 -0.00000000000E+00 -0.00000000000E+00 -0.10000000000E+04  0.10000000000E+04  0.00000000000E+00 0.  1.
    9000005    2    1    2  501    0 -0.58186144258E-05 -0.38488948064E-05 -0.89797085643E+03  0.11020291335E+04  0.63884000510E+03 0.  0.
         13    1    3    3    0    0 -0.24628211241E+03 -0.19784456285E+03 -0.36749105260E+03  0.48461017704E+03  0.00000000000E+00 0.  1.
          3    1    3    3  501    0  0.24628210659E+03  0.19784455900E+03 -0.53047980382E+03  0.61741895648E+03  0.00000000000E+00 0.  1.
         21    1    1    2  502  501  0.58186144334E-05  0.38488947811E-05 -0.26127071068E-05  0.74495975319E-05  0.00000000000E+00 0.  1.
<mgrwt>
<rscale>  1 0.63884001E+03</rscale>
<asrwt>0</asrwt>
<pdfrwt beam="1">  1        1 0.37101584E+00 0.63884001E+03</pdfrwt>
<pdfrwt beam="2">0</pdfrwt>
<totfact> 0.18011338E+00</totfact>
</mgrwt>
</event>
<event>
 6    1  0.2108260E-003  0.6511232E+03  0.7818608E-02  0.9804674E-01
          1   -1    0    0  502    0  0.00000000000E+00  0.00000000000E+00  0.10599037212E+03  0.10599037212E+03  0.00000000000E+00 0.  1.
         13   -1    0    0    0    0 -0.00000000000E+00 -0.00000000000E+00 -0.10000000000E+04  0.10000000000E+04  0.00000000000E+00 0.  1.
    9000005    2    1    2  501    0 -0.43927780951E-05 -0.23271475573E-05 -0.89400963217E+03  0.11059903656E+04  0.65112323433E+03 0.  0.
         13    1    3    3    0    0  0.33885167057E+02 -0.12183819549E+02  0.10259738028E+03  0.10873303291E+03  0.00000000000E+00 0.  1.
          1    1    3    3  501    0 -0.33885171450E+02  0.12183817222E+02 -0.99660701245E+03  0.99725733264E+03  0.00000000000E+00 0.  1.
         21    1    1    2  502  501  0.43927780925E-05  0.23271475568E-05  0.42955926504E-05  0.65699491124E-05  0.00000000000E+00 0. -1.
<mgrwt>
<rscale>  1 0.65112323E+03</rscale>
<asrwt>0</asrwt>
<pdfrwt beam="1">  1        1 0.38542035E+00 0.65112323E+03</pdfrwt>
<pdfrwt beam="2">0</pdfrwt>
<totfact> 0.15526110E+00</totfact>
</mgrwt>
</event>
<event>
 6    1  0.2108260E-003  0.6515622E+03  0.7818608E-02  0.9803852E-01
          1   -1    0    0  502    0  0.00000000000E+00  0.00000000000E+00  0.10613463315E+03  0.10613463315E+03  0.00000000000E+00 0.  1.
         13   -1    0    0    0    0 -0.00000000000E+00 -0.00000000000E+00 -0.10000000000E+04  0.10000000000E+04  0.00000000000E+00 0.  1.
    9000005    2    1    2  501    0 -0.82889857651E-04 -0.72018190782E-04 -0.89386667077E+03  0.11061333246E+04  0.65156220477E+03 0.  0.
         13    1    3    3    0    0 -0.28773805051E+03  0.27617244782E+02 -0.70202080234E+03  0.75920294048E+03  0.00000000000E+00 0.  1.
          1    1    3    3  501    0  0.28773796762E+03 -0.27617316801E+02 -0.19184586844E+03  0.34693038413E+03  0.00000000000E+00 0.  1.
         21    1    1    2  502  501  0.82889857653E-04  0.72018190781E-04  0.13039235279E-02  0.13085388473E-02  0.00000000000E+00 0. -1.
<mgrwt>
<rscale>  1 0.65156220E+03</rscale>
<asrwt>0</asrwt>
<pdfrwt beam="1">  1        1 0.38594493E+00 0.65156220E+03</pdfrwt>
<pdfrwt beam="2">0</pdfrwt>
<totfact> 0.15442096E+00</totfact>
</mgrwt>
</event>
<event>
 6    1  0.2108260E-003  0.6507073E+03  0.7818608E-02  0.9805453E-01
          1   -1    0    0  502    0  0.00000000000E+00  0.00000000000E+00  0.10587475597E+03  0.10587475597E+03  0.00000000000E+00 0.  1.
         13   -1    0    0    0    0 -0.00000000000E+00 -0.00000000000E+00 -0.10000000000E+04  0.10000000000E+04  0.00000000000E+00 0.  1.
    9000005    2    1    2  501    0  0.84188959714E-02 -0.22005755486E-01 -0.89413690804E+03  0.11058484657E+04  0.65070732141E+03 0.  0.
         13    1    3    3    0    0 -0.22104594786E+03  0.71358468633E+02 -0.59905020761E+02  0.23987903957E+03  0.00000000000E+00 0.  1.
          3    1    3    3  501    0  0.22105436676E+03 -0.71380474389E+02 -0.83423188728E+03  0.86596942610E+03  0.00000000000E+00 0.  1.
         21    1    1    2  502  501 -0.84188959714E-02  0.22005755486E-01  0.11664015036E-01  0.26290308683E-01  0.00000000000E+00 0.  1.
<mgrwt>
<rscale>  1 0.65070732E+03</rscale>
<asrwt>0</asrwt>
<pdfrwt beam="1">  1        1 0.38499992E+00 0.65070732E+03</pdfrwt>
<pdfrwt beam="2">0</pdfrwt>
<totfact> 0.15593940E+00</totfact>
</mgrwt>
</event>
<event>
 6    1  0.2108260E-003  0.6480604E+03  0.7818608E-02  0.9810426E-01
          1   -1    0    0  502    0  0.00000000000E+00  0.00000000000E+00  0.10508929781E+03  0.10508929781E+03  0.00000000000E+00 0.  1.
         13   -1    0    0    0    0 -0.00000000000E+00 -0.00000000000E+00 -0.10000000000E+04  0.10000000000E+04  0.00000000000E+00 0.  1.
    9000005    2    1    2  501    0  0.11398302061E-02 -0.93956269779E-03 -0.89500442318E+03  0.11049955652E+04  0.64806039963E+03 0.  0.
         13    1    3    3    0    0  0.13309950974E+03  0.29385401136E+03 -0.49949396448E+03  0.59460901443E+03  0.00000000000E+00 0.  1.
          3    1    3    3  501    0 -0.13309836991E+03 -0.29385495092E+03 -0.39551045869E+03  0.51038655075E+03  0.00000000000E+00 0.  1.
         21    1    1    2  502  501 -0.11398302061E-02  0.93956269780E-03  0.93720984275E-01  0.93732624440E-01  0.00000000000E+00 0. -1.
<mgrwt>
<rscale>  1 0.64806040E+03</rscale>
<asrwt>0</asrwt>
<pdfrwt beam="1">  1        1 0.38214371E+00 0.64806040E+03</pdfrwt>
<pdfrwt beam="2">0</pdfrwt>
<totfact> 0.16061735E+00</totfact>
</mgrwt>
</event>
<event>
 6    1  0.2108260E-003  0.6505262E+03  0.7818608E-02  0.9805792E-01
          1   -1    0    0  502    0  0.00000000000E+00  0.00000000000E+00  0.10807776159E+03  0.10807776159E+03  0.00000000000E+00 0.  1.
         13   -1    0    0    0    0 -0.00000000000E+00 -0.00000000000E+00 -0.10000000000E+04  0.10000000000E+04  0.00000000000E+00 0.  1.
    9000005    2    1    2  501    0 -0.39836723638E-01  0.27613746303E-03 -0.89420371995E+03  0.11057959323E+04  0.65052620967E+03 0.  0.
         13    1    3    3    0    0  0.22903410532E+03  0.22711090692E+03 -0.37595181544E+03  0.49535416923E+03  0.00000000000E+00 0.  1.
          1    1    3    3  501    0 -0.22907394204E+03 -0.22711063078E+03 -0.51825190451E+03  0.61044176304E+03  0.00000000000E+00 0.  1.
         21    1    1    2  502  501  0.39836723638E-01 -0.27613746303E-03  0.22814815403E+01  0.22818293231E+01  0.00000000000E+00 0. -1.
<mgrwt>
<rscale>  1 0.65052621E+03</rscale>
<asrwt>0</asrwt>
<pdfrwt beam="1">  1        1 0.39301087E+00 0.65052621E+03</pdfrwt>
<pdfrwt beam="2">0</pdfrwt>
<totfact> 0.14370313E+00</totfact>
</mgrwt>
</event>
<event>
 6    1  0.2108260E-003  0.6719204E+03  0.7818608E-02  0.9766495E-01
          1   -1    0    0  502    0  0.00000000000E+00  0.00000000000E+00  0.11289888177E+03  0.11289888177E+03  0.00000000000E+00 0.  1.
         13   -1    0    0    0    0 -0.00000000000E+00 -0.00000000000E+00 -0.10000000000E+04  0.10000000000E+04  0.00000000000E+00 0.  1.
    9000005    2    1    2  501    0 -0.42931602559E-02 -0.25515371462E-02 -0.88713051219E+03  0.11128690666E+04  0.67192039232E+03 0.  0.
         13    1    3    3    0    0  0.14367456528E+02 -0.20559046933E+02 -0.99844688481E+03  0.99876187352E+03  0.00000000000E+00 0.  1.
          1    1    3    3  501    0 -0.14371749688E+02  0.20556495396E+02  0.11131637261E+03  0.11410719304E+03  0.00000000000E+00 0.  1.
         21    1    1    2  502  501  0.42931602559E-02  0.25515371462E-02  0.29393967475E-01  0.29815212404E-01  0.00000000000E+00 0.  1.
<mgrwt>
<rscale>  1 0.67192039E+03</rscale>
<asrwt>0</asrwt>
<pdfrwt beam="1">  1        1 0.41054225E+00 0.67192039E+03</pdfrwt>
<pdfrwt beam="2">0</pdfrwt>
<totfact> 0.11952655E+00</totfact>
</mgrwt>
</event>
<event>
 6    1  0.2108260E-003  0.5690314E+03  0.7818608E-02  0.9971824E-01
          1   -1    0    0  502    0  0.00000000000E+00  0.00000000000E+00  0.85287202378E+02  0.85287202378E+02  0.00000000000E+00 0.  1.
         13   -1    0    0    0    0 -0.00000000000E+00 -0.00000000000E+00 -0.10000000000E+04  0.10000000000E+04  0.00000000000E+00 0.  1.
    9000005    2    1    2  501    0  0.71443262859E+01 -0.73557307512E+01 -0.91150879621E+03  0.10745441210E+04  0.56893904259E+03 0.  0.
         13    1    3    3    0    0 -0.22840952673E+03  0.26799891341E+02 -0.14485930953E+03  0.27179655192E+03  0.00000000000E+00 0.  1.
          1    1    3    3  501    0  0.23555385302E+03 -0.34155622093E+02 -0.76664948669E+03  0.80274756906E+03  0.00000000000E+00 0.  1.
         21    1    1    2  502  501 -0.71443262859E+01  0.73557307512E+01 -0.32040014093E+01  0.10743081401E+02  0.00000000000E+00 0.  1.
<mgrwt>
<rscale>  1 0.56903144E+03</rscale>
<asrwt>0</asrwt>
<pdfrwt beam="1">  1        1 0.31013594E+00 0.56903144E+03</pdfrwt>
<pdfrwt beam="2">0</pdfrwt>
<totfact> 0.33548412E+00</totfact>
</mgrwt>
</event>
<event>
 6    1  0.2108260E-003  0.6515345E+03  0.7818608E-02  0.9803904E-01
          1   -1    0    0  502    0  0.00000000000E+00  0.00000000000E+00  0.10618351755E+03  0.10618351755E+03  0.00000000000E+00 0.  1.
         13   -1    0    0    0    0 -0.00000000000E+00 -0.00000000000E+00 -0.10000000000E+04  0.10000000000E+04  0.00000000000E+00 0.  1.
    9000005    2    1    2  501    0 -0.17459420769E-02 -0.10233805755E-02 -0.89387567013E+03  0.11061242953E+04  0.65153452935E+03 0.  0.
         13    1    3    3    0    0  0.19023571215E+03 -0.79466975633E+02 -0.87515183084E+03  0.89910808773E+03  0.00000000000E+00 0.  1.
          1    1    3    3  501    0 -0.19023745809E+03  0.79465952253E+02 -0.18723839292E+02  0.20701620755E+03  0.00000000000E+00 0.  1.
         21    1    1    2  502  501  0.17459420769E-02  0.10233805755E-02  0.59187687592E-01  0.59222276079E-01  0.00000000000E+00 0. -1.
<mgrwt>
<rscale>  1 0.65153453E+03</rscale>
<asrwt>0</asrwt>
<pdfrwt beam="1">  1        1 0.38612270E+00 0.65153453E+03</pdfrwt>
<pdfrwt beam="2">0</pdfrwt>
<totfact> 0.15414228E+00</totfact>
</mgrwt>
</event>
<event>
 6    1  0.2108260E-003  0.5596106E+03  0.7818608E-02  0.9992936E-01
          1   -1    0    0  502    0  0.00000000000E+00  0.00000000000E+00  0.78293876081E+02  0.78293876081E+02  0.00000000000E+00 0.  1.
         13   -1    0    0    0    0 -0.00000000000E+00 -0.00000000000E+00 -0.10000000000E+04  0.10000000000E+04  0.00000000000E+00 0.  1.
    9000005    2    1    2  501    0 -0.67418345986E-03 -0.10288782210E-02 -0.92170885930E+03  0.10782908768E+04  0.55961057334E+03 0.  0.
         13    1    3    3    0    0  0.25881617303E+03 -0.37284714407E+02 -0.26898971303E+03  0.37514187592E+03  0.00000000000E+00 0.  1.
          1    1    3    3  501    0 -0.25881684721E+03  0.37283685528E+02 -0.65271914627E+03  0.70314900093E+03  0.00000000000E+00 0.  1.
         21    1    1    2  502  501  0.67418345987E-03  0.10288782210E-02  0.27353764469E-02  0.29992329081E-02  0.00000000000E+00 0. -1.
<mgrwt>
<rscale>  1 0.55961057E+03</rscale>
<asrwt>0</asrwt>
<pdfrwt beam="1">  1        1 0.28470560E+00 0.55961057E+03</pdfrwt>
<pdfrwt beam="2">0</pdfrwt>
<totfact> 0.43258757E+00</totfact>
</mgrwt>
</event>
<event>
 6    1  0.2108260E-003  0.6527916E+03  0.7818608E-02  0.9801555E-01
          1   -1    0    0  502    0  0.00000000000E+00  0.00000000000E+00  0.10653697829E+03  0.10653697829E+03  0.00000000000E+00 0.  1.
         13   -1    0    0    0    0 -0.00000000000E+00 -0.00000000000E+00 -0.10000000000E+04  0.10000000000E+04  0.00000000000E+00 0.  1.
    9000005    2    1    2  501    0 -0.25394975418E-03  0.76031595540E-04 -0.89346575929E+03  0.11065342279E+04  0.65279164709E+03 0.  0.
         13    1    3    3    0    0 -0.68017572729E+02  0.28004823079E+03 -0.70647805818E+03  0.76299714839E+03  0.00000000000E+00 0.  1.
          1    1    3    3  501    0  0.68017318780E+02 -0.28004815475E+03 -0.18698770111E+03  0.34353707952E+03  0.00000000000E+00 0.  1.
         21    1    1    2  502  501  0.25394975418E-03 -0.76031595530E-04  0.27375810504E-02  0.27503856618E-02  0.00000000000E+00 0.  1.
<mgrwt>
<rscale>  1 0.65279165E+03</rscale>
<asrwt>0</asrwt>
<pdfrwt beam="1">  1        1 0.38740801E+00 0.65279165E+03</pdfrwt>
<pdfrwt beam="2">0</pdfrwt>
<totfact> 0.15210041E+00</totfact>
</mgrwt>
</event>
<event>
 6    1  0.2108260E-003  0.6457158E+03  0.7818608E-02  0.9814852E-01
          1   -1    0    0  502    0  0.00000000000E+00  0.00000000000E+00  0.10697811198E+03  0.10697811198E+03  0.00000000000E+00 0.  1.
         13   -1    0    0    0    0 -0.00000000000E+00 -0.00000000000E+00 -0.10000000000E+04  0.10000000000E+04  0.00000000000E+00 0.  1.
    9000005    2    1    2  501    0  0.42723036063E-01 -0.25753160101E-01 -0.89576252235E+03  0.11042370237E+04  0.64571580865E+03 0.  0.
         13    1    3    3    0    0  0.26265295287E+03  0.18114443045E+03 -0.53243547935E+03  0.62071524711E+03  0.00000000000E+00 0.  1.
          1    1    3    3  501    0 -0.26261022983E+03 -0.18117018361E+03 -0.36332704301E+03  0.48352177657E+03  0.00000000000E+00 0.  1.
         21    1    1    2  502  501 -0.42723036063E-01  0.25753160101E-01  0.27406343286E+01  0.27410882886E+01  0.00000000000E+00 0. -1.
<mgrwt>
<rscale>  1 0.64571581E+03</rscale>
<asrwt>0</asrwt>
<pdfrwt beam="1">  1        1 0.38901214E+00 0.64571581E+03</pdfrwt>
<pdfrwt beam="2">0</pdfrwt>
<totfact> 0.14982910E+00</totfact>
</mgrwt>
</event>
<event>
 6    1  0.2108260E-003  0.6483360E+03  0.7818608E-02  0.9809907E-01
          1   -1    0    0  502    0  0.00000000000E+00  0.00000000000E+00  0.10509046240E+03  0.10509046240E+03  0.00000000000E+00 0.  1.
         13   -1    0    0    0    0 -0.00000000000E+00 -0.00000000000E+00 -0.10000000000E+04  0.10000000000E+04  0.00000000000E+00 0.  1.
    9000005    2    1    2  501    0  0.31713103091E-02  0.29288744717E-02 -0.89491418563E+03  0.11050841189E+04  0.64833595475E+03 0.  0.
         13    1    3    3    0    0 -0.94379496026E+02 -0.23257331721E+03 -0.79712982966E+03  0.83571155460E+03  0.00000000000E+00 0.  1.
          3    1    3    3  501    0  0.94382667336E+02  0.23257624609E+03 -0.97784355972E+02  0.26937256433E+03  0.00000000000E+00 0.  1.
         21    1    1    2  502  501 -0.31713103091E-02 -0.29288744717E-02  0.46480362488E-02  0.63434813564E-02  0.00000000000E+00 0.  1.
<mgrwt>
<rscale>  1 0.64833595E+03</rscale>
<asrwt>0</asrwt>
<pdfrwt beam="1">  1        1 0.38214794E+00 0.64833595E+03</pdfrwt>
<pdfrwt beam="2">0</pdfrwt>
<totfact> 0.16060228E+00</totfact>
</mgrwt>
</event>
<event>
 6    1  0.2108260E-003  0.6352127E+03  0.7818608E-02  0.9834929E-01
          1   -1    0    0  502    0  0.00000000000E+00  0.00000000000E+00  0.10141027655E+03  0.10141027655E+03  0.00000000000E+00 0.  1.
         13   -1    0    0    0    0 -0.00000000000E+00 -0.00000000000E+00 -0.10000000000E+04  0.10000000000E+04  0.00000000000E+00 0.  1.
    9000005    2    1    2  501    0  0.35418039868E+00 -0.36487631122E+00 -0.89899038610E+03  0.11007628902E+04  0.63521253737E+03 0.  0.
         13    1    3    3    0    0  0.91161109862E+02  0.61018888827E+02 -0.96605658760E+03  0.97226487296E+03  0.00000000000E+00 0.  1.
          3    1    3    3  501    0 -0.90806929463E+02 -0.61383765138E+02  0.67066201494E+02  0.12849801728E+03  0.00000000000E+00 0.  1.
         21    1    1    2  502  501 -0.35418039868E+00  0.36487631122E+00  0.40066265168E+00  0.64738631261E+00  0.00000000000E+00 0. -1.
<mgrwt>
<rscale>  1 0.63521274E+03</rscale>
<asrwt>0</asrwt>
<pdfrwt beam="1">  1        1 0.36876542E+00 0.63521274E+03</pdfrwt>
<pdfrwt beam="2">0</pdfrwt>
<totfact> 0.18438089E+00</totfact>
</mgrwt>
</event>
<event>
 6    1  0.2108260E-003  0.6134811E+03  0.7818608E-02  0.9877825E-01
          1   -1    0    0  502    0  0.00000000000E+00  0.00000000000E+00  0.94146975203E+02  0.94146975203E+02  0.00000000000E+00 0.  1.
         13   -1    0    0    0    0 -0.00000000000E+00 -0.00000000000E+00 -0.10000000000E+04  0.10000000000E+04  0.00000000000E+00 0.  1.
    9000005    2    1    2  501    0  0.98753204310E-02  0.66671103761E-02 -0.90590954003E+03  0.10940892176E+04  0.61348114979E+03 0.  0.
         13    1    3    3    0    0 -0.13909887549E+03 -0.87045129865E+02  0.92338828712E+01  0.16434906872E+03  0.00000000000E+00 0.  1.
          1    1    3    3  501    0  0.13910875081E+03  0.87051796976E+02 -0.91514342290E+03  0.92974014885E+03  0.00000000000E+00 0.  1.
         21    1    1    2  502  501 -0.98753204310E-02 -0.66671103761E-02  0.56515233100E-01  0.57757630550E-01  0.00000000000E+00 0. -1.
<mgrwt>
<rscale>  1 0.61348115E+03</rscale>
<asrwt>0</asrwt>
<pdfrwt beam="1">  1        1 0.34235336E+00 0.61348115E+03</pdfrwt>
<pdfrwt beam="2">0</pdfrwt>
<totfact> 0.24140332E+00</totfact>
</mgrwt>
</event>
<event>
 6    1  0.2108260E-003  0.6466313E+03  0.7818608E-02  0.9813121E-01
          1   -1    0    0  502    0  0.00000000000E+00  0.00000000000E+00  0.10453313662E+03  0.10453313662E+03  0.00000000000E+00 0.  1.
         13   -1    0    0    0    0 -0.00000000000E+00 -0.00000000000E+00 -0.10000000000E+04  0.10000000000E+04  0.00000000000E+00 0.  1.
    9000005    2    1    2  501    0 -0.82591539154E-05 -0.34433280334E-04 -0.89546699629E+03  0.11045329991E+04  0.64663127405E+03 0.  0.
         13    1    3    3    0    0 -0.38680602108E+02  0.94326609217E+02 -0.97182542198E+03  0.97715830293E+03  0.00000000000E+00 0.  1.
          1    1    3    3  501    0  0.38680593848E+02 -0.94326643651E+02  0.76358425686E+02  0.12737469614E+03  0.00000000000E+00 0.  1.
         21    1    1    2  502  501  0.82591539185E-05  0.34433280328E-04  0.13290951189E-03  0.13754563886E-03  0.00000000000E+00 0. -1.
<mgrwt>
<rscale>  1 0.64663127E+03</rscale>
<asrwt>0</asrwt>
<pdfrwt beam="1">  1        1 0.38012130E+00 0.64663127E+03</pdfrwt>
<pdfrwt beam="2">0</pdfrwt>
<totfact> 0.16399664E+00</totfact>
</mgrwt>
</event>
<event>
 6    1  0.2108260E-003  0.6456464E+03  0.7818608E-02  0.9814983E-01
          1   -1    0    0  502    0  0.00000000000E+00  0.00000000000E+00  0.10427995464E+03  0.10427995464E+03  0.00000000000E+00 0.  1.
         13   -1    0    0    0    0 -0.00000000000E+00 -0.00000000000E+00 -0.10000000000E+04  0.10000000000E+04  0.00000000000E+00 0.  1.
    9000005    2    1    2  501    0  0.41606769964E-02  0.23167292926E-02 -0.89578509175E+03  0.11042147342E+04  0.64564638040E+03 0.  0.
         13    1    3    3    0    0 -0.10775429204E+03  0.30427431032E+03 -0.45577236985E+03  0.55850004163E+03  0.00000000000E+00 0.  1.
          3    1    3    3  501    0  0.10775845272E+03 -0.30427199359E+03 -0.44001272189E+03  0.54571469253E+03  0.00000000000E+00 0.  1.
         21    1    1    2  502  501 -0.41606769964E-02 -0.23167292926E-02  0.65046388712E-01  0.65220481079E-01  0.00000000000E+00 0. -1.
<mgrwt>
<rscale>  1 0.64564638E+03</rscale>
<asrwt>0</asrwt>
<pdfrwt beam="1">  1        1 0.37920063E+00 0.64564638E+03</pdfrwt>
<pdfrwt beam="2">0</pdfrwt>
<totfact> 0.16556749E+00</totfact>
</mgrwt>
</event>
<event>
 6    1  0.2108260E-003  0.6519188E+03  0.7818608E-02  0.9803185E-01
          1   -1    0    0  502    0  0.00000000000E+00  0.00000000000E+00  0.10624953339E+03  0.10624953339E+03  0.00000000000E+00 0.  1.
         13   -1    0    0    0    0 -0.00000000000E+00 -0.00000000000E+00 -0.10000000000E+04  0.10000000000E+04  0.00000000000E+00 0.  1.
    9000005    2    1    2  501    0 -0.23267616882E-05 -0.12946233880E-04 -0.89375047619E+03  0.11062495171E+04  0.65191876828E+03 0.  0.
         13    1    3    3    0    0  0.79824428172E+02  0.30653540382E+03 -0.57736799050E+03  0.65855120498E+03  0.00000000000E+00 0.  1.
          3    1    3    3  501    0 -0.79824430498E+02 -0.30653541677E+03 -0.31638248569E+03  0.44769831214E+03  0.00000000000E+00 0.  1.
         21    1    1    2  502  501  0.23267616805E-05  0.12946233888E-04  0.95805752949E-05  0.16272867442E-04  0.00000000000E+00 0.  1.
<mgrwt>
<rscale>  1 0.65191877E+03</rscale>
<asrwt>0</asrwt>
<pdfrwt beam="1">  1        1 0.38636275E+00 0.65191877E+03</pdfrwt>
<pdfrwt beam="2">0</pdfrwt>
<totfact> 0.15375470E+00</totfact>
</mgrwt>
</event>
<event>
 6    1  0.2108260E-003  0.6333834E+03  0.7818608E-02  0.9838469E-01
          1   -1    0    0  502    0  0.00000000000E+00  0.00000000000E+00  0.10029363507E+03  0.10029363507E+03  0.00000000000E+00 0.  1.
         13   -1    0    0    0    0 -0.00000000000E+00 -0.00000000000E+00 -0.10000000000E+04  0.10000000000E+04  0.00000000000E+00 0.  1.
    9000005    2    1    2  501    0  0.27122152346E-05  0.28889729720E-05 -0.89970637250E+03  0.11002936265E+04  0.63338338140E+03 0.  0.
         13    1    3    3    0    0 -0.17837944472E+03  0.25711475806E+03 -0.36534744768E+03  0.48104675723E+03  0.00000000000E+00 0.  1.
          3    1    3    3  501    0  0.17837944743E+03 -0.25711475517E+03 -0.53435892482E+03  0.61924686930E+03  0.00000000000E+00 0.  1.
         21    1    1    2  502  501 -0.27122152473E-05 -0.28889729784E-05  0.75778696091E-05  0.85513966245E-05  0.00000000000E+00 0. -1.
<mgrwt>
<rscale>  1 0.63338338E+03</rscale>
<asrwt>0</asrwt>
<pdfrwt beam="1">  1        1 0.36470490E+00 0.63338338E+03</pdfrwt>
<pdfrwt beam="2">0</pdfrwt>
<totfact> 0.19216208E+00</totfact>
</mgrwt>
</event>
<event>
 6    1  0.2108260E-003  0.6261314E+03  0.7818608E-02  0.9852627E-01
          1   -1    0    0  502    0  0.00000000000E+00  0.00000000000E+00  0.98043509084E+02  0.98043509084E+02  0.00000000000E+00 0.  1.
         13   -1    0    0    0    0 -0.00000000000E+00 -0.00000000000E+00 -0.10000000000E+04  0.10000000000E+04  0.00000000000E+00 0.  1.
    9000005    2    1    2  501    0 -0.20649068712E-02  0.91757188552E-02 -0.90198915315E+03  0.10980095197E+04  0.62613135431E+03 0.  0.
         13    1    3    3    0    0  0.27765910468E+03 -0.69953551768E+01 -0.70430753036E+03  0.75709484923E+03  0.00000000000E+00 0.  1.
          1    1    3    3  501    0 -0.27766116959E+03  0.70045308957E+01 -0.19768162278E+03  0.34091467046E+03  0.00000000000E+00 0.  1.
         21    1    1    2  502  501  0.20649068713E-02 -0.91757188552E-02  0.32662229532E-01  0.33989393859E-01  0.00000000000E+00 0.  1.
<mgrwt>
<rscale>  1 0.62613135E+03</rscale>
<asrwt>0</asrwt>
<pdfrwt beam="1">  1        1 0.35652260E+00 0.62613135E+03</pdfrwt>
<pdfrwt beam="2">0</pdfrwt>
<totfact> 0.20894428E+00</totfact>
</mgrwt>
</event>
<event>
 6    1  0.2108260E-003  0.6413918E+03  0.7818608E-02  0.9823067E-01
          1   -1    0    0  502    0  0.00000000000E+00  0.00000000000E+00  0.11125305513E+03  0.11125305513E+03  0.00000000000E+00 0.  1.
         13   -1    0    0    0    0 -0.00000000000E+00 -0.00000000000E+00 -0.10000000000E+04  0.10000000000E+04  0.00000000000E+00 0.  1.
    9000005    2    1    2  501    0 -0.25809948855E+00 -0.12316592503E+02 -0.89186292399E+03  0.10985457977E+04  0.64127344349E+03 0.  0.
         13    1    3    3    0    0  0.20239118677E+03 -0.19177334466E+03 -0.73404041671E+03  0.78520987103E+03  0.00000000000E+00 0.  1.
          3    1    3    3  501    0 -0.20264928626E+03  0.17945675216E+03 -0.15782250728E+03  0.31333592664E+03  0.00000000000E+00 0.  1.
         21    1    1    2  502  501  0.25809948855E+00  0.12316592503E+02  0.31159791133E+01  0.12707257457E+02  0.00000000000E+00 0. -1.
<mgrwt>
<rscale>  1 0.64139176E+03</rscale>
<asrwt>0</asrwt>
<pdfrwt beam="1">  1        1 0.40455742E+00 0.64139176E+03</pdfrwt>
<pdfrwt beam="2">0</pdfrwt>
<totfact> 0.12787856E+00</totfact>
</mgrwt>
</event>
<event>
 6    1  0.2108260E-003  0.6410219E+03  0.7818608E-02  0.9823773E-01
          1   -1    0    0  502    0  0.00000000000E+00  0.00000000000E+00  0.10272736187E+03  0.10272736187E+03  0.00000000000E+00 0.  1.
         13   -1    0    0    0    0 -0.00000000000E+00 -0.00000000000E+00 -0.10000000000E+04  0.10000000000E+04  0.00000000000E+00 0.  1.
    9000005    2    1    2  501    0  0.50974548969E-04 -0.32561636658E-05 -0.89727273121E+03  0.11027272557E+04  0.64102187661E+03 0.  0.
         13    1    3    3    0    0 -0.27702575021E+03 -0.14907691003E+03 -0.34315091344E+03  0.46553167538E+03  0.00000000000E+00 0.  1.
          3    1    3    3  501    0  0.27702580118E+03  0.14907690678E+03 -0.55412181776E+03  0.63719558032E+03  0.00000000000E+00 0.  1.
         21    1    1    2  502  501 -0.50974548965E-04  0.32561636681E-05  0.93078298225E-04  0.10617239210E-03  0.00000000000E+00 0. -1.
<mgrwt>
<rscale>  1 0.64102188E+03</rscale>
<asrwt>0</asrwt>
<pdfrwt beam="1">  1        1 0.37355483E+00 0.64102188E+03</pdfrwt>
<pdfrwt beam="2">0</pdfrwt>
<totfact> 0.17547317E+00</totfact>
</mgrwt>
</event>
<event>
 6    1  0.2108260E-003  0.6351332E+03  0.7818608E-02  0.9835083E-01
          1   -1    0    0  502    0  0.00000000000E+00  0.00000000000E+00  0.10084908240E+03  0.10084908240E+03  0.00000000000E+00 0.  1.
         13   -1    0    0    0    0 -0.00000000000E+00 -0.00000000000E+00 -0.10000000000E+04  0.10000000000E+04  0.00000000000E+00 0.  1.
    9000005    2    1    2  501    0 -0.41703036203E-03 -0.69890301263E-03 -0.89915109293E+03  0.11008482499E+04  0.63513319966E+03 0.  0.
         13    1    3    3    0    0 -0.30280429752E+03 -0.70019694668E+02 -0.56264374559E+03  0.64277615442E+03  0.00000000000E+00 0.  1.
          3    1    3    3  501    0  0.30280388049E+03  0.70018995765E+02 -0.33650734734E+03  0.45807209544E+03  0.00000000000E+00 0.  1.
         21    1    1    2  502  501  0.41703036202E-03  0.69890301263E-03  0.17532884742E-03  0.83253825657E-03  0.00000000000E+00 0.  1.
<mgrwt>
<rscale>  1 0.63513320E+03</rscale>
<asrwt>0</asrwt>
<pdfrwt beam="1">  1        1 0.36672471E+00 0.63513320E+03</pdfrwt>
<pdfrwt beam="2">0</pdfrwt>
<totfact> 0.18822424E+00</totfact>
</mgrwt>
</event>
<event>
 6    1  0.2108260E-003  0.6414834E+03  0.7818608E-02  0.9822892E-01
          1   -1    0    0  502    0  0.00000000000E+00  0.00000000000E+00  0.10287671175E+03  0.10287671175E+03  0.00000000000E+00 0.  1.
         13   -1    0    0    0    0 -0.00000000000E+00 -0.00000000000E+00 -0.10000000000E+04  0.10000000000E+04  0.00000000000E+00 0.  1.
    9000005    2    1    2  501    0 -0.55798832489E-03  0.32394589772E-03 -0.89712468015E+03  0.11028751776E+04  0.64148341023E+03 0.  0.
         13    1    3    3    0    0  0.12025776761E+03  0.29138229358E+03 -0.55041584985E+03  0.63428950760E+03  0.00000000000E+00 0.  1.
          3    1    3    3  501    0 -0.12025832560E+03 -0.29138196964E+03 -0.34670883029E+03  0.46858566998E+03  0.00000000000E+00 0.  1.
         21    1    1    2  502  501  0.55798832488E-03 -0.32394589773E-03  0.13918924527E-02  0.15341631319E-02  0.00000000000E+00 0.  1.
<mgrwt>
<rscale>  1 0.64148341E+03</rscale>
<asrwt>0</asrwt>
<pdfrwt beam="1">  1        1 0.37409792E+00 0.64148341E+03</pdfrwt>
<pdfrwt beam="2">0</pdfrwt>
<totfact> 0.17449573E+00</totfact>
</mgrwt>
</event>
<event>
 6    1  0.2108260E-003  0.6480845E+03  0.7818608E-02  0.9810380E-01
          1   -1    0    0  502    0  0.00000000000E+00  0.00000000000E+00  0.10509201502E+03  0.10509201502E+03  0.00000000000E+00 0.  1.
         13   -1    0    0    0    0 -0.00000000000E+00 -0.00000000000E+00 -0.10000000000E+04  0.10000000000E+04  0.00000000000E+00 0.  1.
    9000005    2    1    2  501    0  0.14465690947E-01 -0.16353783189E-02 -0.89499596470E+03  0.11050028390E+04  0.64808448304E+03 0.  0.
         13    1    3    3    0    0  0.21213911328E+03  0.19130640892E+03 -0.70835091731E+03  0.76378149201E+03  0.00000000000E+00 0.  1.
          1    1    3    3  501    0 -0.21212464759E+03 -0.19130804430E+03 -0.18664504739E+03  0.34122134699E+03  0.00000000000E+00 0.  1.
         21    1    1    2  502  501 -0.14465690947E-01  0.16353783189E-02  0.87979719562E-01  0.89176015447E-01  0.00000000000E+00 0. -1.
<mgrwt>
<rscale>  1 0.64808448E+03</rscale>
<asrwt>0</asrwt>
<pdfrwt beam="1">  1        1 0.38215359E+00 0.64808448E+03</pdfrwt>
<pdfrwt beam="2">0</pdfrwt>
<totfact> 0.16060050E+00</totfact>
</mgrwt>
</event>
<event>
 6    1  0.2108260E-003  0.6475746E+03  0.7818608E-02  0.9811341E-01
          1   -1    0    0  502    0  0.00000000000E+00  0.00000000000E+00  0.10486573929E+03  0.10486573929E+03  0.00000000000E+00 0.  1.
         13   -1    0    0    0    0 -0.00000000000E+00 -0.00000000000E+00 -0.10000000000E+04  0.10000000000E+04  0.00000000000E+00 0.  1.
    9000005    2    1    2  501    0 -0.57424709364E-02  0.43095768951E-02 -0.89516128137E+03  0.11048377810E+04  0.64757455377E+03 0.  0.
         13    1    3    3    0    0 -0.97339076771E+02  0.29726633609E+03 -0.30486231767E+03  0.43678736609E+03  0.00000000000E+00 0.  1.
          1    1    3    3  501    0  0.97333334300E+02 -0.29726202651E+03 -0.59029896369E+03  0.66805041494E+03  0.00000000000E+00 0.  1.
         21    1    1    2  502  501  0.57424709364E-02 -0.43095768951E-02  0.27020651554E-01  0.27958255236E-01  0.00000000000E+00 0.  1.
<mgrwt>
<rscale>  1 0.64757455E+03</rscale>
<asrwt>0</asrwt>
<pdfrwt beam="1">  1        1 0.38133077E+00 0.64757455E+03</pdfrwt>
<pdfrwt beam="2">0</pdfrwt>
<totfact> 0.16196503E+00</totfact>
</mgrwt>
</event>
<event>
 6    1  0.2108260E-003  0.6346261E+03  0.7818608E-02  0.9836063E-01
          1   -1    0    0  502    0  0.00000000000E+00  0.00000000000E+00  0.10070124601E+03  0.10070124601E+03  0.00000000000E+00 0.  1.
         13   -1    0    0    0    0 -0.00000000000E+00 -0.00000000000E+00 -0.10000000000E+04  0.10000000000E+04  0.00000000000E+00 0.  1.
    9000005    2    1    2  501    0  0.59725887544E-02 -0.29601347887E-01 -0.89929102753E+03  0.11006700753E+04  0.63462608020E+03 0.  0.
         13    1    3    3    0    0 -0.17860466388E+03  0.25676980733E+03 -0.54219189380E+03  0.62594121899E+03  0.00000000000E+00 0.  1.
          3    1    3    3  501    0  0.17861063647E+03 -0.25679940868E+03 -0.35709913372E+03  0.47472885636E+03  0.00000000000E+00 0.  1.
         21    1    1    2  502  501 -0.59725887544E-02  0.29601347887E-01 -0.77264663165E-02  0.31170657595E-01  0.00000000000E+00 0. -1.
<mgrwt>
<rscale>  1 0.63462608E+03</rscale>
<asrwt>0</asrwt>
<pdfrwt beam="1">  1        1 0.36618712E+00 0.63462608E+03</pdfrwt>
<pdfrwt beam="2">0</pdfrwt>
<totfact> 0.18926613E+00</totfact>
</mgrwt>
</event>
<event>
 6    1  0.2108260E-003  0.6600937E+03  0.7818608E-02  0.9788021E-01
          1   -1    0    0  502    0  0.00000000000E+00  0.00000000000E+00  0.10902169019E+03  0.10902169019E+03  0.00000000000E+00 0.  1.
         13   -1    0    0    0    0 -0.00000000000E+00 -0.00000000000E+00 -0.10000000000E+04  0.10000000000E+04  0.00000000000E+00 0.  1.
    9000005    2    1    2  501    0  0.15718220791E-02 -0.12034884552E-02 -0.89106908076E+03  0.11089308977E+04  0.66009365176E+03 0.  0.
         13    1    3    3    0    0  0.31251648560E+03  0.97582387507E+02 -0.51566040159E+03  0.61081464119E+03  0.00000000000E+00 0.  1.
          3    1    3    3  501    0 -0.31251491378E+03 -0.97583590996E+02 -0.37540867917E+03  0.49811625647E+03  0.00000000000E+00 0.  1.
         21    1    1    2  502  501 -0.15718220791E-02  0.12034884552E-02  0.90770941967E-01  0.90792526756E-01  0.00000000000E+00 0.  1.
<mgrwt>
<rscale>  1 0.66009365E+03</rscale>
<asrwt>0</asrwt>
<pdfrwt beam="1">  1        1 0.39644335E+00 0.66009365E+03</pdfrwt>
<pdfrwt beam="2">0</pdfrwt>
<totfact> 0.13849360E+00</totfact>
</mgrwt>
</event>
<event>
 6    1  0.2108260E-003  0.6450002E+03  0.7818608E-02  0.9816206E-01
          1   -1    0    0  502    0  0.00000000000E+00  0.00000000000E+00  0.10438619181E+03  0.10438619181E+03  0.00000000000E+00 0.  1.
         13   -1    0    0    0    0 -0.00000000000E+00 -0.00000000000E+00 -0.10000000000E+04  0.10000000000E+04  0.00000000000E+00 0.  1.
    9000005    2    1    2  501    0  0.57715601958E+00  0.57517768978E+00 -0.89543340083E+03  0.11035516349E+04  0.64499966789E+03 0.  0.
         13    1    3    3    0    0  0.23259937047E+03  0.14002242470E+03 -0.14931741331E+03  0.30984582695E+03  0.00000000000E+00 0.  1.
          3    1    3    3  501    0 -0.23202221445E+03 -0.13944724701E+03 -0.74611598753E+03  0.79370580793E+03  0.00000000000E+00 0.  1.
         21    1    1    2  502  501 -0.57715601958E+00 -0.57517768978E+00 -0.18040735831E+00  0.83455692478E+00  0.00000000000E+00 0. -1.
<mgrwt>
<rscale>  1 0.64500018E+03</rscale>
<asrwt>0</asrwt>
<pdfrwt beam="1">  1        1 0.37958695E+00 0.64500018E+03</pdfrwt>
<pdfrwt beam="2">0</pdfrwt>
<totfact> 0.16493874E+00</totfact>
</mgrwt>
</event>
<event>
 6    1  0.2108260E-003  0.6480776E+03  0.7818608E-02  0.9810393E-01
          1   -1    0    0  502    0  0.00000000000E+00  0.00000000000E+00  0.10503128689E+03  0.10503128689E+03  0.00000000000E+00 0.  1.
         13   -1    0    0    0    0 -0.00000000000E+00 -0.00000000000E+00 -0.10000000000E+04  0.10000000000E+04  0.00000000000E+00 0.  1.
    9000005    2    1    2  501    0  0.77260656056E-03 -0.58376989754E-02 -0.89499854631E+03  0.11050008781E+04  0.64807757454E+03 0.  0.
         13    1    3    3    0    0 -0.97065468292E+02 -0.25541056813E+03 -0.15048042706E+03  0.31193047683E+03  0.00000000000E+00 0.  1.
          3    1    3    3  501    0  0.97066240898E+02  0.25540473043E+03 -0.74451811925E+03  0.79307040125E+03  0.00000000000E+00 0.  1.
         21    1    1    2  502  501 -0.77260656055E-03  0.58376989754E-02  0.29833201900E-01  0.30408807701E-01  0.00000000000E+00 0.  1.
<mgrwt>
<rscale>  1 0.64807757E+03</rscale>
<asrwt>0</asrwt>
<pdfrwt beam="1">  1        1 0.38193276E+00 0.64807757E+03</pdfrwt>
<pdfrwt beam="2">0</pdfrwt>
<totfact> 0.16096178E+00</totfact>
</mgrwt>
</event>
<event>
 6    1  0.2108260E-003  0.6450779E+03  0.7818608E-02  0.9816059E-01
          1   -1    0    0  502    0  0.00000000000E+00  0.00000000000E+00  0.11075813593E+03  0.11075813593E+03  0.00000000000E+00 0.  1.
         13   -1    0    0    0    0 -0.00000000000E+00 -0.00000000000E+00 -0.10000000000E+04  0.10000000000E+04  0.00000000000E+00 0.  1.
    9000005    2    1    2  501    0  0.39479917172E+00 -0.19925375257E+00 -0.89596060420E+03  0.11040248576E+04  0.64507773665E+03 0.  0.
         13    1    3    3    0    0 -0.26493039964E+03 -0.23633204993E+02 -0.13599376801E+03  0.29873223791E+03  0.00000000000E+00 0.  1.
          3    1    3    3  501    0  0.26532519881E+03  0.23433951240E+02 -0.75996683619E+03  0.80529261967E+03  0.00000000000E+00 0.  1.
         21    1    1    2  502  501 -0.39479917172E+00  0.19925375257E+00  0.67187401286E+01  0.67332783516E+01  0.00000000000E+00 0. -1.
<mgrwt>
<rscale>  1 0.64507789E+03</rscale>
<asrwt>0</asrwt>
<pdfrwt beam="1">  1        1 0.40275771E+00 0.64507789E+03</pdfrwt>
<pdfrwt beam="2">0</pdfrwt>
<totfact> 0.13017396E+00</totfact>
</mgrwt>
</event>
<event>
 6    1  0.2108260E-003  0.6639910E+03  0.7818608E-02  0.9780875E-01
          1   -1    0    0  502    0  0.00000000000E+00  0.00000000000E+00  0.11045743910E+03  0.11045743910E+03  0.00000000000E+00 0.  1.
         13   -1    0    0    0    0 -0.00000000000E+00 -0.00000000000E+00 -0.10000000000E+04  0.10000000000E+04  0.00000000000E+00 0.  1.
    9000005    2    1    2  501    0 -0.48499661235E-01  0.28796122702E-01 -0.88977524013E+03  0.11102180209E+04  0.66399101867E+03 0.  0.
         13    1    3    3    0    0 -0.19959092077E+03  0.17245771402E+03 -0.10777256901E+03  0.28494407418E+03  0.00000000000E+00 0.  1.
          3    1    3    3  501    0  0.19954242111E+03 -0.17242891789E+03 -0.78200267112E+03  0.82527394676E+03  0.00000000000E+00 0.  1.
         21    1    1    2  502  501  0.48499661235E-01 -0.28796122702E-01  0.23267923085E+00  0.23941816617E+00  0.00000000000E+00 0.  1.
<mgrwt>
<rscale>  1 0.66399102E+03</rscale>
<asrwt>0</asrwt>
<pdfrwt beam="1">  1        1 0.40166426E+00 0.66399102E+03</pdfrwt>
<pdfrwt beam="2">0</pdfrwt>
<totfact> 0.13117290E+00</totfact>
</mgrwt>
</event>
<event>
 6    1  0.2108260E-003  0.6545395E+03  0.7818608E-02  0.9798298E-01
          1   -1    0    0  502    0  0.00000000000E+00  0.00000000000E+00  0.10767085292E+03  0.10767085292E+03  0.00000000000E+00 0.  1.
         13   -1    0    0    0    0 -0.00000000000E+00 -0.00000000000E+00 -0.10000000000E+04  0.10000000000E+04  0.00000000000E+00 0.  1.
    9000005    2    1    2  501    0  0.82597617410E-01  0.33806461469E+00 -0.89283462351E+03  0.11070571621E+04  0.65453936017E+03 0.  0.
         13    1    3    3    0    0  0.25200823435E+03 -0.18485807015E+03 -0.28249521562E+03  0.42128874080E+03  0.00000000000E+00 0.  1.
          3    1    3    3  501    0 -0.25192563673E+03  0.18519613476E+03 -0.61033940789E+03  0.68576842126E+03  0.00000000000E+00 0.  1.
         21    1    1    2  502  501 -0.82597617410E-01 -0.33806461469E+00  0.50547643551E+00  0.61369086433E+00  0.00000000000E+00 0. -1.
<mgrwt>
<rscale>  1 0.65453945E+03</rscale>
<asrwt>0</asrwt>
<pdfrwt beam="1">  1        1 0.39153120E+00 0.65453945E+03</pdfrwt>
<pdfrwt beam="2">0</pdfrwt>
<totfact> 0.14578393E+00</totfact>
</mgrwt>
</event>
<event>
 6    1  0.2108260E-003  0.6522312E+03  0.7818608E-02  0.9802602E-01
          1   -1    0    0  502    0  0.00000000000E+00  0.00000000000E+00  0.10735194315E+03  0.10735194315E+03  0.00000000000E+00 0.  1.
         13   -1    0    0    0    0 -0.00000000000E+00 -0.00000000000E+00 -0.10000000000E+04  0.10000000000E+04  0.00000000000E+00 0.  1.
    9000005    2    1    2  501    0 -0.19987608034E+00 -0.96458587526E-01 -0.89363499786E+03  0.11063403566E+04  0.65223111401E+03 0.  0.
         13    1    3    3    0    0 -0.20893862646E+03  0.23846149080E+03 -0.31710978818E+03  0.44841704916E+03  0.00000000000E+00 0.  1.
          3    1    3    3  501    0  0.20873875038E+03 -0.23855794939E+03 -0.57652520968E+03  0.65792330748E+03  0.00000000000E+00 0.  1.
         21    1    1    2  502  501  0.19987608034E+00  0.96458587526E-01  0.98694100730E+00  0.10115865057E+01  0.00000000000E+00 0. -1.
<mgrwt>
<rscale>  1 0.65223115E+03</rscale>
<asrwt>0</asrwt>
<pdfrwt beam="1">  1        1 0.39037153E+00 0.65223115E+03</pdfrwt>
<pdfrwt beam="2">0</pdfrwt>
<totfact> 0.14758470E+00</totfact>
</mgrwt>
</event>
<event>
 6    1  0.2108260E-003  0.6450685E+03  0.7818608E-02  0.9816077E-01
          1   -1    0    0  502    0  0.00000000000E+00  0.00000000000E+00  0.10763373582E+03  0.10763373582E+03  0.00000000000E+00 0.  1.
         13   -1    0    0    0    0 -0.00000000000E+00 -0.00000000000E+00 -0.10000000000E+04  0.10000000000E+04  0.00000000000E+00 0.  1.
    9000005    2    1    2  501    0 -0.89197002415E+01  0.65754835452E+01 -0.87761764420E+03  0.10891859764E+04  0.64497330468E+03 0.  0.
         13    1    3    3    0    0 -0.18315008950E+03  0.24469567029E+03 -0.64397032494E+03  0.71282375503E+03  0.00000000000E+00 0.  1.
          1    1    3    3  501    0  0.17423038926E+03 -0.23812018674E+03 -0.23364731926E+03  0.37636222137E+03  0.00000000000E+00 0.  1.
         21    1    1    2  502  501  0.89197002415E+01 -0.65754835452E+01 -0.14748619982E+02  0.18447759420E+02  0.00000000000E+00 0. -1.
<mgrwt>
<rscale>  1 0.64506849E+03</rscale>
<asrwt>0</asrwt>
<pdfrwt beam="1">  1        1 0.39139623E+00 0.64506849E+03</pdfrwt>
<pdfrwt beam="2">0</pdfrwt>
<totfact> 0.14624417E+00</totfact>
</mgrwt>
</event>
<event>
 6    1  0.2108260E-003  0.6511248E+03  0.7818608E-02  0.9804671E-01
          1   -1    0    0  502    0  0.00000000000E+00  0.00000000000E+00  0.10599124346E+03  0.10599124346E+03  0.00000000000E+00 0.  1.
         13   -1    0    0    0    0 -0.00000000000E+00 -0.00000000000E+00 -0.10000000000E+04  0.10000000000E+04  0.00000000000E+00 0.  1.
    9000005    2    1    2  501    0  0.71791245162E-05  0.24803335535E-04 -0.89400912040E+03  0.11059908787E+04  0.65112480859E+03 0.  0.
         13    1    3    3    0    0  0.59153648813E+02  0.14466239551E+02 -0.99023972202E+03  0.99211044412E+03  0.00000000000E+00 0.  1.
          1    1    3    3  501    0 -0.59153641634E+02 -0.14466214748E+02  0.96230601623E+02  0.11388043456E+03  0.00000000000E+00 0.  1.
         21    1    1    2  502  501 -0.71791245195E-05 -0.24803335536E-04  0.36386307631E-03  0.36477812926E-03  0.00000000000E+00 0. -1.
<mgrwt>
<rscale>  1 0.65112481E+03</rscale>
<asrwt>0</asrwt>
<pdfrwt beam="1">  1        1 0.38542352E+00 0.65112481E+03</pdfrwt>
<pdfrwt beam="2">0</pdfrwt>
<totfact> 0.15525604E+00</totfact>
</mgrwt>
</event>
<event>
 6    1  0.2108260E-003  0.6571419E+03  0.7818608E-02  0.9793469E-01
          1   -1    0    0  502    0  0.00000000000E+00  0.00000000000E+00  0.11029434245E+03  0.11029434245E+03  0.00000000000E+00 0.  1.
         13   -1    0    0    0    0 -0.00000000000E+00 -0.00000000000E+00 -0.10000000000E+04  0.10000000000E+04  0.00000000000E+00 0.  1.
    9000005    2    1    2  501    0  0.33000717407E-01  0.87156484076E-02 -0.89204097870E+03  0.11079587719E+04  0.65714194155E+03 0.  0.
         13    1    3    3    0    0 -0.10271239998E+03 -0.17952295597E+03 -0.87644461248E+03  0.90051845488E+03  0.00000000000E+00 0.  1.
          1    1    3    3  501    0  0.10274540070E+03  0.17953167162E+03 -0.15596366219E+02  0.20744031700E+03  0.00000000000E+00 0.  1.
         21    1    1    2  502  501 -0.33000717407E-01 -0.87156484075E-02  0.23353211536E+01  0.23355705728E+01  0.00000000000E+00 0.  1.
<mgrwt>
<rscale>  1 0.65714194E+03</rscale>
<asrwt>0</asrwt>
<pdfrwt beam="1">  1        1 0.40107118E+00 0.65714194E+03</pdfrwt>
<pdfrwt beam="2">0</pdfrwt>
<totfact> 0.13214485E+00</totfact>
</mgrwt>
</event>
<event>
 6    1  0.2108260E-003  0.6407942E+03  0.7818608E-02  0.9824208E-01
          1   -1    0    0  502    0  0.00000000000E+00  0.00000000000E+00  0.10265447154E+03  0.10265447154E+03  0.00000000000E+00 0.  1.
         13   -1    0    0    0    0 -0.00000000000E+00 -0.00000000000E+00 -0.10000000000E+04  0.10000000000E+04  0.00000000000E+00 0.  1.
    9000005    2    1    2  501    0  0.18860219160E-03 -0.31241803217E-03 -0.89734546879E+03  0.11026541018E+04  0.64079417738E+03 0.  0.
         13    1    3    3    0    0  0.26811535568E+03 -0.15573185556E+03 -0.58757732034E+03  0.66436839341E+03  0.00000000000E+00 0.  1.
          1    1    3    3  501    0 -0.26811516708E+03  0.15573154314E+03 -0.30976814845E+03  0.43828570835E+03  0.00000000000E+00 0.  1.
         21    1    1    2  502  501 -0.18860219160E-03  0.31241803217E-03 -0.59666232209E-04  0.36977813993E-03  0.00000000000E+00 0.  1.
<mgrwt>
<rscale>  1 0.64079418E+03</rscale>
<asrwt>0</asrwt>
<pdfrwt beam="1">  1        1 0.37328977E+00 0.64079418E+03</pdfrwt>
<pdfrwt beam="2">0</pdfrwt>
<totfact> 0.17595219E+00</totfact>
</mgrwt>
</event>
<event>
 6    1  0.2108260E-003  0.6478215E+03  0.7818608E-02  0.9810875E-01
          1   -1    0    0  502    0  0.00000000000E+00  0.00000000000E+00  0.10494886320E+03  0.10494886320E+03  0.00000000000E+00 0.  1.
         13   -1    0    0    0    0 -0.00000000000E+00 -0.00000000000E+00 -0.10000000000E+04  0.10000000000E+04  0.00000000000E+00 0.  1.
    9000005    2    1    2  501    0  0.49672314515E-02  0.19384738277E-02 -0.89508155423E+03  0.11049179820E+04  0.64782154802E+03 0.  0.
         13    1    3    3    0    0  0.12921950896E+03  0.24933744484E+03 -0.17224767252E+03  0.32944818043E+03  0.00000000000E+00 0.  1.
          3    1    3    3  501    0 -0.12921454173E+03 -0.24933550637E+03 -0.72283388171E+03  0.77546980153E+03  0.00000000000E+00 0.  1.
         21    1    1    2  502  501 -0.49672314515E-02 -0.19384738277E-02  0.30417434832E-01  0.30881246912E-01  0.00000000000E+00 0. -1.
<mgrwt>
<rscale>  1 0.64782155E+03</rscale>
<asrwt>0</asrwt>
<pdfrwt beam="1">  1        1 0.38163303E+00 0.64782155E+03</pdfrwt>
<pdfrwt beam="2">0</pdfrwt>
<totfact> 0.16146071E+00</totfact>
</mgrwt>
</event>
<event>
 6    1  0.2108260E-003  0.6533270E+03  0.7818608E-02  0.9800556E-01
          1   -1    0    0  502    0  0.00000000000E+00  0.00000000000E+00  0.10671259963E+03  0.10671259963E+03  0.00000000000E+00 0.  1.
         13   -1    0    0    0    0 -0.00000000000E+00 -0.00000000000E+00 -0.10000000000E+04  0.10000000000E+04  0.00000000000E+00 0.  1.
    9000005    2    1    2  501    0 -0.29581519573E-02  0.29646879994E-02 -0.89328954392E+03  0.11067078949E+04  0.65332698954E+03 0.  0.
         13    1    3    3    0    0  0.71013430317E+02 -0.10645323278E+03 -0.95577096896E+03  0.96429940535E+03  0.00000000000E+00 0.  1.
          3    1    3    3  501    0 -0.71016388469E+02  0.10645619746E+03  0.62481425042E+02  0.14240848951E+03  0.00000000000E+00 0.  1.
         21    1    1    2  502  501  0.29581519573E-02 -0.29646879994E-02  0.21435542834E-02  0.47047702284E-02  0.00000000000E+00 0. -1.
<mgrwt>
<rscale>  1 0.65332699E+03</rscale>
<asrwt>0</asrwt>
<pdfrwt beam="1">  1        1 0.38804664E+00 0.65332699E+03</pdfrwt>
<pdfrwt beam="2">0</pdfrwt>
<totfact> 0.15109795E+00</totfact>
</mgrwt>
</event>
<event>
 6    1  0.2108260E-003  0.6514841E+03  0.7818608E-02  0.9803998E-01
          1   -1    0    0  502    0  0.00000000000E+00  0.00000000000E+00  0.10641573409E+03  0.10641573409E+03  0.00000000000E+00 0.  1.
         13   -1    0    0    0    0 -0.00000000000E+00 -0.00000000000E+00 -0.10000000000E+04  0.10000000000E+04  0.00000000000E+00 0.  1.
    9000005    2    1    2  501    0  0.51004922059E+00 -0.18586844162E-01 -0.89363797406E+03  0.11059025282E+04  0.65148393133E+03 0.  0.
         13    1    3    3    0    0 -0.23318352994E+03 -0.22297992069E+03 -0.37261532533E+03  0.49288617787E+03  0.00000000000E+00 0.  1.
          1    1    3    3  501    0  0.23369357916E+03  0.22296133384E+03 -0.52102264874E+03  0.61301635037E+03  0.00000000000E+00 0.  1.
         21    1    1    2  502  501 -0.51004922059E+00  0.18586844162E-01  0.53708154993E-01  0.51320584965E+00  0.00000000000E+00 0. -1.
<mgrwt>
<rscale>  1 0.65148413E+03</rscale>
<asrwt>0</asrwt>
<pdfrwt beam="1">  1        1 0.38696712E+00 0.65148413E+03</pdfrwt>
<pdfrwt beam="2">0</pdfrwt>
<totfact> 0.15282267E+00</totfact>
</mgrwt>
</event>
<event>
 6    1  0.2108260E-003  0.6506247E+03  0.7818608E-02  0.9805608E-01
          1   -1    0    0  502    0  0.00000000000E+00  0.00000000000E+00  0.10619330558E+03  0.10619330558E+03  0.00000000000E+00 0.  1.
         13   -1    0    0    0    0 -0.00000000000E+00 -0.00000000000E+00 -0.10000000000E+04  0.10000000000E+04  0.00000000000E+00 0.  1.
    9000005    2    1    2  501    0  0.98944431903E-02  0.70903022213E-02 -0.89417175931E+03  0.11058280378E+04  0.65062471050E+03 0.  0.
         13    1    3    3    0    0 -0.25882689465E+03  0.10799483133E+03 -0.16691407348E+03  0.32636567361E+03  0.00000000000E+00 0.  1.
          3    1    3    3  501    0  0.25883678909E+03 -0.10798774103E+03 -0.72725768583E+03  0.77946236419E+03  0.00000000000E+00 0.  1.
         21    1    1    2  502  501 -0.98944431903E-02 -0.70903022213E-02  0.36506488868E+00  0.36526777211E+00  0.00000000000E+00 0. -1.
<mgrwt>
<rscale>  1 0.65062471E+03</rscale>
<asrwt>0</asrwt>
<pdfrwt beam="1">  1        1 0.38615829E+00 0.65062471E+03</pdfrwt>
<pdfrwt beam="2">0</pdfrwt>
<totfact> 0.15411230E+00</totfact>
</mgrwt>
</event>
<event>
 6    1  0.2108260E-003  0.6576944E+03  0.7818608E-02  0.9792447E-01
          1   -1    0    0  502    0  0.00000000000E+00  0.00000000000E+00  0.10814122640E+03  0.10814122640E+03  0.00000000000E+00 0.  1.
         13   -1    0    0    0    0 -0.00000000000E+00 -0.00000000000E+00 -0.10000000000E+04  0.10000000000E+04  0.00000000000E+00 0.  1.
    9000005    2    1    2  501    0 -0.46049159479E-04 -0.79901546201E-04 -0.89185950418E+03  0.11081404900E+04  0.65769443545E+03 0.  0.
         13    1    3    3    0    0  0.12170696105E+03  0.30462752838E+03 -0.40714262019E+03  0.52285335286E+03  0.00000000000E+00 0.  1.
          3    1    3    3  501    0 -0.12170700710E+03 -0.30462760828E+03 -0.48471688399E+03  0.58528713716E+03  0.00000000000E+00 0.  1.
         21    1    1    2  502  501  0.46049159490E-04  0.79901546224E-04  0.73058577900E-03  0.73638329873E-03  0.00000000000E+00 0. -1.
<mgrwt>
<rscale>  1 0.65769444E+03</rscale>
<asrwt>0</asrwt>
<pdfrwt beam="1">  1        1 0.39324165E+00 0.65769444E+03</pdfrwt>
<pdfrwt beam="2">0</pdfrwt>
<totfact> 0.14317258E+00</totfact>
</mgrwt>
</event>
<event>
 6    1  0.2108260E-003  0.6030874E+03  0.7818608E-02  0.9899021E-01
          1   -1    0    0  502    0  0.00000000000E+00  0.00000000000E+00  0.91174059207E+02  0.91174059207E+02  0.00000000000E+00 0.  1.
         13   -1    0    0    0    0 -0.00000000000E+00 -0.00000000000E+00 -0.10000000000E+04  0.10000000000E+04  0.00000000000E+00 0.  1.
    9000005    2    1    2  501    0 -0.21818674925E+00  0.11100635140E+00 -0.90900324815E+03  0.10908717915E+04  0.60308730746E+03 0.  0.
         13    1    3    3    0    0  0.17851747668E+03  0.96229080251E+02 -0.50892354597E+02  0.20908983027E+03  0.00000000000E+00 0.  1.
          3    1    3    3  501    0 -0.17873566343E+03 -0.96118073900E+02 -0.85811089355E+03  0.88178196123E+03  0.00000000000E+00 0.  1.
         21    1    1    2  502  501  0.21818674925E+00 -0.11100635140E+00  0.17730735709E+00  0.30226770664E+00  0.00000000000E+00 0. -1.
<mgrwt>
<rscale>  1 0.60308736E+03</rscale>
<asrwt>0</asrwt>
<pdfrwt beam="1">  1        1 0.33154273E+00 0.60308736E+03</pdfrwt>
<pdfrwt beam="2">0</pdfrwt>
<totfact> 0.26943651E+00</totfact>
</mgrwt>
</event>
<event>
 6    1  0.2108260E-003  0.6728119E+03  0.7818608E-02  0.9764891E-01
          1   -1    0    0  502    0  0.00000000000E+00  0.00000000000E+00  0.11317920483E+03  0.11317920483E+03  0.00000000000E+00 0.  1.
         13   -1    0    0    0    0 -0.00000000000E+00 -0.00000000000E+00 -0.10000000000E+04  0.10000000000E+04  0.00000000000E+00 0.  1.
    9000005    2    1    2  501    0 -0.31297255885E-03 -0.23462476418E-02 -0.88683087629E+03  0.11131688496E+04  0.67281192356E+03 0.  0.
         13    1    3    3    0    0 -0.12933623089E+03 -0.17848879557E+03 -0.86387910814E+03  0.89155662986E+03  0.00000000000E+00 0.  1.
          3    1    3    3  501    0  0.12933591791E+03  0.17848644933E+03 -0.22951768141E+02  0.22161221969E+03  0.00000000000E+00 0.  1.
         21    1    1    2  502  501  0.31297255885E-03  0.23462476418E-02  0.10081116843E-01  0.10355276269E-01  0.00000000000E+00 0. -1.
<mgrwt>
<rscale>  1 0.67281192E+03</rscale>
<asrwt>0</asrwt>
<pdfrwt beam="1">  1        1 0.41156161E+00 0.67281192E+03</pdfrwt>
<pdfrwt beam="2">0</pdfrwt>
<totfact> 0.11825392E+00</totfact>
</mgrwt>
</event>
<event>
 6    1  0.2108260E-003  0.6904125E+03  0.7818608E-02  0.9733770E-01
          1   -1    0    0  502    0  0.00000000000E+00  0.00000000000E+00  0.11916835250E+03  0.11916835250E+03  0.00000000000E+00 0.  1.
         13   -1    0    0    0    0 -0.00000000000E+00 -0.00000000000E+00 -0.10000000000E+04  0.10000000000E+04  0.00000000000E+00 0.  1.
    9000005    2    1    2  501    0  0.33756545966E-03 -0.44912476875E-03 -0.88083254383E+03  0.11191672946E+04  0.69041253111E+03 0.  0.
         13    1    3    3    0    0  0.16947026546E+03 -0.26562765998E+03 -0.66902715789E+03  0.73951035328E+03  0.00000000000E+00 0.  1.
          1    1    3    3  501    0 -0.16946992789E+03  0.26562721085E+03 -0.21180538594E+03  0.37965694135E+03  0.00000000000E+00 0.  1.
         21    1    1    2  502  501 -0.33756545966E-03  0.44912476872E-03  0.89633205313E-03  0.10578632458E-02  0.00000000000E+00 0. -1.
<mgrwt>
<rscale>  1 0.69041253E+03</rscale>
<asrwt>0</asrwt>
<pdfrwt beam="1">  1        1 0.43334038E+00 0.69041253E+03</pdfrwt>
<pdfrwt beam="2">0</pdfrwt>
<totfact> 0.93943669E-01</totfact>
</mgrwt>
</event>
<event>
 6    1  0.2108260E-003  0.6425370E+03  0.7818608E-02  0.9820885E-01
          1   -1    0    0  502    0  0.00000000000E+00  0.00000000000E+00  0.10321855769E+03  0.10321855769E+03  0.00000000000E+00 0.  1.
         13   -1    0    0    0    0 -0.00000000000E+00 -0.00000000000E+00 -0.10000000000E+04  0.10000000000E+04  0.00000000000E+00 0.  1.
    9000005    2    1    2  501    0  0.52515025459E-04 -0.25731668424E-03 -0.89678653478E+03  0.11032134584E+04  0.64253703857E+03 0.  0.
         13    1    3    3    0    0 -0.83636435425E+02 -0.19273316497E+03 -0.86569839614E+03  0.89082817607E+03  0.00000000000E+00 0.  1.
          3    1    3    3  501    0  0.83636487940E+02  0.19273290765E+03 -0.31088138645E+02  0.21238528238E+03  0.00000000000E+00 0.  1.
         21    1    1    2  502  501 -0.52515025466E-04  0.25731668423E-03  0.50924725869E-02  0.50992398210E-02  0.00000000000E+00 0.  1.
<mgrwt>
<rscale>  1 0.64253704E+03</rscale>
<asrwt>0</asrwt>
<pdfrwt beam="1">  1        1 0.37534100E+00 0.64253704E+03</pdfrwt>
<pdfrwt beam="2">0</pdfrwt>
<totfact> 0.17227806E+00</totfact>
</mgrwt>
</event>
<event>
 6    1  0.2108260E-003  0.6401998E+03  0.7818608E-02  0.9825344E-01
          1   -1    0    0  502    0  0.00000000000E+00  0.00000000000E+00  0.10248211850E+03  0.10248211850E+03  0.00000000000E+00 0.  1.
         13   -1    0    0    0    0 -0.00000000000E+00 -0.00000000000E+00 -0.10000000000E+04  0.10000000000E+04  0.00000000000E+00 0.  1.
    9000005    2    1    2  501    0 -0.36024436561E-02  0.27951295502E-02 -0.89753573192E+03  0.11024636949E+04  0.64019981924E+03 0.  0.
         13    1    3    3    0    0  0.10313598979E+02 -0.28376477205E+03 -0.70322541445E+03  0.75838960945E+03  0.00000000000E+00 0.  1.
          3    1    3    3  501    0 -0.10317201422E+02  0.28376756718E+03 -0.19431031746E+03  0.34407408549E+03  0.00000000000E+00 0.  1.
         21    1    1    2  502  501  0.36024436561E-02 -0.27951295503E-02  0.17850422119E-01  0.18423569668E-01  0.00000000000E+00 0. -1.
<mgrwt>
<rscale>  1 0.64019982E+03</rscale>
<asrwt>0</asrwt>
<pdfrwt beam="1">  1        1 0.37266303E+00 0.64019982E+03</pdfrwt>
<pdfrwt beam="2">0</pdfrwt>
<totfact> 0.17709164E+00</totfact>
</mgrwt>
</event>
<event>
 6    1  0.2108260E-003  0.6326592E+03  0.7818608E-02  0.9839873E-01
          3   -1    0    0  502    0  0.00000000000E+00  0.00000000000E+00  0.10344750790E+03  0.10344750790E+03  0.00000000000E+00 0.  1.
         13   -1    0    0    0    0 -0.00000000000E+00 -0.00000000000E+00 -0.10000000000E+04  0.10000000000E+04  0.00000000000E+00 0.  1.
    9000005    2    1    2  501    0 -0.38802054667E+00 -0.12346152716E+00 -0.89992208629E+03  0.11000534001E+04  0.63265911509E+03 0.  0.
         13    1    3    3    0    0 -0.14212659696E+03  0.42995153062E+02  0.35745388529E+02  0.15272945214E+03  0.00000000000E+00 0.  1.
          1    1    3    3  501    0  0.14173857642E+03 -0.43118614590E+02 -0.93566747481E+03  0.94732394797E+03  0.00000000000E+00 0.  1.
         21    1    1    2  502  501  0.38802054667E+00  0.12346152716E+00  0.33695941813E+01  0.33941077826E+01  0.00000000000E+00 0. -1.
<mgrwt>
<rscale>  1 0.63265925E+03</rscale>
<asrwt>0</asrwt>
<pdfrwt beam="1">  1        3 0.37617355E+00 0.63265925E+03</pdfrwt>
<pdfrwt beam="2">0</pdfrwt>
<totfact> 0.79304559E-02</totfact>
</mgrwt>
</event>
<event>
 6    1  0.2108260E-003  0.4889403E+03  0.7818608E-02  0.1016707E+00
          1   -1    0    0  502    0  0.00000000000E+00  0.00000000000E+00  0.59766060319E+02  0.59766060319E+02  0.00000000000E+00 0.  1.
         13   -1    0    0    0    0 -0.00000000000E+00 -0.00000000000E+00 -0.10000000000E+04  0.10000000000E+04  0.00000000000E+00 0.  1.
    9000005    2    1    2  501    0  0.80252031527E-04 -0.20149235864E-03 -0.94023431944E+03  0.10597656230E+04  0.48894028289E+03 0.  0.
         13    1    3    3    0    0 -0.31830363586E+02  0.12230938011E+03 -0.92369892993E+03  0.93230492311E+03  0.00000000000E+00 0.  1.
          1    1    3    3  501    0  0.31830443838E+02 -0.12230958161E+03 -0.16535389507E+02  0.12746069988E+03  0.00000000000E+00 0.  1.
         21    1    1    2  502  501 -0.80252031524E-04  0.20149235864E-03  0.37975511663E-03  0.43732540261E-03  0.00000000000E+00 0. -1.
<mgrwt>
<rscale>  1 0.48894028E+03</rscale>
<asrwt>0</asrwt>
<pdfrwt beam="1">  1        1 0.21733159E+00 0.48894028E+03</pdfrwt>
<pdfrwt beam="2">0</pdfrwt>
<totfact> 0.86094008E+00</totfact>
</mgrwt>
</event>
<event>
 6    1  0.2108260E-003  0.6544554E+03  0.7818608E-02  0.9798455E-01
          1   -1    0    0  502    0  0.00000000000E+00  0.00000000000E+00  0.10707819343E+03  0.10707819343E+03  0.00000000000E+00 0.  1.
         13   -1    0    0    0    0 -0.00000000000E+00 -0.00000000000E+00 -0.10000000000E+04  0.10000000000E+04  0.00000000000E+00 0.  1.
    9000005    2    1    2  501    0  0.34631887161E-04  0.19953700681E-03 -0.89292197226E+03  0.11070779318E+04  0.65445542130E+03 0.  0.
         13    1    3    3    0    0 -0.16592044944E+03 -0.34213150574E+02 -0.92004246450E+03  0.93550963207E+03  0.00000000000E+00 0.  1.
          1    1    3    3  501    0  0.16592048407E+03  0.34213350111E+02  0.27120492243E+02  0.17156829970E+03  0.00000000000E+00 0.  1.
         21    1    1    2  502  501 -0.34631887155E-04 -0.19953700681E-03  0.16568320548E-03  0.26165876495E-03  0.00000000000E+00 0.  1.
<mgrwt>
<rscale>  1 0.65445542E+03</rscale>
<asrwt>0</asrwt>
<pdfrwt beam="1">  1        1 0.38937607E+00 0.65445542E+03</pdfrwt>
<pdfrwt beam="2">0</pdfrwt>
<totfact> 0.14903081E+00</totfact>
</mgrwt>
</event>
<event>
 6    1  0.2108260E-003  0.6549827E+03  0.7818608E-02  0.9797474E-01
          1   -1    0    0  502    0  0.00000000000E+00  0.00000000000E+00  0.10784699961E+03  0.10784699961E+03  0.00000000000E+00 0.  1.
         13   -1    0    0    0    0 -0.00000000000E+00 -0.00000000000E+00 -0.10000000000E+04  0.10000000000E+04  0.00000000000E+00 0.  1.
    9000005    2    1    2  501    0 -0.99098771781E+00  0.14938440291E+01 -0.89019889577E+03  0.11051951792E+04  0.65498022600E+03 0.  0.
         13    1    3    3    0    0 -0.21798009829E+03  0.23835276099E+03 -0.34653656333E+03  0.47372455251E+03  0.00000000000E+00 0.  1.
          1    1    3    3  501    0  0.21698911057E+03 -0.23685891696E+03 -0.54366233244E+03  0.63147062668E+03  0.00000000000E+00 0.  1.
         21    1    1    2  502  501  0.99098771781E+00 -0.14938440291E+01 -0.19541046210E+01  0.26518204143E+01  0.00000000000E+00 0.  1.
<mgrwt>
<rscale>  1 0.65498268E+03</rscale>
<asrwt>0</asrwt>
<pdfrwt beam="1">  1        1 0.39217173E+00 0.65498268E+03</pdfrwt>
<pdfrwt beam="2">0</pdfrwt>
<totfact> 0.14482067E+00</totfact>
</mgrwt>
</event>
<event>
 6    1  0.2108260E-003  0.6349918E+03  0.7818608E-02  0.9835356E-01
          1   -1    0    0  502    0  0.00000000000E+00  0.00000000000E+00  0.10080367261E+03  0.10080367261E+03  0.00000000000E+00 0.  1.
         13   -1    0    0    0    0 -0.00000000000E+00 -0.00000000000E+00 -0.10000000000E+04  0.10000000000E+04  0.00000000000E+00 0.  1.
    9000005    2    1    2  501    0  0.47660986979E-06 -0.60694589052E-05 -0.89919636878E+03  0.11008036308E+04  0.63499175104E+03 0.  0.
         13    1    3    3    0    0  0.17582758029E+03 -0.10671561219E+03 -0.30302910036E+02  0.20789859603E+03  0.00000000000E+00 0.  1.
          1    1    3    3  501    0 -0.17582757981E+03  0.10671560612E+03 -0.86889345874E+03  0.89290503474E+03  0.00000000000E+00 0.  1.
         21    1    1    2  502  501 -0.47660986758E-06  0.60694589041E-05  0.41396029141E-04  0.41841327859E-04  0.00000000000E+00 0. -1.
<mgrwt>
<rscale>  1 0.63499175E+03</rscale>
<asrwt>0</asrwt>
<pdfrwt beam="1">  1        1 0.36655958E+00 0.63499175E+03</pdfrwt>
<pdfrwt beam="2">0</pdfrwt>
<totfact> 0.18854320E+00</totfact>
</mgrwt>
</event>
<event>
 6    1  0.2108260E-003  0.6545181E+03  0.7818608E-02  0.9798338E-01
          1   -1    0    0  502    0  0.00000000000E+00  0.00000000000E+00  0.13585674336E+03  0.13585674336E+03  0.00000000000E+00 0.  1.
         13   -1    0    0    0    0 -0.00000000000E+00 -0.00000000000E+00 -0.10000000000E+04  0.10000000000E+04  0.00000000000E+00 0.  1.
    9000005    2    1    2  501    0 -0.24098573579E+02  0.16396883638E+02 -0.88447844506E+03  0.11003163589E+04  0.65386877185E+03 0.  0.
         13    1    3    3    0    0 -0.28190739789E+03 -0.45195350531E+02 -0.75120912306E+03  0.80363520783E+03  0.00000000000E+00 0.  1.
          1    1    3    3  501    0  0.25780882431E+03  0.61592234169E+02 -0.13326932200E+03  0.29668115105E+03  0.00000000000E+00 0.  1.
         21    1    1    2  502  501  0.24098573579E+02 -0.16396883638E+02  0.20335188417E+02  0.35540384487E+02  0.00000000000E+00 0.  1.
<mgrwt>
<rscale>  1 0.65451812E+03</rscale>
<asrwt>0</asrwt>
<pdfrwt beam="1">  1        1 0.49402556E+00 0.65451812E+03</pdfrwt>
<pdfrwt beam="2">0</pdfrwt>
<totfact> 0.49339612E-01</totfact>
</mgrwt>
</event>
<event>
 6    1  0.2108260E-003  0.6475082E+03  0.7818608E-02  0.9811466E-01
          1   -1    0    0  502    0  0.00000000000E+00  0.00000000000E+00  0.10482765960E+03  0.10482765960E+03  0.00000000000E+00 0.  1.
         13   -1    0    0    0    0 -0.00000000000E+00 -0.00000000000E+00 -0.10000000000E+04  0.10000000000E+04  0.00000000000E+00 0.  1.
    9000005    2    1    2  501    0  0.43639762896E-03  0.44559960540E-03 -0.89518327387E+03  0.11048167084E+04  0.64750819705E+03 0.  0.
         13    1    3    3    0    0 -0.29839396870E+03 -0.11063040819E+03 -0.54908841337E+03  0.63464646337E+03  0.00000000000E+00 0.  1.
          3    1    3    3  501    0  0.29839440510E+03  0.11063085379E+03 -0.34609486050E+03  0.47017024498E+03  0.00000000000E+00 0.  1.
         21    1    1    2  502  501 -0.43639762895E-03 -0.44559960540E-03  0.10933473497E-01  0.10951248541E-01  0.00000000000E+00 0. -1.
<mgrwt>
<rscale>  1 0.64750820E+03</rscale>
<asrwt>0</asrwt>
<pdfrwt beam="1">  1        1 0.38119229E+00 0.64750820E+03</pdfrwt>
<pdfrwt beam="2">0</pdfrwt>
<totfact> 0.16219517E+00</totfact>
</mgrwt>
</event>
<event>
 6    1  0.2108260E-003  0.6472740E+03  0.7818608E-02  0.9811908E-01
          1   -1    0    0  502    0  0.00000000000E+00  0.00000000000E+00  0.10474248617E+03  0.10474248617E+03  0.00000000000E+00 0.  1.
         13   -1    0    0    0    0 -0.00000000000E+00 -0.00000000000E+00 -0.10000000000E+04  0.10000000000E+04  0.00000000000E+00 0.  1.
    9000005    2    1    2  501    0  0.25133033681E-02 -0.66688020542E-03 -0.89525779958E+03  0.11047398702E+04  0.64727401708E+03 0.  0.
         13    1    3    3    0    0 -0.70437376722E+02 -0.26880886004E+03 -0.73077216822E+03  0.78182324673E+03  0.00000000000E+00 0.  1.
          1    1    3    3  501    0  0.70439890025E+02  0.26880819316E+03 -0.16448563136E+03  0.32291662351E+03  0.00000000000E+00 0.  1.
         21    1    1    2  502  501 -0.25133033682E-02  0.66688020543E-03  0.28574337495E-03  0.26159266628E-02  0.00000000000E+00 0.  1.
<mgrwt>
<rscale>  1 0.64727402E+03</rscale>
<asrwt>0</asrwt>
<pdfrwt beam="1">  1        1 0.38088257E+00 0.64727402E+03</pdfrwt>
<pdfrwt beam="2">0</pdfrwt>
<totfact> 0.16271361E+00</totfact>
</mgrwt>
</event>
<event>
 6    1  0.2108260E-003  0.6573828E+03  0.7818608E-02  0.9793024E-01
          1   -1    0    0  502    0  0.00000000000E+00  0.00000000000E+00  0.10803923490E+03  0.10803923490E+03  0.00000000000E+00 0.  1.
         13   -1    0    0    0    0 -0.00000000000E+00 -0.00000000000E+00 -0.10000000000E+04  0.10000000000E+04  0.00000000000E+00 0.  1.
    9000005    2    1    2  501    0 -0.27110363547E-04 -0.73653734404E-04 -0.89196194986E+03  0.11080380475E+04  0.65738283732E+03 0.  0.
         13    1    3    3    0    0  0.12157229079E+03  0.18024063304E+03 -0.86149562580E+03  0.88850504836E+03  0.00000000000E+00 0.  1.
          1    1    3    3  501    0 -0.12157231790E+03 -0.18024070669E+03 -0.30466324059E+02  0.21953299918E+03  0.00000000000E+00 0.  1.
         21    1    1    2  502  501  0.27110363544E-04  0.73653734400E-04  0.11847627111E-02  0.11873594764E-02  0.00000000000E+00 0. -1.
<mgrwt>
<rscale>  1 0.65738284E+03</rscale>
<asrwt>0</asrwt>
<pdfrwt beam="1">  1        1 0.39287077E+00 0.65738284E+03</pdfrwt>
<pdfrwt beam="2">0</pdfrwt>
<totfact> 0.14372505E+00</totfact>
</mgrwt>
</event>
<event>
 6    1  0.2108260E-003  0.6480917E+03  0.7818608E-02  0.9810367E-01
          1   -1    0    0  502    0  0.00000000000E+00  0.00000000000E+00  0.10500570803E+03  0.10500570803E+03  0.00000000000E+00 0.  1.
         13   -1    0    0    0    0 -0.00000000000E+00 -0.00000000000E+00 -0.10000000000E+04  0.10000000000E+04  0.00000000000E+00 0.  1.
    9000005    2    1    2  501    0  0.18000723010E-05 -0.43561435064E-05 -0.89499430217E+03  0.11050056968E+04  0.64809165172E+03 0.  0.
         13    1    3    3    0    0 -0.28164342716E+02 -0.31096001490E+03 -0.59531648265E+03  0.67222844003E+03  0.00000000000E+00 0.  1.
          1    1    3    3  501    0  0.28164344516E+02  0.31096001054E+03 -0.29967781952E+03  0.43277725676E+03  0.00000000000E+00 0.  1.
         21    1    1    2  502  501 -0.18000723006E-05  0.43561434878E-05  0.10196625223E-04  0.11233317066E-04  0.00000000000E+00 0.  1.
<mgrwt>
<rscale>  1 0.64809165E+03</rscale>
<asrwt>0</asrwt>
<pdfrwt beam="1">  1        1 0.38183974E+00 0.64809165E+03</pdfrwt>
<pdfrwt beam="2">0</pdfrwt>
<totfact> 0.16111369E+00</totfact>
</mgrwt>
</event>
<event>
 6    1  0.2108260E-003  0.6464868E+03  0.7818608E-02  0.9813394E-01
          1   -1    0    0  502    0  0.00000000000E+00  0.00000000000E+00  0.10691857152E+03  0.10691857152E+03  0.00000000000E+00 0.  1.
         13   -1    0    0    0    0 -0.00000000000E+00 -0.00000000000E+00 -0.10000000000E+04  0.10000000000E+04  0.00000000000E+00 0.  1.
    9000005    2    1    2  501    0 -0.94878414706E+00  0.61362027263E+00 -0.89536794281E+03  0.11043681071E+04  0.64648579732E+03 0.  0.
         13    1    3    3    0    0 -0.21840669970E+03  0.21780639837E+03 -0.28029284144E+03  0.41677954677E+03  0.00000000000E+00 0.  1.
          1    1    3    3  501    0  0.21745791556E+03 -0.21719277810E+03 -0.61507510137E+03  0.68758856028E+03  0.00000000000E+00 0.  1.
         21    1    1    2  502  501  0.94878414706E+00 -0.61362027263E+00  0.22865143351E+01  0.25504644677E+01  0.00000000000E+00 0. -1.
<mgrwt>
<rscale>  1 0.64648678E+03</rscale>
<asrwt>0</asrwt>
<pdfrwt beam="1">  1        1 0.38879563E+00 0.64648678E+03</pdfrwt>
<pdfrwt beam="2">0</pdfrwt>
<totfact> 0.15013877E+00</totfact>
</mgrwt>
</event>
<event>
 6    1  0.2108260E-003  0.6355562E+03  0.7818608E-02  0.9834266E-01
          1   -1    0    0  502    0  0.00000000000E+00  0.00000000000E+00  0.10101071407E+03  0.10101071407E+03  0.00000000000E+00 0.  1.
         13   -1    0    0    0    0 -0.00000000000E+00 -0.00000000000E+00 -0.10000000000E+04  0.10000000000E+04  0.00000000000E+00 0.  1.
    9000005    2    1    2  501    0 -0.38241950662E-03 -0.98604733068E-04 -0.89901708340E+03  0.11009829138E+04  0.63555618179E+03 0.  0.
         13    1    3    3    0    0  0.25239447147E+03  0.14304685982E+03 -0.67415831487E+03  0.73393106409E+03  0.00000000000E+00 0.  1.
          1    1    3    3  501    0 -0.25239485388E+03 -0.14304695843E+03 -0.22485876854E+03  0.36705184970E+03  0.00000000000E+00 0.  1.
         21    1    1    2  502  501  0.38241950663E-03  0.98604733064E-04  0.27797477874E-01  0.27800283159E-01  0.00000000000E+00 0. -1.
<mgrwt>
<rscale>  1 0.63555618E+03</rscale>
<asrwt>0</asrwt>
<pdfrwt beam="1">  1        1 0.36731246E+00 0.63555618E+03</pdfrwt>
<pdfrwt beam="2">0</pdfrwt>
<totfact> 0.18709588E+00</totfact>
</mgrwt>
</event>
<event>
 6    1  0.2108260E-003  0.6466801E+03  0.7818608E-02  0.9813029E-01
          3   -1    0    0  502    0  0.00000000000E+00  0.00000000000E+00  0.11147716713E+03  0.11147716713E+03  0.00000000000E+00 0.  1.
         13   -1    0    0    0    0 -0.00000000000E+00 -0.00000000000E+00 -0.10000000000E+04  0.10000000000E+04  0.00000000000E+00 0.  1.
    9000005    2    1    2  501    0  0.87587464684E+00  0.12595736819E+01 -0.89535729574E+03  0.11044726282E+04  0.64667823979E+03 0.  0.
         13    1    3    3    0    0 -0.27171535613E+03 -0.13505236999E+03 -0.25915326674E+03  0.39903482687E+03  0.00000000000E+00 0.  1.
          1    1    3    3  501    0  0.27259123078E+03  0.13631194367E+03 -0.63620402900E+03  0.70543780137E+03  0.00000000000E+00 0.  1.
         21    1    1    2  502  501 -0.87587464684E+00 -0.12595736819E+01  0.68344628664E+01  0.70045388806E+01  0.00000000000E+00 0.  1.
<mgrwt>
<rscale>  1 0.64668006E+03</rscale>
<asrwt>0</asrwt>
<pdfrwt beam="1">  1        3 0.40537237E+00 0.64668006E+03</pdfrwt>
<pdfrwt beam="2">0</pdfrwt>
<totfact> 0.55558983E-02</totfact>
</mgrwt>
</event>
<event>
 6    1  0.2108260E-003  0.6425636E+03  0.7818608E-02  0.9820834E-01
          1   -1    0    0  502    0  0.00000000000E+00  0.00000000000E+00  0.11578075654E+03  0.11578075654E+03  0.00000000000E+00 0.  1.
         13   -1    0    0    0    0 -0.00000000000E+00 -0.00000000000E+00 -0.10000000000E+04  0.10000000000E+04  0.00000000000E+00 0.  1.
    9000005    2    1    2  501    0  0.25284182728E+02  0.19056397585E+02 -0.86869612049E+03  0.10805188290E+04  0.64178310507E+03 0.  0.
         13    1    3    3    0    0  0.29623314416E+03  0.87374139508E+02 -0.23545042807E+03  0.38836222787E+03  0.00000000000E+00 0.  1.
          3    1    3    3  501    0 -0.27094896144E+03 -0.68317741924E+02 -0.63324569242E+03  0.69215660116E+03  0.00000000000E+00 0.  1.
         21    1    1    2  502  501 -0.25284182728E+02 -0.19056397585E+02 -0.15523122966E+02  0.35261927510E+02  0.00000000000E+00 0. -1.
<mgrwt>
<rscale>  1 0.64256361E+03</rscale>
<asrwt>0</asrwt>
<pdfrwt beam="1">  1        1 0.42102182E+00 0.64256361E+03</pdfrwt>
<pdfrwt beam="2">0</pdfrwt>
<totfact> 0.10784232E+00</totfact>
</mgrwt>
</event>
<event>
 6    1  0.2108260E-003  0.6413607E+03  0.7818608E-02  0.9823127E-01
          1   -1    0    0  502    0  0.00000000000E+00  0.00000000000E+00  0.10283732340E+03  0.10283732340E+03  0.00000000000E+00 0.  1.
         13   -1    0    0    0    0 -0.00000000000E+00 -0.00000000000E+00 -0.10000000000E+04  0.10000000000E+04  0.00000000000E+00 0.  1.
    9000005    2    1    2  501    0  0.37781949209E-03 -0.82759764553E-05 -0.89716407138E+03  0.11028358783E+04  0.64136074369E+03 0.  0.
         13    1    3    3    0    0  0.21744020239E+03  0.13197676125E+03 -0.11277752298E+03  0.27823888444E+03  0.00000000000E+00 0.  1.
          3    1    3    3  501    0 -0.21743982457E+03 -0.13197676953E+03 -0.78438654841E+03  0.82459699388E+03  0.00000000000E+00 0.  1.
         21    1    1    2  502  501 -0.37781949209E-03  0.82759764599E-05  0.13947858605E-02  0.14450756579E-02  0.00000000000E+00 0.  1.
<mgrwt>
<rscale>  1 0.64136074E+03</rscale>
<asrwt>0</asrwt>
<pdfrwt beam="1">  1        1 0.37395469E+00 0.64136074E+03</pdfrwt>
<pdfrwt beam="2">0</pdfrwt>
<totfact> 0.17475303E+00</totfact>
</mgrwt>
</event>
<event>
 6    1  0.2108260E-003  0.6348162E+03  0.7818608E-02  0.9835695E-01
          1   -1    0    0  502    0  0.00000000000E+00  0.00000000000E+00  0.10254084027E+03  0.10254084027E+03  0.00000000000E+00 0.  1.
         13   -1    0    0    0    0 -0.00000000000E+00 -0.00000000000E+00 -0.10000000000E+04  0.10000000000E+04  0.00000000000E+00 0.  1.
    9000005    2    1    2  501    0 -0.29523427202E+00 -0.30621253881E+00 -0.89922428522E+03  0.11007251868E+04  0.63481606855E+03 0.  0.
         13    1    3    3    0    0  0.18408032788E+03  0.20399597122E+03 -0.72422724387E+03  0.77459991231E+03  0.00000000000E+00 0.  1.
          3    1    3    3  501    0 -0.18437556215E+03 -0.20430218376E+03 -0.17499704135E+03  0.32612527453E+03  0.00000000000E+00 0.  1.
         21    1    1    2  502  501  0.29523427202E+00  0.30621253881E+00  0.17651254855E+01  0.18156534289E+01  0.00000000000E+00 0. -1.
<mgrwt>
<rscale>  1 0.63481621E+03</rscale>
<asrwt>0</asrwt>
<pdfrwt beam="1">  1        1 0.37287657E+00 0.63481621E+03</pdfrwt>
<pdfrwt beam="2">0</pdfrwt>
<totfact> 0.17688366E+00</totfact>
</mgrwt>
</event>
<event>
 6    1  0.2108260E-003  0.6450184E+03  0.7818608E-02  0.9816172E-01
          1   -1    0    0  502    0  0.00000000000E+00  0.00000000000E+00  0.10401908745E+03  0.10401908745E+03  0.00000000000E+00 0.  1.
         13   -1    0    0    0    0 -0.00000000000E+00 -0.00000000000E+00 -0.10000000000E+04  0.10000000000E+04  0.00000000000E+00 0.  1.
    9000005    2    1    2  501    0 -0.12117431119E-02 -0.41000235626E-04 -0.89598775697E+03  0.11040121365E+04  0.64501840038E+03 0.  0.
         13    1    3    3    0    0 -0.92814840544E+02  0.28744929841E+03 -0.64141670725E+03  0.70898313528E+03  0.00000000000E+00 0.  1.
          3    1    3    3  501    0  0.92813628800E+02 -0.28744933941E+03 -0.25457104973E+03  0.39502900118E+03  0.00000000000E+00 0.  1.
         21    1    1    2  502  501  0.12117431119E-02  0.41000235628E-04  0.68444274253E-02  0.69509847625E-02  0.00000000000E+00 0.  1.
<mgrwt>
<rscale>  1 0.64501840E+03</rscale>
<asrwt>0</asrwt>
<pdfrwt beam="1">  1        1 0.37825202E+00 0.64501840E+03</pdfrwt>
<pdfrwt beam="2">0</pdfrwt>
<totfact> 0.16718913E+00</totfact>
</mgrwt>
</event>
<event>
 6    1  0.2108260E-003  0.6470058E+03  0.7818608E-02  0.9812414E-01
          1   -1    0    0  502    0  0.00000000000E+00  0.00000000000E+00  0.10493183643E+03  0.10493183643E+03  0.00000000000E+00 0.  1.
         13   -1    0    0    0    0 -0.00000000000E+00 -0.00000000000E+00 -0.10000000000E+04  0.10000000000E+04  0.00000000000E+00 0.  1.
    9000005    2    1    2  501    0 -0.35851417090E-01  0.91167309429E-02 -0.89534451881E+03  0.11046530163E+04  0.64700577874E+03 0.  0.
         13    1    3    3    0    0 -0.18659610921E+03  0.18708553443E+03 -0.76638726486E+03  0.81065932728E+03  0.00000000000E+00 0.  1.
          1    1    3    3  501    0  0.18656025780E+03 -0.18707641770E+03 -0.12895725395E+03  0.29399368904E+03  0.00000000000E+00 0.  1.
         21    1    1    2  502  501  0.35851417090E-01 -0.91167309429E-02  0.27635524426E+00  0.27882012108E+00  0.00000000000E+00 0.  1.
<mgrwt>
<rscale>  1 0.64700578E+03</rscale>
<asrwt>0</asrwt>
<pdfrwt beam="1">  1        1 0.38157112E+00 0.64700578E+03</pdfrwt>
<pdfrwt beam="2">0</pdfrwt>
<totfact> 0.16158665E+00</totfact>
</mgrwt>
</event>
<event>
 6    1  0.2108260E-003  0.5074394E+03  0.7818608E-02  0.1011855E+00
          1   -1    0    0  502    0  0.00000000000E+00  0.00000000000E+00  0.64375027799E+02  0.64375027799E+02  0.00000000000E+00 0.  1.
         13   -1    0    0    0    0 -0.00000000000E+00 -0.00000000000E+00 -0.10000000000E+04  0.10000000000E+04  0.00000000000E+00 0.  1.
    9000005    2    1    2  501    0 -0.38196848834E-03 -0.28197805261E-03 -0.93562625947E+03  0.10643736558E+04  0.50743943647E+03 0.  0.
         13    1    3    3    0    0 -0.20972501052E+03  0.51275289715E+02 -0.18828126283E+03  0.28646739658E+03  0.00000000000E+00 0.  1.
          1    1    3    3  501    0  0.20972462855E+03 -0.51275571693E+02 -0.74734499664E+03  0.77790625919E+03  0.00000000000E+00 0.  1.
         21    1    1    2  502  501  0.38196848836E-03  0.28197805261E-03  0.12872692389E-02  0.13720326679E-02  0.00000000000E+00 0. -1.
<mgrwt>
<rscale>  1 0.50743944E+03</rscale>
<asrwt>0</asrwt>
<pdfrwt beam="1">  1        1 0.23409150E+00 0.50743944E+03</pdfrwt>
<pdfrwt beam="2">0</pdfrwt>
<totfact> 0.72384832E+00</totfact>
</mgrwt>
</event>
<event>
 6    1  0.2108260E-003  0.6472979E+03  0.7818608E-02  0.9811863E-01
          1   -1    0    0  502    0  0.00000000000E+00  0.00000000000E+00  0.10476625850E+03  0.10476625850E+03  0.00000000000E+00 0.  1.
         13   -1    0    0    0    0 -0.00000000000E+00 -0.00000000000E+00 -0.10000000000E+04  0.10000000000E+04  0.00000000000E+00 0.  1.
    9000005    2    1    2  501    0 -0.15874647262E-02  0.34132451434E-02 -0.89525114076E+03  0.11047484567E+04  0.64729788159E+03 0.  0.
         13    1    3    3    0    0 -0.30234295415E+03 -0.49685730607E+02 -0.62555832425E+03  0.69656525235E+03  0.00000000000E+00 0.  1.
          3    1    3    3  501    0  0.30234136668E+03  0.49689143852E+02 -0.26969281651E+03  0.40818320434E+03  0.00000000000E+00 0.  1.
         21    1    1    2  502  501  0.15874647263E-02 -0.34132451434E-02  0.17399263952E-01  0.17801816557E-01  0.00000000000E+00 0.  1.
<mgrwt>
<rscale>  1 0.64729788E+03</rscale>
<asrwt>0</asrwt>
<pdfrwt beam="1">  1        1 0.38096902E+00 0.64729788E+03</pdfrwt>
<pdfrwt beam="2">0</pdfrwt>
<totfact> 0.16256999E+00</totfact>
</mgrwt>
</event>
<event>
 6    1  0.2108260E-003  0.6502317E+03  0.7818608E-02  0.9806344E-01
          1   -1    0    0  502    0  0.00000000000E+00  0.00000000000E+00  0.10570044910E+03  0.10570044910E+03  0.00000000000E+00 0.  1.
         13   -1    0    0    0    0 -0.00000000000E+00 -0.00000000000E+00 -0.10000000000E+04  0.10000000000E+04  0.00000000000E+00 0.  1.
    9000005    2    1    2  501    0  0.19465577338E-04 -0.12022031228E-04 -0.89429967232E+03  0.11057003255E+04  0.65023173252E+03 0.  0.
         13    1    3    3    0    0 -0.30559442370E+03 -0.94949039160E+02 -0.54479078455E+03  0.63182297423E+03  0.00000000000E+00 0.  1.
          3    1    3    3  501    0  0.30559444317E+03  0.94949027138E+02 -0.34950888778E+03  0.47387735131E+03  0.00000000000E+00 0.  1.
         21    1    1    2  502  501 -0.19465577305E-04  0.12022031234E-04  0.12142676545E-03  0.12356333316E-03  0.00000000000E+00 0. -1.
<mgrwt>
<rscale>  1 0.65023173E+03</rscale>
<asrwt>0</asrwt>
<pdfrwt beam="1">  1        1 0.38436608E+00 0.65023173E+03</pdfrwt>
<pdfrwt beam="2">0</pdfrwt>
<totfact> 0.15696296E+00</totfact>
</mgrwt>
</event>
<event>
 6    1  0.2108260E-003  0.6647348E+03  0.7818608E-02  0.9779517E-01
          1   -1    0    0  502    0  0.00000000000E+00  0.00000000000E+00  0.11047289641E+03  0.11047289641E+03  0.00000000000E+00 0.  1.
         13   -1    0    0    0    0 -0.00000000000E+00 -0.00000000000E+00 -0.10000000000E+04  0.10000000000E+04  0.00000000000E+00 0.  1.
    9000005    2    1    2  501    0  0.37981574059E-03 -0.48809751439E-03 -0.88953190142E+03  0.11104680589E+04  0.66473476375E+03 0.  0.
         13    1    3    3    0    0  0.30177966320E+02 -0.31888033004E+03 -0.29654035336E+03  0.43649920471E+03  0.00000000000E+00 0.  1.
          1    1    3    3  501    0 -0.30177586504E+02  0.31887984194E+03 -0.59299154806E+03  0.67396885417E+03  0.00000000000E+00 0.  1.
         21    1    1    2  502  501 -0.37981574059E-03  0.48809751441E-03  0.47978302186E-02  0.48375276730E-02  0.00000000000E+00 0. -1.
<mgrwt>
<rscale>  1 0.66473476E+03</rscale>
<asrwt>0</asrwt>
<pdfrwt beam="1">  1        1 0.40172047E+00 0.66473476E+03</pdfrwt>
<pdfrwt beam="2">0</pdfrwt>
<totfact> 0.13107888E+00</totfact>
</mgrwt>
</event>
<event>
 6    1  0.2108260E-003  0.6385588E+03  0.7818608E-02  0.9828488E-01
          1   -1    0    0  502    0  0.00000000000E+00  0.00000000000E+00  0.10195052025E+03  0.10195052025E+03  0.00000000000E+00 0.  1.
         13   -1    0    0    0    0 -0.00000000000E+00 -0.00000000000E+00 -0.10000000000E+04  0.10000000000E+04  0.00000000000E+00 0.  1.
    9000005    2    1    2  501    0  0.21077347787E-01 -0.26207431595E-01 -0.89798313509E+03  0.11018761381E+04  0.63855877706E+03 0.  0.
         13    1    3    3    0    0 -0.27554211247E+03 -0.88174972453E+02 -0.68201563788E+03  0.74083980173E+03  0.00000000000E+00 0.  1.
          1    1    3    3  501    0  0.27556318981E+03  0.88148765022E+02 -0.21596749720E+03  0.36103633640E+03  0.00000000000E+00 0.  1.
         21    1    1    2  502  501 -0.21077347787E-01  0.26207431595E-01 -0.66344667682E-01  0.74382114721E-01  0.00000000000E+00 0.  1.
<mgrwt>
<rscale>  1 0.63855878E+03</rscale>
<asrwt>0</asrwt>
<pdfrwt beam="1">  1        1 0.37072995E+00 0.63855878E+03</pdfrwt>
<pdfrwt beam="2">0</pdfrwt>
<totfact> 0.18064433E+00</totfact>
</mgrwt>
</event>
<event>
 6    1  0.2108260E-003  0.6556827E+03  0.7818608E-02  0.9796174E-01
          1   -1    0    0  502    0  0.00000000000E+00  0.00000000000E+00  0.10753411096E+03  0.10753411096E+03  0.00000000000E+00 0.  1.
         13   -1    0    0    0    0 -0.00000000000E+00 -0.00000000000E+00 -0.10000000000E+04  0.10000000000E+04  0.00000000000E+00 0.  1.
    9000005    2    1    2  501    0  0.23878480988E-02 -0.17237900977E-04 -0.89252002792E+03  0.11074799194E+04  0.65568267609E+03 0.  0.
         13    1    3    3    0    0 -0.63567063901E+02 -0.19056655642E+03 -0.88386156453E+03  0.90640369002E+03  0.00000000000E+00 0.  1.
          3    1    3    3  501    0  0.63569451750E+02  0.19056653918E+03 -0.86584633895E+01  0.20107622942E+03  0.00000000000E+00 0.  1.
         21    1    1    2  502  501 -0.23878480988E-02  0.17237900976E-04  0.54138876153E-01  0.54191512498E-01  0.00000000000E+00 0. -1.
<mgrwt>
<rscale>  1 0.65568268E+03</rscale>
<asrwt>0</asrwt>
<pdfrwt beam="1">  1        1 0.39103396E+00 0.65568268E+03</pdfrwt>
<pdfrwt beam="2">0</pdfrwt>
<totfact> 0.14649542E+00</totfact>
</mgrwt>
</event>
<event>
 6    1  0.2108260E-003  0.6495677E+03  0.7818608E-02  0.9807591E-01
          1   -1    0    0  502    0  0.00000000000E+00  0.00000000000E+00  0.10548456262E+03  0.10548456262E+03  0.00000000000E+00 0.  1.
         13   -1    0    0    0    0 -0.00000000000E+00 -0.00000000000E+00 -0.10000000000E+04  0.10000000000E+04  0.00000000000E+00 0.  1.
    9000005    2    1    2  501    0 -0.55913448023E-05 -0.27881873024E-05 -0.89451545094E+03  0.11054845477E+04  0.64956769719E+03 0.  0.
         13    1    3    3    0    0  0.25316801882E+03  0.10066968044E+03 -0.14637602889E+03  0.30928041023E+03  0.00000000000E+00 0.  1.
          1    1    3    3  501    0 -0.25316802441E+03 -0.10066968323E+03 -0.74813942204E+03  0.79620413747E+03  0.00000000000E+00 0.  1.
         21    1    1    2  502  501  0.55913448008E-05  0.27881872981E-05  0.13559145854E-04  0.14929419325E-04  0.00000000000E+00 0.  1.
<mgrwt>
<rscale>  1 0.64956770E+03</rscale>
<asrwt>0</asrwt>
<pdfrwt beam="1">  1        1 0.38358104E+00 0.64956770E+03</pdfrwt>
<pdfrwt beam="2">0</pdfrwt>
<totfact> 0.15824173E+00</totfact>
</mgrwt>
</event>
<event>
 6    1  0.2108260E-003  0.6507316E+03  0.7818608E-02  0.9805407E-01
          1   -1    0    0  502    0  0.00000000000E+00  0.00000000000E+00  0.10729114297E+03  0.10729114297E+03  0.00000000000E+00 0.  1.
         13   -1    0    0    0    0 -0.00000000000E+00 -0.00000000000E+00 -0.10000000000E+04  0.10000000000E+04  0.00000000000E+00 0.  1.
    9000005    2    1    2  501    0  0.18312083540E-02 -0.34508107168E-01 -0.89413685860E+03  0.11058627233E+04  0.65073161885E+03 0.  0.
         13    1    3    3    0    0 -0.31148280082E+03  0.27029277816E+02 -0.29403027435E+03  0.42919217059E+03  0.00000000000E+00 0.  1.
          3    1    3    3  501    0  0.31148463202E+03 -0.27063785923E+02 -0.60010658425E+03  0.67667055275E+03  0.00000000000E+00 0.  1.
         21    1    1    2  502  501 -0.18312083540E-02  0.34508107168E-01  0.14280015673E+01  0.14284196299E+01  0.00000000000E+00 0.  1.
<mgrwt>
<rscale>  1 0.65073162E+03</rscale>
<asrwt>0</asrwt>
<pdfrwt beam="1">  1        1 0.39015043E+00 0.65073162E+03</pdfrwt>
<pdfrwt beam="2">0</pdfrwt>
<totfact> 0.14795961E+00</totfact>
</mgrwt>
</event>
<event>
 6    1  0.2108260E-003  0.6485393E+03  0.7818608E-02  0.9809524E-01
          1   -1    0    0  502    0  0.00000000000E+00  0.00000000000E+00  0.10515165116E+03  0.10515165116E+03  0.00000000000E+00 0.  1.
         13   -1    0    0    0    0 -0.00000000000E+00 -0.00000000000E+00 -0.10000000000E+04  0.10000000000E+04  0.00000000000E+00 0.  1.
    9000005    2    1    2  501    0  0.66443117325E-03  0.44509687569E-04 -0.89484904092E+03  0.11051506907E+04  0.64853931507E+03 0.  0.
         13    1    3    3    0    0  0.20538601679E+03 -0.19077477539E+03 -0.16964447919E+03  0.32765481858E+03  0.00000000000E+00 0.  1.
          3    1    3    3  501    0 -0.20538535236E+03  0.19077481990E+03 -0.72520456172E+03  0.77749587215E+03  0.00000000000E+00 0.  1.
         21    1    1    2  502  501 -0.66443117327E-03 -0.44509687560E-04  0.69207407788E-03  0.96042512752E-03  0.00000000000E+00 0. -1.
<mgrwt>
<rscale>  1 0.64853932E+03</rscale>
<asrwt>0</asrwt>
<pdfrwt beam="1">  1        1 0.38237045E+00 0.64853932E+03</pdfrwt>
<pdfrwt beam="2">0</pdfrwt>
<totfact> 0.16023324E+00</totfact>
</mgrwt>
</event>
<event>
 6    1  0.2108260E-003  0.6525416E+03  0.7818608E-02  0.9802022E-01
          1   -1    0    0  502    0  0.00000000000E+00  0.00000000000E+00  0.10672646687E+03  0.10672646687E+03  0.00000000000E+00 0.  1.
         13   -1    0    0    0    0 -0.00000000000E+00 -0.00000000000E+00 -0.10000000000E+04  0.10000000000E+04  0.00000000000E+00 0.  1.
    9000005    2    1    2  501    0 -0.84893976556E-01  0.73751078174E-02 -0.89354001688E+03  0.11064466902E+04  0.65254157668E+03 0.  0.
         13    1    3    3    0    0 -0.17908378285E+03 -0.26695732941E+03 -0.35195585566E+03  0.47666564942E+03  0.00000000000E+00 0.  1.
          3    1    3    3  501    0  0.17899888887E+03  0.26696470452E+03 -0.54158416122E+03  0.62978104081E+03  0.00000000000E+00 0.  1.
         21    1    1    2  502  501  0.84893976556E-01 -0.73751078175E-02  0.26648374397E+00  0.27977663460E+00  0.00000000000E+00 0. -1.
<mgrwt>
<rscale>  1 0.65254158E+03</rscale>
<asrwt>0</asrwt>
<pdfrwt beam="1">  1        1 0.38809706E+00 0.65254158E+03</pdfrwt>
<pdfrwt beam="2">0</pdfrwt>
<totfact> 0.15104221E+00</totfact>
</mgrwt>
</event>
<event>
 6    1  0.2108260E-003  0.6476833E+03  0.7818608E-02  0.9811136E-01
          1   -1    0    0  502    0  0.00000000000E+00  0.00000000000E+00  0.10488040276E+03  0.10488040276E+03  0.00000000000E+00 0.  1.
         13   -1    0    0    0    0 -0.00000000000E+00 -0.00000000000E+00 -0.10000000000E+04  0.10000000000E+04  0.00000000000E+00 0.  1.
    9000005    2    1    2  501    0 -0.10534819700E-03  0.19130996822E-03 -0.89512656888E+03  0.11048734277E+04  0.64768334620E+03 0.  0.
         13    1    3    3    0    0 -0.13177252190E+03  0.29566854708E+03 -0.46371199887E+03  0.56551985390E+03  0.00000000000E+00 0.  1.
          1    1    3    3  501    0  0.13177241655E+03 -0.29566835577E+03 -0.43141457001E+03  0.53935357381E+03  0.00000000000E+00 0.  1.
         21    1    1    2  502  501  0.10534819699E-03 -0.19130996821E-03  0.69716313225E-02  0.69750513291E-02  0.00000000000E+00 0.  1.
<mgrwt>
<rscale>  1 0.64768335E+03</rscale>
<asrwt>0</asrwt>
<pdfrwt beam="1">  1        1 0.38138409E+00 0.64768335E+03</pdfrwt>
<pdfrwt beam="2">0</pdfrwt>
<totfact> 0.16187401E+00</totfact>
</mgrwt>
</event>
<event>
 6    1  0.2108260E-003  0.6464139E+03  0.7818608E-02  0.9813532E-01
          1   -1    0    0  502    0  0.00000000000E+00  0.00000000000E+00  0.10451053517E+03  0.10451053517E+03  0.00000000000E+00 0.  1.
         13   -1    0    0    0    0 -0.00000000000E+00 -0.00000000000E+00 -0.10000000000E+04  0.10000000000E+04  0.00000000000E+00 0.  1.
    9000005    2    1    2  501    0  0.56582035542E-01  0.48570362769E-01 -0.89550277888E+03  0.11044347864E+04  0.64641392694E+03 0.  0.
         13    1    3    3    0    0 -0.69052459188E+02  0.22666507287E+03 -0.72177266401E+02  0.24769912225E+03  0.00000000000E+00 0.  1.
          3    1    3    3  501    0  0.69109041224E+02 -0.22661650250E+03 -0.82332551248E+03  0.85673566418E+03  0.00000000000E+00 0.  1.
         21    1    1    2  502  501 -0.56582035542E-01 -0.48570362769E-01  0.13314047581E-01  0.75748734304E-01  0.00000000000E+00 0. -1.
<mgrwt>
<rscale>  1 0.64641393E+03</rscale>
<asrwt>0</asrwt>
<pdfrwt beam="1">  1        1 0.38003911E+00 0.64641393E+03</pdfrwt>
<pdfrwt beam="2">0</pdfrwt>
<totfact> 0.16414020E+00</totfact>
</mgrwt>
</event>
<event>
 6    1  0.2108260E-003  0.6626178E+03  0.7818608E-02  0.9783387E-01
          1   -1    0    0  502    0  0.00000000000E+00  0.00000000000E+00  0.11314950448E+03  0.11314950448E+03  0.00000000000E+00 0.  1.
         13   -1    0    0    0    0 -0.00000000000E+00 -0.00000000000E+00 -0.10000000000E+04  0.10000000000E+04  0.00000000000E+00 0.  1.
    9000005    2    1    2  501    0  0.27741492086E+01  0.18435299191E+01 -0.88929914351E+03  0.11090154528E+04  0.66260939729E+03 0.  0.
         13    1    3    3    0    0 -0.90407708828E+02 -0.30364801625E+03 -0.59798480149E+03  0.67672852341E+03  0.00000000000E+00 0.  1.
          3    1    3    3  501    0  0.93181858037E+02  0.30549154617E+03 -0.29131434202E+03  0.43228692938E+03  0.00000000000E+00 0.  1.
         21    1    1    2  502  501 -0.27741492086E+01 -0.18435299191E+01  0.24486479843E+01  0.41340516863E+01  0.00000000000E+00 0.  1.
<mgrwt>
<rscale>  1 0.66261777E+03</rscale>
<asrwt>0</asrwt>
<pdfrwt beam="1">  1        1 0.41145361E+00 0.66261777E+03</pdfrwt>
<pdfrwt beam="2">0</pdfrwt>
<totfact> 0.11861559E+00</totfact>
</mgrwt>
</event>
<event>
 6    1  0.2108260E-003  0.6409151E+03  0.7818608E-02  0.9823977E-01
          1   -1    0    0  502    0  0.00000000000E+00  0.00000000000E+00  0.10280028817E+03  0.10280028817E+03  0.00000000000E+00 0.  1.
         13   -1    0    0    0    0 -0.00000000000E+00 -0.00000000000E+00 -0.10000000000E+04  0.10000000000E+04  0.00000000000E+00 0.  1.
    9000005    2    1    2  501    0  0.10516219850E-02  0.14903914370E-02 -0.89730694145E+03  0.11026930430E+04  0.64091512699E+03 0.  0.
         13    1    3    3    0    0 -0.23024186938E+03 -0.21169611116E+03 -0.56866767609E+03  0.64900653905E+03  0.00000000000E+00 0.  1.
          3    1    3    3  501    0  0.23024292100E+03  0.21169760155E+03 -0.32863926536E+03  0.45368650399E+03  0.00000000000E+00 0.  1.
         21    1    1    2  502  501 -0.10516219850E-02 -0.14903914370E-02  0.10722961273E+00  0.10724512587E+00  0.00000000000E+00 0. -1.
<mgrwt>
<rscale>  1 0.64091513E+03</rscale>
<asrwt>0</asrwt>
<pdfrwt beam="1">  1        1 0.37382002E+00 0.64091513E+03</pdfrwt>
<pdfrwt beam="2">0</pdfrwt>
<totfact> 0.17500587E+00</totfact>
</mgrwt>
</event>
<event>
 6    1  0.2108260E-003  0.6538247E+03  0.7818608E-02  0.9799629E-01
          1   -1    0    0  502    0  0.00000000000E+00  0.00000000000E+00  0.10687371113E+03  0.10687371113E+03  0.00000000000E+00 0.  1.
         13   -1    0    0    0    0 -0.00000000000E+00 -0.00000000000E+00 -0.10000000000E+04  0.10000000000E+04  0.00000000000E+00 0.  1.
    9000005    2    1    2  501    0 -0.22645728246E-02 -0.39579286208E-02 -0.89312494556E+03  0.11068689574E+04  0.65382468632E+03 0.  0.
         13    1    3    3    0    0  0.28716666926E+03 -0.13718735741E+03 -0.32002889428E+03  0.45133530788E+03  0.00000000000E+00 0.  1.
          1    1    3    3  501    0 -0.28716893383E+03  0.13718339948E+03 -0.57309605128E+03  0.65553364951E+03  0.00000000000E+00 0.  1.
         21    1    1    2  502  501  0.22645728246E-02  0.39579286208E-02 -0.13433126537E-02  0.47537330521E-02  0.00000000000E+00 0. -1.
<mgrwt>
<rscale>  1 0.65382469E+03</rscale>
<asrwt>0</asrwt>
<pdfrwt beam="1">  1        1 0.38863250E+00 0.65382469E+03</pdfrwt>
<pdfrwt beam="2">0</pdfrwt>
<totfact> 0.15018365E+00</totfact>
</mgrwt>
</event>
<event>
 6    1  0.2108260E-003  0.6299129E+03  0.7818608E-02  0.9845219E-01
          1   -1    0    0  502    0  0.00000000000E+00  0.00000000000E+00  0.99199757781E+02  0.99199757781E+02  0.00000000000E+00 0.  1.
         13   -1    0    0    0    0 -0.00000000000E+00 -0.00000000000E+00 -0.10000000000E+04  0.10000000000E+04  0.00000000000E+00 0.  1.
    9000005    2    1    2  501    0  0.10754125083E-02 -0.11207447627E-02 -0.90080211670E+03  0.10991973234E+04  0.62991293231E+03 0.  0.
         13    1    3    3    0    0  0.84591135065E+02  0.30105294229E+03 -0.51589714018E+03  0.60327306706E+03  0.00000000000E+00 0.  1.
          3    1    3    3  501    0 -0.84590059653E+02 -0.30105406304E+03 -0.38490497652E+03  0.49592425633E+03  0.00000000000E+00 0.  1.
         21    1    1    2  502  501 -0.10754125083E-02  0.11207447627E-02  0.18744823944E-02  0.24343921486E-02  0.00000000000E+00 0. -1.
<mgrwt>
<rscale>  1 0.62991293E+03</rscale>
<asrwt>0</asrwt>
<pdfrwt beam="1">  1        1 0.36072715E+00 0.62991293E+03</pdfrwt>
<pdfrwt beam="2">0</pdfrwt>
<totfact> 0.20015014E+00</totfact>
</mgrwt>
</event>
<event>
 6    1  0.2108260E-003  0.6438109E+03  0.7818608E-02  0.9818462E-01
          1   -1    0    0  502    0  0.00000000000E+00  0.00000000000E+00  0.10465085255E+03  0.10465085255E+03  0.00000000000E+00 0.  1.
         13   -1    0    0    0    0 -0.00000000000E+00 -0.00000000000E+00 -0.10000000000E+04  0.10000000000E+04  0.00000000000E+00 0.  1.
    9000005    2    1    2  501    0 -0.21922216519E+00  0.62808576457E+00 -0.89625676698E+03  0.11035255422E+04  0.64381052140E+03 0.  0.
         13    1    3    3    0    0 -0.14733858234E+03 -0.25786320815E+03 -0.23589212751E+03  0.37927191800E+03  0.00000000000E+00 0.  1.
          1    1    3    3  501    0  0.14711936017E+03  0.25849129391E+03 -0.66036463947E+03  0.72425362424E+03  0.00000000000E+00 0.  1.
         21    1    1    2  502  501  0.21922216519E+00 -0.62808576457E+00  0.90761952536E+00  0.11253103075E+01  0.00000000000E+00 0.  1.
<mgrwt>
<rscale>  1 0.64381087E+03</rscale>
<asrwt>0</asrwt>
<pdfrwt beam="1">  1        1 0.38054936E+00 0.64381087E+03</pdfrwt>
<pdfrwt beam="2">0</pdfrwt>
<totfact> 0.16336976E+00</totfact>
</mgrwt>
</event>
<event>
 6    1  0.2108260E-003  0.6562517E+03  0.7818608E-02  0.9795119E-01
          1   -1    0    0  502    0  0.00000000000E+00  0.00000000000E+00  0.10766664391E+03  0.10766664391E+03  0.00000000000E+00 0.  1.
         13   -1    0    0    0    0 -0.00000000000E+00 -0.00000000000E+00 -0.10000000000E+04  0.10000000000E+04  0.00000000000E+00 0.  1.
    9000005    2    1    2  501    0  0.51545282560E-04 -0.13399583906E-04 -0.89233341733E+03  0.11076665628E+04  0.65625169452E+03 0.  0.
         13    1    3    3    0    0  0.23154250733E+03  0.13951509351E+03 -0.13224956185E+03  0.30094242079E+03  0.00000000000E+00 0.  1.
          1    1    3    3  501    0 -0.23154245578E+03 -0.13951510691E+03 -0.76008385547E+03  0.80672414197E+03  0.00000000000E+00 0.  1.
         21    1    1    2  502  501 -0.51545282537E-04  0.13399583915E-04  0.61239709265E-04  0.81158899646E-04  0.00000000000E+00 0. -1.
<mgrwt>
<rscale>  1 0.65625169E+03</rscale>
<asrwt>0</asrwt>
<pdfrwt beam="1">  1        1 0.39151589E+00 0.65625169E+03</pdfrwt>
<pdfrwt beam="2">0</pdfrwt>
<totfact> 0.14576035E+00</totfact>
</mgrwt>
</event>
<event>
 6    1  0.2108260E-003  0.6484704E+03  0.7818608E-02  0.9809654E-01
          3   -1    0    0  502    0  0.00000000000E+00  0.00000000000E+00  0.12811575851E+03  0.12811575851E+03  0.00000000000E+00 0.  1.
         13   -1    0    0    0    0 -0.00000000000E+00 -0.00000000000E+00 -0.10000000000E+04  0.10000000000E+04  0.00000000000E+00 0.  1.
    9000005    2    1    2  501    0  0.76347110615E+00 -0.88438113918E+00 -0.89485513612E+03  0.11051151712E+04  0.64846932223E+03 0.  0.
         13    1    3    3    0    0  0.21373712156E+03  0.23375641572E+03 -0.32977399291E+03  0.45724884409E+03  0.00000000000E+00 0.  1.
          3    1    3    3  501    0 -0.21297365045E+03 -0.23464079686E+03 -0.56508114321E+03  0.64786632707E+03  0.00000000000E+00 0.  1.
         21    1    1    2  502  501 -0.76347110615E+00  0.88438113918E+00  0.22970894634E+02  0.23000587349E+02  0.00000000000E+00 0.  1.
<mgrwt>
<rscale>  1 0.64847037E+03</rscale>
<asrwt>0</asrwt>
<pdfrwt beam="1">  1        3 0.46587647E+00 0.64847037E+03</pdfrwt>
<pdfrwt beam="2">0</pdfrwt>
<totfact> 0.27204196E-02</totfact>
</mgrwt>
</event>
<event>
 6    1  0.2108260E-003  0.6566854E+03  0.7818608E-02  0.9794315E-01
          1   -1    0    0  502    0  0.00000000000E+00  0.00000000000E+00  0.10796482627E+03  0.10796482627E+03  0.00000000000E+00 0.  1.
         13   -1    0    0    0    0 -0.00000000000E+00 -0.00000000000E+00 -0.10000000000E+04  0.10000000000E+04  0.00000000000E+00 0.  1.
    9000005    2    1    2  501    0  0.17963984030E-01 -0.36351784886E-01 -0.89218815439E+03  0.11078065631E+04  0.65668537119E+03 0.  0.
         13    1    3    3    0    0 -0.21839081056E+03 -0.20442797726E+03 -0.67447880684E+03  0.73783941674E+03  0.00000000000E+00 0.  1.
          1    1    3    3  501    0  0.21840877454E+03  0.20439162547E+03 -0.21770934755E+03  0.36996714634E+03  0.00000000000E+00 0.  1.
         21    1    1    2  502  501 -0.17963984030E-01  0.36351784886E-01  0.15298065870E+00  0.15826319510E+00  0.00000000000E+00 0.  1.
<mgrwt>
<rscale>  1 0.65668537E+03</rscale>
<asrwt>0</asrwt>
<pdfrwt beam="1">  1        1 0.39260020E+00 0.65668537E+03</pdfrwt>
<pdfrwt beam="2">0</pdfrwt>
<totfact> 0.14414198E+00</totfact>
</mgrwt>
</event>
<event>
 6    1  0.2108260E-003  0.6437149E+03  0.7818608E-02  0.9818645E-01
          1   -1    0    0  502    0  0.00000000000E+00  0.00000000000E+00  0.10359329157E+03  0.10359329157E+03  0.00000000000E+00 0.  1.
         13   -1    0    0    0    0 -0.00000000000E+00 -0.00000000000E+00 -0.10000000000E+04  0.10000000000E+04  0.00000000000E+00 0.  1.
    9000005    2    1    2  501    0 -0.74597408886E-03 -0.11495040890E-02 -0.89640726977E+03  0.11035918107E+04  0.64371491468E+03 0.  0.
         13    1    3    3    0    0  0.13087010347E+03 -0.86989730626E+02  0.33353660914E+02  0.16064452656E+03  0.00000000000E+00 0.  1.
          3    1    3    3  501    0 -0.13087084944E+03  0.86988581122E+02 -0.92976093068E+03  0.94294728416E+03  0.00000000000E+00 0.  1.
         21    1    1    2  502  501  0.74597408886E-03  0.11495040890E-02  0.56133639238E-03  0.14808563527E-02  0.00000000000E+00 0. -1.
<mgrwt>
<rscale>  1 0.64371491E+03</rscale>
<asrwt>0</asrwt>
<pdfrwt beam="1">  1        1 0.37670367E+00 0.64371491E+03</pdfrwt>
<pdfrwt beam="2">0</pdfrwt>
<totfact> 0.16987727E+00</totfact>
</mgrwt>
</event>
<event>
 6    1  0.2108260E-003  0.6516381E+03  0.7818608E-02  0.9803710E-01
          1   -1    0    0  502    0  0.00000000000E+00  0.00000000000E+00  0.10615807019E+03  0.10615807019E+03  0.00000000000E+00 0.  1.
         13   -1    0    0    0    0 -0.00000000000E+00 -0.00000000000E+00 -0.10000000000E+04  0.10000000000E+04  0.00000000000E+00 0.  1.
    9000005    2    1    2  501    0 -0.64624985328E-05 -0.21085001521E-04 -0.89384188064E+03  0.11061580163E+04  0.65163812768E+03 0.  0.
         13    1    3    3    0    0 -0.25398716165E+03 -0.20404821598E+03 -0.44082042158E+03  0.54814942927E+03  0.00000000000E+00 0.  1.
          3    1    3    3  501    0  0.25398715519E+03  0.20404819489E+03 -0.45302145906E+03  0.55800858704E+03  0.00000000000E+00 0.  1.
         21    1    1    2  502  501  0.64624985374E-05  0.21085001531E-04 -0.49171825820E-04  0.53890719344E-04  0.00000000000E+00 0.  1.
<mgrwt>
<rscale>  1 0.65163813E+03</rscale>
<asrwt>0</asrwt>
<pdfrwt beam="1">  1        1 0.38603016E+00 0.65163813E+03</pdfrwt>
<pdfrwt beam="2">0</pdfrwt>
<totfact> 0.15428475E+00</totfact>
</mgrwt>
</event>
<event>
 6    1  0.2108260E-003  0.6456954E+03  0.7818608E-02  0.9814890E-01
          1   -1    0    0  502    0  0.00000000000E+00  0.00000000000E+00  0.10423067178E+03  0.10423067178E+03  0.00000000000E+00 0.  1.
         13   -1    0    0    0    0 -0.00000000000E+00 -0.00000000000E+00 -0.10000000000E+04  0.10000000000E+04  0.00000000000E+00 0.  1.
    9000005    2    1    2  501    0  0.42983519393E-05 -0.52457440063E-05 -0.89576934870E+03  0.11042306502E+04  0.64569544121E+03 0.  0.
         13    1    3    3    0    0 -0.22248035956E+03  0.59468168894E+02 -0.60936356777E+02  0.23821673552E+03  0.00000000000E+00 0.  1.
          3    1    3    3  501    0  0.22248036386E+03 -0.59468174140E+02 -0.83483299192E+03  0.86601391469E+03  0.00000000000E+00 0.  1.
         21    1    1    2  502  501 -0.42983519245E-05  0.52457440114E-05  0.20481727863E-04  0.21575329331E-04  0.00000000000E+00 0. -1.
<mgrwt>
<rscale>  1 0.64569544E+03</rscale>
<asrwt>0</asrwt>
<pdfrwt beam="1">  1        1 0.37902142E+00 0.64569544E+03</pdfrwt>
<pdfrwt beam="2">0</pdfrwt>
<totfact> 0.16586759E+00</totfact>
</mgrwt>
</event>
<event>
 6    1  0.2108260E-003  0.6507869E+03  0.7818608E-02  0.9805304E-01
          1   -1    0    0  502    0  0.00000000000E+00  0.00000000000E+00  0.10875138428E+03  0.10875138428E+03  0.00000000000E+00 0.  1.
         13   -1    0    0    0    0 -0.00000000000E+00 -0.00000000000E+00 -0.10000000000E+04  0.10000000000E+04  0.00000000000E+00 0.  1.
    9000005    2    1    2  501    0 -0.53591339474E+00 -0.53977300353E+00 -0.89406327181E+03  0.11058357631E+04  0.65078646448E+03 0.  0.
         13    1    3    3    0    0  0.18060391724E+02 -0.21667988248E+03 -0.35526402739E+02  0.22031449002E+03  0.00000000000E+00 0.  1.
          3    1    3    3  501    0 -0.18596305119E+02  0.21614010948E+03 -0.85853686907E+03  0.88552127306E+03  0.00000000000E+00 0.  1.
         21    1    1    2  502  501  0.53591339474E+00  0.53977300353E+00  0.28146560868E+01  0.29156211944E+01  0.00000000000E+00 0.  1.
<mgrwt>
<rscale>  1 0.65078691E+03</rscale>
<asrwt>0</asrwt>
<pdfrwt beam="1">  1        1 0.39546041E+00 0.65078691E+03</pdfrwt>
<pdfrwt beam="2">0</pdfrwt>
<totfact> 0.14013927E+00</totfact>
</mgrwt>
</event>
<event>
 6    1  0.2108260E-003  0.6419823E+03  0.7818608E-02  0.9821941E-01
          1   -1    0    0  502    0  0.00000000000E+00  0.00000000000E+00  0.10309106635E+03  0.10309106635E+03  0.00000000000E+00 0.  1.
         13   -1    0    0    0    0 -0.00000000000E+00 -0.00000000000E+00 -0.10000000000E+04  0.10000000000E+04  0.00000000000E+00 0.  1.
    9000005    2    1    2  501    0 -0.15158487002E-02  0.87614679825E-03 -0.89696465063E+03  0.11030353219E+04  0.64198234930E+03 0.  0.
         13    1    3    3    0    0  0.86064893450E+02  0.26636502750E+03 -0.17857140670E+03  0.33203198799E+03  0.00000000000E+00 0.  1.
          3    1    3    3  501    0 -0.86066409298E+02 -0.26636415135E+03 -0.71839324392E+03  0.77100333388E+03  0.00000000000E+00 0.  1.
         21    1    1    2  502  501  0.15158487002E-02 -0.87614679825E-03  0.55716979021E-01  0.55744481177E-01  0.00000000000E+00 0.  1.
<mgrwt>
<rscale>  1 0.64198235E+03</rscale>
<asrwt>0</asrwt>
<pdfrwt beam="1">  1        1 0.37487740E+00 0.64198235E+03</pdfrwt>
<pdfrwt beam="2">0</pdfrwt>
<totfact> 0.17310710E+00</totfact>
</mgrwt>
</event>
<event>
 6    1  0.2108260E-003  0.6672036E+03  0.7818608E-02  0.9775023E-01
          1   -1    0    0  502    0  0.00000000000E+00  0.00000000000E+00  0.11129223408E+03  0.11129223408E+03  0.00000000000E+00 0.  1.
         13   -1    0    0    0    0 -0.00000000000E+00 -0.00000000000E+00 -0.10000000000E+04  0.10000000000E+04  0.00000000000E+00 0.  1.
    9000005    2    1    2  501    0  0.17002957182E-02  0.27762559635E-02 -0.88870832924E+03  0.11112889302E+04  0.66720356100E+03 0.  0.
         13    1    3    3    0    0 -0.90118633485E+02  0.28601940869E+03 -0.20091494696E+03  0.36096438351E+03  0.00000000000E+00 0.  1.
          1    1    3    3  501    0  0.90120333780E+02 -0.28601663243E+03 -0.68779338228E+03  0.75032454665E+03  0.00000000000E+00 0.  1.
         21    1    1    2  502  501 -0.17002957182E-02 -0.27762559635E-02  0.56332951569E-03  0.33039283962E-02  0.00000000000E+00 0. -1.
<mgrwt>
<rscale>  1 0.66720356E+03</rscale>
<asrwt>0</asrwt>
<pdfrwt beam="1">  1        1 0.40469989E+00 0.66720356E+03</pdfrwt>
<pdfrwt beam="2">0</pdfrwt>
<totfact> 0.12706343E+00</totfact>
</mgrwt>
</event>
<event>
 6    1  0.2108260E-003  0.6418335E+03  0.7818608E-02  0.9822225E-01
          1   -1    0    0  502    0  0.00000000000E+00  0.00000000000E+00  0.10298787439E+03  0.10298787439E+03  0.00000000000E+00 0.  1.
         13   -1    0    0    0    0 -0.00000000000E+00 -0.00000000000E+00 -0.10000000000E+04  0.10000000000E+04  0.00000000000E+00 0.  1.
    9000005    2    1    2  501    0  0.42273513918E-03 -0.27118073119E-03 -0.89701217568E+03  0.11029873697E+04  0.64183354097E+03 0.  0.
         13    1    3    3    0    0  0.28131474372E+03  0.95284446985E+02 -0.65736209484E+03  0.72134737444E+03  0.00000000000E+00 0.  1.
          3    1    3    3  501    0 -0.28131432099E+03 -0.95284718165E+02 -0.23965008084E+03  0.38163999523E+03  0.00000000000E+00 0.  1.
         21    1    1    2  502  501 -0.42273513917E-03  0.27118073119E-03  0.50075658183E-04  0.50472919313E-03  0.00000000000E+00 0.  1.
<mgrwt>
<rscale>  1 0.64183354E+03</rscale>
<asrwt>0</asrwt>
<pdfrwt beam="1">  1        1 0.37450215E+00 0.64183354E+03</pdfrwt>
<pdfrwt beam="2">0</pdfrwt>
<totfact> 0.17377137E+00</totfact>
</mgrwt>
</event>
<event>
 6    1  0.2108260E-003  0.5358527E+03  0.7818608E-02  0.1004823E+00
          1   -1    0    0  502    0  0.00000000000E+00  0.00000000000E+00  0.71953381008E+02  0.71953381008E+02  0.00000000000E+00 0.  1.
         13   -1    0    0    0    0 -0.00000000000E+00 -0.00000000000E+00 -0.10000000000E+04  0.10000000000E+04  0.00000000000E+00 0.  1.
    9000005    2    1    2  501    0 -0.13135967944E-01 -0.93080399330E-02 -0.92821504843E+03  0.10717841839E+04  0.53585274136E+03 0.  0.
         13    1    3    3    0    0  0.15831217128E+03  0.17610480361E+03 -0.21343651018E+03  0.31879584268E+03  0.00000000000E+00 0.  1.
          3    1    3    3  501    0 -0.15832530725E+03 -0.17611411165E+03 -0.71477853825E+03  0.75298834120E+03  0.00000000000E+00 0.  1.
         21    1    1    2  502  501  0.13135967944E-01  0.93080399330E-02  0.16842943675E+00  0.16919712889E+00  0.00000000000E+00 0.  1.
<mgrwt>
<rscale>  1 0.53585274E+03</rscale>
<asrwt>0</asrwt>
<pdfrwt beam="1">  1        1 0.26164921E+00 0.53585274E+03</pdfrwt>
<pdfrwt beam="2">0</pdfrwt>
<totfact> 0.54638707E+00</totfact>
</mgrwt>
</event>
<event>
 6    1  0.2108260E-003  0.6504143E+03  0.7818608E-02  0.9806002E-01
          1   -1    0    0  502    0  0.00000000000E+00  0.00000000000E+00  0.10670571093E+03  0.10670571093E+03  0.00000000000E+00 0.  1.
         13   -1    0    0    0    0 -0.00000000000E+00 -0.00000000000E+00 -0.10000000000E+04  0.10000000000E+04  0.00000000000E+00 0.  1.
    9000005    2    1    2  501    0 -0.16439001547E+00  0.50584638193E+00 -0.89415694474E+03  0.11056922617E+04  0.65041406254E+03 0.  0.
         13    1    3    3    0    0  0.96250019113E+02 -0.19300092622E+03 -0.33450201704E+02  0.21824834408E+03  0.00000000000E+00 0.  1.
          1    1    3    3  501    0 -0.96414409128E+02  0.19350677260E+03 -0.86070674303E+03  0.88744391757E+03  0.00000000000E+00 0.  1.
         21    1    1    2  502  501  0.16439001547E+00 -0.50584638193E+00  0.86265566455E+00  0.10134492759E+01  0.00000000000E+00 0.  1.
<mgrwt>
<rscale>  1 0.65041428E+03</rscale>
<asrwt>0</asrwt>
<pdfrwt beam="1">  1        1 0.38802159E+00 0.65041428E+03</pdfrwt>
<pdfrwt beam="2">0</pdfrwt>
<totfact> 0.15121821E+00</totfact>
</mgrwt>
</event>
<event>
 6    1  0.2108260E-003  0.6690561E+03  0.7818608E-02  0.9771665E-01
          1   -1    0    0  502    0  0.00000000000E+00  0.00000000000E+00  0.12847543989E+03  0.12847543989E+03  0.00000000000E+00 0.  1.
         13   -1    0    0    0    0 -0.00000000000E+00 -0.00000000000E+00 -0.10000000000E+04  0.10000000000E+04  0.00000000000E+00 0.  1.
    9000005    2    1    2  501    0  0.34382711155E+01 -0.14598720232E+02 -0.88422407810E+03  0.11088229058E+04  0.66888793657E+03 0.  0.
         13    1    3    3    0    0 -0.17549373754E+03 -0.20264316839E+03 -0.10568487481E+03  0.28815204038E+03  0.00000000000E+00 0.  1.
          1    1    3    3  501    0  0.17893200865E+03  0.18804444816E+03 -0.77853920330E+03  0.82067086537E+03  0.00000000000E+00 0.  1.
         21    1    1    2  502  501 -0.34382711155E+01  0.14598720232E+02  0.12699517997E+02  0.19652534138E+02  0.00000000000E+00 0. -1.
<mgrwt>
<rscale>  1 0.66905606E+03</rscale>
<asrwt>0</asrwt>
<pdfrwt beam="1">  1        1 0.46718440E+00 0.66905606E+03</pdfrwt>
<pdfrwt beam="2">0</pdfrwt>
<totfact> 0.65865604E-01</totfact>
</mgrwt>
</event>
<event>
 6    1  0.2108260E-003  0.6561581E+03  0.7818608E-02  0.9795292E-01
          1   -1    0    0  502    0  0.00000000000E+00  0.00000000000E+00  0.12805807999E+03  0.12805807999E+03  0.00000000000E+00 0.  1.
         13   -1    0    0    0    0 -0.00000000000E+00 -0.00000000000E+00 -0.10000000000E+04  0.10000000000E+04  0.00000000000E+00 0.  1.
    9000005    2    1    2  501    0 -0.16925155615E+01 -0.10391671049E+01 -0.89231064783E+03  0.11075927544E+04  0.65615506777E+03 0.  0.
         13    1    3    3    0    0  0.23260800809E+03  0.21607099052E+03 -0.31170646131E+03  0.44492030342E+03  0.00000000000E+00 0.  1.
          3    1    3    3  501    0 -0.23430052365E+03 -0.21711015763E+03 -0.58060418652E+03  0.66267245101E+03  0.00000000000E+00 0.  1.
         21    1    1    2  502  501  0.16925155615E+01  0.10391671049E+01  0.20368727817E+02  0.20465325556E+02  0.00000000000E+00 0.  1.
<mgrwt>
<rscale>  1 0.65615807E+03</rscale>
<asrwt>0</asrwt>
<pdfrwt beam="1">  1        1 0.46566673E+00 0.65615807E+03</pdfrwt>
<pdfrwt beam="2">0</pdfrwt>
<totfact> 0.67131196E-01</totfact>
</mgrwt>
</event>
<event>
 6    1  0.2108260E-003  0.6707478E+03  0.7818608E-02  0.9768608E-01
          1   -1    0    0  502    0  0.00000000000E+00  0.00000000000E+00  0.11360420035E+03  0.11360420035E+03  0.00000000000E+00 0.  1.
         13   -1    0    0    0    0 -0.00000000000E+00 -0.00000000000E+00 -0.10000000000E+04  0.10000000000E+04  0.00000000000E+00 0.  1.
    9000005    2    1    2  501    0 -0.27032459713E-02  0.48999366433E-01 -0.88752376480E+03  0.11124751682E+04  0.67074776507E+03 0.  0.
         13    1    3    3    0    0  0.16881037471E+03  0.11831977444E+03 -0.88253736922E+03  0.90629394774E+03  0.00000000000E+00 0.  1.
          3    1    3    3  501    0 -0.16881307796E+03 -0.11827077507E+03 -0.49863955804E+01  0.20618122045E+03  0.00000000000E+00 0.  1.
         21    1    1    2  502  501  0.27032459713E-02 -0.48999366433E-01  0.11279651492E+01  0.11290321622E+01  0.00000000000E+00 0. -1.
<mgrwt>
<rscale>  1 0.67074777E+03</rscale>
<asrwt>0</asrwt>
<pdfrwt beam="1">  1        1 0.41310705E+00 0.67074777E+03</pdfrwt>
<pdfrwt beam="2">0</pdfrwt>
<totfact> 0.11642407E+00</totfact>
</mgrwt>
</event>
<event>
 6    1  0.2108260E-003  0.6501473E+03  0.7818608E-02  0.9806503E-01
          3   -1    0    0  502    0  0.00000000000E+00  0.00000000000E+00  0.10571052780E+03  0.10571052780E+03  0.00000000000E+00 0.  1.
         13   -1    0    0    0    0 -0.00000000000E+00 -0.00000000000E+00 -0.10000000000E+04  0.10000000000E+04  0.00000000000E+00 0.  1.
    9000005    2    1    2  501    0 -0.13389600893E-02  0.11754967146E-02 -0.89432708882E+03  0.11056728690E+04  0.65014733058E+03 0.  0.
         13    1    3    3    0    0  0.26324162013E+02 -0.44795517666E+02  0.98565567646E+02  0.11142159142E+03  0.00000000000E+00 0.  1.
          3    1    3    3  501    0 -0.26325500973E+02  0.44796693163E+02 -0.99289265647E+03  0.99425127759E+03  0.00000000000E+00 0.  1.
         21    1    1    2  502  501  0.13389600893E-02 -0.11754967146E-02  0.37616622455E-01  0.37658795673E-01  0.00000000000E+00 0. -1.
<mgrwt>
<rscale>  1 0.65014733E+03</rscale>
<asrwt>0</asrwt>
<pdfrwt beam="1">  1        3 0.38440273E+00 0.65014733E+03</pdfrwt>
<pdfrwt beam="2">0</pdfrwt>
<totfact> 0.71544985E-02</totfact>
</mgrwt>
</event>
<event>
 6    1  0.2108260E-003  0.6442359E+03  0.7818608E-02  0.9817656E-01
          1   -1    0    0  502    0  0.00000000000E+00  0.00000000000E+00  0.10375998156E+03  0.10375998156E+03  0.00000000000E+00 0.  1.
         13   -1    0    0    0    0 -0.00000000000E+00 -0.00000000000E+00 -0.10000000000E+04  0.10000000000E+04  0.00000000000E+00 0.  1.
    9000005    2    1    2  501    0 -0.12773421787E-04 -0.36604945763E-04 -0.89624001473E+03  0.11037599426E+04  0.64423586280E+03 0.  0.
         13    1    3    3    0    0 -0.13945929691E+03 -0.23315034836E+03 -0.74463224138E+03  0.79264440661E+03  0.00000000000E+00 0.  1.
          1    1    3    3  501    0  0.13945928413E+03  0.23315031175E+03 -0.15160777335E+03  0.31111553600E+03  0.00000000000E+00 0.  1.
         21    1    1    2  502  501  0.12773421791E-04  0.36604945755E-04 -0.37137515040E-05  0.38947070599E-04  0.00000000000E+00 0. -1.
<mgrwt>
<rscale>  1 0.64423586E+03</rscale>
<asrwt>0</asrwt>
<pdfrwt beam="1">  1        1 0.37730982E+00 0.64423586E+03</pdfrwt>
<pdfrwt beam="2">0</pdfrwt>
<totfact> 0.16881972E+00</totfact>
</mgrwt>
</event>
<event>
 6    1  0.2108260E-003  0.6482661E+03  0.7818608E-02  0.9810038E-01
          3   -1    0    0  502    0  0.00000000000E+00  0.00000000000E+00  0.10567708081E+03  0.10567708081E+03  0.00000000000E+00 0.  1.
         13   -1    0    0    0    0 -0.00000000000E+00 -0.00000000000E+00 -0.10000000000E+04  0.10000000000E+04  0.00000000000E+00 0.  1.
    9000005    2    1    2  501    0  0.77675323913E-01  0.20603429799E+00 -0.89491590773E+03  0.11050445312E+04  0.64826606078E+03 0.  0.
         13    1    3    3    0    0  0.31856604839E+03 -0.29681313180E+02 -0.35866874686E+03  0.48063351684E+03  0.00000000000E+00 0.  1.
          3    1    3    3  501    0 -0.31848837307E+03  0.29887347478E+02 -0.53624716087E+03  0.62441101437E+03  0.00000000000E+00 0.  1.
         21    1    1    2  502  501 -0.77675323913E-01 -0.20603429799E+00  0.59298853638E+00  0.63254959661E+00  0.00000000000E+00 0. -1.
<mgrwt>
<rscale>  1 0.64826610E+03</rscale>
<asrwt>0</asrwt>
<pdfrwt beam="1">  1        3 0.38428110E+00 0.64826610E+03</pdfrwt>
<pdfrwt beam="2">0</pdfrwt>
<totfact> 0.71673145E-02</totfact>
</mgrwt>
</event>
<event>
 6    1  0.2108260E-003  0.6562115E+03  0.7818608E-02  0.9795193E-01
          1   -1    0    0  502    0  0.00000000000E+00  0.00000000000E+00  0.10794592581E+03  0.10794592581E+03  0.00000000000E+00 0.  1.
         13   -1    0    0    0    0 -0.00000000000E+00 -0.00000000000E+00 -0.10000000000E+04  0.10000000000E+04  0.00000000000E+00 0.  1.
    9000005    2    1    2  501    0  0.26240956666E-01  0.51425394718E-02 -0.89234592687E+03  0.11076528507E+04  0.65621153889E+03 0.  0.
         13    1    3    3    0    0  0.16410203483E+03  0.30431122401E+02 -0.92301661758E+03  0.93798465199E+03  0.00000000000E+00 0.  1.
          1    1    3    3  501    0 -0.16407579387E+03 -0.30425979862E+02  0.30670690715E+02  0.16966819871E+03  0.00000000000E+00 0.  1.
         21    1    1    2  502  501 -0.26240956666E-01 -0.51425394718E-02  0.29185267372E+00  0.29307510416E+00  0.00000000000E+00 0.  1.
<mgrwt>
<rscale>  1 0.65621154E+03</rscale>
<asrwt>0</asrwt>
<pdfrwt beam="1">  1        1 0.39253147E+00 0.65621154E+03</pdfrwt>
<pdfrwt beam="2">0</pdfrwt>
<totfact> 0.14425603E+00</totfact>
</mgrwt>
</event>
<event>
 6    1  0.2108260E-003  0.6509474E+03  0.7818608E-02  0.9805003E-01
          1   -1    0    0  502    0  0.00000000000E+00  0.00000000000E+00  0.10594767285E+03  0.10594767285E+03  0.00000000000E+00 0.  1.
         13   -1    0    0    0    0 -0.00000000000E+00 -0.00000000000E+00 -0.10000000000E+04  0.10000000000E+04  0.00000000000E+00 0.  1.
    9000005    2    1    2  501    0 -0.14731695924E-02 -0.37183230458E-03 -0.89406684295E+03  0.11059330778E+04  0.65094735025E+03 0.  0.
         13    1    3    3    0    0  0.30496826146E+03 -0.68321979708E+02 -0.60143377887E+03  0.67778766865E+03  0.00000000000E+00 0.  1.
          1    1    3    3  501    0 -0.30496973463E+03  0.68321607875E+02 -0.29263306408E+03  0.42814540910E+03  0.00000000000E+00 0.  1.
         21    1    1    2  502  501  0.14731695924E-02  0.37183230458E-03  0.14515804235E-01  0.14595103990E-01  0.00000000000E+00 0.  1.
<mgrwt>
<rscale>  1 0.65094735E+03</rscale>
<asrwt>0</asrwt>
<pdfrwt beam="1">  1        1 0.38526508E+00 0.65094735E+03</pdfrwt>
<pdfrwt beam="2">0</pdfrwt>
<totfact> 0.15551192E+00</totfact>
</mgrwt>
</event>
<event>
 6    1  0.2108260E-003  0.6247133E+03  0.7818608E-02  0.9855420E-01
          1   -1    0    0  502    0  0.00000000000E+00  0.00000000000E+00  0.97580305949E+02  0.97580305949E+02  0.00000000000E+00 0.  1.
         13   -1    0    0    0    0 -0.00000000000E+00 -0.00000000000E+00 -0.10000000000E+04  0.10000000000E+04  0.00000000000E+00 0.  1.
    9000005    2    1    2  501    0  0.12979977050E-03 -0.20426268537E-03 -0.90243332638E+03  0.10975666715E+04  0.62471328604E+03 0.  0.
         13    1    3    3    0    0 -0.37193613581E+02  0.65658127755E+02 -0.98374463854E+03  0.98663461752E+03  0.00000000000E+00 0.  1.
          1    1    3    3  501    0  0.37193743381E+02 -0.65658332017E+02  0.81311312153E+02  0.11093205395E+03  0.00000000000E+00 0.  1.
         21    1    1    2  502  501 -0.12979977050E-03  0.20426268536E-03  0.13632332365E-01  0.13634480443E-01  0.00000000000E+00 0. -1.
<mgrwt>
<rscale>  1 0.62471329E+03</rscale>
<asrwt>0</asrwt>
<pdfrwt beam="1">  1        1 0.35483822E+00 0.62471329E+03</pdfrwt>
<pdfrwt beam="2">0</pdfrwt>
<totfact> 0.21256693E+00</totfact>
</mgrwt>
</event>
<event>
 6    1  0.2108260E-003  0.6557789E+03  0.7818608E-02  0.9795996E-01
          1   -1    0    0  502    0  0.00000000000E+00  0.00000000000E+00  0.10754324747E+03  0.10754324747E+03  0.00000000000E+00 0.  1.
         13   -1    0    0    0    0 -0.00000000000E+00 -0.00000000000E+00 -0.10000000000E+04  0.10000000000E+04  0.00000000000E+00 0.  1.
    9000005    2    1    2  501    0  0.18361651018E-02  0.48718988283E-03 -0.89248848054E+03  0.11075114626E+04  0.65577888955E+03 0.  0.
         13    1    3    3    0    0  0.11491250629E+03 -0.22148319556E+02  0.71040298276E+02  0.13690199465E+03  0.00000000000E+00 0.  1.
          3    1    3    3  501    0 -0.11491067012E+03  0.22148806746E+02 -0.96352877882E+03  0.97060946799E+03  0.00000000000E+00 0.  1.
         21    1    1    2  502  501 -0.18361651018E-02 -0.48718988283E-03  0.31728010707E-01  0.31784831597E-01  0.00000000000E+00 0.  1.
<mgrwt>
<rscale>  1 0.65577889E+03</rscale>
<asrwt>0</asrwt>
<pdfrwt beam="1">  1        1 0.39106718E+00 0.65577889E+03</pdfrwt>
<pdfrwt beam="2">0</pdfrwt>
<totfact> 0.14644308E+00</totfact>
</mgrwt>
</event>
<event>
 6    1  0.2108260E-003  0.6341446E+03  0.7818608E-02  0.9836994E-01
          1   -1    0    0  502    0  0.00000000000E+00  0.00000000000E+00  0.10053574116E+03  0.10053574116E+03  0.00000000000E+00 0.  1.
         13   -1    0    0    0    0 -0.00000000000E+00 -0.00000000000E+00 -0.10000000000E+04  0.10000000000E+04  0.00000000000E+00 0.  1.
    9000005    2    1    2  501    0  0.10840978948E-03 -0.10016707935E-03 -0.89946515909E+03  0.11005348289E+04  0.63414457121E+03 0.  0.
         13    1    3    3    0    0  0.17186183588E+03  0.14996627946E+03 -0.67503031240E+02  0.23787188744E+03  0.00000000000E+00 0.  1.
          3    1    3    3  501    0 -0.17186172747E+03 -0.14996637963E+03 -0.83196212785E+03  0.86266294146E+03  0.00000000000E+00 0.  1.
         21    1    1    2  502  501 -0.10840978949E-03  0.10016707936E-03  0.90024580766E-03  0.91226566331E-03  0.00000000000E+00 0. -1.
<mgrwt>
<rscale>  1 0.63414457E+03</rscale>
<asrwt>0</asrwt>
<pdfrwt beam="1">  1        1 0.36558528E+00 0.63414457E+03</pdfrwt>
<pdfrwt beam="2">0</pdfrwt>
<totfact> 0.19043612E+00</totfact>
</mgrwt>
</event>
<event>
 6    1  0.2108260E-003  0.6574098E+03  0.7818608E-02  0.9792974E-01
          1   -1    0    0  502    0  0.00000000000E+00  0.00000000000E+00  0.10805272277E+03  0.10805272277E+03  0.00000000000E+00 0.  1.
         13   -1    0    0    0    0 -0.00000000000E+00 -0.00000000000E+00 -0.10000000000E+04  0.10000000000E+04  0.00000000000E+00 0.  1.
    9000005    2    1    2  501    0 -0.17827905140E-03  0.22150010204E-03 -0.89195308139E+03  0.11080469117E+04  0.65740981057E+03 0.  0.
         13    1    3    3    0    0 -0.15352578799E+03  0.22323973896E+03 -0.75967790833E+03  0.80654613820E+03  0.00000000000E+00 0.  1.
          1    1    3    3  501    0  0.15352560971E+03 -0.22323951746E+03 -0.13227517305E+03  0.30150077346E+03  0.00000000000E+00 0.  1.
         21    1    1    2  502  501  0.17827905141E-03 -0.22150010204E-03  0.58041505100E-02  0.58111108110E-02  0.00000000000E+00 0. -1.
<mgrwt>
<rscale>  1 0.65740981E+03</rscale>
<asrwt>0</asrwt>
<pdfrwt beam="1">  1        1 0.39291982E+00 0.65740981E+03</pdfrwt>
<pdfrwt beam="2">0</pdfrwt>
<totfact> 0.14365225E+00</totfact>
</mgrwt>
</event>
<event>
 6    1  0.2108260E-003  0.6521834E+03  0.7818608E-02  0.9802691E-01
          3   -1    0    0  502    0  0.00000000000E+00  0.00000000000E+00  0.10634582580E+03  0.10634582580E+03  0.00000000000E+00 0.  1.
         13   -1    0    0    0    0 -0.00000000000E+00 -0.00000000000E+00 -0.10000000000E+04  0.10000000000E+04  0.00000000000E+00 0.  1.
    9000005    2    1    2  501    0 -0.16629830534E-03  0.43171269283E-04 -0.89366421393E+03  0.11063357846E+04  0.65218336456E+03 0.  0.
         13    1    3    3    0    0  0.23298656879E+03 -0.22737260759E+03 -0.41488402433E+03  0.52736116425E+03  0.00000000000E+00 0.  1.
          1    1    3    3  501    0 -0.23298673509E+03  0.22737265076E+03 -0.47878018961E+03  0.57897462034E+03  0.00000000000E+00 0.  1.
         21    1    1    2  502  501  0.16629830536E-03 -0.43171269294E-04  0.10039730343E-01  0.10041200339E-01  0.00000000000E+00 0. -1.
<mgrwt>
<rscale>  1 0.65218336E+03</rscale>
<asrwt>0</asrwt>
<pdfrwt beam="1">  1        3 0.38671291E+00 0.65218336E+03</pdfrwt>
<pdfrwt beam="2">0</pdfrwt>
<totfact> 0.69543243E-02</totfact>
</mgrwt>
</event>
<event>
 6    1  0.2108260E-003  0.6412583E+03  0.7818608E-02  0.9823322E-01
          1   -1    0    0  502    0  0.00000000000E+00  0.00000000000E+00  0.10291175845E+03  0.10291175845E+03  0.00000000000E+00 0.  1.
         13   -1    0    0    0    0 -0.00000000000E+00 -0.00000000000E+00 -0.10000000000E+04  0.10000000000E+04  0.00000000000E+00 0.  1.
    9000005    2    1    2  501    0 -0.16887136829E+00 -0.12875127202E+00 -0.89706837520E+03  0.11026984767E+04  0.64125830650E+03 0.  0.
         13    1    3    3    0    0  0.27004126288E+03  0.26624012938E+02 -0.15497250386E+03  0.31248615758E+03  0.00000000000E+00 0.  1.
          1    1    3    3  501    0 -0.27021013425E+03 -0.26752764210E+02 -0.74209587134E+03  0.79021231913E+03  0.00000000000E+00 0.  1.
         21    1    1    2  502  501  0.16887136829E+00  0.12875127202E+00 -0.19866355132E-01  0.21328174123E+00  0.00000000000E+00 0.  1.
<mgrwt>
<rscale>  1 0.64125834E+03</rscale>
<asrwt>0</asrwt>
<pdfrwt beam="1">  1        1 0.37422537E+00 0.64125834E+03</pdfrwt>
<pdfrwt beam="2">0</pdfrwt>
<totfact> 0.17427773E+00</totfact>
</mgrwt>
</event>
<event>
 6    1  0.2108260E-003  0.6469678E+03  0.7818608E-02  0.9812486E-01
          1   -1    0    0  502    0  0.00000000000E+00  0.00000000000E+00  0.10482119882E+03  0.10482119882E+03  0.00000000000E+00 0.  1.
         13   -1    0    0    0    0 -0.00000000000E+00 -0.00000000000E+00 -0.10000000000E+04  0.10000000000E+04  0.00000000000E+00 0.  1.
    9000005    2    1    2  501    0 -0.11739386567E-01 -0.31065195413E-01 -0.89535648200E+03  0.11046404412E+04  0.64696775290E+03 0.  0.
         13    1    3    3    0    0 -0.18275860434E+03  0.10524343570E+03 -0.28876528499E+02  0.21286320048E+03  0.00000000000E+00 0.  1.
          3    1    3    3  501    0  0.18274686495E+03 -0.10527450090E+03 -0.86647995350E+03  0.89177724068E+03  0.00000000000E+00 0.  1.
         21    1    1    2  502  501  0.11739386567E-01  0.31065195413E-01  0.17768082112E+00  0.18075766583E+00  0.00000000000E+00 0.  1.
<mgrwt>
<rscale>  1 0.64696775E+03</rscale>
<asrwt>0</asrwt>
<pdfrwt beam="1">  1        1 0.38116880E+00 0.64696775E+03</pdfrwt>
<pdfrwt beam="2">0</pdfrwt>
<totfact> 0.16225004E+00</totfact>
</mgrwt>
</event>
<event>
 6    1  0.2108260E-003  0.6550437E+03  0.7818608E-02  0.9797361E-01
          3   -1    0    0  502    0  0.00000000000E+00  0.00000000000E+00  0.10739598206E+03  0.10739598206E+03  0.00000000000E+00 0.  1.
         13   -1    0    0    0    0 -0.00000000000E+00 -0.00000000000E+00 -0.10000000000E+04  0.10000000000E+04  0.00000000000E+00 0.  1.
    9000005    2    1    2  501    0 -0.25073697718E+00  0.86069188288E-01 -0.89254924884E+03  0.11071252856E+04  0.65504363676E+03 0.  0.
         13    1    3    3    0    0 -0.20103929751E+03  0.13693494269E+03 -0.81733323442E+03  0.85276115869E+03  0.00000000000E+00 0.  1.
          1    1    3    3  501    0  0.20078856053E+03 -0.13684887350E+03 -0.75216014421E+02  0.25436412688E+03  0.00000000000E+00 0.  1.
         21    1    1    2  502  501  0.25073697718E+00 -0.86069188288E-01 -0.54769092969E-01  0.27069649138E+00  0.00000000000E+00 0. -1.
<mgrwt>
<rscale>  1 0.65504369E+03</rscale>
<asrwt>0</asrwt>
<pdfrwt beam="1">  1        3 0.39053167E+00 0.65504369E+03</pdfrwt>
<pdfrwt beam="2">0</pdfrwt>
<totfact> 0.66365646E-02</totfact>
</mgrwt>
</event>
<event>
 6    1  0.2108260E-003  0.6501422E+03  0.7818608E-02  0.9806512E-01
          1   -1    0    0  502    0  0.00000000000E+00  0.00000000000E+00  0.10567159476E+03  0.10567159476E+03  0.00000000000E+00 0.  1.
         13   -1    0    0    0    0 -0.00000000000E+00 -0.00000000000E+00 -0.10000000000E+04  0.10000000000E+04  0.00000000000E+00 0.  1.
    9000005    2    1    2  501    0 -0.80969443786E-04  0.63311584313E-04 -0.89432877316E+03  0.11056712128E+04  0.65014219691E+03 0.  0.
         13    1    3    3    0    0 -0.22862064947E+03  0.17455338363E+03 -0.70471748580E+03  0.76115899777E+03  0.00000000000E+00 0.  1.
          1    1    3    3  501    0  0.22862056850E+03 -0.17455332032E+03 -0.18961128737E+03  0.34451221498E+03  0.00000000000E+00 0.  1.
         21    1    1    2  502  501  0.80969443774E-04 -0.63311584323E-04  0.36792000208E-03  0.38200724530E-03  0.00000000000E+00 0. -1.
<mgrwt>
<rscale>  1 0.65014220E+03</rscale>
<asrwt>0</asrwt>
<pdfrwt beam="1">  1        1 0.38426115E+00 0.65014220E+03</pdfrwt>
<pdfrwt beam="2">0</pdfrwt>
<totfact> 0.15713333E+00</totfact>
</mgrwt>
</event>
<event>
 6    1  0.2108260E-003  0.6487809E+03  0.7818608E-02  0.9809069E-01
          1   -1    0    0  502    0  0.00000000000E+00  0.00000000000E+00  0.10532569143E+03  0.10532569143E+03  0.00000000000E+00 0.  1.
         13   -1    0    0    0    0 -0.00000000000E+00 -0.00000000000E+00 -0.10000000000E+04  0.10000000000E+04  0.00000000000E+00 0.  1.
    9000005    2    1    2  501    0 -0.75155291497E-02 -0.51118433717E-03 -0.89477066007E+03  0.11052290459E+04  0.64878094128E+03 0.  0.
         13    1    3    3    0    0  0.15254700319E+03 -0.97959446289E+02 -0.90563862576E+03  0.92360595590E+03  0.00000000000E+00 0.  1.
          3    1    3    3  501    0 -0.15255451872E+03  0.97958935105E+02  0.10867965696E+02  0.18162309002E+03  0.00000000000E+00 0.  1.
         21    1    1    2  502  501  0.75155291497E-02  0.51118433717E-03  0.96351495302E-01  0.96645512750E-01  0.00000000000E+00 0. -1.
<mgrwt>
<rscale>  1 0.64878094E+03</rscale>
<asrwt>0</asrwt>
<pdfrwt beam="1">  1        1 0.38300332E+00 0.64878094E+03</pdfrwt>
<pdfrwt beam="2">0</pdfrwt>
<totfact> 0.15919784E+00</totfact>
</mgrwt>
</event>
<event>
 6    1  0.2108260E-003  0.6510409E+03  0.7818608E-02  0.9804828E-01
          1   -1    0    0  502    0  0.00000000000E+00  0.00000000000E+00  0.10596355768E+03  0.10596355768E+03  0.00000000000E+00 0.  1.
         13   -1    0    0    0    0 -0.00000000000E+00 -0.00000000000E+00 -0.10000000000E+04  0.10000000000E+04  0.00000000000E+00 0.  1.
    9000005    2    1    2  501    0  0.44077315806E-05  0.19005286674E-04 -0.89403643540E+03  0.11059635370E+04  0.65104085687E+03 0.  0.
         13    1    3    3    0    0 -0.17988638084E+03 -0.26612201434E+03 -0.53664311272E+03  0.62543254389E+03  0.00000000000E+00 0.  1.
          1    1    3    3  501    0  0.17988638525E+03  0.26612203334E+03 -0.35739332268E+03  0.48053099309E+03  0.00000000000E+00 0.  1.
         21    1    1    2  502  501 -0.44077315967E-05 -0.19005286648E-04 -0.69122557404E-05  0.20698026424E-04  0.00000000000E+00 0.  1.
<mgrwt>
<rscale>  1 0.65104086E+03</rscale>
<asrwt>0</asrwt>
<pdfrwt beam="1">  1        1 0.38532284E+00 0.65104086E+03</pdfrwt>
<pdfrwt beam="2">0</pdfrwt>
<totfact> 0.15541776E+00</totfact>
</mgrwt>
</event>
<event>
 6    1  0.2108260E-003  0.6395339E+03  0.7818608E-02  0.9826619E-01
          1   -1    0    0  502    0  0.00000000000E+00  0.00000000000E+00  0.10225128703E+03  0.10225128703E+03  0.00000000000E+00 0.  1.
         13   -1    0    0    0    0 -0.00000000000E+00 -0.00000000000E+00 -0.10000000000E+04  0.10000000000E+04  0.00000000000E+00 0.  1.
    9000005    2    1    2  501    0  0.10122996031E-04  0.23223714464E-04 -0.89774909247E+03  0.11022509067E+04  0.63953391487E+03 0.  0.
         13    1    3    3    0    0 -0.11939460832E+03  0.18811799100E+03 -0.84418705381E+03  0.87309520263E+03  0.00000000000E+00 0.  1.
          1    1    3    3  501    0  0.11939461844E+03 -0.18811796778E+03 -0.53562038655E+02  0.22915570405E+03  0.00000000000E+00 0.  1.
         21    1    1    2  502  501 -0.10122996036E-04 -0.23223714454E-04  0.37950001603E-03  0.38034468331E-03  0.00000000000E+00 0. -1.
<mgrwt>
<rscale>  1 0.63953391E+03</rscale>
<asrwt>0</asrwt>
<pdfrwt beam="1">  1        1 0.37182365E+00 0.63953391E+03</pdfrwt>
<pdfrwt beam="2">0</pdfrwt>
<totfact> 0.17862449E+00</totfact>
</mgrwt>
</event>
<event>
 6    1  0.2108260E-003  0.6938903E+03  0.7818608E-02  0.9727738E-01
          1   -1    0    0  502    0  0.00000000000E+00  0.00000000000E+00  0.12044592090E+03  0.12044592090E+03  0.00000000000E+00 0.  1.
         13   -1    0    0    0    0 -0.00000000000E+00 -0.00000000000E+00 -0.10000000000E+04  0.10000000000E+04  0.00000000000E+00 0.  1.
    9000005    2    1    2  501    0 -0.25748013701E-01 -0.60291295412E-01 -0.87961260109E+03  0.11203580413E+04  0.69389034322E+03 0.  0.
         13    1    3    3    0    0  0.30064505685E+03  0.14636139903E+03 -0.29052097457E+03  0.44295772485E+03  0.00000000000E+00 0.  1.
          3    1    3    3  501    0 -0.30067080487E+03 -0.14642169033E+03 -0.58909162652E+03  0.67740031645E+03  0.00000000000E+00 0.  1.
         21    1    1    2  502  501  0.25748013701E-01  0.60291295412E-01  0.58521990498E-01  0.87879598792E-01  0.00000000000E+00 0.  1.
<mgrwt>
<rscale>  1 0.69389035E+03</rscale>
<asrwt>0</asrwt>
<pdfrwt beam="1">  1        1 0.43798609E+00 0.69389035E+03</pdfrwt>
<pdfrwt beam="2">0</pdfrwt>
<totfact> 0.89407672E-01</totfact>
</mgrwt>
</event>
<event>
 6    1  0.2108260E-003  0.6514387E+03  0.7818608E-02  0.9804083E-01
          1   -1    0    0  502    0  0.00000000000E+00  0.00000000000E+00  0.10617200860E+03  0.10617200860E+03  0.00000000000E+00 0.  1.
         13   -1    0    0    0    0 -0.00000000000E+00 -0.00000000000E+00 -0.10000000000E+04  0.10000000000E+04  0.00000000000E+00 0.  1.
    9000005    2    1    2  501    0 -0.27732876958E-02  0.36262647860E-02 -0.89390683073E+03  0.11060930372E+04  0.65143870389E+03 0.  0.
         13    1    3    3    0    0  0.52777713699E+02 -0.32140667395E+03 -0.45036649124E+03  0.55580366457E+03  0.00000000000E+00 0.  1.
          1    1    3    3  501    0 -0.52780486987E+02  0.32141030021E+03 -0.44354033949E+03  0.55028937264E+03  0.00000000000E+00 0.  1.
         21    1    1    2  502  501  0.27732876958E-02 -0.36262647860E-02  0.78839330903E-01  0.78971393670E-01  0.00000000000E+00 0. -1.
<mgrwt>
<rscale>  1 0.65143870E+03</rscale>
<asrwt>0</asrwt>
<pdfrwt beam="1">  1        1 0.38608085E+00 0.65143870E+03</pdfrwt>
<pdfrwt beam="2">0</pdfrwt>
<totfact> 0.15421076E+00</totfact>
</mgrwt>
</event>
<event>
 6    1  0.2108260E-003  0.6440861E+03  0.7818608E-02  0.9817940E-01
          1   -1    0    0  502    0  0.00000000000E+00  0.00000000000E+00  0.10795190910E+03  0.10795190910E+03  0.00000000000E+00 0.  1.
         13   -1    0    0    0    0 -0.00000000000E+00 -0.00000000000E+00 -0.10000000000E+04  0.10000000000E+04  0.00000000000E+00 0.  1.
    9000005    2    1    2  501    0 -0.67535973808E+01  0.12240141589E+01 -0.89297834484E+03  0.11010255348E+04  0.64404952813E+03 0.  0.
         13    1    3    3    0    0  0.14941568992E+03 -0.10648392477E+03  0.46827835827E+01  0.18353692569E+03  0.00000000000E+00 0.  1.
          1    1    3    3  501    0 -0.15616928731E+03  0.10770793893E+03 -0.89766112842E+03  0.91748860913E+03  0.00000000000E+00 0.  1.
         21    1    1    2  502  501  0.67535973808E+01 -0.12240141589E+01  0.93025394313E+00  0.69263742782E+01  0.00000000000E+00 0.  1.
<mgrwt>
<rscale>  1 0.64408610E+03</rscale>
<asrwt>0</asrwt>
<pdfrwt beam="1">  1        1 0.39255322E+00 0.64408610E+03</pdfrwt>
<pdfrwt beam="2">0</pdfrwt>
<totfact> 0.14455224E+00</totfact>
</mgrwt>
</event>
<event>
 6    1  0.2108260E-003  0.5228111E+03  0.7818608E-02  0.1007991E+00
          1   -1    0    0  502    0  0.00000000000E+00  0.00000000000E+00  0.71112474712E+02  0.71112474712E+02  0.00000000000E+00 0.  1.
         13   -1    0    0    0    0 -0.00000000000E+00 -0.00000000000E+00 -0.10000000000E+04  0.10000000000E+04  0.00000000000E+00 0.  1.
    9000005    2    1    2  501    0 -0.17902885245E+01  0.21144069387E+00 -0.93135259101E+03  0.10680585610E+04  0.52280798677E+03 0.  0.
         13    1    3    3    0    0 -0.12865752034E+03  0.15602597935E+03 -0.12657181901E+03  0.23857344600E+03  0.00000000000E+00 0.  1.
          1    1    3    3  501    0  0.12686723181E+03 -0.15581453866E+03 -0.80478077200E+03  0.82948511496E+03  0.00000000000E+00 0.  1.
         21    1    1    2  502  501  0.17902885245E+01 -0.21144069387E+00  0.24650657196E+01  0.30539137463E+01  0.00000000000E+00 0.  1.
<mgrwt>
<rscale>  1 0.52281109E+03</rscale>
<asrwt>0</asrwt>
<pdfrwt beam="1">  1        1 0.25859136E+00 0.52281109E+03</pdfrwt>
<pdfrwt beam="2">0</pdfrwt>
<totfact> 0.56456333E+00</totfact>
</mgrwt>
</event>
<event>
 6    1  0.2108260E-003  0.6532202E+03  0.7818608E-02  0.9800755E-01
          1   -1    0    0  502    0  0.00000000000E+00  0.00000000000E+00  0.10667969609E+03  0.10667969609E+03  0.00000000000E+00 0.  1.
         13   -1    0    0    0    0 -0.00000000000E+00 -0.00000000000E+00 -0.10000000000E+04  0.10000000000E+04  0.00000000000E+00 0.  1.
    9000005    2    1    2  501    0  0.74041835506E-03  0.25649846240E-02 -0.89332548462E+03  0.11066738680E+04  0.65322019912E+03 0.  0.
         13    1    3    3    0    0  0.31646255918E+03  0.52223846322E+02 -0.34224576072E+03  0.46905014894E+03  0.00000000000E+00 0.  1.
          1    1    3    3  501    0 -0.31646181877E+03 -0.52221281337E+02 -0.55107972390E+03  0.63762371902E+03  0.00000000000E+00 0.  1.
         21    1    1    2  502  501 -0.74041835503E-03 -0.25649846240E-02  0.51807141866E-02  0.58281356320E-02  0.00000000000E+00 0. -1.
<mgrwt>
<rscale>  1 0.65322020E+03</rscale>
<asrwt>0</asrwt>
<pdfrwt beam="1">  1        1 0.38792699E+00 0.65322020E+03</pdfrwt>
<pdfrwt beam="2">0</pdfrwt>
<totfact> 0.15128547E+00</totfact>
</mgrwt>
</event>
<event>
 6    1  0.2108260E-003  0.6635282E+03  0.7818608E-02  0.9781721E-01
          1   -1    0    0  502    0  0.00000000000E+00  0.00000000000E+00  0.11006854979E+03  0.11006854979E+03  0.00000000000E+00 0.  1.
         13   -1    0    0    0    0 -0.00000000000E+00 -0.00000000000E+00 -0.10000000000E+04  0.10000000000E+04  0.00000000000E+00 0.  1.
    9000005    2    1    2  501    0  0.12307368081E-04  0.84693624530E-04 -0.88993258903E+03  0.11100674078E+04  0.66352817328E+03 0.  0.
         13    1    3    3    0    0 -0.15720169438E+03 -0.20694421070E+03 -0.78997740828E+03  0.83162646942E+03  0.00000000000E+00 0.  1.
          3    1    3    3  501    0  0.15720170668E+03  0.20694429539E+03 -0.99955180757E+02  0.27844093833E+03  0.00000000000E+00 0.  1.
         21    1    1    2  502  501 -0.12307368108E-04 -0.84693624537E-04  0.11388215447E-02  0.11420328331E-02  0.00000000000E+00 0.  1.
<mgrwt>
<rscale>  1 0.66352817E+03</rscale>
<asrwt>0</asrwt>
<pdfrwt beam="1">  1        1 0.40025012E+00 0.66352817E+03</pdfrwt>
<pdfrwt beam="2">0</pdfrwt>
<totfact> 0.13310408E+00</totfact>
</mgrwt>
</event>
<event>
 6    1  0.2108260E-003  0.6320390E+03  0.7818608E-02  0.9841078E-01
          1   -1    0    0  502    0  0.00000000000E+00  0.00000000000E+00  0.99875678235E+02  0.99875678235E+02  0.00000000000E+00 0.  1.
         13   -1    0    0    0    0 -0.00000000000E+00 -0.00000000000E+00 -0.10000000000E+04  0.10000000000E+04  0.00000000000E+00 0.  1.
    9000005    2    1    2  501    0 -0.98917200816E-04  0.16174366833E-03 -0.90013167258E+03  0.10998683250E+04  0.63203900536E+03 0.  0.
         13    1    3    3    0    0 -0.41284940383E+02 -0.40024037707E+02 -0.99081995002E+03  0.99248704941E+03  0.00000000000E+00 0.  1.
          1    1    3    3  501    0  0.41284841466E+02  0.40024199451E+02  0.90688277439E+02  0.10738127556E+03  0.00000000000E+00 0.  1.
         21    1    1    2  502  501  0.98917200819E-04 -0.16174366833E-03  0.73508153308E-02  0.73532599338E-02  0.00000000000E+00 0. -1.
<mgrwt>
<rscale>  1 0.63203901E+03</rscale>
<asrwt>0</asrwt>
<pdfrwt beam="1">  1        1 0.36318505E+00 0.63203901E+03</pdfrwt>
<pdfrwt beam="2">0</pdfrwt>
<totfact> 0.19517808E+00</totfact>
</mgrwt>
</event>
<event>
 6    1  0.2108260E-003  0.6165839E+03  0.7818608E-02  0.9871585E-01
          1   -1    0    0  502    0  0.00000000000E+00  0.00000000000E+00  0.95124736729E+02  0.95124736729E+02  0.00000000000E+00 0.  1.
         13   -1    0    0    0    0 -0.00000000000E+00 -0.00000000000E+00 -0.10000000000E+04  0.10000000000E+04  0.00000000000E+00 0.  1.
    9000005    2    1    2  501    0  0.30519913128E-01  0.17380766664E-01 -0.90495187103E+03  0.10950404616E+04  0.61658391346E+03 0.  0.
         13    1    3    3    0    0 -0.78069784359E+02  0.37818206893E+02  0.72921348638E+02  0.11332533296E+03  0.00000000000E+00 0.  1.
          1    1    3    3  501    0  0.78100304273E+02 -0.37800826126E+02 -0.97787321967E+03  0.98171512860E+03  0.00000000000E+00 0.  1.
         21    1    1    2  502  501 -0.30519913128E-01 -0.17380766664E-01  0.76607757284E-01  0.84275172045E-01  0.00000000000E+00 0.  1.
<mgrwt>
<rscale>  1 0.61658391E+03</rscale>
<asrwt>0</asrwt>
<pdfrwt beam="1">  1        1 0.34590886E+00 0.61658391E+03</pdfrwt>
<pdfrwt beam="2">0</pdfrwt>
<totfact> 0.23283122E+00</totfact>
</mgrwt>
</event>
<event>
 6    1  0.2108260E-003  0.6288051E+03  0.7818608E-02  0.9847383E-01
          1   -1    0    0  502    0  0.00000000000E+00  0.00000000000E+00  0.10018143348E+03  0.10018143348E+03  0.00000000000E+00 0.  1.
         13   -1    0    0    0    0 -0.00000000000E+00 -0.00000000000E+00 -0.10000000000E+04  0.10000000000E+04  0.00000000000E+00 0.  1.
    9000005    2    1    2  501    0  0.11434108050E+01 -0.11242359595E+01 -0.90060041026E+03  0.10983974563E+04  0.62880307081E+03 0.  0.
         13    1    3    3    0    0 -0.79867471242E+02 -0.16556943950E+03 -0.89637706229E+03  0.91503217979E+03  0.00000000000E+00 0.  1.
          1    1    3    3  501    0  0.81010882047E+02  0.16444520354E+03 -0.42233479699E+01  0.18336527655E+03  0.00000000000E+00 0.  1.
         21    1    1    2  502  501 -0.11434108050E+01  0.11242359595E+01  0.78184373638E+00  0.17839771270E+01  0.00000000000E+00 0.  1.
<mgrwt>
<rscale>  1 0.62880512E+03</rscale>
<asrwt>0</asrwt>
<pdfrwt beam="1">  1        1 0.36429689E+00 0.62880512E+03</pdfrwt>
<pdfrwt beam="2">0</pdfrwt>
<totfact> 0.19311525E+00</totfact>
</mgrwt>
</event>
<event>
 6    1  0.2108260E-003  0.6515339E+03  0.7818608E-02  0.9803905E-01
          1   -1    0    0  502    0  0.00000000000E+00  0.00000000000E+00  0.10629946839E+03  0.10629946839E+03  0.00000000000E+00 0.  1.
         13   -1    0    0    0    0 -0.00000000000E+00 -0.00000000000E+00 -0.10000000000E+04  0.10000000000E+04  0.00000000000E+00 0.  1.
    9000005    2    1    2  501    0  0.86512015088E-01 -0.18981260240E-01 -0.89386345534E+03  0.11061140263E+04  0.65153384762E+03 0.  0.
         13    1    3    3    0    0 -0.23922521952E+03 -0.57770861619E+02 -0.80917629630E+03  0.84577328913E+03  0.00000000000E+00 0.  1.
          1    1    3    3  501    0  0.23931173154E+03  0.57751880359E+02 -0.84687159042E+02  0.26034073720E+03  0.00000000000E+00 0.  1.
         21    1    1    2  502  501 -0.86512015088E-01  0.18981260240E-01  0.16292373531E+00  0.18544206784E+00  0.00000000000E+00 0.  1.
<mgrwt>
<rscale>  1 0.65153385E+03</rscale>
<asrwt>0</asrwt>
<pdfrwt beam="1">  1        1 0.38654434E+00 0.65153385E+03</pdfrwt>
<pdfrwt beam="2">0</pdfrwt>
<totfact> 0.15348132E+00</totfact>
</mgrwt>
</event>
<event>
 6    1  0.2108260E-003  0.6533209E+03  0.7818608E-02  0.9800568E-01
          1   -1    0    0  502    0  0.00000000000E+00  0.00000000000E+00  0.10675022428E+03  0.10675022428E+03  0.00000000000E+00 0.  1.
         13   -1    0    0    0    0 -0.00000000000E+00 -0.00000000000E+00 -0.10000000000E+04  0.10000000000E+04  0.00000000000E+00 0.  1.
    9000005    2    1    2  501    0 -0.24326534737E-02  0.15462999933E-03 -0.89329289992E+03  0.11067070312E+04  0.65332093795E+03 0.  0.
         13    1    3    3    0    0  0.20006288437E+03 -0.98142725234E+02 -0.42040010562E+02  0.22676973940E+03  0.00000000000E+00 0.  1.
          3    1    3    3  501    0 -0.20006531703E+03  0.98142879864E+02 -0.85125288936E+03  0.87993729185E+03  0.00000000000E+00 0.  1.
         21    1    1    2  502  501  0.24326534737E-02 -0.15462999933E-03  0.43124199199E-01  0.43193034970E-01  0.00000000000E+00 0.  1.
<mgrwt>
<rscale>  1 0.65332094E+03</rscale>
<asrwt>0</asrwt>
<pdfrwt beam="1">  1        1 0.38818345E+00 0.65332094E+03</pdfrwt>
<pdfrwt beam="2">0</pdfrwt>
<totfact> 0.15088738E+00</totfact>
</mgrwt>
</event>
<event>
 6    1  0.2108260E-003  0.6526532E+03  0.7818608E-02  0.9801813E-01
          1   -1    0    0  502    0  0.00000000000E+00  0.00000000000E+00  0.10648905590E+03  0.10648905590E+03  0.00000000000E+00 0.  1.
         13   -1    0    0    0    0 -0.00000000000E+00 -0.00000000000E+00 -0.10000000000E+04  0.10000000000E+04  0.00000000000E+00 0.  1.
    9000005    2    1    2  501    0 -0.68987404376E-05 -0.66987462404E-05 -0.89351094898E+03  0.11064890451E+04  0.65265319352E+03 0.  0.
         13    1    3    3    0    0  0.39151972505E+02 -0.41511225149E+02  0.97965254159E+02  0.11337217378E+03  0.00000000000E+00 0.  1.
          3    1    3    3  501    0 -0.39151979404E+02  0.41511218450E+02 -0.99147620314E+03  0.99311687134E+03  0.00000000000E+00 0.  1.
         21    1    1    2  502  501  0.68987404439E-05  0.66987462424E-05  0.48750195453E-05  0.10781077706E-04  0.00000000000E+00 0. -1.
<mgrwt>
<rscale>  1 0.65265319E+03</rscale>
<asrwt>0</asrwt>
<pdfrwt beam="1">  1        1 0.38723375E+00 0.65265319E+03</pdfrwt>
<pdfrwt beam="2">0</pdfrwt>
<totfact> 0.15237483E+00</totfact>
</mgrwt>
</event>
<event>
 6    1  0.2108260E-003  0.6527254E+03  0.7818608E-02  0.9801679E-01
          1   -1    0    0  502    0  0.00000000000E+00  0.00000000000E+00  0.10651264676E+03  0.10651264676E+03  0.00000000000E+00 0.  1.
         13   -1    0    0    0    0 -0.00000000000E+00 -0.00000000000E+00 -0.10000000000E+04  0.10000000000E+04  0.00000000000E+00 0.  1.
    9000005    2    1    2  501    0  0.87089139811E-05 -0.21670792052E-04 -0.89348739904E+03  0.11065125953E+04  0.65272535681E+03 0.  0.
         13    1    3    3    0    0  0.25829676802E+03 -0.19236073006E+03 -0.35715761525E+03  0.48091728288E+03  0.00000000000E+00 0.  1.
          1    1    3    3  501    0 -0.25829675931E+03  0.19236070839E+03 -0.53632978379E+03  0.62559531247E+03  0.00000000000E+00 0.  1.
         21    1    1    2  502  501 -0.87089140023E-05  0.21670792061E-04  0.45798100584E-04  0.51409478005E-04  0.00000000000E+00 0. -1.
<mgrwt>
<rscale>  1 0.65272536E+03</rscale>
<asrwt>0</asrwt>
<pdfrwt beam="1">  1        1 0.38731953E+00 0.65272536E+03</pdfrwt>
<pdfrwt beam="2">0</pdfrwt>
<totfact> 0.15223957E+00</totfact>
</mgrwt>
</event>
<event>
 6    1  0.2108260E-003  0.6504264E+03  0.7818608E-02  0.9805979E-01
          1   -1    0    0  502    0  0.00000000000E+00  0.00000000000E+00  0.10576417095E+03  0.10576417095E+03  0.00000000000E+00 0.  1.
         13   -1    0    0    0    0 -0.00000000000E+00 -0.00000000000E+00 -0.10000000000E+04  0.10000000000E+04  0.00000000000E+00 0.  1.
    9000005    2    1    2  501    0 -0.14524983918E-03  0.18939598419E-03 -0.89423634944E+03  0.11057635984E+04  0.65042638858E+03 0.  0.
         13    1    3    3    0    0  0.12474323425E+01  0.18502169776E+03 -0.90179780844E+03  0.92058344110E+03  0.00000000000E+00 0.  1.
          3    1    3    3  501    0 -0.12475775923E+01 -0.18502150836E+03  0.75614589988E+01  0.18518015733E+03  0.00000000000E+00 0.  1.
         21    1    1    2  502  501  0.14524983918E-03 -0.18939598420E-03  0.52039461206E-03  0.57251978732E-03  0.00000000000E+00 0.  1.
<mgrwt>
<rscale>  1 0.65042639E+03</rscale>
<asrwt>0</asrwt>
<pdfrwt beam="1">  1        1 0.38459780E+00 0.65042639E+03</pdfrwt>
<pdfrwt beam="2">0</pdfrwt>
<totfact> 0.15658744E+00</totfact>
</mgrwt>
</event>
<event>
 6    1  0.2108260E-003  0.6516260E+03  0.7818608E-02  0.9803733E-01
          1   -1    0    0  502    0  0.00000000000E+00  0.00000000000E+00  0.10615478550E+03  0.10615478550E+03  0.00000000000E+00 0.  1.
         13   -1    0    0    0    0 -0.00000000000E+00 -0.00000000000E+00 -0.10000000000E+04  0.10000000000E+04  0.00000000000E+00 0.  1.
    9000005    2    1    2  501    0 -0.79789319045E-05 -0.20799441859E-03 -0.89384585887E+03  0.11061541083E+04  0.65162603691E+03 0.  0.
         13    1    3    3    0    0 -0.14352569253E+03 -0.29092884936E+03 -0.49827057200E+03  0.59456940951E+03  0.00000000000E+00 0.  1.
          1    1    3    3  501    0  0.14352568456E+03  0.29092864137E+03 -0.39557528687E+03  0.51158469883E+03  0.00000000000E+00 0.  1.
         21    1    1    2  502  501  0.79789319017E-05  0.20799441857E-03  0.64436829649E-03  0.67715274719E-03  0.00000000000E+00 0. -1.
<mgrwt>
<rscale>  1 0.65162604E+03</rscale>
<asrwt>0</asrwt>
<pdfrwt beam="1">  1        1 0.38601822E+00 0.65162604E+03</pdfrwt>
<pdfrwt beam="2">0</pdfrwt>
<totfact> 0.15430387E+00</totfact>
</mgrwt>
</event>
<event>
 6    1  0.2108260E-003  0.6480163E+03  0.7818608E-02  0.9810509E-01
          1   -1    0    0  502    0  0.00000000000E+00  0.00000000000E+00  0.10498147743E+03  0.10498147743E+03  0.00000000000E+00 0.  1.
         13   -1    0    0    0    0 -0.00000000000E+00 -0.00000000000E+00 -0.10000000000E+04  0.10000000000E+04  0.00000000000E+00 0.  1.
    9000005    2    1    2  501    0 -0.23091078248E-04 -0.10236012763E-03 -0.89501870351E+03  0.11049812683E+04  0.64801629886E+03 0.  0.
         13    1    3    3    0    0 -0.16716845281E+03 -0.20885780883E+02 -0.91944497207E+03  0.93475160558E+03  0.00000000000E+00 0.  1.
          3    1    3    3  501    0  0.16716842972E+03  0.20885678523E+02  0.24426268565E+02  0.17022966269E+03  0.00000000000E+00 0.  1.
         21    1    1    2  502  501  0.23091078260E-04  0.10236012763E-03  0.18093828074E-03  0.20916370398E-03  0.00000000000E+00 0. -1.
<mgrwt>
<rscale>  1 0.64801630E+03</rscale>
<asrwt>0</asrwt>
<pdfrwt beam="1">  1        1 0.38175163E+00 0.64801630E+03</pdfrwt>
<pdfrwt beam="2">0</pdfrwt>
<totfact> 0.16126034E+00</totfact>
</mgrwt>
</event>
<event>
 6    1  0.2108260E-003  0.6522005E+03  0.7818608E-02  0.9802659E-01
          1   -1    0    0  502    0  0.00000000000E+00  0.00000000000E+00  0.10920609537E+03  0.10920609537E+03  0.00000000000E+00 0.  1.
         13   -1    0    0    0    0 -0.00000000000E+00 -0.00000000000E+00 -0.10000000000E+04  0.10000000000E+04  0.00000000000E+00 0.  1.
    9000005    2    1    2  501    0 -0.51634157050E+00  0.25328087532E+00 -0.89362664875E+03  0.11063155592E+04  0.65220027484E+03 0.  0.
         13    1    3    3    0    0  0.23065193964E+03 -0.70061504347E+02 -0.81853158369E+03  0.85328944981E+03  0.00000000000E+00 0.  1.
          3    1    3    3  501    0 -0.23116828121E+03  0.70314785223E+02 -0.75095065061E+02  0.25302610944E+03  0.00000000000E+00 0.  1.
         21    1    1    2  502  501  0.51634157050E+00 -0.25328087532E+00  0.28327441227E+01  0.28905361240E+01  0.00000000000E+00 0. -1.
<mgrwt>
<rscale>  1 0.65220053E+03</rscale>
<asrwt>0</asrwt>
<pdfrwt beam="1">  1        1 0.39711391E+00 0.65220053E+03</pdfrwt>
<pdfrwt beam="2">0</pdfrwt>
<totfact> 0.13774895E+00</totfact>
</mgrwt>
</event>
<event>
 6    1  0.2396953E-003  0.6542959E+03  0.7818608E-02  0.9798751E-01
          1   -1    0    0  502    0  0.00000000000E+00  0.00000000000E+00  0.10702588586E+03  0.10702588586E+03  0.00000000000E+00 0.  1.
         13   -1    0    0    0    0 -0.00000000000E+00 -0.00000000000E+00 -0.10000000000E+04  0.10000000000E+04  0.00000000000E+00 0.  1.
    9000005    2    1    2  501    0  0.10700668534E-03  0.15787841859E-03 -0.89297409920E+03  0.11070256946E+04  0.65429591666E+03 0.  0.
         13    1    3    3    0    0  0.15996924176E+03  0.90772181830E+02 -0.90423608486E+03  0.92275275371E+03  0.00000000000E+00 0.  1.
          3    1    3    3  501    0 -0.15996913476E+03 -0.90772023952E+02  0.11261985661E+02  0.18427294085E+03  0.00000000000E+00 0.  1.
         21    1    1    2  502  501 -0.10700668533E-03 -0.15787841859E-03 -0.14934208657E-04  0.19130879841E-03  0.00000000000E+00 0. -1.
<mgrwt>
<rscale>  1 0.65429592E+03</rscale>
<asrwt>0</asrwt>
<pdfrwt beam="1">  1        1 0.38918586E+00 0.65429592E+03</pdfrwt>
<pdfrwt beam="2">0</pdfrwt>
<totfact> 0.14932486E+00</totfact>
</mgrwt>
</event>
<event>
 6    1  0.2108260E-003  0.6283861E+03  0.7818608E-02  0.9848203E-01
          1   -1    0    0  502    0  0.00000000000E+00  0.00000000000E+00  0.99907177730E+02  0.99907177730E+02  0.00000000000E+00 0.  1.
         13   -1    0    0    0    0 -0.00000000000E+00 -0.00000000000E+00 -0.10000000000E+04  0.10000000000E+04  0.00000000000E+00 0.  1.
    9000005    2    1    2  501    0  0.52275627816E-01 -0.35985270237E+00 -0.90125213328E+03  0.10986921762E+04  0.62838599448E+03 0.  0.
         13    1    3    3    0    0  0.30921770403E+03  0.36406491894E+01 -0.35326056113E+03  0.46949107218E+03  0.00000000000E+00 0.  1.
          1    1    3    3  501    0 -0.30916542840E+03 -0.40005018918E+01 -0.54799157216E+03  0.62920110401E+03  0.00000000000E+00 0.  1.
         21    1    1    2  502  501 -0.52275627816E-01  0.35985270237E+00  0.11593110116E+01  0.12150015351E+01  0.00000000000E+00 0. -1.
<mgrwt>
<rscale>  1 0.62838610E+03</rscale>
<asrwt>0</asrwt>
<pdfrwt beam="1">  1        1 0.36329959E+00 0.62838610E+03</pdfrwt>
<pdfrwt beam="2">0</pdfrwt>
<totfact> 0.19508208E+00</totfact>
</mgrwt>
</event>
<event>
 6    1  0.2108260E-003  0.6511975E+03  0.7818608E-02  0.9804535E-01
          1   -1    0    0  502    0  0.00000000000E+00  0.00000000000E+00  0.12470720019E+03  0.12470720019E+03  0.00000000000E+00 0.  1.
         13   -1    0    0    0    0 -0.00000000000E+00 -0.00000000000E+00 -0.10000000000E+04  0.10000000000E+04  0.00000000000E+00 0.  1.
    9000005    2    1    2  501    0 -0.20953908820E+02  0.28219139315E+02 -0.87348723244E+03  0.10895127945E+04  0.65024825877E+03 0.  0.
         13    1    3    3    0    0 -0.11079680448E+03 -0.13820415811E+03 -0.88256927305E+03  0.90016934125E+03  0.00000000000E+00 0.  1.
          1    1    3    3  501    0  0.89842895663E+02  0.16642329742E+03  0.90820406125E+01  0.18934345325E+03  0.00000000000E+00 0.  1.
         21    1    1    2  502  501  0.20953908820E+02 -0.28219139315E+02 -0.18055673732E+01  0.35194405693E+02  0.00000000000E+00 0.  1.
<mgrwt>
<rscale>  1 0.65119750E+03</rscale>
<asrwt>0</asrwt>
<pdfrwt beam="1">  1        1 0.45348168E+00 0.65119750E+03</pdfrwt>
<pdfrwt beam="2">0</pdfrwt>
<totfact> 0.76545255E-01</totfact>
</mgrwt>
</event>
<event>
 6    1  0.2108260E-003  0.6653489E+03  0.7818608E-02  0.9778397E-01
          1   -1    0    0  502    0  0.00000000000E+00  0.00000000000E+00  0.11170798985E+03  0.11170798985E+03  0.00000000000E+00 0.  1.
         13   -1    0    0    0    0 -0.00000000000E+00 -0.00000000000E+00 -0.10000000000E+04  0.10000000000E+04  0.00000000000E+00 0.  1.
    9000005    2    1    2  501    0  0.59982673003E+00 -0.60458830357E+00 -0.88912946904E+03  0.11105135626E+04  0.66534835584E+03 0.  0.
         13    1    3    3    0    0  0.21475146066E+03  0.24620754761E+03 -0.54896458941E+03  0.63882585012E+03  0.00000000000E+00 0.  1.
          1    1    3    3  501    0 -0.21415163393E+03 -0.24681213591E+03 -0.34016487964E+03  0.47168771246E+03  0.00000000000E+00 0.  1.
         21    1    1    2  502  501 -0.59982673003E+00  0.60458830357E+00  0.83745889546E+00  0.11944272788E+01  0.00000000000E+00 0.  1.
<mgrwt>
<rscale>  1 0.66534890E+03</rscale>
<asrwt>0</asrwt>
<pdfrwt beam="1">  1        1 0.40621173E+00 0.66534890E+03</pdfrwt>
<pdfrwt beam="2">0</pdfrwt>
<totfact> 0.12514374E+00</totfact>
</mgrwt>
</event>
<event>
 6    1  0.2108260E-003  0.5475220E+03  0.7818608E-02  0.1002069E+00
          1   -1    0    0  502    0  0.00000000000E+00  0.00000000000E+00  0.76312791118E+02  0.76312791118E+02  0.00000000000E+00 0.  1.
         13   -1    0    0    0    0 -0.00000000000E+00 -0.00000000000E+00 -0.10000000000E+04  0.10000000000E+04  0.00000000000E+00 0.  1.
    9000005    2    1    2  501    0 -0.35295857297E+00  0.25443611692E+00 -0.92501764340E+03  0.10749130149E+04  0.54752183485E+03 0.  0.
         13    1    3    3    0    0 -0.23414765459E+03  0.20006025525E+02 -0.18647641276E+03  0.29999802953E+03  0.00000000000E+00 0.  1.
          1    1    3    3  501    0  0.23379469601E+03 -0.19751589408E+02 -0.73854123064E+03  0.77491498535E+03  0.00000000000E+00 0.  1.
         21    1    1    2  502  501  0.35295857297E+00 -0.25443611692E+00  0.13304345216E+01  0.13997762350E+01  0.00000000000E+00 0. -1.
<mgrwt>
<rscale>  1 0.54752201E+03</rscale>
<asrwt>0</asrwt>
<pdfrwt beam="1">  1        1 0.27750164E+00 0.54752201E+03</pdfrwt>
<pdfrwt beam="2">0</pdfrwt>
<totfact> 0.46566751E+00</totfact>
</mgrwt>
</event>
<event>
 6    1  0.2108260E-003  0.5350084E+03  0.7818608E-02  0.1005025E+00
          1   -1    0    0  502    0  0.00000000000E+00  0.00000000000E+00  0.71853476451E+02  0.71853476451E+02  0.00000000000E+00 0.  1.
         13   -1    0    0    0    0 -0.00000000000E+00 -0.00000000000E+00 -0.10000000000E+04  0.10000000000E+04  0.00000000000E+00 0.  1.
    9000005    2    1    2  501    0 -0.65029498970E+00  0.64050157314E+00 -0.92747181521E+03  0.10707184182E+04  0.53500759807E+03 0.  0.
         13    1    3    3    0    0  0.13389087261E+03  0.19514387982E+03 -0.71372581003E+03  0.75193911423E+03  0.00000000000E+00 0.  1.
          1    1    3    3  501    0 -0.13454116760E+03 -0.19450337825E+03 -0.21374600518E+03  0.31877930400E+03  0.00000000000E+00 0.  1.
         21    1    1    2  502  501  0.65029498970E+00 -0.64050157314E+00 -0.67470833826E+00  0.11350582278E+01  0.00000000000E+00 0.  1.
<mgrwt>
<rscale>  1 0.53500838E+03</rscale>
<asrwt>0</asrwt>
<pdfrwt beam="1">  1        1 0.26128592E+00 0.53500838E+03</pdfrwt>
<pdfrwt beam="2">0</pdfrwt>
<totfact> 0.54844942E+00</totfact>
</mgrwt>
</event>
<event>
 6    1  0.2108260E-003  0.6420023E+03  0.7818608E-02  0.9821903E-01
          1   -1    0    0  502    0  0.00000000000E+00  0.00000000000E+00  0.10304181674E+03  0.10304181674E+03  0.00000000000E+00 0.  1.
         13   -1    0    0    0    0 -0.00000000000E+00 -0.00000000000E+00 -0.10000000000E+04  0.10000000000E+04  0.00000000000E+00 0.  1.
    9000005    2    1    2  501    0 -0.60931882615E-05 -0.28418388638E-05 -0.89695824618E+03  0.11030417535E+04  0.64200234772E+03 0.  0.
         13    1    3    3    0    0  0.65389969186E+02 -0.28514679717E+03 -0.67548795608E+03  0.73611719367E+03  0.00000000000E+00 0.  1.
          1    1    3    3  501    0 -0.65389975279E+02  0.28514679432E+03 -0.22147029010E+03  0.36692455979E+03  0.00000000000E+00 0.  1.
         21    1    1    2  502  501  0.60931882624E-05  0.28418388750E-05  0.62921383505E-04  0.63279566162E-04  0.00000000000E+00 0. -1.
<mgrwt>
<rscale>  1 0.64200235E+03</rscale>
<asrwt>0</asrwt>
<pdfrwt beam="1">  1        1 0.37469831E+00 0.64200235E+03</pdfrwt>
<pdfrwt beam="2">0</pdfrwt>
<totfact> 0.17342094E+00</totfact>
</mgrwt>
</event>
<event>
 6    1  0.2108260E-003  0.7005067E+03  0.7818608E-02  0.9716366E-01
          1   -1    0    0  502    0  0.00000000000E+00  0.00000000000E+00  0.13643490932E+03  0.13643490932E+03  0.00000000000E+00 0.  1.
         13   -1    0    0    0    0 -0.00000000000E+00 -0.00000000000E+00 -0.10000000000E+04  0.10000000000E+04  0.00000000000E+00 0.  1.
    9000005    2    1    2  501    0 -0.33902753897E+02 -0.14673692272E+02 -0.83371697904E+03  0.10889415020E+04  0.69953190047E+03 0.  0.
         13    1    3    3    0    0  0.13929918337E+03  0.16815857231E+03 -0.80660580813E+03  0.83564017234E+03  0.00000000000E+00 0.  1.
          1    1    3    3  501    0 -0.17320193726E+03 -0.18283226458E+03 -0.27111170913E+02  0.25330132970E+03  0.00000000000E+00 0.  1.
         21    1    1    2  502  501  0.33902753897E+02  0.14673692272E+02 -0.29848111632E+02  0.47493407276E+02  0.00000000000E+00 0.  1.
<mgrwt>
<rscale>  1 0.70050667E+03</rscale>
<asrwt>0</asrwt>
<pdfrwt beam="1">  1        1 0.49612799E+00 0.70050667E+03</pdfrwt>
<pdfrwt beam="2">0</pdfrwt>
<totfact> 0.47729057E-01</totfact>
</mgrwt>
</event>
<event>
 6    1  0.2108260E-003  0.6429618E+03  0.7818608E-02  0.9820076E-01
          1   -1    0    0  502    0  0.00000000000E+00  0.00000000000E+00  0.10336073385E+03  0.10336073385E+03  0.00000000000E+00 0.  1.
         13   -1    0    0    0    0 -0.00000000000E+00 -0.00000000000E+00 -0.10000000000E+04  0.10000000000E+04  0.00000000000E+00 0.  1.
    9000005    2    1    2  501    0  0.14862071770E-03  0.94042375935E-04 -0.89665003463E+03  0.11033499639E+04  0.64296178603E+03 0.  0.
         13    1    3    3    0    0 -0.26865418102E+02 -0.12807575470E+03  0.55574855224E+02  0.14217494211E+03  0.00000000000E+00 0.  1.
          3    1    3    3  501    0  0.26865566722E+02  0.12807584874E+03 -0.95222488986E+03  0.96117502182E+03  0.00000000000E+00 0.  1.
         21    1    1    2  502  501 -0.14862071770E-03 -0.94042375936E-04  0.10768482604E-01  0.10769918741E-01  0.00000000000E+00 0.  1.
<mgrwt>
<rscale>  1 0.64296179E+03</rscale>
<asrwt>0</asrwt>
<pdfrwt beam="1">  1        1 0.37585801E+00 0.64296179E+03</pdfrwt>
<pdfrwt beam="2">0</pdfrwt>
<totfact> 0.17136410E+00</totfact>
</mgrwt>
</event>
<event>
 6    1  0.2108260E-003  0.6680137E+03  0.7818608E-02  0.9773553E-01
          1   -1    0    0  502    0  0.00000000000E+00  0.00000000000E+00  0.11169486851E+03  0.11169486851E+03  0.00000000000E+00 0.  1.
         13   -1    0    0    0    0 -0.00000000000E+00 -0.00000000000E+00 -0.10000000000E+04  0.10000000000E+04  0.00000000000E+00 0.  1.
    9000005    2    1    2  501    0 -0.99786130607E-02  0.76599940860E-02 -0.88843910963E+03  0.11115603011E+04  0.66801366100E+03 0.  0.
         13    1    3    3    0    0 -0.64375163791E+02 -0.30640292655E+03 -0.63778157608E+03  0.71048733549E+03  0.00000000000E+00 0.  1.
          3    1    3    3  501    0  0.64365185178E+02  0.30641058654E+03 -0.25065753355E+03  0.40107296560E+03  0.00000000000E+00 0.  1.
         21    1    1    2  502  501  0.99786130607E-02 -0.76599940860E-02  0.13397813785E+00  0.13456741675E+00  0.00000000000E+00 0. -1.
<mgrwt>
<rscale>  1 0.66801366E+03</rscale>
<asrwt>0</asrwt>
<pdfrwt beam="1">  1        1 0.40616401E+00 0.66801366E+03</pdfrwt>
<pdfrwt beam="2">0</pdfrwt>
<totfact> 0.12514245E+00</totfact>
</mgrwt>
</event>
<event>
 6    1  0.2108260E-003  0.6537490E+03  0.7818608E-02  0.9799770E-01
          1   -1    0    0  502    0  0.00000000000E+00  0.00000000000E+00  0.10684695587E+03  0.10684695587E+03  0.00000000000E+00 0.  1.
         13   -1    0    0    0    0 -0.00000000000E+00 -0.00000000000E+00 -0.10000000000E+04  0.10000000000E+04  0.00000000000E+00 0.  1.
    9000005    2    1    2  501    0  0.22666611841E-05 -0.55451144760E-05 -0.89315305708E+03  0.11068469416E+04  0.65374901054E+03 0.  0.
         13    1    3    3    0    0  0.52895586616E+02 -0.16986989496E+03  0.17688382653E+02  0.17879206688E+03  0.00000000000E+00 0.  1.
          3    1    3    3  501    0 -0.52895584349E+02  0.16986988942E+03 -0.91084143973E+03  0.92805487473E+03  0.00000000000E+00 0.  1.
         21    1    1    2  502  501 -0.22666611875E-05  0.55451144886E-05  0.12947399360E-04  0.14266085582E-04  0.00000000000E+00 0.  1.
<mgrwt>
<rscale>  1 0.65374901E+03</rscale>
<asrwt>0</asrwt>
<pdfrwt beam="1">  1        1 0.38853520E+00 0.65374901E+03</pdfrwt>
<pdfrwt beam="2">0</pdfrwt>
<totfact> 0.15033493E+00</totfact>
</mgrwt>
</event>
<event>
 6    1  0.2108260E-003  0.6569044E+03  0.7818608E-02  0.9793909E-01
          1   -1    0    0  502    0  0.00000000000E+00  0.00000000000E+00  0.10851993664E+03  0.10851993664E+03  0.00000000000E+00 0.  1.
         13   -1    0    0    0    0 -0.00000000000E+00 -0.00000000000E+00 -0.10000000000E+04  0.10000000000E+04  0.00000000000E+00 0.  1.
    9000005    2    1    2  501    0 -0.72954888227E+00 -0.11902279626E+01 -0.89112324785E+03  0.11070790336E+04  0.65690288092E+03 0.  0.
         13    1    3    3    0    0 -0.76470374162E+02  0.48445181828E+02  0.86537517029E+02  0.12523336465E+03  0.00000000000E+00 0.  1.
          3    1    3    3  501    0  0.75740825280E+02 -0.49635409791E+02 -0.97766076488E+03  0.98184566899E+03  0.00000000000E+00 0.  1.
         21    1    1    2  502  501  0.72954888227E+00  0.11902279626E+01 -0.35681550515E+00  0.14409030083E+01  0.00000000000E+00 0. -1.
<mgrwt>
<rscale>  1 0.65690436E+03</rscale>
<asrwt>0</asrwt>
<pdfrwt beam="1">  1        1 0.39461878E+00 0.65690436E+03</pdfrwt>
<pdfrwt beam="2">0</pdfrwt>
<totfact> 0.14118991E+00</totfact>
</mgrwt>
</event>
<event>
 6    1  0.2108260E-003  0.6410705E+03  0.7818608E-02  0.9823681E-01
          1   -1    0    0  502    0  0.00000000000E+00  0.00000000000E+00  0.10495206373E+03  0.10495206373E+03  0.00000000000E+00 0.  1.
         13   -1    0    0    0    0 -0.00000000000E+00 -0.00000000000E+00 -0.10000000000E+04  0.10000000000E+04  0.00000000000E+00 0.  1.
    9000005    2    1    2  501    0  0.15331204854E+01 -0.77290569780E+00 -0.89688338760E+03  0.11024387545E+04  0.64106820905E+03 0.  0.
         13    1    3    3    0    0 -0.24200584569E+02 -0.19685518170E+03 -0.88210052039E+03  0.90412330958E+03  0.00000000000E+00 0.  1.
          3    1    3    3  501    0  0.25733705054E+02  0.19608227600E+03 -0.14782867216E+02  0.19831544493E+03  0.00000000000E+00 0.  1.
         21    1    1    2  502  501 -0.15331204854E+01  0.77290569780E+00  0.18354513329E+01  0.25133092201E+01  0.00000000000E+00 0.  1.
<mgrwt>
<rscale>  1 0.64107051E+03</rscale>
<asrwt>0</asrwt>
<pdfrwt beam="1">  1        1 0.38164467E+00 0.64107051E+03</pdfrwt>
<pdfrwt beam="2">0</pdfrwt>
<totfact> 0.16164324E+00</totfact>
</mgrwt>
</event>
<event>
 6    1  0.2108260E-003  0.6414413E+03  0.7818608E-02  0.9822973E-01
          1   -1    0    0  502    0  0.00000000000E+00  0.00000000000E+00  0.10289154118E+03  0.10289154118E+03  0.00000000000E+00 0.  1.
         13   -1    0    0    0    0 -0.00000000000E+00 -0.00000000000E+00 -0.10000000000E+04  0.10000000000E+04  0.00000000000E+00 0.  1.
    9000005    2    1    2  501    0  0.51846169220E-03  0.27173691208E-02 -0.89713820437E+03  0.11028616673E+04  0.64144126728E+03 0.  0.
         13    1    3    3    0    0  0.12028553042E+03  0.29568515538E+03 -0.39518053267E+03  0.50800194226E+03  0.00000000000E+00 0.  1.
          3    1    3    3  501    0 -0.12028501196E+03 -0.29568243801E+03 -0.50195767170E+03  0.59485972500E+03  0.00000000000E+00 0.  1.
         21    1    1    2  502  501 -0.51846169221E-03 -0.27173691207E-02  0.29745554329E-01  0.29873916714E-01  0.00000000000E+00 0.  1.
<mgrwt>
<rscale>  1 0.64144127E+03</rscale>
<asrwt>0</asrwt>
<pdfrwt beam="1">  1        1 0.37415185E+00 0.64144127E+03</pdfrwt>
<pdfrwt beam="2">0</pdfrwt>
<totfact> 0.17440176E+00</totfact>
</mgrwt>
</event>
<event>
 6    1  0.2108260E-003  0.6597566E+03  0.7818608E-02  0.9788642E-01
          1   -1    0    0  502    0  0.00000000000E+00  0.00000000000E+00  0.11207652631E+03  0.11207652631E+03  0.00000000000E+00 0.  1.
         13   -1    0    0    0    0 -0.00000000000E+00 -0.00000000000E+00 -0.10000000000E+04  0.10000000000E+04  0.00000000000E+00 0.  1.
    9000005    2    1    2  501    0  0.70673117642E+00  0.39627303271E+01 -0.88973829450E+03  0.11076610677E+04  0.65974434851E+03 0.  0.
         13    1    3    3    0    0  0.49838722443E+02 -0.30143078161E+03 -0.24163895857E+03  0.38953023074E+03  0.00000000000E+00 0.  1.
          1    1    3    3  501    0 -0.49131991267E+02  0.30539351194E+03 -0.64809933593E+03  0.71813083692E+03  0.00000000000E+00 0.  1.
         21    1    1    2  502  501 -0.70673117642E+00 -0.39627303271E+01  0.18148208153E+01  0.44154586617E+01  0.00000000000E+00 0. -1.
<mgrwt>
<rscale>  1 0.65975663E+03</rscale>
<asrwt>0</asrwt>
<pdfrwt beam="1">  1        1 0.40755186E+00 0.65975663E+03</pdfrwt>
<pdfrwt beam="2">0</pdfrwt>
<totfact> 0.12355795E+00</totfact>
</mgrwt>
</event>
<event>
 6    1  0.2108260E-003  0.6522674E+03  0.7818608E-02  0.9802534E-01
          1   -1    0    0  502    0  0.00000000000E+00  0.00000000000E+00  0.13081010281E+03  0.13081010281E+03  0.00000000000E+00 0.  1.
         13   -1    0    0    0    0 -0.00000000000E+00 -0.00000000000E+00 -0.10000000000E+04  0.10000000000E+04  0.00000000000E+00 0.  1.
    9000005    2    1    2  501    0  0.18509652498E+01  0.90735846663E-01 -0.89359795280E+03  0.11063317964E+04  0.65226475315E+03 0.  0.
         13    1    3    3    0    0 -0.87188570347E+02  0.22290253925E+03 -0.82169689268E+03  0.85584646534E+03  0.00000000000E+00 0.  1.
          1    1    3    3  501    0  0.89039535597E+02 -0.22281180340E+03 -0.71901060123E+02  0.25048533107E+03  0.00000000000E+00 0.  1.
         21    1    1    2  502  501 -0.18509652498E+01 -0.90735846663E-01  0.24408055611E+02  0.24478306397E+02  0.00000000000E+00 0. -1.
<mgrwt>
<rscale>  1 0.65226739E+03</rscale>
<asrwt>0</asrwt>
<pdfrwt beam="1">  1        1 0.47567410E+00 0.65226739E+03</pdfrwt>
<pdfrwt beam="2">0</pdfrwt>
<totfact> 0.60315017E-01</totfact>
</mgrwt>
</event>
<event>
 6    1  0.2108260E-003  0.6511515E+03  0.7818608E-02  0.9804621E-01
          1   -1    0    0  502    0  0.00000000000E+00  0.00000000000E+00  0.10635733434E+03  0.10635733434E+03  0.00000000000E+00 0.  1.
         13   -1    0    0    0    0 -0.00000000000E+00 -0.00000000000E+00 -0.10000000000E+04  0.10000000000E+04  0.00000000000E+00 0.  1.
    9000005    2    1    2  501    0  0.32893959243E-01  0.34069945533E-01 -0.89399870488E+03  0.11059981593E+04  0.65115147381E+03 0.  0.
         13    1    3    3    0    0  0.10280624209E+03 -0.49123672716E+02 -0.96503691036E+03  0.97173993280E+03  0.00000000000E+00 0.  1.
          3    1    3    3  501    0 -0.10277334813E+03  0.49157742662E+02  0.71038205485E+02  0.13425822652E+03  0.00000000000E+00 0.  1.
         21    1    1    2  502  501 -0.32893959243E-01 -0.34069945533E-01  0.35603921696E+00  0.35917502385E+00  0.00000000000E+00 0.  1.
<mgrwt>
<rscale>  1 0.65115148E+03</rscale>
<asrwt>0</asrwt>
<pdfrwt beam="1">  1        1 0.38675476E+00 0.65115148E+03</pdfrwt>
<pdfrwt beam="2">0</pdfrwt>
<totfact> 0.15316331E+00</totfact>
</mgrwt>
</event>
<event>
 6    1  0.2108260E-003  0.6206968E+03  0.7818608E-02  0.9863373E-01
          1   -1    0    0  502    0  0.00000000000E+00  0.00000000000E+00  0.96344921935E+02  0.96344921935E+02  0.00000000000E+00 0.  1.
         13   -1    0    0    0    0 -0.00000000000E+00 -0.00000000000E+00 -0.10000000000E+04  0.10000000000E+04  0.00000000000E+00 0.  1.
    9000005    2    1    2  501    0 -0.27262433690E-01 -0.18617521613E-02 -0.90367661994E+03  0.10963101260E+04  0.62069675217E+03 0.  0.
         13    1    3    3    0    0 -0.70947827325E+02  0.29123611898E+03 -0.30982048718E+03  0.43109257182E+03  0.00000000000E+00 0.  1.
          1    1    3    3  501    0  0.70920564892E+02 -0.29123798074E+03 -0.59385613276E+03  0.66521755416E+03  0.00000000000E+00 0.  1.
         21    1    1    2  502  501  0.27262433690E-01  0.18617521613E-02  0.21541870513E-01  0.34795956619E-01  0.00000000000E+00 0.  1.
<mgrwt>
<rscale>  1 0.62069675E+03</rscale>
<asrwt>0</asrwt>
<pdfrwt beam="1">  1        1 0.35034591E+00 0.62069675E+03</pdfrwt>
<pdfrwt beam="2">0</pdfrwt>
<totfact> 0.22253637E+00</totfact>
</mgrwt>
</event>
<event>
 6    1  0.2108260E-003  0.6595977E+03  0.7818608E-02  0.9788935E-01
          1   -1    0    0  502    0  0.00000000000E+00  0.00000000000E+00  0.11008823849E+03  0.11008823849E+03  0.00000000000E+00 0.  1.
         13   -1    0    0    0    0 -0.00000000000E+00 -0.00000000000E+00 -0.10000000000E+04  0.10000000000E+04  0.00000000000E+00 0.  1.
    9000005    2    1    2  501    0  0.32107102465E+01 -0.15151476357E+01 -0.88760875278E+03  0.11058564325E+04  0.65958816467E+03 0.  0.
         13    1    3    3    0    0 -0.16849640351E+03 -0.27094709613E+03 -0.58205434642E+03  0.66377001219E+03  0.00000000000E+00 0.  1.
          1    1    3    3  501    0  0.17170711376E+03  0.26943194849E+03 -0.30555440636E+03  0.44208642032E+03  0.00000000000E+00 0.  1.
         21    1    1    2  502  501 -0.32107102465E+01  0.15151476357E+01 -0.23030087306E+01  0.42318059806E+01  0.00000000000E+00 0.  1.
<mgrwt>
<rscale>  1 0.65959772E+03</rscale>
<asrwt>0</asrwt>
<pdfrwt beam="1">  1        1 0.40032171E+00 0.65959772E+03</pdfrwt>
<pdfrwt beam="2">0</pdfrwt>
<totfact> 0.13310431E+00</totfact>
</mgrwt>
</event>
<event>
 6    1  0.2108260E-003  0.6347718E+03  0.7818608E-02  0.9835781E-01
          1   -1    0    0  502    0  0.00000000000E+00  0.00000000000E+00  0.10554003445E+03  0.10554003445E+03  0.00000000000E+00 0.  1.
         13   -1    0    0    0    0 -0.00000000000E+00 -0.00000000000E+00 -0.10000000000E+04  0.10000000000E+04  0.00000000000E+00 0.  1.
    9000005    2    1    2  501    0  0.96750227892E+00 -0.15604357198E+01 -0.89907244803E+03  0.11005755592E+04  0.63476918922E+03 0.  0.
         13    1    3    3    0    0 -0.20603980747E+03 -0.18003611189E+03 -0.72900555940E+03  0.77866199951E+03  0.00000000000E+00 0.  1.
          1    1    3    3  501    0  0.20700730975E+03  0.17847567617E+03 -0.17006688863E+03  0.32191355965E+03  0.00000000000E+00 0.  1.
         21    1    1    2  502  501 -0.96750227892E+00  0.15604357198E+01  0.46124824811E+01  0.49644752929E+01  0.00000000000E+00 0. -1.
<mgrwt>
<rscale>  1 0.63477184E+03</rscale>
<asrwt>0</asrwt>
<pdfrwt beam="1">  1        1 0.38378275E+00 0.63477184E+03</pdfrwt>
<pdfrwt beam="2">0</pdfrwt>
<totfact> 0.15835302E+00</totfact>
</mgrwt>
</event>
<event>
 6    1  0.2108260E-003  0.6595426E+03  0.7818608E-02  0.9789036E-01
          1   -1    0    0  502    0  0.00000000000E+00  0.00000000000E+00  0.10874928972E+03  0.10874928972E+03  0.00000000000E+00 0.  1.
         13   -1    0    0    0    0 -0.00000000000E+00 -0.00000000000E+00 -0.10000000000E+04  0.10000000000E+04  0.00000000000E+00 0.  1.
    9000005    2    1    2  501    0  0.23752684299E-04  0.60977735075E-05 -0.89125088330E+03  0.11087491150E+04  0.65954261648E+03 0.  0.
         13    1    3    3    0    0 -0.12211355064E+03  0.23377667685E+03 -0.11284704830E+03  0.28687577486E+03  0.00000000000E+00 0.  1.
          3    1    3    3  501    0  0.12211357439E+03 -0.23377667075E+03 -0.77840383500E+03  0.82187334011E+03  0.00000000000E+00 0.  1.
         21    1    1    2  502  501 -0.23752684303E-04 -0.60977735183E-05  0.17302145775E-03  0.17475067294E-03  0.00000000000E+00 0.  1.
<mgrwt>
<rscale>  1 0.65954262E+03</rscale>
<asrwt>0</asrwt>
<pdfrwt beam="1">  1        1 0.39545280E+00 0.65954262E+03</pdfrwt>
<pdfrwt beam="2">0</pdfrwt>
<totfact> 0.13992052E+00</totfact>
</mgrwt>
</event>
<event>
 6    1  0.2108260E-003  0.4982769E+03  0.7818608E-02  0.1014230E+00
          1   -1    0    0  502    0  0.00000000000E+00  0.00000000000E+00  0.83921595220E+02  0.83921595220E+02  0.00000000000E+00 0.  1.
         13   -1    0    0    0    0 -0.00000000000E+00 -0.00000000000E+00 -0.10000000000E+04  0.10000000000E+04  0.00000000000E+00 0.  1.
    9000005    2    1    2  501    0  0.25125083614E+01 -0.17360414951E+01 -0.93781668114E+03  0.10619698482E+04  0.49826750296E+03 0.  0.
         13    1    3    3    0    0 -0.15671752114E+03 -0.13509895590E+03 -0.17378559598E+03  0.27021018243E+03  0.00000000000E+00 0.  1.
          1    1    3    3  501    0  0.15923002951E+03  0.13336291441E+03 -0.76403108516E+03  0.79175966576E+03  0.00000000000E+00 0.  1.
         21    1    1    2  502  501 -0.25125083614E+01  0.17360414951E+01  0.21738276361E+02  0.21951747026E+02  0.00000000000E+00 0.  1.
<mgrwt>
<rscale>  1 0.49827686E+03</rscale>
<asrwt>0</asrwt>
<pdfrwt beam="1">  1        1 0.30517008E+00 0.49827686E+03</pdfrwt>
<pdfrwt beam="2">0</pdfrwt>
<totfact> 0.35723822E+00</totfact>
</mgrwt>
</event>
<event>
 6    1  0.2108260E-003  0.6466928E+03  0.7818608E-02  0.9813005E-01
          1   -1    0    0  502    0  0.00000000000E+00  0.00000000000E+00  0.10456034858E+03  0.10456034858E+03  0.00000000000E+00 0.  1.
         13   -1    0    0    0    0 -0.00000000000E+00 -0.00000000000E+00 -0.10000000000E+04  0.10000000000E+04  0.00000000000E+00 0.  1.
    9000005    2    1    2  501    0  0.54155213275E-02 -0.51893103123E-02 -0.89544497713E+03  0.11045511497E+04  0.64669276716E+03 0.  0.
         13    1    3    3    0    0 -0.22997905509E+03  0.17614309457E+03 -0.69306399477E+03  0.75116872698E+03  0.00000000000E+00 0.  1.
          1    1    3    3  501    0  0.22998447062E+03 -0.17614828388E+03 -0.20238098236E+03  0.35338242268E+03  0.00000000000E+00 0.  1.
         21    1    1    2  502  501 -0.54155213275E-02  0.51893103123E-02  0.53257084521E-02  0.91989120706E-02  0.00000000000E+00 0. -1.
<mgrwt>
<rscale>  1 0.64669277E+03</rscale>
<asrwt>0</asrwt>
<pdfrwt beam="1">  1        1 0.38022025E+00 0.64669277E+03</pdfrwt>
<pdfrwt beam="2">0</pdfrwt>
<totfact> 0.16382999E+00</totfact>
</mgrwt>
</event>
<event>
 6    1  0.2108260E-003  0.6815818E+03  0.7818608E-02  0.9749259E-01
          1   -1    0    0  502    0  0.00000000000E+00  0.00000000000E+00  0.11615867228E+03  0.11615867228E+03  0.00000000000E+00 0.  1.
         13   -1    0    0    0    0 -0.00000000000E+00 -0.00000000000E+00 -0.10000000000E+04  0.10000000000E+04  0.00000000000E+00 0.  1.
    9000005    2    1    2  501    0 -0.22994421429E-01  0.25110512306E-01 -0.88384401249E+03  0.11161245184E+04  0.68158176394E+03 0.  0.
         13    1    3    3    0    0  0.13337109815E+03 -0.31341706070E+03 -0.45902785999E+03  0.57159835550E+03  0.00000000000E+00 0.  1.
          3    1    3    3  501    0 -0.13339409257E+03  0.31344217122E+03 -0.42481615250E+03  0.54452616288E+03  0.00000000000E+00 0.  1.
         21    1    1    2  502  501  0.22994421429E-01 -0.25110512306E-01  0.26847683632E-02  0.34153904993E-01  0.00000000000E+00 0. -1.
<mgrwt>
<rscale>  1 0.68158176E+03</rscale>
<asrwt>0</asrwt>
<pdfrwt beam="1">  1        1 0.42239606E+00 0.68158176E+03</pdfrwt>
<pdfrwt beam="2">0</pdfrwt>
<totfact> 0.10550536E+00</totfact>
</mgrwt>
</event>
<event>
 6    1  0.2108260E-003  0.6410335E+03  0.7818608E-02  0.9823751E-01
          1   -1    0    0  502    0  0.00000000000E+00  0.00000000000E+00  0.10273211281E+03  0.10273211281E+03  0.00000000000E+00 0.  1.
         13   -1    0    0    0    0 -0.00000000000E+00 -0.00000000000E+00 -0.10000000000E+04  0.10000000000E+04  0.00000000000E+00 0.  1.
    9000005    2    1    2  501    0 -0.10993057771E-05 -0.30001705454E-04 -0.89726901096E+03  0.11027309886E+04  0.64103350557E+03 0.  0.
         13    1    3    3    0    0  0.12288222511E+03  0.29591810876E+03 -0.46233297683E+03  0.56251164415E+03  0.00000000000E+00 0.  1.
          3    1    3    3  501    0 -0.12288222621E+03 -0.29591813876E+03 -0.43493603413E+03  0.54021934448E+03  0.00000000000E+00 0.  1.
         21    1    1    2  502  501  0.10993057743E-05  0.30001705442E-04  0.11237761170E-02  0.11241770643E-02  0.00000000000E+00 0. -1.
<mgrwt>
<rscale>  1 0.64103351E+03</rscale>
<asrwt>0</asrwt>
<pdfrwt beam="1">  1        1 0.37357211E+00 0.64103351E+03</pdfrwt>
<pdfrwt beam="2">0</pdfrwt>
<totfact> 0.17544210E+00</totfact>
</mgrwt>
</event>
<event>
 6    1  0.2293269E-003  0.6698942E+03  0.7818608E-02  0.9770149E-01
          1   -1    0    0  502    0  0.00000000000E+00  0.00000000000E+00  0.11218975329E+03  0.11218975329E+03  0.00000000000E+00 0.  1.
         13   -1    0    0    0    0 -0.00000000000E+00 -0.00000000000E+00 -0.10000000000E+04  0.10000000000E+04  0.00000000000E+00 0.  1.
    9000005    2    1    2  501    0  0.39483812691E-03 -0.99793724331E-04 -0.88781011078E+03  0.11121893239E+04  0.66989424502E+03 0.  0.
         13    1    3    3    0    0  0.22025038361E+03 -0.20416782454E+03 -0.69013129961E+03  0.75264596110E+03  0.00000000000E+00 0.  1.
          1    1    3    3  501    0 -0.22024998877E+03  0.20416772475E+03 -0.19767881116E+03  0.35954336285E+03  0.00000000000E+00 0.  1.
         21    1    1    2  502  501 -0.39483812692E-03  0.99793724330E-04 -0.13593353582E-03  0.42934119305E-03  0.00000000000E+00 0.  1.
<mgrwt>
<rscale>  1 0.66989425E+03</rscale>
<asrwt>0</asrwt>
<pdfrwt beam="1">  1        1 0.40796360E+00 0.66989425E+03</pdfrwt>
<pdfrwt beam="2">0</pdfrwt>
<totfact> 0.12279837E+00</totfact>
</mgrwt>
</event>
<event>
 6    1  0.2108260E-003  0.6367055E+03  0.7818608E-02  0.9832050E-01
          1   -1    0    0  502    0  0.00000000000E+00  0.00000000000E+00  0.10134878004E+03  0.10134878004E+03  0.00000000000E+00 0.  1.
         13   -1    0    0    0    0 -0.00000000000E+00 -0.00000000000E+00 -0.10000000000E+04  0.10000000000E+04  0.00000000000E+00 0.  1.
    9000005    2    1    2  501    0 -0.16359818181E-04 -0.25993674967E-04 -0.89865153835E+03  0.11013484602E+04  0.63670546044E+03 0.  0.
         13    1    3    3    0    0 -0.14723087491E+02  0.29491533017E+03 -0.65513559887E+03  0.71860592412E+03  0.00000000000E+00 0.  1.
          3    1    3    3  501    0  0.14723071131E+02 -0.29491535617E+03 -0.24351593948E+03  0.38274253605E+03  0.00000000000E+00 0.  1.
         21    1    1    2  502  501  0.16359818181E-04  0.25993674996E-04  0.31838403201E-03  0.31986201186E-03  0.00000000000E+00 0. -1.
<mgrwt>
<rscale>  1 0.63670546E+03</rscale>
<asrwt>0</asrwt>
<pdfrwt beam="1">  1        1 0.36854180E+00 0.63670546E+03</pdfrwt>
<pdfrwt beam="2">0</pdfrwt>
<totfact> 0.18474784E+00</totfact>
</mgrwt>
</event>
<event>
 6    1  0.2108260E-003  0.6582118E+03  0.7818608E-02  0.9791491E-01
          1   -1    0    0  502    0  0.00000000000E+00  0.00000000000E+00  0.10833595672E+03  0.10833595672E+03  0.00000000000E+00 0.  1.
         13   -1    0    0    0    0 -0.00000000000E+00 -0.00000000000E+00 -0.10000000000E+04  0.10000000000E+04  0.00000000000E+00 0.  1.
    9000005    2    1    2  501    0  0.67557676928E-03 -0.18171384202E-02 -0.89168926103E+03  0.11083106646E+04  0.65821181313E+03 0.  0.
         13    1    3    3    0    0  0.13786159507E+03  0.63782482618E+02 -0.93744136107E+03  0.94966853688E+03  0.00000000000E+00 0.  1.
          1    1    3    3  501    0 -0.13786091949E+03 -0.63784299756E+02  0.45752100044E+02  0.15864212768E+03  0.00000000000E+00 0.  1.
         21    1    1    2  502  501 -0.67557676929E-03  0.18171384202E-02  0.25217750989E-01  0.25292160069E-01  0.00000000000E+00 0. -1.
<mgrwt>
<rscale>  1 0.65821181E+03</rscale>
<asrwt>0</asrwt>
<pdfrwt beam="1">  1        1 0.39394976E+00 0.65821181E+03</pdfrwt>
<pdfrwt beam="2">0</pdfrwt>
<totfact> 0.14212537E+00</totfact>
</mgrwt>
</event>
<event>
 6    1  0.2108260E-003  0.6433671E+03  0.7818608E-02  0.9819306E-01
          1   -1    0    0  502    0  0.00000000000E+00  0.00000000000E+00  0.10348620395E+03  0.10348620395E+03  0.00000000000E+00 0.  1.
         13   -1    0    0    0    0 -0.00000000000E+00 -0.00000000000E+00 -0.10000000000E+04  0.10000000000E+04  0.00000000000E+00 0.  1.
    9000005    2    1    2  501    0  0.55540627020E-02 -0.58998497153E-02 -0.89651646967E+03  0.11034776714E+04  0.64336707319E+03 0.  0.
         13    1    3    3    0    0  0.82700754143E+02 -0.29653764235E+03 -0.60832082460E+03  0.68178311339E+03  0.00000000000E+00 0.  1.
          3    1    3    3  501    0 -0.82695200080E+02  0.29653174250E+03 -0.28819564507E+03  0.42169455802E+03  0.00000000000E+00 0.  1.
         21    1    1    2  502  501 -0.55540627020E-02  0.58998497153E-02  0.26736156306E-02  0.85325295019E-02  0.00000000000E+00 0.  1.
<mgrwt>
<rscale>  1 0.64336707E+03</rscale>
<asrwt>0</asrwt>
<pdfrwt beam="1">  1        1 0.37631426E+00 0.64336707E+03</pdfrwt>
<pdfrwt beam="2">0</pdfrwt>
<totfact> 0.17056042E+00</totfact>
</mgrwt>
</event>
<event>
 6    1  0.2108260E-003  0.6465322E+03  0.7818608E-02  0.9813308E-01
          1   -1    0    0  502    0  0.00000000000E+00  0.00000000000E+00  0.10450118484E+03  0.10450118484E+03  0.00000000000E+00 0.  1.
         13   -1    0    0    0    0 -0.00000000000E+00 -0.00000000000E+00 -0.10000000000E+04  0.10000000000E+04  0.00000000000E+00 0.  1.
    9000005    2    1    2  501    0 -0.29252515242E-03 -0.15517645755E-03 -0.89549889503E+03  0.11045008442E+04  0.64653216769E+03 0.  0.
         13    1    3    3    0    0 -0.28125025043E+03  0.13688810206E+03 -0.30832333443E+03  0.43920762107E+03  0.00000000000E+00 0.  1.
          3    1    3    3  501    0  0.28124995791E+03 -0.13688825723E+03 -0.58717556059E+03  0.66529322313E+03  0.00000000000E+00 0.  1.
         21    1    1    2  502  501  0.29252515241E-03  0.15517645755E-03  0.79864390967E-04  0.34063032560E-03  0.00000000000E+00 0.  1.
<mgrwt>
<rscale>  1 0.64653217E+03</rscale>
<asrwt>0</asrwt>
<pdfrwt beam="1">  1        1 0.38000511E+00 0.64653217E+03</pdfrwt>
<pdfrwt beam="2">0</pdfrwt>
<totfact> 0.16419334E+00</totfact>
</mgrwt>
</event>
<event>
 6    1  0.2108260E-003  0.6445673E+03  0.7818608E-02  0.9817027E-01
          1   -1    0    0  502    0  0.00000000000E+00  0.00000000000E+00  0.10411529683E+03  0.10411529683E+03  0.00000000000E+00 0.  1.
         13   -1    0    0    0    0 -0.00000000000E+00 -0.00000000000E+00 -0.10000000000E+04  0.10000000000E+04  0.00000000000E+00 0.  1.
    9000005    2    1    2  501    0  0.11232185987E-01  0.66583313227E-02 -0.89613305746E+03  0.11038665995E+04  0.64456730657E+03 0.  0.
         13    1    3    3    0    0  0.48388522702E+02 -0.94273441449E+02 -0.96931181274E+03  0.97508682752E+03  0.00000000000E+00 0.  1.
          3    1    3    3  501    0 -0.48377290516E+02  0.94280099781E+02  0.73178755279E+02  0.12877977200E+03  0.00000000000E+00 0.  1.
         21    1    1    2  502  501 -0.11232185987E-01 -0.66583313226E-02  0.24835429304E+00  0.24869730648E+00  0.00000000000E+00 0.  1.
<mgrwt>
<rscale>  1 0.64456731E+03</rscale>
<asrwt>0</asrwt>
<pdfrwt beam="1">  1        1 0.37860188E+00 0.64456731E+03</pdfrwt>
<pdfrwt beam="2">0</pdfrwt>
<totfact> 0.16661019E+00</totfact>
</mgrwt>
</event>
<event>
 6    1  0.2108260E-003  0.6638530E+03  0.7818608E-02  0.9781127E-01
          1   -1    0    0  502    0  0.00000000000E+00  0.00000000000E+00  0.11035959745E+03  0.11035959745E+03  0.00000000000E+00 0.  1.
         13   -1    0    0    0    0 -0.00000000000E+00 -0.00000000000E+00 -0.10000000000E+04  0.10000000000E+04  0.00000000000E+00 0.  1.
    9000005    2    1    2  501    0 -0.51384815280E-02 -0.27950827199E-01 -0.88982358735E+03  0.11101742213E+04  0.66385298385E+03 0.  0.
         13    1    3    3    0    0  0.28312479648E+03  0.20763979701E+02 -0.15727668441E+03  0.32454082747E+03  0.00000000000E+00 0.  1.
          3    1    3    3  501    0 -0.28312993497E+03 -0.20791930529E+02 -0.73254690294E+03  0.78563339381E+03  0.00000000000E+00 0.  1.
         21    1    1    2  502  501  0.51384815281E-02  0.27950827199E-01  0.18318480918E+00  0.18537617713E+00  0.00000000000E+00 0. -1.
<mgrwt>
<rscale>  1 0.66385298E+03</rscale>
<asrwt>0</asrwt>
<pdfrwt beam="1">  1        1 0.40130847E+00 0.66385298E+03</pdfrwt>
<pdfrwt beam="2">0</pdfrwt>
<totfact> 0.13165679E+00</totfact>
</mgrwt>
</event>
<event>
 6    1  0.2108260E-003  0.6417401E+03  0.7818608E-02  0.9822403E-01
          1   -1    0    0  502    0  0.00000000000E+00  0.00000000000E+00  0.10695316203E+03  0.10695316203E+03  0.00000000000E+00 0.  1.
         13   -1    0    0    0    0 -0.00000000000E+00 -0.00000000000E+00 -0.10000000000E+04  0.10000000000E+04  0.00000000000E+00 0.  1.
    9000005    2    1    2  501    0 -0.30542941346E-01 -0.89633819646E-01 -0.89704180633E+03  0.11029570715E+04  0.64174004891E+03 0.  0.
         13    1    3    3    0    0  0.31834045031E+03 -0.34851426500E+02 -0.41431752290E+03  0.52365472787E+03  0.00000000000E+00 0.  1.
          3    1    3    3  501    0 -0.31837099325E+03  0.34761792680E+02 -0.48272428342E+03  0.57930234367E+03  0.00000000000E+00 0.  1.
         21    1    1    2  502  501  0.30542941346E-01  0.89633819646E-01  0.39949683572E+01  0.39960904980E+01  0.00000000000E+00 0.  1.
<mgrwt>
<rscale>  1 0.64174006E+03</rscale>
<asrwt>0</asrwt>
<pdfrwt beam="1">  1        1 0.38892141E+00 0.64174006E+03</pdfrwt>
<pdfrwt beam="2">0</pdfrwt>
<totfact> 0.15007987E+00</totfact>
</mgrwt>
</event>
<event>
 6    1  0.2108260E-003  0.5981359E+03  0.7818608E-02  0.9909281E-01
          1   -1    0    0  502    0  0.00000000000E+00  0.00000000000E+00  0.89759274175E+02  0.89759274175E+02  0.00000000000E+00 0.  1.
         13   -1    0    0    0    0 -0.00000000000E+00 -0.00000000000E+00 -0.10000000000E+04  0.10000000000E+04  0.00000000000E+00 0.  1.
    9000005    2    1    2  501    0 -0.21358923557E-01  0.23248302531E+00 -0.91051103906E+03  0.10894020994E+04  0.59813587710E+03 0.  0.
         13    1    3    3    0    0  0.14183429150E+03 -0.26056833156E+03 -0.38779798434E+03  0.48826232531E+03  0.00000000000E+00 0.  1.
          3    1    3    3  501    0 -0.14185565043E+03  0.26080081459E+03 -0.52271305472E+03  0.60113977411E+03  0.00000000000E+00 0.  1.
         21    1    1    2  502  501  0.21358923557E-01 -0.23248302531E+00  0.27031323324E+00  0.35717475378E+00  0.00000000000E+00 0. -1.
<mgrwt>
<rscale>  1 0.59813592E+03</rscale>
<asrwt>0</asrwt>
<pdfrwt beam="1">  1        1 0.32639805E+00 0.59813592E+03</pdfrwt>
<pdfrwt beam="2">0</pdfrwt>
<totfact> 0.28386673E+00</totfact>
</mgrwt>
</event>
<event>
 6    1  0.2108260E-003  0.6397272E+03  0.7818608E-02  0.9826249E-01
          1   -1    0    0  502    0  0.00000000000E+00  0.00000000000E+00  0.10288496665E+03  0.10288496665E+03  0.00000000000E+00 0.  1.
         13   -1    0    0    0    0 -0.00000000000E+00 -0.00000000000E+00 -0.10000000000E+04  0.10000000000E+04  0.00000000000E+00 0.  1.
    9000005    2    1    2  501    0  0.12567450284E+01 -0.64393218179E+00 -0.89649672456E+03  0.11013434212E+04  0.63972569133E+03 0.  0.
         13    1    3    3    0    0 -0.20137976340E+03 -0.43127442714E+02 -0.27204192036E+02  0.20773505599E+03  0.00000000000E+00 0.  1.
          1    1    3    3  501    0  0.20263650843E+03  0.42483510532E+02 -0.86929253253E+03  0.89360836518E+03  0.00000000000E+00 0.  1.
         21    1    1    2  502  501 -0.12567450284E+01  0.64393218179E+00 -0.61830878173E+00  0.15415454813E+01  0.00000000000E+00 0. -1.
<mgrwt>
<rscale>  1 0.63972725E+03</rscale>
<asrwt>0</asrwt>
<pdfrwt beam="1">  1        1 0.37412794E+00 0.63972725E+03</pdfrwt>
<pdfrwt beam="2">0</pdfrwt>
<totfact> 0.17449874E+00</totfact>
</mgrwt>
</event>
<event>
 6    1  0.2108260E-003  0.6492719E+03  0.7818608E-02  0.9808146E-01
          1   -1    0    0  502    0  0.00000000000E+00  0.00000000000E+00  0.10882454128E+03  0.10882454128E+03  0.00000000000E+00 0.  1.
         13   -1    0    0    0    0 -0.00000000000E+00 -0.00000000000E+00 -0.10000000000E+04  0.10000000000E+04  0.00000000000E+00 0.  1.
    9000005    2    1    2  501    0 -0.53351993796E-01  0.10074782360E+00 -0.89461045410E+03  0.11053876546E+04  0.64927189177E+03 0.  0.
         13    1    3    3    0    0 -0.55027823550E+02 -0.29650867461E+03 -0.65166266631E+03  0.71805966754E+03  0.00000000000E+00 0.  1.
          1    1    3    3  501    0  0.54974471556E+02  0.29660942243E+03 -0.24294778779E+03  0.38732798710E+03  0.00000000000E+00 0.  1.
         21    1    1    2  502  501  0.53351993796E-01 -0.10074782360E+00  0.34349953805E+01  0.34368866468E+01  0.00000000000E+00 0.  1.
<mgrwt>
<rscale>  1 0.64927190E+03</rscale>
<asrwt>0</asrwt>
<pdfrwt beam="1">  1        1 0.39572644E+00 0.64927190E+03</pdfrwt>
<pdfrwt beam="2">0</pdfrwt>
<totfact> 0.13979803E+00</totfact>
</mgrwt>
</event>
<event>
 6    1  0.2108260E-003  0.6513216E+03  0.7818608E-02  0.9804303E-01
          1   -1    0    0  502    0  0.00000000000E+00  0.00000000000E+00  0.10606146904E+03  0.10606146904E+03  0.00000000000E+00 0.  1.
         13   -1    0    0    0    0 -0.00000000000E+00 -0.00000000000E+00 -0.10000000000E+04  0.10000000000E+04  0.00000000000E+00 0.  1.
    9000005    2    1    2  501    0  0.15517751212E-03  0.59123825400E-03 -0.89394503783E+03  0.11060549335E+04  0.65132156826E+03 0.  0.
         13    1    3    3    0    0 -0.34332578318E+02  0.28706842459E+03 -0.19242793380E+03  0.34729744605E+03  0.00000000000E+00 0.  1.
          1    1    3    3  501    0  0.34332733495E+02 -0.28706783335E+03 -0.70151710403E+03  0.75875748746E+03  0.00000000000E+00 0.  1.
         21    1    1    2  502  501 -0.15517751212E-03 -0.59123825398E-03  0.65068742683E-02  0.65355225863E-02  0.00000000000E+00 0. -1.
<mgrwt>
<rscale>  1 0.65132157E+03</rscale>
<asrwt>0</asrwt>
<pdfrwt beam="1">  1        1 0.38567888E+00 0.65132157E+03</pdfrwt>
<pdfrwt beam="2">0</pdfrwt>
<totfact> 0.15484702E+00</totfact>
</mgrwt>
</event>
