<event>
 6    1  0.3354403E-003  0.7150277E+03  0.7818608E-02  0.9691873E-01
          1   -1    0    0  502    0  0.00000000000E+00  0.00000000000E+00  0.12855696166E+03  0.12855696166E+03  0.00000000000E+00 0.  1.
         13   -1    0    0    0    0 -0.00000000000E+00 -0.00000000000E+00 -0.10000000000E+04  0.10000000000E+04  0.00000000000E+00 0.  1.
    9000005    2    1    2  501    0 -0.36565296560E+00 -0.10327120835E+00 -0.87212844811E+03  0.11277732821E+04  0.71502755301E+03 0.  0.
         13    1    3    3    0    0  0.30521937838E+03 -0.62363290613E+02 -0.15969634068E+03  0.35007280697E+03  0.00000000000E+00 0.  1.
          3    1    3    3  501    0 -0.30558503134E+03  0.62260019405E+02 -0.71243210742E+03  0.77770047517E+03  0.00000000000E+00 0.  1.
         21    1    1    2  502  501  0.36565296560E+00  0.10327120835E+00  0.68540976226E+00  0.78367951098E+00  0.00000000000E+00 0. -1.
<mgrwt>
<rscale>  1 0.71502765E+03</rscale>
<asrwt>0</asrwt>
<pdfrwt beam="1">  1        1 0.46748085E+00 0.71502765E+03</pdfrwt>
<pdfrwt beam="2">0</pdfrwt>
<totfact> 0.65043651E-01</totfact>
</mgrwt>
</event>
<event>
 6    1  0.3354403E-003  0.4755363E+03  0.7818608E-02  0.1020369E+00
          1   -1    0    0  502    0  0.00000000000E+00  0.00000000000E+00  0.56535352817E+02  0.56535352817E+02  0.00000000000E+00 0.  1.
         13   -1    0    0    0    0 -0.00000000000E+00 -0.00000000000E+00 -0.10000000000E+04  0.10000000000E+04  0.00000000000E+00 0.  1.
    9000005    2    1    2  501    0  0.31754089445E-02  0.23947678061E-02 -0.94346355335E+03  0.10565312279E+04  0.47553628579E+03 0.  0.
         13    1    3    3    0    0  0.21550713853E+03 -0.40492137884E+02 -0.26748454469E+03  0.34587703253E+03  0.00000000000E+00 0.  1.
          1    1    3    3  501    0 -0.21550396312E+03  0.40494532652E+02 -0.67597900866E+03  0.71065419540E+03  0.00000000000E+00 0.  1.
         21    1    1    2  502  501 -0.31754089445E-02 -0.23947678061E-02 -0.10938370847E-02  0.41248774985E-02  0.00000000000E+00 0. -1.
<mgrwt>
<rscale>  1 0.47553629E+03</rscale>
<asrwt>0</asrwt>
<pdfrwt beam="1">  1        1 0.20558353E+00 0.47553629E+03</pdfrwt>
<pdfrwt beam="2">0</pdfrwt>
<totfact> 0.97378651E+00</totfact>
</mgrwt>
</event>
<event>
 6    1  0.3354403E-003  0.6614327E+03  0.7818608E-02  0.9785560E-01
          1   -1    0    0  502    0  0.00000000000E+00  0.00000000000E+00  0.11029272795E+03  0.11029272795E+03  0.00000000000E+00 0.  1.
         13   -1    0    0    0    0 -0.00000000000E+00 -0.00000000000E+00 -0.10000000000E+04  0.10000000000E+04  0.00000000000E+00 0.  1.
    9000005    2    1    2  501    0  0.46313682545E-01  0.11085010478E+00 -0.89062232812E+03  0.11093698193E+04  0.66143272543E+03 0.  0.
         13    1    3    3    0    0  0.32850713184E+02  0.31955751946E+03 -0.31317187211E+03  0.44863437126E+03  0.00000000000E+00 0.  1.
          1    1    3    3  501    0 -0.32804399501E+02 -0.31944666935E+03 -0.57745045602E+03  0.66073544807E+03  0.00000000000E+00 0.  1.
         21    1    1    2  502  501 -0.46313682545E-01 -0.11085010478E+00  0.91505606691E+00  0.92290861330E+00  0.00000000000E+00 0.  1.
<mgrwt>
<rscale>  1 0.66143274E+03</rscale>
<asrwt>0</asrwt>
<pdfrwt beam="1">  1        1 0.40106531E+00 0.66143274E+03</pdfrwt>
<pdfrwt beam="2">0</pdfrwt>
<totfact> 0.13204606E+00</totfact>
</mgrwt>
</event>
<event>
 6    1  0.3354403E-003  0.6578925E+03  0.7818608E-02  0.9792081E-01
          1   -1    0    0  502    0  0.00000000000E+00  0.00000000000E+00  0.10821105825E+03  0.10821105825E+03  0.00000000000E+00 0.  1.
         13   -1    0    0    0    0 -0.00000000000E+00 -0.00000000000E+00 -0.10000000000E+04  0.10000000000E+04  0.00000000000E+00 0.  1.
    9000005    2    1    2  501    0 -0.19497347830E-03 -0.21428938913E-03 -0.89179437159E+03  0.11082056207E+04  0.65789246577E+03 0.  0.
         13    1    3    3    0    0  0.31069503015E+03 -0.10431108420E+03 -0.49334386781E+03  0.59228403317E+03  0.00000000000E+00 0.  1.
          3    1    3    3  501    0 -0.31069522513E+03  0.10431086991E+03 -0.39845050378E+03  0.51592158751E+03  0.00000000000E+00 0.  1.
         21    1    1    2  502  501  0.19497347830E-03  0.21428938913E-03  0.54298407337E-02  0.54375642518E-02  0.00000000000E+00 0.  1.
<mgrwt>
<rscale>  1 0.65789247E+03</rscale>
<asrwt>0</asrwt>
<pdfrwt beam="1">  1        1 0.39349559E+00 0.65789247E+03</pdfrwt>
<pdfrwt beam="2">0</pdfrwt>
<totfact> 0.14279587E+00</totfact>
</mgrwt>
</event>
<event>
 6    1  0.3354403E-003  0.6332512E+03  0.7818608E-02  0.9838725E-01
          1   -1    0    0  502    0  0.00000000000E+00  0.00000000000E+00  0.10025193969E+03  0.10025193969E+03  0.00000000000E+00 0.  1.
         13   -1    0    0    0    0 -0.00000000000E+00 -0.00000000000E+00 -0.10000000000E+04  0.10000000000E+04  0.00000000000E+00 0.  1.
    9000005    2    1    2  501    0 -0.18353581723E-04 -0.25489191898E-04 -0.89974822519E+03  0.11002517718E+04  0.63325120823E+03 0.  0.
         13    1    3    3    0    0  0.38750128639E+02 -0.21800738016E+03 -0.84310580718E+03  0.87169730547E+03  0.00000000000E+00 0.  1.
          3    1    3    3  501    0 -0.38750146993E+02  0.21800735467E+03 -0.56642418013E+02  0.22855446638E+03  0.00000000000E+00 0.  1.
         21    1    1    2  502  501  0.18353581722E-04  0.25489191907E-04  0.16487674438E-03  0.16784187112E-03  0.00000000000E+00 0.  1.
<mgrwt>
<rscale>  1 0.63325121E+03</rscale>
<asrwt>0</asrwt>
<pdfrwt beam="1">  1        1 0.36455328E+00 0.63325121E+03</pdfrwt>
<pdfrwt beam="2">0</pdfrwt>
<totfact> 0.19246087E+00</totfact>
</mgrwt>
</event>
<event>
 6    1  0.3354403E-003  0.6499019E+03  0.7818608E-02  0.9806963E-01
          1   -1    0    0  502    0  0.00000000000E+00  0.00000000000E+00  0.10582797781E+03  0.10582797781E+03  0.00000000000E+00 0.  1.
         13   -1    0    0    0    0 -0.00000000000E+00 -0.00000000000E+00 -0.10000000000E+04  0.10000000000E+04  0.00000000000E+00 0.  1.
    9000005    2    1    2  501    0 -0.33358784092E-02  0.77682213837E-02 -0.89440680254E+03  0.11055930453E+04  0.64990187976E+03 0.  0.
         13    1    3    3    0    0 -0.24877621125E+03 -0.19713164809E+03 -0.32882789652E+03  0.45703202896E+03  0.00000000000E+00 0.  1.
          3    1    3    3  501    0  0.24877287537E+03  0.19713941631E+03 -0.56557890602E+03  0.64856101634E+03  0.00000000000E+00 0.  1.
         21    1    1    2  502  501  0.33358784092E-02 -0.77682213837E-02  0.23478035150E+00  0.23493251542E+00  0.00000000000E+00 0. -1.
<mgrwt>
<rscale>  1 0.64990188E+03</rscale>
<asrwt>0</asrwt>
<pdfrwt beam="1">  1        1 0.38482982E+00 0.64990188E+03</pdfrwt>
<pdfrwt beam="2">0</pdfrwt>
<totfact> 0.15623301E+00</totfact>
</mgrwt>
</event>
<event>
 6    1  0.3354403E-003  0.6372907E+03  0.7818608E-02  0.9830924E-01
          1   -1    0    0  502    0  0.00000000000E+00  0.00000000000E+00  0.10189585163E+03  0.10189585163E+03  0.00000000000E+00 0.  1.
         13   -1    0    0    0    0 -0.00000000000E+00 -0.00000000000E+00 -0.10000000000E+04  0.10000000000E+04  0.00000000000E+00 0.  1.
    9000005    2    1    2  501    0  0.11156620032E-01 -0.18083618505E-03 -0.89846504072E+03  0.11015347868E+04  0.63729071630E+03 0.  0.
         13    1    3    3    0    0  0.22446813208E+03 -0.11530928699E+03 -0.78553548793E+03  0.82507464922E+03  0.00000000000E+00 0.  1.
          3    1    3    3  501    0 -0.22445697546E+03  0.11530910616E+03 -0.11292955279E+03  0.27646013761E+03  0.00000000000E+00 0.  1.
         21    1    1    2  502  501 -0.11156620032E-01  0.18083618505E-03  0.36089234452E+00  0.36106479641E+00  0.00000000000E+00 0.  1.
<mgrwt>
<rscale>  1 0.63729072E+03</rscale>
<asrwt>0</asrwt>
<pdfrwt beam="1">  1        1 0.37053115E+00 0.63729072E+03</pdfrwt>
<pdfrwt beam="2">0</pdfrwt>
<totfact> 0.18104981E+00</totfact>
</mgrwt>
</event>
<event>
 6    1  0.3354403E-003  0.6535174E+03  0.7818608E-02  0.9800201E-01
          1   -1    0    0  502    0  0.00000000000E+00  0.00000000000E+00  0.10931285697E+03  0.10931285697E+03  0.00000000000E+00 0.  1.
         13   -1    0    0    0    0 -0.00000000000E+00 -0.00000000000E+00 -0.10000000000E+04  0.10000000000E+04  0.00000000000E+00 0.  1.
    9000005    2    1    2  501    0 -0.49792725125E-01  0.42190026545E-01 -0.89322830383E+03  0.11067708582E+04  0.65351734913E+03 0.  0.
         13    1    3    3    0    0 -0.60090903294E+02 -0.21846499095E+03 -0.47886827120E+02  0.23158371519E+03  0.00000000000E+00 0.  1.
          1    1    3    3  501    0  0.60041110569E+02  0.21850718098E+03 -0.84534147671E+03  0.87518714305E+03  0.00000000000E+00 0.  1.
         21    1    1    2  502  501  0.49792725125E-01 -0.42190026545E-01  0.25411608028E+01  0.25419987292E+01  0.00000000000E+00 0. -1.
<mgrwt>
<rscale>  1 0.65351735E+03</rscale>
<asrwt>0</asrwt>
<pdfrwt beam="1">  1        1 0.39750214E+00 0.65351735E+03</pdfrwt>
<pdfrwt beam="2">0</pdfrwt>
<totfact> 0.13716786E+00</totfact>
</mgrwt>
</event>
<event>
 6    1  0.3354403E-003  0.4629019E+03  0.7818608E-02  0.1023943E+00
          1   -1    0    0  502    0  0.00000000000E+00  0.00000000000E+00  0.53576982074E+02  0.53576982074E+02  0.00000000000E+00 0.  1.
         13   -1    0    0    0    0 -0.00000000000E+00 -0.00000000000E+00 -0.10000000000E+04  0.10000000000E+04  0.00000000000E+00 0.  1.
    9000005    2    1    2  501    0  0.87026152622E-03  0.81827648594E-03 -0.94643040885E+03  0.10535694952E+04  0.46290189294E+03 0.  0.
         13    1    3    3    0    0 -0.12133304903E+03  0.18158667233E+03 -0.29877504743E+03  0.37008371664E+03  0.00000000000E+00 0.  1.
          1    1    3    3  501    0  0.12133391929E+03 -0.18158585406E+03 -0.64765536143E+03  0.68348577860E+03  0.00000000000E+00 0.  1.
         21    1    1    2  502  501 -0.87026152621E-03 -0.81827648594E-03  0.73909270455E-02  0.74868373913E-02  0.00000000000E+00 0. -1.
<mgrwt>
<rscale>  1 0.46290189E+03</rscale>
<asrwt>0</asrwt>
<pdfrwt beam="1">  1        1 0.19482580E+00 0.46290189E+03</pdfrwt>
<pdfrwt beam="2">0</pdfrwt>
<totfact> 0.10916214E+01</totfact>
</mgrwt>
</event>
<event>
 6    1  0.3354403E-003  0.6684138E+03  0.7818608E-02  0.9772828E-01
          1   -1    0    0  502    0  0.00000000000E+00  0.00000000000E+00  0.11170490417E+03  0.11170490417E+03  0.00000000000E+00 0.  1.
         13   -1    0    0    0    0 -0.00000000000E+00 -0.00000000000E+00 -0.10000000000E+04  0.10000000000E+04  0.00000000000E+00 0.  1.
    9000005    2    1    2  501    0  0.74042285107E-04  0.15447427199E-03 -0.88830575998E+03  0.11116942386E+04  0.66841376185E+03 0.  0.
         13    1    3    3    0    0 -0.85618949403E+02 -0.31141709165E+03 -0.30124505484E+03  0.44165573984E+03  0.00000000000E+00 0.  1.
          1    1    3    3  501    0  0.85619023445E+02  0.31141724613E+03 -0.58706070514E+03  0.67003849881E+03  0.00000000000E+00 0.  1.
         21    1    1    2  502  501 -0.74042285118E-04 -0.15447427195E-03  0.10664152360E-01  0.10665528122E-01  0.00000000000E+00 0. -1.
<mgrwt>
<rscale>  1 0.66841376E+03</rscale>
<asrwt>0</asrwt>
<pdfrwt beam="1">  1        1 0.40620051E+00 0.66841376E+03</pdfrwt>
<pdfrwt beam="2">0</pdfrwt>
<totfact> 0.12508599E+00</totfact>
</mgrwt>
</event>
<event>
 6    1  0.5561972E-003  0.6662256E+03  0.7818608E-02  0.9776800E-01
          1   -1    0    0  502    0  0.00000000000E+00  0.00000000000E+00  0.11096414357E+03  0.11096414357E+03  0.00000000000E+00 0.  1.
         13   -1    0    0    0    0 -0.00000000000E+00 -0.00000000000E+00 -0.10000000000E+04  0.10000000000E+04  0.00000000000E+00 0.  1.
    9000005    2    1    2  501    0 -0.81043393152E-06 -0.17559949157E-05 -0.88903585827E+03  0.11109641409E+04  0.66622561125E+03 0.  0.
         13    1    3    3    0    0  0.18607836575E+03 -0.10136569136E+03 -0.87312672903E+03  0.89847117179E+03  0.00000000000E+00 0.  1.
          3    1    3    3  501    0 -0.18607836656E+03  0.10136568960E+03 -0.15909129238E+02  0.21249296912E+03  0.00000000000E+00 0.  1.
         21    1    1    2  502  501  0.81043394131E-06  0.17559949094E-05  0.18411337756E-05  0.26702237499E-05  0.00000000000E+00 0. -1.
<mgrwt>
<rscale>  1 0.66622561E+03</rscale>
<asrwt>0</asrwt>
<pdfrwt beam="1">  1        1 0.40350683E+00 0.66622561E+03</pdfrwt>
<pdfrwt beam="2">0</pdfrwt>
<totfact> 0.12865696E+00</totfact>
</mgrwt>
</event>
<event>
 6    1  0.3354403E-003  0.6313740E+03  0.7818608E-02  0.9842371E-01
          1   -1    0    0  502    0  0.00000000000E+00  0.00000000000E+00  0.99928433419E+02  0.99928433419E+02  0.00000000000E+00 0.  1.
         13   -1    0    0    0    0 -0.00000000000E+00 -0.00000000000E+00 -0.10000000000E+04  0.10000000000E+04  0.00000000000E+00 0.  1.
    9000005    2    1    2  501    0  0.27951976579E-03 -0.16262701866E-01 -0.90034145084E+03  0.10996580595E+04  0.63137399331E+03 0.  0.
         13    1    3    3    0    0 -0.44534735063E+02  0.98282279201E+02  0.66542660461E+02  0.12677016484E+03  0.00000000000E+00 0.  1.
          3    1    3    3  501    0  0.44535014582E+02 -0.98298541903E+02 -0.96688411130E+03  0.97288789464E+03  0.00000000000E+00 0.  1.
         21    1    1    2  502  501 -0.27951976579E-03  0.16262701866E-01  0.26988425678E+00  0.27037393672E+00  0.00000000000E+00 0.  1.
<mgrwt>
<rscale>  1 0.63137399E+03</rscale>
<asrwt>0</asrwt>
<pdfrwt beam="1">  1        1 0.36337689E+00 0.63137399E+03</pdfrwt>
<pdfrwt beam="2">0</pdfrwt>
<totfact> 0.19482436E+00</totfact>
</mgrwt>
</event>
<event>
 6    1  0.3354403E-003  0.6424780E+03  0.7818608E-02  0.9820997E-01
          1   -1    0    0  502    0  0.00000000000E+00  0.00000000000E+00  0.10537869271E+03  0.10537869271E+03  0.00000000000E+00 0.  1.
         13   -1    0    0    0    0 -0.00000000000E+00 -0.00000000000E+00 -0.10000000000E+04  0.10000000000E+04  0.00000000000E+00 0.  1.
    9000005    2    1    2  501    0 -0.15271790577E-01  0.13772811911E+00 -0.89680307866E+03  0.11031925252E+04  0.64247798908E+03 0.  0.
         13    1    3    3    0    0  0.11245857492E+03 -0.24011848727E+03 -0.75956895168E+03  0.80451775080E+03  0.00000000000E+00 0.  1.
          3    1    3    3  501    0 -0.11247384671E+03  0.24025621539E+03 -0.13723412698E+03  0.29867477435E+03  0.00000000000E+00 0.  1.
         21    1    1    2  502  501  0.15271790577E-01 -0.13772811911E+00  0.21817713741E+01  0.21861675580E+01  0.00000000000E+00 0. -1.
<mgrwt>
<rscale>  1 0.64247800E+03</rscale>
<asrwt>0</asrwt>
<pdfrwt beam="1">  1        1 0.38319605E+00 0.64247800E+03</pdfrwt>
<pdfrwt beam="2">0</pdfrwt>
<totfact> 0.15907150E+00</totfact>
</mgrwt>
</event>
<event>
 6    1  0.3354403E-003  0.6748076E+03  0.7818608E-02  0.9761312E-01
          3   -1    0    0  502    0  0.00000000000E+00  0.00000000000E+00  0.11384382668E+03  0.11384382668E+03  0.00000000000E+00 0.  1.
         13   -1    0    0    0    0 -0.00000000000E+00 -0.00000000000E+00 -0.10000000000E+04  0.10000000000E+04  0.00000000000E+00 0.  1.
    9000005    2    1    2  501    0  0.17676405807E-03  0.44287271066E-04 -0.88615867429E+03  0.11138413191E+04  0.67480759337E+03 0.  0.
         13    1    3    3    0    0 -0.18906507237E+03  0.22268723181E+03 -0.16439517451E+03  0.33520289110E+03  0.00000000000E+00 0.  1.
          1    1    3    3  501    0  0.18906524913E+03 -0.22268718752E+03 -0.72176349978E+03  0.77863842798E+03  0.00000000000E+00 0.  1.
         21    1    1    2  502  501 -0.17676405808E-03 -0.44287271045E-04  0.25009726898E-02  0.25076026978E-02  0.00000000000E+00 0.  1.
<mgrwt>
<rscale>  1 0.67480759E+03</rscale>
<asrwt>0</asrwt>
<pdfrwt beam="1">  1        3 0.41397842E+00 0.67480759E+03</pdfrwt>
<pdfrwt beam="2">0</pdfrwt>
<totfact> 0.49862553E-02</totfact>
</mgrwt>
</event>
<event>
 6    1  0.3354403E-003  0.6340565E+03  0.7818608E-02  0.9837165E-01
          1   -1    0    0  502    0  0.00000000000E+00  0.00000000000E+00  0.10053983942E+03  0.10053983942E+03  0.00000000000E+00 0.  1.
         13   -1    0    0    0    0 -0.00000000000E+00 -0.00000000000E+00 -0.10000000000E+04  0.10000000000E+04  0.00000000000E+00 0.  1.
    9000005    2    1    2  501    0  0.58612394618E-02  0.12921262115E-02 -0.89949278799E+03  0.11005066646E+04  0.63405649830E+03 0.  0.
         13    1    3    3    0    0 -0.31488112115E+03  0.29690308250E+02 -0.48750916374E+03  0.58111687258E+03  0.00000000000E+00 0.  1.
          3    1    3    3  501    0  0.31488698239E+03 -0.29689016124E+02 -0.41198362425E+03  0.51938979197E+03  0.00000000000E+00 0.  1.
         21    1    1    2  502  501 -0.58612394618E-02 -0.12921262115E-02  0.32627408035E-01  0.33174862069E-01  0.00000000000E+00 0. -1.
<mgrwt>
<rscale>  1 0.63405650E+03</rscale>
<asrwt>0</asrwt>
<pdfrwt beam="1">  1        1 0.36560019E+00 0.63405650E+03</pdfrwt>
<pdfrwt beam="2">0</pdfrwt>
<totfact> 0.19041051E+00</totfact>
</mgrwt>
</event>
<event>
 6    1  0.3354403E-003  0.6557925E+03  0.7818608E-02  0.9795970E-01
          1   -1    0    0  502    0  0.00000000000E+00  0.00000000000E+00  0.10945127886E+03  0.10945127886E+03  0.00000000000E+00 0.  1.
         13   -1    0    0    0    0 -0.00000000000E+00 -0.00000000000E+00 -0.10000000000E+04  0.10000000000E+04  0.00000000000E+00 0.  1.
    9000005    2    1    2  501    0  0.40681908933E-01  0.32212749221E-01 -0.89248367769E+03  0.11075156266E+04  0.65579245621E+03 0.  0.
         13    1    3    3    0    0 -0.91537758008E+02 -0.27150489864E+03 -0.71541939994E+03  0.77066139708E+03  0.00000000000E+00 0.  1.
          1    1    3    3  501    0  0.91578439917E+02  0.27153711139E+03 -0.17706427774E+03  0.33685422956E+03  0.00000000000E+00 0.  1.
         21    1    1    2  502  501 -0.40681908933E-01 -0.32212749221E-01  0.19349565512E+01  0.19356522244E+01  0.00000000000E+00 0. -1.
<mgrwt>
<rscale>  1 0.65579246E+03</rscale>
<asrwt>0</asrwt>
<pdfrwt beam="1">  1        1 0.39800549E+00 0.65579246E+03</pdfrwt>
<pdfrwt beam="2">0</pdfrwt>
<totfact> 0.13640336E+00</totfact>
</mgrwt>
</event>
<event>
 6    1  0.3354403E-003  0.6540841E+03  0.7818608E-02  0.9799146E-01
          1   -1    0    0  502    0  0.00000000000E+00  0.00000000000E+00  0.10703094018E+03  0.10703094018E+03  0.00000000000E+00 0.  1.
         13   -1    0    0    0    0 -0.00000000000E+00 -0.00000000000E+00 -0.10000000000E+04  0.10000000000E+04  0.00000000000E+00 0.  1.
    9000005    2    1    2  501    0 -0.72914214592E-02 -0.17218571576E+00 -0.89290988110E+03  0.11068487227E+04  0.65408409971E+03 0.  0.
         13    1    3    3    0    0 -0.11930779728E+02 -0.28970743869E+03 -0.70282579064E+03  0.76028733747E+03  0.00000000000E+00 0.  1.
          3    1    3    3  501    0  0.11923488307E+02  0.28953525298E+03 -0.19008409046E+03  0.34656138523E+03  0.00000000000E+00 0.  1.
         21    1    1    2  502  501  0.72914214592E-02  0.17218571576E+00 -0.59178724248E-01  0.18221747156E+00  0.00000000000E+00 0. -1.
<mgrwt>
<rscale>  1 0.65408412E+03</rscale>
<asrwt>0</asrwt>
<pdfrwt beam="1">  1        1 0.38920424E+00 0.65408412E+03</pdfrwt>
<pdfrwt beam="2">0</pdfrwt>
<totfact> 0.14930271E+00</totfact>
</mgrwt>
</event>
<event>
 6    1  0.3354403E-003  0.5836973E+03  0.7818608E-02  0.9939818E-01
          1   -1    0    0  502    0  0.00000000000E+00  0.00000000000E+00  0.85177471645E+02  0.85177471645E+02  0.00000000000E+00 0.  1.
         13   -1    0    0    0    0 -0.00000000000E+00 -0.00000000000E+00 -0.10000000000E+04  0.10000000000E+04  0.00000000000E+00 0.  1.
    9000005    2    1    2  501    0 -0.24843065430E-03  0.29183756041E-03 -0.91482434625E+03  0.10851756138E+04  0.58369729163E+03 0.  0.
         13    1    3    3    0    0 -0.23484823139E+03 -0.16749753429E+03 -0.37496760795E+03  0.47308542864E+03  0.00000000000E+00 0.  1.
          1    1    3    3  501    0  0.23484798296E+03  0.16749782613E+03 -0.53985673830E+03  0.61209018514E+03  0.00000000000E+00 0.  1.
         21    1    1    2  502  501  0.24843065431E-03 -0.29183756041E-03  0.18178984999E-02  0.18578594962E-02  0.00000000000E+00 0.  1.
<mgrwt>
<rscale>  1 0.58369729E+03</rscale>
<asrwt>0</asrwt>
<pdfrwt beam="1">  1        1 0.30973691E+00 0.58369729E+03</pdfrwt>
<pdfrwt beam="2">0</pdfrwt>
<totfact> 0.33592808E+00</totfact>
</mgrwt>
</event>
<event>
 6    1  0.3354403E-003  0.6458369E+03  0.7818608E-02  0.9814623E-01
          1   -1    0    0  502    0  0.00000000000E+00  0.00000000000E+00  0.10452211247E+03  0.10452211247E+03  0.00000000000E+00 0.  1.
         13   -1    0    0    0    0 -0.00000000000E+00 -0.00000000000E+00 -0.10000000000E+04  0.10000000000E+04  0.00000000000E+00 0.  1.
    9000005    2    1    2  501    0  0.12142629011E-01  0.35764934919E+00 -0.89557088567E+03  0.11041523705E+04  0.64583675791E+03 0.  0.
         13    1    3    3    0    0 -0.15995554311E+03 -0.25519744709E+03 -0.64601859548E+03  0.71277734144E+03  0.00000000000E+00 0.  1.
          1    1    3    3  501    0  0.15996768573E+03  0.25555509644E+03 -0.24955229020E+03  0.39137502902E+03  0.00000000000E+00 0.  1.
         21    1    1    2  502  501 -0.12142629011E-01 -0.35764934919E+00  0.92998145541E-01  0.36974201207E+00  0.00000000000E+00 0. -1.
<mgrwt>
<rscale>  1 0.64583686E+03</rscale>
<asrwt>0</asrwt>
<pdfrwt beam="1">  1        1 0.38008121E+00 0.64583686E+03</pdfrwt>
<pdfrwt beam="2">0</pdfrwt>
<totfact> 0.16408742E+00</totfact>
</mgrwt>
</event>
<event>
 6    1  0.3354403E-003  0.6340935E+03  0.7818608E-02  0.9837093E-01
          1   -1    0    0  502    0  0.00000000000E+00  0.00000000000E+00  0.10051866140E+03  0.10051866140E+03  0.00000000000E+00 0.  1.
         13   -1    0    0    0    0 -0.00000000000E+00 -0.00000000000E+00 -0.10000000000E+04  0.10000000000E+04  0.00000000000E+00 0.  1.
    9000005    2    1    2  501    0 -0.99314727890E-05 -0.77550778599E-05 -0.89948134126E+03  0.11005186485E+04  0.63409353606E+03 0.  0.
         13    1    3    3    0    0  0.13618504380E+03 -0.24271052201E+03 -0.71331940066E+03  0.76568879514E+03  0.00000000000E+00 0.  1.
          3    1    3    3  501    0 -0.13618505373E+03  0.24271051425E+03 -0.18616194060E+03  0.33482985338E+03  0.00000000000E+00 0.  1.
         21    1    1    2  502  501  0.99314728015E-05  0.77550778513E-05  0.26653546869E-05  0.12879421574E-04  0.00000000000E+00 0. -1.
<mgrwt>
<rscale>  1 0.63409354E+03</rscale>
<asrwt>0</asrwt>
<pdfrwt beam="1">  1        1 0.36552318E+00 0.63409354E+03</pdfrwt>
<pdfrwt beam="2">0</pdfrwt>
<totfact> 0.19055730E+00</totfact>
</mgrwt>
</event>
<event>
 6    1  0.3354403E-003  0.6525734E+03  0.7818608E-02  0.9801962E-01
          1   -1    0    0  502    0  0.00000000000E+00  0.00000000000E+00  0.10647149900E+03  0.10647149900E+03  0.00000000000E+00 0.  1.
         13   -1    0    0    0    0 -0.00000000000E+00 -0.00000000000E+00 -0.10000000000E+04  0.10000000000E+04  0.00000000000E+00 0.  1.
    9000005    2    1    2  501    0  0.12055067234E-03 -0.26558434899E-03 -0.89353699825E+03  0.11064629967E+04  0.65257336441E+03 0.  0.
         13    1    3    3    0    0  0.24321990181E+03 -0.21713448782E+03 -0.42533641411E+03  0.53592384871E+03  0.00000000000E+00 0.  1.
          1    1    3    3  501    0 -0.24321978126E+03  0.21713422224E+03 -0.46820058413E+03  0.57053914804E+03  0.00000000000E+00 0.  1.
         21    1    1    2  502  501 -0.12055067234E-03  0.26558434901E-03  0.84972448243E-02  0.85022489446E-02  0.00000000000E+00 0. -1.
<mgrwt>
<rscale>  1 0.65257336E+03</rscale>
<asrwt>0</asrwt>
<pdfrwt beam="1">  1        1 0.38716990E+00 0.65257336E+03</pdfrwt>
<pdfrwt beam="2">0</pdfrwt>
<totfact> 0.15247631E+00</totfact>
</mgrwt>
</event>
<event>
 6    1  0.3354403E-003  0.6187690E+03  0.7818608E-02  0.9867214E-01
          1   -1    0    0  502    0  0.00000000000E+00  0.00000000000E+00  0.95869310511E+02  0.95869310511E+02  0.00000000000E+00 0.  1.
         13   -1    0    0    0    0 -0.00000000000E+00 -0.00000000000E+00 -0.10000000000E+04  0.10000000000E+04  0.00000000000E+00 0.  1.
    9000005    2    1    2  501    0 -0.84112186315E-01  0.10475485017E+00 -0.90424772985E+03  0.10956911340E+04  0.61876900862E+03 0.  0.
         13    1    3    3    0    0  0.80712036663E+02 -0.29252015422E+03 -0.34580661298E+03  0.46007030666E+03  0.00000000000E+00 0.  1.
          1    1    3    3  501    0 -0.80796148849E+02  0.29262490907E+03 -0.55844111687E+03  0.63562082729E+03  0.00000000000E+00 0.  1.
         21    1    1    2  502  501  0.84112186315E-01 -0.10475485017E+00  0.11704036549E+00  0.17817655759E+00  0.00000000000E+00 0.  1.
<mgrwt>
<rscale>  1 0.61876902E+03</rscale>
<asrwt>0</asrwt>
<pdfrwt beam="1">  1        1 0.34861641E+00 0.61876902E+03</pdfrwt>
<pdfrwt beam="2">0</pdfrwt>
<totfact> 0.22650891E+00</totfact>
</mgrwt>
</event>
<event>
 6    1  0.3354403E-003  0.6310660E+03  0.7818608E-02  0.9842971E-01
          1   -1    0    0  502    0  0.00000000000E+00  0.00000000000E+00  0.99910372506E+02  0.99910372506E+02  0.00000000000E+00 0.  1.
         13   -1    0    0    0    0 -0.00000000000E+00 -0.00000000000E+00 -0.10000000000E+04  0.10000000000E+04  0.00000000000E+00 0.  1.
    9000005    2    1    2  501    0 -0.90688269338E+00 -0.30192036856E+00 -0.89754781070E+03  0.10971947833E+04  0.63106529489E+03 0.  0.
         13    1    3    3    0    0  0.16178607188E+03 -0.15617542839E+03 -0.83300191170E+03  0.86281961173E+03  0.00000000000E+00 0.  1.
          1    1    3    3  501    0 -0.16269295457E+03  0.15587350803E+03 -0.64545899001E+02  0.23437517157E+03  0.00000000000E+00 0.  1.
         21    1    1    2  502  501  0.90688269338E+00  0.30192036856E+00 -0.25418167902E+01  0.27155892037E+01  0.00000000000E+00 0. -1.
<mgrwt>
<rscale>  1 0.63106602E+03</rscale>
<asrwt>0</asrwt>
<pdfrwt beam="1">  1        1 0.36331121E+00 0.63106602E+03</pdfrwt>
<pdfrwt beam="2">0</pdfrwt>
<totfact> 0.19496431E+00</totfact>
</mgrwt>
</event>
<event>
 6    1  0.3354403E-003  0.6451818E+03  0.7818608E-02  0.9815863E-01
          1   -1    0    0  502    0  0.00000000000E+00  0.00000000000E+00  0.10449570013E+03  0.10449570013E+03  0.00000000000E+00 0.  1.
         13   -1    0    0    0    0 -0.00000000000E+00 -0.00000000000E+00 -0.10000000000E+04  0.10000000000E+04  0.00000000000E+00 0.  1.
    9000005    2    1    2  501    0 -0.11970996688E+01  0.49062449203E+00 -0.89421251145E+03  0.11026674558E+04  0.64518046212E+03 0.  0.
         13    1    3    3    0    0 -0.32291391011E+03 -0.11364133792E+02 -0.45910838119E+03  0.56141165160E+03  0.00000000000E+00 0.  1.
          3    1    3    3  501    0  0.32171681044E+03  0.11854758284E+02 -0.43510413026E+03  0.54125580421E+03  0.00000000000E+00 0.  1.
         21    1    1    2  502  501  0.11970996688E+01 -0.49062449203E+00 -0.12917884160E+01  0.18282443275E+01  0.00000000000E+00 0. -1.
<mgrwt>
<rscale>  1 0.64518176E+03</rscale>
<asrwt>0</asrwt>
<pdfrwt beam="1">  1        1 0.37998517E+00 0.64518176E+03</pdfrwt>
<pdfrwt beam="2">0</pdfrwt>
<totfact> 0.16426740E+00</totfact>
</mgrwt>
</event>
<event>
 6    1  0.3354403E-003  0.6483807E+03  0.7818608E-02  0.9809822E-01
          1   -1    0    0  502    0  0.00000000000E+00  0.00000000000E+00  0.10509955697E+03  0.10509955697E+03  0.00000000000E+00 0.  1.
         13   -1    0    0    0    0 -0.00000000000E+00 -0.00000000000E+00 -0.10000000000E+04  0.10000000000E+04  0.00000000000E+00 0.  1.
    9000005    2    1    2  501    0 -0.76455145575E-04  0.10418911125E-03 -0.89490058169E+03  0.11050993674E+04  0.64838072209E+03 0.  0.
         13    1    3    3    0    0 -0.27237857352E+03 -0.16571396254E+03 -0.54753478639E+03  0.63359730666E+03  0.00000000000E+00 0.  1.
          3    1    3    3  501    0  0.27237849706E+03  0.16571406673E+03 -0.34736579529E+03  0.47150206077E+03  0.00000000000E+00 0.  1.
         21    1    1    2  502  501  0.76455145579E-04 -0.10418911128E-03  0.13865298644E-03  0.18953999800E-03  0.00000000000E+00 0.  1.
<mgrwt>
<rscale>  1 0.64838072E+03</rscale>
<asrwt>0</asrwt>
<pdfrwt beam="1">  1        1 0.38218101E+00 0.64838072E+03</pdfrwt>
<pdfrwt beam="2">0</pdfrwt>
<totfact> 0.16054695E+00</totfact>
</mgrwt>
</event>
<event>
 6    1  0.3354403E-003  0.6329676E+03  0.7818608E-02  0.9839275E-01
          1   -1    0    0  502    0  0.00000000000E+00  0.00000000000E+00  0.10137282875E+03  0.10137282875E+03  0.00000000000E+00 0.  1.
         13   -1    0    0    0    0 -0.00000000000E+00 -0.00000000000E+00 -0.10000000000E+04  0.10000000000E+04  0.00000000000E+00 0.  1.
    9000005    2    1    2  501    0  0.26006940250E-01 -0.11269603468E-02 -0.89983784014E+03  0.11001618800E+04  0.63296763190E+03 0.  0.
         13    1    3    3    0    0  0.30663660952E+03 -0.21567847893E+02 -0.31895711187E+03  0.44297270974E+03  0.00000000000E+00 0.  1.
          3    1    3    3  501    0 -0.30661060258E+03  0.21566720933E+02 -0.58088072827E+03  0.65718917029E+03  0.00000000000E+00 0.  1.
         21    1    1    2  502  501 -0.26006940250E-01  0.11269603468E-02  0.12106688927E+01  0.12109487185E+01  0.00000000000E+00 0. -1.
<mgrwt>
<rscale>  1 0.63296763E+03</rscale>
<asrwt>0</asrwt>
<pdfrwt beam="1">  1        1 0.36862925E+00 0.63296763E+03</pdfrwt>
<pdfrwt beam="2">0</pdfrwt>
<totfact> 0.18471050E+00</totfact>
</mgrwt>
</event>
<event>
 6    1  0.3354403E-003  0.6548025E+03  0.7818608E-02  0.9797809E-01
          1   -1    0    0  502    0  0.00000000000E+00  0.00000000000E+00  0.11342767122E+03  0.11342767122E+03  0.00000000000E+00 0.  1.
         13   -1    0    0    0    0 -0.00000000000E+00 -0.00000000000E+00 -0.10000000000E+04  0.10000000000E+04  0.00000000000E+00 0.  1.
    9000005    2    1    2  501    0 -0.14573311697E+01  0.72245369711E-01 -0.89271378981E+03  0.11071152567E+04  0.65480084914E+03 0.  0.
         13    1    3    3    0    0  0.15542412879E+03  0.62024163266E+02 -0.92100844370E+03  0.93608771491E+03  0.00000000000E+00 0.  1.
          3    1    3    3  501    0 -0.15688145996E+03 -0.61951917896E+02  0.28294653882E+02  0.17102754178E+03  0.00000000000E+00 0.  1.
         21    1    1    2  502  501  0.14573311697E+01 -0.72245369711E-01  0.61414610321E+01  0.63124145254E+01  0.00000000000E+00 0.  1.
<mgrwt>
<rscale>  1 0.65480247E+03</rscale>
<asrwt>0</asrwt>
<pdfrwt beam="1">  1        1 0.41246513E+00 0.65480247E+03</pdfrwt>
<pdfrwt beam="2">0</pdfrwt>
<totfact> 0.11755854E+00</totfact>
</mgrwt>
</event>
<event>
 6    1  0.3354403E-003  0.6460843E+03  0.7818608E-02  0.9814155E-01
          1   -1    0    0  502    0  0.00000000000E+00  0.00000000000E+00  0.10487170294E+03  0.10487170294E+03  0.00000000000E+00 0.  1.
         13   -1    0    0    0    0 -0.00000000000E+00 -0.00000000000E+00 -0.10000000000E+04  0.10000000000E+04  0.00000000000E+00 0.  1.
    9000005    2    1    2  501    0 -0.92682107234E-03 -0.69820485876E-02 -0.89564375634E+03  0.11043561955E+04  0.64608425789E+03 0.  0.
         13    1    3    3    0    0 -0.23228324667E+03  0.22383781210E+03 -0.47722684812E+03  0.57602459789E+03  0.00000000000E+00 0.  1.
          3    1    3    3  501    0  0.23228231985E+03 -0.22384479415E+03 -0.41841690822E+03  0.52833159764E+03  0.00000000000E+00 0.  1.
         21    1    1    2  502  501  0.92682107233E-03  0.69820485876E-02  0.51545928079E+00  0.51550739874E+00  0.00000000000E+00 0. -1.
<mgrwt>
<rscale>  1 0.64608426E+03</rscale>
<asrwt>0</asrwt>
<pdfrwt beam="1">  1        1 0.38135245E+00 0.64608426E+03</pdfrwt>
<pdfrwt beam="2">0</pdfrwt>
<totfact> 0.16197378E+00</totfact>
</mgrwt>
</event>
<event>
 6    1  0.3354403E-003  0.6628725E+03  0.7818608E-02  0.9782920E-01
          1   -1    0    0  502    0  0.00000000000E+00  0.00000000000E+00  0.11505225017E+03  0.11505225017E+03  0.00000000000E+00 0.  1.
         13   -1    0    0    0    0 -0.00000000000E+00 -0.00000000000E+00 -0.10000000000E+04  0.10000000000E+04  0.00000000000E+00 0.  1.
    9000005    2    1    2  501    0 -0.48245342636E+00  0.76796361834E+00 -0.89010611976E+03  0.11098147594E+04  0.66287183766E+03 0.  0.
         13    1    3    3    0    0 -0.54281940140E+02 -0.26454635499E+03 -0.12377273658E+03  0.29707068736E+03  0.00000000000E+00 0.  1.
          3    1    3    3  501    0  0.53799486714E+02  0.26531431861E+03 -0.76633338318E+03  0.81274407202E+03  0.00000000000E+00 0.  1.
         21    1    1    2  502  501  0.48245342636E+00 -0.76796361834E+00  0.51583699336E+01  0.52374907923E+01  0.00000000000E+00 0. -1.
<mgrwt>
<rscale>  1 0.66287246E+03</rscale>
<asrwt>0</asrwt>
<pdfrwt beam="1">  1        1 0.41837270E+00 0.66287246E+03</pdfrwt>
<pdfrwt beam="2">0</pdfrwt>
<totfact> 0.11040768E+00</totfact>
</mgrwt>
</event>
<event>
 6    1  0.3354403E-003  0.6745522E+03  0.7818608E-02  0.9761769E-01
          1   -1    0    0  502    0  0.00000000000E+00  0.00000000000E+00  0.11387895806E+03  0.11387895806E+03  0.00000000000E+00 0.  1.
         13   -1    0    0    0    0 -0.00000000000E+00 -0.00000000000E+00 -0.10000000000E+04  0.10000000000E+04  0.00000000000E+00 0.  1.
    9000005    2    1    2  501    0  0.61424766616E-01 -0.12296579162E-01 -0.88623593653E+03  0.11137480956E+04  0.67455220807E+03 0.  0.
         13    1    3    3    0    0 -0.29501059508E+03 -0.72158975486E+02 -0.68518077301E+03  0.74947372246E+03  0.00000000000E+00 0.  1.
          3    1    3    3  501    0  0.29507201985E+03  0.72146678907E+02 -0.20105516351E+03  0.36427437317E+03  0.00000000000E+00 0.  1.
         21    1    1    2  502  501 -0.61424766616E-01  0.12296579162E-01  0.11489458236E+00  0.13086241962E+00  0.00000000000E+00 0. -1.
<mgrwt>
<rscale>  1 0.67455221E+03</rscale>
<asrwt>0</asrwt>
<pdfrwt beam="1">  1        1 0.41410618E+00 0.67455221E+03</pdfrwt>
<pdfrwt beam="2">0</pdfrwt>
<totfact> 0.11514304E+00</totfact>
</mgrwt>
</event>
<event>
 6    1  0.3354403E-003  0.6484905E+03  0.7818608E-02  0.9809616E-01
          1   -1    0    0  502    0  0.00000000000E+00  0.00000000000E+00  0.10513497731E+03  0.10513497731E+03  0.00000000000E+00 0.  1.
         13   -1    0    0    0    0 -0.00000000000E+00 -0.00000000000E+00 -0.10000000000E+04  0.10000000000E+04  0.00000000000E+00 0.  1.
    9000005    2    1    2  501    0  0.66913522119E-05 -0.14187217893E-04 -0.89486501592E+03  0.11051349602E+04  0.64849046531E+03 0.  0.
         13    1    3    3    0    0 -0.32190206461E+03  0.38712668986E+02 -0.44075394466E+03  0.54715961993E+03  0.00000000000E+00 0.  1.
          1    1    3    3  501    0  0.32190207130E+03 -0.38712683173E+02 -0.45411107126E+03  0.55797534031E+03  0.00000000000E+00 0.  1.
         21    1    1    2  502  501 -0.66913522414E-05  0.14187217894E-04 -0.67620178007E-05  0.17081458695E-04  0.00000000000E+00 0.  1.
<mgrwt>
<rscale>  1 0.64849047E+03</rscale>
<asrwt>0</asrwt>
<pdfrwt beam="1">  1        1 0.38230981E+00 0.64849047E+03</pdfrwt>
<pdfrwt beam="2">0</pdfrwt>
<totfact> 0.16033353E+00</totfact>
</mgrwt>
</event>
<event>
 6    1  0.3354403E-003  0.6226413E+03  0.7818608E-02  0.9859515E-01
          1   -1    0    0  502    0  0.00000000000E+00  0.00000000000E+00  0.96921841419E+02  0.96921841419E+02  0.00000000000E+00 0.  1.
         13   -1    0    0    0    0 -0.00000000000E+00 -0.00000000000E+00 -0.10000000000E+04  0.10000000000E+04  0.00000000000E+00 0.  1.
    9000005    2    1    2  501    0  0.33841318702E-02 -0.54263701131E-03 -0.90307631186E+03  0.10969179482E+04  0.62264127716E+03 0.  0.
         13    1    3    3    0    0  0.26978511812E+03  0.14633523509E+03 -0.35960338549E+03  0.47277119820E+03  0.00000000000E+00 0.  1.
          3    1    3    3  501    0 -0.26978173399E+03 -0.14633577773E+03 -0.54347292637E+03  0.62414675000E+03  0.00000000000E+00 0.  1.
         21    1    1    2  502  501 -0.33841318703E-02  0.54263701130E-03 -0.18467188247E-02  0.38932215271E-02  0.00000000000E+00 0.  1.
<mgrwt>
<rscale>  1 0.62264128E+03</rscale>
<asrwt>0</asrwt>
<pdfrwt beam="1">  1        1 0.35244380E+00 0.62264128E+03</pdfrwt>
<pdfrwt beam="2">0</pdfrwt>
<totfact> 0.21782316E+00</totfact>
</mgrwt>
</event>
<event>
 6    1  0.3354403E-003  0.6405216E+03  0.7818608E-02  0.9824729E-01
          1   -1    0    0  502    0  0.00000000000E+00  0.00000000000E+00  0.10257303307E+03  0.10257303307E+03  0.00000000000E+00 0.  1.
         13   -1    0    0    0    0 -0.00000000000E+00 -0.00000000000E+00 -0.10000000000E+04  0.10000000000E+04  0.00000000000E+00 0.  1.
    9000005    2    1    2  501    0 -0.15612301499E-03  0.48133393108E-04 -0.89743300613E+03  0.11025669917E+04  0.64052163947E+03 0.  0.
         13    1    3    3    0    0  0.23138969906E+03 -0.21389061989E+03 -0.54724901129E+03  0.63148386398E+03  0.00000000000E+00 0.  1.
          1    1    3    3  501    0 -0.23138985518E+03  0.21389066803E+03 -0.35018399484E+03  0.47108312769E+03  0.00000000000E+00 0.  1.
         21    1    1    2  502  501  0.15612301500E-03 -0.48133393090E-04  0.60391992853E-02  0.60414087121E-02  0.00000000000E+00 0. -1.
<mgrwt>
<rscale>  1 0.64052164E+03</rscale>
<asrwt>0</asrwt>
<pdfrwt beam="1">  1        1 0.37299363E+00 0.64052164E+03</pdfrwt>
<pdfrwt beam="2">0</pdfrwt>
<totfact> 0.17648945E+00</totfact>
</mgrwt>
</event>
<event>
 6    1  0.3354403E-003  0.6515527E+03  0.7818608E-02  0.9803870E-01
          1   -1    0    0  502    0  0.00000000000E+00  0.00000000000E+00  0.10824742812E+03  0.10824742812E+03  0.00000000000E+00 0.  1.
         13   -1    0    0    0    0 -0.00000000000E+00 -0.00000000000E+00 -0.10000000000E+04  0.10000000000E+04  0.00000000000E+00 0.  1.
    9000005    2    1    2  501    0  0.10918814297E+00  0.69004351438E-01 -0.89386758096E+03  0.11061284786E+04  0.65155271636E+03 0.  0.
         13    1    3    3    0    0 -0.14847126031E+03  0.28379221379E+03 -0.54811847105E+03  0.63483509201E+03  0.00000000000E+00 0.  1.
          3    1    3    3  501    0  0.14858044845E+03 -0.28372320944E+03 -0.34574910991E+03  0.47129338659E+03  0.00000000000E+00 0.  1.
         21    1    1    2  502  501 -0.10918814297E+00 -0.69004351438E-01  0.21150090816E+01  0.21189495196E+01  0.00000000000E+00 0.  1.
<mgrwt>
<rscale>  1 0.65155273E+03</rscale>
<asrwt>0</asrwt>
<pdfrwt beam="1">  1        1 0.39362784E+00 0.65155273E+03</pdfrwt>
<pdfrwt beam="2">0</pdfrwt>
<totfact> 0.14277173E+00</totfact>
</mgrwt>
</event>
<event>
 6    1  0.3354403E-003  0.6452522E+03  0.7818608E-02  0.9815729E-01
          1   -1    0    0  502    0  0.00000000000E+00  0.00000000000E+00  0.17501130639E+03  0.17501130639E+03  0.00000000000E+00 0.  1.
         13   -1    0    0    0    0 -0.00000000000E+00 -0.00000000000E+00 -0.10000000000E+04  0.10000000000E+04  0.00000000000E+00 0.  1.
    9000005    2    1    2  501    0 -0.11123173756E+01  0.16682599280E+01 -0.89589675286E+03  0.11040749038E+04  0.64524908457E+03 0.  0.
         13    1    3    3    0    0 -0.20254112142E+03 -0.25064382930E+03 -0.45933392609E+03  0.56109971546E+03  0.00000000000E+00 0.  1.
          1    1    3    3  501    0  0.20142880404E+03  0.25231208923E+03 -0.43656282677E+03  0.54297518837E+03  0.00000000000E+00 0.  1.
         21    1    1    2  502  501  0.11123173756E+01 -0.16682599280E+01  0.70908059254E+02  0.70936402561E+02  0.00000000000E+00 0. -1.
<mgrwt>
<rscale>  1 0.64525220E+03</rscale>
<asrwt>0</asrwt>
<pdfrwt beam="1">  1        1 0.63640609E+00 0.64525220E+03</pdfrwt>
<pdfrwt beam="2">0</pdfrwt>
<totfact> 0.89384756E-02</totfact>
</mgrwt>
</event>
<event>
 6    1  0.3354403E-003  0.6763779E+03  0.7818608E-02  0.9758504E-01
          1   -1    0    0  502    0  0.00000000000E+00  0.00000000000E+00  0.11576072546E+03  0.11576072546E+03  0.00000000000E+00 0.  1.
         13   -1    0    0    0    0 -0.00000000000E+00 -0.00000000000E+00 -0.10000000000E+04  0.10000000000E+04  0.00000000000E+00 0.  1.
    9000005    2    1    2  501    0 -0.10555178075E+00 -0.70463524182E+00 -0.88552561945E+03  0.11142902374E+04  0.67637755931E+03 0.  0.
         13    1    3    3    0    0 -0.33817806273E+03 -0.67195354354E+01 -0.44539444866E+03  0.55927253568E+03  0.00000000000E+00 0.  1.
          1    1    3    3  501    0  0.33807251095E+03  0.60149001936E+01 -0.44013117079E+03  0.55501770168E+03  0.00000000000E+00 0.  1.
         21    1    1    2  502  501  0.10555178075E+00  0.70463524182E+00  0.12863449132E+01  0.14704880952E+01  0.00000000000E+00 0. -1.
<mgrwt>
<rscale>  1 0.67637793E+03</rscale>
<asrwt>0</asrwt>
<pdfrwt beam="1">  1        1 0.42094898E+00 0.67637793E+03</pdfrwt>
<pdfrwt beam="2">0</pdfrwt>
<totfact> 0.10721258E+00</totfact>
</mgrwt>
</event>
<event>
 6    1  0.3354403E-003  0.6469197E+03  0.7818608E-02  0.9812576E-01
          1   -1    0    0  502    0  0.00000000000E+00  0.00000000000E+00  0.10483580779E+03  0.10483580779E+03  0.00000000000E+00 0.  1.
         13   -1    0    0    0    0 -0.00000000000E+00 -0.00000000000E+00 -0.10000000000E+04  0.10000000000E+04  0.00000000000E+00 0.  1.
    9000005    2    1    2  501    0  0.80423745020E-01 -0.27254030768E+00 -0.89526160865E+03  0.11045354144E+04  0.64691966511E+03 0.  0.
         13    1    3    3    0    0  0.22769138501E+03 -0.17650251923E+03 -0.19628279380E+03  0.34860212455E+03  0.00000000000E+00 0.  1.
          1    1    3    3  501    0 -0.22761096126E+03  0.17622997892E+03 -0.69897881485E+03  0.75593328990E+03  0.00000000000E+00 0.  1.
         21    1    1    2  502  501 -0.80423745020E-01  0.27254030768E+00  0.97416445056E-01  0.30039334520E+00  0.00000000000E+00 0.  1.
<mgrwt>
<rscale>  1 0.64691973E+03</rscale>
<asrwt>0</asrwt>
<pdfrwt beam="1">  1        1 0.38122192E+00 0.64691973E+03</pdfrwt>
<pdfrwt beam="2">0</pdfrwt>
<totfact> 0.16216388E+00</totfact>
</mgrwt>
</event>
<event>
 6    1  0.3354403E-003  0.6481777E+03  0.7818608E-02  0.9810205E-01
          1   -1    0    0  502    0  0.00000000000E+00  0.00000000000E+00  0.10537488990E+03  0.10537488990E+03  0.00000000000E+00 0.  1.
         13   -1    0    0    0    0 -0.00000000000E+00 -0.00000000000E+00 -0.10000000000E+04  0.10000000000E+04  0.00000000000E+00 0.  1.
    9000005    2    1    2  501    0 -0.40158193837E+00  0.90740061806E+00 -0.89377103618E+03  0.11040656588E+04  0.64817692729E+03 0.  0.
         13    1    3    3    0    0  0.21126804102E+03  0.21398453593E+03 -0.65376835155E+03  0.71960866050E+03  0.00000000000E+00 0.  1.
          3    1    3    3  501    0 -0.21166962296E+03 -0.21307713531E+03 -0.24000268463E+03  0.38445699826E+03  0.00000000000E+00 0.  1.
         21    1    1    2  502  501  0.40158193837E+00 -0.90740061806E+00 -0.85407392045E+00  0.13092311471E+01  0.00000000000E+00 0.  1.
<mgrwt>
<rscale>  1 0.64817769E+03</rscale>
<asrwt>0</asrwt>
<pdfrwt beam="1">  1        1 0.38318223E+00 0.64817769E+03</pdfrwt>
<pdfrwt beam="2">0</pdfrwt>
<totfact> 0.15892599E+00</totfact>
</mgrwt>
</event>
<event>
 6    1  0.3354403E-003  0.6464453E+03  0.7818608E-02  0.9813472E-01
          1   -1    0    0  502    0  0.00000000000E+00  0.00000000000E+00  0.10447488302E+03  0.10447488302E+03  0.00000000000E+00 0.  1.
         13   -1    0    0    0    0 -0.00000000000E+00 -0.00000000000E+00 -0.10000000000E+04  0.10000000000E+04  0.00000000000E+00 0.  1.
    9000005    2    1    2  501    0 -0.12584872930E-03  0.16620413331E-03 -0.89552711830E+03  0.11044728709E+04  0.64644528219E+03 0.  0.
         13    1    3    3    0    0  0.81980849427E+02  0.10283639301E+03 -0.95221980703E+03  0.96125893717E+03  0.00000000000E+00 0.  1.
          3    1    3    3  501    0 -0.81980975276E+02 -0.10283622680E+03  0.56692688725E+02  0.14321393370E+03  0.00000000000E+00 0.  1.
         21    1    1    2  502  501  0.12584872928E-03 -0.16620413332E-03  0.20013230162E-02  0.20121519653E-02  0.00000000000E+00 0. -1.
<mgrwt>
<rscale>  1 0.64644528E+03</rscale>
<asrwt>0</asrwt>
<pdfrwt beam="1">  1        1 0.37990947E+00 0.64644528E+03</pdfrwt>
<pdfrwt beam="2">0</pdfrwt>
<totfact> 0.16435558E+00</totfact>
</mgrwt>
</event>
<event>
 6    1  0.3394106E-003  0.6472068E+03  0.7818608E-02  0.9812035E-01
          1   -1    0    0  502    0  0.00000000000E+00  0.00000000000E+00  0.10471917245E+03  0.10471917245E+03  0.00000000000E+00 0.  1.
         13   -1    0    0    0    0 -0.00000000000E+00 -0.00000000000E+00 -0.10000000000E+04  0.10000000000E+04  0.00000000000E+00 0.  1.
    9000005    2    1    2  501    0  0.30953063273E-04  0.24301466510E-04 -0.89528076221E+03  0.11047190962E+04  0.64720679715E+03 0.  0.
         13    1    3    3    0    0 -0.75771144316E+02  0.30651262755E+03 -0.32660777281E+03  0.45427292943E+03  0.00000000000E+00 0.  1.
          1    1    3    3  501    0  0.75771175269E+02 -0.30651260325E+03 -0.56867298941E+03  0.65044616675E+03  0.00000000000E+00 0.  1.
         21    1    1    2  502  501 -0.30953063272E-04 -0.24301466514E-04 -0.65336077651E-04  0.76272252120E-04  0.00000000000E+00 0. -1.
<mgrwt>
<rscale>  1 0.64720680E+03</rscale>
<asrwt>0</asrwt>
<pdfrwt beam="1">  1        1 0.38079779E+00 0.64720680E+03</pdfrwt>
<pdfrwt beam="2">0</pdfrwt>
<totfact> 0.16285589E+00</totfact>
</mgrwt>
</event>
<event>
 6    1  0.3354403E-003  0.6556178E+03  0.7818608E-02  0.9796295E-01
          1   -1    0    0  502    0  0.00000000000E+00  0.00000000000E+00  0.10775266881E+03  0.10775266881E+03  0.00000000000E+00 0.  1.
         13   -1    0    0    0    0 -0.00000000000E+00 -0.00000000000E+00 -0.10000000000E+04  0.10000000000E+04  0.00000000000E+00 0.  1.
    9000005    2    1    2  501    0  0.41722918663E-01 -0.31991180712E-01 -0.89253873527E+03  0.11074565598E+04  0.65561775069E+03 0.  0.
         13    1    3    3    0    0  0.59186761204E+02  0.76194152192E+02  0.82932351598E+02  0.12722576968E+03  0.00000000000E+00 0.  1.
          1    1    3    3  501    0 -0.59145038285E+02 -0.76226143373E+02 -0.97547108687E+03  0.98023079007E+03  0.00000000000E+00 0.  1.
         21    1    1    2  502  501 -0.41722918663E-01  0.31991180712E-01  0.29140407754E+00  0.29610905760E+00  0.00000000000E+00 0. -1.
<mgrwt>
<rscale>  1 0.65561775E+03</rscale>
<asrwt>0</asrwt>
<pdfrwt beam="1">  1        1 0.39182871E+00 0.65561775E+03</pdfrwt>
<pdfrwt beam="2">0</pdfrwt>
<totfact> 0.14531219E+00</totfact>
</mgrwt>
</event>
<event>
 6    1  0.3354403E-003  0.6527791E+03  0.7818608E-02  0.9801578E-01
          1   -1    0    0  502    0  0.00000000000E+00  0.00000000000E+00  0.10653030550E+03  0.10653030550E+03  0.00000000000E+00 0.  1.
         13   -1    0    0    0    0 -0.00000000000E+00 -0.00000000000E+00 -0.10000000000E+04  0.10000000000E+04  0.00000000000E+00 0.  1.
    9000005    2    1    2  501    0 -0.19749121526E-03 -0.36929198516E-03 -0.89346871666E+03  0.11065292417E+04  0.65277914733E+03 0.  0.
         13    1    3    3    0    0  0.27605339680E+03  0.21378376467E+02 -0.15378211794E+03  0.31671983308E+03  0.00000000000E+00 0.  1.
          3    1    3    3  501    0 -0.27605359430E+03 -0.21378745759E+02 -0.73968659872E+03  0.78980940867E+03  0.00000000000E+00 0.  1.
         21    1    1    2  502  501  0.19749121525E-03  0.36929198516E-03 -0.97784206416E-03  0.10637454831E-02  0.00000000000E+00 0. -1.
<mgrwt>
<rscale>  1 0.65277915E+03</rscale>
<asrwt>0</asrwt>
<pdfrwt beam="1">  1        1 0.38738375E+00 0.65277915E+03</pdfrwt>
<pdfrwt beam="2">0</pdfrwt>
<totfact> 0.15213840E+00</totfact>
</mgrwt>
</event>
<event>
 6    1  0.3354403E-003  0.6537332E+03  0.7818608E-02  0.9799799E-01
          1   -1    0    0  502    0  0.00000000000E+00  0.00000000000E+00  0.10692004951E+03  0.10692004951E+03  0.00000000000E+00 0.  1.
         13   -1    0    0    0    0 -0.00000000000E+00 -0.00000000000E+00 -0.10000000000E+04  0.10000000000E+04  0.00000000000E+00 0.  1.
    9000005    2    1    2  501    0  0.37351093113E-01 -0.96737610590E-02 -0.89315291840E+03  0.11068375086E+04  0.65373322793E+03 0.  0.
         13    1    3    3    0    0  0.70794494901E+02 -0.13449168472E+03  0.43380194229E+02  0.15805605024E+03  0.00000000000E+00 0.  1.
          1    1    3    3  501    0 -0.70757143808E+02  0.13448201096E+03 -0.93653311263E+03  0.94878145836E+03  0.00000000000E+00 0.  1.
         21    1    1    2  502  501 -0.37351093113E-01  0.96737610590E-02  0.72967916847E-01  0.82540915301E-01  0.00000000000E+00 0.  1.
<mgrwt>
<rscale>  1 0.65373323E+03</rscale>
<asrwt>0</asrwt>
<pdfrwt beam="1">  1        1 0.38880100E+00 0.65373323E+03</pdfrwt>
<pdfrwt beam="2">0</pdfrwt>
<totfact> 0.14992817E+00</totfact>
</mgrwt>
</event>
<event>
 6    1  0.3354403E-003  0.6625361E+03  0.7818608E-02  0.9783536E-01
          1   -1    0    0  502    0  0.00000000000E+00  0.00000000000E+00  0.10973860158E+03  0.10973860158E+03  0.00000000000E+00 0.  1.
         13   -1    0    0    0    0 -0.00000000000E+00 -0.00000000000E+00 -0.10000000000E+04  0.10000000000E+04  0.00000000000E+00 0.  1.
    9000005    2    1    2  501    0 -0.34154076616E-05 -0.83370789454E-05 -0.89026146645E+03  0.11097385330E+04  0.66253613703E+03 0.  0.
         13    1    3    3    0    0  0.31626314068E+03 -0.48071577438E+02 -0.30099160378E+03  0.43923706157E+03  0.00000000000E+00 0.  1.
          1    1    3    3  501    0 -0.31626314410E+03  0.48071569101E+02 -0.58926986268E+03  0.67050147138E+03  0.00000000000E+00 0.  1.
         21    1    1    2  502  501  0.34154076880E-05  0.83370789463E-05  0.68036481154E-04  0.68630420826E-04  0.00000000000E+00 0.  1.
<mgrwt>
<rscale>  1 0.66253614E+03</rscale>
<asrwt>0</asrwt>
<pdfrwt beam="1">  1        1 0.39905030E+00 0.66253614E+03</pdfrwt>
<pdfrwt beam="2">0</pdfrwt>
<totfact> 0.13477869E+00</totfact>
</mgrwt>
</event>
<event>
 6    1  0.3354403E-003  0.6545548E+03  0.7818608E-02  0.9798270E-01
          1   -1    0    0  502    0  0.00000000000E+00  0.00000000000E+00  0.10711122087E+03  0.10711122087E+03  0.00000000000E+00 0.  1.
         13   -1    0    0    0    0 -0.00000000000E+00 -0.00000000000E+00 -0.10000000000E+04  0.10000000000E+04  0.00000000000E+00 0.  1.
    9000005    2    1    2  501    0  0.44744684722E-04 -0.14692199443E-04 -0.89288950251E+03  0.11071104960E+04  0.65455480029E+03 0.  0.
         13    1    3    3    0    0 -0.33603793977E+02  0.19531002344E+03 -0.88697195503E+03  0.90884237866E+03  0.00000000000E+00 0.  1.
          3    1    3    3  501    0  0.33603838722E+02 -0.19531003813E+03 -0.59175474736E+01  0.19826811731E+03  0.00000000000E+00 0.  1.
         21    1    1    2  502  501 -0.44744684722E-04  0.14692199445E-04  0.72337527492E-03  0.72490670841E-03  0.00000000000E+00 0. -1.
<mgrwt>
<rscale>  1 0.65455480E+03</rscale>
<asrwt>0</asrwt>
<pdfrwt beam="1">  1        1 0.38949617E+00 0.65455480E+03</pdfrwt>
<pdfrwt beam="2">0</pdfrwt>
<totfact> 0.14884546E+00</totfact>
</mgrwt>
</event>
<event>
 6    1  0.3354403E-003  0.5678936E+03  0.7818608E-02  0.9974351E-01
          1   -1    0    0  502    0  0.00000000000E+00  0.00000000000E+00  0.80625824319E+02  0.80625824319E+02  0.00000000000E+00 0.  1.
         13   -1    0    0    0    0 -0.00000000000E+00 -0.00000000000E+00 -0.10000000000E+04  0.10000000000E+04  0.00000000000E+00 0.  1.
    9000005    2    1    2  501    0  0.72122163033E-05 -0.19812427396E-05 -0.91937420020E+03  0.10806257987E+04  0.56789364918E+03 0.  0.
         13    1    3    3    0    0 -0.27208506165E+03  0.47509456587E+02 -0.58502184705E+03  0.64694512191E+03  0.00000000000E+00 0.  1.
          3    1    3    3  501    0  0.27208506886E+03 -0.47509458568E+02 -0.33435235315E+03  0.43368067677E+03  0.00000000000E+00 0.  1.
         21    1    1    2  502  501 -0.72122163121E-05  0.19812427371E-05  0.24520601216E-04  0.25635937098E-04  0.00000000000E+00 0.  1.
<mgrwt>
<rscale>  1 0.56789365E+03</rscale>
<asrwt>0</asrwt>
<pdfrwt beam="1">  1        1 0.29318543E+00 0.56789365E+03</pdfrwt>
<pdfrwt beam="2">0</pdfrwt>
<totfact> 0.39706973E+00</totfact>
</mgrwt>
</event>
<event>
 6    1  0.3354403E-003  0.6457544E+03  0.7818608E-02  0.9814779E-01
          1   -1    0    0  502    0  0.00000000000E+00  0.00000000000E+00  0.10425935622E+03  0.10425935622E+03  0.00000000000E+00 0.  1.
         13   -1    0    0    0    0 -0.00000000000E+00 -0.00000000000E+00 -0.10000000000E+04  0.10000000000E+04  0.00000000000E+00 0.  1.
    9000005    2    1    2  501    0 -0.12025906344E-03  0.80670055098E-04 -0.89575031262E+03  0.11042496863E+04  0.64575440157E+03 0.  0.
         13    1    3    3    0    0  0.14920519170E+03  0.14825046554E+03 -0.86677398319E+03  0.89192910464E+03  0.00000000000E+00 0.  1.
          1    1    3    3  501    0 -0.14920531196E+03 -0.14825038487E+03 -0.28976329427E+02  0.21232058166E+03  0.00000000000E+00 0.  1.
         21    1    1    2  502  501  0.12025906344E-03 -0.80670055095E-04  0.96688335220E-02  0.96699178681E-02  0.00000000000E+00 0.  1.
<mgrwt>
<rscale>  1 0.64575440E+03</rscale>
<asrwt>0</asrwt>
<pdfrwt beam="1">  1        1 0.37912573E+00 0.64575440E+03</pdfrwt>
<pdfrwt beam="2">0</pdfrwt>
<totfact> 0.16569020E+00</totfact>
</mgrwt>
</event>
<event>
 6    1  0.3354403E-003  0.6380712E+03  0.7818608E-02  0.9829424E-01
          1   -1    0    0  502    0  0.00000000000E+00  0.00000000000E+00  0.10178467647E+03  0.10178467647E+03  0.00000000000E+00 0.  1.
         13   -1    0    0    0    0 -0.00000000000E+00 -0.00000000000E+00 -0.10000000000E+04  0.10000000000E+04  0.00000000000E+00 0.  1.
    9000005    2    1    2  501    0  0.26877687635E-04 -0.40503103293E-04 -0.89821627279E+03  0.11017837260E+04  0.63807123904E+03 0.  0.
         13    1    3    3    0    0 -0.26003994717E+02 -0.13624854819E+03  0.46992235953E+02  0.14645185170E+03  0.00000000000E+00 0.  1.
          1    1    3    3  501    0  0.26004021595E+02  0.13624850769E+03 -0.94520850875E+03  0.95533187427E+03  0.00000000000E+00 0.  1.
         21    1    1    2  502  501 -0.26877687635E-04  0.40503103288E-04  0.94925887759E-03  0.95050267130E-03  0.00000000000E+00 0.  1.
<mgrwt>
<rscale>  1 0.63807124E+03</rscale>
<asrwt>0</asrwt>
<pdfrwt beam="1">  1        1 0.37012688E+00 0.63807124E+03</pdfrwt>
<pdfrwt beam="2">0</pdfrwt>
<totfact> 0.18176573E+00</totfact>
</mgrwt>
</event>
<event>
 6    1  0.3354403E-003  0.6681887E+03  0.7818608E-02  0.9773235E-01
          1   -1    0    0  502    0  0.00000000000E+00  0.00000000000E+00  0.11161947913E+03  0.11161947913E+03  0.00000000000E+00 0.  1.
         13   -1    0    0    0    0 -0.00000000000E+00 -0.00000000000E+00 -0.10000000000E+04  0.10000000000E+04  0.00000000000E+00 0.  1.
    9000005    2    1    2  501    0 -0.58825596398E-04  0.25747543418E-04 -0.88838095034E+03  0.11116190449E+04  0.66818873683E+03 0.  0.
         13    1    3    3    0    0 -0.15415844864E+03 -0.26250919226E+03 -0.21521821419E+03  0.37282004107E+03  0.00000000000E+00 0.  1.
          1    1    3    3  501    0  0.15415838981E+03  0.26250921801E+03 -0.67316273615E+03  0.73879900381E+03  0.00000000000E+00 0.  1.
         21    1    1    2  502  501  0.58825596399E-04 -0.25747543446E-04  0.42946898722E-03  0.43424301695E-03  0.00000000000E+00 0.  1.
<mgrwt>
<rscale>  1 0.66818874E+03</rscale>
<asrwt>0</asrwt>
<pdfrwt beam="1">  1        1 0.40588987E+00 0.66818874E+03</pdfrwt>
<pdfrwt beam="2">0</pdfrwt>
<totfact> 0.12549233E+00</totfact>
</mgrwt>
</event>
<event>
 6    1  0.3354403E-003  0.6490483E+03  0.7818608E-02  0.9808567E-01
          1   -1    0    0  502    0  0.00000000000E+00  0.00000000000E+00  0.10566211324E+03  0.10566211324E+03  0.00000000000E+00 0.  1.
         13   -1    0    0    0    0 -0.00000000000E+00 -0.00000000000E+00 -0.10000000000E+04  0.10000000000E+04  0.00000000000E+00 0.  1.
    9000005    2    1    2  501    0 -0.19093631125E-02 -0.83857881471E-02 -0.89468402317E+03  0.11053158700E+04  0.64904828101E+03 0.  0.
         13    1    3    3    0    0  0.16743622172E+03  0.27433738349E+03 -0.52382675316E+03  0.61456517608E+03  0.00000000000E+00 0.  1.
          1    1    3    3  501    0 -0.16743813108E+03 -0.27434576928E+03 -0.37085727001E+03  0.49075069392E+03  0.00000000000E+00 0.  1.
         21    1    1    2  502  501  0.19093631125E-02  0.83857881471E-02  0.34613640959E+00  0.34624323987E+00  0.00000000000E+00 0. -1.
<mgrwt>
<rscale>  1 0.64904828E+03</rscale>
<asrwt>0</asrwt>
<pdfrwt beam="1">  1        1 0.38422668E+00 0.64904828E+03</pdfrwt>
<pdfrwt beam="2">0</pdfrwt>
<totfact> 0.15722023E+00</totfact>
</mgrwt>
</event>
<event>
 6    1  0.3354403E-003  0.6410511E+03  0.7818608E-02  0.9823718E-01
          1   -1    0    0  502    0  0.00000000000E+00  0.00000000000E+00  0.10273688252E+03  0.10273688252E+03  0.00000000000E+00 0.  1.
         13   -1    0    0    0    0 -0.00000000000E+00 -0.00000000000E+00 -0.10000000000E+04  0.10000000000E+04  0.00000000000E+00 0.  1.
    9000005    2    1    2  501    0 -0.26612899225E-03 -0.40676411721E-03 -0.89726307976E+03  0.11027363950E+04  0.64105110754E+03 0.  0.
         13    1    3    3    0    0 -0.11391318329E+03 -0.57420509717E+02  0.57187295268E+02  0.13979883764E+03  0.00000000000E+00 0.  1.
          3    1    3    3  501    0  0.11391291716E+03  0.57420102953E+02 -0.95445037503E+03  0.96293755733E+03  0.00000000000E+00 0.  1.
         21    1    1    2  502  501  0.26612899224E-03  0.40676411721E-03 -0.37719875632E-04  0.48754946065E-03  0.00000000000E+00 0.  1.
<mgrwt>
<rscale>  1 0.64105111E+03</rscale>
<asrwt>0</asrwt>
<pdfrwt beam="1">  1        1 0.37358945E+00 0.64105111E+03</pdfrwt>
<pdfrwt beam="2">0</pdfrwt>
<totfact> 0.17541071E+00</totfact>
</mgrwt>
</event>
<event>
 6    1  0.3354403E-003  0.6415770E+03  0.7818608E-02  0.9822714E-01
          1   -1    0    0  502    0  0.00000000000E+00  0.00000000000E+00  0.10290528701E+03  0.10290528701E+03  0.00000000000E+00 0.  1.
         13   -1    0    0    0    0 -0.00000000000E+00 -0.00000000000E+00 -0.10000000000E+04  0.10000000000E+04  0.00000000000E+00 0.  1.
    9000005    2    1    2  501    0 -0.69927652646E-06 -0.82341272218E-05 -0.89709472219E+03  0.11029052746E+04  0.64157704467E+03 0.  0.
         13    1    3    3    0    0  0.11645140198E+03 -0.52782416080E+02  0.57211983804E+02  0.14007185142E+03  0.00000000000E+00 0.  1.
          1    1    3    3  501    0 -0.11645140267E+03  0.52782407845E+02 -0.95430670600E+03  0.96283342322E+03  0.00000000000E+00 0.  1.
         21    1    1    2  502  501  0.69927652268E-06  0.82341272228E-05  0.92020343830E-05  0.12367993999E-04  0.00000000000E+00 0.  1.
<mgrwt>
<rscale>  1 0.64157704E+03</rscale>
<asrwt>0</asrwt>
<pdfrwt beam="1">  1        1 0.37420183E+00 0.64157704E+03</pdfrwt>
<pdfrwt beam="2">0</pdfrwt>
<totfact> 0.17430913E+00</totfact>
</mgrwt>
</event>
<event>
 6    1  0.3354403E-003  0.6551649E+03  0.7818608E-02  0.9797136E-01
          1   -1    0    0  502    0  0.00000000000E+00  0.00000000000E+00  0.10751695975E+03  0.10751695975E+03  0.00000000000E+00 0.  1.
         13   -1    0    0    0    0 -0.00000000000E+00 -0.00000000000E+00 -0.10000000000E+04  0.10000000000E+04  0.00000000000E+00 0.  1.
    9000005    2    1    2  501    0  0.18005899656E-02  0.30633270734E-02 -0.89268971766E+03  0.11073102518E+04  0.65516491183E+03 0.  0.
         13    1    3    3    0    0  0.27399619274E+03 -0.12591615560E+03 -0.66266504549E+03  0.72804790666E+03  0.00000000000E+00 0.  1.
          3    1    3    3  501    0 -0.27399439215E+03  0.12591921893E+03 -0.23002467218E+03  0.37926234513E+03  0.00000000000E+00 0.  1.
         21    1    1    2  502  501 -0.18005899655E-02 -0.30633270734E-02  0.20667741520E+00  0.20670795836E+00  0.00000000000E+00 0. -1.
<mgrwt>
<rscale>  1 0.65516491E+03</rscale>
<asrwt>0</asrwt>
<pdfrwt beam="1">  1        1 0.39097159E+00 0.65516491E+03</pdfrwt>
<pdfrwt beam="2">0</pdfrwt>
<totfact> 0.14660288E+00</totfact>
</mgrwt>
</event>
<event>
 6    1  0.3354403E-003  0.6462905E+03  0.7818608E-02  0.9813765E-01
          1   -1    0    0  502    0  0.00000000000E+00  0.00000000000E+00  0.10443535504E+03  0.10443535504E+03  0.00000000000E+00 0.  1.
         13   -1    0    0    0    0 -0.00000000000E+00 -0.00000000000E+00 -0.10000000000E+04  0.10000000000E+04  0.00000000000E+00 0.  1.
    9000005    2    1    2  501    0 -0.68081415565E-02 -0.15527234299E-02 -0.89557605937E+03  0.11044219741E+04  0.64629050638E+03 0.  0.
         13    1    3    3    0    0 -0.28632623203E+03 -0.34341434985E+02 -0.19860978132E+03  0.35015409543E+03  0.00000000000E+00 0.  1.
          3    1    3    3  501    0  0.28631942389E+03  0.34339882261E+02 -0.69696627805E+03  0.75426787864E+03  0.00000000000E+00 0.  1.
         21    1    1    2  502  501  0.68081415565E-02  0.15527234299E-02  0.11414415482E-01  0.13380979871E-01  0.00000000000E+00 0. -1.
<mgrwt>
<rscale>  1 0.64629051E+03</rscale>
<asrwt>0</asrwt>
<pdfrwt beam="1">  1        1 0.37976573E+00 0.64629051E+03</pdfrwt>
<pdfrwt beam="2">0</pdfrwt>
<totfact> 0.16460043E+00</totfact>
</mgrwt>
</event>
<event>
 6    1  0.3354403E-003  0.6457136E+03  0.7818608E-02  0.9814856E-01
          1   -1    0    0  502    0  0.00000000000E+00  0.00000000000E+00  0.10425238970E+03  0.10425238970E+03  0.00000000000E+00 0.  1.
         13   -1    0    0    0    0 -0.00000000000E+00 -0.00000000000E+00 -0.10000000000E+04  0.10000000000E+04  0.00000000000E+00 0.  1.
    9000005    2    1    2  501    0  0.22684622637E-02 -0.18721876794E-02 -0.89576333811E+03  0.11042363892E+04  0.64571359394E+03 0.  0.
         13    1    3    3    0    0  0.17058183024E+03 -0.13306490371E+03 -0.85771120888E+03  0.88457500939E+03  0.00000000000E+00 0.  1.
          3    1    3    3  501    0 -0.17057956178E+03  0.13306303153E+03 -0.38052129231E+02  0.21966137984E+03  0.00000000000E+00 0.  1.
         21    1    1    2  502  501 -0.22684622637E-02  0.18721876794E-02  0.15727805723E-01  0.16000465012E-01  0.00000000000E+00 0. -1.
<mgrwt>
<rscale>  1 0.64571359E+03</rscale>
<asrwt>0</asrwt>
<pdfrwt beam="1">  1        1 0.37910040E+00 0.64571359E+03</pdfrwt>
<pdfrwt beam="2">0</pdfrwt>
<totfact> 0.16573407E+00</totfact>
</mgrwt>
</event>
<event>
 6    1  0.3354403E-003  0.6416632E+03  0.7818608E-02  0.9822549E-01
          1   -1    0    0  502    0  0.00000000000E+00  0.00000000000E+00  0.10747425409E+03  0.10747425409E+03  0.00000000000E+00 0.  1.
         13   -1    0    0    0    0 -0.00000000000E+00 -0.00000000000E+00 -0.10000000000E+04  0.10000000000E+04  0.00000000000E+00 0.  1.
    9000005    2    1    2  501    0 -0.16615570054E+00  0.98785541333E-01 -0.89706480271E+03  0.11029310831E+04  0.64166321103E+03 0.  0.
         13    1    3    3    0    0 -0.72076453851E+02 -0.45123775925E+02 -0.98031183288E+03  0.98399311992E+03  0.00000000000E+00 0.  1.
          1    1    3    3  501    0  0.71910298150E+02  0.45222561467E+02  0.83247030178E+02  0.11893796315E+03  0.00000000000E+00 0.  1.
         21    1    1    2  502  501  0.16615570054E+00 -0.98785541333E-01  0.45390567927E+01  0.45431710145E+01  0.00000000000E+00 0.  1.
<mgrwt>
<rscale>  1 0.64166324E+03</rscale>
<asrwt>0</asrwt>
<pdfrwt beam="1">  1        1 0.39081629E+00 0.64166324E+03</pdfrwt>
<pdfrwt beam="2">0</pdfrwt>
<totfact> 0.14720748E+00</totfact>
</mgrwt>
</event>
<event>
 6    1  0.3354403E-003  0.6803333E+03  0.7818608E-02  0.9751469E-01
          1   -1    0    0  502    0  0.00000000000E+00  0.00000000000E+00  0.11578657241E+03  0.11578657241E+03  0.00000000000E+00 0.  1.
         13   -1    0    0    0    0 -0.00000000000E+00 -0.00000000000E+00 -0.10000000000E+04  0.10000000000E+04  0.00000000000E+00 0.  1.
    9000005    2    1    2  501    0  0.28942409690E-01  0.89216524868E-01 -0.88425139603E+03  0.11156853852E+04  0.68033325551E+03 0.  0.
         13    1    3    3    0    0 -0.30837014859E+03 -0.13975055280E+03 -0.49571702181E+03  0.60029803536E+03  0.00000000000E+00 0.  1.
          3    1    3    3  501    0  0.30839909100E+03  0.13983976932E+03 -0.38853437422E+03  0.51538734983E+03  0.00000000000E+00 0.  1.
         21    1    1    2  502  501 -0.28942409690E-01 -0.89216524868E-01  0.37968435894E-01  0.10118722010E+00  0.00000000000E+00 0. -1.
<mgrwt>
<rscale>  1 0.68033326E+03</rscale>
<asrwt>0</asrwt>
<pdfrwt beam="1">  1        1 0.42104297E+00 0.68033326E+03</pdfrwt>
<pdfrwt beam="2">0</pdfrwt>
<totfact> 0.10702701E+00</totfact>
</mgrwt>
</event>
<event>
 6    1  0.3354403E-003  0.6993182E+03  0.7818608E-02  0.9718399E-01
          1   -1    0    0  502    0  0.00000000000E+00  0.00000000000E+00  0.12226150408E+03  0.12226150408E+03  0.00000000000E+00 0.  1.
         13   -1    0    0    0    0 -0.00000000000E+00 -0.00000000000E+00 -0.10000000000E+04  0.10000000000E+04  0.00000000000E+00 0.  1.
    9000005    2    1    2  501    0 -0.50748269302E-05 -0.32035965205E-05 -0.87773851553E+03  0.11222614836E+04  0.69931819357E+03 0.  0.
         13    1    3    3    0    0  0.14713751828E+03 -0.24459255912E+03 -0.76296813684E+03  0.81461361828E+03  0.00000000000E+00 0.  1.
          3    1    3    3  501    0 -0.14713752335E+03  0.24459255592E+03 -0.11477037869E+03  0.30764786529E+03  0.00000000000E+00 0.  1.
         21    1    1    2  502  501  0.50748269249E-05  0.32035965168E-05  0.19611082356E-04  0.20508813962E-04  0.00000000000E+00 0.  1.
<mgrwt>
<rscale>  1 0.69931819E+03</rscale>
<asrwt>0</asrwt>
<pdfrwt beam="1">  1        1 0.44458823E+00 0.69931819E+03</pdfrwt>
<pdfrwt beam="2">0</pdfrwt>
<totfact> 0.83303658E-01</totfact>
</mgrwt>
</event>
<event>
 6    1  0.3354403E-003  0.6873320E+03  0.7818608E-02  0.9739145E-01
          1   -1    0    0  502    0  0.00000000000E+00  0.00000000000E+00  0.11811981781E+03  0.11811981781E+03  0.00000000000E+00 0.  1.
         13   -1    0    0    0    0 -0.00000000000E+00 -0.00000000000E+00 -0.10000000000E+04  0.10000000000E+04  0.00000000000E+00 0.  1.
    9000005    2    1    2  501    0 -0.11110721972E-02 -0.68663794870E-02 -0.88189267766E+03  0.11181055168E+04  0.68733198077E+03 0.  0.
         13    1    3    3    0    0 -0.79919053607E+02  0.25352449859E+03 -0.86618079993E+02  0.27957900188E+03  0.00000000000E+00 0.  1.
          3    1    3    3  501    0  0.79917942535E+02 -0.25353136497E+03 -0.79527459766E+03  0.83852651494E+03  0.00000000000E+00 0.  1.
         21    1    1    2  502  501  0.11110721972E-02  0.68663794870E-02  0.12495465889E-01  0.14300990052E-01  0.00000000000E+00 0.  1.
<mgrwt>
<rscale>  1 0.68733198E+03</rscale>
<asrwt>0</asrwt>
<pdfrwt beam="1">  1        1 0.42952752E+00 0.68733198E+03</pdfrwt>
<pdfrwt beam="2">0</pdfrwt>
<totfact> 0.97830152E-01</totfact>
</mgrwt>
</event>
<event>
 6    1  0.3354403E-003  0.6562921E+03  0.7818608E-02  0.9795044E-01
          1   -1    0    0  502    0  0.00000000000E+00  0.00000000000E+00  0.10806890535E+03  0.10806890535E+03  0.00000000000E+00 0.  1.
         13   -1    0    0    0    0 -0.00000000000E+00 -0.00000000000E+00 -0.10000000000E+04  0.10000000000E+04  0.00000000000E+00 0.  1.
    9000005    2    1    2  501    0 -0.39487093179E-01  0.16444256211E+00 -0.89229970938E+03  0.11076633472E+04  0.65629207736E+03 0.  0.
         13    1    3    3    0    0  0.64167141802E+02 -0.14212684237E+03 -0.93331952399E+03  0.94625725639E+03  0.00000000000E+00 0.  1.
          1    1    3    3  501    0 -0.64206628895E+02  0.14229128494E+03  0.41019814613E+02  0.16140609082E+03  0.00000000000E+00 0.  1.
         21    1    1    2  502  501  0.39487093179E-01 -0.16444256211E+00  0.36861472754E+00  0.40555813901E+00  0.00000000000E+00 0. -1.
<mgrwt>
<rscale>  1 0.65629210E+03</rscale>
<asrwt>0</asrwt>
<pdfrwt beam="1">  1        1 0.39297867E+00 0.65629210E+03</pdfrwt>
<pdfrwt beam="2">0</pdfrwt>
<totfact> 0.14359567E+00</totfact>
</mgrwt>
</event>
<event>
 6    1  0.3354403E-003  0.6499140E+03  0.7818608E-02  0.9806940E-01
          1   -1    0    0  502    0  0.00000000000E+00  0.00000000000E+00  0.10598557047E+03  0.10598557047E+03  0.00000000000E+00 0.  1.
         13   -1    0    0    0    0 -0.00000000000E+00 -0.00000000000E+00 -0.10000000000E+04  0.10000000000E+04  0.00000000000E+00 0.  1.
    9000005    2    1    2  501    0 -0.12314802618E-01  0.13962901981E-01 -0.89440268706E+03  0.11055968668E+04  0.64991404427E+03 0.  0.
         13    1    3    3    0    0 -0.15767455161E+03 -0.10379824868E+02 -0.93025151980E+03  0.94357665034E+03  0.00000000000E+00 0.  1.
          1    1    3    3  501    0  0.15766223680E+03  0.10393787770E+02  0.35848832732E+02  0.16202021647E+03  0.00000000000E+00 0.  1.
         21    1    1    2  502  501  0.12314802618E-01 -0.13962901981E-01  0.38825753756E+00  0.38870365636E+00  0.00000000000E+00 0.  1.
<mgrwt>
<rscale>  1 0.64991404E+03</rscale>
<asrwt>0</asrwt>
<pdfrwt beam="1">  1        1 0.38540289E+00 0.64991404E+03</pdfrwt>
<pdfrwt beam="2">0</pdfrwt>
<totfact> 0.15532342E+00</totfact>
</mgrwt>
</event>
<event>
 6    1  0.3589896E-003  0.6588291E+03  0.7818608E-02  0.9790352E-01
          1   -1    0    0  502    0  0.00000000000E+00  0.00000000000E+00  0.10851409490E+03  0.10851409490E+03  0.00000000000E+00 0.  1.
         13   -1    0    0    0    0 -0.00000000000E+00 -0.00000000000E+00 -0.10000000000E+04  0.10000000000E+04  0.00000000000E+00 0.  1.
    9000005    2    1    2  501    0  0.20640117410E-03 -0.21153781984E-03 -0.89148589054E+03  0.11085137990E+04  0.65882907460E+03 0.  0.
         13    1    3    3    0    0 -0.62231653240E+02 -0.45374824032E+02 -0.98463839570E+03  0.98764589991E+03  0.00000000000E+00 0.  1.
          1    1    3    3  501    0  0.62231859641E+02  0.45374612494E+02  0.93152505157E+02  0.12086789909E+03  0.00000000000E+00 0.  1.
         21    1    1    2  502  501 -0.20640117409E-03  0.21153781984E-03 -0.14557632674E-04  0.29590812520E-03  0.00000000000E+00 0.  1.
<mgrwt>
<rscale>  1 0.65882907E+03</rscale>
<asrwt>0</asrwt>
<pdfrwt beam="1">  1        1 0.39459754E+00 0.65882907E+03</pdfrwt>
<pdfrwt beam="2">0</pdfrwt>
<totfact> 0.14116998E+00</totfact>
</mgrwt>
</event>
<event>
 6    1  0.3354403E-003  0.6435138E+03  0.7818608E-02  0.9819027E-01
          1   -1    0    0  502    0  0.00000000000E+00  0.00000000000E+00  0.10353807949E+03  0.10353807949E+03  0.00000000000E+00 0.  1.
         13   -1    0    0    0    0 -0.00000000000E+00 -0.00000000000E+00 -0.10000000000E+04  0.10000000000E+04  0.00000000000E+00 0.  1.
    9000005    2    1    2  501    0  0.86834408938E-02  0.62667458273E-02 -0.89646943115E+03  0.11035249996E+04  0.64351377888E+03 0.  0.
         13    1    3    3    0    0  0.26086719302E+03  0.14585424872E+03 -0.65262842766E+03  0.71780848341E+03  0.00000000000E+00 0.  1.
          1    1    3    3  501    0 -0.26085850958E+03 -0.14584798198E+03 -0.24384100348E+03  0.38571651617E+03  0.00000000000E+00 0.  1.
         21    1    1    2  502  501 -0.86834408938E-02 -0.62667458273E-02  0.75106332812E-02  0.13079902955E-01  0.00000000000E+00 0. -1.
<mgrwt>
<rscale>  1 0.64351378E+03</rscale>
<asrwt>0</asrwt>
<pdfrwt beam="1">  1        1 0.37650290E+00 0.64351378E+03</pdfrwt>
<pdfrwt beam="2">0</pdfrwt>
<totfact> 0.17022984E+00</totfact>
</mgrwt>
</event>
<event>
 6    1  0.3354403E-003  0.6523696E+03  0.7818608E-02  0.9802343E-01
          1   -1    0    0  502    0  0.00000000000E+00  0.00000000000E+00  0.10639702322E+03  0.10639702322E+03  0.00000000000E+00 0.  1.
         13   -1    0    0    0    0 -0.00000000000E+00 -0.00000000000E+00 -0.10000000000E+04  0.10000000000E+04  0.00000000000E+00 0.  1.
    9000005    2    1    2  501    0  0.14090332925E-03  0.93374344743E-04 -0.89360345180E+03  0.11063965190E+04  0.65236962548E+03 0.  0.
         13    1    3    3    0    0  0.23424265246E+03  0.22421070972E+03 -0.38668413839E+03  0.50464312684E+03  0.00000000000E+00 0.  1.
          1    1    3    3  501    0 -0.23424251155E+03 -0.22421061635E+03 -0.50691931341E+03  0.60175339219E+03  0.00000000000E+00 0.  1.
         21    1    1    2  502  501 -0.14090332927E-03 -0.93374344743E-04  0.47502082233E-03  0.50419966095E-03  0.00000000000E+00 0. -1.
<mgrwt>
<rscale>  1 0.65236963E+03</rscale>
<asrwt>0</asrwt>
<pdfrwt beam="1">  1        1 0.38689908E+00 0.65236963E+03</pdfrwt>
<pdfrwt beam="2">0</pdfrwt>
<totfact> 0.15290367E+00</totfact>
</mgrwt>
</event>
<event>
 6    1  0.3354403E-003  0.6605828E+03  0.7818608E-02  0.9787121E-01
          1   -1    0    0  502    0  0.00000000000E+00  0.00000000000E+00  0.10909305762E+03  0.10909305762E+03  0.00000000000E+00 0.  1.
         13   -1    0    0    0    0 -0.00000000000E+00 -0.00000000000E+00 -0.10000000000E+04  0.10000000000E+04  0.00000000000E+00 0.  1.
    9000005    2    1    2  501    0 -0.16321158565E-04 -0.90295811987E-04 -0.89090757106E+03  0.11090924223E+04  0.66058284946E+03 0.  0.
         13    1    3    3    0    0  0.19180570262E+02  0.25350666884E+03 -0.79946712620E+03  0.83891668913E+03  0.00000000000E+00 0.  1.
          1    1    3    3  501    0 -0.19180586583E+02 -0.25350675914E+03 -0.91440444858E+02  0.27017573316E+03  0.00000000000E+00 0.  1.
         21    1    1    2  502  501  0.16321158568E-04  0.90295811979E-04  0.62867582994E-03  0.63533692874E-03  0.00000000000E+00 0. -1.
<mgrwt>
<rscale>  1 0.66058285E+03</rscale>
<asrwt>0</asrwt>
<pdfrwt beam="1">  1        1 0.39670286E+00 0.66058285E+03</pdfrwt>
<pdfrwt beam="2">0</pdfrwt>
<totfact> 0.13811315E+00</totfact>
</mgrwt>
</event>
<event>
 6    1  0.3354403E-003  0.6685900E+03  0.7818608E-02  0.9772508E-01
          1   -1    0    0  502    0  0.00000000000E+00  0.00000000000E+00  0.11207478206E+03  0.11207478206E+03  0.00000000000E+00 0.  1.
         13   -1    0    0    0    0 -0.00000000000E+00 -0.00000000000E+00 -0.10000000000E+04  0.10000000000E+04  0.00000000000E+00 0.  1.
    9000005    2    1    2  501    0 -0.83422565812E-02 -0.70060997666E-01 -0.88824252917E+03  0.11117497212E+04  0.66859004406E+03 0.  0.
         13    1    3    3    0    0  0.32618011961E+03 -0.70409343151E+01 -0.32297113993E+03  0.45907886295E+03  0.00000000000E+00 0.  1.
          1    1    3    3  501    0 -0.32618846186E+03  0.69708733175E+01 -0.56527138924E+03  0.65267085826E+03  0.00000000000E+00 0.  1.
         21    1    1    2  502  501  0.83422565811E-02  0.70060997666E-01  0.31731122865E+00  0.32506084425E+00  0.00000000000E+00 0. -1.
<mgrwt>
<rscale>  1 0.66859005E+03</rscale>
<asrwt>0</asrwt>
<pdfrwt beam="1">  1        1 0.40754552E+00 0.66859005E+03</pdfrwt>
<pdfrwt beam="2">0</pdfrwt>
<totfact> 0.12335937E+00</totfact>
</mgrwt>
</event>
<event>
 6    1  0.3354403E-003  0.6926253E+03  0.7818608E-02  0.9729928E-01
          1   -1    0    0  502    0  0.00000000000E+00  0.00000000000E+00  0.12019494546E+03  0.12019494546E+03  0.00000000000E+00 0.  1.
         13   -1    0    0    0    0 -0.00000000000E+00 -0.00000000000E+00 -0.10000000000E+04  0.10000000000E+04  0.00000000000E+00 0.  1.
    9000005    2    1    2  501    0 -0.72527742635E-01 -0.19085835108E-01 -0.88006154973E+03  0.11199277109E+04  0.69262525268E+03 0.  0.
         13    1    3    3    0    0  0.16076532475E+03 -0.30150622132E+03 -0.53112994285E+03  0.63154612447E+03  0.00000000000E+00 0.  1.
          1    1    3    3  501    0 -0.16083785249E+03  0.30148713549E+03 -0.34893160688E+03  0.48838158640E+03  0.00000000000E+00 0.  1.
         21    1    1    2  502  501  0.72527742635E-01  0.19085835108E-01  0.25649518713E+00  0.26723458529E+00  0.00000000000E+00 0. -1.
<mgrwt>
<rscale>  1 0.69262526E+03</rscale>
<asrwt>0</asrwt>
<pdfrwt beam="1">  1        1 0.43707345E+00 0.69262526E+03</pdfrwt>
<pdfrwt beam="2">0</pdfrwt>
<totfact> 0.90292448E-01</totfact>
</mgrwt>
</event>
<event>
 6    1  0.3354403E-003  0.6576777E+03  0.7818608E-02  0.9792478E-01
          3   -1    0    0  502    0  0.00000000000E+00  0.00000000000E+00  0.11461655096E+03  0.11461655096E+03  0.00000000000E+00 0.  1.
         13   -1    0    0    0    0 -0.00000000000E+00 -0.00000000000E+00 -0.10000000000E+04  0.10000000000E+04  0.00000000000E+00 0.  1.
    9000005    2    1    2  501    0  0.79068040958E-01  0.53125865627E-01 -0.89186461051E+03  0.11081346895E+04  0.65767773074E+03 0.  0.
         13    1    3    3    0    0 -0.20745907068E+03  0.10338900159E+03 -0.83888128133E+03  0.87031623897E+03  0.00000000000E+00 0.  1.
          1    1    3    3  501    0  0.20753813872E+03 -0.10333587573E+03 -0.52983329179E+02  0.23781845052E+03  0.00000000000E+00 0.  1.
         21    1    1    2  502  501 -0.79068040958E-01 -0.53125865627E-01  0.64811614708E+01  0.64818614706E+01  0.00000000000E+00 0.  1.
<mgrwt>
<rscale>  1 0.65767774E+03</rscale>
<asrwt>0</asrwt>
<pdfrwt beam="1">  1        3 0.41678834E+00 0.65767774E+03</pdfrwt>
<pdfrwt beam="2">0</pdfrwt>
<totfact> 0.48356826E-02</totfact>
</mgrwt>
</event>
<event>
 6    1  0.3354403E-003  0.6539194E+03  0.7818608E-02  0.9799452E-01
          1   -1    0    0  502    0  0.00000000000E+00  0.00000000000E+00  0.10690364586E+03  0.10690364586E+03  0.00000000000E+00 0.  1.
         13   -1    0    0    0    0 -0.00000000000E+00 -0.00000000000E+00 -0.10000000000E+04  0.10000000000E+04  0.00000000000E+00 0.  1.
    9000005    2    1    2  501    0  0.11536082678E-02 -0.65582494568E-03 -0.89309683343E+03  0.11069022350E+04  0.65391941695E+03 0.  0.
         13    1    3    3    0    0  0.16119723751E+03 -0.20284431776E+03 -0.78412934081E+03  0.82582636780E+03  0.00000000000E+00 0.  1.
          3    1    3    3  501    0 -0.16119608390E+03  0.20284366193E+03 -0.10896749262E+03  0.28107586716E+03  0.00000000000E+00 0.  1.
         21    1    1    2  502  501 -0.11536082678E-02  0.65582494569E-03  0.47928816094E-03  0.14108988398E-02  0.00000000000E+00 0.  1.
<mgrwt>
<rscale>  1 0.65391942E+03</rscale>
<asrwt>0</asrwt>
<pdfrwt beam="1">  1        1 0.38874135E+00 0.65391942E+03</pdfrwt>
<pdfrwt beam="2">0</pdfrwt>
<totfact> 0.15001429E+00</totfact>
</mgrwt>
</event>
<event>
 6    1  0.3354403E-003  0.6458592E+03  0.7818608E-02  0.9814580E-01
          1   -1    0    0  502    0  0.00000000000E+00  0.00000000000E+00  0.10440568043E+03  0.10440568043E+03  0.00000000000E+00 0.  1.
         13   -1    0    0    0    0 -0.00000000000E+00 -0.00000000000E+00 -0.10000000000E+04  0.10000000000E+04  0.00000000000E+00 0.  1.
    9000005    2    1    2  501    0 -0.52673111929E-02 -0.10458399266E-01 -0.89571617491E+03  0.11042832637E+04  0.64585916457E+03 0.  0.
         13    1    3    3    0    0 -0.26125170340E+03 -0.18980440060E+03 -0.44281831481E+03  0.54805676982E+03  0.00000000000E+00 0.  1.
          3    1    3    3  501    0  0.26124643608E+03  0.18979394220E+03 -0.45289786009E+03  0.55622649392E+03  0.00000000000E+00 0.  1.
         21    1    1    2  502  501  0.52673111929E-02  0.10458399266E-01  0.12185533476E+00  0.12241668715E+00  0.00000000000E+00 0.  1.
<mgrwt>
<rscale>  1 0.64585916E+03</rscale>
<asrwt>0</asrwt>
<pdfrwt beam="1">  1        1 0.37965782E+00 0.64585916E+03</pdfrwt>
<pdfrwt beam="2">0</pdfrwt>
<totfact> 0.16479402E+00</totfact>
</mgrwt>
</event>
<event>
 6    1  0.3354403E-003  0.6260996E+03  0.7818608E-02  0.9852690E-01
          1   -1    0    0  502    0  0.00000000000E+00  0.00000000000E+00  0.98000399335E+02  0.98000399335E+02  0.00000000000E+00 0.  1.
         13   -1    0    0    0    0 -0.00000000000E+00 -0.00000000000E+00 -0.10000000000E+04  0.10000000000E+04  0.00000000000E+00 0.  1.
    9000005    2    1    2  501    0  0.21716321569E-04  0.12257817161E-05 -0.90199983075E+03  0.10980001682E+04  0.62609957255E+03 0.  0.
         13    1    3    3    0    0 -0.11818963558E+03  0.28988165950E+03 -0.45100170333E+03  0.54900155089E+03  0.00000000000E+00 0.  1.
          1    1    3    3  501    0  0.11818965730E+03 -0.28988165827E+03 -0.45099812742E+03  0.54899861734E+03  0.00000000000E+00 0.  1.
         21    1    1    2  502  501 -0.21716321566E-04 -0.12257817039E-05  0.23008528654E-03  0.23111109936E-03  0.00000000000E+00 0.  1.
<mgrwt>
<rscale>  1 0.62609957E+03</rscale>
<asrwt>0</asrwt>
<pdfrwt beam="1">  1        1 0.35636584E+00 0.62609957E+03</pdfrwt>
<pdfrwt beam="2">0</pdfrwt>
<totfact> 0.20927514E+00</totfact>
</mgrwt>
</event>
<event>
 6    1  0.5660959E-003  0.6552868E+03  0.7818608E-02  0.9796909E-01
          1   -1    0    0  502    0  0.00000000000E+00  0.00000000000E+00  0.10735020335E+03  0.10735020335E+03  0.00000000000E+00 0.  1.
         13   -1    0    0    0    0 -0.00000000000E+00 -0.00000000000E+00 -0.10000000000E+04  0.10000000000E+04  0.00000000000E+00 0.  1.
    9000005    2    1    2  501    0 -0.24446572752E-04 -0.29911402891E-04 -0.89264973309E+03  0.11073501290E+04  0.65528677855E+03 0.  0.
         13    1    3    3    0    0  0.15493110482E+03 -0.66607267777E+02  0.28375554612E+02  0.17101271140E+03  0.00000000000E+00 0.  1.
          3    1    3    3  501    0 -0.15493112927E+03  0.66607237866E+02 -0.92102528770E+03  0.93633741757E+03  0.00000000000E+00 0.  1.
         21    1    1    2  502  501  0.24446572763E-04  0.29911402891E-04 -0.63562747082E-04  0.74381111577E-04  0.00000000000E+00 0. -1.
<mgrwt>
<rscale>  1 0.65528678E+03</rscale>
<asrwt>0</asrwt>
<pdfrwt beam="1">  1        1 0.39036520E+00 0.65528678E+03</pdfrwt>
<pdfrwt beam="2">0</pdfrwt>
<totfact> 0.14751047E+00</totfact>
</mgrwt>
</event>
<event>
 6    1  0.3354403E-003  0.6353412E+03  0.7818608E-02  0.9834681E-01
          1   -1    0    0  502    0  0.00000000000E+00  0.00000000000E+00  0.10091477378E+03  0.10091477378E+03  0.00000000000E+00 0.  1.
         13   -1    0    0    0    0 -0.00000000000E+00 -0.00000000000E+00 -0.10000000000E+04  0.10000000000E+04  0.00000000000E+00 0.  1.
    9000005    2    1    2  501    0  0.79089863185E-04 -0.71830010313E-05 -0.89908538744E+03  0.11009145941E+04  0.63534117567E+03 0.  0.
         13    1    3    3    0    0  0.59012745827E+02 -0.23432466862E+03 -0.80686816521E+03  0.84227477139E+03  0.00000000000E+00 0.  1.
          3    1    3    3  501    0 -0.59012666737E+02  0.23432466144E+03 -0.92217222235E+02  0.25863982267E+03  0.00000000000E+00 0.  1.
         21    1    1    2  502  501 -0.79089863187E-04  0.71830010394E-05  0.16122289643E-03  0.17972096232E-03  0.00000000000E+00 0.  1.
<mgrwt>
<rscale>  1 0.63534118E+03</rscale>
<asrwt>0</asrwt>
<pdfrwt beam="1">  1        1 0.36696359E+00 0.63534118E+03</pdfrwt>
<pdfrwt beam="2">0</pdfrwt>
<totfact> 0.18776363E+00</totfact>
</mgrwt>
</event>
<event>
 6    1  0.3354403E-003  0.6586732E+03  0.7818608E-02  0.9790639E-01
          1   -1    0    0  502    0  0.00000000000E+00  0.00000000000E+00  0.10851434276E+03  0.10851434276E+03  0.00000000000E+00 0.  1.
         13   -1    0    0    0    0 -0.00000000000E+00 -0.00000000000E+00 -0.10000000000E+04  0.10000000000E+04  0.00000000000E+00 0.  1.
    9000005    2    1    2  501    0  0.27731377469E-01  0.50729840105E-01 -0.89151885589E+03  0.11084476742E+04  0.65867319112E+03 0.  0.
         13    1    3    3    0    0  0.26616182629E+03  0.17626496847E+03 -0.58217083310E+03  0.66395356448E+03  0.00000000000E+00 0.  1.
          3    1    3    3  501    0 -0.26613409491E+03 -0.17621423863E+03 -0.30934802280E+03  0.44449410972E+03  0.00000000000E+00 0.  1.
         21    1    1    2  502  501 -0.27731377469E-01 -0.50729840105E-01  0.33198651979E-01  0.66668556806E-01  0.00000000000E+00 0.  1.
<mgrwt>
<rscale>  1 0.65867319E+03</rscale>
<asrwt>0</asrwt>
<pdfrwt beam="1">  1        1 0.39459844E+00 0.65867319E+03</pdfrwt>
<pdfrwt beam="2">0</pdfrwt>
<totfact> 0.14117277E+00</totfact>
</mgrwt>
</event>
<event>
 6    1  0.3354403E-003  0.6654133E+03  0.7818608E-02  0.9778279E-01
          1   -1    0    0  502    0  0.00000000000E+00  0.00000000000E+00  0.11136791898E+03  0.11136791898E+03  0.00000000000E+00 0.  1.
         13   -1    0    0    0    0 -0.00000000000E+00 -0.00000000000E+00 -0.10000000000E+04  0.10000000000E+04  0.00000000000E+00 0.  1.
    9000005    2    1    2  501    0 -0.53614978308E-01 -0.25879061383E-01 -0.88930481062E+03  0.11106925603E+04  0.66541334047E+03 0.  0.
         13    1    3    3    0    0  0.15607716946E+03  0.88232665152E+02  0.23149637797E+02  0.18077884764E+03  0.00000000000E+00 0.  1.
          1    1    3    3  501    0 -0.15613078443E+03 -0.88258544213E+02 -0.91245444842E+03  0.92991371261E+03  0.00000000000E+00 0.  1.
         21    1    1    2  502  501  0.53614978308E-01  0.25879061383E-01  0.67272960078E+00  0.67535872503E+00  0.00000000000E+00 0. -1.
<mgrwt>
<rscale>  1 0.66541334E+03</rscale>
<asrwt>0</asrwt>
<pdfrwt beam="1">  1        1 0.40497510E+00 0.66541334E+03</pdfrwt>
<pdfrwt beam="2">0</pdfrwt>
<totfact> 0.12674651E+00</totfact>
</mgrwt>
</event>
<event>
 6    1  0.3354403E-003  0.6779724E+03  0.7818608E-02  0.9755662E-01
          1   -1    0    0  502    0  0.00000000000E+00  0.00000000000E+00  0.11565662294E+03  0.11565662294E+03  0.00000000000E+00 0.  1.
         13   -1    0    0    0    0 -0.00000000000E+00 -0.00000000000E+00 -0.10000000000E+04  0.10000000000E+04  0.00000000000E+00 0.  1.
    9000005    2    1    2  501    0 -0.76587636260E-01 -0.40029624321E-01 -0.88508556853E+03  0.11149094173E+04  0.67797237242E+03 0.  0.
         13    1    3    3    0    0 -0.14579316684E+03  0.27613115124E+03 -0.65951219611E+03  0.72969883994E+03  0.00000000000E+00 0.  1.
          1    1    3    3  501    0  0.14571657920E+03 -0.27617118087E+03 -0.22557337242E+03  0.38521057740E+03  0.00000000000E+00 0.  1.
         21    1    1    2  502  501  0.76587636260E-01  0.40029624321E-01  0.74219146684E+00  0.74720560109E+00  0.00000000000E+00 0. -1.
<mgrwt>
<rscale>  1 0.67797238E+03</rscale>
<asrwt>0</asrwt>
<pdfrwt beam="1">  1        1 0.42057042E+00 0.67797238E+03</pdfrwt>
<pdfrwt beam="2">0</pdfrwt>
<totfact> 0.10760270E+00</totfact>
</mgrwt>
</event>
<event>
 6    1  0.3354403E-003  0.6570414E+03  0.7818608E-02  0.9793656E-01
          1   -1    0    0  502    0  0.00000000000E+00  0.00000000000E+00  0.10792718158E+03  0.10792718158E+03  0.00000000000E+00 0.  1.
         13   -1    0    0    0    0 -0.00000000000E+00 -0.00000000000E+00 -0.10000000000E+04  0.10000000000E+04  0.00000000000E+00 0.  1.
    9000005    2    1    2  501    0  0.95131387184E-04  0.19185607342E-02 -0.89207334236E+03  0.11079251905E+04  0.65704138345E+03 0.  0.
         13    1    3    3    0    0 -0.15712961564E+03 -0.22612795261E+03 -0.14391356963E+03  0.31070030993E+03  0.00000000000E+00 0.  1.
          1    1    3    3  501    0  0.15712971077E+03  0.22612987118E+03 -0.74815977274E+03  0.79722488056E+03  0.00000000000E+00 0.  1.
         21    1    1    2  502  501 -0.95131387196E-04 -0.19185607342E-02  0.52394708119E-03  0.19910916141E-02  0.00000000000E+00 0. -1.
<mgrwt>
<rscale>  1 0.65704138E+03</rscale>
<asrwt>0</asrwt>
<pdfrwt beam="1">  1        1 0.39246331E+00 0.65704138E+03</pdfrwt>
<pdfrwt beam="2">0</pdfrwt>
<totfact> 0.14433434E+00</totfact>
</mgrwt>
</event>
<event>
 6    1  0.3354403E-003  0.6547293E+03  0.7818608E-02  0.9797945E-01
          1   -1    0    0  502    0  0.00000000000E+00  0.00000000000E+00  0.10716786448E+03  0.10716786448E+03  0.00000000000E+00 0.  1.
         13   -1    0    0    0    0 -0.00000000000E+00 -0.00000000000E+00 -0.10000000000E+04  0.10000000000E+04  0.00000000000E+00 0.  1.
    9000005    2    1    2  501    0  0.11825382003E-04 -0.19244052567E-04 -0.89283238060E+03  0.11071676184E+04  0.65472931453E+03 0.  0.
         13    1    3    3    0    0 -0.77817726691E+02 -0.20111818608E+03 -0.29915899674E+02  0.21771330784E+03  0.00000000000E+00 0.  1.
          1    1    3    3  501    0  0.77817738517E+02  0.20111816683E+03 -0.86291648092E+03  0.88945431052E+03  0.00000000000E+00 0.  1.
         21    1    1    2  502  501 -0.11825382004E-04  0.19244052566E-04  0.24507826720E-03  0.24611690367E-03  0.00000000000E+00 0.  1.
<mgrwt>
<rscale>  1 0.65472931E+03</rscale>
<asrwt>0</asrwt>
<pdfrwt beam="1">  1        1 0.38970215E+00 0.65472931E+03</pdfrwt>
<pdfrwt beam="2">0</pdfrwt>
<totfact> 0.14852798E+00</totfact>
</mgrwt>
</event>
<event>
 6    1  0.3354403E-003  0.6089766E+03  0.7818608E-02  0.9886955E-01
          1   -1    0    0  502    0  0.00000000000E+00  0.00000000000E+00  0.94126213857E+02  0.94126213857E+02  0.00000000000E+00 0.  1.
         13   -1    0    0    0    0 -0.00000000000E+00 -0.00000000000E+00 -0.10000000000E+04  0.10000000000E+04  0.00000000000E+00 0.  1.
    9000005    2    1    2  501    0  0.11483319919E+00  0.25334045037E-01 -0.90728419602E+03  0.10927109102E+04  0.60897660631E+03 0.  0.
         13    1    3    3    0    0 -0.15702883277E+03 -0.23849621077E+03 -0.64305860476E+03  0.70360703950E+03  0.00000000000E+00 0.  1.
          1    1    3    3  501    0  0.15714366597E+03  0.23852154482E+03 -0.26422559127E+03  0.38910387068E+03  0.00000000000E+00 0.  1.
         21    1    1    2  502  501 -0.11483319919E+00 -0.25334045037E-01  0.14104098798E+01  0.14153036800E+01  0.00000000000E+00 0.  1.
<mgrwt>
<rscale>  1 0.60897662E+03</rscale>
<asrwt>0</asrwt>
<pdfrwt beam="1">  1        1 0.34227786E+00 0.60897662E+03</pdfrwt>
<pdfrwt beam="2">0</pdfrwt>
<totfact> 0.24177964E+00</totfact>
</mgrwt>
</event>
<event>
 6    1  0.3354403E-003  0.6706323E+03  0.7818608E-02  0.9768816E-01
          1   -1    0    0  502    0  0.00000000000E+00  0.00000000000E+00  0.11244956246E+03  0.11244956246E+03  0.00000000000E+00 0.  1.
         13   -1    0    0    0    0 -0.00000000000E+00 -0.00000000000E+00 -0.10000000000E+04  0.10000000000E+04  0.00000000000E+00 0.  1.
    9000005    2    1    2  501    0 -0.66984710827E-04  0.19821106956E-03 -0.88756309486E+03  0.11124369034E+04  0.67063225149E+03 0.  0.
         13    1    3    3    0    0 -0.23638351765E+03  0.11907879369E+03 -0.78526653425E+03  0.82867391436E+03  0.00000000000E+00 0.  1.
          1    1    3    3  501    0  0.23638345066E+03 -0.11907859548E+03 -0.10229656060E+03  0.28376298906E+03  0.00000000000E+00 0.  1.
         21    1    1    2  502  501  0.66984710843E-04 -0.19821106956E-03  0.12657318350E-01  0.12659047452E-01  0.00000000000E+00 0. -1.
<mgrwt>
<rscale>  1 0.67063225E+03</rscale>
<asrwt>0</asrwt>
<pdfrwt beam="1">  1        1 0.40890836E+00 0.67063225E+03</pdfrwt>
<pdfrwt beam="2">0</pdfrwt>
<totfact> 0.12159008E+00</totfact>
</mgrwt>
</event>
<event>
 6    1  0.3354403E-003  0.6478241E+03  0.7818608E-02  0.9810871E-01
          1   -1    0    0  502    0  0.00000000000E+00  0.00000000000E+00  0.10491986991E+03  0.10491986991E+03  0.00000000000E+00 0.  1.
         13   -1    0    0    0    0 -0.00000000000E+00 -0.00000000000E+00 -0.10000000000E+04  0.10000000000E+04  0.00000000000E+00 0.  1.
    9000005    2    1    2  501    0  0.19901602627E-04 -0.28115718526E-03 -0.89508094248E+03  0.11049190100E+04  0.64782414675E+03 0.  0.
         13    1    3    3    0    0 -0.29657911520E+03 -0.37085018917E+02 -0.23461841825E+03  0.37997404172E+03  0.00000000000E+00 0.  1.
          3    1    3    3  501    0  0.29657913510E+03  0.37084737760E+02 -0.66046252423E+03  0.72494496830E+03  0.00000000000E+00 0.  1.
         21    1    1    2  502  501 -0.19901602624E-04  0.28115718527E-03  0.81238750404E-03  0.85989469898E-03  0.00000000000E+00 0. -1.
<mgrwt>
<rscale>  1 0.64782415E+03</rscale>
<asrwt>0</asrwt>
<pdfrwt beam="1">  1        1 0.38152760E+00 0.64782415E+03</pdfrwt>
<pdfrwt beam="2">0</pdfrwt>
<totfact> 0.16163380E+00</totfact>
</mgrwt>
</event>
<event>
 6    1  0.3354403E-003  0.6649253E+03  0.7818608E-02  0.9779169E-01
          1   -1    0    0  502    0  0.00000000000E+00  0.00000000000E+00  0.11171438180E+03  0.11171438180E+03  0.00000000000E+00 0.  1.
         13   -1    0    0    0    0 -0.00000000000E+00 -0.00000000000E+00 -0.10000000000E+04  0.10000000000E+04  0.00000000000E+00 0.  1.
    9000005    2    1    2  501    0 -0.54863137043E+00 -0.49052295527E-01 -0.88939693247E+03  0.11104740504E+04  0.66492511592E+03 0.  0.
         13    1    3    3    0    0  0.31721889397E+03  0.64025673218E+02 -0.31906334527E+03  0.45445410309E+03  0.00000000000E+00 0.  1.
          3    1    3    3  501    0 -0.31776752534E+03 -0.64074725514E+02 -0.57033358720E+03  0.65601994734E+03  0.00000000000E+00 0.  1.
         21    1    1    2  502  501  0.54863137043E+00  0.49052295527E-01  0.11113142670E+01  0.12403313704E+01  0.00000000000E+00 0. -1.
<mgrwt>
<rscale>  1 0.66492534E+03</rscale>
<asrwt>0</asrwt>
<pdfrwt beam="1">  1        1 0.40623497E+00 0.66492534E+03</pdfrwt>
<pdfrwt beam="2">0</pdfrwt>
<totfact> 0.12512377E+00</totfact>
</mgrwt>
</event>
<event>
 6    1  0.3354403E-003  0.6481187E+03  0.7818608E-02  0.9810316E-01
          1   -1    0    0  502    0  0.00000000000E+00  0.00000000000E+00  0.10530748274E+03  0.10530748274E+03  0.00000000000E+00 0.  1.
         13   -1    0    0    0    0 -0.00000000000E+00 -0.00000000000E+00 -0.10000000000E+04  0.10000000000E+04  0.00000000000E+00 0.  1.
    9000005    2    1    2  501    0  0.14812434808E-02  0.67270402923E-02 -0.89498550511E+03  0.11050144139E+04  0.64811866244E+03 0.  0.
         13    1    3    3    0    0 -0.12505529257E+03  0.26599369238E+03 -0.21481743060E+03  0.36405768646E+03  0.00000000000E+00 0.  1.
          1    1    3    3  501    0  0.12505677381E+03 -0.26598696534E+03 -0.68016807451E+03  0.74095672747E+03  0.00000000000E+00 0.  1.
         21    1    1    2  502  501 -0.14812434808E-02 -0.67270402923E-02  0.29298784994E+00  0.29306880995E+00  0.00000000000E+00 0. -1.
<mgrwt>
<rscale>  1 0.64811866E+03</rscale>
<asrwt>0</asrwt>
<pdfrwt beam="1">  1        1 0.38293711E+00 0.64811866E+03</pdfrwt>
<pdfrwt beam="2">0</pdfrwt>
<totfact> 0.15932458E+00</totfact>
</mgrwt>
</event>
<event>
 6    1  0.3354403E-003  0.6535828E+03  0.7818608E-02  0.9800079E-01
          1   -1    0    0  502    0  0.00000000000E+00  0.00000000000E+00  0.12031674495E+03  0.12031674495E+03  0.00000000000E+00 0.  1.
         13   -1    0    0    0    0 -0.00000000000E+00 -0.00000000000E+00 -0.10000000000E+04  0.10000000000E+04  0.00000000000E+00 0.  1.
    9000005    2    1    2  501    0 -0.15446954152E+00  0.14842400787E+02 -0.88854198984E+03  0.11030309732E+04  0.65341421738E+03 0.  0.
         13    1    3    3    0    0 -0.15586016862E+03 -0.25031181415E+03 -0.22237770563E+03  0.36932403175E+03  0.00000000000E+00 0.  1.
          3    1    3    3  501    0  0.15570569907E+03  0.26515421494E+03 -0.66616428421E+03  0.73370694148E+03  0.00000000000E+00 0.  1.
         21    1    1    2  502  501  0.15446954152E+00 -0.14842400787E+02  0.88587347905E+01  0.17285771722E+02  0.00000000000E+00 0. -1.
<mgrwt>
<rscale>  1 0.65358279E+03</rscale>
<asrwt>0</asrwt>
<pdfrwt beam="1">  1        1 0.43751636E+00 0.65358279E+03</pdfrwt>
<pdfrwt beam="2">0</pdfrwt>
<totfact> 0.90570288E-01</totfact>
</mgrwt>
</event>
<event>
 6    1  0.3354403E-003  0.6470142E+03  0.7818608E-02  0.9812398E-01
          1   -1    0    0  502    0  0.00000000000E+00  0.00000000000E+00  0.10465707030E+03  0.10465707030E+03  0.00000000000E+00 0.  1.
         13   -1    0    0    0    0 -0.00000000000E+00 -0.00000000000E+00 -0.10000000000E+04  0.10000000000E+04  0.00000000000E+00 0.  1.
    9000005    2    1    2  501    0 -0.13279621442E-04  0.14299667498E-04 -0.89534314609E+03  0.11046568530E+04  0.64701422991E+03 0.  0.
         13    1    3    3    0    0 -0.26411009969E+03 -0.94940125531E+02 -0.17296320511E+03  0.32967262931E+03  0.00000000000E+00 0.  1.
          1    1    3    3  501    0  0.26411008641E+03  0.94940139830E+02 -0.72237994098E+03  0.77498422372E+03  0.00000000000E+00 0.  1.
         21    1    1    2  502  501  0.13279621486E-04 -0.14299667492E-04  0.21639198495E-03  0.21727015439E-03  0.00000000000E+00 0.  1.
<mgrwt>
<rscale>  1 0.64701423E+03</rscale>
<asrwt>0</asrwt>
<pdfrwt beam="1">  1        1 0.38057197E+00 0.64701423E+03</pdfrwt>
<pdfrwt beam="2">0</pdfrwt>
<totfact> 0.16323586E+00</totfact>
</mgrwt>
</event>
<event>
 6    1  0.3354403E-003  0.6477558E+03  0.7818608E-02  0.9810999E-01
          1   -1    0    0  502    0  0.00000000000E+00  0.00000000000E+00  0.10490300327E+03  0.10490300327E+03  0.00000000000E+00 0.  1.
         13   -1    0    0    0    0 -0.00000000000E+00 -0.00000000000E+00 -0.10000000000E+04  0.10000000000E+04  0.00000000000E+00 0.  1.
    9000005    2    1    2  501    0 -0.13723528316E-03 -0.11188845860E-03 -0.89510311012E+03  0.11048968873E+04  0.64775578258E+03 0.  0.
         13    1    3    3    0    0  0.38188485386E+02 -0.48588422564E+02 -0.98984969299E+03  0.99177699607E+03  0.00000000000E+00 0.  1.
          3    1    3    3  501    0 -0.38188622621E+02  0.48588310675E+02  0.94746582869E+02  0.11311989125E+03  0.00000000000E+00 0.  1.
         21    1    1    2  502  501  0.13723528316E-03  0.11188845861E-03  0.61133901045E-02  0.61159538193E-02  0.00000000000E+00 0. -1.
<mgrwt>
<rscale>  1 0.64775578E+03</rscale>
<asrwt>0</asrwt>
<pdfrwt beam="1">  1        1 0.38146627E+00 0.64775578E+03</pdfrwt>
<pdfrwt beam="2">0</pdfrwt>
<totfact> 0.16173666E+00</totfact>
</mgrwt>
</event>
<event>
 6    1  0.3354403E-003  0.6262139E+03  0.7818608E-02  0.9852465E-01
          1   -1    0    0  502    0  0.00000000000E+00  0.00000000000E+00  0.98172664768E+02  0.98172664768E+02  0.00000000000E+00 0.  1.
         13   -1    0    0    0    0 -0.00000000000E+00 -0.00000000000E+00 -0.10000000000E+04  0.10000000000E+04  0.00000000000E+00 0.  1.
    9000005    2    1    2  501    0  0.26976809697E+00 -0.18578319531E+00 -0.90170456529E+03  0.10978228610E+04  0.62621386424E+03 0.  0.
         13    1    3    3    0    0  0.34644790847E+02  0.51715347013E-01  0.94693414114E+02  0.10083207269E+03  0.00000000000E+00 0.  1.
          1    1    3    3  501    0 -0.34375022750E+02 -0.23749854232E+00 -0.99639797940E+03  0.99699078830E+03  0.00000000000E+00 0.  1.
         21    1    1    2  502  501 -0.26976809697E+00  0.18578319531E+00 -0.12276994294E+00  0.34980377455E+00  0.00000000000E+00 0.  1.
<mgrwt>
<rscale>  1 0.62621395E+03</rscale>
<asrwt>0</asrwt>
<pdfrwt beam="1">  1        1 0.35699226E+00 0.62621395E+03</pdfrwt>
<pdfrwt beam="2">0</pdfrwt>
<totfact> 0.20795652E+00</totfact>
</mgrwt>
</event>
<event>
 6    1  0.3354403E-003  0.6614103E+03  0.7818608E-02  0.9785601E-01
          1   -1    0    0  502    0  0.00000000000E+00  0.00000000000E+00  0.11453091742E+03  0.11453091742E+03  0.00000000000E+00 0.  1.
         13   -1    0    0    0    0 -0.00000000000E+00 -0.00000000000E+00 -0.10000000000E+04  0.10000000000E+04  0.00000000000E+00 0.  1.
    9000005    2    1    2  501    0  0.19348423681E+00 -0.44683968682E+01 -0.88953685619E+03  0.11084851926E+04  0.66139519174E+03 0.  0.
         13    1    3    3    0    0  0.81699611323E+01 -0.17404310736E+03 -0.91970471595E+03  0.93606330770E+03  0.00000000000E+00 0.  1.
          3    1    3    3  501    0 -0.79764768955E+01  0.16957471049E+03  0.30167859764E+02  0.17242188488E+03  0.00000000000E+00 0.  1.
         21    1    1    2  502  501 -0.19348423681E+00  0.44683968682E+01  0.40677736094E+01  0.60457248415E+01  0.00000000000E+00 0.  1.
<mgrwt>
<rscale>  1 0.66141031E+03</rscale>
<asrwt>0</asrwt>
<pdfrwt beam="1">  1        1 0.41647694E+00 0.66141031E+03</pdfrwt>
<pdfrwt beam="2">0</pdfrwt>
<totfact> 0.11263205E+00</totfact>
</mgrwt>
</event>
<event>
 6    1  0.3354403E-003  0.6565749E+03  0.7818608E-02  0.9794519E-01
          3   -1    0    0  502    0  0.00000000000E+00  0.00000000000E+00  0.10782928602E+03  0.10782928602E+03  0.00000000000E+00 0.  1.
         13   -1    0    0    0    0 -0.00000000000E+00 -0.00000000000E+00 -0.10000000000E+04  0.10000000000E+04  0.00000000000E+00 0.  1.
    9000005    2    1    2  501    0 -0.41084218370E-01 -0.43185207320E-01 -0.89220940436E+03  0.11077582239E+04  0.65657494462E+03 0.  0.
         13    1    3    3    0    0 -0.32756171911E+03 -0.22141531583E+02 -0.44547972043E+03  0.55338874994E+03  0.00000000000E+00 0.  1.
          1    1    3    3  501    0  0.32752063489E+03  0.22098346376E+02 -0.44672968393E+03  0.55436947399E+03  0.00000000000E+00 0.  1.
         21    1    1    2  502  501  0.41084218370E-01  0.43185207320E-01  0.38690375688E-01  0.71062087650E-01  0.00000000000E+00 0. -1.
<mgrwt>
<rscale>  1 0.65657495E+03</rscale>
<asrwt>0</asrwt>
<pdfrwt beam="1">  1        3 0.39210732E+00 0.65657495E+03</pdfrwt>
<pdfrwt beam="2">0</pdfrwt>
<totfact> 0.65094763E-02</totfact>
</mgrwt>
</event>
<event>
 6    1  0.3354403E-003  0.6056801E+03  0.7818608E-02  0.9893691E-01
          1   -1    0    0  502    0  0.00000000000E+00  0.00000000000E+00  0.92284838016E+02  0.92284838016E+02  0.00000000000E+00 0.  1.
         13   -1    0    0    0    0 -0.00000000000E+00 -0.00000000000E+00 -0.10000000000E+04  0.10000000000E+04  0.00000000000E+00 0.  1.
    9000005    2    1    2  501    0 -0.33476191024E+00  0.72418834965E+00 -0.90796972500E+03  0.10914473915E+04  0.60567957735E+03 0.  0.
         13    1    3    3    0    0  0.30201929349E+03 -0.19369543983E+02 -0.45805768906E+03  0.54900608319E+03  0.00000000000E+00 0.  1.
          1    1    3    3  501    0 -0.30235405540E+03  0.20093732333E+02 -0.44991203594E+03  0.54244130833E+03  0.00000000000E+00 0.  1.
         21    1    1    2  502  501  0.33476191024E+00 -0.72418834965E+00  0.25456302062E+00  0.83744649608E+00  0.00000000000E+00 0.  1.
<mgrwt>
<rscale>  1 0.60568010E+03</rscale>
<asrwt>0</asrwt>
<pdfrwt beam="1">  1        1 0.33558194E+00 0.60568010E+03</pdfrwt>
<pdfrwt beam="2">0</pdfrwt>
<totfact> 0.25866956E+00</totfact>
</mgrwt>
</event>
<event>
 6    1  0.3354403E-003  0.6527481E+03  0.7818608E-02  0.9801636E-01
          1   -1    0    0  502    0  0.00000000000E+00  0.00000000000E+00  0.10652009792E+03  0.10652009792E+03  0.00000000000E+00 0.  1.
         13   -1    0    0    0    0 -0.00000000000E+00 -0.00000000000E+00 -0.10000000000E+04  0.10000000000E+04  0.00000000000E+00 0.  1.
    9000005    2    1    2  501    0  0.16397544641E-04  0.34684129275E-05 -0.89347997346E+03  0.11065200246E+04  0.65274811517E+03 0.  0.
         13    1    3    3    0    0 -0.20966179838E+03 -0.19545702172E+03 -0.18217097548E+03  0.33962888768E+03  0.00000000000E+00 0.  1.
          1    1    3    3  501    0  0.20966181478E+03  0.19545702519E+03 -0.71130899798E+03  0.76689113692E+03  0.00000000000E+00 0.  1.
         21    1    1    2  502  501 -0.16397544632E-04 -0.34684129334E-05  0.71378309091E-04  0.73319658803E-04  0.00000000000E+00 0. -1.
<mgrwt>
<rscale>  1 0.65274812E+03</rscale>
<asrwt>0</asrwt>
<pdfrwt beam="1">  1        1 0.38734663E+00 0.65274812E+03</pdfrwt>
<pdfrwt beam="2">0</pdfrwt>
<totfact> 0.15219687E+00</totfact>
</mgrwt>
</event>
<event>
 6    1  0.3354403E-003  0.4686264E+03  0.7818608E-02  0.1022309E+00
          1   -1    0    0  502    0  0.00000000000E+00  0.00000000000E+00  0.55131453210E+02  0.55131453210E+02  0.00000000000E+00 0.  1.
         13   -1    0    0    0    0 -0.00000000000E+00 -0.00000000000E+00 -0.10000000000E+04  0.10000000000E+04  0.00000000000E+00 0.  1.
    9000005    2    1    2  501    0  0.30895805701E-02 -0.30178739133E-02 -0.94509731106E+03  0.10549026482E+04  0.46862636476E+03 0.  0.
         13    1    3    3    0    0  0.84417101324E+02  0.21507750985E+03 -0.38485130611E+03  0.44888206698E+03  0.00000000000E+00 0.  1.
          3    1    3    3  501    0 -0.84414011744E+02 -0.21508052772E+03 -0.56024600495E+03  0.60602058120E+03  0.00000000000E+00 0.  1.
         21    1    1    2  502  501 -0.30895805701E-02  0.30178739133E-02  0.22876426663E+00  0.22880503219E+00  0.00000000000E+00 0.  1.
<mgrwt>
<rscale>  1 0.46862636E+03</rscale>
<asrwt>0</asrwt>
<pdfrwt beam="1">  1        1 0.20047843E+00 0.46862636E+03</pdfrwt>
<pdfrwt beam="2">0</pdfrwt>
<totfact> 0.10279871E+01</totfact>
</mgrwt>
</event>
<event>
 6    1  0.3354403E-003  0.6494231E+03  0.7818608E-02  0.9807862E-01
          1   -1    0    0  502    0  0.00000000000E+00  0.00000000000E+00  0.11262036638E+03  0.11262036638E+03  0.00000000000E+00 0.  1.
         13   -1    0    0    0    0 -0.00000000000E+00 -0.00000000000E+00 -0.10000000000E+04  0.10000000000E+04  0.00000000000E+00 0.  1.
    9000005    2    1    2  501    0 -0.33799249797E+01  0.10126163988E+01 -0.89408030980E+03  0.11050474973E+04  0.64941352129E+03 0.  0.
         13    1    3    3    0    0 -0.32142516807E+03 -0.12688285205E+02 -0.54300555090E+03  0.63113402662E+03  0.00000000000E+00 0.  1.
          1    1    3    3  501    0  0.31804524309E+03  0.13700901604E+02 -0.35107475889E+03  0.47391347068E+03  0.00000000000E+00 0.  1.
         21    1    1    2  502  501  0.33799249797E+01 -0.10126163988E+01  0.67006761760E+01  0.75728690768E+01  0.00000000000E+00 0.  1.
<mgrwt>
<rscale>  1 0.64942311E+03</rscale>
<asrwt>0</asrwt>
<pdfrwt beam="1">  1        1 0.40952947E+00 0.64942311E+03</pdfrwt>
<pdfrwt beam="2">0</pdfrwt>
<totfact> 0.12130397E+00</totfact>
</mgrwt>
</event>
<event>
 6    1  0.3354403E-003  0.6501631E+03  0.7818608E-02  0.9806473E-01
          1   -1    0    0  502    0  0.00000000000E+00  0.00000000000E+00  0.10568401968E+03  0.10568401968E+03  0.00000000000E+00 0.  1.
         13   -1    0    0    0    0 -0.00000000000E+00 -0.00000000000E+00 -0.10000000000E+04  0.10000000000E+04  0.00000000000E+00 0.  1.
    9000005    2    1    2  501    0 -0.29315627905E-02  0.13282427427E-01 -0.89431187790E+03  0.11056698124E+04  0.65016305564E+03 0.  0.
         13    1    3    3    0    0  0.17785777014E+03 -0.16997560340E+03 -0.80850388705E+03  0.84510569015E+03  0.00000000000E+00 0.  1.
          1    1    3    3  501    0 -0.17786070170E+03  0.16998888582E+03 -0.85807990854E+02  0.26056412226E+03  0.00000000000E+00 0.  1.
         21    1    1    2  502  501  0.29315627905E-02 -0.13282427427E-01 -0.41024133004E-02  0.14207277489E-01  0.00000000000E+00 0.  1.
<mgrwt>
<rscale>  1 0.65016306E+03</rscale>
<asrwt>0</asrwt>
<pdfrwt beam="1">  1        1 0.38430634E+00 0.65016306E+03</pdfrwt>
<pdfrwt beam="2">0</pdfrwt>
<totfact> 0.15706046E+00</totfact>
</mgrwt>
</event>
<event>
 6    1  0.3354403E-003  0.6488035E+03  0.7818608E-02  0.9809027E-01
          1   -1    0    0  502    0  0.00000000000E+00  0.00000000000E+00  0.12804784252E+03  0.12804784252E+03  0.00000000000E+00 0.  1.
         13   -1    0    0    0    0 -0.00000000000E+00 -0.00000000000E+00 -0.10000000000E+04  0.10000000000E+04  0.00000000000E+00 0.  1.
    9000005    2    1    2  501    0 -0.73304077358E+01 -0.38837096491E+01 -0.89392692750E+03  0.11045593646E+04  0.64875050683E+03 0.  0.
         13    1    3    3    0    0 -0.13919841270E+03  0.17585225226E+03 -0.47477209928E+02  0.22924724248E+03  0.00000000000E+00 0.  1.
          1    1    3    3  501    0  0.13186800496E+03 -0.17973596191E+03 -0.84644971757E+03  0.87531212211E+03  0.00000000000E+00 0.  1.
         21    1    1    2  502  501  0.73304077358E+01  0.38837096491E+01  0.21974770018E+02  0.23488477932E+02  0.00000000000E+00 0. -1.
<mgrwt>
<rscale>  1 0.64880354E+03</rscale>
<asrwt>0</asrwt>
<pdfrwt beam="1">  1        1 0.46562950E+00 0.64880354E+03</pdfrwt>
<pdfrwt beam="2">0</pdfrwt>
<totfact> 0.67263637E-01</totfact>
</mgrwt>
</event>
<event>
 6    1  0.3354403E-003  0.6348550E+03  0.7818608E-02  0.9835620E-01
          1   -1    0    0  502    0  0.00000000000E+00  0.00000000000E+00  0.10080987757E+03  0.10080987757E+03  0.00000000000E+00 0.  1.
         13   -1    0    0    0    0 -0.00000000000E+00 -0.00000000000E+00 -0.10000000000E+04  0.10000000000E+04  0.00000000000E+00 0.  1.
    9000005    2    1    2  501    0 -0.66752291951E-03 -0.74715442256E-03 -0.89923978601E+03  0.11007602039E+04  0.63485497063E+03 0.  0.
         13    1    3    3    0    0  0.18255078033E+03  0.19697190192E+03 -0.74303518842E+03  0.79007848266E+03  0.00000000000E+00 0.  1.
          3    1    3    3  501    0 -0.18255144785E+03 -0.19697264907E+03 -0.15620459759E+03  0.31068172123E+03  0.00000000000E+00 0.  1.
         21    1    1    2  502  501  0.66752291952E-03  0.74715442256E-03  0.49663573722E-01  0.49673678960E-01  0.00000000000E+00 0.  1.
<mgrwt>
<rscale>  1 0.63485497E+03</rscale>
<asrwt>0</asrwt>
<pdfrwt beam="1">  1        1 0.36658215E+00 0.63485497E+03</pdfrwt>
<pdfrwt beam="2">0</pdfrwt>
<totfact> 0.18850493E+00</totfact>
</mgrwt>
</event>
<event>
 6    1  0.3354403E-003  0.6766057E+03  0.7818608E-02  0.9758098E-01
          1   -1    0    0  502    0  0.00000000000E+00  0.00000000000E+00  0.11524977939E+03  0.11524977939E+03  0.00000000000E+00 0.  1.
         13   -1    0    0    0    0 -0.00000000000E+00 -0.00000000000E+00 -0.10000000000E+04  0.10000000000E+04  0.00000000000E+00 0.  1.
    9000005    2    1    2  501    0 -0.78446178689E-02  0.83101747572E-02 -0.88555115202E+03  0.11144487665E+04  0.67660565330E+03 0.  0.
         13    1    3    3    0    0  0.19214331608E+03 -0.22025448266E+03 -0.16220567386E+03  0.33427798563E+03  0.00000000000E+00 0.  1.
          3    1    3    3  501    0 -0.19215116070E+03  0.22026279284E+03 -0.72334547816E+03  0.78017078082E+03  0.00000000000E+00 0.  1.
         21    1    1    2  502  501  0.78446178689E-02 -0.83101747572E-02  0.80093140827E+00  0.80101293235E+00  0.00000000000E+00 0. -1.
<mgrwt>
<rscale>  1 0.67660565E+03</rscale>
<asrwt>0</asrwt>
<pdfrwt beam="1">  1        1 0.41909099E+00 0.67660565E+03</pdfrwt>
<pdfrwt beam="2">0</pdfrwt>
<totfact> 0.10929850E+00</totfact>
</mgrwt>
</event>
<event>
 6    1  0.3354403E-003  0.6383941E+03  0.7818608E-02  0.9828804E-01
          1   -1    0    0  502    0  0.00000000000E+00  0.00000000000E+00  0.11967519127E+03  0.11967519127E+03  0.00000000000E+00 0.  1.
         13   -1    0    0    0    0 -0.00000000000E+00 -0.00000000000E+00 -0.10000000000E+04  0.10000000000E+04  0.00000000000E+00 0.  1.
    9000005    2    1    2  501    0 -0.25578860706E+02 -0.68062514413E+01 -0.74195882002E+03  0.97880024671E+03  0.63784514514E+03 0.  0.
         13    1    3    3    0    0  0.27510752621E+03 -0.73278168009E+02 -0.17663136193E+03  0.33504101078E+03  0.00000000000E+00 0.  1.
          3    1    3    3  501    0 -0.30068638692E+03  0.66471916568E+02 -0.56532745809E+03  0.64375923593E+03  0.00000000000E+00 0.  1.
         21    1    1    2  502  501  0.25578860706E+02  0.68062514413E+01 -0.13836598871E+03  0.14087494456E+03  0.00000000000E+00 0. -1.
<mgrwt>
<rscale>  1 0.63839410E+03</rscale>
<asrwt>0</asrwt>
<pdfrwt beam="1">  1        1 0.43518343E+00 0.63839410E+03</pdfrwt>
<pdfrwt beam="2">0</pdfrwt>
<totfact> 0.93104697E-01</totfact>
</mgrwt>
</event>
<event>
 6    1  0.3354403E-003  0.6588595E+03  0.7818608E-02  0.9790295E-01
          1   -1    0    0  502    0  0.00000000000E+00  0.00000000000E+00  0.10871365472E+03  0.10871365472E+03  0.00000000000E+00 0.  1.
         13   -1    0    0    0    0 -0.00000000000E+00 -0.00000000000E+00 -0.10000000000E+04  0.10000000000E+04  0.00000000000E+00 0.  1.
    9000005    2    1    2  501    0 -0.87885655476E-02 -0.21659890878E-01 -0.89147523278E+03  0.11085233264E+04  0.65885952518E+03 0.  0.
         13    1    3    3    0    0  0.10238385176E+03  0.26032188733E+03 -0.73843598480E+03  0.78964399686E+03  0.00000000000E+00 0.  1.
          3    1    3    3  501    0 -0.10239264032E+03 -0.26034354722E+03 -0.15303924798E+03  0.31887932952E+03  0.00000000000E+00 0.  1.
         21    1    1    2  502  501  0.87885655476E-02  0.21659890878E-01  0.18888749743E+00  0.19032833852E+00  0.00000000000E+00 0. -1.
<mgrwt>
<rscale>  1 0.65885953E+03</rscale>
<asrwt>0</asrwt>
<pdfrwt beam="1">  1        1 0.39532321E+00 0.65885953E+03</pdfrwt>
<pdfrwt beam="2">0</pdfrwt>
<totfact> 0.14012416E+00</totfact>
</mgrwt>
</event>
<event>
 6    1  0.3354403E-003  0.6537701E+03  0.7818608E-02  0.9799730E-01
          1   -1    0    0  502    0  0.00000000000E+00  0.00000000000E+00  0.10685412669E+03  0.10685412669E+03  0.00000000000E+00 0.  1.
         13   -1    0    0    0    0 -0.00000000000E+00 -0.00000000000E+00 -0.10000000000E+04  0.10000000000E+04  0.00000000000E+00 0.  1.
    9000005    2    1    2  501    0 -0.31300134339E-04  0.34629888404E-04 -0.89314614910E+03  0.11068538470E+04  0.65377013921E+03 0.  0.
         13    1    3    3    0    0 -0.18862088001E+03  0.24161409101E+03 -0.25429162425E+03  0.39827055567E+03  0.00000000000E+00 0.  1.
          3    1    3    3  501    0  0.18862084871E+03 -0.24161405638E+03 -0.63885452485E+03  0.70858329131E+03  0.00000000000E+00 0.  1.
         21    1    1    2  502  501  0.31300134341E-04 -0.34629888407E-04  0.27579014630E-03  0.27971258888E-03  0.00000000000E+00 0.  1.
<mgrwt>
<rscale>  1 0.65377014E+03</rscale>
<asrwt>0</asrwt>
<pdfrwt beam="1">  1        1 0.38856128E+00 0.65377014E+03</pdfrwt>
<pdfrwt beam="2">0</pdfrwt>
<totfact> 0.15029435E+00</totfact>
</mgrwt>
</event>
<event>
 6    1  0.3354403E-003  0.6414365E+03  0.7818608E-02  0.9822982E-01
          1   -1    0    0  502    0  0.00000000000E+00  0.00000000000E+00  0.10377884102E+03  0.10377884102E+03  0.00000000000E+00 0.  1.
         13   -1    0    0    0    0 -0.00000000000E+00 -0.00000000000E+00 -0.10000000000E+04  0.10000000000E+04  0.00000000000E+00 0.  1.
    9000005    2    1    2  501    0  0.27229507113E+01  0.86466752915E+00 -0.89211389464E+03  0.10987756689E+04  0.64143012678E+03 0.  0.
         13    1    3    3    0    0 -0.16975192009E+03 -0.20337496823E+03 -0.13803446487E+03  0.29871492358E+03  0.00000000000E+00 0.  1.
          3    1    3    3  501    0  0.17247487080E+03  0.20423963576E+03 -0.75407942977E+03  0.80006074537E+03  0.00000000000E+00 0.  1.
         21    1    1    2  502  501 -0.27229507113E+01 -0.86466752915E+00 -0.41072643386E+01  0.50031720797E+01  0.00000000000E+00 0.  1.
<mgrwt>
<rscale>  1 0.64143649E+03</rscale>
<asrwt>0</asrwt>
<pdfrwt beam="1">  1        1 0.37737840E+00 0.64143649E+03</pdfrwt>
<pdfrwt beam="2">0</pdfrwt>
<totfact> 0.16878906E+00</totfact>
</mgrwt>
</event>
<event>
 6    1  0.3354403E-003  0.6570247E+03  0.7818608E-02  0.9793686E-01
          1   -1    0    0  502    0  0.00000000000E+00  0.00000000000E+00  0.10792363534E+03  0.10792363534E+03  0.00000000000E+00 0.  1.
         13   -1    0    0    0    0 -0.00000000000E+00 -0.00000000000E+00 -0.10000000000E+04  0.10000000000E+04  0.00000000000E+00 0.  1.
    9000005    2    1    2  501    0 -0.50607418817E-02  0.43835540555E-02 -0.89207529122E+03  0.11079168546E+04  0.65702468094E+03 0.  0.
         13    1    3    3    0    0  0.76461551014E+02  0.17771086938E+03 -0.89375091902E+03  0.91444968540E+03  0.00000000000E+00 0.  1.
          1    1    3    3  501    0 -0.76466611756E+02 -0.17770648582E+03  0.16756277951E+01  0.19346716917E+03  0.00000000000E+00 0.  1.
         21    1    1    2  502  501  0.50607418817E-02 -0.43835540555E-02 -0.10734353833E-02  0.67807756247E-02  0.00000000000E+00 0. -1.
<mgrwt>
<rscale>  1 0.65702468E+03</rscale>
<asrwt>0</asrwt>
<pdfrwt beam="1">  1        1 0.39245041E+00 0.65702468E+03</pdfrwt>
<pdfrwt beam="2">0</pdfrwt>
<totfact> 0.14435382E+00</totfact>
</mgrwt>
</event>
<event>
 6    1  0.3354403E-003  0.6477183E+03  0.7818608E-02  0.9811070E-01
          1   -1    0    0  502    0  0.00000000000E+00  0.00000000000E+00  0.10719340598E+03  0.10719340598E+03  0.00000000000E+00 0.  1.
         13   -1    0    0    0    0 -0.00000000000E+00 -0.00000000000E+00 -0.10000000000E+04  0.10000000000E+04  0.00000000000E+00 0.  1.
    9000005    2    1    2  501    0  0.23153764818E+01 -0.17326793334E+00 -0.89445209489E+03  0.11043475910E+04  0.64771418126E+03 0.  0.
         13    1    3    3    0    0 -0.28440922349E+03  0.14083059504E+03 -0.54632077945E+03  0.63181346690E+03  0.00000000000E+00 0.  1.
          1    1    3    3  501    0  0.28672459997E+03 -0.14100386298E+03 -0.34813131544E+03  0.47253412405E+03  0.00000000000E+00 0.  1.
         21    1    1    2  502  501 -0.23153764818E+01  0.17326793334E+00  0.16455008714E+01  0.28458150233E+01  0.00000000000E+00 0. -1.
<mgrwt>
<rscale>  1 0.64771834E+03</rscale>
<asrwt>0</asrwt>
<pdfrwt beam="1">  1        1 0.38979503E+00 0.64771834E+03</pdfrwt>
<pdfrwt beam="2">0</pdfrwt>
<totfact> 0.14858106E+00</totfact>
</mgrwt>
</event>
<event>
 6    1  0.3354403E-003  0.6468175E+03  0.7818608E-02  0.9812769E-01
          1   -1    0    0  502    0  0.00000000000E+00  0.00000000000E+00  0.11078336173E+03  0.11078336173E+03  0.00000000000E+00 0.  1.
         13   -1    0    0    0    0 -0.00000000000E+00 -0.00000000000E+00 -0.10000000000E+04  0.10000000000E+04  0.00000000000E+00 0.  1.
    9000005    2    1    2  501    0 -0.53374328105E-01  0.72017004604E-01 -0.89540641971E+03  0.11045929312E+04  0.64681750073E+03 0.  0.
         13    1    3    3    0    0  0.15780623415E+02 -0.32174582920E+03 -0.39935583268E+03  0.51308331466E+03  0.00000000000E+00 0.  1.
          1    1    3    3  501    0 -0.15833997743E+02  0.32181784620E+03 -0.49605058703E+03  0.59150961659E+03  0.00000000000E+00 0.  1.
         21    1    1    2  502  501  0.53374328105E-01 -0.72017004604E-01  0.61897814478E+01  0.61904304890E+01  0.00000000000E+00 0.  1.
<mgrwt>
<rscale>  1 0.64681751E+03</rscale>
<asrwt>0</asrwt>
<pdfrwt beam="1">  1        1 0.40284944E+00 0.64681751E+03</pdfrwt>
<pdfrwt beam="2">0</pdfrwt>
<totfact> 0.13000777E+00</totfact>
</mgrwt>
</event>
<event>
 6    1  0.3354403E-003  0.6416197E+03  0.7818608E-02  0.9822632E-01
          1   -1    0    0  502    0  0.00000000000E+00  0.00000000000E+00  0.10410990370E+03  0.10410990370E+03  0.00000000000E+00 0.  1.
         13   -1    0    0    0    0 -0.00000000000E+00 -0.00000000000E+00 -0.10000000000E+04  0.10000000000E+04  0.00000000000E+00 0.  1.
    9000005    2    1    2  501    0 -0.21647533367E+00  0.16639786799E+00 -0.89706374889E+03  0.11029049098E+04  0.64161966616E+03 0.  0.
         13    1    3    3    0    0  0.15386430762E+03 -0.34797275079E+02 -0.92850389674E+03  0.94180919605E+03  0.00000000000E+00 0.  1.
          3    1    3    3  501    0 -0.15408078295E+03  0.34963672947E+02  0.31440147843E+02  0.16109571378E+03  0.00000000000E+00 0.  1.
         21    1    1    2  502  501  0.21647533367E+00 -0.16639786799E+00  0.11736525883E+01  0.12049938667E+01  0.00000000000E+00 0.  1.
<mgrwt>
<rscale>  1 0.64161972E+03</rscale>
<asrwt>0</asrwt>
<pdfrwt beam="1">  1        1 0.37858227E+00 0.64161972E+03</pdfrwt>
<pdfrwt beam="2">0</pdfrwt>
<totfact> 0.16673381E+00</totfact>
</mgrwt>
</event>
<event>
 6    1  0.3354403E-003  0.6457934E+03  0.7818608E-02  0.9814705E-01
          1   -1    0    0  502    0  0.00000000000E+00  0.00000000000E+00  0.10435489067E+03  0.10435489067E+03  0.00000000000E+00 0.  1.
         13   -1    0    0    0    0 -0.00000000000E+00 -0.00000000000E+00 -0.10000000000E+04  0.10000000000E+04  0.00000000000E+00 0.  1.
    9000005    2    1    2  501    0 -0.74156055887E-01  0.82808358640E-01 -0.89569941167E+03  0.11042311769E+04  0.64579334441E+03 0.  0.
         13    1    3    3    0    0 -0.28670321540E+01  0.31523602288E+03 -0.32813373421E+03  0.45503155662E+03  0.00000000000E+00 0.  1.
          1    1    3    3  501    0  0.27928760981E+01 -0.31515321452E+03 -0.56756567746E+03  0.64919962031E+03  0.00000000000E+00 0.  1.
         21    1    1    2  502  501  0.74156055887E-01 -0.82808358640E-01  0.54302335652E-01  0.12371373627E+00  0.00000000000E+00 0. -1.
<mgrwt>
<rscale>  1 0.64579335E+03</rscale>
<asrwt>0</asrwt>
<pdfrwt beam="1">  1        1 0.37947313E+00 0.64579335E+03</pdfrwt>
<pdfrwt beam="2">0</pdfrwt>
<totfact> 0.16510545E+00</totfact>
</mgrwt>
</event>
<event>
 6    1  0.3354403E-003  0.6664079E+03  0.7818608E-02  0.9776469E-01
          1   -1    0    0  502    0  0.00000000000E+00  0.00000000000E+00  0.11102604116E+03  0.11102604116E+03  0.00000000000E+00 0.  1.
         13   -1    0    0    0    0 -0.00000000000E+00 -0.00000000000E+00 -0.10000000000E+04  0.10000000000E+04  0.00000000000E+00 0.  1.
    9000005    2    1    2  501    0 -0.41161129874E-03 -0.10474962522E-03 -0.88897508179E+03  0.11110248406E+04  0.66640790835E+03 0.  0.
         13    1    3    3    0    0 -0.20371012925E+03 -0.22286545238E+03 -0.67942565524E+03  0.74349582892E+03  0.00000000000E+00 0.  1.
          1    1    3    3  501    0  0.20370971764E+03  0.22286534763E+03 -0.20954942655E+03  0.36752901165E+03  0.00000000000E+00 0.  1.
         21    1    1    2  502  501  0.41161129876E-03  0.10474962521E-03  0.11229505461E-02  0.12005891363E-02  0.00000000000E+00 0.  1.
<mgrwt>
<rscale>  1 0.66640791E+03</rscale>
<asrwt>0</asrwt>
<pdfrwt beam="1">  1        1 0.40373191E+00 0.66640791E+03</pdfrwt>
<pdfrwt beam="2">0</pdfrwt>
<totfact> 0.12835494E+00</totfact>
</mgrwt>
</event>
<event>
 6    1  0.3499590E-003  0.6710155E+03  0.7818608E-02  0.9768125E-01
          1   -1    0    0  502    0  0.00000000000E+00  0.00000000000E+00  0.11256561081E+03  0.11256561081E+03  0.00000000000E+00 0.  1.
         13   -1    0    0    0    0 -0.00000000000E+00 -0.00000000000E+00 -0.10000000000E+04  0.10000000000E+04  0.00000000000E+00 0.  1.
    9000005    2    1    2  501    0  0.24075527753E-03  0.30474358368E-04 -0.88743444177E+03  0.11125653625E+04  0.67101549714E+03 0.  0.
         13    1    3    3    0    0 -0.17084145708E+03  0.25927184643E+03 -0.65446814131E+03  0.72438749423E+03  0.00000000000E+00 0.  1.
          3    1    3    3  501    0  0.17084169783E+03 -0.25927181596E+03 -0.23296630046E+03  0.38817786828E+03  0.00000000000E+00 0.  1.
         21    1    1    2  502  501 -0.24075527754E-03 -0.30474358354E-04  0.52579441475E-04  0.24830704348E-03  0.00000000000E+00 0.  1.
<mgrwt>
<rscale>  1 0.67101550E+03</rscale>
<asrwt>0</asrwt>
<pdfrwt beam="1">  1        1 0.40933036E+00 0.67101550E+03</pdfrwt>
<pdfrwt beam="2">0</pdfrwt>
<totfact> 0.12105278E+00</totfact>
</mgrwt>
</event>
<event>
 6    1  0.3354403E-003  0.6556696E+03  0.7818608E-02  0.9796198E-01
          1   -1    0    0  502    0  0.00000000000E+00  0.00000000000E+00  0.10747569662E+03  0.10747569662E+03  0.00000000000E+00 0.  1.
         13   -1    0    0    0    0 -0.00000000000E+00 -0.00000000000E+00 -0.10000000000E+04  0.10000000000E+04  0.00000000000E+00 0.  1.
    9000005    2    1    2  501    0 -0.14105760044E-04 -0.61495573078E-05 -0.89252435037E+03  0.11074756472E+04  0.65566957614E+03 0.  0.
         13    1    3    3    0    0  0.86310334909E+02  0.74643101430E+02  0.72849344490E+02  0.13538128931E+03  0.00000000000E+00 0.  1.
          3    1    3    3  501    0 -0.86310349015E+02 -0.74643107580E+02 -0.96537369486E+03  0.97209435786E+03  0.00000000000E+00 0.  1.
         21    1    1    2  502  501  0.14105760047E-04  0.61495573129E-05  0.46994926827E-04  0.49450102823E-04  0.00000000000E+00 0. -1.
<mgrwt>
<rscale>  1 0.65566958E+03</rscale>
<asrwt>0</asrwt>
<pdfrwt beam="1">  1        1 0.39082154E+00 0.65566958E+03</pdfrwt>
<pdfrwt beam="2">0</pdfrwt>
<totfact> 0.14681404E+00</totfact>
</mgrwt>
</event>
<event>
 6    1  0.3354403E-003  0.6451561E+03  0.7818608E-02  0.9815911E-01
          1   -1    0    0  502    0  0.00000000000E+00  0.00000000000E+00  0.10451058627E+03  0.10451058627E+03  0.00000000000E+00 0.  1.
         13   -1    0    0    0    0 -0.00000000000E+00 -0.00000000000E+00 -0.10000000000E+04  0.10000000000E+04  0.00000000000E+00 0.  1.
    9000005    2    1    2  501    0 -0.12387008444E-01 -0.10236526467E-02 -0.89594331320E+03  0.11040565167E+04  0.64515608294E+03 0.  0.
         13    1    3    3    0    0  0.60912621054E+02  0.26272145195E+03 -0.14509975052E+03  0.30624638172E+03  0.00000000000E+00 0.  1.
          1    1    3    3  501    0 -0.60925008062E+02 -0.26272247560E+03 -0.75084356268E+03  0.79781013494E+03  0.00000000000E+00 0.  1.
         21    1    1    2  502  501  0.12387008444E-01  0.10236526467E-02  0.45389947150E+00  0.45406961589E+00  0.00000000000E+00 0. -1.
<mgrwt>
<rscale>  1 0.64515608E+03</rscale>
<asrwt>0</asrwt>
<pdfrwt beam="1">  1        1 0.38003930E+00 0.64515608E+03</pdfrwt>
<pdfrwt beam="2">0</pdfrwt>
<totfact> 0.16417787E+00</totfact>
</mgrwt>
</event>
<event>
 6    1  0.3354403E-003  0.6576062E+03  0.7818608E-02  0.9792610E-01
          1   -1    0    0  502    0  0.00000000000E+00  0.00000000000E+00  0.10817192339E+03  0.10817192339E+03  0.00000000000E+00 0.  1.
         13   -1    0    0    0    0 -0.00000000000E+00 -0.00000000000E+00 -0.10000000000E+04  0.10000000000E+04  0.00000000000E+00 0.  1.
    9000005    2    1    2  501    0 -0.17281152831E-02  0.12405055787E-03 -0.89188849344E+03  0.11081114817E+04  0.65760624327E+03 0.  0.
         13    1    3    3    0    0  0.12344325507E+03 -0.39030676489E+02 -0.95524060684E+03  0.96397419461E+03  0.00000000000E+00 0.  1.
          1    1    3    3  501    0 -0.12344498318E+03  0.39030800539E+02  0.63352113395E+02  0.14413728711E+03  0.00000000000E+00 0.  1.
         21    1    1    2  502  501  0.17281152831E-02 -0.12405055787E-03  0.60416836031E-01  0.60441673098E-01  0.00000000000E+00 0. -1.
<mgrwt>
<rscale>  1 0.65760624E+03</rscale>
<asrwt>0</asrwt>
<pdfrwt beam="1">  1        1 0.39335328E+00 0.65760624E+03</pdfrwt>
<pdfrwt beam="2">0</pdfrwt>
<totfact> 0.14301153E+00</totfact>
</mgrwt>
</event>
<event>
 6    1  0.3354403E-003  0.6522093E+03  0.7818608E-02  0.9802642E-01
          1   -1    0    0  502    0  0.00000000000E+00  0.00000000000E+00  0.15923588490E+03  0.15923588490E+03  0.00000000000E+00 0.  1.
         13   -1    0    0    0    0 -0.00000000000E+00 -0.00000000000E+00 -0.10000000000E+04  0.10000000000E+04  0.00000000000E+00 0.  1.
    9000005    2    1    2  501    0  0.18434027442E+02  0.66299583571E+02 -0.86757206660E+03  0.10853839085E+04  0.64856880130E+03 0.  0.
         13    1    3    3    0    0  0.31604310839E+02 -0.23551463768E+03 -0.95117683278E+02  0.25595575925E+03  0.00000000000E+00 0.  1.
          1    1    3    3  501    0 -0.13170283397E+02  0.30181422125E+03 -0.77245438332E+03  0.82942814928E+03  0.00000000000E+00 0.  1.
         21    1    1    2  502  501 -0.18434027442E+02 -0.66299583571E+02  0.26807951492E+02  0.73851976362E+02  0.00000000000E+00 0.  1.
<mgrwt>
<rscale>  1 0.65220927E+03</rscale>
<asrwt>0</asrwt>
<pdfrwt beam="1">  1        1 0.57904080E+00 0.65220927E+03</pdfrwt>
<pdfrwt beam="2">0</pdfrwt>
<totfact> 0.18506661E-01</totfact>
</mgrwt>
</event>
<event>
 6    1  0.3354403E-003  0.6532730E+03  0.7818608E-02  0.9800657E-01
          1   -1    0    0  502    0  0.00000000000E+00  0.00000000000E+00  0.10684469062E+03  0.10684469062E+03  0.00000000000E+00 0.  1.
         13   -1    0    0    0    0 -0.00000000000E+00 -0.00000000000E+00 -0.10000000000E+04  0.10000000000E+04  0.00000000000E+00 0.  1.
    9000005    2    1    2  501    0 -0.71941584796E-01 -0.12408923545E-01 -0.89329891731E+03  0.11066835919E+04  0.65327299922E+03 0.  0.
         13    1    3    3    0    0  0.13043865266E+02  0.26046344976E+03 -0.77979766160E+03  0.82225041448E+03  0.00000000000E+00 0.  1.
          3    1    3    3  501    0 -0.13115806851E+02 -0.26047585869E+03 -0.11350125571E+03  0.28443317738E+03  0.00000000000E+00 0.  1.
         21    1    1    2  502  501  0.71941584796E-01  0.12408923545E-01  0.14360792515E+00  0.16109875596E+00  0.00000000000E+00 0.  1.
<mgrwt>
<rscale>  1 0.65327300E+03</rscale>
<asrwt>0</asrwt>
<pdfrwt beam="1">  1        1 0.38852697E+00 0.65327300E+03</pdfrwt>
<pdfrwt beam="2">0</pdfrwt>
<totfact> 0.15036082E+00</totfact>
</mgrwt>
</event>
<event>
 6    1  0.3354403E-003  0.6521334E+03  0.7818608E-02  0.9802784E-01
          1   -1    0    0  502    0  0.00000000000E+00  0.00000000000E+00  0.10634285496E+03  0.10634285496E+03  0.00000000000E+00 0.  1.
         13   -1    0    0    0    0 -0.00000000000E+00 -0.00000000000E+00 -0.10000000000E+04  0.10000000000E+04  0.00000000000E+00 0.  1.
    9000005    2    1    2  501    0  0.10960900245E-02 -0.16813737142E-03 -0.89368048282E+03  0.11063194908E+04  0.65213342994E+03 0.  0.
         13    1    3    3    0    0  0.28458824919E+03  0.14077116090E+03 -0.57280013634E+03  0.65490990793E+03  0.00000000000E+00 0.  1.
          3    1    3    3  501    0 -0.28458715310E+03 -0.14077132904E+03 -0.32088034648E+03  0.45140958291E+03  0.00000000000E+00 0.  1.
         21    1    1    2  502  501 -0.10960900245E-02  0.16813737142E-03  0.23337781512E-01  0.23364111997E-01  0.00000000000E+00 0. -1.
<mgrwt>
<rscale>  1 0.65213343E+03</rscale>
<asrwt>0</asrwt>
<pdfrwt beam="1">  1        1 0.38670211E+00 0.65213343E+03</pdfrwt>
<pdfrwt beam="2">0</pdfrwt>
<totfact> 0.15321771E+00</totfact>
</mgrwt>
</event>
<event>
 6    1  0.3354403E-003  0.6525180E+03  0.7818608E-02  0.9802066E-01
          1   -1    0    0  502    0  0.00000000000E+00  0.00000000000E+00  0.10644495830E+03  0.10644495830E+03  0.00000000000E+00 0.  1.
         13   -1    0    0    0    0 -0.00000000000E+00 -0.00000000000E+00 -0.10000000000E+04  0.10000000000E+04  0.00000000000E+00 0.  1.
    9000005    2    1    2  501    0 -0.53287134968E-04  0.24287098057E-04 -0.89355503686E+03  0.11064448995E+04  0.65251797815E+03 0.  0.
         13    1    3    3    0    0 -0.24117372459E+02  0.24179537121E+03 -0.77614141699E+02  0.25508940430E+03  0.00000000000E+00 0.  1.
          3    1    3    3  501    0  0.24117319172E+02 -0.24179534692E+03 -0.81594089516E+03  0.85135549524E+03  0.00000000000E+00 0.  1.
         21    1    1    2  502  501  0.53287134969E-04 -0.24287098056E-04 -0.48449097613E-05  0.58760999275E-04  0.00000000000E+00 0.  1.
<mgrwt>
<rscale>  1 0.65251798E+03</rscale>
<asrwt>0</asrwt>
<pdfrwt beam="1">  1        1 0.38707339E+00 0.65251798E+03</pdfrwt>
<pdfrwt beam="2">0</pdfrwt>
<totfact> 0.15262799E+00</totfact>
</mgrwt>
</event>
<event>
 6    1  0.3354403E-003  0.6566780E+03  0.7818608E-02  0.9794328E-01
          1   -1    0    0  502    0  0.00000000000E+00  0.00000000000E+00  0.10780693330E+03  0.10780693330E+03  0.00000000000E+00 0.  1.
         13   -1    0    0    0    0 -0.00000000000E+00 -0.00000000000E+00 -0.10000000000E+04  0.10000000000E+04  0.00000000000E+00 0.  1.
    9000005    2    1    2  501    0  0.10819360078E-04 -0.24031021320E-03 -0.89219346198E+03  0.11078064706E+04  0.65667800531E+03 0.  0.
         13    1    3    3    0    0 -0.63644192779E+02 -0.30153023420E+03 -0.63722207448E+03  0.70782980837E+03  0.00000000000E+00 0.  1.
          3    1    3    3  501    0  0.63644203598E+02  0.30152999389E+03 -0.25497138750E+03  0.39997666221E+03  0.00000000000E+00 0.  1.
         21    1    1    2  502  501 -0.10819360079E-04  0.24031021322E-03  0.39528385191E-03  0.46272603202E-03  0.00000000000E+00 0.  1.
<mgrwt>
<rscale>  1 0.65667801E+03</rscale>
<asrwt>0</asrwt>
<pdfrwt beam="1">  1        1 0.39202604E+00 0.65667801E+03</pdfrwt>
<pdfrwt beam="2">0</pdfrwt>
<totfact> 0.14499082E+00</totfact>
</mgrwt>
</event>
<event>
 6    1  0.3354403E-003  0.6536653E+03  0.7818608E-02  0.9799926E-01
          3   -1    0    0  502    0  0.00000000000E+00  0.00000000000E+00  0.10686616320E+03  0.10686616320E+03  0.00000000000E+00 0.  1.
         13   -1    0    0    0    0 -0.00000000000E+00 -0.00000000000E+00 -0.10000000000E+04  0.10000000000E+04  0.00000000000E+00 0.  1.
    9000005    2    1    2  501    0  0.26793971495E-01  0.21556494455E-01 -0.89317328463E+03  0.11068138303E+04  0.65366530995E+03 0.  0.
         13    1    3    3    0    0 -0.17783995185E+03 -0.21787526407E+03 -0.16468678359E+03  0.32591166880E+03  0.00000000000E+00 0.  1.
          1    1    3    3  501    0  0.17786674582E+03  0.21789682056E+03 -0.72848650104E+03  0.78090216152E+03  0.00000000000E+00 0.  1.
         21    1    1    2  502  501 -0.26793971495E-01 -0.21556494455E-01  0.39447826523E-01  0.52332880477E-01  0.00000000000E+00 0. -1.
<mgrwt>
<rscale>  1 0.65366531E+03</rscale>
<asrwt>0</asrwt>
<pdfrwt beam="1">  1        3 0.38860505E+00 0.65366531E+03</pdfrwt>
<pdfrwt beam="2">0</pdfrwt>
<totfact> 0.67948882E-02</totfact>
</mgrwt>
</event>
<event>
 6    1  0.3354403E-003  0.6565064E+03  0.7818608E-02  0.9794646E-01
          1   -1    0    0  502    0  0.00000000000E+00  0.00000000000E+00  0.10775035916E+03  0.10775035916E+03  0.00000000000E+00 0.  1.
         13   -1    0    0    0    0 -0.00000000000E+00 -0.00000000000E+00 -0.10000000000E+04  0.10000000000E+04  0.00000000000E+00 0.  1.
    9000005    2    1    2  501    0 -0.28143501652E-04  0.10746786742E-04 -0.89224982611E+03  0.11077501715E+04  0.65650642812E+03 0.  0.
         13    1    3    3    0    0 -0.21523351700E+03 -0.11964331826E+03 -0.81236026902E+03  0.84886347378E+03  0.00000000000E+00 0.  1.
          1    1    3    3  501    0  0.21523348886E+03  0.11964332901E+03 -0.79889557095E+02  0.25888669768E+03  0.00000000000E+00 0.  1.
         21    1    1    2  502  501  0.28143501627E-04 -0.10746786745E-04  0.18527298397E-03  0.18770622978E-03  0.00000000000E+00 0.  1.
<mgrwt>
<rscale>  1 0.65650643E+03</rscale>
<asrwt>0</asrwt>
<pdfrwt beam="1">  1        1 0.39182031E+00 0.65650643E+03</pdfrwt>
<pdfrwt beam="2">0</pdfrwt>
<totfact> 0.14530067E+00</totfact>
</mgrwt>
</event>
<event>
 6    1  0.3354403E-003  0.6648877E+03  0.7818608E-02  0.9779238E-01
          1   -1    0    0  502    0  0.00000000000E+00  0.00000000000E+00  0.11304057434E+03  0.11304057434E+03  0.00000000000E+00 0.  1.
         13   -1    0    0    0    0 -0.00000000000E+00 -0.00000000000E+00 -0.10000000000E+04  0.10000000000E+04  0.00000000000E+00 0.  1.
    9000005    2    1    2  501    0  0.95515506521E+00  0.10808322120E+01 -0.88924991450E+03  0.11103337573E+04  0.66488612679E+03 0.  0.
         13    1    3    3    0    0  0.30203215695E+03 -0.98759588932E+02 -0.28032351647E+03  0.42374302841E+03  0.00000000000E+00 0.  1.
          3    1    3    3  501    0 -0.30107700189E+03  0.99840421144E+02 -0.60892639803E+03  0.68659072887E+03  0.00000000000E+00 0.  1.
         21    1    1    2  502  501 -0.95515506521E+00 -0.10808322120E+01  0.22904888428E+01  0.27068170621E+01  0.00000000000E+00 0.  1.
<mgrwt>
<rscale>  1 0.66488769E+03</rscale>
<asrwt>0</asrwt>
<pdfrwt beam="1">  1        1 0.41105750E+00 0.66488769E+03</pdfrwt>
<pdfrwt beam="2">0</pdfrwt>
<totfact> 0.11905052E+00</totfact>
</mgrwt>
</event>
<event>
 6    1  0.3354403E-003  0.5942377E+03  0.7818608E-02  0.9917434E-01
          1   -1    0    0  502    0  0.00000000000E+00  0.00000000000E+00  0.88289762680E+02  0.88289762680E+02  0.00000000000E+00 0.  1.
         13   -1    0    0    0    0 -0.00000000000E+00 -0.00000000000E+00 -0.10000000000E+04  0.10000000000E+04  0.00000000000E+00 0.  1.
    9000005    2    1    2  501    0 -0.37031021151E-02  0.84013088826E-02 -0.91171807628E+03  0.10882776902E+04  0.59423773047E+03 0.  0.
         13    1    3    3    0    0 -0.21193103029E+03 -0.14316369295E+03 -0.73280661899E+03  0.77615471745E+03  0.00000000000E+00 0.  1.
          1    1    3    3  501    0  0.21192732718E+03  0.14317209426E+03 -0.17891145729E+03  0.31212297277E+03  0.00000000000E+00 0.  1.
         21    1    1    2  502  501  0.37031021151E-02 -0.84013088826E-02  0.78389644368E-02  0.12072461210E-01  0.00000000000E+00 0. -1.
<mgrwt>
<rscale>  1 0.59423773E+03</rscale>
<asrwt>0</asrwt>
<pdfrwt beam="1">  1        1 0.32105436E+00 0.59423773E+03</pdfrwt>
<pdfrwt beam="2">0</pdfrwt>
<totfact> 0.29959376E+00</totfact>
</mgrwt>
</event>
<event>
 6    1  0.3354403E-003  0.6491551E+03  0.7818608E-02  0.9808366E-01
          1   -1    0    0  502    0  0.00000000000E+00  0.00000000000E+00  0.10535060815E+03  0.10535060815E+03  0.00000000000E+00 0.  1.
         13   -1    0    0    0    0 -0.00000000000E+00 -0.00000000000E+00 -0.10000000000E+04  0.10000000000E+04  0.00000000000E+00 0.  1.
    9000005    2    1    2  501    0  0.55462687875E-04  0.30453931686E-04 -0.89464938218E+03  0.11053505441E+04  0.64915507268E+03 0.  0.
         13    1    3    3    0    0 -0.63486549623E+02 -0.25486821199E+03 -0.77202053323E+03  0.81547780546E+03  0.00000000000E+00 0.  1.
          1    1    3    3  501    0  0.63486605085E+02  0.25486824245E+03 -0.12262884895E+03  0.28987273868E+03  0.00000000000E+00 0.  1.
         21    1    1    2  502  501 -0.55462687875E-04 -0.30453931708E-04 -0.96688555725E-05  0.64008112540E-04  0.00000000000E+00 0. -1.
<mgrwt>
<rscale>  1 0.64915507E+03</rscale>
<asrwt>0</asrwt>
<pdfrwt beam="1">  1        1 0.38309393E+00 0.64915507E+03</pdfrwt>
<pdfrwt beam="2">0</pdfrwt>
<totfact> 0.15904018E+00</totfact>
</mgrwt>
</event>
<event>
 6    1  0.3354403E-003  0.6336865E+03  0.7818608E-02  0.9837881E-01
          1   -1    0    0  502    0  0.00000000000E+00  0.00000000000E+00  0.10062956919E+03  0.10062956919E+03  0.00000000000E+00 0.  1.
         13   -1    0    0    0    0 -0.00000000000E+00 -0.00000000000E+00 -0.10000000000E+04  0.10000000000E+04  0.00000000000E+00 0.  1.
    9000005    2    1    2  501    0 -0.77055749184E-01  0.16304992116E+00 -0.89957252408E+03  0.11003587103E+04  0.63368646242E+03 0.  0.
         13    1    3    3    0    0  0.76786137018E+02 -0.17624682328E+03 -0.12498182724E+02  0.19265320689E+03  0.00000000000E+00 0.  1.
          1    1    3    3  501    0 -0.76863192767E+02  0.17640987320E+03 -0.88707434136E+03  0.90770550338E+03  0.00000000000E+00 0.  1.
         21    1    1    2  502  501  0.77055749184E-01 -0.16304992116E+00  0.20209327572E+00  0.27085892521E+00  0.00000000000E+00 0. -1.
<mgrwt>
<rscale>  1 0.63368649E+03</rscale>
<asrwt>0</asrwt>
<pdfrwt beam="1">  1        1 0.36592648E+00 0.63368649E+03</pdfrwt>
<pdfrwt beam="2">0</pdfrwt>
<totfact> 0.18979717E+00</totfact>
</mgrwt>
</event>
<event>
 6    1  0.3354403E-003  0.6337569E+03  0.7818608E-02  0.9837745E-01
          1   -1    0    0  502    0  0.00000000000E+00  0.00000000000E+00  0.10097151386E+03  0.10097151386E+03  0.00000000000E+00 0.  1.
         13   -1    0    0    0    0 -0.00000000000E+00 -0.00000000000E+00 -0.10000000000E+04  0.10000000000E+04  0.00000000000E+00 0.  1.
    9000005    2    1    2  501    0  0.24465779998E+00 -0.17400980151E+01 -0.89627796229E+03  0.10977075929E+04  0.63375443669E+03 0.  0.
         13    1    3    3    0    0 -0.21342524602E+03 -0.12619693108E+03 -0.10600743348E+03  0.26965455124E+03  0.00000000000E+00 0.  1.
          1    1    3    3  501    0  0.21366990382E+03  0.12445683306E+03 -0.79027052881E+03  0.82805304166E+03  0.00000000000E+00 0.  1.
         21    1    1    2  502  501 -0.24465779998E+00  0.17400980151E+01 -0.27505238537E+01  0.32639209566E+01  0.00000000000E+00 0.  1.
<mgrwt>
<rscale>  1 0.63375687E+03</rscale>
<asrwt>0</asrwt>
<pdfrwt beam="1">  1        1 0.36716992E+00 0.63375687E+03</pdfrwt>
<pdfrwt beam="2">0</pdfrwt>
<totfact> 0.18742677E+00</totfact>
</mgrwt>
</event>
<event>
 6    1  0.3354403E-003  0.6191979E+03  0.7818608E-02  0.9866358E-01
          1   -1    0    0  502    0  0.00000000000E+00  0.00000000000E+00  0.96908333135E+02  0.96908333135E+02  0.00000000000E+00 0.  1.
         13   -1    0    0    0    0 -0.00000000000E+00 -0.00000000000E+00 -0.10000000000E+04  0.10000000000E+04  0.00000000000E+00 0.  1.
    9000005    2    1    2  501    0  0.20341065101E+01 -0.25823339525E+01 -0.89970893403E+03  0.10921914571E+04  0.61918915284E+03 0.  0.
         13    1    3    3    0    0 -0.30355931747E+03  0.46784326355E+02 -0.49712571339E+03  0.58435520647E+03  0.00000000000E+00 0.  1.
          1    1    3    3  501    0  0.30559342398E+03 -0.49366660308E+02 -0.40258322064E+03  0.50783625065E+03  0.00000000000E+00 0.  1.
         21    1    1    2  502  501 -0.20341065101E+01  0.25823339525E+01 -0.33827328338E+01  0.47168760172E+01  0.00000000000E+00 0.  1.
<mgrwt>
<rscale>  1 0.61919788E+03</rscale>
<asrwt>0</asrwt>
<pdfrwt beam="1">  1        1 0.35239468E+00 0.61919788E+03</pdfrwt>
<pdfrwt beam="2">0</pdfrwt>
<totfact> 0.21806545E+00</totfact>
</mgrwt>
</event>
<event>
 6    1  0.3354403E-003  0.6481673E+03  0.7818608E-02  0.9810224E-01
          1   -1    0    0  502    0  0.00000000000E+00  0.00000000000E+00  0.10504519669E+03  0.10504519669E+03  0.00000000000E+00 0.  1.
         13   -1    0    0    0    0 -0.00000000000E+00 -0.00000000000E+00 -0.10000000000E+04  0.10000000000E+04  0.00000000000E+00 0.  1.
    9000005    2    1    2  501    0  0.52832501748E-03  0.10893719544E-03 -0.89496976801E+03  0.11050302223E+04  0.64816734451E+03 0.  0.
         13    1    3    3    0    0 -0.14994126503E+03 -0.12710089207E+03 -0.81975070845E+01  0.19673387823E+03  0.00000000000E+00 0.  1.
          1    1    3    3  501    0  0.14994179335E+03  0.12710100101E+03 -0.88677226092E+03  0.90829634404E+03  0.00000000000E+00 0.  1.
         21    1    1    2  502  501 -0.52832501749E-03 -0.10893719544E-03  0.14964698084E-01  0.14974417631E-01  0.00000000000E+00 0.  1.
<mgrwt>
<rscale>  1 0.64816734E+03</rscale>
<asrwt>0</asrwt>
<pdfrwt beam="1">  1        1 0.38198334E+00 0.64816734E+03</pdfrwt>
<pdfrwt beam="2">0</pdfrwt>
<totfact> 0.16087635E+00</totfact>
</mgrwt>
</event>
<event>
 6    1  0.3354403E-003  0.6454973E+03  0.7818608E-02  0.9815265E-01
          1   -1    0    0  502    0  0.00000000000E+00  0.00000000000E+00  0.10419836508E+03  0.10419836508E+03  0.00000000000E+00 0.  1.
         13   -1    0    0    0    0 -0.00000000000E+00 -0.00000000000E+00 -0.10000000000E+04  0.10000000000E+04  0.00000000000E+00 0.  1.
    9000005    2    1    2  501    0  0.20661283453E-02 -0.37052303730E-03 -0.89583328133E+03  0.11041666491E+04  0.64549726654E+03 0.  0.
         13    1    3    3    0    0 -0.12097440293E+03 -0.28475395467E+03 -0.29070303185E+03  0.42453253537E+03  0.00000000000E+00 0.  1.
          1    1    3    3  501    0  0.12097646906E+03  0.28475358414E+03 -0.60513024948E+03  0.67963411376E+03  0.00000000000E+00 0.  1.
         21    1    1    2  502  501 -0.20661283453E-02  0.37052303727E-03  0.31646411036E-01  0.31715950327E-01  0.00000000000E+00 0. -1.
<mgrwt>
<rscale>  1 0.64549727E+03</rscale>
<asrwt>0</asrwt>
<pdfrwt beam="1">  1        1 0.37890394E+00 0.64549727E+03</pdfrwt>
<pdfrwt beam="2">0</pdfrwt>
<totfact> 0.16607162E+00</totfact>
</mgrwt>
</event>
<event>
 6    1  0.3354403E-003  0.6468083E+03  0.7818608E-02  0.9812787E-01
          1   -1    0    0  502    0  0.00000000000E+00  0.00000000000E+00  0.10459044321E+03  0.10459044321E+03  0.00000000000E+00 0.  1.
         13   -1    0    0    0    0 -0.00000000000E+00 -0.00000000000E+00 -0.10000000000E+04  0.10000000000E+04  0.00000000000E+00 0.  1.
    9000005    2    1    2  501    0 -0.12830978477E-04 -0.20234823793E-04 -0.89540976412E+03  0.11045902345E+04  0.64680827181E+03 0.  0.
         13    1    3    3    0    0  0.22587710181E+03 -0.85346192183E+02 -0.80296121980E+02  0.25446395589E+03  0.00000000000E+00 0.  1.
          1    1    3    3  501    0 -0.22587711464E+03  0.85346171949E+02 -0.81511364214E+03  0.85012627861E+03  0.00000000000E+00 0.  1.
         21    1    1    2  502  501  0.12830978473E-04  0.20234823799E-04  0.20732439694E-03  0.20870430678E-03  0.00000000000E+00 0. -1.
<mgrwt>
<rscale>  1 0.64680827E+03</rscale>
<asrwt>0</asrwt>
<pdfrwt beam="1">  1        1 0.38032969E+00 0.64680827E+03</pdfrwt>
<pdfrwt beam="2">0</pdfrwt>
<totfact> 0.16364444E+00</totfact>
</mgrwt>
</event>
<event>
 6    1  0.3354403E-003  0.6463814E+03  0.7818608E-02  0.9813593E-01
          1   -1    0    0  502    0  0.00000000000E+00  0.00000000000E+00  0.10445277740E+03  0.10445277740E+03  0.00000000000E+00 0.  1.
         13   -1    0    0    0    0 -0.00000000000E+00 -0.00000000000E+00 -0.10000000000E+04  0.10000000000E+04  0.00000000000E+00 0.  1.
    9000005    2    1    2  501    0  0.87617616362E-04 -0.11918666802E-03 -0.89554774981E+03  0.11044522298E+04  0.64638143213E+03 0.  0.
         13    1    3    3    0    0 -0.30303587290E+02  0.12750390444E+03 -0.95255965228E+03  0.96153286173E+03  0.00000000000E+00 0.  1.
          1    1    3    3  501    0  0.30303674907E+02 -0.12750402363E+03  0.57011902469E+02  0.14291936810E+03  0.00000000000E+00 0.  1.
         21    1    1    2  502  501 -0.87617616362E-04  0.11918666802E-03  0.52720298580E-03  0.54756305277E-03  0.00000000000E+00 0. -1.
<mgrwt>
<rscale>  1 0.64638143E+03</rscale>
<asrwt>0</asrwt>
<pdfrwt beam="1">  1        1 0.37982908E+00 0.64638143E+03</pdfrwt>
<pdfrwt beam="2">0</pdfrwt>
<totfact> 0.16449179E+00</totfact>
</mgrwt>
</event>
<event>
 6    1  0.3354403E-003  0.6463183E+03  0.7818608E-02  0.9813712E-01
          1   -1    0    0  502    0  0.00000000000E+00  0.00000000000E+00  0.10447481742E+03  0.10447481742E+03  0.00000000000E+00 0.  1.
         13   -1    0    0    0    0 -0.00000000000E+00 -0.00000000000E+00 -0.10000000000E+04  0.10000000000E+04  0.00000000000E+00 0.  1.
    9000005    2    1    2  501    0 -0.29180264482E-02  0.21713934434E-02 -0.89556807782E+03  0.11044317682E+04  0.64631830291E+03 0.  0.
         13    1    3    3    0    0  0.73188628640E+01  0.24019776464E+02 -0.99833052352E+03  0.99864625849E+03  0.00000000000E+00 0.  1.
          1    1    3    3  501    0 -0.73217808905E+01 -0.24017605070E+02  0.10276244569E+03  0.10578550975E+03  0.00000000000E+00 0.  1.
         21    1    1    2  502  501  0.29180264482E-02 -0.21713934434E-02  0.42895244176E-01  0.43049178863E-01  0.00000000000E+00 0. -1.
<mgrwt>
<rscale>  1 0.64631830E+03</rscale>
<asrwt>0</asrwt>
<pdfrwt beam="1">  1        1 0.37990923E+00 0.64631830E+03</pdfrwt>
<pdfrwt beam="2">0</pdfrwt>
<totfact> 0.16435982E+00</totfact>
</mgrwt>
</event>
<event>
 6    1  0.3354403E-003  0.6475871E+03  0.7818608E-02  0.9811317E-01
          1   -1    0    0  502    0  0.00000000000E+00  0.00000000000E+00  0.10485019393E+03  0.10485019393E+03  0.00000000000E+00 0.  1.
         13   -1    0    0    0    0 -0.00000000000E+00 -0.00000000000E+00 -0.10000000000E+04  0.10000000000E+04  0.00000000000E+00 0.  1.
    9000005    2    1    2  501    0  0.69575603204E-02  0.15569677067E-02 -0.89515592612E+03  0.11048407978E+04  0.64758710335E+03 0.  0.
         13    1    3    3    0    0 -0.23740246491E+03  0.15058621530E+03 -0.17351157135E+03  0.33036707459E+03  0.00000000000E+00 0.  1.
          3    1    3    3  501    0  0.23740942247E+03 -0.15058465833E+03 -0.72164435477E+03  0.77447372323E+03  0.00000000000E+00 0.  1.
         21    1    1    2  502  501 -0.69575603204E-02 -0.15569677067E-02  0.61200510153E-02  0.93961065597E-02  0.00000000000E+00 0. -1.
<mgrwt>
<rscale>  1 0.64758710E+03</rscale>
<asrwt>0</asrwt>
<pdfrwt beam="1">  1        1 0.38127424E+00 0.64758710E+03</pdfrwt>
<pdfrwt beam="2">0</pdfrwt>
<totfact> 0.16205776E+00</totfact>
</mgrwt>
</event>
<event>
 6    1  0.3354403E-003  0.6322342E+03  0.7818608E-02  0.9840699E-01
          1   -1    0    0  502    0  0.00000000000E+00  0.00000000000E+00  0.10025525144E+03  0.10025525144E+03  0.00000000000E+00 0.  1.
         13   -1    0    0    0    0 -0.00000000000E+00 -0.00000000000E+00 -0.10000000000E+04  0.10000000000E+04  0.00000000000E+00 0.  1.
    9000005    2    1    2  501    0  0.38583671103E-02 -0.14081047912E-01 -0.90006979297E+03  0.10999298793E+04  0.63223421841E+03 0.  0.
         13    1    3    3    0    0  0.14281860034E+03  0.32575498326E+02 -0.93738830044E+03  0.94876506127E+03  0.00000000000E+00 0.  1.
          1    1    3    3  501    0 -0.14281474197E+03 -0.32589579374E+02  0.37318507465E+02  0.15116481802E+03  0.00000000000E+00 0.  1.
         21    1    1    2  502  501 -0.38583671103E-02  0.14081047912E-01  0.32504440997E+00  0.32537214287E+00  0.00000000000E+00 0.  1.
<mgrwt>
<rscale>  1 0.63223422E+03</rscale>
<asrwt>0</asrwt>
<pdfrwt beam="1">  1        1 0.36456532E+00 0.63223422E+03</pdfrwt>
<pdfrwt beam="2">0</pdfrwt>
<totfact> 0.19247298E+00</totfact>
</mgrwt>
</event>
<event>
 6    1  0.3354403E-003  0.6214263E+03  0.7818608E-02  0.9861924E-01
          1   -1    0    0  502    0  0.00000000000E+00  0.00000000000E+00  0.96542908061E+02  0.96542908061E+02  0.00000000000E+00 0.  1.
         13   -1    0    0    0    0 -0.00000000000E+00 -0.00000000000E+00 -0.10000000000E+04  0.10000000000E+04  0.00000000000E+00 0.  1.
    9000005    2    1    2  501    0  0.53325641207E-03 -0.47582540530E-03 -0.90345653764E+03  0.10965420036E+04  0.62142630319E+03 0.  0.
         13    1    3    3    0    0  0.24414560425E+03  0.88796861005E+02 -0.15097224732E+03  0.30047392243E+03  0.00000000000E+00 0.  1.
          1    1    3    3  501    0 -0.24414507099E+03 -0.88797336831E+02 -0.75248429032E+03  0.79606808119E+03  0.00000000000E+00 0.  1.
         21    1    1    2  502  501 -0.53325641208E-03  0.47582540530E-03 -0.55430049125E-03  0.90444527305E-03  0.00000000000E+00 0.  1.
<mgrwt>
<rscale>  1 0.62142630E+03</rscale>
<asrwt>0</asrwt>
<pdfrwt beam="1">  1        1 0.35106586E+00 0.62142630E+03</pdfrwt>
<pdfrwt beam="2">0</pdfrwt>
<totfact> 0.22090546E+00</totfact>
</mgrwt>
</event>
<event>
 6    1  0.3354403E-003  0.6378460E+03  0.7818608E-02  0.9829856E-01
          1   -1    0    0  502    0  0.00000000000E+00  0.00000000000E+00  0.10171326401E+03  0.10171326401E+03  0.00000000000E+00 0.  1.
         13   -1    0    0    0    0 -0.00000000000E+00 -0.00000000000E+00 -0.10000000000E+04  0.10000000000E+04  0.00000000000E+00 0.  1.
    9000005    2    1    2  501    0 -0.20324120393E-03 -0.70945323444E-04 -0.89828811310E+03  0.11017118702E+04  0.63784599298E+03 0.  0.
         13    1    3    3    0    0  0.23978042385E+03 -0.20073789138E+03 -0.34098121540E+03  0.46266461066E+03  0.00000000000E+00 0.  1.
          1    1    3    3  501    0 -0.23978062709E+03  0.20073782043E+03 -0.55730689770E+03  0.63904725952E+03  0.00000000000E+00 0.  1.
         21    1    1    2  502  501  0.20324120391E-03  0.70945323459E-04  0.13771121569E-02  0.13938357574E-02  0.00000000000E+00 0. -1.
<mgrwt>
<rscale>  1 0.63784599E+03</rscale>
<asrwt>0</asrwt>
<pdfrwt beam="1">  1        1 0.36986719E+00 0.63784599E+03</pdfrwt>
<pdfrwt beam="2">0</pdfrwt>
<totfact> 0.18225116E+00</totfact>
</mgrwt>
</event>
<event>
 6    1  0.3354403E-003  0.6022717E+03  0.7818608E-02  0.9900704E-01
          1   -1    0    0  502    0  0.00000000000E+00  0.00000000000E+00  0.90701428938E+02  0.90701428938E+02  0.00000000000E+00 0.  1.
         13   -1    0    0    0    0 -0.00000000000E+00 -0.00000000000E+00 -0.10000000000E+04  0.10000000000E+04  0.00000000000E+00 0.  1.
    9000005    2    1    2  501    0  0.10063317226E-02  0.57012995214E-05 -0.90931720006E+03  0.10906827728E+04  0.60227165010E+03 0.  0.
         13    1    3    3    0    0 -0.28267728980E+03 -0.41015012048E+02 -0.62735265693E+03  0.68931853127E+03  0.00000000000E+00 0.  1.
          1    1    3    3  501    0  0.28267829614E+03  0.41015017749E+02 -0.28196454312E+03  0.40136424151E+03  0.00000000000E+00 0.  1.
         21    1    1    2  502  501 -0.10063317227E-02 -0.57012995220E-05  0.18628996105E-01  0.18656158016E-01  0.00000000000E+00 0.  1.
<mgrwt>
<rscale>  1 0.60227165E+03</rscale>
<asrwt>0</asrwt>
<pdfrwt beam="1">  1        1 0.32982407E+00 0.60227165E+03</pdfrwt>
<pdfrwt beam="2">0</pdfrwt>
<totfact> 0.27413535E+00</totfact>
</mgrwt>
</event>
<event>
 6    1  0.3354403E-003  0.5968309E+03  0.7818608E-02  0.9912003E-01
          1   -1    0    0  502    0  0.00000000000E+00  0.00000000000E+00  0.89056460999E+02  0.89056460999E+02  0.00000000000E+00 0.  1.
         13   -1    0    0    0    0 -0.00000000000E+00 -0.00000000000E+00 -0.10000000000E+04  0.10000000000E+04  0.00000000000E+00 0.  1.
    9000005    2    1    2  501    0  0.72902410906E-02  0.43214421008E-02 -0.91094368802E+03  0.10890479849E+04  0.59683088940E+03 0.  0.
         13    1    3    3    0    0  0.14137651588E+02  0.24879000018E+03 -0.75506562696E+03  0.79512290773E+03  0.00000000000E+00 0.  1.
          1    1    3    3  501    0 -0.14130361347E+02 -0.24878567873E+03 -0.15587806106E+03  0.29392507714E+03  0.00000000000E+00 0.  1.
         21    1    1    2  502  501 -0.72902410906E-02 -0.43214421008E-02  0.14901860245E-03  0.84761243227E-02  0.00000000000E+00 0.  1.
<mgrwt>
<rscale>  1 0.59683089E+03</rscale>
<asrwt>0</asrwt>
<pdfrwt beam="1">  1        1 0.32384236E+00 0.59683089E+03</pdfrwt>
<pdfrwt beam="2">0</pdfrwt>
<totfact> 0.29125443E+00</totfact>
</mgrwt>
</event>
<event>
 6    1  0.3354403E-003  0.6534900E+03  0.7818608E-02  0.9800252E-01
          3   -1    0    0  502    0  0.00000000000E+00  0.00000000000E+00  0.10676315623E+03  0.10676315623E+03  0.00000000000E+00 0.  1.
         13   -1    0    0    0    0 -0.00000000000E+00 -0.00000000000E+00 -0.10000000000E+04  0.10000000000E+04  0.00000000000E+00 0.  1.
    9000005    2    1    2  501    0  0.18720719457E-02  0.11104409754E-03 -0.89323638676E+03  0.11067612260E+04  0.65348999129E+03 0.  0.
         13    1    3    3    0    0  0.15742973331E+03  0.27089079771E+03 -0.28958976323E+03  0.42664760186E+03  0.00000000000E+00 0.  1.
          1    1    3    3  501    0 -0.15742786123E+03 -0.27089068666E+03 -0.60364662353E+03  0.68011362412E+03  0.00000000000E+00 0.  1.
         21    1    1    2  502  501 -0.18720719457E-02 -0.11104409757E-03 -0.45700803376E-03  0.19302436386E-02  0.00000000000E+00 0.  1.
<mgrwt>
<rscale>  1 0.65348999E+03</rscale>
<asrwt>0</asrwt>
<pdfrwt beam="1">  1        3 0.38823048E+00 0.65348999E+03</pdfrwt>
<pdfrwt beam="2">0</pdfrwt>
<totfact> 0.68260139E-02</totfact>
</mgrwt>
</event>
<event>
 6    1  0.3354403E-003  0.6464297E+03  0.7818608E-02  0.9813502E-01
          1   -1    0    0  502    0  0.00000000000E+00  0.00000000000E+00  0.10465674278E+03  0.10465674278E+03  0.00000000000E+00 0.  1.
         13   -1    0    0    0    0 -0.00000000000E+00 -0.00000000000E+00 -0.10000000000E+04  0.10000000000E+04  0.00000000000E+00 0.  1.
    9000005    2    1    2  501    0  0.37517746308E-02 -0.14702652173E-01 -0.89553183812E+03  0.11044675524E+04  0.64642965664E+03 0.  0.
         13    1    3    3    0    0  0.14469692856E+03 -0.17614306454E+03 -0.56263539711E+02  0.23479600981E+03  0.00000000000E+00 0.  1.
          3    1    3    3  501    0 -0.14469317678E+03  0.17612836189E+03 -0.83926829841E+03  0.86967154259E+03  0.00000000000E+00 0.  1.
         21    1    1    2  502  501 -0.37517746308E-02  0.14702652173E-01  0.18858090156E+00  0.18919038090E+00  0.00000000000E+00 0.  1.
<mgrwt>
<rscale>  1 0.64642966E+03</rscale>
<asrwt>0</asrwt>
<pdfrwt beam="1">  1        1 0.38057078E+00 0.64642966E+03</pdfrwt>
<pdfrwt beam="2">0</pdfrwt>
<totfact> 0.16325539E+00</totfact>
</mgrwt>
</event>
<event>
 6    1  0.3354403E-003  0.6564372E+03  0.7818608E-02  0.9794775E-01
          1   -1    0    0  502    0  0.00000000000E+00  0.00000000000E+00  0.10932380901E+03  0.10932380901E+03  0.00000000000E+00 0.  1.
         13   -1    0    0    0    0 -0.00000000000E+00 -0.00000000000E+00 -0.10000000000E+04  0.10000000000E+04  0.00000000000E+00 0.  1.
    9000005    2    1    2  501    0 -0.38827623549E+00 -0.51203366056E+00 -0.89220058880E+03  0.11076695038E+04  0.65643691711E+03 0.  0.
         13    1    3    3    0    0  0.15925347321E+03  0.94820767719E+02  0.10862374919E+02  0.18566269930E+03  0.00000000000E+00 0.  1.
          1    1    3    3  501    0 -0.15964174945E+03 -0.95332801379E+02 -0.90306296372E+03  0.92200680454E+03  0.00000000000E+00 0.  1.
         21    1    1    2  502  501  0.38827623549E+00  0.51203366056E+00  0.15243978118E+01  0.16543051693E+01  0.00000000000E+00 0. -1.
<mgrwt>
<rscale>  1 0.65643723E+03</rscale>
<asrwt>0</asrwt>
<pdfrwt beam="1">  1        1 0.39754196E+00 0.65643723E+03</pdfrwt>
<pdfrwt beam="2">0</pdfrwt>
<totfact> 0.13703657E+00</totfact>
</mgrwt>
</event>
<event>
 6    1  0.3354403E-003  0.5686816E+03  0.7818608E-02  0.9972600E-01
          1   -1    0    0  502    0  0.00000000000E+00  0.00000000000E+00  0.81064044938E+02  0.81064044938E+02  0.00000000000E+00 0.  1.
         13   -1    0    0    0    0 -0.00000000000E+00 -0.00000000000E+00 -0.10000000000E+04  0.10000000000E+04  0.00000000000E+00 0.  1.
    9000005    2    1    2  501    0 -0.14141066477E-01  0.43474155073E-02 -0.91915003580E+03  0.10808494536E+04  0.56868159183E+03 0.  0.
         13    1    3    3    0    0 -0.39695485242E+02  0.89946624677E+02 -0.96667210514E+03  0.97165893486E+03  0.00000000000E+00 0.  1.
          1    1    3    3  501    0  0.39681344175E+02 -0.89942277261E+02  0.47522069341E+02  0.10919051877E+03  0.00000000000E+00 0.  1.
         21    1    1    2  502  501  0.14141066477E-01 -0.43474155073E-02  0.21408073445E+00  0.21459131074E+00  0.00000000000E+00 0.  1.
<mgrwt>
<rscale>  1 0.56868159E+03</rscale>
<asrwt>0</asrwt>
<pdfrwt beam="1">  1        1 0.29477897E+00 0.56868159E+03</pdfrwt>
<pdfrwt beam="2">0</pdfrwt>
<totfact> 0.39078102E+00</totfact>
</mgrwt>
</event>
<event>
 6    1  0.3354403E-003  0.6485176E+03  0.7818608E-02  0.9809565E-01
          1   -1    0    0  502    0  0.00000000000E+00  0.00000000000E+00  0.10514399555E+03  0.10514399555E+03  0.00000000000E+00 0.  1.
         13   -1    0    0    0    0 -0.00000000000E+00 -0.00000000000E+00 -0.10000000000E+04  0.10000000000E+04  0.00000000000E+00 0.  1.
    9000005    2    1    2  501    0 -0.25277377532E-04  0.92527309128E-04 -0.89485620282E+03  0.11051437752E+04  0.64851764829E+03 0.  0.
         13    1    3    3    0    0  0.69826164260E+02  0.34408359088E+02 -0.98384085734E+03  0.98691563011E+03  0.00000000000E+00 0.  1.
          3    1    3    3  501    0 -0.69826189537E+02 -0.34408266560E+02  0.88984654516E+02  0.11822814509E+03  0.00000000000E+00 0.  1.
         21    1    1    2  502  501  0.25277377518E-04 -0.92527309128E-04  0.19837584890E-03  0.22034796612E-03  0.00000000000E+00 0. -1.
<mgrwt>
<rscale>  1 0.64851765E+03</rscale>
<asrwt>0</asrwt>
<pdfrwt beam="1">  1        1 0.38234261E+00 0.64851765E+03</pdfrwt>
<pdfrwt beam="2">0</pdfrwt>
<totfact> 0.16027926E+00</totfact>
</mgrwt>
</event>
<event>
 6    1  0.3354403E-003  0.6547484E+03  0.7818608E-02  0.9797910E-01
          1   -1    0    0  502    0  0.00000000000E+00  0.00000000000E+00  0.10717389809E+03  0.10717389809E+03  0.00000000000E+00 0.  1.
         13   -1    0    0    0    0 -0.00000000000E+00 -0.00000000000E+00 -0.10000000000E+04  0.10000000000E+04  0.00000000000E+00 0.  1.
    9000005    2    1    2  501    0 -0.48728999005E-05  0.26641730585E-04 -0.89282612500E+03  0.11071738625E+04  0.65474840382E+03 0.  0.
         13    1    3    3    0    0 -0.35497579346E+02 -0.30374357600E+03 -0.64400320689E+03  0.71292381682E+03  0.00000000000E+00 0.  1.
          3    1    3    3  501    0  0.35497574473E+02  0.30374360264E+03 -0.24882291811E+03  0.39425004568E+03  0.00000000000E+00 0.  1.
         21    1    1    2  502  501  0.48728999015E-05 -0.26641730559E-04  0.23089485975E-04  0.35590045283E-04  0.00000000000E+00 0. -1.
<mgrwt>
<rscale>  1 0.65474840E+03</rscale>
<asrwt>0</asrwt>
<pdfrwt beam="1">  1        1 0.38972409E+00 0.65474840E+03</pdfrwt>
<pdfrwt beam="2">0</pdfrwt>
<totfact> 0.14849419E+00</totfact>
</mgrwt>
</event>
<event>
 6    1  0.3354403E-003  0.4835577E+03  0.7818608E-02  0.1018162E+00
          1   -1    0    0  502    0  0.00000000000E+00  0.00000000000E+00  0.58458156302E+02  0.58458156302E+02  0.00000000000E+00 0.  1.
         13   -1    0    0    0    0 -0.00000000000E+00 -0.00000000000E+00 -0.10000000000E+04  0.10000000000E+04  0.00000000000E+00 0.  1.
    9000005    2    1    2  501    0  0.13312603411E-03 -0.26035194954E-03 -0.94154297017E+03  0.10584569925E+04  0.48355769075E+03 0.  0.
         13    1    3    3    0    0  0.13152851070E+03 -0.67085444065E+02 -0.51686325425E+02  0.15643427428E+03  0.00000000000E+00 0.  1.
          3    1    3    3  501    0 -0.13152837758E+03  0.67085183713E+02 -0.88985664475E+03  0.90202271822E+03  0.00000000000E+00 0.  1.
         21    1    1    2  502  501 -0.13312603413E-03  0.26035194954E-03  0.11264728427E-02  0.11638070046E-02  0.00000000000E+00 0.  1.
<mgrwt>
<rscale>  1 0.48355769E+03</rscale>
<asrwt>0</asrwt>
<pdfrwt beam="1">  1        1 0.21257556E+00 0.48355769E+03</pdfrwt>
<pdfrwt beam="2">0</pdfrwt>
<totfact> 0.90479731E+00</totfact>
</mgrwt>
</event>
<event>
 6    1  0.3354403E-003  0.6704496E+03  0.7818608E-02  0.9769146E-01
          1   -1    0    0  502    0  0.00000000000E+00  0.00000000000E+00  0.11389760597E+03  0.11389760597E+03  0.00000000000E+00 0.  1.
         13   -1    0    0    0    0 -0.00000000000E+00 -0.00000000000E+00 -0.10000000000E+04  0.10000000000E+04  0.00000000000E+00 0.  1.
    9000005    2    1    2  501    0  0.11984451061E+01  0.26344256276E+01 -0.88589465044E+03  0.11109959467E+04  0.67044334993E+03 0.  0.
         13    1    3    3    0    0  0.11475832057E+03 -0.28213119350E+03 -0.67015410713E+03  0.73612092063E+03  0.00000000000E+00 0.  1.
          1    1    3    3  501    0 -0.11355987546E+03  0.28476561913E+03 -0.21574054331E+03  0.37487502609E+03  0.00000000000E+00 0.  1.
         21    1    1    2  502  501 -0.11984451061E+01 -0.26344256276E+01 -0.20774358916E+00  0.29016592595E+01  0.00000000000E+00 0.  1.
<mgrwt>
<rscale>  1 0.67044960E+03</rscale>
<asrwt>0</asrwt>
<pdfrwt beam="1">  1        1 0.41417399E+00 0.67044960E+03</pdfrwt>
<pdfrwt beam="2">0</pdfrwt>
<totfact> 0.11515184E+00</totfact>
</mgrwt>
</event>
<event>
 6    1  0.3354403E-003  0.6580778E+03  0.7818608E-02  0.9791739E-01
          1   -1    0    0  502    0  0.00000000000E+00  0.00000000000E+00  0.10826888215E+03  0.10826888215E+03  0.00000000000E+00 0.  1.
         13   -1    0    0    0    0 -0.00000000000E+00 -0.00000000000E+00 -0.10000000000E+04  0.10000000000E+04  0.00000000000E+00 0.  1.
    9000005    2    1    2  501    0  0.74391740100E-04  0.44838548433E-04 -0.89173341075E+03  0.11082665876E+04  0.65807777151E+03 0.  0.
         13    1    3    3    0    0  0.15641275742E+03  0.28807070815E+03 -0.49400156554E+03  0.59286358493E+03  0.00000000000E+00 0.  1.
          1    1    3    3  501    0 -0.15641268303E+03 -0.28807066331E+03 -0.39773184521E+03  0.51540300268E+03  0.00000000000E+00 0.  1.
         21    1    1    2  502  501 -0.74391740095E-04 -0.44838548466E-04  0.22928968220E-02  0.22945414493E-02  0.00000000000E+00 0. -1.
<mgrwt>
<rscale>  1 0.65807777E+03</rscale>
<asrwt>0</asrwt>
<pdfrwt beam="1">  1        1 0.39370586E+00 0.65807777E+03</pdfrwt>
<pdfrwt beam="2">0</pdfrwt>
<totfact> 0.14248409E+00</totfact>
</mgrwt>
</event>
<event>
 6    1  0.3354403E-003  0.5777565E+03  0.7818608E-02  0.9952660E-01
          1   -1    0    0  502    0  0.00000000000E+00  0.00000000000E+00  0.83485961947E+02  0.83485961947E+02  0.00000000000E+00 0.  1.
         13   -1    0    0    0    0 -0.00000000000E+00 -0.00000000000E+00 -0.10000000000E+04  0.10000000000E+04  0.00000000000E+00 0.  1.
    9000005    2    1    2  501    0 -0.32500164497E-03  0.90751432124E-02 -0.91654871582E+03  0.10834501149E+04  0.57775652562E+03 0.  0.
         13    1    3    3    0    0 -0.27323277151E+02 -0.23390317721E+03 -0.14452455105E+03  0.27630527256E+03  0.00000000000E+00 0.  1.
          1    1    3    3  501    0  0.27322952150E+02  0.23391225236E+03 -0.77202416477E+03  0.80714484233E+03  0.00000000000E+00 0.  1.
         21    1    1    2  502  501  0.32500164497E-03 -0.90751432124E-02  0.34677769677E-01  0.35847057901E-01  0.00000000000E+00 0.  1.
<mgrwt>
<rscale>  1 0.57775653E+03</rscale>
<asrwt>0</asrwt>
<pdfrwt beam="1">  1        1 0.30358596E+00 0.57775653E+03</pdfrwt>
<pdfrwt beam="2">0</pdfrwt>
<totfact> 0.35747754E+00</totfact>
</mgrwt>
</event>
<event>
 6    1  0.3354403E-003  0.6561247E+03  0.7818608E-02  0.9795354E-01
          1   -1    0    0  502    0  0.00000000000E+00  0.00000000000E+00  0.10814212368E+03  0.10814212368E+03  0.00000000000E+00 0.  1.
         13   -1    0    0    0    0 -0.00000000000E+00 -0.00000000000E+00 -0.10000000000E+04  0.10000000000E+04  0.00000000000E+00 0.  1.
    9000005    2    1    2  501    0  0.12710492310E+00 -0.13775254851E+00 -0.89235623154E+03  0.11076096865E+04  0.65612463642E+03 0.  0.
         13    1    3    3    0    0 -0.13429524109E+03  0.19837881123E+03 -0.67892759543E+02  0.24899556487E+03  0.00000000000E+00 0.  1.
          1    1    3    3  501    0  0.13442234602E+03 -0.19851656378E+03 -0.82446347200E+03  0.85861412163E+03  0.00000000000E+00 0.  1.
         21    1    1    2  502  501 -0.12710492310E+00  0.13775254851E+00  0.49835521965E+00  0.53243718038E+00  0.00000000000E+00 0. -1.
<mgrwt>
<rscale>  1 0.65612466E+03</rscale>
<asrwt>0</asrwt>
<pdfrwt beam="1">  1        1 0.39324492E+00 0.65612466E+03</pdfrwt>
<pdfrwt beam="2">0</pdfrwt>
<totfact> 0.14320962E+00</totfact>
</mgrwt>
</event>
<event>
 6    1  0.3354403E-003  0.6481142E+03  0.7818608E-02  0.9810324E-01
          1   -1    0    0  502    0  0.00000000000E+00  0.00000000000E+00  0.10729106052E+03  0.10729106052E+03  0.00000000000E+00 0.  1.
         13   -1    0    0    0    0 -0.00000000000E+00 -0.00000000000E+00 -0.10000000000E+04  0.10000000000E+04  0.00000000000E+00 0.  1.
    9000005    2    1    2  501    0  0.20314343611E+01  0.44203062177E+01 -0.89165063155E+03  0.11023125217E+04  0.64809596591E+03 0.  0.
         13    1    3    3    0    0  0.10395120272E+03  0.25447763628E+03 -0.74701231873E+03  0.79598500252E+03  0.00000000000E+00 0.  1.
          3    1    3    3  501    0 -0.10191976836E+03 -0.25005733006E+03 -0.14463831282E+03  0.30632751923E+03  0.00000000000E+00 0.  1.
         21    1    1    2  502  501 -0.20314343611E+01 -0.44203062177E+01 -0.10583079295E+01  0.49785387711E+01  0.00000000000E+00 0.  1.
<mgrwt>
<rscale>  1 0.64811422E+03</rscale>
<asrwt>0</asrwt>
<pdfrwt beam="1">  1        1 0.39015013E+00 0.64811422E+03</pdfrwt>
<pdfrwt beam="2">0</pdfrwt>
<totfact> 0.14803243E+00</totfact>
</mgrwt>
</event>
<event>
 6    1  0.3354403E-003  0.6496035E+03  0.7818608E-02  0.9807523E-01
          1   -1    0    0  502    0  0.00000000000E+00  0.00000000000E+00  0.10549621492E+03  0.10549621492E+03  0.00000000000E+00 0.  1.
         13   -1    0    0    0    0 -0.00000000000E+00 -0.00000000000E+00 -0.10000000000E+04  0.10000000000E+04  0.00000000000E+00 0.  1.
    9000005    2    1    2  501    0  0.21437512530E-04 -0.12302615037E-03 -0.89450359068E+03  0.11054959839E+04  0.64960349184E+03 0.  0.
         13    1    3    3    0    0  0.44971999048E+02  0.13719010541E+02 -0.99417765289E+03  0.99528885127E+03  0.00000000000E+00 0.  1.
          1    1    3    3  501    0 -0.44971977611E+02 -0.13719133567E+02  0.99674062218E+02  0.11020713260E+03  0.00000000000E+00 0.  1.
         21    1    1    2  502  501 -0.21437512533E-04  0.12302615038E-03 -0.19440222944E-03  0.23105676236E-03  0.00000000000E+00 0.  1.
<mgrwt>
<rscale>  1 0.64960349E+03</rscale>
<asrwt>0</asrwt>
<pdfrwt beam="1">  1        1 0.38362341E+00 0.64960349E+03</pdfrwt>
<pdfrwt beam="2">0</pdfrwt>
<totfact> 0.15817246E+00</totfact>
</mgrwt>
</event>
<event>
 6    1  0.3354403E-003  0.5796215E+03  0.7818608E-02  0.9948611E-01
          1   -1    0    0  502    0  0.00000000000E+00  0.00000000000E+00  0.84009307695E+02  0.84009307695E+02  0.00000000000E+00 0.  1.
         13   -1    0    0    0    0 -0.00000000000E+00 -0.00000000000E+00 -0.10000000000E+04  0.10000000000E+04  0.00000000000E+00 0.  1.
    9000005    2    1    2  501    0 -0.34834717238E-01 -0.25085307819E-01 -0.91597983595E+03  0.10839650291E+04  0.57962153401E+03 0.  0.
         13    1    3    3    0    0 -0.29104452478E+00  0.23715534252E+03 -0.14648917175E+03  0.27875045943E+03  0.00000000000E+00 0.  1.
          1    1    3    3  501    0  0.25620980754E+00 -0.23718042782E+03 -0.76949066420E+03  0.80521456971E+03  0.00000000000E+00 0.  1.
         21    1    1    2  502  501  0.34834717238E-01  0.25085307819E-01 -0.10856354027E-01  0.44278557070E-01  0.00000000000E+00 0.  1.
<mgrwt>
<rscale>  1 0.57962154E+03</rscale>
<asrwt>0</asrwt>
<pdfrwt beam="1">  1        1 0.30548904E+00 0.57962154E+03</pdfrwt>
<pdfrwt beam="2">0</pdfrwt>
<totfact> 0.35066636E+00</totfact>
</mgrwt>
</event>
<event>
 6    1  0.3354403E-003  0.6712378E+03  0.7818608E-02  0.9767724E-01
          1   -1    0    0  502    0  0.00000000000E+00  0.00000000000E+00  0.11264014294E+03  0.11264014294E+03  0.00000000000E+00 0.  1.
         13   -1    0    0    0    0 -0.00000000000E+00 -0.00000000000E+00 -0.10000000000E+04  0.10000000000E+04  0.00000000000E+00 0.  1.
    9000005    2    1    2  501    0  0.20899717105E-04  0.61802187815E-04 -0.88735995536E+03  0.11126400250E+04  0.67123776320E+03 0.  0.
         13    1    3    3    0    0 -0.94768245467E+01  0.33547841532E+03 -0.44017277732E+03  0.55352294555E+03  0.00000000000E+00 0.  1.
          3    1    3    3  501    0  0.94768454465E+01 -0.33547835352E+03 -0.44718717804E+03  0.55911707941E+03  0.00000000000E+00 0.  1.
         21    1    1    2  502  501 -0.20899717105E-04 -0.61802187766E-04  0.98304202998E-04  0.11798315522E-03  0.00000000000E+00 0. -1.
<mgrwt>
<rscale>  1 0.67123776E+03</rscale>
<asrwt>0</asrwt>
<pdfrwt beam="1">  1        1 0.40960138E+00 0.67123776E+03</pdfrwt>
<pdfrwt beam="2">0</pdfrwt>
<totfact> 0.12070942E+00</totfact>
</mgrwt>
</event>
<event>
 6    1  0.3354403E-003  0.6457720E+03  0.7818608E-02  0.9814745E-01
          1   -1    0    0  502    0  0.00000000000E+00  0.00000000000E+00  0.10744838540E+03  0.10744838540E+03  0.00000000000E+00 0.  1.
         13   -1    0    0    0    0 -0.00000000000E+00 -0.00000000000E+00 -0.10000000000E+04  0.10000000000E+04  0.00000000000E+00 0.  1.
    9000005    2    1    2  501    0  0.25555004031E-01  0.12745951204E+00 -0.89574317952E+03  0.11042541741E+04  0.64577195706E+03 0.  0.
         13    1    3    3    0    0 -0.29768469975E+03 -0.11398824530E+03 -0.36023529681E+03  0.48101867906E+03  0.00000000000E+00 0.  1.
          1    1    3    3  501    0  0.29771025476E+03  0.11411570481E+03 -0.53550788271E+03  0.62323549507E+03  0.00000000000E+00 0.  1.
         21    1    1    2  502  501 -0.25555004031E-01 -0.12745951204E+00  0.31915649197E+01  0.31942112676E+01  0.00000000000E+00 0. -1.
<mgrwt>
<rscale>  1 0.64577197E+03</rscale>
<asrwt>0</asrwt>
<pdfrwt beam="1">  1        1 0.39072223E+00 0.64577197E+03</pdfrwt>
<pdfrwt beam="2">0</pdfrwt>
<totfact> 0.14723488E+00</totfact>
</mgrwt>
</event>
<event>
 6    1  0.3354403E-003  0.6616350E+03  0.7818608E-02  0.9785189E-01
          1   -1    0    0  502    0  0.00000000000E+00  0.00000000000E+00  0.11014473689E+03  0.11014473689E+03  0.00000000000E+00 0.  1.
         13   -1    0    0    0    0 -0.00000000000E+00 -0.00000000000E+00 -0.10000000000E+04  0.10000000000E+04  0.00000000000E+00 0.  1.
    9000005    2    1    2  501    0 -0.75521700768E-01  0.61911186794E-01 -0.89055603983E+03  0.11094371886E+04  0.66163494914E+03 0.  0.
         13    1    3    3    0    0 -0.25126405125E+03  0.17720997817E+03 -0.65024743064E+03  0.71927652601E+03  0.00000000000E+00 0.  1.
          3    1    3    3  501    0  0.25118852955E+03 -0.17714806698E+03 -0.24030860919E+03  0.39016066263E+03  0.00000000000E+00 0.  1.
         21    1    1    2  502  501  0.75521700768E-01 -0.61911186794E-01  0.70077671964E+00  0.70754825499E+00  0.00000000000E+00 0. -1.
<mgrwt>
<rscale>  1 0.66163496E+03</rscale>
<asrwt>0</asrwt>
<pdfrwt beam="1">  1        1 0.40052716E+00 0.66163496E+03</pdfrwt>
<pdfrwt beam="2">0</pdfrwt>
<totfact> 0.13277297E+00</totfact>
</mgrwt>
</event>
<event>
 6    1  0.3354403E-003  0.6482440E+03  0.7818608E-02  0.9810080E-01
          1   -1    0    0  502    0  0.00000000000E+00  0.00000000000E+00  0.10505510836E+03  0.10505510836E+03  0.00000000000E+00 0.  1.
         13   -1    0    0    0    0 -0.00000000000E+00 -0.00000000000E+00 -0.10000000000E+04  0.10000000000E+04  0.00000000000E+00 0.  1.
    9000005    2    1    2  501    0  0.13089438285E-03 -0.31465344534E-04 -0.89494471696E+03  0.11050548878E+04  0.64824398084E+03 0.  0.
         13    1    3    3    0    0 -0.79516093552E+02 -0.30872206664E+03 -0.54720676789E+03  0.63329880024E+03  0.00000000000E+00 0.  1.
          1    1    3    3  501    0  0.79516224447E+02  0.30872203517E+03 -0.34773794907E+03  0.47175608759E+03  0.00000000000E+00 0.  1.
         21    1    1    2  502  501 -0.13089438284E-03  0.31465344537E-04 -0.17467895053E-03  0.22053603589E-03  0.00000000000E+00 0.  1.
<mgrwt>
<rscale>  1 0.64824398E+03</rscale>
<asrwt>0</asrwt>
<pdfrwt beam="1">  1        1 0.38201938E+00 0.64824398E+03</pdfrwt>
<pdfrwt beam="2">0</pdfrwt>
<totfact> 0.16081513E+00</totfact>
</mgrwt>
</event>
<event>
 6    1  0.3354403E-003  0.6492347E+03  0.7818608E-02  0.9808216E-01
          1   -1    0    0  502    0  0.00000000000E+00  0.00000000000E+00  0.10599831944E+03  0.10599831944E+03  0.00000000000E+00 0.  1.
         13   -1    0    0    0    0 -0.00000000000E+00 -0.00000000000E+00 -0.10000000000E+04  0.10000000000E+04  0.00000000000E+00 0.  1.
    9000005    2    1    2  501    0  0.10748269268E+00 -0.16745747450E+01 -0.89293408766E+03  0.11040094736E+04  0.64923248314E+03 0.  0.
         13    1    3    3    0    0  0.50072277299E+02 -0.32032157903E+03 -0.39938500606E+03  0.51441377316E+03  0.00000000000E+00 0.  1.
          3    1    3    3  501    0 -0.49964794607E+02  0.31864700429E+03 -0.49354908161E+03  0.58959570046E+03  0.00000000000E+00 0.  1.
         21    1    1    2  502  501 -0.10748269268E+00  0.16745747450E+01 -0.10675928998E+01  0.19888458225E+01  0.00000000000E+00 0.  1.
<mgrwt>
<rscale>  1 0.64923465E+03</rscale>
<asrwt>0</asrwt>
<pdfrwt beam="1">  1        1 0.38544925E+00 0.64923465E+03</pdfrwt>
<pdfrwt beam="2">0</pdfrwt>
<totfact> 0.15526960E+00</totfact>
</mgrwt>
</event>
<event>
 6    1  0.3354403E-003  0.6145837E+03  0.7818608E-02  0.9875603E-01
          1   -1    0    0  502    0  0.00000000000E+00  0.00000000000E+00  0.94428794754E+02  0.94428794754E+02  0.00000000000E+00 0.  1.
         13   -1    0    0    0    0 -0.00000000000E+00 -0.00000000000E+00 -0.10000000000E+04  0.10000000000E+04  0.00000000000E+00 0.  1.
    9000005    2    1    2  501    0 -0.80414019010E-04  0.61335543584E-04 -0.90557170824E+03  0.10944282817E+04  0.61458371684E+03 0.  0.
         13    1    3    3    0    0  0.97552684948E+02 -0.47606676210E+01 -0.97162432994E+03  0.97652087987E+03  0.00000000000E+00 0.  1.
          1    1    3    3  501    0 -0.97552765362E+02  0.47607289565E+01  0.66052621702E+02  0.11790740182E+03  0.00000000000E+00 0.  1.
         21    1    1    2  502  501  0.80414019005E-04 -0.61335543584E-04  0.50299347913E-03  0.51306033115E-03  0.00000000000E+00 0.  1.
<mgrwt>
<rscale>  1 0.61458372E+03</rscale>
<asrwt>0</asrwt>
<pdfrwt beam="1">  1        1 0.34337816E+00 0.61458372E+03</pdfrwt>
<pdfrwt beam="2">0</pdfrwt>
<totfact> 0.23889290E+00</totfact>
</mgrwt>
</event>
<event>
 6    1  0.3354403E-003  0.6366196E+03  0.7818608E-02  0.9832216E-01
          1   -1    0    0  502    0  0.00000000000E+00  0.00000000000E+00  0.10132132465E+03  0.10132132465E+03  0.00000000000E+00 0.  1.
         13   -1    0    0    0    0 -0.00000000000E+00 -0.00000000000E+00 -0.10000000000E+04  0.10000000000E+04  0.00000000000E+00 0.  1.
    9000005    2    1    2  501    0  0.36510478083E-04  0.47588989503E-04 -0.89867887530E+03  0.11013211159E+04  0.63661957195E+03 0.  0.
         13    1    3    3    0    0 -0.72817621615E+02  0.22336491550E+03 -0.77794974535E+02  0.24747999830E+03  0.00000000000E+00 0.  1.
          1    1    3    3  501    0  0.72817658126E+02 -0.22336486791E+03 -0.82088390077E+03  0.85384111759E+03  0.00000000000E+00 0.  1.
         21    1    1    2  502  501 -0.36510478085E-04 -0.47588989491E-04  0.19995386501E-03  0.20875649706E-03  0.00000000000E+00 0.  1.
<mgrwt>
<rscale>  1 0.63661957E+03</rscale>
<asrwt>0</asrwt>
<pdfrwt beam="1">  1        1 0.36844196E+00 0.63661957E+03</pdfrwt>
<pdfrwt beam="2">0</pdfrwt>
<totfact> 0.18493722E+00</totfact>
</mgrwt>
</event>
<event>
 6    1  0.3354403E-003  0.6457096E+03  0.7818608E-02  0.9814863E-01
          1   -1    0    0  502    0  0.00000000000E+00  0.00000000000E+00  0.10423521462E+03  0.10423521462E+03  0.00000000000E+00 0.  1.
         13   -1    0    0    0    0 -0.00000000000E+00 -0.00000000000E+00 -0.10000000000E+04  0.10000000000E+04  0.00000000000E+00 0.  1.
    9000005    2    1    2  501    0  0.17682585849E-05 -0.20888362258E-05 -0.89576478583E+03  0.11042352118E+04  0.64570957214E+03 0.  0.
         13    1    3    3    0    0  0.30034845217E+03 -0.11041011192E+03 -0.52115079620E+03  0.61155354460E+03  0.00000000000E+00 0.  1.
          1    1    3    3  501    0 -0.30034845040E+03  0.11041010983E+03 -0.37461398963E+03  0.49268166725E+03  0.00000000000E+00 0.  1.
         21    1    1    2  502  501 -0.17682586142E-05  0.20888362184E-05  0.45012713158E-06  0.27735518219E-05  0.00000000000E+00 0. -1.
<mgrwt>
<rscale>  1 0.64570957E+03</rscale>
<asrwt>0</asrwt>
<pdfrwt beam="1">  1        1 0.37903794E+00 0.64570957E+03</pdfrwt>
<pdfrwt beam="2">0</pdfrwt>
<totfact> 0.16583934E+00</totfact>
</mgrwt>
</event>
<event>
 6    1  0.3354403E-003  0.6492647E+03  0.7818608E-02  0.9808160E-01
          1   -1    0    0  502    0  0.00000000000E+00  0.00000000000E+00  0.10538651239E+03  0.10538651239E+03  0.00000000000E+00 0.  1.
         13   -1    0    0    0    0 -0.00000000000E+00 -0.00000000000E+00 -0.10000000000E+04  0.10000000000E+04  0.00000000000E+00 0.  1.
    9000005    2    1    2  501    0 -0.28360823502E-03  0.92670505273E-03 -0.89461135163E+03  0.11053841668E+04  0.64926472708E+03 0.  0.
         13    1    3    3    0    0  0.21509252241E+02 -0.32386652478E+03 -0.43742288363E+03  0.54469344858E+03  0.00000000000E+00 0.  1.
          1    1    3    3  501    0 -0.21509535849E+02  0.32386745148E+03 -0.45718846801E+03  0.56069071826E+03  0.00000000000E+00 0.  1.
         21    1    1    2  502  501  0.28360823502E-03 -0.92670505277E-03 -0.21359789013E-02  0.23455536132E-02  0.00000000000E+00 0. -1.
<mgrwt>
<rscale>  1 0.64926473E+03</rscale>
<asrwt>0</asrwt>
<pdfrwt beam="1">  1        1 0.38322449E+00 0.64926473E+03</pdfrwt>
<pdfrwt beam="2">0</pdfrwt>
<totfact> 0.15882582E+00</totfact>
</mgrwt>
</event>
<event>
 6    1  0.3354403E-003  0.6543454E+03  0.7818608E-02  0.9798659E-01
          1   -1    0    0  502    0  0.00000000000E+00  0.00000000000E+00  0.10704209261E+03  0.10704209261E+03  0.00000000000E+00 0.  1.
         13   -1    0    0    0    0 -0.00000000000E+00 -0.00000000000E+00 -0.10000000000E+04  0.10000000000E+04  0.00000000000E+00 0.  1.
    9000005    2    1    2  501    0  0.46600907005E-04  0.23951683261E-04 -0.89295803120E+03  0.11070419582E+04  0.65434536114E+03 0.  0.
         13    1    3    3    0    0 -0.45180344910E+02  0.32383761838E+03 -0.46576159383E+03  0.56907462510E+03  0.00000000000E+00 0.  1.
          1    1    3    3  501    0  0.45180391511E+02 -0.32383759443E+03 -0.42719643737E+03  0.53796733306E+03  0.00000000000E+00 0.  1.
         21    1    1    2  502  501 -0.46600907010E-04 -0.23951683291E-04  0.12381824892E-03  0.13444808080E-03  0.00000000000E+00 0. -1.
<mgrwt>
<rscale>  1 0.65434536E+03</rscale>
<asrwt>0</asrwt>
<pdfrwt beam="1">  1        1 0.38924479E+00 0.65434536E+03</pdfrwt>
<pdfrwt beam="2">0</pdfrwt>
<totfact> 0.14923369E+00</totfact>
</mgrwt>
</event>
<event>
 6    1  0.3354403E-003  0.6508839E+03  0.7818608E-02  0.9805122E-01
          1   -1    0    0  502    0  0.00000000000E+00  0.00000000000E+00  0.10591245258E+03  0.10591245258E+03  0.00000000000E+00 0.  1.
         13   -1    0    0    0    0 -0.00000000000E+00 -0.00000000000E+00 -0.10000000000E+04  0.10000000000E+04  0.00000000000E+00 0.  1.
    9000005    2    1    2  501    0 -0.25616176202E-05 -0.27757014891E-05 -0.89408754745E+03  0.11059124488E+04  0.65088386209E+03 0.  0.
         13    1    3    3    0    0 -0.43204006225E+02 -0.76056414988E+02  0.85565182394E+02  0.12236243236E+03  0.00000000000E+00 0.  1.
          1    1    3    3  501    0  0.43204003664E+02  0.76056412212E+02 -0.97965272984E+03  0.98355001645E+03  0.00000000000E+00 0.  1.
         21    1    1    2  502  501  0.25616176232E-05  0.27757014944E-05  0.28954379381E-07  0.37772002845E-05  0.00000000000E+00 0. -1.
<mgrwt>
<rscale>  1 0.65088386E+03</rscale>
<asrwt>0</asrwt>
<pdfrwt beam="1">  1        1 0.38513700E+00 0.65088386E+03</pdfrwt>
<pdfrwt beam="2">0</pdfrwt>
<totfact> 0.15571675E+00</totfact>
</mgrwt>
</event>
<event>
 6    1  0.3354403E-003  0.6476868E+03  0.7818608E-02  0.9811129E-01
          1   -1    0    0  502    0  0.00000000000E+00  0.00000000000E+00  0.10493825442E+03  0.10493825442E+03  0.00000000000E+00 0.  1.
         13   -1    0    0    0    0 -0.00000000000E+00 -0.00000000000E+00 -0.10000000000E+04  0.10000000000E+04  0.00000000000E+00 0.  1.
    9000005    2    1    2  501    0  0.44208035742E-01 -0.28235778976E-01 -0.89511330895E+03  0.11048646991E+04  0.64768677970E+03 0.  0.
         13    1    3    3    0    0  0.11316062030E+03  0.69578505357E+02 -0.95138811691E+03  0.96061742821E+03  0.00000000000E+00 0.  1.
          1    1    3    3  501    0 -0.11311641227E+03 -0.69606741136E+02  0.56274807951E+02  0.14424727084E+03  0.00000000000E+00 0.  1.
         21    1    1    2  502  501 -0.44208035742E-01  0.28235778976E-01  0.51563369732E-01  0.73555358314E-01  0.00000000000E+00 0.  1.
<mgrwt>
<rscale>  1 0.64768678E+03</rscale>
<asrwt>0</asrwt>
<pdfrwt beam="1">  1        1 0.38159446E+00 0.64768678E+03</pdfrwt>
<pdfrwt beam="2">0</pdfrwt>
<totfact> 0.16152806E+00</totfact>
</mgrwt>
</event>
<event>
 6    1  0.3354403E-003  0.6405551E+03  0.7818608E-02  0.9824665E-01
          1   -1    0    0  502    0  0.00000000000E+00  0.00000000000E+00  0.13783560226E+03  0.13783560226E+03  0.00000000000E+00 0.  1.
         13   -1    0    0    0    0 -0.00000000000E+00 -0.00000000000E+00 -0.10000000000E+04  0.10000000000E+04  0.00000000000E+00 0.  1.
    9000005    2    1    2  501    0 -0.12804828586E+02  0.30475760778E+01 -0.89606278545E+03  0.11014714435E+04  0.64041984194E+03 0.  0.
         13    1    3    3    0    0  0.29945950001E+03  0.84340691394E+02 -0.51989110080E+03  0.60586805582E+03  0.00000000000E+00 0.  1.
          1    1    3    3  501    0 -0.31226432860E+03 -0.81293115316E+02 -0.37617168465E+03  0.49560338765E+03  0.00000000000E+00 0.  1.
         21    1    1    2  502  501  0.12804828586E+02 -0.30475760778E+01  0.33898387714E+02  0.36364158792E+02  0.00000000000E+00 0. -1.
<mgrwt>
<rscale>  1 0.64055509E+03</rscale>
<asrwt>0</asrwt>
<pdfrwt beam="1">  1        1 0.50122143E+00 0.64055509E+03</pdfrwt>
<pdfrwt beam="2">0</pdfrwt>
<totfact> 0.45713958E-01</totfact>
</mgrwt>
</event>
