<event>
 6    1  0.6377696E-002  0.3000000E+03  0.7818608E-02  0.1093470E+00
         21   -1    0    0  501  502  0.00000000000E+00  0.00000000000E+00  0.11398572150E+01  0.11398572150E+01  0.00000000000E+00 0. -1.
         13   -1    0    0    0    0 -0.00000000000E+00 -0.00000000000E+00 -0.10000000000E+04  0.10000000000E+04  0.00000000000E+00 0.  1.
    9000005    2    1    2  501    0 -0.31542559786E+02 -0.10883015249E+02 -0.56862797847E+03  0.56961571153E+03  0.33026993873E+01 0.  0.
         13    1    3    3    0    0 -0.24391610847E+02 -0.73406163924E+01 -0.44883113015E+03  0.44955335470E+03  0.00000000000E+00 0.  1.
          1    1    3    3  501    0 -0.71509489394E+01 -0.35423988567E+01 -0.11979684832E+03  0.12006235683E+03  0.00000000000E+00 0.  1.
         -3    1    1    2    0  502  0.31542559786E+02  0.10883015249E+02 -0.43023216432E+03  0.43152414569E+03  0.00000000000E+00 0. -1.
<mgrwt>
<rscale>  1 0.30000000E+03</rscale>
<asrwt>0</asrwt>
<pdfrwt beam="1">  1       21 0.41449441E-02 0.30000000E+03</pdfrwt>
<pdfrwt beam="2">0</pdfrwt>
<totfact> 0.39598692E+04</totfact>
</mgrwt>
</event>
<event>
 6    1  0.6377696E-002  0.3000000E+03  0.7818608E-02  0.1093470E+00
         21   -1    0    0  501  502  0.00000000000E+00  0.00000000000E+00  0.96947885014E+00  0.96947885014E+00  0.00000000000E+00 0. -1.
         13   -1    0    0    0    0 -0.00000000000E+00 -0.00000000000E+00 -0.10000000000E+04  0.10000000000E+04  0.00000000000E+00 0.  1.
    9000005    2    1    2  501    0  0.17891098753E+02 -0.24746338438E+02 -0.45693401622E+03  0.45801359359E+03  0.74353247620E+01 0.  0.
         13    1    3    3    0    0  0.27960721643E+01 -0.46239981896E+00 -0.39994044659E+02  0.40094331786E+02  0.00000000000E+00 0.  1.
          1    1    3    3  501    0  0.15095026588E+02 -0.24283938619E+02 -0.41693997156E+03  0.41791926180E+03  0.00000000000E+00 0.  1.
         -1    1    1    2    0  502 -0.17891098753E+02  0.24746338438E+02 -0.54209650493E+03  0.54295588526E+03  0.00000000000E+00 0. -1.
<mgrwt>
<rscale>  1 0.30000000E+03</rscale>
<asrwt>0</asrwt>
<pdfrwt beam="1">  1       21 0.35253851E-02 0.30000000E+03</pdfrwt>
<pdfrwt beam="2">0</pdfrwt>
<totfact> 0.51983767E+04</totfact>
</mgrwt>
</event>
<event>
 6    1  0.6377696E-002  0.3000000E+03  0.7818608E-02  0.1093470E+00
         21   -1    0    0  501  502  0.00000000000E+00  0.00000000000E+00  0.10168319188E+01  0.10168319188E+01  0.00000000000E+00 0. -1.
         13   -1    0    0    0    0 -0.00000000000E+00 -0.00000000000E+00 -0.10000000000E+04  0.10000000000E+04  0.00000000000E+00 0.  1.
    9000005    2    1    2  501    0  0.26157763645E+02  0.17951803607E+02 -0.46714025898E+03  0.46822852892E+03  0.33819938710E+01 0.  0.
         13    1    3    3    0    0  0.23842489967E+02  0.16772793005E+02 -0.41420228993E+03  0.41522683908E+03  0.00000000000E+00 0.  1.
          1    1    3    3  501    0  0.23152736779E+01  0.11790106024E+01 -0.52937969051E+02  0.53001689836E+02  0.00000000000E+00 0.  1.
         -1    1    1    2    0  502 -0.26157763645E+02 -0.17951803607E+02 -0.53184290910E+03  0.53278830300E+03  0.00000000000E+00 0. -1.
<mgrwt>
<rscale>  1 0.30000000E+03</rscale>
<asrwt>0</asrwt>
<pdfrwt beam="1">  1       21 0.36975784E-02 0.30000000E+03</pdfrwt>
<pdfrwt beam="2">0</pdfrwt>
<totfact> 0.47988142E+04</totfact>
</mgrwt>
</event>
<event>
 6    1  0.6377696E-002  0.3000000E+03  0.7818608E-02  0.1093470E+00
         21   -1    0    0  501  502  0.00000000000E+00  0.00000000000E+00  0.15616626216E+01  0.15616626216E+01  0.00000000000E+00 0. -1.
         13   -1    0    0    0    0 -0.00000000000E+00 -0.00000000000E+00 -0.10000000000E+04  0.10000000000E+04  0.00000000000E+00 0.  1.
    9000005    2    1    2  501    0  0.25467757386E+02  0.30097382452E+02 -0.48570176950E+03  0.48731148311E+03  0.34370875154E+01 0.  0.
         13    1    3    3    0    0  0.23213275572E+02  0.25792063923E+02 -0.43047980875E+03  0.43187608462E+03  0.00000000000E+00 0.  1.
          3    1    3    3  501    0  0.22544818138E+01  0.43053185288E+01 -0.55221960753E+02  0.55435398486E+02  0.00000000000E+00 0.  1.
         -1    1    1    2    0  502 -0.25467757386E+02 -0.30097382452E+02 -0.51273656787E+03  0.51425017952E+03  0.00000000000E+00 0. -1.
<mgrwt>
<rscale>  1 0.30000000E+03</rscale>
<asrwt>0</asrwt>
<pdfrwt beam="1">  1       21 0.56787851E-02 0.30000000E+03</pdfrwt>
<pdfrwt beam="2">0</pdfrwt>
<totfact> 0.23166301E+04</totfact>
</mgrwt>
</event>
<event>
 6    1  0.6377696E-002  0.3000000E+03  0.7818608E-02  0.1093470E+00
         21   -1    0    0  501  502  0.00000000000E+00  0.00000000000E+00  0.10994191854E+01  0.10994191854E+01  0.00000000000E+00 0. -1.
         13   -1    0    0    0    0 -0.00000000000E+00 -0.00000000000E+00 -0.10000000000E+04  0.10000000000E+04  0.00000000000E+00 0.  1.
    9000005    2    1    2  501    0  0.31730797183E+02 -0.36669378024E+01 -0.62996921623E+03  0.63078787238E+03  0.34404392533E+01 0.  0.
         13    1    3    3    0    0  0.26623832415E+02 -0.33273273760E+01 -0.55109375853E+03  0.55174652718E+03  0.00000000000E+00 0.  1.
          3    1    3    3  501    0  0.51069647673E+01 -0.33961042639E+00 -0.78875457697E+02  0.79041345201E+02  0.00000000000E+00 0.  1.
         -3    1    1    2    0  502 -0.31730797183E+02  0.36669378024E+01 -0.36893136459E+03  0.37031154681E+03  0.00000000000E+00 0. -1.
<mgrwt>
<rscale>  1 0.30000000E+03</rscale>
<asrwt>0</asrwt>
<pdfrwt beam="1">  1       21 0.39978964E-02 0.30000000E+03</pdfrwt>
<pdfrwt beam="2">0</pdfrwt>
<totfact> 0.42084588E+04</totfact>
</mgrwt>
</event>
<event>
 6    1  0.6377696E-002  0.3000000E+03  0.7818608E-02  0.1093470E+00
         21   -1    0    0  501  502  0.00000000000E+00  0.00000000000E+00  0.93554960101E+00  0.93554960101E+00  0.00000000000E+00 0. -1.
         13   -1    0    0    0    0 -0.00000000000E+00 -0.00000000000E+00 -0.10000000000E+04  0.10000000000E+04  0.00000000000E+00 0.  1.
    9000005    2    1    2  501    0  0.22373591467E+02 -0.20597211426E+02 -0.53752388402E+03  0.53839418159E+03  0.33979637823E+01 0.  0.
         13    1    3    3    0    0  0.53934865602E+01 -0.45680931681E+01 -0.10181917537E+03  0.10206420355E+03  0.00000000000E+00 0.  1.
          1    1    3    3  501    0  0.16980104907E+02 -0.16029118258E+02 -0.43570470865E+03  0.43632997804E+03  0.00000000000E+00 0.  1.
         -1    1    1    2    0  502 -0.22373591467E+02  0.20597211426E+02 -0.46154056638E+03  0.46254136802E+03  0.00000000000E+00 0. -1.
<mgrwt>
<rscale>  1 0.30000000E+03</rscale>
<asrwt>0</asrwt>
<pdfrwt beam="1">  1       21 0.34020057E-02 0.30000000E+03</pdfrwt>
<pdfrwt beam="2">0</pdfrwt>
<totfact> 0.55176615E+04</totfact>
</mgrwt>
</event>
<event>
 6    1  0.6377696E-002  0.3000000E+03  0.7818608E-02  0.1093470E+00
         21   -1    0    0  501  502  0.00000000000E+00  0.00000000000E+00  0.36098833375E+01  0.36098833375E+01  0.00000000000E+00 0. -1.
         13   -1    0    0    0    0 -0.00000000000E+00 -0.00000000000E+00 -0.10000000000E+04  0.10000000000E+04  0.00000000000E+00 0.  1.
    9000005    2    1    2  501    0  0.33864505294E+02  0.49486624879E+02 -0.51692381803E+03  0.52040841161E+03  0.43532127548E+01 0.  0.
         13    1    3    3    0    0  0.48068376107E+01  0.92158187625E+01 -0.80454591775E+02  0.81123229355E+02  0.00000000000E+00 0.  1.
          1    1    3    3  501    0  0.29057667683E+02  0.40270806116E+02 -0.43646922626E+03  0.43928518225E+03  0.00000000000E+00 0.  1.
         -1    1    1    2    0  502 -0.33864505294E+02 -0.49486624879E+02 -0.47946629863E+03  0.48320147173E+03  0.00000000000E+00 0. -1.
<mgrwt>
<rscale>  1 0.30000000E+03</rscale>
<asrwt>0</asrwt>
<pdfrwt beam="1">  1       21 0.13126876E-01 0.30000000E+03</pdfrwt>
<pdfrwt beam="2">0</pdfrwt>
<totfact> 0.52623245E+03</totfact>
</mgrwt>
</event>
<event>
 6    1  0.6377696E-002  0.3000000E+03  0.7818608E-02  0.1093470E+00
         21   -1    0    0  501  502  0.00000000000E+00  0.00000000000E+00  0.26224191537E+01  0.26224191537E+01  0.00000000000E+00 0. -1.
         13   -1    0    0    0    0 -0.00000000000E+00 -0.00000000000E+00 -0.10000000000E+04  0.10000000000E+04  0.00000000000E+00 0.  1.
    9000005    2    1    2  501    0  0.55105992486E+00 -0.43417742543E+02 -0.23530070935E+03  0.23930953304E+03  0.41502710164E+01 0.  0.
         13    1    3    3    0    0  0.79079840464E+00 -0.27248971603E+01 -0.11971117324E+02  0.12302767032E+02  0.00000000000E+00 0.  1.
          1    1    3    3  501    0 -0.23973847979E+00 -0.40692845383E+02 -0.22332959202E+03  0.22700676601E+03  0.00000000000E+00 0.  1.
         -1    1    1    2    0  502 -0.55105992486E+00  0.43417742543E+02 -0.76207687150E+03  0.76331288612E+03  0.00000000000E+00 0. -1.
<mgrwt>
<rscale>  1 0.30000000E+03</rscale>
<asrwt>0</asrwt>
<pdfrwt beam="1">  1       21 0.95360898E-02 0.30000000E+03</pdfrwt>
<pdfrwt beam="2">0</pdfrwt>
<totfact> 0.93642462E+03</totfact>
</mgrwt>
</event>
<event>
 6    1  0.6377696E-002  0.3000000E+03  0.7818608E-02  0.1093470E+00
         21   -1    0    0  501  502  0.00000000000E+00  0.00000000000E+00  0.75253753004E+01  0.75253753004E+01  0.00000000000E+00 0. -1.
         13   -1    0    0    0    0 -0.00000000000E+00 -0.00000000000E+00 -0.10000000000E+04  0.10000000000E+04  0.00000000000E+00 0.  1.
    9000005    2    1    2  501    0  0.18920146632E+02 -0.45082019215E+02 -0.80306378222E+02  0.94047805632E+02  0.23483943449E+01 0.  0.
         13    1    3    3    0    0  0.33343525717E+01 -0.98898896745E+01 -0.18302299312E+02  0.21068981583E+02  0.00000000000E+00 0.  1.
          3    1    3    3  501    0  0.15585794060E+02 -0.35192129541E+02 -0.62004078910E+02  0.72978824049E+02  0.00000000000E+00 0.  1.
         -3    1    1    2    0  502 -0.18920146632E+02  0.45082019215E+02 -0.91216824648E+03  0.91347756967E+03  0.00000000000E+00 0. -1.
<mgrwt>
<rscale>  1 0.30000000E+03</rscale>
<asrwt>0</asrwt>
<pdfrwt beam="1">  1       21 0.27365059E-01 0.30000000E+03</pdfrwt>
<pdfrwt beam="2">0</pdfrwt>
<totfact> 0.13053650E+03</totfact>
</mgrwt>
</event>
<event>
 6    1  0.6377696E-002  0.3000000E+03  0.7818608E-02  0.1093470E+00
         21   -1    0    0  501  502  0.00000000000E+00  0.00000000000E+00  0.11214289784E+01  0.11214289784E+01  0.00000000000E+00 0. -1.
         13   -1    0    0    0    0 -0.00000000000E+00 -0.00000000000E+00 -0.10000000000E+04  0.10000000000E+04  0.00000000000E+00 0.  1.
    9000005    2    1    2  501    0  0.32027419045E+02 -0.44861855172E+01 -0.37532811921E+03  0.37673289018E+03  0.32545415487E+01 0.  0.
         13    1    3    3    0    0  0.20959989608E+01 -0.61923672112E+00 -0.17916128221E+02  0.18048942245E+02  0.00000000000E+00 0.  1.
          1    1    3    3  501    0  0.29931420085E+02 -0.38669487960E+01 -0.35741199099E+03  0.35868394793E+03  0.00000000000E+00 0.  1.
         -3    1    1    2    0  502 -0.32027419045E+02  0.44861855172E+01 -0.62355045181E+03  0.62438853880E+03  0.00000000000E+00 0. -1.
<mgrwt>
<rscale>  1 0.30000000E+03</rscale>
<asrwt>0</asrwt>
<pdfrwt beam="1">  1       21 0.40779322E-02 0.30000000E+03</pdfrwt>
<pdfrwt beam="2">0</pdfrwt>
<totfact> 0.40702314E+04</totfact>
</mgrwt>
</event>
<event>
 6    1  0.6377696E-002  0.3000000E+03  0.7818608E-02  0.1093470E+00
         21   -1    0    0  501  502  0.00000000000E+00  0.00000000000E+00  0.18087320328E+01  0.18087320328E+01  0.00000000000E+00 0. -1.
         13   -1    0    0    0    0 -0.00000000000E+00 -0.00000000000E+00 -0.10000000000E+04  0.10000000000E+04  0.00000000000E+00 0.  1.
    9000005    2    1    2  501    0 -0.26376634717E+02 -0.32853124614E+02 -0.56303461300E+03  0.56461727624E+03  0.31045993006E+01 0.  0.
         13    1    3    3    0    0 -0.71429704517E+01 -0.99326174257E+01 -0.18063235294E+03  0.18104619810E+03  0.00000000000E+00 0.  1.
          1    1    3    3  501    0 -0.19233664265E+02 -0.22920507188E+02 -0.38240226006E+03  0.38357107814E+03  0.00000000000E+00 0.  1.
         -3    1    1    2    0  502  0.26376634717E+02  0.32853124614E+02 -0.43515665497E+03  0.43719145579E+03  0.00000000000E+00 0. -1.
<mgrwt>
<rscale>  1 0.30000000E+03</rscale>
<asrwt>0</asrwt>
<pdfrwt beam="1">  1       21 0.65772213E-02 0.30000000E+03</pdfrwt>
<pdfrwt beam="2">0</pdfrwt>
<totfact> 0.17978502E+04</totfact>
</mgrwt>
</event>
<event>
 6    1  0.6377696E-002  0.3000000E+03  0.7818608E-02  0.1093470E+00
         21   -1    0    0  501  502  0.00000000000E+00  0.00000000000E+00  0.13166947617E+01  0.13166947617E+01  0.00000000000E+00 0. -1.
         13   -1    0    0    0    0 -0.00000000000E+00 -0.00000000000E+00 -0.10000000000E+04  0.10000000000E+04  0.00000000000E+00 0.  1.
    9000005    2    1    2  501    0  0.33410057214E+02  0.13107217003E+02 -0.56588457588E+03  0.56703248921E+03  0.35298068165E+01 0.  0.
         13    1    3    3    0    0  0.18302438118E+02  0.88158512071E+01 -0.33264246524E+03  0.33326222131E+03  0.00000000000E+00 0.  1.
          1    1    3    3  501    0  0.15107619096E+02  0.42913657959E+01 -0.23324211064E+03  0.23377026789E+03  0.00000000000E+00 0.  1.
         -3    1    1    2    0  502 -0.33410057214E+02 -0.13107217003E+02 -0.43279872936E+03  0.43428420556E+03  0.00000000000E+00 0. -1.
<mgrwt>
<rscale>  1 0.30000000E+03</rscale>
<asrwt>0</asrwt>
<pdfrwt beam="1">  1       21 0.47879910E-02 0.30000000E+03</pdfrwt>
<pdfrwt beam="2">0</pdfrwt>
<totfact> 0.31010436E+04</totfact>
</mgrwt>
</event>
<event>
 6    1  0.6377696E-002  0.3000000E+03  0.7818608E-02  0.1093470E+00
         21   -1    0    0  501  502  0.00000000000E+00  0.00000000000E+00  0.98092190400E+00  0.98092190400E+00  0.00000000000E+00 0. -1.
         13   -1    0    0    0    0 -0.00000000000E+00 -0.00000000000E+00 -0.10000000000E+04  0.10000000000E+04  0.00000000000E+00 0.  1.
    9000005    2    1    2  501    0 -0.25836462485E+01 -0.30762015139E+02 -0.57594596595E+03  0.57678304942E+03  0.34573971324E+01 0.  0.
         13    1    3    3    0    0 -0.24221619396E+01 -0.13533455119E+02 -0.23454369466E+03  0.23494630447E+03  0.00000000000E+00 0.  1.
          3    1    3    3  501    0 -0.16148430889E+00 -0.17228560020E+02 -0.34140227129E+03  0.34183674495E+03  0.00000000000E+00 0.  1.
         -1    1    1    2    0  502  0.25836462485E+01  0.30762015139E+02 -0.42307311214E+03  0.42419787249E+03  0.00000000000E+00 0. -1.
<mgrwt>
<rscale>  1 0.30000000E+03</rscale>
<asrwt>0</asrwt>
<pdfrwt beam="1">  1       21 0.35669963E-02 0.30000000E+03</pdfrwt>
<pdfrwt beam="2">0</pdfrwt>
<totfact> 0.50971395E+04</totfact>
</mgrwt>
</event>
<event>
 6    1  0.6377696E-002  0.3000000E+03  0.7818608E-02  0.1093470E+00
         21   -1    0    0  501  502  0.00000000000E+00  0.00000000000E+00  0.19232269234E+01  0.19232269234E+01  0.00000000000E+00 0. -1.
         13   -1    0    0    0    0 -0.00000000000E+00 -0.00000000000E+00 -0.10000000000E+04  0.10000000000E+04  0.00000000000E+00 0.  1.
    9000005    2    1    2  501    0  0.10934658417E+02  0.42436464331E+02 -0.50458300441E+03  0.50648753991E+03  0.22802366345E+01 0.  0.
         13    1    3    3    0    0  0.22771391212E+01  0.58687731904E+01 -0.75909762224E+02  0.76170334529E+02  0.00000000000E+00 0.  1.
          3    1    3    3  501    0  0.86575192954E+01  0.36567691140E+02 -0.42867324219E+03  0.43031720538E+03  0.00000000000E+00 0.  1.
         -3    1    1    2    0  502 -0.10934658417E+02 -0.42436464331E+02 -0.49349376866E+03  0.49543568702E+03  0.00000000000E+00 0. -1.
<mgrwt>
<rscale>  1 0.30000000E+03</rscale>
<asrwt>0</asrwt>
<pdfrwt beam="1">  1       21 0.69935672E-02 0.30000000E+03</pdfrwt>
<pdfrwt beam="2">0</pdfrwt>
<totfact> 0.16161124E+04</totfact>
</mgrwt>
</event>
<event>
 6    1  0.6377696E-002  0.3000000E+03  0.7818608E-02  0.1093470E+00
         21   -1    0    0  501  502  0.00000000000E+00  0.00000000000E+00  0.11233015845E+01  0.11233015845E+01  0.00000000000E+00 0. -1.
         13   -1    0    0    0    0 -0.00000000000E+00 -0.00000000000E+00 -0.10000000000E+04  0.10000000000E+04  0.00000000000E+00 0.  1.
    9000005    2    1    2  501    0  0.20241521119E+02  0.26616889892E+02 -0.50637646176E+03  0.50748916468E+03  0.31548764860E+01 0.  0.
         13    1    3    3    0    0  0.34578351661E+01  0.61692591692E+01 -0.11991732687E+03  0.12012569111E+03  0.00000000000E+00 0.  1.
          3    1    3    3  501    0  0.16783685953E+02  0.20447630722E+02 -0.38645913489E+03  0.38736347357E+03  0.00000000000E+00 0.  1.
         -3    1    1    2    0  502 -0.20241521119E+02 -0.26616889892E+02 -0.49250023666E+03  0.49363413690E+03  0.00000000000E+00 0. -1.
<mgrwt>
<rscale>  1 0.30000000E+03</rscale>
<asrwt>0</asrwt>
<pdfrwt beam="1">  1       21 0.40847416E-02 0.30000000E+03</pdfrwt>
<pdfrwt beam="2">0</pdfrwt>
<totfact> 0.40587992E+04</totfact>
</mgrwt>
</event>
<event>
 6    1  0.6377696E-002  0.3000000E+03  0.7818608E-02  0.1093470E+00
         21   -1    0    0  501  502  0.00000000000E+00  0.00000000000E+00  0.16758281533E+01  0.16758281533E+01  0.00000000000E+00 0. -1.
         13   -1    0    0    0    0 -0.00000000000E+00 -0.00000000000E+00 -0.10000000000E+04  0.10000000000E+04  0.00000000000E+00 0.  1.
    9000005    2    1    2  501    0  0.16398291538E+02  0.32062357591E+02 -0.73675666752E+03  0.73764087203E+03  0.26019612200E+01 0.  0.
         13    1    3    3    0    0  0.43498915279E+01  0.89081323166E+01 -0.22709754502E+03  0.22731381685E+03  0.00000000000E+00 0.  1.
          1    1    3    3  501    0  0.12048400010E+02  0.23154225274E+02 -0.50965912251E+03  0.51032705518E+03  0.00000000000E+00 0.  1.
         -3    1    1    2    0  502 -0.16398291538E+02 -0.32062357591E+02 -0.26156750432E+03  0.26403495613E+03  0.00000000000E+00 0. -1.
<mgrwt>
<rscale>  1 0.30000000E+03</rscale>
<asrwt>0</asrwt>
<pdfrwt beam="1">  1       21 0.60939334E-02 0.30000000E+03</pdfrwt>
<pdfrwt beam="2">0</pdfrwt>
<totfact> 0.20514454E+04</totfact>
</mgrwt>
</event>
<event>
 6    1  0.6377696E-002  0.3000000E+03  0.7818608E-02  0.1093470E+00
         21   -1    0    0  501  502  0.00000000000E+00  0.00000000000E+00  0.15069030958E+01  0.15069030958E+01  0.00000000000E+00 0. -1.
         13   -1    0    0    0    0 -0.00000000000E+00 -0.00000000000E+00 -0.10000000000E+04  0.10000000000E+04  0.00000000000E+00 0.  1.
    9000005    2    1    2  501    0  0.19211166834E+02 -0.33637767997E+02 -0.51103670670E+03  0.51251375312E+03  0.33560663295E+01 0.  0.
         13    1    3    3    0    0  0.12115599251E+02 -0.18016166117E+02 -0.27868351092E+03  0.27952794001E+03  0.00000000000E+00 0.  1.
          1    1    3    3  501    0  0.70955675830E+01 -0.15621601880E+02 -0.23235319578E+03  0.23298581311E+03  0.00000000000E+00 0.  1.
         -1    1    1    2    0  502 -0.19211166834E+02  0.33637767997E+02 -0.48745639021E+03  0.48899314997E+03  0.00000000000E+00 0. -1.
<mgrwt>
<rscale>  1 0.30000000E+03</rscale>
<asrwt>0</asrwt>
<pdfrwt beam="1">  1       21 0.54796592E-02 0.30000000E+03</pdfrwt>
<pdfrwt beam="2">0</pdfrwt>
<totfact> 0.24630112E+04</totfact>
</mgrwt>
</event>
<event>
 6    1  0.6377696E-002  0.3000000E+03  0.7818608E-02  0.1093470E+00
         21   -1    0    0  501  502  0.00000000000E+00  0.00000000000E+00  0.42609762809E+01  0.42609762809E+01  0.00000000000E+00 0. -1.
         13   -1    0    0    0    0 -0.00000000000E+00 -0.00000000000E+00 -0.10000000000E+04  0.10000000000E+04  0.00000000000E+00 0.  1.
    9000005    2    1    2  501    0  0.44830918372E+02 -0.44657414926E+02 -0.37646195732E+03  0.38175942535E+03  0.35436676555E+01 0.  0.
         13    1    3    3    0    0  0.26808941540E+02 -0.28856024297E+02 -0.22922652950E+03  0.23258587943E+03  0.00000000000E+00 0.  1.
          3    1    3    3  501    0  0.18021976833E+02 -0.15801390628E+02 -0.14723542782E+03  0.14917354592E+03  0.00000000000E+00 0.  1.
         -3    1    1    2    0  502 -0.44830918372E+02  0.44657414926E+02 -0.61927706639E+03  0.62250155093E+03  0.00000000000E+00 0. -1.
<mgrwt>
<rscale>  1 0.30000000E+03</rscale>
<asrwt>0</asrwt>
<pdfrwt beam="1">  1       21 0.15494492E-01 0.30000000E+03</pdfrwt>
<pdfrwt beam="2">0</pdfrwt>
<totfact> 0.38776246E+03</totfact>
</mgrwt>
</event>
<event>
 6    1  0.6377696E-002  0.3000000E+03  0.7818608E-02  0.1093470E+00
         21   -1    0    0  501  502  0.00000000000E+00  0.00000000000E+00  0.19495202811E+01  0.19495202811E+01  0.00000000000E+00 0. -1.
         13   -1    0    0    0    0 -0.00000000000E+00 -0.00000000000E+00 -0.10000000000E+04  0.10000000000E+04  0.00000000000E+00 0.  1.
    9000005    2    1    2  501    0 -0.15806825534E+02  0.34701615013E+02 -0.75081160584E+03  0.75178733574E+03  0.34746072560E+01 0.  0.
         13    1    3    3    0    0 -0.48096554679E+01  0.12626019029E+02 -0.29435535430E+03  0.29466527408E+03  0.00000000000E+00 0.  1.
          1    1    3    3  501    0 -0.10997170066E+02  0.22075595983E+02 -0.45645625154E+03  0.45712206166E+03  0.00000000000E+00 0.  1.
         -1    1    1    2    0  502  0.15806825534E+02 -0.34701615013E+02 -0.24723887387E+03  0.25016218454E+03  0.00000000000E+00 0. -1.
<mgrwt>
<rscale>  1 0.30000000E+03</rscale>
<asrwt>0</asrwt>
<pdfrwt beam="1">  1       21 0.70891796E-02 0.30000000E+03</pdfrwt>
<pdfrwt beam="2">0</pdfrwt>
<totfact> 0.15783505E+04</totfact>
</mgrwt>
</event>
<event>
 6    1  0.6377696E-002  0.3000000E+03  0.7818608E-02  0.1093470E+00
         21   -1    0    0  501  502  0.00000000000E+00  0.00000000000E+00  0.16960753714E+01  0.16960753714E+01  0.00000000000E+00 0. -1.
         13   -1    0    0    0    0 -0.00000000000E+00 -0.00000000000E+00 -0.10000000000E+04  0.10000000000E+04  0.00000000000E+00 0.  1.
    9000005    2    1    2  501    0 -0.39611678679E+02 -0.16581066150E+01 -0.37047590712E+03  0.37261750002E+03  0.44237037415E+01 0.  0.
         13    1    3    3    0    0 -0.40898965102E+00  0.10072058845E+00 -0.10600187770E+02  0.10608553056E+02  0.00000000000E+00 0.  1.
          3    1    3    3  501    0 -0.39202689028E+02 -0.17588272034E+01 -0.35987571935E+03  0.36200894696E+03  0.00000000000E+00 0.  1.
         -3    1    1    2    0  502  0.39611678679E+02  0.16581066150E+01 -0.62782801751E+03  0.62907857535E+03  0.00000000000E+00 0. -1.
<mgrwt>
<rscale>  1 0.30000000E+03</rscale>
<asrwt>0</asrwt>
<pdfrwt beam="1">  1       21 0.61675598E-02 0.30000000E+03</pdfrwt>
<pdfrwt beam="2">0</pdfrwt>
<totfact> 0.20093551E+04</totfact>
</mgrwt>
</event>
<event>
 6    1  0.6377696E-002  0.3000000E+03  0.7818608E-02  0.1093470E+00
         21   -1    0    0  501  502  0.00000000000E+00  0.00000000000E+00  0.22433314765E+01  0.22433314765E+01  0.00000000000E+00 0. -1.
         13   -1    0    0    0    0 -0.00000000000E+00 -0.00000000000E+00 -0.10000000000E+04  0.10000000000E+04  0.00000000000E+00 0.  1.
    9000005    2    1    2  501    0  0.29496919283E+02 -0.34158664516E+02 -0.64950860762E+03  0.65108297703E+03  0.32755157160E+01 0.  0.
         13    1    3    3    0    0  0.28488682247E+02 -0.32035588338E+02 -0.62061662889E+03  0.62209555857E+03  0.00000000000E+00 0.  1.
          1    1    3    3  501    0  0.10082370358E+01 -0.21230761781E+01 -0.28891978728E+02  0.28987418464E+02  0.00000000000E+00 0.  1.
         -1    1    1    2    0  502 -0.29496919283E+02  0.34158664516E+02 -0.34824806090E+03  0.35116035444E+03  0.00000000000E+00 0. -1.
<mgrwt>
<rscale>  1 0.30000000E+03</rscale>
<asrwt>0</asrwt>
<pdfrwt beam="1">  1       21 0.81575862E-02 0.30000000E+03</pdfrwt>
<pdfrwt beam="2">0</pdfrwt>
<totfact> 0.12343371E+04</totfact>
</mgrwt>
</event>
<event>
 6    1  0.6377696E-002  0.3000000E+03  0.7818608E-02  0.1093470E+00
         21   -1    0    0  501  502  0.00000000000E+00  0.00000000000E+00  0.22341618706E+01  0.22341618706E+01  0.00000000000E+00 0. -1.
         13   -1    0    0    0    0 -0.00000000000E+00 -0.00000000000E+00 -0.10000000000E+04  0.10000000000E+04  0.00000000000E+00 0.  1.
    9000005    2    1    2  501    0  0.34413474347E+02 -0.29419512526E+02 -0.35733579043E+03  0.36020578171E+03  0.30891943977E+01 0.  0.
         13    1    3    3    0    0  0.19696952178E+02 -0.18490824018E+02 -0.21957934743E+03  0.22123510191E+03  0.00000000000E+00 0.  1.
          1    1    3    3  501    0  0.14716522168E+02 -0.10928688508E+02 -0.13775644300E+03  0.13897067981E+03  0.00000000000E+00 0.  1.
         -3    1    1    2    0  502 -0.34413474347E+02  0.29419512526E+02 -0.64043004770E+03  0.64202838016E+03  0.00000000000E+00 0. -1.
<mgrwt>
<rscale>  1 0.30000000E+03</rscale>
<asrwt>0</asrwt>
<pdfrwt beam="1">  1       21 0.81242421E-02 0.30000000E+03</pdfrwt>
<pdfrwt beam="2">0</pdfrwt>
<totfact> 0.12432585E+04</totfact>
</mgrwt>
</event>
<event>
 6    1  0.6377696E-002  0.3000000E+03  0.7818608E-02  0.1093470E+00
         21   -1    0    0  501  502  0.00000000000E+00  0.00000000000E+00  0.51510873217E+01  0.51510873217E+01  0.00000000000E+00 0. -1.
         13   -1    0    0    0    0 -0.00000000000E+00 -0.00000000000E+00 -0.10000000000E+04  0.10000000000E+04  0.00000000000E+00 0.  1.
    9000005    2    1    2  501    0 -0.61689107524E+02 -0.35378472674E+02 -0.43049786798E+03  0.43633715996E+03  0.21261479967E+01 0.  0.
         13    1    3    3    0    0 -0.38603906244E+02 -0.21947563936E+02 -0.26254062594E+03  0.26626967047E+03  0.00000000000E+00 0.  1.
          3    1    3    3  501    0 -0.23085201280E+02 -0.13430908738E+02 -0.16795724204E+03  0.17006748949E+03  0.00000000000E+00 0.  1.
         -1    1    1    2    0  502  0.61689107524E+02  0.35378472674E+02 -0.56435104469E+03  0.56881392736E+03  0.00000000000E+00 0. -1.
<mgrwt>
<rscale>  1 0.30000000E+03</rscale>
<asrwt>0</asrwt>
<pdfrwt beam="1">  1       21 0.18731266E-01 0.30000000E+03</pdfrwt>
<pdfrwt beam="2">0</pdfrwt>
<totfact> 0.27174124E+03</totfact>
</mgrwt>
</event>
<event>
 6    1  0.6377696E-002  0.3000000E+03  0.7818608E-02  0.1093470E+00
         21   -1    0    0  501  502  0.00000000000E+00  0.00000000000E+00  0.20506967410E+01  0.20506967410E+01  0.00000000000E+00 0. -1.
         13   -1    0    0    0    0 -0.00000000000E+00 -0.00000000000E+00 -0.10000000000E+04  0.10000000000E+04  0.00000000000E+00 0.  1.
    9000005    2    1    2  501    0  0.22251770248E+02 -0.24999692605E+02 -0.16294932015E+03  0.16638024872E+03  0.31273496916E+01 0.  0.
         13    1    3    3    0    0  0.11766365595E+02 -0.12737055554E+02 -0.76815078543E+02  0.78747928449E+02  0.00000000000E+00 0.  1.
          1    1    3    3  501    0  0.10485404653E+02 -0.12262637052E+02 -0.86134241610E+02  0.87632320270E+02  0.00000000000E+00 0.  1.
         -1    1    1    2    0  502 -0.22251770248E+02  0.24999692605E+02 -0.83499998311E+03  0.83567044802E+03  0.00000000000E+00 0. -1.
<mgrwt>
<rscale>  1 0.30000000E+03</rscale>
<asrwt>0</asrwt>
<pdfrwt beam="1">  1       21 0.74570948E-02 0.30000000E+03</pdfrwt>
<pdfrwt beam="2">0</pdfrwt>
<totfact> 0.14448857E+04</totfact>
</mgrwt>
</event>
<event>
 6    1  0.6377696E-002  0.3000000E+03  0.7818608E-02  0.1093470E+00
         21   -1    0    0  501  502  0.00000000000E+00  0.00000000000E+00  0.92838435869E+00  0.92838435869E+00  0.00000000000E+00 0. -1.
         13   -1    0    0    0    0 -0.00000000000E+00 -0.00000000000E+00 -0.10000000000E+04  0.10000000000E+04  0.00000000000E+00 0.  1.
    9000005    2    1    2  501    0 -0.18454453684E+02  0.23742366246E+02 -0.57236135652E+03  0.57315985810E+03  0.32301218673E+01 0.  0.
         13    1    3    3    0    0 -0.17627499971E+02  0.21320496552E+02 -0.51762166050E+03  0.51836037247E+03  0.00000000000E+00 0.  1.
          1    1    3    3  501    0 -0.82695371271E+00  0.24218696941E+01 -0.54739696020E+02  0.54799485633E+02  0.00000000000E+00 0.  1.
         -3    1    1    2    0  502  0.18454453684E+02 -0.23742366246E+02 -0.42671025912E+03  0.42776852626E+03  0.00000000000E+00 0. -1.
<mgrwt>
<rscale>  1 0.30000000E+03</rscale>
<asrwt>0</asrwt>
<pdfrwt beam="1">  1       21 0.33759502E-02 0.30000000E+03</pdfrwt>
<pdfrwt beam="2">0</pdfrwt>
<totfact> 0.55889949E+04</totfact>
</mgrwt>
</event>
<event>
 6    1  0.6377696E-002  0.3000000E+03  0.7818608E-02  0.1093470E+00
         21   -1    0    0  501  502  0.00000000000E+00  0.00000000000E+00  0.38125312632E+01  0.38125312632E+01  0.00000000000E+00 0. -1.
         13   -1    0    0    0    0 -0.00000000000E+00 -0.00000000000E+00 -0.10000000000E+04  0.10000000000E+04  0.00000000000E+00 0.  1.
    9000005    2    1    2  501    0  0.49931172398E+02 -0.36067128882E+02 -0.52806197072E+03  0.53165213304E+03  0.32535942719E+01 0.  0.
         13    1    3    3    0    0  0.14752304077E+02 -0.12488838700E+02 -0.16776740561E+03  0.16887718600E+03  0.00000000000E+00 0.  1.
          3    1    3    3  501    0  0.35178868321E+02 -0.23578290182E+02 -0.36029456511E+03  0.36277494703E+03  0.00000000000E+00 0.  1.
         -1    1    1    2    0  502 -0.49931172398E+02  0.36067128882E+02 -0.46812549801E+03  0.47216039823E+03  0.00000000000E+00 0. -1.
<mgrwt>
<rscale>  1 0.30000000E+03</rscale>
<asrwt>0</asrwt>
<pdfrwt beam="1">  1       21 0.13863779E-01 0.30000000E+03</pdfrwt>
<pdfrwt beam="2">0</pdfrwt>
<totfact> 0.47614135E+03</totfact>
</mgrwt>
</event>
<event>
 6    1  0.6377696E-002  0.3000000E+03  0.7818608E-02  0.1093470E+00
         21   -1    0    0  501  502  0.00000000000E+00  0.00000000000E+00  0.16977642603E+01  0.16977642603E+01  0.00000000000E+00 0. -1.
         13   -1    0    0    0    0 -0.00000000000E+00 -0.00000000000E+00 -0.10000000000E+04  0.10000000000E+04  0.00000000000E+00 0.  1.
    9000005    2    1    2  501    0  0.30515165201E+02  0.25138324442E+02 -0.36230892830E+03  0.36447676824E+03  0.35276616345E+01 0.  0.
         13    1    3    3    0    0  0.29461311354E+02  0.24358120719E+02 -0.34305521671E+03  0.34517845910E+03  0.00000000000E+00 0.  1.
          3    1    3    3  501    0  0.10538538470E+01  0.78020372320E+00 -0.19253711591E+02  0.19298309144E+02  0.00000000000E+00 0.  1.
         -1    1    1    2    0  502 -0.30515165201E+02 -0.25138324442E+02 -0.63599330744E+03  0.63722099602E+03  0.00000000000E+00 0. -1.
<mgrwt>
<rscale>  1 0.30000000E+03</rscale>
<asrwt>0</asrwt>
<pdfrwt beam="1">  1       21 0.61737012E-02 0.30000000E+03</pdfrwt>
<pdfrwt beam="2">0</pdfrwt>
<totfact> 0.20059049E+04</totfact>
</mgrwt>
</event>
<event>
 6    1  0.6377696E-002  0.3000000E+03  0.7818608E-02  0.1093470E+00
         21   -1    0    0  501  502  0.00000000000E+00  0.00000000000E+00  0.12393242179E+01  0.12393242179E+01  0.00000000000E+00 0. -1.
         13   -1    0    0    0    0 -0.00000000000E+00 -0.00000000000E+00 -0.10000000000E+04  0.10000000000E+04  0.00000000000E+00 0.  1.
    9000005    2    1    2  501    0 -0.56305553112E+01  0.34678421883E+02 -0.50192237515E+03  0.50316042176E+03  0.31691092346E+01 0.  0.
         13    1    3    3    0    0 -0.29164260803E+01  0.19302503168E+02 -0.25640076911E+03  0.25714285246E+03  0.00000000000E+00 0.  1.
          1    1    3    3  501    0 -0.27141292309E+01  0.15375918716E+02 -0.24552160604E+03  0.24601756930E+03  0.00000000000E+00 0.  1.
         -3    1    1    2    0  502  0.56305553112E+01 -0.34678421883E+02 -0.49683830063E+03  0.49807890246E+03  0.00000000000E+00 0. -1.
<mgrwt>
<rscale>  1 0.30000000E+03</rscale>
<asrwt>0</asrwt>
<pdfrwt beam="1">  1       21 0.45066430E-02 0.30000000E+03</pdfrwt>
<pdfrwt beam="2">0</pdfrwt>
<totfact> 0.34372037E+04</totfact>
</mgrwt>
</event>
<event>
 6    1  0.6377696E-002  0.3000000E+03  0.7818608E-02  0.1093470E+00
         21   -1    0    0  501  502  0.00000000000E+00  0.00000000000E+00  0.22098276838E+01  0.22098276838E+01  0.00000000000E+00 0. -1.
         13   -1    0    0    0    0 -0.00000000000E+00 -0.00000000000E+00 -0.10000000000E+04  0.10000000000E+04  0.00000000000E+00 0.  1.
    9000005    2    1    2  501    0 -0.18310607393E+01 -0.41126181928E+02 -0.73890404524E+03  0.74007104303E+03  0.55897269041E+01 0.  0.
         13    1    3    3    0    0 -0.19053203809E+00  0.10513347076E+00 -0.81355168074E+01  0.81384267046E+01  0.00000000000E+00 0.  1.
          3    1    3    3  501    0 -0.16405287012E+01 -0.41231315399E+02 -0.73076852843E+03  0.73193261633E+03  0.00000000000E+00 0.  1.
         -1    1    1    2    0  502  0.18310607393E+01  0.41126181928E+02 -0.25888612708E+03  0.26213878465E+03  0.00000000000E+00 0. -1.
<mgrwt>
<rscale>  1 0.30000000E+03</rscale>
<asrwt>0</asrwt>
<pdfrwt beam="1">  1       21 0.80357540E-02 0.30000000E+03</pdfrwt>
<pdfrwt beam="2">0</pdfrwt>
<totfact> 0.12674195E+04</totfact>
</mgrwt>
</event>
<event>
 6    1  0.6377696E-002  0.3000000E+03  0.7818608E-02  0.1093470E+00
         21   -1    0    0  501  502  0.00000000000E+00  0.00000000000E+00  0.14617595042E+01  0.14617595042E+01  0.00000000000E+00 0. -1.
         13   -1    0    0    0    0 -0.00000000000E+00 -0.00000000000E+00 -0.10000000000E+04  0.10000000000E+04  0.00000000000E+00 0.  1.
    9000005    2    1    2  501    0  0.36537295676E+02  0.49825037366E+01 -0.62345430016E+03  0.62456951812E+03  0.56585559984E+01 0.  0.
         13    1    3    3    0    0  0.24368823347E+02  0.37363336552E+01 -0.37021248427E+03  0.37103245579E+03  0.00000000000E+00 0.  1.
          1    1    3    3  501    0  0.12168472329E+02  0.12461700814E+01 -0.25324181590E+03  0.25353706233E+03  0.00000000000E+00 0.  1.
         -3    1    1    2    0  502 -0.36537295676E+02 -0.49825037366E+01 -0.37508394033E+03  0.37689224138E+03  0.00000000000E+00 0. -1.
<mgrwt>
<rscale>  1 0.30000000E+03</rscale>
<asrwt>0</asrwt>
<pdfrwt beam="1">  1       21 0.53155003E-02 0.30000000E+03</pdfrwt>
<pdfrwt beam="2">0</pdfrwt>
<totfact> 0.25946931E+04</totfact>
</mgrwt>
</event>
<event>
 6    1  0.6377696E-002  0.3000000E+03  0.7818608E-02  0.1093470E+00
         21   -1    0    0  501  502  0.00000000000E+00  0.00000000000E+00  0.17597873151E+01  0.17597873151E+01  0.00000000000E+00 0. -1.
         13   -1    0    0    0    0 -0.00000000000E+00 -0.00000000000E+00 -0.10000000000E+04  0.10000000000E+04  0.00000000000E+00 0.  1.
    9000005    2    1    2  501    0 -0.83170402006E+01 -0.39394107497E+02 -0.36452817041E+03  0.36677000678E+03  0.42874218102E+01 0.  0.
         13    1    3    3    0    0 -0.81978566253E+01 -0.36685365294E+02 -0.34751720165E+03  0.34954431239E+03  0.00000000000E+00 0.  1.
          1    1    3    3  501    0 -0.11918357536E+00 -0.27087422035E+01 -0.17010968762E+02  0.17225694392E+02  0.00000000000E+00 0.  1.
         -3    1    1    2    0  502  0.83170402006E+01  0.39394107497E+02 -0.63371204227E+03  0.63498978053E+03  0.00000000000E+00 0. -1.
<mgrwt>
<rscale>  1 0.30000000E+03</rscale>
<asrwt>0</asrwt>
<pdfrwt beam="1">  1       21 0.63992401E-02 0.30000000E+03</pdfrwt>
<pdfrwt beam="2">0</pdfrwt>
<totfact> 0.18852949E+04</totfact>
</mgrwt>
</event>
<event>
 6    1  0.6377696E-002  0.3000000E+03  0.7818608E-02  0.1093470E+00
         21   -1    0    0  501  502  0.00000000000E+00  0.00000000000E+00  0.16557583953E+01  0.16557583953E+01  0.00000000000E+00 0. -1.
         13   -1    0    0    0    0 -0.00000000000E+00 -0.00000000000E+00 -0.10000000000E+04  0.10000000000E+04  0.00000000000E+00 0.  1.
    9000005    2    1    2  501    0  0.18457414653E+00 -0.36015789607E+02 -0.26854990355E+03  0.27097323703E+03  0.32052023952E+01 0.  0.
         13    1    3    3    0    0 -0.18875974524E+00 -0.59395783650E+00 -0.83291486118E+01  0.83524327445E+01  0.00000000000E+00 0.  1.
          1    1    3    3  501    0  0.37333389177E+00 -0.35421831771E+02 -0.26022075494E+03  0.26262080429E+03  0.00000000000E+00 0.  1.
         -1    1    1    2    0  502 -0.18457414653E+00  0.36015789607E+02 -0.72979433806E+03  0.73068252136E+03  0.00000000000E+00 0. -1.
<mgrwt>
<rscale>  1 0.30000000E+03</rscale>
<asrwt>0</asrwt>
<pdfrwt beam="1">  1       21 0.60209523E-02 0.30000000E+03</pdfrwt>
<pdfrwt beam="2">0</pdfrwt>
<totfact> 0.20945353E+04</totfact>
</mgrwt>
</event>
<event>
 6    1  0.6377696E-002  0.3000000E+03  0.7818608E-02  0.1093470E+00
         21   -1    0    0  501  502  0.00000000000E+00  0.00000000000E+00  0.16299938152E+01  0.16299938152E+01  0.00000000000E+00 0. -1.
         13   -1    0    0    0    0 -0.00000000000E+00 -0.00000000000E+00 -0.10000000000E+04  0.10000000000E+04  0.00000000000E+00 0.  1.
    9000005    2    1    2  501    0 -0.37511672019E+02 -0.49955059982E+01 -0.33005706134E+03  0.33224649173E+03  0.42410975093E+01 0.  0.
         13    1    3    3    0    0 -0.72403174043E+01 -0.14825539758E+01 -0.51542267679E+02  0.52069429802E+02  0.00000000000E+00 0.  1.
          3    1    3    3  501    0 -0.30271354614E+02 -0.35129520223E+01 -0.27851479366E+03  0.28017706193E+03  0.00000000000E+00 0.  1.
         -1    1    1    2    0  502  0.37511672019E+02  0.49955059982E+01 -0.66831294484E+03  0.66938350208E+03  0.00000000000E+00 0. -1.
<mgrwt>
<rscale>  1 0.30000000E+03</rscale>
<asrwt>0</asrwt>
<pdfrwt beam="1">  1       21 0.59272627E-02 0.30000000E+03</pdfrwt>
<pdfrwt beam="2">0</pdfrwt>
<totfact> 0.21519504E+04</totfact>
</mgrwt>
</event>
<event>
 6    1  0.6377696E-002  0.3000000E+03  0.7818608E-02  0.1093470E+00
         21   -1    0    0  501  502  0.00000000000E+00  0.00000000000E+00  0.94406985213E+00  0.94406985213E+00  0.00000000000E+00 0. -1.
         13   -1    0    0    0    0 -0.00000000000E+00 -0.00000000000E+00 -0.10000000000E+04  0.10000000000E+04  0.00000000000E+00 0.  1.
    9000005    2    1    2  501    0 -0.30105050956E+02 -0.49052438044E+01 -0.45635416049E+03  0.45738580591E+03  0.35043033099E+01 0.  0.
         13    1    3    3    0    0 -0.64999862163E+01 -0.13127470251E+01 -0.79553773550E+02  0.79829668743E+02  0.00000000000E+00 0.  1.
          1    1    3    3  501    0 -0.23605064740E+02 -0.35924967793E+01 -0.37680038694E+03  0.37755613717E+03  0.00000000000E+00 0.  1.
         -3    1    1    2    0  502  0.30105050956E+02  0.49052438044E+01 -0.54270176966E+03  0.54355826394E+03  0.00000000000E+00 0. -1.
<mgrwt>
<rscale>  1 0.30000000E+03</rscale>
<asrwt>0</asrwt>
<pdfrwt beam="1">  1       21 0.34329885E-02 0.30000000E+03</pdfrwt>
<pdfrwt beam="2">0</pdfrwt>
<totfact> 0.54346694E+04</totfact>
</mgrwt>
</event>
<event>
 6    1  0.6377696E-002  0.3000000E+03  0.7818608E-02  0.1093470E+00
         21   -1    0    0  501  502  0.00000000000E+00  0.00000000000E+00  0.25837412706E+01  0.25837412706E+01  0.00000000000E+00 0. -1.
         13   -1    0    0    0    0 -0.00000000000E+00 -0.00000000000E+00 -0.10000000000E+04  0.10000000000E+04  0.00000000000E+00 0.  1.
    9000005    2    1    2  501    0  0.15517748404E+02  0.28771318039E+02 -0.88238776904E+03  0.88300053720E+03  0.36310431415E+01 0.  0.
         13    1    3    3    0    0  0.49859973887E+01  0.96011954670E+01 -0.24813257794E+03  0.24836831392E+03  0.00000000000E+00 0.  1.
          1    1    3    3  501    0  0.10531751015E+02  0.19170122572E+02 -0.63425519110E+03  0.63463222328E+03  0.00000000000E+00 0.  1.
         -3    1    1    2    0  502 -0.15517748404E+02 -0.28771318039E+02 -0.11502848969E+03  0.11958320408E+03  0.00000000000E+00 0. -1.
<mgrwt>
<rscale>  1 0.30000000E+03</rscale>
<asrwt>0</asrwt>
<pdfrwt beam="1">  1       21 0.93954426E-02 0.30000000E+03</pdfrwt>
<pdfrwt beam="2">0</pdfrwt>
<totfact> 0.96153151E+03</totfact>
</mgrwt>
</event>
<event>
 6    1  0.6377696E-002  0.3000000E+03  0.7818608E-02  0.1093470E+00
         21   -1    0    0  501  502  0.00000000000E+00  0.00000000000E+00  0.37693848599E+01  0.37693848599E+01  0.00000000000E+00 0. -1.
         13   -1    0    0    0    0 -0.00000000000E+00 -0.00000000000E+00 -0.10000000000E+04  0.10000000000E+04  0.00000000000E+00 0.  1.
    9000005    2    1    2  501    0  0.50261823502E+02 -0.31469817244E+02 -0.37574625494E+03  0.38045771198E+03  0.67986912195E+01 0.  0.
         13    1    3    3    0    0  0.23465213994E+02 -0.16123998168E+02 -0.20055517997E+03  0.20256598875E+03  0.00000000000E+00 0.  1.
          3    1    3    3  501    0  0.26796609508E+02 -0.15345819076E+02 -0.17519107497E+03  0.17789172323E+03  0.00000000000E+00 0.  1.
         -1    1    1    2    0  502 -0.50261823502E+02  0.31469817244E+02 -0.62048436020E+03  0.62331167288E+03  0.00000000000E+00 0. -1.
<mgrwt>
<rscale>  1 0.30000000E+03</rscale>
<asrwt>0</asrwt>
<pdfrwt beam="1">  1       21 0.13706883E-01 0.30000000E+03</pdfrwt>
<pdfrwt beam="2">0</pdfrwt>
<totfact> 0.48618877E+03</totfact>
</mgrwt>
</event>
<event>
 6    1  0.6377696E-002  0.3000000E+03  0.7818608E-02  0.1093470E+00
         21   -1    0    0  501  502  0.00000000000E+00  0.00000000000E+00  0.31531025881E+01  0.31531025881E+01  0.00000000000E+00 0. -1.
         13   -1    0    0    0    0 -0.00000000000E+00 -0.00000000000E+00 -0.10000000000E+04  0.10000000000E+04  0.00000000000E+00 0.  1.
    9000005    2    1    2  501    0  0.28727536728E+02  0.13917849593E+02 -0.91100313801E+03  0.91156637357E+03  0.27491922614E+01 0.  0.
         13    1    3    3    0    0  0.12650400256E+02  0.74715587997E+01 -0.39978966074E+03  0.40005953264E+03  0.00000000000E+00 0.  1.
          1    1    3    3  501    0  0.16077136472E+02  0.64462907932E+01 -0.51121347726E+03  0.51150684093E+03  0.00000000000E+00 0.  1.
         -1    1    1    2    0  502 -0.28727536728E+02 -0.13917849593E+02 -0.85843759404E+02  0.91586729019E+02  0.00000000000E+00 0. -1.
<mgrwt>
<rscale>  1 0.30000000E+03</rscale>
<asrwt>0</asrwt>
<pdfrwt beam="1">  1       21 0.11465852E-01 0.30000000E+03</pdfrwt>
<pdfrwt beam="2">0</pdfrwt>
<totfact> 0.67296058E+03</totfact>
</mgrwt>
</event>
<event>
 6    1  0.6377696E-002  0.3000000E+03  0.7818608E-02  0.1093470E+00
         21   -1    0    0  501  502  0.00000000000E+00  0.00000000000E+00  0.11077657920E+01  0.11077657920E+01  0.00000000000E+00 0. -1.
         13   -1    0    0    0    0 -0.00000000000E+00 -0.00000000000E+00 -0.10000000000E+04  0.10000000000E+04  0.00000000000E+00 0.  1.
    9000005    2    1    2  501    0  0.12928861108E+02  0.30548875531E+02 -0.48230375215E+03  0.48345532540E+03  0.34282760701E+01 0.  0.
         13    1    3    3    0    0  0.12022061287E+02  0.28824877197E+02 -0.44018763750E+03  0.44129418726E+03  0.00000000000E+00 0.  1.
          1    1    3    3  501    0  0.90679982038E+00  0.17239983342E+01 -0.42116114652E+02  0.42161138144E+02  0.00000000000E+00 0.  1.
         -3    1    1    2    0  502 -0.12928861108E+02 -0.30548875531E+02 -0.51658848206E+03  0.51765244039E+03  0.00000000000E+00 0. -1.
<mgrwt>
<rscale>  1 0.30000000E+03</rscale>
<asrwt>0</asrwt>
<pdfrwt beam="1">  1       21 0.40282477E-02 0.30000000E+03</pdfrwt>
<pdfrwt beam="2">0</pdfrwt>
<totfact> 0.41551885E+04</totfact>
</mgrwt>
</event>
<event>
 6    1  0.6377696E-002  0.3000000E+03  0.7818608E-02  0.1093470E+00
         21   -1    0    0  501  502  0.00000000000E+00  0.00000000000E+00  0.13914860514E+01  0.13914860514E+01  0.00000000000E+00 0. -1.
         13   -1    0    0    0    0 -0.00000000000E+00 -0.00000000000E+00 -0.10000000000E+04  0.10000000000E+04  0.00000000000E+00 0.  1.
    9000005    2    1    2  501    0 -0.28162574153E+02 -0.15793394757E+02 -0.74909012631E+03  0.74979262343E+03  0.32247355208E+01 0.  0.
         13    1    3    3    0    0 -0.59723663813E+01 -0.32415568184E+01 -0.19014835735E+03  0.19026974182E+03  0.00000000000E+00 0.  1.
          3    1    3    3  501    0 -0.22190207772E+02 -0.12551837938E+02 -0.55894176896E+03  0.55952288161E+03  0.00000000000E+00 0.  1.
         -3    1    1    2    0  502  0.28162574153E+02  0.15793394757E+02 -0.24951838764E+03  0.25159886262E+03  0.00000000000E+00 0. -1.
<mgrwt>
<rscale>  1 0.30000000E+03</rscale>
<asrwt>0</asrwt>
<pdfrwt beam="1">  1       21 0.50599599E-02 0.30000000E+03</pdfrwt>
<pdfrwt beam="2">0</pdfrwt>
<totfact> 0.28225039E+04</totfact>
</mgrwt>
</event>
<event>
 6    1  0.6377696E-002  0.3000000E+03  0.7818608E-02  0.1093470E+00
         21   -1    0    0  501  502  0.00000000000E+00  0.00000000000E+00  0.14545957998E+01  0.14545957998E+01  0.00000000000E+00 0. -1.
         13   -1    0    0    0    0 -0.00000000000E+00 -0.00000000000E+00 -0.10000000000E+04  0.10000000000E+04  0.00000000000E+00 0.  1.
    9000005    2    1    2  501    0  0.30112903196E+02  0.77968328593E+01 -0.21290657940E+03  0.21520022183E+03  0.37876622812E+01 0.  0.
         13    1    3    3    0    0  0.20746959594E+02  0.46467619244E+01 -0.15598902002E+03  0.15743126467E+03  0.00000000000E+00 0.  1.
          3    1    3    3  501    0  0.93659436012E+01  0.31500709349E+01 -0.56917559381E+02  0.57768957169E+02  0.00000000000E+00 0.  1.
         -3    1    1    2    0  502 -0.30112903196E+02 -0.77968328593E+01 -0.78563882480E+03  0.78625437397E+03  0.00000000000E+00 0. -1.
<mgrwt>
<rscale>  1 0.30000000E+03</rscale>
<asrwt>0</asrwt>
<pdfrwt beam="1">  1       21 0.52894504E-02 0.30000000E+03</pdfrwt>
<pdfrwt beam="2">0</pdfrwt>
<totfact> 0.26165874E+04</totfact>
</mgrwt>
</event>
<event>
 6    1  0.6377696E-002  0.3000000E+03  0.7818608E-02  0.1093470E+00
         21   -1    0    0  501  502  0.00000000000E+00  0.00000000000E+00  0.30973936203E+01  0.30973936203E+01  0.00000000000E+00 0. -1.
         13   -1    0    0    0    0 -0.00000000000E+00 -0.00000000000E+00 -0.10000000000E+04  0.10000000000E+04  0.00000000000E+00 0.  1.
    9000005    2    1    2  501    0 -0.39999326766E+02  0.37825762625E+02 -0.56889692135E+03  0.57156570200E+03  0.35930648050E+01 0.  0.
         13    1    3    3    0    0 -0.31296881370E+02  0.31522654489E+02 -0.46061972326E+03  0.46275663364E+03  0.00000000000E+00 0.  1.
          3    1    3    3  501    0 -0.87024453965E+01  0.63031081358E+01 -0.10827719810E+03  0.10880906835E+03  0.00000000000E+00 0.  1.
         -1    1    1    2    0  502  0.39999326766E+02 -0.37825762625E+02 -0.42800568503E+03  0.43153169162E+03  0.00000000000E+00 0. -1.
<mgrwt>
<rscale>  1 0.30000000E+03</rscale>
<asrwt>0</asrwt>
<pdfrwt beam="1">  1       21 0.11263273E-01 0.30000000E+03</pdfrwt>
<pdfrwt beam="2">0</pdfrwt>
<totfact> 0.69495921E+03</totfact>
</mgrwt>
</event>
<event>
 6    1  0.6377696E-002  0.3000000E+03  0.7818608E-02  0.1093470E+00
         21   -1    0    0  501  502  0.00000000000E+00  0.00000000000E+00  0.18425847322E+01  0.18425847322E+01  0.00000000000E+00 0. -1.
         13   -1    0    0    0    0 -0.00000000000E+00 -0.00000000000E+00 -0.10000000000E+04  0.10000000000E+04  0.00000000000E+00 0.  1.
    9000005    2    1    2  501    0 -0.32507888088E+02  0.24260678655E+02 -0.66131914571E+03  0.66257077165E+03  0.34163780416E+01 0.  0.
         13    1    3    3    0    0 -0.12359243251E+02  0.93370152553E+01 -0.22610160824E+03  0.22663156885E+03  0.00000000000E+00 0.  1.
          3    1    3    3  501    0 -0.20148644837E+02  0.14923663399E+02 -0.43521753747E+03  0.43593920280E+03  0.00000000000E+00 0.  1.
         -3    1    1    2    0  502  0.32507888088E+02 -0.24260678655E+02 -0.33683826956E+03  0.33927181309E+03  0.00000000000E+00 0. -1.
<mgrwt>
<rscale>  1 0.30000000E+03</rscale>
<asrwt>0</asrwt>
<pdfrwt beam="1">  1       21 0.67003222E-02 0.30000000E+03</pdfrwt>
<pdfrwt beam="2">0</pdfrwt>
<totfact> 0.17409728E+04</totfact>
</mgrwt>
</event>
<event>
 6    1  0.6377696E-002  0.3000000E+03  0.7818608E-02  0.1093470E+00
         21   -1    0    0  501  502  0.00000000000E+00  0.00000000000E+00  0.13334327886E+01  0.13334327886E+01  0.00000000000E+00 0. -1.
         13   -1    0    0    0    0 -0.00000000000E+00 -0.00000000000E+00 -0.10000000000E+04  0.10000000000E+04  0.00000000000E+00 0.  1.
    9000005    2    1    2  501    0 -0.28756395482E+01 -0.35132038049E+02 -0.37429718721E+03  0.37596981690E+03  0.35198668278E+01 0.  0.
         13    1    3    3    0    0 -0.24875340206E+00 -0.19886356581E+02 -0.22187311523E+03  0.22276267263E+03  0.00000000000E+00 0.  1.
          3    1    3    3  501    0 -0.26268861462E+01 -0.15245681468E+02 -0.15242407199E+03  0.15320714427E+03  0.00000000000E+00 0.  1.
         -3    1    1    2    0  502  0.28756395482E+01  0.35132038049E+02 -0.62436938000E+03  0.62536361589E+03  0.00000000000E+00 0. -1.
<mgrwt>
<rscale>  1 0.30000000E+03</rscale>
<asrwt>0</asrwt>
<pdfrwt beam="1">  1       21 0.48488567E-02 0.30000000E+03</pdfrwt>
<pdfrwt beam="2">0</pdfrwt>
<totfact> 0.30350886E+04</totfact>
</mgrwt>
</event>
<event>
 6    1  0.6377696E-002  0.3000000E+03  0.7818608E-02  0.1093470E+00
         21   -1    0    0  501  502  0.00000000000E+00  0.00000000000E+00  0.28608145689E+01  0.28608145689E+01  0.00000000000E+00 0. -1.
         13   -1    0    0    0    0 -0.00000000000E+00 -0.00000000000E+00 -0.10000000000E+04  0.10000000000E+04  0.00000000000E+00 0.  1.
    9000005    2    1    2  501    0 -0.23045547000E+02  0.42732750132E+02 -0.28983699811E+03  0.29389426433E+03  0.33418500053E+01 0.  0.
         13    1    3    3    0    0 -0.17894594871E+02  0.30201100535E+02 -0.20612889653E+03  0.20909673595E+03  0.00000000000E+00 0.  1.
          3    1    3    3  501    0 -0.51509521292E+01  0.12531649597E+02 -0.83708101579E+02  0.84797528380E+02  0.00000000000E+00 0.  1.
         -1    1    1    2    0  502  0.23045547000E+02 -0.42732750132E+02 -0.70730218732E+03  0.70896655024E+03  0.00000000000E+00 0. -1.
<mgrwt>
<rscale>  1 0.30000000E+03</rscale>
<asrwt>0</asrwt>
<pdfrwt beam="1">  1       21 0.10402984E-01 0.30000000E+03</pdfrwt>
<pdfrwt beam="2">0</pdfrwt>
<totfact> 0.80161065E+03</totfact>
</mgrwt>
</event>
<event>
 6    1  0.6377696E-002  0.3000000E+03  0.7818608E-02  0.1093470E+00
         21   -1    0    0  501  502  0.00000000000E+00  0.00000000000E+00  0.37930178389E+01  0.37930178389E+01  0.00000000000E+00 0. -1.
         13   -1    0    0    0    0 -0.00000000000E+00 -0.00000000000E+00 -0.10000000000E+04  0.10000000000E+04  0.00000000000E+00 0.  1.
    9000005    2    1    2  501    0  0.25857248875E+02  0.54646339774E+02 -0.59013944732E+03  0.59324988658E+03  0.51030262184E+01 0.  0.
         13    1    3    3    0    0  0.35150358884E+01  0.11904775805E+02 -0.12829134514E+03  0.12889045116E+03  0.00000000000E+00 0.  1.
          3    1    3    3  501    0  0.22342212987E+02  0.42741563969E+02 -0.46184810218E+03  0.46435943542E+03  0.00000000000E+00 0.  1.
         -3    1    1    2    0  502 -0.25857248875E+02 -0.54646339774E+02 -0.40606753484E+03  0.41054313126E+03  0.00000000000E+00 0. -1.
<mgrwt>
<rscale>  1 0.30000000E+03</rscale>
<asrwt>0</asrwt>
<pdfrwt beam="1">  1       21 0.13792821E-01 0.30000000E+03</pdfrwt>
<pdfrwt beam="2">0</pdfrwt>
<totfact> 0.48064654E+03</totfact>
</mgrwt>
</event>
<event>
 6    1  0.6377696E-002  0.3000000E+03  0.7818608E-02  0.1093470E+00
         21   -1    0    0  501  502  0.00000000000E+00  0.00000000000E+00  0.10863490301E+02  0.10863490301E+02  0.00000000000E+00 0. -1.
         13   -1    0    0    0    0 -0.00000000000E+00 -0.00000000000E+00 -0.10000000000E+04  0.10000000000E+04  0.00000000000E+00 0.  1.
    9000005    2    1    2  501    0  0.60047274621E+02 -0.77117853126E+02 -0.31961178429E+03  0.33424232865E+03  0.36610305065E+01 0.  0.
         13    1    3    3    0    0  0.13717286757E+02 -0.15296726999E+02 -0.68649748545E+02  0.71658508135E+02  0.00000000000E+00 0.  1.
          1    1    3    3  501    0  0.46329987864E+02 -0.61821126128E+02 -0.25096203574E+03  0.26258382051E+03  0.00000000000E+00 0.  1.
         -3    1    1    2    0  502 -0.60047274621E+02  0.77117853126E+02 -0.66952472541E+03  0.67662116165E+03  0.00000000000E+00 0. -1.
<mgrwt>
<rscale>  1 0.30000000E+03</rscale>
<asrwt>0</asrwt>
<pdfrwt beam="1">  1       21 0.39503684E-01 0.30000000E+03</pdfrwt>
<pdfrwt beam="2">0</pdfrwt>
<totfact> 0.61995212E+02</totfact>
</mgrwt>
</event>
<event>
 6    1  0.6377696E-002  0.3000000E+03  0.7818608E-02  0.1093470E+00
         21   -1    0    0  501  502  0.00000000000E+00  0.00000000000E+00  0.11914526760E+01  0.11914526760E+01  0.00000000000E+00 0. -1.
         13   -1    0    0    0    0 -0.00000000000E+00 -0.00000000000E+00 -0.10000000000E+04  0.10000000000E+04  0.00000000000E+00 0.  1.
    9000005    2    1    2  501    0  0.16730634642E+02 -0.25507206766E+02 -0.72945971897E+03  0.73012075513E+03  0.58569393855E+01 0.  0.
         13    1    3    3    0    0  0.27899741952E+01 -0.43712447254E+01 -0.18495040145E+03  0.18502308702E+03  0.00000000000E+00 0.  1.
          1    1    3    3  501    0  0.13940660447E+02 -0.21135962041E+02 -0.54450931753E+03  0.54509766811E+03  0.00000000000E+00 0.  1.
         -3    1    1    2    0  502 -0.16730634642E+02  0.25507206766E+02 -0.26934882835E+03  0.27107069754E+03  0.00000000000E+00 0. -1.
<mgrwt>
<rscale>  1 0.30000000E+03</rscale>
<asrwt>0</asrwt>
<pdfrwt beam="1">  1       21 0.43325643E-02 0.30000000E+03</pdfrwt>
<pdfrwt beam="2">0</pdfrwt>
<totfact> 0.36744774E+04</totfact>
</mgrwt>
</event>
<event>
 6    1  0.6377696E-002  0.3000000E+03  0.7818608E-02  0.1093470E+00
         21   -1    0    0  501  502  0.00000000000E+00  0.00000000000E+00  0.10670464280E+01  0.10670464280E+01  0.00000000000E+00 0. -1.
         13   -1    0    0    0    0 -0.00000000000E+00 -0.00000000000E+00 -0.10000000000E+04  0.10000000000E+04  0.00000000000E+00 0.  1.
    9000005    2    1    2  501    0 -0.29199689773E+02 -0.13251688295E+02 -0.58234750270E+03  0.58324930266E+03  0.47860246747E+01 0.  0.
         13    1    3    3    0    0 -0.50000059778E+01 -0.26792603175E+01 -0.74507673607E+02  0.74723302402E+02  0.00000000000E+00 0.  1.
          3    1    3    3  501    0 -0.24199683795E+02 -0.10572427978E+02 -0.50783982909E+03  0.50852600026E+03  0.00000000000E+00 0.  1.
         -3    1    1    2    0  502  0.29199689773E+02  0.13251688295E+02 -0.41658545087E+03  0.41781774377E+03  0.00000000000E+00 0. -1.
<mgrwt>
<rscale>  1 0.30000000E+03</rscale>
<asrwt>0</asrwt>
<pdfrwt beam="1">  1       21 0.38801770E-02 0.30000000E+03</pdfrwt>
<pdfrwt beam="2">0</pdfrwt>
<totfact> 0.44255320E+04</totfact>
</mgrwt>
</event>
<event>
 6    1  0.6377696E-002  0.3000000E+03  0.7818608E-02  0.1093470E+00
         21   -1    0    0  501  502  0.00000000000E+00  0.00000000000E+00  0.13509904350E+01  0.13509904350E+01  0.00000000000E+00 0. -1.
         13   -1    0    0    0    0 -0.00000000000E+00 -0.00000000000E+00 -0.10000000000E+04  0.10000000000E+04  0.00000000000E+00 0.  1.
    9000005    2    1    2  501    0 -0.23610678332E+02  0.22897763519E+02 -0.28049717171E+03  0.28244638347E+03  0.39401130315E+01 0.  0.
         13    1    3    3    0    0 -0.71152487890E+00  0.19051732379E+01 -0.20141645547E+02  0.20244056858E+02  0.00000000000E+00 0.  1.
          3    1    3    3  501    0 -0.22899153453E+02  0.20992590281E+02 -0.26035552616E+03  0.26220232661E+03  0.00000000000E+00 0.  1.
         -3    1    1    2    0  502  0.23610678332E+02 -0.22897763519E+02 -0.71815183786E+03  0.71890460697E+03  0.00000000000E+00 0. -1.
<mgrwt>
<rscale>  1 0.30000000E+03</rscale>
<asrwt>0</asrwt>
<pdfrwt beam="1">  1       21 0.49127029E-02 0.30000000E+03</pdfrwt>
<pdfrwt beam="2">0</pdfrwt>
<totfact> 0.29682295E+04</totfact>
</mgrwt>
</event>
<event>
 6    1  0.6377696E-002  0.3000000E+03  0.7818608E-02  0.1093470E+00
         21   -1    0    0  501  502  0.00000000000E+00  0.00000000000E+00  0.11008494842E+01  0.11008494842E+01  0.00000000000E+00 0. -1.
         13   -1    0    0    0    0 -0.00000000000E+00 -0.00000000000E+00 -0.10000000000E+04  0.10000000000E+04  0.00000000000E+00 0.  1.
    9000005    2    1    2  501    0 -0.21644168246E+02  0.23225133548E+02 -0.35984344050E+03  0.36125705811E+03  0.33887344333E+01 0.  0.
         13    1    3    3    0    0 -0.45387343922E+01  0.65989894521E+01 -0.80882825554E+02  0.81278399599E+02  0.00000000000E+00 0.  1.
          3    1    3    3  501    0 -0.17105433854E+02  0.16626144096E+02 -0.27896061494E+03  0.27997865852E+03  0.00000000000E+00 0.  1.
         -3    1    1    2    0  502  0.21644168246E+02 -0.23225133548E+02 -0.63905571002E+03  0.63984379137E+03  0.00000000000E+00 0. -1.
<mgrwt>
<rscale>  1 0.30000000E+03</rscale>
<asrwt>0</asrwt>
<pdfrwt beam="1">  1       21 0.40030975E-02 0.30000000E+03</pdfrwt>
<pdfrwt beam="2">0</pdfrwt>
<totfact> 0.41992547E+04</totfact>
</mgrwt>
</event>
<event>
 6    1  0.6377696E-002  0.3000000E+03  0.7818608E-02  0.1093470E+00
         21   -1    0    0  501  502  0.00000000000E+00  0.00000000000E+00  0.12396935708E+01  0.12396935708E+01  0.00000000000E+00 0. -1.
         13   -1    0    0    0    0 -0.00000000000E+00 -0.00000000000E+00 -0.10000000000E+04  0.10000000000E+04  0.00000000000E+00 0.  1.
    9000005    2    1    2  501    0  0.29208789929E+02  0.75803354636E+01 -0.24557286963E+03  0.24744799167E+03  0.37228202850E+01 0.  0.
         13    1    3    3    0    0  0.14710161087E+02  0.28527155212E+01 -0.13482265377E+03  0.13565277290E+03  0.00000000000E+00 0.  1.
          1    1    3    3  501    0  0.14498628841E+02  0.47276199425E+01 -0.11075021586E+03  0.11179521878E+03  0.00000000000E+00 0.  1.
         -1    1    1    2    0  502 -0.29208789929E+02 -0.75803354636E+01 -0.75318743680E+03  0.75379170190E+03  0.00000000000E+00 0. -1.
<mgrwt>
<rscale>  1 0.30000000E+03</rscale>
<asrwt>0</asrwt>
<pdfrwt beam="1">  1       21 0.45079861E-02 0.30000000E+03</pdfrwt>
<pdfrwt beam="2">0</pdfrwt>
<totfact> 0.34354659E+04</totfact>
</mgrwt>
</event>
<event>
 6    1  0.6377696E-002  0.3000000E+03  0.7818608E-02  0.1093470E+00
         21   -1    0    0  501  502  0.00000000000E+00  0.00000000000E+00  0.18183581244E+01  0.18183581244E+01  0.00000000000E+00 0. -1.
         13   -1    0    0    0    0 -0.00000000000E+00 -0.00000000000E+00 -0.10000000000E+04  0.10000000000E+04  0.00000000000E+00 0.  1.
    9000005    2    1    2  501    0  0.41354796666E+02  0.99591636699E+01 -0.49194157580E+03  0.49379433443E+03  0.41141911020E+01 0.  0.
         13    1    3    3    0    0  0.36497935314E+02  0.98361990098E+01 -0.44466964456E+03  0.44627339477E+03  0.00000000000E+00 0.  1.
          3    1    3    3  501    0  0.48568613521E+01  0.12296466007E+00 -0.47271931244E+02  0.47520939659E+02  0.00000000000E+00 0.  1.
         -1    1    1    2    0  502 -0.41354796666E+02 -0.99591636699E+01 -0.50624006608E+03  0.50802402369E+03  0.00000000000E+00 0. -1.
<mgrwt>
<rscale>  1 0.30000000E+03</rscale>
<asrwt>0</asrwt>
<pdfrwt beam="1">  1       21 0.66122253E-02 0.30000000E+03</pdfrwt>
<pdfrwt beam="2">0</pdfrwt>
<totfact> 0.17813892E+04</totfact>
</mgrwt>
</event>
<event>
 6    1  0.6377696E-002  0.3000000E+03  0.7818608E-02  0.1093470E+00
         21   -1    0    0  501  502  0.00000000000E+00  0.00000000000E+00  0.13678587118E+01  0.13678587118E+01  0.00000000000E+00 0. -1.
         13   -1    0    0    0    0 -0.00000000000E+00 -0.00000000000E+00 -0.10000000000E+04  0.10000000000E+04  0.00000000000E+00 0.  1.
    9000005    2    1    2  501    0 -0.16946126274E+01 -0.35864694026E+02 -0.59805296765E+03  0.59918279889E+03  0.79703440158E+01 0.  0.
         13    1    3    3    0    0  0.29028508236E+01 -0.17916851050E+02 -0.27379424080E+03  0.27439520110E+03  0.00000000000E+00 0.  1.
          1    1    3    3  501    0 -0.45974634510E+01 -0.17947842976E+02 -0.32425872685E+03  0.32478759779E+03  0.00000000000E+00 0.  1.
         -3    1    1    2    0  502  0.16946126274E+01  0.35864694026E+02 -0.40057917364E+03  0.40218505982E+03  0.00000000000E+00 0. -1.
<mgrwt>
<rscale>  1 0.30000000E+03</rscale>
<asrwt>0</asrwt>
<pdfrwt beam="1">  1       21 0.49740422E-02 0.30000000E+03</pdfrwt>
<pdfrwt beam="2">0</pdfrwt>
<totfact> 0.29061350E+04</totfact>
</mgrwt>
</event>
<event>
 6    1  0.6377696E-002  0.3000000E+03  0.7818608E-02  0.1093470E+00
         21   -1    0    0  501  502  0.00000000000E+00  0.00000000000E+00  0.14127197797E+01  0.14127197797E+01  0.00000000000E+00 0. -1.
         13   -1    0    0    0    0 -0.00000000000E+00 -0.00000000000E+00 -0.10000000000E+04  0.10000000000E+04  0.00000000000E+00 0.  1.
    9000005    2    1    2  501    0  0.18804832724E+02 -0.32340474926E+02 -0.46503642697E+03  0.46655195186E+03  0.35096048225E+01 0.  0.
         13    1    3    3    0    0  0.12612881464E+02 -0.24381760108E+02 -0.33035067820E+03  0.33148925412E+03  0.00000000000E+00 0.  1.
          1    1    3    3  501    0  0.61919512594E+01 -0.79587148181E+01 -0.13468574877E+03  0.13506269775E+03  0.00000000000E+00 0.  1.
         -1    1    1    2    0  502 -0.18804832724E+02  0.32340474926E+02 -0.53355085325E+03  0.53486076792E+03  0.00000000000E+00 0. -1.
<mgrwt>
<rscale>  1 0.30000000E+03</rscale>
<asrwt>0</asrwt>
<pdfrwt beam="1">  1       21 0.51371737E-02 0.30000000E+03</pdfrwt>
<pdfrwt beam="2">0</pdfrwt>
<totfact> 0.27504959E+04</totfact>
</mgrwt>
</event>
<event>
 6    1  0.6377696E-002  0.3000000E+03  0.7818608E-02  0.1093470E+00
         21   -1    0    0  501  502  0.00000000000E+00  0.00000000000E+00  0.15360662678E+01  0.15360662678E+01  0.00000000000E+00 0. -1.
         13   -1    0    0    0    0 -0.00000000000E+00 -0.00000000000E+00 -0.10000000000E+04  0.10000000000E+04  0.00000000000E+00 0.  1.
    9000005    2    1    2  501    0 -0.13645335995E+02 -0.35299304149E+02 -0.62725204491E+03  0.62840002878E+03  0.30384636680E+01 0.  0.
         13    1    3    3    0    0 -0.55658401361E+01 -0.18097834518E+02 -0.32508358292E+03  0.32563452838E+03  0.00000000000E+00 0.  1.
          3    1    3    3  501    0 -0.80794958586E+01 -0.17201469630E+02 -0.30216846199E+03  0.30276550040E+03  0.00000000000E+00 0.  1.
         -1    1    1    2    0  502  0.13645335995E+02  0.35299304149E+02 -0.37121188882E+03  0.37313603749E+03  0.00000000000E+00 0. -1.
<mgrwt>
<rscale>  1 0.30000000E+03</rscale>
<asrwt>0</asrwt>
<pdfrwt beam="1">  1       21 0.55857073E-02 0.30000000E+03</pdfrwt>
<pdfrwt beam="2">0</pdfrwt>
<totfact> 0.23833401E+04</totfact>
</mgrwt>
</event>
<event>
 6    1  0.6377696E-002  0.3000000E+03  0.7818608E-02  0.1093470E+00
         21   -1    0    0  501  502  0.00000000000E+00  0.00000000000E+00  0.12728838002E+01  0.12728838002E+01  0.00000000000E+00 0. -1.
         13   -1    0    0    0    0 -0.00000000000E+00 -0.00000000000E+00 -0.10000000000E+04  0.10000000000E+04  0.00000000000E+00 0.  1.
    9000005    2    1    2  501    0  0.23205805090E+02  0.22681660408E+02 -0.70602217760E+03  0.70677475445E+03  0.32048649463E+01 0.  0.
         13    1    3    3    0    0  0.71526412211E+00  0.83892354920E+00 -0.39841412715E+02  0.39856662713E+02  0.00000000000E+00 0.  1.
          1    1    3    3  501    0  0.22490540967E+02  0.21842736859E+02 -0.66618076489E+03  0.66691809174E+03  0.00000000000E+00 0.  1.
         -1    1    1    2    0  502 -0.23205805090E+02 -0.22681660408E+02 -0.29270493860E+03  0.29449812935E+03  0.00000000000E+00 0. -1.
<mgrwt>
<rscale>  1 0.30000000E+03</rscale>
<asrwt>0</asrwt>
<pdfrwt beam="1">  1       21 0.46286781E-02 0.30000000E+03</pdfrwt>
<pdfrwt beam="2">0</pdfrwt>
<totfact> 0.32847075E+04</totfact>
</mgrwt>
</event>
<event>
 6    1  0.6377696E-002  0.3000000E+03  0.7818608E-02  0.1093470E+00
         21   -1    0    0  501  502  0.00000000000E+00  0.00000000000E+00  0.13485349490E+01  0.13485349490E+01  0.00000000000E+00 0. -1.
         13   -1    0    0    0    0 -0.00000000000E+00 -0.00000000000E+00 -0.10000000000E+04  0.10000000000E+04  0.00000000000E+00 0.  1.
    9000005    2    1    2  501    0 -0.26587074314E+02  0.24695762989E+02 -0.57004859099E+03  0.57121230434E+03  0.33685765687E+01 0.  0.
         13    1    3    3    0    0 -0.15117439859E+01  0.18209356107E+01 -0.51246328205E+02  0.51300948635E+02  0.00000000000E+00 0.  1.
          1    1    3    3  501    0 -0.25075330328E+02  0.22874827379E+02 -0.51880226279E+03  0.51991135571E+03  0.00000000000E+00 0.  1.
         -1    1    1    2    0  502  0.26587074314E+02 -0.24695762989E+02 -0.42860287406E+03  0.43013623061E+03  0.00000000000E+00 0. -1.
<mgrwt>
<rscale>  1 0.30000000E+03</rscale>
<asrwt>0</asrwt>
<pdfrwt beam="1">  1       21 0.49037738E-02 0.30000000E+03</pdfrwt>
<pdfrwt beam="2">0</pdfrwt>
<totfact> 0.29774409E+04</totfact>
</mgrwt>
</event>
<event>
 6    1  0.6377696E-002  0.3000000E+03  0.7818608E-02  0.1093470E+00
         21   -1    0    0  501  502  0.00000000000E+00  0.00000000000E+00  0.97370953135E+00  0.97370953135E+00  0.00000000000E+00 0. -1.
         13   -1    0    0    0    0 -0.00000000000E+00 -0.00000000000E+00 -0.10000000000E+04  0.10000000000E+04  0.00000000000E+00 0.  1.
    9000005    2    1    2  501    0  0.67267514779E+01  0.29853945886E+02 -0.40914011105E+03  0.41029426013E+03  0.30400919484E+01 0.  0.
         13    1    3    3    0    0  0.29732259313E+01  0.18929536558E+02 -0.24497306228E+03  0.24572132319E+03  0.00000000000E+00 0.  1.
          1    1    3    3  501    0  0.37535255466E+01  0.10924409328E+02 -0.16416704876E+03  0.16457293694E+03  0.00000000000E+00 0.  1.
         -1    1    1    2    0  502 -0.67267514779E+01 -0.29853945886E+02 -0.58988617942E+03  0.59067944940E+03  0.00000000000E+00 0. -1.
<mgrwt>
<rscale>  1 0.30000000E+03</rscale>
<asrwt>0</asrwt>
<pdfrwt beam="1">  1       21 0.35407694E-02 0.30000000E+03</pdfrwt>
<pdfrwt beam="2">0</pdfrwt>
<totfact> 0.51605856E+04</totfact>
</mgrwt>
</event>
<event>
 6    1  0.6377696E-002  0.3000000E+03  0.7818608E-02  0.1093470E+00
         21   -1    0    0  501  502  0.00000000000E+00  0.00000000000E+00  0.17250651280E+01  0.17250651280E+01  0.00000000000E+00 0. -1.
         13   -1    0    0    0    0 -0.00000000000E+00 -0.00000000000E+00 -0.10000000000E+04  0.10000000000E+04  0.00000000000E+00 0.  1.
    9000005    2    1    2  501    0 -0.75822803449E+00  0.39953140744E+02 -0.36605902192E+03  0.36824752887E+03  0.31947798350E+01 0.  0.
         13    1    3    3    0    0 -0.66878535344E+00  0.12427335975E+02 -0.10137525743E+03  0.10213632445E+03  0.00000000000E+00 0.  1.
          1    1    3    3  501    0 -0.89442681044E-01  0.27525804769E+02 -0.26468376450E+03  0.26611120442E+03  0.00000000000E+00 0.  1.
         -3    1    1    2    0  502  0.75822803449E+00 -0.39953140744E+02 -0.63221591295E+03  0.63347753626E+03  0.00000000000E+00 0. -1.
<mgrwt>
<rscale>  1 0.30000000E+03</rscale>
<asrwt>0</asrwt>
<pdfrwt beam="1">  1       21 0.62729773E-02 0.30000000E+03</pdfrwt>
<pdfrwt beam="2">0</pdfrwt>
<totfact> 0.19513841E+04</totfact>
</mgrwt>
</event>
<event>
 6    1  0.6377696E-002  0.3000000E+03  0.7818608E-02  0.1093470E+00
         21   -1    0    0  501  502  0.00000000000E+00  0.00000000000E+00  0.16230783251E+01  0.16230783251E+01  0.00000000000E+00 0. -1.
         13   -1    0    0    0    0 -0.00000000000E+00 -0.00000000000E+00 -0.10000000000E+04  0.10000000000E+04  0.00000000000E+00 0.  1.
    9000005    2    1    2  501    0  0.39803226283E+02  0.47930213795E+01 -0.46186658608E+03  0.46361693516E+03  0.35565937761E+01 0.  0.
         13    1    3    3    0    0  0.32430654407E+02  0.28324473305E+01 -0.38407982752E+03  0.38545698075E+03  0.00000000000E+00 0.  1.
          1    1    3    3  501    0  0.73725718763E+01  0.19605740490E+01 -0.77786758559E+02  0.78159954413E+02  0.00000000000E+00 0.  1.
         -3    1    1    2    0  502 -0.39803226283E+02 -0.47930213795E+01 -0.53651033560E+03  0.53800614316E+03  0.00000000000E+00 0. -1.
<mgrwt>
<rscale>  1 0.30000000E+03</rscale>
<asrwt>0</asrwt>
<pdfrwt beam="1">  1       21 0.59021154E-02 0.30000000E+03</pdfrwt>
<pdfrwt beam="2">0</pdfrwt>
<totfact> 0.21677791E+04</totfact>
</mgrwt>
</event>
<event>
 6    1  0.6377696E-002  0.3000000E+03  0.7818608E-02  0.1093470E+00
         21   -1    0    0  501  502  0.00000000000E+00  0.00000000000E+00  0.11050801581E+01  0.11050801581E+01  0.00000000000E+00 0. -1.
         13   -1    0    0    0    0 -0.00000000000E+00 -0.00000000000E+00 -0.10000000000E+04  0.10000000000E+04  0.00000000000E+00 0.  1.
    9000005    2    1    2  501    0 -0.80638063347E+01 -0.32059036018E+02 -0.45655595043E+03  0.45775955059E+03  0.27683057852E+01 0.  0.
         13    1    3    3    0    0 -0.37208707295E+01 -0.12836373952E+02 -0.20231962491E+03  0.20276056816E+03  0.00000000000E+00 0.  1.
          3    1    3    3  501    0 -0.43429356052E+01 -0.19222662066E+02 -0.25423632552E+03  0.25499898243E+03  0.00000000000E+00 0.  1.
         -1    1    1    2    0  502  0.80638063347E+01  0.32059036018E+02 -0.54233896941E+03  0.54334552957E+03  0.00000000000E+00 0. -1.
<mgrwt>
<rscale>  1 0.30000000E+03</rscale>
<asrwt>0</asrwt>
<pdfrwt beam="1">  1       21 0.40184818E-02 0.30000000E+03</pdfrwt>
<pdfrwt beam="2">0</pdfrwt>
<totfact> 0.41722134E+04</totfact>
</mgrwt>
</event>
<event>
 6    1  0.6377696E-002  0.3000000E+03  0.7818608E-02  0.1093470E+00
         21   -1    0    0  501  502  0.00000000000E+00  0.00000000000E+00  0.31057422907E+01  0.31057422907E+01  0.00000000000E+00 0. -1.
         13   -1    0    0    0    0 -0.00000000000E+00 -0.00000000000E+00 -0.10000000000E+04  0.10000000000E+04  0.00000000000E+00 0.  1.
    9000005    2    1    2  501    0 -0.37238482109E+02  0.24994560661E+02 -0.20180531300E+03  0.20675289172E+03  0.31529775300E+01 0.  0.
         13    1    3    3    0    0 -0.23309850218E+02  0.17222911574E+02 -0.13357627540E+03  0.13668430470E+03  0.00000000000E+00 0.  1.
          3    1    3    3  501    0 -0.13928631891E+02  0.77716490868E+01 -0.68229037593E+02  0.70068587018E+02  0.00000000000E+00 0.  1.
         -1    1    1    2    0  502  0.37238482109E+02 -0.24994560661E+02 -0.79508894471E+03  0.79635285057E+03  0.00000000000E+00 0. -1.
<mgrwt>
<rscale>  1 0.30000000E+03</rscale>
<asrwt>0</asrwt>
<pdfrwt beam="1">  1       21 0.11293632E-01 0.30000000E+03</pdfrwt>
<pdfrwt beam="2">0</pdfrwt>
<totfact> 0.69159426E+03</totfact>
</mgrwt>
</event>
<event>
 6    1  0.6377696E-002  0.3000000E+03  0.7818608E-02  0.1093470E+00
         21   -1    0    0  501  502  0.00000000000E+00  0.00000000000E+00  0.26314941030E+01  0.26314941030E+01  0.00000000000E+00 0. -1.
         13   -1    0    0    0    0 -0.00000000000E+00 -0.00000000000E+00 -0.10000000000E+04  0.10000000000E+04  0.00000000000E+00 0.  1.
    9000005    2    1    2  501    0  0.20968368197E+02  0.42406392789E+02 -0.69166236200E+03  0.69328666865E+03  0.34069510118E+01 0.  0.
         13    1    3    3    0    0  0.85843068328E+01  0.15152923726E+02 -0.27398658594E+03  0.27453952483E+03  0.00000000000E+00 0.  1.
          1    1    3    3  501    0  0.12384061364E+02  0.27253469063E+02 -0.41767577606E+03  0.41874714382E+03  0.00000000000E+00 0.  1.
         -3    1    1    2    0  502 -0.20968368197E+02 -0.42406392789E+02 -0.30570614390E+03  0.30934482545E+03  0.00000000000E+00 0. -1.
<mgrwt>
<rscale>  1 0.30000000E+03</rscale>
<asrwt>0</asrwt>
<pdfrwt beam="1">  1       21 0.95690896E-02 0.30000000E+03</pdfrwt>
<pdfrwt beam="2">0</pdfrwt>
<totfact> 0.93067647E+03</totfact>
</mgrwt>
</event>
<event>
 6    1  0.6377696E-002  0.3000000E+03  0.7818608E-02  0.1093470E+00
         21   -1    0    0  501  502  0.00000000000E+00  0.00000000000E+00  0.17843329503E+01  0.17843329503E+01  0.00000000000E+00 0. -1.
         13   -1    0    0    0    0 -0.00000000000E+00 -0.00000000000E+00 -0.10000000000E+04  0.10000000000E+04  0.00000000000E+00 0.  1.
    9000005    2    1    2  501    0 -0.24699564959E+02  0.34058342129E+02 -0.48047248139E+03  0.48233458035E+03  0.47752332098E+01 0.  0.
         13    1    3    3    0    0 -0.12036845094E+02  0.18722754311E+02 -0.23048328253E+03  0.23155554559E+03  0.00000000000E+00 0.  1.
          1    1    3    3  501    0 -0.12662719864E+02  0.15335587818E+02 -0.24998919886E+03  0.25077903476E+03  0.00000000000E+00 0.  1.
         -3    1    1    2    0  502  0.24699564959E+02 -0.34058342129E+02 -0.51774318566E+03  0.51944975260E+03  0.00000000000E+00 0. -1.
<mgrwt>
<rscale>  1 0.30000000E+03</rscale>
<asrwt>0</asrwt>
<pdfrwt beam="1">  1       21 0.64884971E-02 0.30000000E+03</pdfrwt>
<pdfrwt beam="2">0</pdfrwt>
<totfact> 0.18406403E+04</totfact>
</mgrwt>
</event>
<event>
 6    1  0.6377696E-002  0.3000000E+03  0.7818608E-02  0.1093470E+00
         21   -1    0    0  501  502  0.00000000000E+00  0.00000000000E+00  0.94687769060E+00  0.94687769060E+00  0.00000000000E+00 0. -1.
         13   -1    0    0    0    0 -0.00000000000E+00 -0.00000000000E+00 -0.10000000000E+04  0.10000000000E+04  0.00000000000E+00 0.  1.
    9000005    2    1    2  501    0  0.10421379489E+02  0.28284607741E+02 -0.40849648311E+03  0.40962144420E+03  0.34244201177E+01 0.  0.
         13    1    3    3    0    0  0.93421374979E+01  0.27367300470E+02 -0.38817423911E+03  0.38924989991E+03  0.00000000000E+00 0.  1.
          1    1    3    3  501    0  0.10792419909E+01  0.91730727103E+00 -0.20322243994E+02  0.20371544293E+02  0.00000000000E+00 0.  1.
         -1    1    1    2    0  502 -0.10421379489E+02 -0.28284607741E+02 -0.59055663920E+03  0.59132543349E+03  0.00000000000E+00 0. -1.
<mgrwt>
<rscale>  1 0.30000000E+03</rscale>
<asrwt>0</asrwt>
<pdfrwt beam="1">  1       21 0.34431989E-02 0.30000000E+03</pdfrwt>
<pdfrwt beam="2">0</pdfrwt>
<totfact> 0.54077449E+04</totfact>
</mgrwt>
</event>
<event>
 6    1  0.6377696E-002  0.3000000E+03  0.7818608E-02  0.1093470E+00
         21   -1    0    0  501  502  0.00000000000E+00  0.00000000000E+00  0.20637016618E+01  0.20637016618E+01  0.00000000000E+00 0. -1.
         13   -1    0    0    0    0 -0.00000000000E+00 -0.00000000000E+00 -0.10000000000E+04  0.10000000000E+04  0.00000000000E+00 0.  1.
    9000005    2    1    2  501    0 -0.20235976638E+02  0.34653828913E+02 -0.73282304423E+03  0.73393048829E+03  0.37369612295E+01 0.  0.
         13    1    3    3    0    0 -0.12014323602E+02  0.23240308172E+02 -0.45487573874E+03  0.45562747238E+03  0.00000000000E+00 0.  1.
          3    1    3    3  501    0 -0.82216530364E+01  0.11413520742E+02 -0.27794730549E+03  0.27830301591E+03  0.00000000000E+00 0.  1.
         -1    1    1    2    0  502  0.20235976638E+02 -0.34653828913E+02 -0.26511325411E+03  0.26813321337E+03  0.00000000000E+00 0. -1.
<mgrwt>
<rscale>  1 0.30000000E+03</rscale>
<asrwt>0</asrwt>
<pdfrwt beam="1">  1       21 0.75043855E-02 0.30000000E+03</pdfrwt>
<pdfrwt beam="2">0</pdfrwt>
<totfact> 0.14289830E+04</totfact>
</mgrwt>
</event>
<event>
 6    1  0.6377696E-002  0.3000000E+03  0.7818608E-02  0.1093470E+00
         21   -1    0    0  501  502  0.00000000000E+00  0.00000000000E+00  0.16498723300E+01  0.16498723300E+01  0.00000000000E+00 0. -1.
         13   -1    0    0    0    0 -0.00000000000E+00 -0.00000000000E+00 -0.10000000000E+04  0.10000000000E+04  0.00000000000E+00 0.  1.
    9000005    2    1    2  501    0 -0.30036255399E+02 -0.27004722969E+02 -0.54478766195E+03  0.54629249399E+03  0.32342963509E+01 0.  0.
         13    1    3    3    0    0 -0.27335828983E+02 -0.23727628173E+02 -0.47645413637E+03  0.47782715699E+03  0.00000000000E+00 0.  1.
          1    1    3    3  501    0 -0.27004264161E+01 -0.32770947958E+01 -0.68333525580E+02  0.68465337005E+02  0.00000000000E+00 0.  1.
         -3    1    1    2    0  502  0.30036255399E+02  0.27004722969E+02 -0.45356246572E+03  0.45535737834E+03  0.00000000000E+00 0. -1.
<mgrwt>
<rscale>  1 0.30000000E+03</rscale>
<asrwt>0</asrwt>
<pdfrwt beam="1">  1       21 0.59995484E-02 0.30000000E+03</pdfrwt>
<pdfrwt beam="2">0</pdfrwt>
<totfact> 0.21074401E+04</totfact>
</mgrwt>
</event>
<event>
 6    1  0.6377696E-002  0.3000000E+03  0.7818608E-02  0.1093470E+00
         21   -1    0    0  501  502  0.00000000000E+00  0.00000000000E+00  0.18891347706E+01  0.18891347706E+01  0.00000000000E+00 0. -1.
         13   -1    0    0    0    0 -0.00000000000E+00 -0.00000000000E+00 -0.10000000000E+04  0.10000000000E+04  0.00000000000E+00 0.  1.
    9000005    2    1    2  501    0 -0.96298175496E+01  0.31806886502E+02 -0.18028582406E+03  0.18338915958E+03  0.49187479454E+01 0.  0.
         13    1    3    3    0    0  0.44106150570E+00  0.38521044505E+01 -0.21724294844E+02  0.22067583248E+02  0.00000000000E+00 0.  1.
          3    1    3    3  501    0 -0.10070879055E+02  0.27954782051E+02 -0.15856152921E+03  0.16132157633E+03  0.00000000000E+00 0.  1.
         -1    1    1    2    0  502  0.96298175496E+01 -0.31806886502E+02 -0.81782504117E+03  0.81849997519E+03  0.00000000000E+00 0. -1.
<mgrwt>
<rscale>  1 0.30000000E+03</rscale>
<asrwt>0</asrwt>
<pdfrwt beam="1">  1       21 0.68695955E-02 0.30000000E+03</pdfrwt>
<pdfrwt beam="2">0</pdfrwt>
<totfact> 0.16671675E+04</totfact>
</mgrwt>
</event>
<event>
 6    1  0.6377696E-002  0.3000000E+03  0.7818608E-02  0.1093470E+00
         21   -1    0    0  501  502  0.00000000000E+00  0.00000000000E+00  0.93136659598E+00  0.93136659598E+00  0.00000000000E+00 0. -1.
         13   -1    0    0    0    0 -0.00000000000E+00 -0.00000000000E+00 -0.10000000000E+04  0.10000000000E+04  0.00000000000E+00 0.  1.
    9000005    2    1    2  501    0 -0.28024644049E+02  0.11060628631E+02 -0.49853747294E+03  0.49949427107E+03  0.68699869613E+01 0.  0.
         13    1    3    3    0    0 -0.11938715972E+02  0.26834545964E+01 -0.24763989625E+03  0.24794203372E+03  0.00000000000E+00 0.  1.
          3    1    3    3  501    0 -0.16085928077E+02  0.83771740347E+01 -0.25089757669E+03  0.25155223735E+03  0.00000000000E+00 0.  1.
         -1    1    1    2    0  502  0.28024644049E+02 -0.11060628631E+02 -0.50053116046E+03  0.50143709553E+03  0.00000000000E+00 0. -1.
<mgrwt>
<rscale>  1 0.30000000E+03</rscale>
<asrwt>0</asrwt>
<pdfrwt beam="1">  1       21 0.33867948E-02 0.30000000E+03</pdfrwt>
<pdfrwt beam="2">0</pdfrwt>
<totfact> 0.55591315E+04</totfact>
</mgrwt>
</event>
<event>
 6    1  0.6377696E-002  0.3000000E+03  0.7818608E-02  0.1093470E+00
         21   -1    0    0  501  502  0.00000000000E+00  0.00000000000E+00  0.12267361411E+01  0.12267361411E+01  0.00000000000E+00 0. -1.
         13   -1    0    0    0    0 -0.00000000000E+00 -0.00000000000E+00 -0.10000000000E+04  0.10000000000E+04  0.00000000000E+00 0.  1.
    9000005    2    1    2  501    0 -0.34372532058E+02  0.35554457069E+01 -0.42390082497E+03  0.42531664493E+03  0.28682569019E+01 0.  0.
         13    1    3    3    0    0 -0.13399355379E+01  0.56072747139E+00 -0.23193993471E+02  0.23239431484E+02  0.00000000000E+00 0.  1.
          3    1    3    3  501    0 -0.33032596521E+02  0.29947182355E+01 -0.40070683149E+03  0.40207721345E+03  0.00000000000E+00 0.  1.
         -1    1    1    2    0  502  0.34372532058E+02 -0.35554457069E+01 -0.57487243889E+03  0.57591009121E+03  0.00000000000E+00 0. -1.
<mgrwt>
<rscale>  1 0.30000000E+03</rscale>
<asrwt>0</asrwt>
<pdfrwt beam="1">  1       21 0.44608681E-02 0.30000000E+03</pdfrwt>
<pdfrwt beam="2">0</pdfrwt>
<totfact> 0.34972509E+04</totfact>
</mgrwt>
</event>
<event>
 6    1  0.6377696E-002  0.3000000E+03  0.7818608E-02  0.1093470E+00
         21   -1    0    0  501  502  0.00000000000E+00  0.00000000000E+00  0.13217116045E+01  0.13217116045E+01  0.00000000000E+00 0. -1.
         13   -1    0    0    0    0 -0.00000000000E+00 -0.00000000000E+00 -0.10000000000E+04  0.10000000000E+04  0.00000000000E+00 0.  1.
    9000005    2    1    2  501    0 -0.35785206929E+02  0.46082064380E+01 -0.55324561187E+03  0.55443012977E+03  0.32008025896E+01 0.  0.
         13    1    3    3    0    0 -0.26890387076E+02  0.37406679197E+01 -0.43593296217E+03  0.43677755554E+03  0.00000000000E+00 0.  1.
          1    1    3    3  501    0 -0.88948198537E+01  0.86753851829E+00 -0.11731264970E+03  0.11765257423E+03  0.00000000000E+00 0.  1.
         -3    1    1    2    0  502  0.35785206929E+02 -0.46082064380E+01 -0.44543267653E+03  0.44689158184E+03  0.00000000000E+00 0. -1.
<mgrwt>
<rscale>  1 0.30000000E+03</rscale>
<asrwt>0</asrwt>
<pdfrwt beam="1">  1       21 0.48062342E-02 0.30000000E+03</pdfrwt>
<pdfrwt beam="2">0</pdfrwt>
<totfact> 0.30810418E+04</totfact>
</mgrwt>
</event>
<event>
 6    1  0.6377696E-002  0.3000000E+03  0.7818608E-02  0.1093470E+00
         21   -1    0    0  501  502  0.00000000000E+00  0.00000000000E+00  0.12030202064E+01  0.12030202064E+01  0.00000000000E+00 0. -1.
         13   -1    0    0    0    0 -0.00000000000E+00 -0.00000000000E+00 -0.10000000000E+04  0.10000000000E+04  0.00000000000E+00 0.  1.
    9000005    2    1    2  501    0 -0.31921072595E+02 -0.12521294877E+02 -0.56749200913E+03  0.56853719602E+03  0.34095643985E+01 0.  0.
         13    1    3    3    0    0 -0.29924290671E+02 -0.11001571091E+02 -0.53436708501E+03  0.53531736315E+03  0.00000000000E+00 0.  1.
          1    1    3    3  501    0 -0.19967819233E+01 -0.15197237852E+01 -0.33124924118E+02  0.33219832876E+02  0.00000000000E+00 0.  1.
         -1    1    1    2    0  502  0.31921072595E+02  0.12521294877E+02 -0.43130497066E+03  0.43266582419E+03  0.00000000000E+00 0. -1.
<mgrwt>
<rscale>  1 0.30000000E+03</rscale>
<asrwt>0</asrwt>
<pdfrwt beam="1">  1       21 0.43746282E-02 0.30000000E+03</pdfrwt>
<pdfrwt beam="2">0</pdfrwt>
<totfact> 0.36148722E+04</totfact>
</mgrwt>
</event>
<event>
 6    1  0.6377696E-002  0.3000000E+03  0.7818608E-02  0.1093470E+00
         21   -1    0    0  501  502  0.00000000000E+00  0.00000000000E+00  0.10518835445E+01  0.10518835445E+01  0.00000000000E+00 0. -1.
         13   -1    0    0    0    0 -0.00000000000E+00 -0.00000000000E+00 -0.10000000000E+04  0.10000000000E+04  0.00000000000E+00 0.  1.
    9000005    2    1    2  501    0  0.69618223438E+01 -0.30482955332E+02 -0.62910407395E+03  0.62988845146E+03  0.31381351853E+01 0.  0.
         13    1    3    3    0    0  0.48509011829E+01 -0.16074613925E+02 -0.35808386581E+03  0.35847730669E+03  0.00000000000E+00 0.  1.
          3    1    3    3  501    0  0.21109211609E+01 -0.14408341407E+02 -0.27102020813E+03  0.27141114477E+03  0.00000000000E+00 0.  1.
         -1    1    1    2    0  502 -0.69618223438E+01  0.30482955332E+02 -0.36984404251E+03  0.37116343208E+03  0.00000000000E+00 0. -1.
<mgrwt>
<rscale>  1 0.30000000E+03</rscale>
<asrwt>0</asrwt>
<pdfrwt beam="1">  1       21 0.38250391E-02 0.30000000E+03</pdfrwt>
<pdfrwt beam="2">0</pdfrwt>
<totfact> 0.45333015E+04</totfact>
</mgrwt>
</event>
<event>
 6    1  0.6377696E-002  0.3000000E+03  0.7818608E-02  0.1093470E+00
         21   -1    0    0  501  502  0.00000000000E+00  0.00000000000E+00  0.11785428845E+01  0.11785428845E+01  0.00000000000E+00 0. -1.
         13   -1    0    0    0    0 -0.00000000000E+00 -0.00000000000E+00 -0.10000000000E+04  0.10000000000E+04  0.00000000000E+00 0.  1.
    9000005    2    1    2  501    0  0.14246614319E+02 -0.30510038745E+02 -0.40881655317E+03  0.41021355648E+03  0.32185843516E+01 0.  0.
         13    1    3    3    0    0  0.95282274521E+00 -0.45125153457E+01 -0.51756854124E+02  0.51961934286E+02  0.00000000000E+00 0.  1.
          1    1    3    3  501    0  0.13293791574E+02 -0.25997523400E+02 -0.35705969905E+03  0.35825162219E+03  0.00000000000E+00 0.  1.
         -1    1    1    2    0  502 -0.14246614319E+02  0.30510038745E+02 -0.59000490394E+03  0.59096498641E+03  0.00000000000E+00 0. -1.
<mgrwt>
<rscale>  1 0.30000000E+03</rscale>
<asrwt>0</asrwt>
<pdfrwt beam="1">  1       21 0.42856195E-02 0.30000000E+03</pdfrwt>
<pdfrwt beam="2">0</pdfrwt>
<totfact> 0.37428166E+04</totfact>
</mgrwt>
</event>
<event>
 6    1  0.6377696E-002  0.3000000E+03  0.7818608E-02  0.1093470E+00
         21   -1    0    0  501  502  0.00000000000E+00  0.00000000000E+00  0.24737409442E+01  0.24737409442E+01  0.00000000000E+00 0. -1.
         13   -1    0    0    0    0 -0.00000000000E+00 -0.00000000000E+00 -0.10000000000E+04  0.10000000000E+04  0.00000000000E+00 0.  1.
    9000005    2    1    2  501    0 -0.22385231713E+02 -0.42035632114E+02 -0.35663516710E+03  0.35981560110E+03  0.32452138311E+01 0.  0.
         13    1    3    3    0    0 -0.17587601272E+02 -0.32065656964E+02 -0.26364778403E+03  0.26617228274E+03  0.00000000000E+00 0.  1.
          3    1    3    3  501    0 -0.47976304409E+01 -0.99699751500E+01 -0.92987383070E+02  0.93643318355E+02  0.00000000000E+00 0.  1.
         -3    1    1    2    0  502  0.22385231713E+02  0.42035632114E+02 -0.64089109196E+03  0.64265813985E+03  0.00000000000E+00 0. -1.
<mgrwt>
<rscale>  1 0.30000000E+03</rscale>
<asrwt>0</asrwt>
<pdfrwt beam="1">  1       21 0.89954406E-02 0.30000000E+03</pdfrwt>
<pdfrwt beam="2">0</pdfrwt>
<totfact> 0.10387411E+04</totfact>
</mgrwt>
</event>
<event>
 6    1  0.6377696E-002  0.3000000E+03  0.7818608E-02  0.1093470E+00
         21   -1    0    0  501  502  0.00000000000E+00  0.00000000000E+00  0.23464859820E+02  0.23464859820E+02  0.00000000000E+00 0. -1.
         13   -1    0    0    0    0 -0.00000000000E+00 -0.00000000000E+00 -0.10000000000E+04  0.10000000000E+04  0.00000000000E+00 0.  1.
    9000005    2    1    2  501    0 -0.14457425054E+03  0.40377736631E+02 -0.59005400822E+03  0.60885692346E+03  0.33083368570E+01 0.  0.
         13    1    3    3    0    0 -0.17657204599E+02  0.51974454430E+01 -0.68176843867E+02  0.70617790627E+02  0.00000000000E+00 0.  1.
          3    1    3    3  501    0 -0.12691704594E+03  0.35180291188E+02 -0.52187716435E+03  0.53823913283E+03  0.00000000000E+00 0.  1.
         -3    1    1    2    0  502  0.14457425054E+03 -0.40377736631E+02 -0.38648113196E+03  0.41460793636E+03  0.00000000000E+00 0. -1.
<mgrwt>
<rscale>  1 0.30000000E+03</rscale>
<asrwt>0</asrwt>
<pdfrwt beam="1">  1       21 0.85326943E-01 0.30000000E+03</pdfrwt>
<pdfrwt beam="2">0</pdfrwt>
<totfact> 0.10998169E+02</totfact>
</mgrwt>
</event>
<event>
 6    1  0.6377696E-002  0.3000000E+03  0.7818608E-02  0.1093470E+00
         21   -1    0    0  501  502  0.00000000000E+00  0.00000000000E+00  0.15546075362E+01  0.15546075362E+01  0.00000000000E+00 0. -1.
         13   -1    0    0    0    0 -0.00000000000E+00 -0.00000000000E+00 -0.10000000000E+04  0.10000000000E+04  0.00000000000E+00 0.  1.
    9000005    2    1    2  501    0  0.30242832904E+02  0.15102902978E+02 -0.24774254904E+03  0.25009104505E+03  0.51413605969E+01 0.  0.
         13    1    3    3    0    0  0.22873871309E+02  0.93389932208E+01 -0.18903084129E+03  0.19063863654E+03  0.00000000000E+00 0.  1.
          1    1    3    3  501    0  0.73689615949E+01  0.57639097570E+01 -0.58711707750E+02  0.59452408510E+02  0.00000000000E+00 0.  1.
         -3    1    1    2    0  502 -0.30242832904E+02 -0.15102902978E+02 -0.75070284342E+03  0.75146356248E+03  0.00000000000E+00 0. -1.
<mgrwt>
<rscale>  1 0.30000000E+03</rscale>
<asrwt>0</asrwt>
<pdfrwt beam="1">  1       21 0.56531302E-02 0.30000000E+03</pdfrwt>
<pdfrwt beam="2">0</pdfrwt>
<totfact> 0.23347284E+04</totfact>
</mgrwt>
</event>
<event>
 6    1  0.6377696E-002  0.3000000E+03  0.7818608E-02  0.1093470E+00
         21   -1    0    0  501  502  0.00000000000E+00  0.00000000000E+00  0.16759440252E+01  0.16759440252E+01  0.00000000000E+00 0. -1.
         13   -1    0    0    0    0 -0.00000000000E+00 -0.00000000000E+00 -0.10000000000E+04  0.10000000000E+04  0.00000000000E+00 0.  1.
    9000005    2    1    2  501    0  0.36059001954E+02  0.13381626053E+01 -0.26462293291E+03  0.26708804575E+03  0.29470767404E+01 0.  0.
         13    1    3    3    0    0  0.17238417974E+02 -0.77562540830E+00 -0.12315514326E+03  0.12435816805E+03  0.00000000000E+00 0.  1.
          1    1    3    3  501    0  0.18820583980E+02  0.21137880136E+01 -0.14146778965E+03  0.14272987770E+03  0.00000000000E+00 0.  1.
         -3    1    1    2    0  502 -0.36059001954E+02 -0.13381626053E+01 -0.73370112306E+03  0.73458789827E+03  0.00000000000E+00 0. -1.
<mgrwt>
<rscale>  1 0.30000000E+03</rscale>
<asrwt>0</asrwt>
<pdfrwt beam="1">  1       21 0.60943548E-02 0.30000000E+03</pdfrwt>
<pdfrwt beam="2">0</pdfrwt>
<totfact> 0.20512007E+04</totfact>
</mgrwt>
</event>
<event>
 6    1  0.6377696E-002  0.3000000E+03  0.7818608E-02  0.1093470E+00
         21   -1    0    0  501  502  0.00000000000E+00  0.00000000000E+00  0.15753225540E+01  0.15753225540E+01  0.00000000000E+00 0. -1.
         13   -1    0    0    0    0 -0.00000000000E+00 -0.00000000000E+00 -0.10000000000E+04  0.10000000000E+04  0.00000000000E+00 0.  1.
    9000005    2    1    2  501    0 -0.93006755828E+01  0.38497009833E+02 -0.51788275848E+03  0.51940413074E+03  0.30946996507E+01 0.  0.
         13    1    3    3    0    0 -0.91057163412E+01  0.38312065554E+02 -0.51621723121E+03  0.51771706388E+03  0.00000000000E+00 0.  1.
          3    1    3    3  501    0 -0.19495924165E+00  0.18494427883E+00 -0.16655272695E+01  0.16870668563E+01  0.00000000000E+00 0.  1.
         -1    1    1    2    0  502  0.93006755828E+01 -0.38497009833E+02 -0.48054191897E+03  0.48217119182E+03  0.00000000000E+00 0. -1.
<mgrwt>
<rscale>  1 0.30000000E+03</rscale>
<asrwt>0</asrwt>
<pdfrwt beam="1">  1       21 0.57284577E-02 0.30000000E+03</pdfrwt>
<pdfrwt beam="2">0</pdfrwt>
<totfact> 0.22821942E+04</totfact>
</mgrwt>
</event>
<event>
 6    1  0.6377696E-002  0.3000000E+03  0.7818608E-02  0.1093470E+00
         21   -1    0    0  501  502  0.00000000000E+00  0.00000000000E+00  0.13155440291E+01  0.13155440291E+01  0.00000000000E+00 0. -1.
         13   -1    0    0    0    0 -0.00000000000E+00 -0.00000000000E+00 -0.10000000000E+04  0.10000000000E+04  0.00000000000E+00 0.  1.
    9000005    2    1    2  501    0  0.22375496826E+02  0.27995695906E+02 -0.57055528399E+03  0.57168895064E+03  0.32407322670E+01 0.  0.
         13    1    3    3    0    0  0.97747125855E+01  0.11738606490E+02 -0.26847040842E+03  0.26890463009E+03  0.00000000000E+00 0.  1.
          1    1    3    3  501    0  0.12600784240E+02  0.16257089416E+02 -0.30208487557E+03  0.30278432055E+03  0.00000000000E+00 0.  1.
         -3    1    1    2    0  502 -0.22375496826E+02 -0.27995695906E+02 -0.42812917198E+03  0.42962659339E+03  0.00000000000E+00 0. -1.
<mgrwt>
<rscale>  1 0.30000000E+03</rscale>
<asrwt>0</asrwt>
<pdfrwt beam="1">  1       21 0.47838066E-02 0.30000000E+03</pdfrwt>
<pdfrwt beam="2">0</pdfrwt>
<totfact> 0.31056602E+04</totfact>
</mgrwt>
</event>
<event>
 6    1  0.6377696E-002  0.3000000E+03  0.7818608E-02  0.1093470E+00
         21   -1    0    0  501  502  0.00000000000E+00  0.00000000000E+00  0.10213007929E+01  0.10213007929E+01  0.00000000000E+00 0. -1.
         13   -1    0    0    0    0 -0.00000000000E+00 -0.00000000000E+00 -0.10000000000E+04  0.10000000000E+04  0.00000000000E+00 0.  1.
    9000005    2    1    2  501    0 -0.29407987308E+02 -0.12243229638E+02 -0.51800364708E+03  0.51899253904E+03  0.32788413105E+01 0.  0.
         13    1    3    3    0    0 -0.16612960488E+02 -0.57283327863E+01 -0.26536077964E+03  0.26594200049E+03  0.00000000000E+00 0.  1.
          1    1    3    3  501    0 -0.12795026821E+02 -0.65148968517E+01 -0.25264286744E+03  0.25305053855E+03  0.00000000000E+00 0.  1.
         -1    1    1    2    0  502  0.29407987308E+02  0.12243229638E+02 -0.48097505212E+03  0.48202876175E+03  0.00000000000E+00 0. -1.
<mgrwt>
<rscale>  1 0.30000000E+03</rscale>
<asrwt>0</asrwt>
<pdfrwt beam="1">  1       21 0.37138289E-02 0.30000000E+03</pdfrwt>
<pdfrwt beam="2">0</pdfrwt>
<totfact> 0.47636203E+04</totfact>
</mgrwt>
</event>
<event>
 6    1  0.6377696E-002  0.3000000E+03  0.7818608E-02  0.1093470E+00
         21   -1    0    0  501  502  0.00000000000E+00  0.00000000000E+00  0.21032698309E+01  0.21032698309E+01  0.00000000000E+00 0. -1.
         13   -1    0    0    0    0 -0.00000000000E+00 -0.00000000000E+00 -0.10000000000E+04  0.10000000000E+04  0.00000000000E+00 0.  1.
    9000005    2    1    2  501    0  0.28767705226E+02 -0.35061547565E+02 -0.43003772202E+03  0.43243604582E+03  0.34056392425E+01 0.  0.
         13    1    3    3    0    0  0.14803853488E+02 -0.19559590846E+02 -0.24561341251E+03  0.24683532988E+03  0.00000000000E+00 0.  1.
          1    1    3    3  501    0  0.13963851738E+02 -0.15501956718E+02 -0.18442430951E+03  0.18560071593E+03  0.00000000000E+00 0.  1.
         -3    1    1    2    0  502 -0.28767705226E+02  0.35061547565E+02 -0.56785900815E+03  0.56966722401E+03  0.00000000000E+00 0. -1.
<mgrwt>
<rscale>  1 0.30000000E+03</rscale>
<asrwt>0</asrwt>
<pdfrwt beam="1">  1       21 0.76482701E-02 0.30000000E+03</pdfrwt>
<pdfrwt beam="2">0</pdfrwt>
<totfact> 0.13822270E+04</totfact>
</mgrwt>
</event>
<event>
 6    1  0.6377696E-002  0.3000000E+03  0.7818608E-02  0.1093470E+00
         21   -1    0    0  501  502  0.00000000000E+00  0.00000000000E+00  0.69403889035E+01  0.69403889035E+01  0.00000000000E+00 0. -1.
         13   -1    0    0    0    0 -0.00000000000E+00 -0.00000000000E+00 -0.10000000000E+04  0.10000000000E+04  0.00000000000E+00 0.  1.
    9000005    2    1    2  501    0 -0.45346987998E+02  0.67381347114E+02 -0.39167183024E+03  0.40009291365E+03  0.84215015895E+01 0.  0.
         13    1    3    3    0    0 -0.30821890152E+02  0.48441320577E+02 -0.29328976703E+03  0.29885688531E+03  0.00000000000E+00 0.  1.
          1    1    3    3  501    0 -0.14525097846E+02  0.18940026538E+02 -0.98382063215E+02  0.10123602835E+03  0.00000000000E+00 0.  1.
         -3    1    1    2    0  502  0.45346987998E+02 -0.67381347114E+02 -0.60138778085E+03  0.60684747525E+03  0.00000000000E+00 0. -1.
<mgrwt>
<rscale>  1 0.30000000E+03</rscale>
<asrwt>0</asrwt>
<pdfrwt beam="1">  1       21 0.25237831E-01 0.30000000E+03</pdfrwt>
<pdfrwt beam="2">0</pdfrwt>
<totfact> 0.15309403E+03</totfact>
</mgrwt>
</event>
<event>
 6    1  0.6377696E-002  0.3000000E+03  0.7818608E-02  0.1093470E+00
         21   -1    0    0  501  502  0.00000000000E+00  0.00000000000E+00  0.12732352594E+01  0.12732352594E+01  0.00000000000E+00 0. -1.
         13   -1    0    0    0    0 -0.00000000000E+00 -0.00000000000E+00 -0.10000000000E+04  0.10000000000E+04  0.00000000000E+00 0.  1.
    9000005    2    1    2  501    0 -0.33701016678E+02  0.78842665795E+00 -0.33949666914E+03  0.34118180289E+03  0.32640656387E+01 0.  0.
         13    1    3    3    0    0 -0.16556194973E+02 -0.73101191630E+00 -0.15457703283E+03  0.15546286068E+03  0.00000000000E+00 0.  1.
          3    1    3    3  501    0 -0.17144821705E+02  0.15194385743E+01 -0.18491963631E+03  0.18571894222E+03  0.00000000000E+00 0.  1.
         -1    1    1    2    0  502  0.33701016678E+02 -0.78842665795E+00 -0.65923009560E+03  0.66009143236E+03  0.00000000000E+00 0. -1.
<mgrwt>
<rscale>  1 0.30000000E+03</rscale>
<asrwt>0</asrwt>
<pdfrwt beam="1">  1       21 0.46299562E-02 0.30000000E+03</pdfrwt>
<pdfrwt beam="2">0</pdfrwt>
<totfact> 0.32831669E+04</totfact>
</mgrwt>
</event>
<event>
 6    1  0.6377696E-002  0.3000000E+03  0.7818608E-02  0.1093470E+00
         21   -1    0    0  501  502  0.00000000000E+00  0.00000000000E+00  0.12723092412E+01  0.12723092412E+01  0.00000000000E+00 0. -1.
         13   -1    0    0    0    0 -0.00000000000E+00 -0.00000000000E+00 -0.10000000000E+04  0.10000000000E+04  0.00000000000E+00 0.  1.
    9000005    2    1    2  501    0  0.16341013027E+02 -0.31481086070E+02 -0.46847842896E+03  0.46983805449E+03  0.42037551665E+01 0.  0.
         13    1    3    3    0    0  0.90939727528E+01 -0.21281945913E+02 -0.29056968704E+03  0.29148990478E+03  0.00000000000E+00 0.  1.
          1    1    3    3  501    0  0.72470402738E+01 -0.10199140156E+02 -0.17790874192E+03  0.17834814971E+03  0.00000000000E+00 0.  1.
         -1    1    1    2    0  502 -0.16341013027E+02  0.31481086070E+02 -0.53024926180E+03  0.53143425475E+03  0.00000000000E+00 0. -1.
<mgrwt>
<rscale>  1 0.30000000E+03</rscale>
<asrwt>0</asrwt>
<pdfrwt beam="1">  1       21 0.46265888E-02 0.30000000E+03</pdfrwt>
<pdfrwt beam="2">0</pdfrwt>
<totfact> 0.32872285E+04</totfact>
</mgrwt>
</event>
<event>
 6    1  0.6377696E-002  0.3000000E+03  0.7818608E-02  0.1093470E+00
         21   -1    0    0  501  502  0.00000000000E+00  0.00000000000E+00  0.12585649195E+01  0.12585649195E+01  0.00000000000E+00 0. -1.
         13   -1    0    0    0    0 -0.00000000000E+00 -0.00000000000E+00 -0.10000000000E+04  0.10000000000E+04  0.00000000000E+00 0.  1.
    9000005    2    1    2  501    0 -0.33336481934E+02  0.34470492785E+00 -0.66847738271E+03  0.66931612392E+03  0.32592474299E+01 0.  0.
         13    1    3    3    0    0 -0.74880191772E-01  0.22314274961E-01 -0.90486762739E+01  0.90490136082E+01  0.00000000000E+00 0.  1.
          3    1    3    3  501    0 -0.33261601742E+02  0.32239065289E+00 -0.65942870643E+03  0.66026711031E+03  0.00000000000E+00 0.  1.
         -1    1    1    2    0  502  0.33336481934E+02 -0.34470492785E+00 -0.33026405237E+03  0.33194244100E+03  0.00000000000E+00 0. -1.
<mgrwt>
<rscale>  1 0.30000000E+03</rscale>
<asrwt>0</asrwt>
<pdfrwt beam="1">  1       21 0.45766094E-02 0.30000000E+03</pdfrwt>
<pdfrwt beam="2">0</pdfrwt>
<totfact> 0.33484522E+04</totfact>
</mgrwt>
</event>
<event>
 6    1  0.6377696E-002  0.3000000E+03  0.7818608E-02  0.1093470E+00
         21   -1    0    0  501  502  0.00000000000E+00  0.00000000000E+00  0.11746198657E+01  0.11746198657E+01  0.00000000000E+00 0. -1.
         13   -1    0    0    0    0 -0.00000000000E+00 -0.00000000000E+00 -0.10000000000E+04  0.10000000000E+04  0.00000000000E+00 0.  1.
    9000005    2    1    2  501    0  0.27822936733E+02 -0.13711576888E+02 -0.71096311860E+03  0.71164602928E+03  0.30646101857E+01 0.  0.
         13    1    3    3    0    0  0.19516169316E+02 -0.10256427708E+02 -0.53267066373E+03  0.53312673088E+03  0.00000000000E+00 0.  1.
          3    1    3    3  501    0  0.83067674168E+01 -0.34551491802E+01 -0.17829245487E+03  0.17851929841E+03  0.00000000000E+00 0.  1.
         -1    1    1    2    0  502 -0.27822936733E+02  0.13711576888E+02 -0.28786226153E+03  0.28952859058E+03  0.00000000000E+00 0. -1.
<mgrwt>
<rscale>  1 0.30000000E+03</rscale>
<asrwt>0</asrwt>
<pdfrwt beam="1">  1       21 0.42713540E-02 0.30000000E+03</pdfrwt>
<pdfrwt beam="2">0</pdfrwt>
<totfact> 0.37639745E+04</totfact>
</mgrwt>
</event>
<event>
 6    1  0.6377696E-002  0.3000000E+03  0.7818608E-02  0.1093470E+00
         21   -1    0    0  501  502  0.00000000000E+00  0.00000000000E+00  0.18526523545E+01  0.18526523545E+01  0.00000000000E+00 0. -1.
         13   -1    0    0    0    0 -0.00000000000E+00 -0.00000000000E+00 -0.10000000000E+04  0.10000000000E+04  0.00000000000E+00 0.  1.
    9000005    2    1    2  501    0 -0.40357901427E+02 -0.14586031056E+02 -0.52517437663E+03  0.52693692949E+03  0.35901651195E+01 0.  0.
         13    1    3    3    0    0 -0.37228900350E+02 -0.12434576744E+02 -0.47476849533E+03  0.47638821761E+03  0.00000000000E+00 0.  1.
          1    1    3    3  501    0 -0.31290010768E+01 -0.21514543119E+01 -0.50405881293E+02  0.50548711876E+02  0.00000000000E+00 0.  1.
         -1    1    1    2    0  502  0.40357901427E+02  0.14586031056E+02 -0.47297297102E+03  0.47491572287E+03  0.00000000000E+00 0. -1.
<mgrwt>
<rscale>  1 0.30000000E+03</rscale>
<asrwt>0</asrwt>
<pdfrwt beam="1">  1       21 0.67369319E-02 0.30000000E+03</pdfrwt>
<pdfrwt beam="2">0</pdfrwt>
<totfact> 0.17245909E+04</totfact>
</mgrwt>
</event>
<event>
 6    1  0.6377696E-002  0.3000000E+03  0.7818608E-02  0.1093470E+00
         21   -1    0    0  501  502  0.00000000000E+00  0.00000000000E+00  0.19006166392E+01  0.19006166392E+01  0.00000000000E+00 0. -1.
         13   -1    0    0    0    0 -0.00000000000E+00 -0.00000000000E+00 -0.10000000000E+04  0.10000000000E+04  0.00000000000E+00 0.  1.
    9000005    2    1    2  501    0  0.17488722709E+02 -0.27888178087E+02 -0.17230023063E+03  0.17544562902E+03  0.31927057997E+01 0.  0.
         13    1    3    3    0    0  0.31039288101E+01 -0.34331194366E+01 -0.28472971462E+02  0.28846677226E+02  0.00000000000E+00 0.  1.
          3    1    3    3  501    0  0.14384793899E+02 -0.24455058650E+02 -0.14382725916E+03  0.14659895180E+03  0.00000000000E+00 0.  1.
         -1    1    1    2    0  502 -0.17488722709E+02  0.27888178087E+02 -0.82579915273E+03  0.82645498762E+03  0.00000000000E+00 0. -1.
<mgrwt>
<rscale>  1 0.30000000E+03</rscale>
<asrwt>0</asrwt>
<pdfrwt beam="1">  1       21 0.69113478E-02 0.30000000E+03</pdfrwt>
<pdfrwt beam="2">0</pdfrwt>
<totfact> 0.16497003E+04</totfact>
</mgrwt>
</event>
<event>
 6    1  0.6377696E-002  0.3000000E+03  0.7818608E-02  0.1093470E+00
         21   -1    0    0  501  502  0.00000000000E+00  0.00000000000E+00  0.12389560139E+01  0.12389560139E+01  0.00000000000E+00 0. -1.
         13   -1    0    0    0    0 -0.00000000000E+00 -0.00000000000E+00 -0.10000000000E+04  0.10000000000E+04  0.00000000000E+00 0.  1.
    9000005    2    1    2  501    0  0.43509918515E+00  0.34855130082E+02 -0.55723394768E+03  0.55833801204E+03  0.40735528183E+01 0.  0.
         13    1    3    3    0    0  0.70501660855E+00  0.45684235903E+01 -0.56427220331E+02  0.56616240928E+02  0.00000000000E+00 0.  1.
          3    1    3    3  501    0 -0.26991742340E+00  0.30286706492E+02 -0.50080672735E+03  0.50172177111E+03  0.00000000000E+00 0.  1.
         -3    1    1    2    0  502 -0.43509918515E+00 -0.34855130082E+02 -0.44152709630E+03  0.44290094398E+03  0.00000000000E+00 0. -1.
<mgrwt>
<rscale>  1 0.30000000E+03</rscale>
<asrwt>0</asrwt>
<pdfrwt beam="1">  1       21 0.45053041E-02 0.30000000E+03</pdfrwt>
<pdfrwt beam="2">0</pdfrwt>
<totfact> 0.34389374E+04</totfact>
</mgrwt>
</event>
<event>
 6    1  0.6377696E-002  0.3000000E+03  0.7818608E-02  0.1093470E+00
         21   -1    0    0  501  502  0.00000000000E+00  0.00000000000E+00  0.13055014757E+01  0.13055014757E+01  0.00000000000E+00 0. -1.
         13   -1    0    0    0    0 -0.00000000000E+00 -0.00000000000E+00 -0.10000000000E+04  0.10000000000E+04  0.00000000000E+00 0.  1.
    9000005    2    1    2  501    0 -0.26404778267E+01  0.35751220602E+02 -0.55155764402E+03  0.55273389230E+03  0.37147178122E+01 0.  0.
         13    1    3    3    0    0 -0.78003884830E-01  0.85700490141E+01 -0.11031733173E+03  0.11064974245E+03  0.00000000000E+00 0.  1.
          1    1    3    3  501    0 -0.25624739419E+01  0.27181171587E+02 -0.44124031229E+03  0.44208414985E+03  0.00000000000E+00 0.  1.
         -3    1    1    2    0  502  0.26404778267E+01 -0.35751220602E+02 -0.44713685450E+03  0.44857160917E+03  0.00000000000E+00 0. -1.
<mgrwt>
<rscale>  1 0.30000000E+03</rscale>
<asrwt>0</asrwt>
<pdfrwt beam="1">  1       21 0.47472881E-02 0.30000000E+03</pdfrwt>
<pdfrwt beam="2">0</pdfrwt>
<totfact> 0.31464098E+04</totfact>
</mgrwt>
</event>
<event>
 6    1  0.6377696E-002  0.3000000E+03  0.7818608E-02  0.1093470E+00
         21   -1    0    0  501  502  0.00000000000E+00  0.00000000000E+00  0.10500916971E+01  0.10500916971E+01  0.00000000000E+00 0. -1.
         13   -1    0    0    0    0 -0.00000000000E+00 -0.00000000000E+00 -0.10000000000E+04  0.10000000000E+04  0.00000000000E+00 0.  1.
    9000005    2    1    2  501    0 -0.25188106433E+02  0.16681423403E+02 -0.67394753374E+03  0.67464657752E+03  0.54786621833E+01 0.  0.
         13    1    3    3    0    0 -0.14549794302E+02  0.63670457064E+01 -0.35433241193E+03  0.35468816434E+03  0.00000000000E+00 0.  1.
          3    1    3    3  501    0 -0.10638312131E+02  0.10314377697E+02 -0.31961512181E+03  0.31995841318E+03  0.00000000000E+00 0.  1.
         -1    1    1    2    0  502  0.25188106433E+02 -0.16681423403E+02 -0.32500237457E+03  0.32640351418E+03  0.00000000000E+00 0. -1.
<mgrwt>
<rscale>  1 0.30000000E+03</rscale>
<asrwt>0</asrwt>
<pdfrwt beam="1">  1       21 0.38185233E-02 0.30000000E+03</pdfrwt>
<pdfrwt beam="2">0</pdfrwt>
<totfact> 0.45463088E+04</totfact>
</mgrwt>
</event>
<event>
 6    1  0.6377696E-002  0.3000000E+03  0.7818608E-02  0.1093470E+00
         21   -1    0    0  501  502  0.00000000000E+00  0.00000000000E+00  0.14268500465E+01  0.14268500465E+01  0.00000000000E+00 0. -1.
         13   -1    0    0    0    0 -0.00000000000E+00 -0.00000000000E+00 -0.10000000000E+04  0.10000000000E+04  0.00000000000E+00 0.  1.
    9000005    2    1    2  501    0  0.18944906241E+02 -0.26854369909E+02 -0.73799572245E+03  0.73878515043E+03  0.92598854314E+01 0.  0.
         13    1    3    3    0    0  0.16850806300E+02 -0.16895561177E+02 -0.48991439379E+03  0.49049518133E+03  0.00000000000E+00 0.  1.
          3    1    3    3  501    0  0.20940999411E+01 -0.99588087321E+01 -0.24808132866E+03  0.24828996910E+03  0.00000000000E+00 0.  1.
         -3    1    1    2    0  502 -0.18944906241E+02  0.26854369909E+02 -0.26057742750E+03  0.26264169962E+03  0.00000000000E+00 0. -1.
<mgrwt>
<rscale>  1 0.30000000E+03</rscale>
<asrwt>0</asrwt>
<pdfrwt beam="1">  1       21 0.51885566E-02 0.30000000E+03</pdfrwt>
<pdfrwt beam="2">0</pdfrwt>
<totfact> 0.27041459E+04</totfact>
</mgrwt>
</event>
<event>
 6    1  0.6377696E-002  0.3000000E+03  0.7818608E-02  0.1093470E+00
         21   -1    0    0  501  502  0.00000000000E+00  0.00000000000E+00  0.17233801669E+01  0.17233801669E+01  0.00000000000E+00 0. -1.
         13   -1    0    0    0    0 -0.00000000000E+00 -0.00000000000E+00 -0.10000000000E+04  0.10000000000E+04  0.00000000000E+00 0.  1.
    9000005    2    1    2  501    0  0.19168332746E+02  0.36572314064E+02 -0.45348985654E+03  0.45537406280E+03  0.27437097519E+01 0.  0.
         13    1    3    3    0    0  0.67625389088E+01  0.10788004366E+02 -0.14861003345E+03  0.14915446695E+03  0.00000000000E+00 0.  1.
          3    1    3    3  501    0  0.12405793837E+02  0.25784309697E+02 -0.30487982310E+03  0.30621959584E+03  0.00000000000E+00 0.  1.
         -3    1    1    2    0  502 -0.19168332746E+02 -0.36572314064E+02 -0.54478676329E+03  0.54634931737E+03  0.00000000000E+00 0. -1.
<mgrwt>
<rscale>  1 0.30000000E+03</rscale>
<asrwt>0</asrwt>
<pdfrwt beam="1">  1       21 0.62668502E-02 0.30000000E+03</pdfrwt>
<pdfrwt beam="2">0</pdfrwt>
<totfact> 0.19546822E+04</totfact>
</mgrwt>
</event>
<event>
 6    1  0.6377696E-002  0.3000000E+03  0.7818608E-02  0.1093470E+00
         21   -1    0    0  501  502  0.00000000000E+00  0.00000000000E+00  0.14664939063E+01  0.14664939063E+01  0.00000000000E+00 0. -1.
         13   -1    0    0    0    0 -0.00000000000E+00 -0.00000000000E+00 -0.10000000000E+04  0.10000000000E+04  0.00000000000E+00 0.  1.
    9000005    2    1    2  501    0  0.19363821371E+02 -0.31879608043E+02 -0.60941838707E+03  0.61056773100E+03  0.33040361875E+01 0.  0.
         13    1    3    3    0    0  0.19358772955E+02 -0.30881573448E+02 -0.59309894576E+03  0.59421779941E+03  0.00000000000E+00 0.  1.
          3    1    3    3  501    0  0.50484157238E-02 -0.99803459511E+00 -0.16319441309E+02  0.16349931595E+02  0.00000000000E+00 0.  1.
         -1    1    1    2    0  502 -0.19363821371E+02  0.31879608043E+02 -0.38911511902E+03  0.39089876290E+03  0.00000000000E+00 0. -1.
<mgrwt>
<rscale>  1 0.30000000E+03</rscale>
<asrwt>0</asrwt>
<pdfrwt beam="1">  1       21 0.53327164E-02 0.30000000E+03</pdfrwt>
<pdfrwt beam="2">0</pdfrwt>
<totfact> 0.25803786E+04</totfact>
</mgrwt>
</event>
<event>
 6    1  0.6377696E-002  0.3000000E+03  0.7818608E-02  0.1093470E+00
         21   -1    0    0  501  502  0.00000000000E+00  0.00000000000E+00  0.12406713470E+01  0.12406713470E+01  0.00000000000E+00 0. -1.
         13   -1    0    0    0    0 -0.00000000000E+00 -0.00000000000E+00 -0.10000000000E+04  0.10000000000E+04  0.00000000000E+00 0.  1.
    9000005    2    1    2  501    0 -0.12647990215E+02 -0.30863827442E+02 -0.65704393784E+03  0.65790125354E+03  0.38439117754E+01 0.  0.
         13    1    3    3    0    0 -0.10613271498E+02 -0.26593049750E+02 -0.58684693078E+03  0.58754502125E+03  0.00000000000E+00 0.  1.
          1    1    3    3  501    0 -0.20347187168E+01 -0.42707776924E+01 -0.70197007060E+02  0.70356232293E+02  0.00000000000E+00 0.  1.
         -3    1    1    2    0  502  0.12647990215E+02  0.30863827442E+02 -0.34171539081E+03  0.34333941780E+03  0.00000000000E+00 0. -1.
<mgrwt>
<rscale>  1 0.30000000E+03</rscale>
<asrwt>0</asrwt>
<pdfrwt beam="1">  1       21 0.45115417E-02 0.30000000E+03</pdfrwt>
<pdfrwt beam="2">0</pdfrwt>
<totfact> 0.34308720E+04</totfact>
</mgrwt>
</event>
<event>
 6    1  0.6377696E-002  0.3000000E+03  0.7818608E-02  0.1093470E+00
         21   -1    0    0  501  502  0.00000000000E+00  0.00000000000E+00  0.10685255694E+01  0.10685255694E+01  0.00000000000E+00 0. -1.
         13   -1    0    0    0    0 -0.00000000000E+00 -0.00000000000E+00 -0.10000000000E+04  0.10000000000E+04  0.00000000000E+00 0.  1.
    9000005    2    1    2  501    0  0.29614011191E+02 -0.78879645721E+01 -0.67091569819E+03  0.67162420689E+03  0.34628840909E+01 0.  0.
         13    1    3    3    0    0  0.13401601179E+02 -0.33160748904E+01 -0.33974864432E+03  0.34002902904E+03  0.00000000000E+00 0.  1.
          3    1    3    3  501    0  0.16212410012E+02 -0.45718896817E+01 -0.33116705386E+03  0.33159517786E+03  0.00000000000E+00 0.  1.
         -1    1    1    2    0  502 -0.29614011191E+02  0.78879645721E+01 -0.32801577624E+03  0.32944431868E+03  0.00000000000E+00 0. -1.
<mgrwt>
<rscale>  1 0.30000000E+03</rscale>
<asrwt>0</asrwt>
<pdfrwt beam="1">  1       21 0.38855557E-02 0.30000000E+03</pdfrwt>
<pdfrwt beam="2">0</pdfrwt>
<totfact> 0.44152347E+04</totfact>
</mgrwt>
</event>
<event>
 6    1  0.6377696E-002  0.3000000E+03  0.7818608E-02  0.1093470E+00
         21   -1    0    0  501  502  0.00000000000E+00  0.00000000000E+00  0.10029474260E+01  0.10029474260E+01  0.00000000000E+00 0. -1.
         13   -1    0    0    0    0 -0.00000000000E+00 -0.00000000000E+00 -0.10000000000E+04  0.10000000000E+04  0.00000000000E+00 0.  1.
    9000005    2    1    2  501    0  0.11922016235E+02 -0.29220533508E+02 -0.47821027355E+03  0.47926082410E+03  0.31460667262E+01 0.  0.
         13    1    3    3    0    0  0.61517964408E+01 -0.17450136008E+02 -0.26052645287E+03  0.26118266499E+03  0.00000000000E+00 0.  1.
          3    1    3    3  501    0  0.57702197941E+01 -0.11770397501E+02 -0.21768382069E+03  0.21807815911E+03  0.00000000000E+00 0.  1.
         -3    1    1    2    0  502 -0.11922016235E+02  0.29220533508E+02 -0.52078677902E+03  0.52174212333E+03  0.00000000000E+00 0. -1.
<mgrwt>
<rscale>  1 0.30000000E+03</rscale>
<asrwt>0</asrwt>
<pdfrwt beam="1">  1       21 0.36470892E-02 0.30000000E+03</pdfrwt>
<pdfrwt beam="2">0</pdfrwt>
<totfact> 0.49108134E+04</totfact>
</mgrwt>
</event>
<event>
 6    1  0.6377696E-002  0.3000000E+03  0.7818608E-02  0.1093470E+00
         21   -1    0    0  501  502  0.00000000000E+00  0.00000000000E+00  0.12709619691E+01  0.12709619691E+01  0.00000000000E+00 0. -1.
         13   -1    0    0    0    0 -0.00000000000E+00 -0.00000000000E+00 -0.10000000000E+04  0.10000000000E+04  0.00000000000E+00 0.  1.
    9000005    2    1    2  501    0 -0.24089523512E+02  0.21008338875E+02 -0.71987153787E+03  0.72058758013E+03  0.31263645418E+01 0.  0.
         13    1    3    3    0    0 -0.23181674655E+02  0.20130138915E+02 -0.70225874582E+03  0.70292955452E+03  0.00000000000E+00 0.  1.
          1    1    3    3  501    0 -0.90784885650E+00  0.87819995963E+00 -0.17612792042E+02  0.17658025604E+02  0.00000000000E+00 0.  1.
         -1    1    1    2    0  502  0.24089523512E+02 -0.21008338875E+02 -0.27885750016E+03  0.28068338184E+03  0.00000000000E+00 0. -1.
<mgrwt>
<rscale>  1 0.30000000E+03</rscale>
<asrwt>0</asrwt>
<pdfrwt beam="1">  1       21 0.46216896E-02 0.30000000E+03</pdfrwt>
<pdfrwt beam="2">0</pdfrwt>
<totfact> 0.32931520E+04</totfact>
</mgrwt>
</event>
<event>
 6    1  0.6377696E-002  0.3000000E+03  0.7818608E-02  0.1093470E+00
         21   -1    0    0  501  502  0.00000000000E+00  0.00000000000E+00  0.14317175648E+01  0.14317175648E+01  0.00000000000E+00 0. -1.
         13   -1    0    0    0    0 -0.00000000000E+00 -0.00000000000E+00 -0.10000000000E+04  0.10000000000E+04  0.00000000000E+00 0.  1.
    9000005    2    1    2  501    0  0.15403578492E+02  0.32441533806E+02 -0.34509477603E+03  0.34697213369E+03  0.30876805627E+01 0.  0.
         13    1    3    3    0    0  0.13278682564E+02  0.27680492055E+02 -0.30455190224E+03  0.30609540050E+03  0.00000000000E+00 0.  1.
          1    1    3    3  501    0  0.21248959283E+01  0.47610417517E+01 -0.40542873788E+02  0.40876733190E+02  0.00000000000E+00 0.  1.
         -3    1    1    2    0  502 -0.15403578492E+02 -0.32441533806E+02 -0.65347350641E+03  0.65445958387E+03  0.00000000000E+00 0. -1.
<mgrwt>
<rscale>  1 0.30000000E+03</rscale>
<asrwt>0</asrwt>
<pdfrwt beam="1">  1       21 0.52062567E-02 0.30000000E+03</pdfrwt>
<pdfrwt beam="2">0</pdfrwt>
<totfact> 0.26884597E+04</totfact>
</mgrwt>
</event>
<event>
 6    1  0.6377696E-002  0.3000000E+03  0.7818608E-02  0.1093470E+00
         21   -1    0    0  501  502  0.00000000000E+00  0.00000000000E+00  0.30611259576E+01  0.30611259576E+01  0.00000000000E+00 0. -1.
         13   -1    0    0    0    0 -0.00000000000E+00 -0.00000000000E+00 -0.10000000000E+04  0.10000000000E+04  0.00000000000E+00 0.  1.
    9000005    2    1    2  501    0  0.15232621624E+01 -0.54285251890E+02 -0.59123113156E+03  0.59373487318E+03  0.41999770609E+01 0.  0.
         13    1    3    3    0    0  0.69905155265E+00 -0.29696610333E+02 -0.30048217404E+03  0.30194687323E+03  0.00000000000E+00 0.  1.
          3    1    3    3  501    0  0.82421060974E+00 -0.24588641557E+02 -0.29074895752E+03  0.29178799995E+03  0.00000000000E+00 0.  1.
         -3    1    1    2    0  502 -0.15232621624E+01  0.54285251890E+02 -0.40570774248E+03  0.40932625278E+03  0.00000000000E+00 0. -1.
<mgrwt>
<rscale>  1 0.30000000E+03</rscale>
<asrwt>0</asrwt>
<pdfrwt beam="1">  1       21 0.11131391E-01 0.30000000E+03</pdfrwt>
<pdfrwt beam="2">0</pdfrwt>
<totfact> 0.70986657E+03</totfact>
</mgrwt>
</event>
<event>
 6    1  0.6377696E-002  0.3000000E+03  0.7818608E-02  0.1093470E+00
         21   -1    0    0  501  502  0.00000000000E+00  0.00000000000E+00  0.51935241502E+01  0.51935241502E+01  0.00000000000E+00 0. -1.
         13   -1    0    0    0    0 -0.00000000000E+00 -0.00000000000E+00 -0.10000000000E+04  0.10000000000E+04  0.00000000000E+00 0.  1.
    9000005    2    1    2  501    0  0.61199860389E+02  0.37602394793E+02 -0.46485958872E+03  0.47040097915E+03  0.48250344708E+01 0.  0.
         13    1    3    3    0    0  0.23520544968E+02  0.14228508464E+02 -0.19342154880E+03  0.19536520169E+03  0.00000000000E+00 0.  1.
          3    1    3    3  501    0  0.37679315421E+02  0.23373886328E+02 -0.27143803992E+03  0.27503577747E+03  0.00000000000E+00 0.  1.
         -1    1    1    2    0  502 -0.61199860389E+02 -0.37602394793E+02 -0.52994688713E+03  0.53479254500E+03  0.00000000000E+00 0. -1.
<mgrwt>
<rscale>  1 0.30000000E+03</rscale>
<asrwt>0</asrwt>
<pdfrwt beam="1">  1       21 0.18885582E-01 0.30000000E+03</pdfrwt>
<pdfrwt beam="2">0</pdfrwt>
<totfact> 0.26755335E+03</totfact>
</mgrwt>
</event>
<event>
 6    1  0.6377696E-002  0.3000000E+03  0.7818608E-02  0.1093470E+00
         21   -1    0    0  501  502  0.00000000000E+00  0.00000000000E+00  0.10250712815E+01  0.10250712815E+01  0.00000000000E+00 0. -1.
         13   -1    0    0    0    0 -0.00000000000E+00 -0.00000000000E+00 -0.10000000000E+04  0.10000000000E+04  0.00000000000E+00 0.  1.
    9000005    2    1    2  501    0 -0.22476082892E+02  0.22736457486E+02 -0.48793886775E+03  0.48898993928E+03  0.21682360225E+01 0.  0.
         13    1    3    3    0    0 -0.14583597751E+02  0.13952769234E+02 -0.32109230035E+03  0.32172601144E+03  0.00000000000E+00 0.  1.
          1    1    3    3  501    0 -0.78924851402E+01  0.87836882523E+01 -0.16684656740E+03  0.16726392784E+03  0.00000000000E+00 0.  1.
         -3    1    1    2    0  502  0.22476082892E+02 -0.22736457486E+02 -0.51103606097E+03  0.51203513201E+03  0.00000000000E+00 0. -1.
<mgrwt>
<rscale>  1 0.30000000E+03</rscale>
<asrwt>0</asrwt>
<pdfrwt beam="1">  1       21 0.37275398E-02 0.30000000E+03</pdfrwt>
<pdfrwt beam="2">0</pdfrwt>
<totfact> 0.47342415E+04</totfact>
</mgrwt>
</event>
<event>
 6    1  0.6377696E-002  0.3000000E+03  0.7818608E-02  0.1093470E+00
         21   -1    0    0  501  502  0.00000000000E+00  0.00000000000E+00  0.10659467887E+01  0.10659467887E+01  0.00000000000E+00 0. -1.
         13   -1    0    0    0    0 -0.00000000000E+00 -0.00000000000E+00 -0.10000000000E+04  0.10000000000E+04  0.00000000000E+00 0.  1.
    9000005    2    1    2  501    0  0.32142321105E+02 -0.17061260242E+01 -0.42726590230E+03  0.42849235813E+03  0.36755991138E+01 0.  0.
         13    1    3    3    0    0  0.42902982218E+01  0.10180286674E+01 -0.59969903434E+02  0.60131791584E+02  0.00000000000E+00 0.  1.
          1    1    3    3  501    0  0.27852022883E+02 -0.27241546916E+01 -0.36729599887E+03  0.36836056654E+03  0.00000000000E+00 0.  1.
         -1    1    1    2    0  502 -0.32142321105E+02  0.17061260242E+01 -0.57166815091E+03  0.57257358866E+03  0.00000000000E+00 0. -1.
<mgrwt>
<rscale>  1 0.30000000E+03</rscale>
<asrwt>0</asrwt>
<pdfrwt beam="1">  1       21 0.38761783E-02 0.30000000E+03</pdfrwt>
<pdfrwt beam="2">0</pdfrwt>
<totfact> 0.44332118E+04</totfact>
</mgrwt>
</event>
<event>
 6    1  0.6377696E-002  0.3000000E+03  0.7818608E-02  0.1093470E+00
         21   -1    0    0  501  502  0.00000000000E+00  0.00000000000E+00  0.25902923918E+01  0.25902923918E+01  0.00000000000E+00 0. -1.
         13   -1    0    0    0    0 -0.00000000000E+00 -0.00000000000E+00 -0.10000000000E+04  0.10000000000E+04  0.00000000000E+00 0.  1.
    9000005    2    1    2  501    0 -0.20670939832E+02 -0.44972371396E+02 -0.61346931484E+03  0.61547270413E+03  0.34996194884E+01 0.  0.
         13    1    3    3    0    0 -0.15509281627E+02 -0.30768774511E+02 -0.41346891421E+03  0.41490215511E+03  0.00000000000E+00 0.  1.
          1    1    3    3  501    0 -0.51616582058E+01 -0.14203596885E+02 -0.20000040064E+03  0.20057054902E+03  0.00000000000E+00 0.  1.
         -1    1    1    2    0  502  0.20670939832E+02  0.44972371396E+02 -0.38394039276E+03  0.38711758826E+03  0.00000000000E+00 0. -1.
<mgrwt>
<rscale>  1 0.30000000E+03</rscale>
<asrwt>0</asrwt>
<pdfrwt beam="1">  1       21 0.94192649E-02 0.30000000E+03</pdfrwt>
<pdfrwt beam="2">0</pdfrwt>
<totfact> 0.95720848E+03</totfact>
</mgrwt>
</event>
<event>
 6    1  0.6377696E-002  0.3000000E+03  0.7818608E-02  0.1093470E+00
         21   -1    0    0  501  502  0.00000000000E+00  0.00000000000E+00  0.14461237438E+01  0.14461237438E+01  0.00000000000E+00 0. -1.
         13   -1    0    0    0    0 -0.00000000000E+00 -0.00000000000E+00 -0.10000000000E+04  0.10000000000E+04  0.00000000000E+00 0.  1.
    9000005    2    1    2  501    0 -0.88839848014E+01 -0.35811748289E+02 -0.38249575815E+03  0.38428406125E+03  0.31349998256E+01 0.  0.
         13    1    3    3    0    0 -0.42677841512E+01 -0.22133755714E+02 -0.22304400683E+03  0.22418016439E+03  0.00000000000E+00 0.  1.
          1    1    3    3  501    0 -0.46162006502E+01 -0.13677992575E+02 -0.15945175132E+03  0.16010389686E+03  0.00000000000E+00 0.  1.
         -1    1    1    2    0  502  0.88839848014E+01  0.35811748289E+02 -0.61605811811E+03  0.61716206250E+03  0.00000000000E+00 0. -1.
<mgrwt>
<rscale>  1 0.30000000E+03</rscale>
<asrwt>0</asrwt>
<pdfrwt beam="1">  1       21 0.52586429E-02 0.30000000E+03</pdfrwt>
<pdfrwt beam="2">0</pdfrwt>
<totfact> 0.26428516E+04</totfact>
</mgrwt>
</event>
<event>
 6    1  0.6377696E-002  0.3000000E+03  0.7818608E-02  0.1093470E+00
         21   -1    0    0  501  502  0.00000000000E+00  0.00000000000E+00  0.13443675199E+01  0.13443675199E+01  0.00000000000E+00 0. -1.
         13   -1    0    0    0    0 -0.00000000000E+00 -0.00000000000E+00 -0.10000000000E+04  0.10000000000E+04  0.00000000000E+00 0.  1.
    9000005    2    1    2  501    0  0.10911657701E+02 -0.33283893464E+02 -0.64386005887E+03  0.64482398817E+03  0.39138822804E+01 0.  0.
         13    1    3    3    0    0  0.48619246253E+01 -0.17237121843E+02 -0.36190117233E+03  0.36234405641E+03  0.00000000000E+00 0.  1.
          3    1    3    3  501    0  0.60497330758E+01 -0.16046771622E+02 -0.28195888654E+03  0.28247993176E+03  0.00000000000E+00 0.  1.
         -3    1    1    2    0  502 -0.10911657701E+02  0.33283893464E+02 -0.35479557361E+03  0.35652037935E+03  0.00000000000E+00 0. -1.
<mgrwt>
<rscale>  1 0.30000000E+03</rscale>
<asrwt>0</asrwt>
<pdfrwt beam="1">  1       21 0.48886195E-02 0.30000000E+03</pdfrwt>
<pdfrwt beam="2">0</pdfrwt>
<totfact> 0.29931768E+04</totfact>
</mgrwt>
</event>
<event>
 6    1  0.6377696E-002  0.3000000E+03  0.7818608E-02  0.1093470E+00
         21   -1    0    0  501  502  0.00000000000E+00  0.00000000000E+00  0.99216738592E+00  0.99216738592E+00  0.00000000000E+00 0. -1.
         13   -1    0    0    0    0 -0.00000000000E+00 -0.00000000000E+00 -0.10000000000E+04  0.10000000000E+04  0.00000000000E+00 0.  1.
    9000005    2    1    2  501    0  0.17332239290E+02  0.26096616905E+02 -0.46373621816E+03  0.46480456853E+03  0.32506853124E+01 0.  0.
         13    1    3    3    0    0  0.15287432872E+02  0.24033569398E+02 -0.43073882026E+03  0.43167956790E+03  0.00000000000E+00 0.  1.
          3    1    3    3  501    0  0.20448064187E+01  0.20630475072E+01 -0.32997397903E+02  0.33125000629E+02  0.00000000000E+00 0.  1.
         -3    1    1    2    0  502 -0.17332239290E+02 -0.26096616905E+02 -0.53527161445E+03  0.53618759886E+03  0.00000000000E+00 0. -1.
<mgrwt>
<rscale>  1 0.30000000E+03</rscale>
<asrwt>0</asrwt>
<pdfrwt beam="1">  1       21 0.36078890E-02 0.30000000E+03</pdfrwt>
<pdfrwt beam="2">0</pdfrwt>
<totfact> 0.50006402E+04</totfact>
</mgrwt>
</event>
<event>
 6    1  0.6377696E-002  0.3000000E+03  0.7818608E-02  0.1093470E+00
         21   -1    0    0  501  502  0.00000000000E+00  0.00000000000E+00  0.96500615798E+00  0.96500615798E+00  0.00000000000E+00 0. -1.
         13   -1    0    0    0    0 -0.00000000000E+00 -0.00000000000E+00 -0.10000000000E+04  0.10000000000E+04  0.00000000000E+00 0.  1.
    9000005    2    1    2  501    0 -0.21143322691E+02  0.22417423152E+02 -0.43978836317E+03  0.44087003665E+03  0.17331695971E+01 0.  0.
         13    1    3    3    0    0 -0.98522602404E+01  0.92242584624E+01 -0.19506152987E+03  0.19552788653E+03  0.00000000000E+00 0.  1.
          3    1    3    3  501    0 -0.11291062451E+02  0.13193164689E+02 -0.24472683331E+03  0.24534215012E+03  0.00000000000E+00 0.  1.
         -1    1    1    2    0  502  0.21143322691E+02 -0.22417423152E+02 -0.55924663067E+03  0.56009496951E+03  0.00000000000E+00 0. -1.
<mgrwt>
<rscale>  1 0.30000000E+03</rscale>
<asrwt>0</asrwt>
<pdfrwt beam="1">  1       21 0.35091207E-02 0.30000000E+03</pdfrwt>
<pdfrwt beam="2">0</pdfrwt>
<totfact> 0.52387989E+04</totfact>
</mgrwt>
</event>
<event>
 6    1  0.6377696E-002  0.3000000E+03  0.7818608E-02  0.1093470E+00
         21   -1    0    0  501  502  0.00000000000E+00  0.00000000000E+00  0.12341917925E+01  0.12341917925E+01  0.00000000000E+00 0. -1.
         13   -1    0    0    0    0 -0.00000000000E+00 -0.00000000000E+00 -0.10000000000E+04  0.10000000000E+04  0.00000000000E+00 0.  1.
    9000005    2    1    2  501    0 -0.21722162218E+01  0.30741721741E+02 -0.26335768844E+03  0.26518061046E+03  0.37029882854E+01 0.  0.
         13    1    3    3    0    0 -0.24965198434E+00  0.22663080970E+02 -0.18449379244E+03  0.18588070641E+03  0.00000000000E+00 0.  1.
          3    1    3    3  501    0 -0.19225642374E+01  0.80786407714E+01 -0.78863895999E+02  0.79299904048E+02  0.00000000000E+00 0.  1.
         -1    1    1    2    0  502  0.21722162218E+01 -0.30741721741E+02 -0.73540811977E+03  0.73605358134E+03  0.00000000000E+00 0. -1.
<mgrwt>
<rscale>  1 0.30000000E+03</rscale>
<asrwt>0</asrwt>
<pdfrwt beam="1">  1       21 0.44879796E-02 0.30000000E+03</pdfrwt>
<pdfrwt beam="2">0</pdfrwt>
<totfact> 0.34614927E+04</totfact>
</mgrwt>
</event>
<event>
 6    1  0.6377696E-002  0.3000000E+03  0.7818608E-02  0.1093470E+00
         21   -1    0    0  501  502  0.00000000000E+00  0.00000000000E+00  0.10873088588E+01  0.10873088588E+01  0.00000000000E+00 0. -1.
         13   -1    0    0    0    0 -0.00000000000E+00 -0.00000000000E+00 -0.10000000000E+04  0.10000000000E+04  0.00000000000E+00 0.  1.
    9000005    2    1    2  501    0  0.30564376503E+02 -0.11555432252E+02 -0.44219037444E+03  0.44340689227E+03  0.31041498046E+01 0.  0.
         13    1    3    3    0    0  0.12407854453E+02 -0.43026990948E+01 -0.19800887543E+03  0.19844390346E+03  0.00000000000E+00 0.  1.
          3    1    3    3  501    0  0.18156522050E+02 -0.72527331571E+01 -0.24418149901E+03  0.24496298882E+03  0.00000000000E+00 0.  1.
         -3    1    1    2    0  502 -0.30564376503E+02  0.11555432252E+02 -0.55672231670E+03  0.55768041658E+03  0.00000000000E+00 0. -1.
<mgrwt>
<rscale>  1 0.30000000E+03</rscale>
<asrwt>0</asrwt>
<pdfrwt beam="1">  1       21 0.39538587E-02 0.30000000E+03</pdfrwt>
<pdfrwt beam="2">0</pdfrwt>
<totfact> 0.42876713E+04</totfact>
</mgrwt>
</event>
<event>
 6    1  0.6377696E-002  0.3000000E+03  0.7818608E-02  0.1093470E+00
         21   -1    0    0  501  502  0.00000000000E+00  0.00000000000E+00  0.11878867801E+01  0.11878867801E+01  0.00000000000E+00 0. -1.
         13   -1    0    0    0    0 -0.00000000000E+00 -0.00000000000E+00 -0.10000000000E+04  0.10000000000E+04  0.00000000000E+00 0.  1.
    9000005    2    1    2  501    0 -0.15671994303E+01  0.34348534568E+02 -0.48962701890E+03  0.49084316190E+03  0.31802516659E+01 0.  0.
         13    1    3    3    0    0 -0.11932823516E+01  0.49017539456E+01 -0.80012530391E+02  0.80171417189E+02  0.00000000000E+00 0.  1.
          3    1    3    3  501    0 -0.37391707871E+00  0.29446780622E+02 -0.40961448851E+03  0.41067174471E+03  0.00000000000E+00 0.  1.
         -1    1    1    2    0  502  0.15671994303E+01 -0.34348534568E+02 -0.50918509432E+03  0.51034472488E+03  0.00000000000E+00 0. -1.
<mgrwt>
<rscale>  1 0.30000000E+03</rscale>
<asrwt>0</asrwt>
<pdfrwt beam="1">  1       21 0.43195974E-02 0.30000000E+03</pdfrwt>
<pdfrwt beam="2">0</pdfrwt>
<totfact> 0.36931592E+04</totfact>
</mgrwt>
</event>
<event>
 6    1  0.6377696E-002  0.3000000E+03  0.7818608E-02  0.1093470E+00
         21   -1    0    0  501  502  0.00000000000E+00  0.00000000000E+00  0.94518431268E+00  0.94518431268E+00  0.00000000000E+00 0. -1.
         13   -1    0    0    0    0 -0.00000000000E+00 -0.00000000000E+00 -0.10000000000E+04  0.10000000000E+04  0.00000000000E+00 0.  1.
    9000005    2    1    2  501    0 -0.26902261360E+02  0.13830649899E+02 -0.57950277305E+03  0.58030408429E+03  0.37878402657E+01 0.  0.
         13    1    3    3    0    0 -0.14144736284E+02  0.73784920143E+01 -0.26942787340E+03  0.26989978636E+03  0.00000000000E+00 0.  1.
          3    1    3    3  501    0 -0.12757525076E+02  0.64521578851E+01 -0.31007489964E+03  0.31040429793E+03  0.00000000000E+00 0.  1.
         -1    1    1    2    0  502  0.26902261360E+02 -0.13830649899E+02 -0.41955204264E+03  0.42064110002E+03  0.00000000000E+00 0. -1.
<mgrwt>
<rscale>  1 0.30000000E+03</rscale>
<asrwt>0</asrwt>
<pdfrwt beam="1">  1       21 0.34370411E-02 0.30000000E+03</pdfrwt>
<pdfrwt beam="2">0</pdfrwt>
<totfact> 0.54239578E+04</totfact>
</mgrwt>
</event>
<event>
 6    1  0.6377696E-002  0.3000000E+03  0.7818608E-02  0.1093470E+00
         21   -1    0    0  501  502  0.00000000000E+00  0.00000000000E+00  0.10620774840E+01  0.10620774840E+01  0.00000000000E+00 0. -1.
         13   -1    0    0    0    0 -0.00000000000E+00 -0.00000000000E+00 -0.10000000000E+04  0.10000000000E+04  0.00000000000E+00 0.  1.
    9000005    2    1    2  501    0 -0.23712085269E+02 -0.20615503404E+02 -0.62925027560E+03  0.63004156828E+03  0.30342129718E+01 0.  0.
         13    1    3    3    0    0 -0.33730639958E+01 -0.44506083359E+01 -0.10856536942E+03  0.10870889988E+03  0.00000000000E+00 0.  1.
          1    1    3    3  501    0 -0.20339021274E+02 -0.16164895068E+02 -0.52068490618E+03  0.52133266840E+03  0.00000000000E+00 0.  1.
         -3    1    1    2    0  502  0.23712085269E+02  0.20615503404E+02 -0.36968764692E+03  0.37102050921E+03  0.00000000000E+00 0. -1.
<mgrwt>
<rscale>  1 0.30000000E+03</rscale>
<asrwt>0</asrwt>
<pdfrwt beam="1">  1       21 0.38621081E-02 0.30000000E+03</pdfrwt>
<pdfrwt beam="2">0</pdfrwt>
<totfact> 0.44604016E+04</totfact>
</mgrwt>
</event>
<event>
 6    1  0.6377696E-002  0.3000000E+03  0.7818608E-02  0.1093470E+00
         21   -1    0    0  501  502  0.00000000000E+00  0.00000000000E+00  0.17610474281E+01  0.17610474281E+01  0.00000000000E+00 0. -1.
         13   -1    0    0    0    0 -0.00000000000E+00 -0.00000000000E+00 -0.10000000000E+04  0.10000000000E+04  0.00000000000E+00 0.  1.
    9000005    2    1    2  501    0 -0.33313166787E+02  0.14473839640E+02 -0.25014058008E+03  0.25278145222E+03  0.29822252731E+01 0.  0.
         13    1    3    3    0    0 -0.14382099070E+02  0.76722003821E+01 -0.11686336414E+03  0.11799471730E+03  0.00000000000E+00 0.  1.
          1    1    3    3  501    0 -0.18931067717E+02  0.68016392578E+01 -0.13327721594E+03  0.13478673492E+03  0.00000000000E+00 0.  1.
         -1    1    1    2    0  502  0.33313166787E+02 -0.14473839640E+02 -0.74809837249E+03  0.74897959521E+03  0.00000000000E+00 0. -1.
<mgrwt>
<rscale>  1 0.30000000E+03</rscale>
<asrwt>0</asrwt>
<pdfrwt beam="1">  1       21 0.64038223E-02 0.30000000E+03</pdfrwt>
<pdfrwt beam="2">0</pdfrwt>
<totfact> 0.18829618E+04</totfact>
</mgrwt>
</event>
<event>
 6    1  0.6377696E-002  0.3000000E+03  0.7818608E-02  0.1093470E+00
         21   -1    0    0  501  502  0.00000000000E+00  0.00000000000E+00  0.15266861639E+01  0.15266861639E+01  0.00000000000E+00 0. -1.
         13   -1    0    0    0    0 -0.00000000000E+00 -0.00000000000E+00 -0.10000000000E+04  0.10000000000E+04  0.00000000000E+00 0.  1.
    9000005    2    1    2  501    0 -0.26829348319E+02 -0.26318677519E+02 -0.37337772979E+03  0.37530230472E+03  0.53295505881E+01 0.  0.
         13    1    3    3    0    0 -0.11701015302E+02 -0.85073323794E+01 -0.15773696210E+03  0.15839898256E+03  0.00000000000E+00 0.  1.
          1    1    3    3  501    0 -0.15128333017E+02 -0.17811345139E+02 -0.21564076769E+03  0.21690332216E+03  0.00000000000E+00 0.  1.
         -3    1    1    2    0  502  0.26829348319E+02  0.26318677519E+02 -0.62509558405E+03  0.62622438145E+03  0.00000000000E+00 0. -1.
<mgrwt>
<rscale>  1 0.30000000E+03</rscale>
<asrwt>0</asrwt>
<pdfrwt beam="1">  1       21 0.55515978E-02 0.30000000E+03</pdfrwt>
<pdfrwt beam="2">0</pdfrwt>
<totfact> 0.24085277E+04</totfact>
</mgrwt>
</event>
<event>
 6    1  0.6377696E-002  0.3000000E+03  0.7818608E-02  0.1093470E+00
         21   -1    0    0  501  502  0.00000000000E+00  0.00000000000E+00  0.27976487198E+01  0.27976487198E+01  0.00000000000E+00 0. -1.
         13   -1    0    0    0    0 -0.00000000000E+00 -0.00000000000E+00 -0.10000000000E+04  0.10000000000E+04  0.00000000000E+00 0.  1.
    9000005    2    1    2  501    0 -0.52456075898E+02  0.50940412617E+01 -0.46422705087E+03  0.46722294804E+03  0.35971190978E+01 0.  0.
         13    1    3    3    0    0 -0.49023746677E+02  0.49983585564E+01 -0.42550000041E+03  0.42834397588E+03  0.00000000000E+00 0.  1.
          3    1    3    3  501    0 -0.34323292214E+01  0.95682705261E-01 -0.38727050457E+02  0.38878972160E+02  0.00000000000E+00 0.  1.
         -1    1    1    2    0  502  0.52456075898E+02 -0.50940412617E+01 -0.53297530041E+03  0.53557470068E+03  0.00000000000E+00 0. -1.
<mgrwt>
<rscale>  1 0.30000000E+03</rscale>
<asrwt>0</asrwt>
<pdfrwt beam="1">  1       21 0.10173290E-01 0.30000000E+03</pdfrwt>
<pdfrwt beam="2">0</pdfrwt>
<totfact> 0.83429688E+03</totfact>
</mgrwt>
</event>
<event>
 6    1  0.6377696E-002  0.3000000E+03  0.7818608E-02  0.1093470E+00
         21   -1    0    0  501  502  0.00000000000E+00  0.00000000000E+00  0.13711903600E+01  0.13711903600E+01  0.00000000000E+00 0. -1.
         13   -1    0    0    0    0 -0.00000000000E+00 -0.00000000000E+00 -0.10000000000E+04  0.10000000000E+04  0.00000000000E+00 0.  1.
    9000005    2    1    2  501    0 -0.21770428743E+02  0.29316462011E+02 -0.43336959194E+03  0.43493373600E+03  0.49744322225E+01 0.  0.
         13    1    3    3    0    0 -0.17014162337E+02  0.19263117569E+02 -0.29424390960E+03  0.29536422897E+03  0.00000000000E+00 0.  1.
          3    1    3    3  501    0 -0.47562664066E+01  0.10053344442E+02 -0.13912568234E+03  0.13956950703E+03  0.00000000000E+00 0.  1.
         -3    1    1    2    0  502  0.21770428743E+02 -0.29316462011E+02 -0.56525921770E+03  0.56643745436E+03  0.00000000000E+00 0. -1.
<mgrwt>
<rscale>  1 0.30000000E+03</rscale>
<asrwt>0</asrwt>
<pdfrwt beam="1">  1       21 0.49861573E-02 0.30000000E+03</pdfrwt>
<pdfrwt beam="2">0</pdfrwt>
<totfact> 0.28941103E+04</totfact>
</mgrwt>
</event>
<event>
 6    1  0.6377696E-002  0.3000000E+03  0.7818608E-02  0.1093470E+00
         21   -1    0    0  501  502  0.00000000000E+00  0.00000000000E+00  0.15722567050E+01  0.15722567050E+01  0.00000000000E+00 0. -1.
         13   -1    0    0    0    0 -0.00000000000E+00 -0.00000000000E+00 -0.10000000000E+04  0.10000000000E+04  0.00000000000E+00 0.  1.
    9000005    2    1    2  501    0  0.36991966347E+02  0.13609504287E+02 -0.47402347009E+03  0.47568874685E+03  0.52829445217E+01 0.  0.
         13    1    3    3    0    0  0.25984180999E+02  0.11717097519E+02 -0.32525527955E+03  0.32650186051E+03  0.00000000000E+00 0.  1.
          1    1    3    3  501    0  0.11007785348E+02  0.18924067681E+01 -0.14876819053E+03  0.14918688634E+03  0.00000000000E+00 0.  1.
         -1    1    1    2    0  502 -0.36991966347E+02 -0.13609504287E+02 -0.52440427321E+03  0.52588350986E+03  0.00000000000E+00 0. -1.
<mgrwt>
<rscale>  1 0.30000000E+03</rscale>
<asrwt>0</asrwt>
<pdfrwt beam="1">  1       21 0.57173092E-02 0.30000000E+03</pdfrwt>
<pdfrwt beam="2">0</pdfrwt>
<totfact> 0.22898545E+04</totfact>
</mgrwt>
</event>
<event>
 6    1  0.6377696E-002  0.3000000E+03  0.7818608E-02  0.1093470E+00
         21   -1    0    0  501  502  0.00000000000E+00  0.00000000000E+00  0.22808733175E+01  0.22808733175E+01  0.00000000000E+00 0. -1.
         13   -1    0    0    0    0 -0.00000000000E+00 -0.00000000000E+00 -0.10000000000E+04  0.10000000000E+04  0.00000000000E+00 0.  1.
    9000005    2    1    2  501    0 -0.32531673822E+02 -0.23732590857E+02 -0.23106861139E+03  0.23457353437E+03  0.32394734610E+01 0.  0.
         13    1    3    3    0    0 -0.21073156231E+02 -0.13972533375E+02 -0.13846234024E+03  0.14075201337E+03  0.00000000000E+00 0.  1.
          1    1    3    3  501    0 -0.11458517590E+02 -0.97600574826E+01 -0.92606271152E+02  0.93821521007E+02  0.00000000000E+00 0.  1.
         -1    1    1    2    0  502  0.32531673822E+02  0.23732590857E+02 -0.76665051529E+03  0.76770733894E+03  0.00000000000E+00 0. -1.
<mgrwt>
<rscale>  1 0.30000000E+03</rscale>
<asrwt>0</asrwt>
<pdfrwt beam="1">  1       21 0.82941023E-02 0.30000000E+03</pdfrwt>
<pdfrwt beam="2">0</pdfrwt>
<totfact> 0.11988157E+04</totfact>
</mgrwt>
</event>
<event>
 6    1  0.6377696E-002  0.3000000E+03  0.7818608E-02  0.1093470E+00
         21   -1    0    0  501  502  0.00000000000E+00  0.00000000000E+00  0.13489830417E+01  0.13489830417E+01  0.00000000000E+00 0. -1.
         13   -1    0    0    0    0 -0.00000000000E+00 -0.00000000000E+00 -0.10000000000E+04  0.10000000000E+04  0.00000000000E+00 0.  1.
    9000005    2    1    2  501    0 -0.85578055851E+01  0.35341606300E+02 -0.56196711200E+03  0.56315370920E+03  0.35777140394E+01 0.  0.
         13    1    3    3    0    0 -0.80235146145E+01  0.26694012581E+02 -0.43017626772E+03  0.43107837849E+03  0.00000000000E+00 0.  1.
          3    1    3    3  501    0 -0.53429097055E+00  0.86475937191E+01 -0.13179084428E+03  0.13207533071E+03  0.00000000000E+00 0.  1.
         -1    1    1    2    0  502  0.85578055851E+01 -0.35341606300E+02 -0.43668390495E+03  0.43819527384E+03  0.00000000000E+00 0. -1.
<mgrwt>
<rscale>  1 0.30000000E+03</rscale>
<asrwt>0</asrwt>
<pdfrwt beam="1">  1       21 0.49054032E-02 0.30000000E+03</pdfrwt>
<pdfrwt beam="2">0</pdfrwt>
<totfact> 0.29757566E+04</totfact>
</mgrwt>
</event>
<event>
 6    1  0.6377696E-002  0.3000000E+03  0.7818608E-02  0.1093470E+00
         21   -1    0    0  501  502  0.00000000000E+00  0.00000000000E+00  0.19520122042E+01  0.19520122042E+01  0.00000000000E+00 0. -1.
         13   -1    0    0    0    0 -0.00000000000E+00 -0.00000000000E+00 -0.10000000000E+04  0.10000000000E+04  0.00000000000E+00 0.  1.
    9000005    2    1    2  501    0 -0.21820276031E+02  0.37843955871E+02 -0.56014118723E+03  0.56187172927E+03  0.57793670904E+01 0.  0.
         13    1    3    3    0    0 -0.15554565842E+02  0.31587927315E+02 -0.44657396831E+03  0.44795987638E+03  0.00000000000E+00 0.  1.
          1    1    3    3  501    0 -0.62657101891E+01  0.62560285562E+01 -0.11356721892E+03  0.11391185289E+03  0.00000000000E+00 0.  1.
         -1    1    1    2    0  502  0.21820276031E+02 -0.37843955871E+02 -0.43790680057E+03  0.44008028293E+03  0.00000000000E+00 0. -1.
<mgrwt>
<rscale>  1 0.30000000E+03</rscale>
<asrwt>0</asrwt>
<pdfrwt beam="1">  1       21 0.70982412E-02 0.30000000E+03</pdfrwt>
<pdfrwt beam="2">0</pdfrwt>
<totfact> 0.15748417E+04</totfact>
</mgrwt>
</event>
<event>
 6    1  0.6377696E-002  0.3000000E+03  0.7818608E-02  0.1093470E+00
         21   -1    0    0  501  502  0.00000000000E+00  0.00000000000E+00  0.12065131714E+01  0.12065131714E+01  0.00000000000E+00 0. -1.
         13   -1    0    0    0    0 -0.00000000000E+00 -0.00000000000E+00 -0.10000000000E+04  0.10000000000E+04  0.00000000000E+00 0.  1.
    9000005    2    1    2  501    0  0.32692152446E+02 -0.13892734437E+01 -0.33802689977E+03  0.33963022166E+03  0.39743662115E+01 0.  0.
         13    1    3    3    0    0  0.11892364309E+02 -0.24205216781E+01 -0.12545262928E+03  0.12603828564E+03  0.00000000000E+00 0.  1.
          3    1    3    3  501    0  0.20799788137E+02  0.10312482345E+01 -0.21257427049E+03  0.21359193602E+03  0.00000000000E+00 0.  1.
         -3    1    1    2    0  502 -0.32692152446E+02  0.13892734437E+01 -0.66076658706E+03  0.66157629151E+03  0.00000000000E+00 0. -1.
<mgrwt>
<rscale>  1 0.30000000E+03</rscale>
<asrwt>0</asrwt>
<pdfrwt beam="1">  1       21 0.43873299E-02 0.30000000E+03</pdfrwt>
<pdfrwt beam="2">0</pdfrwt>
<totfact> 0.35971677E+04</totfact>
</mgrwt>
</event>
<event>
 6    1  0.6377696E-002  0.3000000E+03  0.7818608E-02  0.1093470E+00
         21   -1    0    0  501  502  0.00000000000E+00  0.00000000000E+00  0.96545247169E+00  0.96545247169E+00  0.00000000000E+00 0. -1.
         13   -1    0    0    0    0 -0.00000000000E+00 -0.00000000000E+00 -0.10000000000E+04  0.10000000000E+04  0.00000000000E+00 0.  1.
    9000005    2    1    2  501    0  0.29539637362E+02  0.82145143475E+01 -0.42751171289E+03  0.42862078452E+03  0.30730834091E+01 0.  0.
         13    1    3    3    0    0  0.26436601469E+01  0.16270075167E+01 -0.47840001151E+02  0.47940607032E+02  0.00000000000E+00 0.  1.
          3    1    3    3  501    0  0.26895977215E+02  0.65875068308E+01 -0.37967171174E+03  0.38068017749E+03  0.00000000000E+00 0.  1.
         -3    1    1    2    0  502 -0.29539637362E+02 -0.82145143475E+01 -0.57152283464E+03  0.57234466795E+03  0.00000000000E+00 0. -1.
<mgrwt>
<rscale>  1 0.30000000E+03</rscale>
<asrwt>0</asrwt>
<pdfrwt beam="1">  1       21 0.35107437E-02 0.30000000E+03</pdfrwt>
<pdfrwt beam="2">0</pdfrwt>
<totfact> 0.52347434E+04</totfact>
</mgrwt>
</event>
<event>
 6    1  0.6377696E-002  0.3000000E+03  0.7818608E-02  0.1093470E+00
         21   -1    0    0  501  502  0.00000000000E+00  0.00000000000E+00  0.13256464724E+01  0.13256464724E+01  0.00000000000E+00 0. -1.
         13   -1    0    0    0    0 -0.00000000000E+00 -0.00000000000E+00 -0.10000000000E+04  0.10000000000E+04  0.00000000000E+00 0.  1.
    9000005    2    1    2  501    0 -0.24598260675E+02  0.26031725556E+02 -0.43231133090E+03  0.43383133059E+03  0.58147579201E+01 0.  0.
         13    1    3    3    0    0 -0.10391213828E+02  0.78655583090E+01 -0.17801462717E+03  0.17849104129E+03  0.00000000000E+00 0.  1.
          3    1    3    3  501    0 -0.14207046847E+02  0.18166167247E+02 -0.25429670373E+03  0.25534028930E+03  0.00000000000E+00 0.  1.
         -1    1    1    2    0  502  0.24598260675E+02 -0.26031725556E+02 -0.56636302263E+03  0.56749431589E+03  0.00000000000E+00 0. -1.
<mgrwt>
<rscale>  1 0.30000000E+03</rscale>
<asrwt>0</asrwt>
<pdfrwt beam="1">  1       21 0.48205428E-02 0.30000000E+03</pdfrwt>
<pdfrwt beam="2">0</pdfrwt>
<totfact> 0.30654944E+04</totfact>
</mgrwt>
</event>
<event>
 6    1  0.6377696E-002  0.3000000E+03  0.7818608E-02  0.1093470E+00
         21   -1    0    0  501  502  0.00000000000E+00  0.00000000000E+00  0.16226291010E+01  0.16226291010E+01  0.00000000000E+00 0. -1.
         13   -1    0    0    0    0 -0.00000000000E+00 -0.00000000000E+00 -0.10000000000E+04  0.10000000000E+04  0.00000000000E+00 0.  1.
    9000005    2    1    2  501    0 -0.34128220494E+02 -0.10199055601E+01 -0.76415733134E+03  0.76492703858E+03  0.33424044299E+01 0.  0.
         13    1    3    3    0    0 -0.25047106686E+02 -0.54218784918E+00 -0.59165282681E+03  0.59218301141E+03  0.00000000000E+00 0.  1.
          1    1    3    3  501    0 -0.90811138078E+01 -0.47771771094E+00 -0.17250450452E+03  0.17274402717E+03  0.00000000000E+00 0.  1.
         -1    1    1    2    0  502  0.34128220494E+02  0.10199055601E+01 -0.23422003956E+03  0.23669559052E+03  0.00000000000E+00 0. -1.
<mgrwt>
<rscale>  1 0.30000000E+03</rscale>
<asrwt>0</asrwt>
<pdfrwt beam="1">  1       21 0.59004819E-02 0.30000000E+03</pdfrwt>
<pdfrwt beam="2">0</pdfrwt>
<totfact> 0.21688136E+04</totfact>
</mgrwt>
</event>
<event>
 6    1  0.6377696E-002  0.3000000E+03  0.7818608E-02  0.1093470E+00
         21   -1    0    0  501  502  0.00000000000E+00  0.00000000000E+00  0.14336073073E+02  0.14336073073E+02  0.00000000000E+00 0. -1.
         13   -1    0    0    0    0 -0.00000000000E+00 -0.00000000000E+00 -0.10000000000E+04  0.10000000000E+04  0.00000000000E+00 0.  1.
    9000005    2    1    2  501    0 -0.11772492186E+03  0.17236690027E+02 -0.54887194259E+03  0.56162921617E+03  0.32720599760E+01 0.  0.
         13    1    3    3    0    0 -0.74363602720E+02  0.11588153178E+02 -0.34043275458E+03  0.34865267975E+03  0.00000000000E+00 0.  1.
          3    1    3    3  501    0 -0.43361319142E+02  0.56485368495E+01 -0.20843918802E+03  0.21297653642E+03  0.00000000000E+00 0.  1.
         -3    1    1    2    0  502  0.11772492186E+03 -0.17236690027E+02 -0.43679198433E+03  0.45270685690E+03  0.00000000000E+00 0. -1.
<mgrwt>
<rscale>  1 0.30000000E+03</rscale>
<asrwt>0</asrwt>
<pdfrwt beam="1">  1       21 0.52131285E-01 0.30000000E+03</pdfrwt>
<pdfrwt beam="2">0</pdfrwt>
<totfact> 0.34307357E+02</totfact>
</mgrwt>
</event>
<event>
 6    1  0.6377696E-002  0.3000000E+03  0.7818608E-02  0.1093470E+00
         21   -1    0    0  501  502  0.00000000000E+00  0.00000000000E+00  0.11215461188E+01  0.11215461188E+01  0.00000000000E+00 0. -1.
         13   -1    0    0    0    0 -0.00000000000E+00 -0.00000000000E+00 -0.10000000000E+04  0.10000000000E+04  0.00000000000E+00 0.  1.
    9000005    2    1    2  501    0 -0.32566759150E+02 -0.74868964821E+01 -0.50771836845E+03  0.50882602822E+03  0.30558000845E+01 0.  0.
         13    1    3    3    0    0 -0.12378934707E+02 -0.43248872120E+01 -0.20425495299E+03  0.20467542230E+03  0.00000000000E+00 0.  1.
          3    1    3    3  501    0 -0.20187824443E+02 -0.31620092701E+01 -0.30346341547E+03  0.30415060593E+03  0.00000000000E+00 0.  1.
         -3    1    1    2    0  502  0.32566759150E+02  0.74868964821E+01 -0.49116008543E+03  0.49229551789E+03  0.00000000000E+00 0. -1.
<mgrwt>
<rscale>  1 0.30000000E+03</rscale>
<asrwt>0</asrwt>
<pdfrwt beam="1">  1       21 0.40783581E-02 0.30000000E+03</pdfrwt>
<pdfrwt beam="2">0</pdfrwt>
<totfact> 0.40695148E+04</totfact>
</mgrwt>
</event>
<event>
 6    1  0.6377696E-002  0.3000000E+03  0.7818608E-02  0.1093470E+00
         21   -1    0    0  501  502  0.00000000000E+00  0.00000000000E+00  0.10520205784E+01  0.10520205784E+01  0.00000000000E+00 0. -1.
         13   -1    0    0    0    0 -0.00000000000E+00 -0.00000000000E+00 -0.10000000000E+04  0.10000000000E+04  0.00000000000E+00 0.  1.
    9000005    2    1    2  501    0  0.28813424547E+02  0.12115802243E+02 -0.62925725115E+03  0.63004226240E+03  0.33997322807E+01 0.  0.
         13    1    3    3    0    0  0.43944111989E+01  0.30709240141E+01 -0.11992855396E+03  0.12004832143E+03  0.00000000000E+00 0.  1.
          1    1    3    3  501    0  0.24419013348E+02  0.90448782288E+01 -0.50932869719E+03  0.50999394096E+03  0.00000000000E+00 0.  1.
         -3    1    1    2    0  502 -0.28813424547E+02 -0.12115802243E+02 -0.36969072827E+03  0.37100975818E+03  0.00000000000E+00 0. -1.
<mgrwt>
<rscale>  1 0.30000000E+03</rscale>
<asrwt>0</asrwt>
<pdfrwt beam="1">  1       21 0.38255374E-02 0.30000000E+03</pdfrwt>
<pdfrwt beam="2">0</pdfrwt>
<totfact> 0.45323091E+04</totfact>
</mgrwt>
</event>
<event>
 6    1  0.6377696E-002  0.3000000E+03  0.7818608E-02  0.1093470E+00
         21   -1    0    0  501  502  0.00000000000E+00  0.00000000000E+00  0.11675272167E+01  0.11675272167E+01  0.00000000000E+00 0. -1.
         13   -1    0    0    0    0 -0.00000000000E+00 -0.00000000000E+00 -0.10000000000E+04  0.10000000000E+04  0.00000000000E+00 0.  1.
    9000005    2    1    2  501    0  0.32045982328E+02 -0.10037766608E+02 -0.41379244596E+03  0.41516451124E+03  0.31114823578E+01 0.  0.
         13    1    3    3    0    0  0.18875302781E+02 -0.47415795583E+01 -0.22615119616E+03  0.22698705504E+03  0.00000000000E+00 0.  1.
          3    1    3    3  501    0  0.13170679546E+02 -0.52961870497E+01 -0.18764124980E+03  0.18817745620E+03  0.00000000000E+00 0.  1.
         -1    1    1    2    0  502 -0.32045982328E+02  0.10037766608E+02 -0.58504002683E+03  0.58600301597E+03  0.00000000000E+00 0. -1.
<mgrwt>
<rscale>  1 0.30000000E+03</rscale>
<asrwt>0</asrwt>
<pdfrwt beam="1">  1       21 0.42455625E-02 0.30000000E+03</pdfrwt>
<pdfrwt beam="2">0</pdfrwt>
<totfact> 0.38027016E+04</totfact>
</mgrwt>
</event>
<event>
 6    1  0.6377696E-002  0.3000000E+03  0.7818608E-02  0.1093470E+00
         21   -1    0    0  501  502  0.00000000000E+00  0.00000000000E+00  0.13979311765E+01  0.13979311765E+01  0.00000000000E+00 0. -1.
         13   -1    0    0    0    0 -0.00000000000E+00 -0.00000000000E+00 -0.10000000000E+04  0.10000000000E+04  0.00000000000E+00 0.  1.
    9000005    2    1    2  501    0 -0.41264733171E+01 -0.36580054800E+02 -0.41725218555E+03  0.41888371248E+03  0.30083302408E+01 0.  0.
         13    1    3    3    0    0 -0.33144209864E+01 -0.16795197817E+02 -0.19926297222E+03  0.19999699036E+03  0.00000000000E+00 0.  1.
          3    1    3    3  501    0 -0.81205233073E+00 -0.19784856983E+02 -0.21798921333E+03  0.21888672213E+03  0.00000000000E+00 0.  1.
         -1    1    1    2    0  502  0.41264733171E+01  0.36580054800E+02 -0.58134988328E+03  0.58251421869E+03  0.00000000000E+00 0. -1.
<mgrwt>
<rscale>  1 0.30000000E+03</rscale>
<asrwt>0</asrwt>
<pdfrwt beam="1">  1       21 0.50833968E-02 0.30000000E+03</pdfrwt>
<pdfrwt beam="2">0</pdfrwt>
<totfact> 0.28003403E+04</totfact>
</mgrwt>
</event>
<event>
 6    1  0.6377696E-002  0.3000000E+03  0.7818608E-02  0.1093470E+00
         21   -1    0    0  501  502  0.00000000000E+00  0.00000000000E+00  0.71726818589E+01  0.71726818589E+01  0.00000000000E+00 0. -1.
         13   -1    0    0    0    0 -0.00000000000E+00 -0.00000000000E+00 -0.10000000000E+04  0.10000000000E+04  0.00000000000E+00 0.  1.
    9000005    2    1    2  501    0  0.77851974652E+02 -0.10368642720E+01 -0.29880825767E+03  0.30879995807E+03  0.30056951261E+01 0.  0.
         13    1    3    3    0    0  0.29632914935E+02  0.10622323944E+01 -0.11405341139E+03  0.11784489228E+03  0.00000000000E+00 0.  1.
          1    1    3    3  501    0  0.48219059717E+02 -0.20990966664E+01 -0.18475484628E+03  0.19095506579E+03  0.00000000000E+00 0.  1.
         -3    1    1    2    0  502 -0.77851974652E+02  0.10368642720E+01 -0.69401906047E+03  0.69837272379E+03  0.00000000000E+00 0. -1.
<mgrwt>
<rscale>  1 0.30000000E+03</rscale>
<asrwt>0</asrwt>
<pdfrwt beam="1">  1       21 0.26082534E-01 0.30000000E+03</pdfrwt>
<pdfrwt beam="2">0</pdfrwt>
<totfact> 0.14350365E+03</totfact>
</mgrwt>
</event>
<event>
 6    1  0.6377696E-002  0.3000000E+03  0.7818608E-02  0.1093470E+00
         21   -1    0    0  501  502  0.00000000000E+00  0.00000000000E+00  0.11153003171E+01  0.11153003171E+01  0.00000000000E+00 0. -1.
         13   -1    0    0    0    0 -0.00000000000E+00 -0.00000000000E+00 -0.10000000000E+04  0.10000000000E+04  0.00000000000E+00 0.  1.
    9000005    2    1    2  501    0 -0.88163556322E+01 -0.32118613798E+02 -0.48962077727E+03  0.49076338629E+03  0.32958018866E+01 0.  0.
         13    1    3    3    0    0 -0.48437485559E+01 -0.23014591107E+02 -0.33687539684E+03  0.33769537500E+03  0.00000000000E+00 0.  1.
          3    1    3    3  501    0 -0.39726070763E+01 -0.91040226914E+01 -0.15274538043E+03  0.15306801129E+03  0.00000000000E+00 0.  1.
         -1    1    1    2    0  502  0.88163556322E+01  0.32118613798E+02 -0.50926392241E+03  0.51035191403E+03  0.00000000000E+00 0. -1.
<mgrwt>
<rscale>  1 0.30000000E+03</rscale>
<asrwt>0</asrwt>
<pdfrwt beam="1">  1       21 0.40556461E-02 0.30000000E+03</pdfrwt>
<pdfrwt beam="2">0</pdfrwt>
<totfact> 0.41080004E+04</totfact>
</mgrwt>
</event>
<event>
 6    1  0.6377696E-002  0.3000000E+03  0.7818608E-02  0.1093470E+00
         21   -1    0    0  501  502  0.00000000000E+00  0.00000000000E+00  0.14495323377E+02  0.14495323377E+02  0.00000000000E+00 0. -1.
         13   -1    0    0    0    0 -0.00000000000E+00 -0.00000000000E+00 -0.10000000000E+04  0.10000000000E+04  0.00000000000E+00 0.  1.
    9000005    2    1    2  501    0  0.65230771601E+02 -0.43279243773E+02 -0.10756448544E+03  0.13307197118E+03  0.31439593672E+01 0.  0.
         13    1    3    3    0    0  0.59436706707E+02 -0.38383762064E+02 -0.96617943813E+02  0.11975417471E+03  0.00000000000E+00 0.  1.
          3    1    3    3  501    0  0.57940648936E+01 -0.48954817095E+01 -0.10946541631E+02  0.13317796471E+02  0.00000000000E+00 0.  1.
         -3    1    1    2    0  502 -0.65230771601E+02  0.43279243773E+02 -0.87794019118E+03  0.88142335219E+03  0.00000000000E+00 0. -1.
<mgrwt>
<rscale>  1 0.30000000E+03</rscale>
<asrwt>0</asrwt>
<pdfrwt beam="1">  1       21 0.52710378E-01 0.30000000E+03</pdfrwt>
<pdfrwt beam="2">0</pdfrwt>
<totfact> 0.33486759E+02</totfact>
</mgrwt>
</event>
<event>
 6    1  0.6377696E-002  0.3000000E+03  0.7818608E-02  0.1093470E+00
         21   -1    0    0  501  502  0.00000000000E+00  0.00000000000E+00  0.21785418158E+01  0.21785418158E+01  0.00000000000E+00 0. -1.
         13   -1    0    0    0    0 -0.00000000000E+00 -0.00000000000E+00 -0.10000000000E+04  0.10000000000E+04  0.00000000000E+00 0.  1.
    9000005    2    1    2  501    0 -0.21484057470E+02  0.41371936275E+02 -0.49051441267E+03  0.49273409905E+03  0.30498349280E+01 0.  0.
         13    1    3    3    0    0 -0.82182598223E+01  0.15585737763E+02 -0.20120318769E+03  0.20197321049E+03  0.00000000000E+00 0.  1.
          1    1    3    3  501    0 -0.13265797647E+02  0.25786198513E+02 -0.28931122498E+03  0.29076088857E+03  0.00000000000E+00 0.  1.
         -3    1    1    2    0  502  0.21484057470E+02 -0.41371936275E+02 -0.50730704551E+03  0.50944444277E+03  0.00000000000E+00 0. -1.
<mgrwt>
<rscale>  1 0.30000000E+03</rscale>
<asrwt>0</asrwt>
<pdfrwt beam="1">  1       21 0.79219869E-02 0.30000000E+03</pdfrwt>
<pdfrwt beam="2">0</pdfrwt>
<totfact> 0.12995579E+04</totfact>
</mgrwt>
</event>
<event>
 6    1  0.6377696E-002  0.3000000E+03  0.7818608E-02  0.1093470E+00
         21   -1    0    0  501  502  0.00000000000E+00  0.00000000000E+00  0.17612626576E+01  0.17612626576E+01  0.00000000000E+00 0. -1.
         13   -1    0    0    0    0 -0.00000000000E+00 -0.00000000000E+00 -0.10000000000E+04  0.10000000000E+04  0.00000000000E+00 0.  1.
    9000005    2    1    2  501    0  0.37888179479E+02  0.16609584403E+02 -0.58084499891E+03  0.58232244075E+03  0.26682966775E+01 0.  0.
         13    1    3    3    0    0  0.42188406738E+01  0.26144549346E+01 -0.77050571551E+02  0.77210262062E+02  0.00000000000E+00 0.  1.
          1    1    3    3  501    0  0.33669338805E+02  0.13995129469E+02 -0.50379442736E+03  0.50511217869E+03  0.00000000000E+00 0.  1.
         -1    1    1    2    0  502 -0.37888179479E+02 -0.16609584403E+02 -0.41739373843E+03  0.41943882190E+03  0.00000000000E+00 0. -1.
<mgrwt>
<rscale>  1 0.30000000E+03</rscale>
<asrwt>0</asrwt>
<pdfrwt beam="1">  1       21 0.64046050E-02 0.30000000E+03</pdfrwt>
<pdfrwt beam="2">0</pdfrwt>
<totfact> 0.18825638E+04</totfact>
</mgrwt>
</event>
<event>
 6    1  0.6377696E-002  0.3000000E+03  0.7818608E-02  0.1093470E+00
         21   -1    0    0  501  502  0.00000000000E+00  0.00000000000E+00  0.11588261644E+01  0.11588261644E+01  0.00000000000E+00 0. -1.
         13   -1    0    0    0    0 -0.00000000000E+00 -0.00000000000E+00 -0.10000000000E+04  0.10000000000E+04  0.00000000000E+00 0.  1.
    9000005    2    1    2  501    0  0.11656458558E+02  0.31159389697E+02 -0.60129708313E+03  0.60222514164E+03  0.31872326042E+01 0.  0.
         13    1    3    3    0    0  0.67364156580E+01  0.14655073342E+02 -0.31022212005E+03  0.31064113417E+03  0.00000000000E+00 0.  1.
          3    1    3    3  501    0  0.49200428999E+01  0.16504316355E+02 -0.29107496308E+03  0.29158400747E+03  0.00000000000E+00 0.  1.
         -3    1    1    2    0  502 -0.11656458558E+02 -0.31159389697E+02 -0.39754409071E+03  0.39893368453E+03  0.00000000000E+00 0. -1.
<mgrwt>
<rscale>  1 0.30000000E+03</rscale>
<asrwt>0</asrwt>
<pdfrwt beam="1">  1       21 0.42139222E-02 0.30000000E+03</pdfrwt>
<pdfrwt beam="2">0</pdfrwt>
<totfact> 0.38510626E+04</totfact>
</mgrwt>
</event>
<event>
 6    1  0.6377696E-002  0.3000000E+03  0.7818608E-02  0.1093470E+00
         21   -1    0    0  501  502  0.00000000000E+00  0.00000000000E+00  0.10097026429E+01  0.10097026429E+01  0.00000000000E+00 0. -1.
         13   -1    0    0    0    0 -0.00000000000E+00 -0.00000000000E+00 -0.10000000000E+04  0.10000000000E+04  0.00000000000E+00 0.  1.
    9000005    2    1    2  501    0  0.30993789249E+02  0.23533883979E+01 -0.55226054561E+03  0.55319989423E+03  0.85005492088E+01 0.  0.
         13    1    3    3    0    0  0.16635180626E+02  0.32998335570E+01 -0.23372304437E+03  0.23433753350E+03  0.00000000000E+00 0.  1.
          1    1    3    3  501    0  0.14358608623E+02 -0.94644515911E+00 -0.31853750124E+03  0.31886236073E+03  0.00000000000E+00 0.  1.
         -1    1    1    2    0  502 -0.30993789249E+02 -0.23533883979E+01 -0.44672975175E+03  0.44780980841E+03  0.00000000000E+00 0. -1.
<mgrwt>
<rscale>  1 0.30000000E+03</rscale>
<asrwt>0</asrwt>
<pdfrwt beam="1">  1       21 0.36716537E-02 0.30000000E+03</pdfrwt>
<pdfrwt beam="2">0</pdfrwt>
<totfact> 0.48558138E+04</totfact>
</mgrwt>
</event>
<event>
 6    1  0.6377696E-002  0.3000000E+03  0.7818608E-02  0.1093470E+00
         21   -1    0    0  501  502  0.00000000000E+00  0.00000000000E+00  0.95097876984E+00  0.95097876984E+00  0.00000000000E+00 0. -1.
         13   -1    0    0    0    0 -0.00000000000E+00 -0.00000000000E+00 -0.10000000000E+04  0.10000000000E+04  0.00000000000E+00 0.  1.
    9000005    2    1    2  501    0  0.15568138642E+02 -0.26247547910E+02 -0.43934047978E+03  0.44041110322E+03  0.32529912052E+01 0.  0.
         13    1    3    3    0    0  0.14727151628E+02 -0.24176329095E+02 -0.41672134625E+03  0.41768177397E+03  0.00000000000E+00 0.  1.
          3    1    3    3  501    0  0.84098701379E+00 -0.20712188150E+01 -0.22619133530E+02  0.22729329251E+02  0.00000000000E+00 0.  1.
         -3    1    1    2    0  502 -0.15568138642E+02  0.26247547910E+02 -0.55970854145E+03  0.56053987555E+03  0.00000000000E+00 0. -1.
<mgrwt>
<rscale>  1 0.30000000E+03</rscale>
<asrwt>0</asrwt>
<pdfrwt beam="1">  1       21 0.34581119E-02 0.30000000E+03</pdfrwt>
<pdfrwt beam="2">0</pdfrwt>
<totfact> 0.53687910E+04</totfact>
</mgrwt>
</event>
<event>
 6    1  0.6377696E-002  0.3000000E+03  0.7818608E-02  0.1093470E+00
         21   -1    0    0  501  502  0.00000000000E+00  0.00000000000E+00  0.28719716542E+01  0.28719716542E+01  0.00000000000E+00 0. -1.
         13   -1    0    0    0    0 -0.00000000000E+00 -0.00000000000E+00 -0.10000000000E+04  0.10000000000E+04  0.00000000000E+00 0.  1.
    9000005    2    1    2  501    0 -0.16858636035E+02 -0.48370010223E+02 -0.35822633257E+03  0.36192014167E+03  0.60176490632E+01 0.  0.
         13    1    3    3    0    0 -0.82932425717E+01 -0.24343628639E+02 -0.20091278300E+03  0.20255205874E+03  0.00000000000E+00 0.  1.
          1    1    3    3  501    0 -0.85653934630E+01 -0.24026381584E+02 -0.15731354957E+03  0.15936808292E+03  0.00000000000E+00 0.  1.
         -1    1    1    2    0  502  0.16858636035E+02  0.48370010223E+02 -0.63890169578E+03  0.64095182999E+03  0.00000000000E+00 0. -1.
<mgrwt>
<rscale>  1 0.30000000E+03</rscale>
<asrwt>0</asrwt>
<pdfrwt beam="1">  1       21 0.10443555E-01 0.30000000E+03</pdfrwt>
<pdfrwt beam="2">0</pdfrwt>
<totfact> 0.79603990E+03</totfact>
</mgrwt>
</event>
<event>
 6    1  0.6377696E-002  0.3000000E+03  0.7818608E-02  0.1093470E+00
         21   -1    0    0  501  502  0.00000000000E+00  0.00000000000E+00  0.21826199055E+01  0.21826199055E+01  0.00000000000E+00 0. -1.
         13   -1    0    0    0    0 -0.00000000000E+00 -0.00000000000E+00 -0.10000000000E+04  0.10000000000E+04  0.00000000000E+00 0.  1.
    9000005    2    1    2  501    0 -0.44528128489E+02  0.11400971479E+02 -0.58459265086E+03  0.58640934848E+03  0.38236334575E+01 0.  0.
         13    1    3    3    0    0 -0.21029388716E+02  0.43400377005E+01 -0.29348747250E+03  0.29427192803E+03  0.00000000000E+00 0.  1.
          3    1    3    3  501    0 -0.23498739773E+02  0.70609337787E+01 -0.29110517836E+03  0.29213742045E+03  0.00000000000E+00 0.  1.
         -3    1    1    2    0  502  0.44528128489E+02 -0.11400971479E+02 -0.41322472924E+03  0.41577327142E+03  0.00000000000E+00 0. -1.
<mgrwt>
<rscale>  1 0.30000000E+03</rscale>
<asrwt>0</asrwt>
<pdfrwt beam="1">  1       21 0.79368164E-02 0.30000000E+03</pdfrwt>
<pdfrwt beam="2">0</pdfrwt>
<totfact> 0.12952981E+04</totfact>
</mgrwt>
</event>
<event>
 6    1  0.6377696E-002  0.3000000E+03  0.7818608E-02  0.1093470E+00
         21   -1    0    0  501  502  0.00000000000E+00  0.00000000000E+00  0.23101299357E+01  0.23101299357E+01  0.00000000000E+00 0. -1.
         13   -1    0    0    0    0 -0.00000000000E+00 -0.00000000000E+00 -0.10000000000E+04  0.10000000000E+04  0.00000000000E+00 0.  1.
    9000005    2    1    2  501    0  0.45623610631E+02 -0.11141496027E+02 -0.60139107854E+03  0.60323823298E+03  0.44147019977E+01 0.  0.
         13    1    3    3    0    0  0.25301548864E+02 -0.74731888624E+01 -0.36006874436E+03  0.36103395629E+03  0.00000000000E+00 0.  1.
          1    1    3    3  501    0  0.20322061767E+02 -0.36683071649E+01 -0.24132233418E+03  0.24220427669E+03  0.00000000000E+00 0.  1.
         -3    1    1    2    0  502 -0.45623610631E+02  0.11141496027E+02 -0.39629879152E+03  0.39907189696E+03  0.00000000000E+00 0. -1.
<mgrwt>
<rscale>  1 0.30000000E+03</rscale>
<asrwt>0</asrwt>
<pdfrwt beam="1">  1       21 0.84004902E-02 0.30000000E+03</pdfrwt>
<pdfrwt beam="2">0</pdfrwt>
<totfact> 0.11722067E+04</totfact>
</mgrwt>
</event>
<event>
 6    1  0.6377696E-002  0.3000000E+03  0.7818608E-02  0.1093470E+00
         21   -1    0    0  501  502  0.00000000000E+00  0.00000000000E+00  0.36041197119E+01  0.36041197119E+01  0.00000000000E+00 0. -1.
         13   -1    0    0    0    0 -0.00000000000E+00 -0.00000000000E+00 -0.10000000000E+04  0.10000000000E+04  0.00000000000E+00 0.  1.
    9000005    2    1    2  501    0 -0.39043878487E+02  0.18895614670E+02 -0.15572114047E+03  0.16181110069E+03  0.72311836557E+01 0.  0.
         13    1    3    3    0    0 -0.35677861445E+01  0.38811603549E+01 -0.14441470477E+02  0.15373632401E+02  0.00000000000E+00 0.  1.
          3    1    3    3  501    0 -0.35476092343E+02  0.15014454315E+02 -0.14127966999E+03  0.14643746829E+03  0.00000000000E+00 0.  1.
         -3    1    1    2    0  502  0.39043878487E+02 -0.18895614670E+02 -0.84067473982E+03  0.84179301902E+03  0.00000000000E+00 0. -1.
<mgrwt>
<rscale>  1 0.30000000E+03</rscale>
<asrwt>0</asrwt>
<pdfrwt beam="1">  1       21 0.13105917E-01 0.30000000E+03</pdfrwt>
<pdfrwt beam="2">0</pdfrwt>
<totfact> 0.52777123E+03</totfact>
</mgrwt>
</event>
<event>
 6    1  0.6377696E-002  0.3000000E+03  0.7818608E-02  0.1093470E+00
         21   -1    0    0  501  502  0.00000000000E+00  0.00000000000E+00  0.10327955012E+01  0.10327955012E+01  0.00000000000E+00 0. -1.
         13   -1    0    0    0    0 -0.00000000000E+00 -0.00000000000E+00 -0.10000000000E+04  0.10000000000E+04  0.00000000000E+00 0.  1.
    9000005    2    1    2  501    0 -0.14124535209E+02 -0.28684955633E+02 -0.46732953634E+03  0.46843450469E+03  0.34147429667E+01 0.  0.
         13    1    3    3    0    0 -0.61724043277E+01 -0.11022931760E+02 -0.20723443986E+03  0.20761916257E+03  0.00000000000E+00 0.  1.
          3    1    3    3  501    0 -0.79521308818E+01 -0.17662023873E+02 -0.26009509648E+03  0.26081534212E+03  0.00000000000E+00 0.  1.
         -3    1    1    2    0  502  0.14124535209E+02  0.28684955633E+02 -0.53163766816E+03  0.53259829081E+03  0.00000000000E+00 0. -1.
<mgrwt>
<rscale>  1 0.30000000E+03</rscale>
<asrwt>0</asrwt>
<pdfrwt beam="1">  1       21 0.37556279E-02 0.30000000E+03</pdfrwt>
<pdfrwt beam="2">0</pdfrwt>
<totfact> 0.46749391E+04</totfact>
</mgrwt>
</event>
<event>
 6    1  0.6377696E-002  0.3000000E+03  0.7818608E-02  0.1093470E+00
         21   -1    0    0  501  502  0.00000000000E+00  0.00000000000E+00  0.13062957270E+01  0.13062957270E+01  0.00000000000E+00 0. -1.
         13   -1    0    0    0    0 -0.00000000000E+00 -0.00000000000E+00 -0.10000000000E+04  0.10000000000E+04  0.00000000000E+00 0.  1.
    9000005    2    1    2  501    0 -0.71161644707E+01 -0.34250678018E+02 -0.62196730726E+03  0.62295919722E+03  0.33288677671E+01 0.  0.
         13    1    3    3    0    0 -0.41058651490E+01 -0.22126306219E+02 -0.42618877635E+03  0.42678250273E+03  0.00000000000E+00 0.  1.
          1    1    3    3  501    0 -0.30102993217E+01 -0.12124371799E+02 -0.19577853091E+03  0.19617669448E+03  0.00000000000E+00 0.  1.
         -1    1    1    2    0  502  0.71161644707E+01  0.34250678018E+02 -0.37672639702E+03  0.37834709851E+03  0.00000000000E+00 0. -1.
<mgrwt>
<rscale>  1 0.30000000E+03</rscale>
<asrwt>0</asrwt>
<pdfrwt beam="1">  1       21 0.47501763E-02 0.30000000E+03</pdfrwt>
<pdfrwt beam="2">0</pdfrwt>
<totfact> 0.31431566E+04</totfact>
</mgrwt>
</event>
<event>
 6    1  0.6377696E-002  0.3000000E+03  0.7818608E-02  0.1093470E+00
         21   -1    0    0  501  502  0.00000000000E+00  0.00000000000E+00  0.12175977159E+01  0.12175977159E+01  0.00000000000E+00 0. -1.
         13   -1    0    0    0    0 -0.00000000000E+00 -0.00000000000E+00 -0.10000000000E+04  0.10000000000E+04  0.00000000000E+00 0.  1.
    9000005    2    1    2  501    0  0.10262897263E+02  0.32047314392E+02 -0.62690899524E+03  0.62782479076E+03  0.40892737529E+01 0.  0.
         13    1    3    3    0    0  0.62424781307E+01  0.14273050973E+02 -0.31264348049E+03  0.31303136330E+03  0.00000000000E+00 0.  1.
          3    1    3    3  501    0  0.40204191321E+01  0.17774263419E+02 -0.31426551475E+03  0.31479342746E+03  0.00000000000E+00 0.  1.
         -3    1    1    2    0  502 -0.10262897263E+02 -0.32047314392E+02 -0.37187340704E+03  0.37339280696E+03  0.00000000000E+00 0. -1.
<mgrwt>
<rscale>  1 0.30000000E+03</rscale>
<asrwt>0</asrwt>
<pdfrwt beam="1">  1       21 0.44276374E-02 0.30000000E+03</pdfrwt>
<pdfrwt beam="2">0</pdfrwt>
<totfact> 0.35418634E+04</totfact>
</mgrwt>
</event>
<event>
 6    1  0.6377696E-002  0.3000000E+03  0.7818608E-02  0.1093470E+00
         21   -1    0    0  501  502  0.00000000000E+00  0.00000000000E+00  0.16385654475E+01  0.16385654475E+01  0.00000000000E+00 0. -1.
         13   -1    0    0    0    0 -0.00000000000E+00 -0.00000000000E+00 -0.10000000000E+04  0.10000000000E+04  0.00000000000E+00 0.  1.
    9000005    2    1    2  501    0 -0.10449941682E+02  0.35724455150E+02 -0.69390771617E+03  0.69491800107E+03  0.42037685215E+01 0.  0.
         13    1    3    3    0    0 -0.43490225054E+01  0.17643033377E+02 -0.37475745659E+03  0.37519773705E+03  0.00000000000E+00 0.  1.
          3    1    3    3  501    0 -0.61009191763E+01  0.18081421774E+02 -0.31915025959E+03  0.31972026402E+03  0.00000000000E+00 0.  1.
         -3    1    1    2    0  502  0.10449941682E+02 -0.35724455150E+02 -0.30445371838E+03  0.30672056438E+03  0.00000000000E+00 0. -1.
<mgrwt>
<rscale>  1 0.30000000E+03</rscale>
<asrwt>0</asrwt>
<pdfrwt beam="1">  1       21 0.59584324E-02 0.30000000E+03</pdfrwt>
<pdfrwt beam="2">0</pdfrwt>
<totfact> 0.21325796E+04</totfact>
</mgrwt>
</event>
<event>
 6    1  0.6377696E-002  0.3000000E+03  0.7818608E-02  0.1093470E+00
         21   -1    0    0  501  502  0.00000000000E+00  0.00000000000E+00  0.26225632621E+01  0.26225632621E+01  0.00000000000E+00 0. -1.
         13   -1    0    0    0    0 -0.00000000000E+00 -0.00000000000E+00 -0.10000000000E+04  0.10000000000E+04  0.00000000000E+00 0.  1.
    9000005    2    1    2  501    0 -0.77017878538E+01 -0.49673115605E+02 -0.59227914322E+03  0.59441751263E+03  0.32954329571E+01 0.  0.
         13    1    3    3    0    0 -0.17490996706E+01 -0.10732683185E+02 -0.14484044666E+03  0.14524808029E+03  0.00000000000E+00 0.  1.
          3    1    3    3  501    0 -0.59526881832E+01 -0.38940432420E+02 -0.44743869656E+03  0.44916943234E+03  0.00000000000E+00 0.  1.
         -3    1    1    2    0  502  0.77017878538E+01  0.49673115605E+02 -0.40509829352E+03  0.40820505063E+03  0.00000000000E+00 0. -1.
<mgrwt>
<rscale>  1 0.30000000E+03</rscale>
<asrwt>0</asrwt>
<pdfrwt beam="1">  1       21 0.95366138E-02 0.30000000E+03</pdfrwt>
<pdfrwt beam="2">0</pdfrwt>
<totfact> 0.93633292E+03</totfact>
</mgrwt>
</event>
<event>
 6    1  0.6377696E-002  0.3000000E+03  0.7818608E-02  0.1093470E+00
         21   -1    0    0  501  502  0.00000000000E+00  0.00000000000E+00  0.28085508197E+01  0.28085508197E+01  0.00000000000E+00 0. -1.
         13   -1    0    0    0    0 -0.00000000000E+00 -0.00000000000E+00 -0.10000000000E+04  0.10000000000E+04  0.00000000000E+00 0.  1.
    9000005    2    1    2  501    0 -0.12987610412E+02  0.45166116110E+02 -0.72955490326E+03  0.73107710844E+03  0.38373867573E+01 0.  0.
         13    1    3    3    0    0 -0.11266683788E+02  0.37538126414E+02 -0.58569974171E+03  0.58700957108E+03  0.00000000000E+00 0.  1.
          3    1    3    3  501    0 -0.17209266247E+01  0.76279896964E+01 -0.14385516155E+03  0.14406753736E+03  0.00000000000E+00 0.  1.
         -3    1    1    2    0  502  0.12987610412E+02 -0.45166116110E+02 -0.26763654592E+03  0.27173144238E+03  0.00000000000E+00 0. -1.
<mgrwt>
<rscale>  1 0.30000000E+03</rscale>
<asrwt>0</asrwt>
<pdfrwt beam="1">  1       21 0.10212934E-01 0.30000000E+03</pdfrwt>
<pdfrwt beam="2">0</pdfrwt>
<totfact> 0.82851218E+03</totfact>
</mgrwt>
</event>
<event>
 6    1  0.6377696E-002  0.3000000E+03  0.7818608E-02  0.1093470E+00
         21   -1    0    0  501  502  0.00000000000E+00  0.00000000000E+00  0.94654625813E+00  0.94654625813E+00  0.00000000000E+00 0. -1.
         13   -1    0    0    0    0 -0.00000000000E+00 -0.00000000000E+00 -0.10000000000E+04  0.10000000000E+04  0.00000000000E+00 0.  1.
    9000005    2    1    2  501    0 -0.26177129402E+02 -0.15382759057E+02 -0.57326578308E+03  0.57407770004E+03  0.31106684674E+01 0.  0.
         13    1    3    3    0    0 -0.23488758709E+02 -0.14384753984E+02 -0.50319432686E+03  0.50394759005E+03  0.00000000000E+00 0.  1.
          1    1    3    3  501    0 -0.26883706934E+01 -0.99800507362E+00 -0.70071456217E+02  0.70130109991E+02  0.00000000000E+00 0.  1.
         -1    1    1    2    0  502  0.26177129402E+02  0.15382759057E+02 -0.42578767066E+03  0.42686884621E+03  0.00000000000E+00 0. -1.
<mgrwt>
<rscale>  1 0.30000000E+03</rscale>
<asrwt>0</asrwt>
<pdfrwt beam="1">  1       21 0.34419937E-02 0.30000000E+03</pdfrwt>
<pdfrwt beam="2">0</pdfrwt>
<totfact> 0.54109122E+04</totfact>
</mgrwt>
</event>
<event>
 6    1  0.6377696E-002  0.3000000E+03  0.7818608E-02  0.1093470E+00
         21   -1    0    0  501  502  0.00000000000E+00  0.00000000000E+00  0.13393463569E+01  0.13393463569E+01  0.00000000000E+00 0. -1.
         13   -1    0    0    0    0 -0.00000000000E+00 -0.00000000000E+00 -0.10000000000E+04  0.10000000000E+04  0.00000000000E+00 0.  1.
    9000005    2    1    2  501    0 -0.18056950646E+02 -0.31581759945E+02 -0.54437523200E+03  0.54559961214E+03  0.33290423317E+01 0.  0.
         13    1    3    3    0    0 -0.90094724193E+01 -0.13618144143E+02 -0.26302580584E+03  0.26353215930E+03  0.00000000000E+00 0.  1.
          1    1    3    3  501    0 -0.90474782272E+01 -0.17963615803E+02 -0.28134942616E+03  0.28206745285E+03  0.00000000000E+00 0.  1.
         -3    1    1    2    0  502  0.18056950646E+02  0.31581759945E+02 -0.45428542164E+03  0.45573973421E+03  0.00000000000E+00 0. -1.
<mgrwt>
<rscale>  1 0.30000000E+03</rscale>
<asrwt>0</asrwt>
<pdfrwt beam="1">  1       21 0.48703607E-02 0.30000000E+03</pdfrwt>
<pdfrwt beam="2">0</pdfrwt>
<totfact> 0.30123094E+04</totfact>
</mgrwt>
</event>
<event>
 6    1  0.6377696E-002  0.3000000E+03  0.7818608E-02  0.1093470E+00
         21   -1    0    0  501  502  0.00000000000E+00  0.00000000000E+00  0.21379417462E+01  0.21379417462E+01  0.00000000000E+00 0. -1.
         13   -1    0    0    0    0 -0.00000000000E+00 -0.00000000000E+00 -0.10000000000E+04  0.10000000000E+04  0.00000000000E+00 0.  1.
    9000005    2    1    2  501    0 -0.43298668529E+02  0.27595140632E+01 -0.67091709943E+03  0.67232679016E+03  0.33419810119E+01 0.  0.
         13    1    3    3    0    0 -0.27902238107E+02  0.29860956662E+01 -0.41673810833E+03  0.41768181980E+03  0.00000000000E+00 0.  1.
          1    1    3    3  501    0 -0.15396430422E+02 -0.22658160298E+00 -0.25417899110E+03  0.25464497036E+03  0.00000000000E+00 0.  1.
         -1    1    1    2    0  502  0.43298668529E+02 -0.27595140632E+01 -0.32694495882E+03  0.32981115159E+03  0.00000000000E+00 0. -1.
<mgrwt>
<rscale>  1 0.30000000E+03</rscale>
<asrwt>0</asrwt>
<pdfrwt beam="1">  1       21 0.77743500E-02 0.30000000E+03</pdfrwt>
<pdfrwt beam="2">0</pdfrwt>
<totfact> 0.13431701E+04</totfact>
</mgrwt>
</event>
<event>
 6    1  0.6377696E-002  0.3000000E+03  0.7818608E-02  0.1093470E+00
         21   -1    0    0  501  502  0.00000000000E+00  0.00000000000E+00  0.21209680860E+01  0.21209680860E+01  0.00000000000E+00 0. -1.
         13   -1    0    0    0    0 -0.00000000000E+00 -0.00000000000E+00 -0.10000000000E+04  0.10000000000E+04  0.00000000000E+00 0.  1.
    9000005    2    1    2  501    0  0.10965226208E+02  0.43089707652E+02 -0.37106672742E+03  0.37373364791E+03  0.30601129829E+01 0.  0.
         13    1    3    3    0    0  0.56555912378E+01  0.25501219500E+02 -0.22839910035E+03  0.22988790083E+03  0.00000000000E+00 0.  1.
          1    1    3    3  501    0  0.53096349700E+01  0.17588488152E+02 -0.14266762707E+03  0.14384574708E+03  0.00000000000E+00 0.  1.
         -3    1    1    2    0  502 -0.10965226208E+02 -0.43089707652E+02 -0.62681230450E+03  0.62838732018E+03  0.00000000000E+00 0. -1.
<mgrwt>
<rscale>  1 0.30000000E+03</rscale>
<asrwt>0</asrwt>
<pdfrwt beam="1">  1       21 0.77126275E-02 0.30000000E+03</pdfrwt>
<pdfrwt beam="2">0</pdfrwt>
<totfact> 0.13620747E+04</totfact>
</mgrwt>
</event>
<event>
 6    1  0.6377696E-002  0.3000000E+03  0.7818608E-02  0.1093470E+00
         21   -1    0    0  501  502  0.00000000000E+00  0.00000000000E+00  0.30583108289E+01  0.30583108289E+01  0.00000000000E+00 0. -1.
         13   -1    0    0    0    0 -0.00000000000E+00 -0.00000000000E+00 -0.10000000000E+04  0.10000000000E+04  0.00000000000E+00 0.  1.
    9000005    2    1    2  501    0 -0.49788743825E+02  0.23994533170E+02 -0.49924034397E+03  0.50229760385E+03  0.27028055646E+01 0.  0.
         13    1    3    3    0    0 -0.44907868309E+01  0.28349730352E+01 -0.43437870355E+02  0.43761316473E+02  0.00000000000E+00 0.  1.
          3    1    3    3  501    0 -0.45297956994E+02  0.21159560135E+02 -0.45580247361E+03  0.45853628738E+03  0.00000000000E+00 0.  1.
         -1    1    1    2    0  502  0.49788743825E+02 -0.23994533170E+02 -0.49770134520E+03  0.50076070698E+03  0.00000000000E+00 0. -1.
<mgrwt>
<rscale>  1 0.30000000E+03</rscale>
<asrwt>0</asrwt>
<pdfrwt beam="1">  1       21 0.11121154E-01 0.30000000E+03</pdfrwt>
<pdfrwt beam="2">0</pdfrwt>
<totfact> 0.71104376E+03</totfact>
</mgrwt>
</event>
<event>
 6    1  0.6377696E-002  0.3000000E+03  0.7818608E-02  0.1093470E+00
         21   -1    0    0  501  502  0.00000000000E+00  0.00000000000E+00  0.17974227768E+01  0.17974227768E+01  0.00000000000E+00 0. -1.
         13   -1    0    0    0    0 -0.00000000000E+00 -0.00000000000E+00 -0.10000000000E+04  0.10000000000E+04  0.00000000000E+00 0.  1.
    9000005    2    1    2  501    0 -0.41218838721E+02 -0.93063609866E+01 -0.53141140578E+03  0.53309752011E+03  0.30467583516E+01 0.  0.
         13    1    3    3    0    0 -0.20290301914E+02 -0.37420534525E+01 -0.24314032727E+03  0.24401417594E+03  0.00000000000E+00 0.  1.
          1    1    3    3  501    0 -0.20928536807E+02 -0.55643075340E+01 -0.28827107851E+03  0.28908334417E+03  0.00000000000E+00 0.  1.
         -1    1    1    2    0  502  0.41218838721E+02  0.93063609866E+01 -0.46679117145E+03  0.46869990267E+03  0.00000000000E+00 0. -1.
<mgrwt>
<rscale>  1 0.30000000E+03</rscale>
<asrwt>0</asrwt>
<pdfrwt beam="1">  1       21 0.65360966E-02 0.30000000E+03</pdfrwt>
<pdfrwt beam="2">0</pdfrwt>
<totfact> 0.18174910E+04</totfact>
</mgrwt>
</event>
<event>
 6    1  0.6377696E-002  0.3000000E+03  0.7818608E-02  0.1093470E+00
         21   -1    0    0  501  502  0.00000000000E+00  0.00000000000E+00  0.20793210258E+01  0.20793210258E+01  0.00000000000E+00 0. -1.
         13   -1    0    0    0    0 -0.00000000000E+00 -0.00000000000E+00 -0.10000000000E+04  0.10000000000E+04  0.00000000000E+00 0.  1.
    9000005    2    1    2  501    0 -0.45382266829E+02  0.32934833664E+01 -0.48224671273E+03  0.48440177985E+03  0.35770390402E+01 0.  0.
         13    1    3    3    0    0 -0.15094859930E+01  0.77414700596E+00 -0.18368260611E+02  0.18446431889E+02  0.00000000000E+00 0.  1.
          3    1    3    3  501    0 -0.43872780836E+02  0.25193363604E+01 -0.46387845212E+03  0.46595534796E+03  0.00000000000E+00 0.  1.
         -3    1    1    2    0  502  0.45382266829E+02 -0.32934833664E+01 -0.51567396624E+03  0.51767754118E+03  0.00000000000E+00 0. -1.
<mgrwt>
<rscale>  1 0.30000000E+03</rscale>
<asrwt>0</asrwt>
<pdfrwt beam="1">  1       21 0.75611833E-02 0.30000000E+03</pdfrwt>
<pdfrwt beam="2">0</pdfrwt>
<totfact> 0.14102384E+04</totfact>
</mgrwt>
</event>
<event>
 6    1  0.6377696E-002  0.3000000E+03  0.7818608E-02  0.1093470E+00
         21   -1    0    0  501  502  0.00000000000E+00  0.00000000000E+00  0.10760317513E+01  0.10760317513E+01  0.00000000000E+00 0. -1.
         13   -1    0    0    0    0 -0.00000000000E+00 -0.00000000000E+00 -0.10000000000E+04  0.10000000000E+04  0.00000000000E+00 0.  1.
    9000005    2    1    2  501    0 -0.86307338885E+01 -0.30924483005E+02 -0.59770567707E+03  0.59857518655E+03  0.30601188679E+01 0.  0.
         13    1    3    3    0    0 -0.54330133547E+01 -0.17001899351E+02 -0.35715767963E+03  0.35760339810E+03  0.00000000000E+00 0.  1.
          3    1    3    3  501    0 -0.31977205338E+01 -0.13922583654E+02 -0.24054799744E+03  0.24097178844E+03  0.00000000000E+00 0.  1.
         -1    1    1    2    0  502  0.86307338885E+01  0.30924483005E+02 -0.40121829117E+03  0.40250084520E+03  0.00000000000E+00 0. -1.
<mgrwt>
<rscale>  1 0.30000000E+03</rscale>
<asrwt>0</asrwt>
<pdfrwt beam="1">  1       21 0.39128510E-02 0.30000000E+03</pdfrwt>
<pdfrwt beam="2">0</pdfrwt>
<totfact> 0.43635533E+04</totfact>
</mgrwt>
</event>
<event>
 6    1  0.6377696E-002  0.3000000E+03  0.7818608E-02  0.1093470E+00
         21   -1    0    0  501  502  0.00000000000E+00  0.00000000000E+00  0.20480042511E+01  0.20480042511E+01  0.00000000000E+00 0. -1.
         13   -1    0    0    0    0 -0.00000000000E+00 -0.00000000000E+00 -0.10000000000E+04  0.10000000000E+04  0.00000000000E+00 0.  1.
    9000005    2    1    2  501    0  0.26825751810E+02  0.28546208555E+02 -0.24989418492E+03  0.25296523491E+03  0.31304045600E+01 0.  0.
         13    1    3    3    0    0  0.14354588474E+02  0.14471808055E+02 -0.13937658709E+03  0.14085922216E+03  0.00000000000E+00 0.  1.
          3    1    3    3  501    0  0.12471163336E+02  0.14074400500E+02 -0.11051759782E+03  0.11210601274E+03  0.00000000000E+00 0.  1.
         -3    1    1    2    0  502 -0.26825751810E+02 -0.28546208555E+02 -0.74805781083E+03  0.74908276934E+03  0.00000000000E+00 0. -1.
<mgrwt>
<rscale>  1 0.30000000E+03</rscale>
<asrwt>0</asrwt>
<pdfrwt beam="1">  1       21 0.74473039E-02 0.30000000E+03</pdfrwt>
<pdfrwt beam="2">0</pdfrwt>
<totfact> 0.14482123E+04</totfact>
</mgrwt>
</event>
<event>
 6    1  0.6377696E-002  0.3000000E+03  0.7818608E-02  0.1093470E+00
         21   -1    0    0  501  502  0.00000000000E+00  0.00000000000E+00  0.15426265848E+01  0.15426265848E+01  0.00000000000E+00 0. -1.
         13   -1    0    0    0    0 -0.00000000000E+00 -0.00000000000E+00 -0.10000000000E+04  0.10000000000E+04  0.00000000000E+00 0.  1.
    9000005    2    1    2  501    0 -0.76927982549E+01  0.38260221035E+02 -0.53895540246E+03  0.54038637869E+03  0.46355988348E+01 0.  0.
         13    1    3    3    0    0 -0.61210069260E+01  0.32374787891E+02 -0.42974822867E+03  0.43100943570E+03  0.00000000000E+00 0.  1.
          3    1    3    3  501    0 -0.15717913290E+01  0.58854331439E+01 -0.10920717379E+03  0.10937694299E+03  0.00000000000E+00 0.  1.
         -3    1    1    2    0  502  0.76927982549E+01 -0.38260221035E+02 -0.45950197095E+03  0.46115624789E+03  0.00000000000E+00 0. -1.
<mgrwt>
<rscale>  1 0.30000000E+03</rscale>
<asrwt>0</asrwt>
<pdfrwt beam="1">  1       21 0.56095630E-02 0.30000000E+03</pdfrwt>
<pdfrwt beam="2">0</pdfrwt>
<totfact> 0.23659640E+04</totfact>
</mgrwt>
</event>
<event>
 6    1  0.6377696E-002  0.3000000E+03  0.7818608E-02  0.1093470E+00
         21   -1    0    0  501  502  0.00000000000E+00  0.00000000000E+00  0.21280529621E+01  0.21280529621E+01  0.00000000000E+00 0. -1.
         13   -1    0    0    0    0 -0.00000000000E+00 -0.00000000000E+00 -0.10000000000E+04  0.10000000000E+04  0.00000000000E+00 0.  1.
    9000005    2    1    2  501    0 -0.35396670051E+02 -0.20829715028E+02 -0.72641769780E+03  0.72758441216E+03  0.30990084869E+01 0.  0.
         13    1    3    3    0    0 -0.11237344490E+02 -0.54667628669E+01 -0.23929685831E+03  0.23962293255E+03  0.00000000000E+00 0.  1.
          3    1    3    3  501    0 -0.24159325561E+02 -0.15362952161E+02 -0.48712083950E+03  0.48796147961E+03  0.00000000000E+00 0.  1.
         -3    1    1    2    0  502  0.35396670051E+02  0.20829715028E+02 -0.27145424924E+03  0.27454364081E+03  0.00000000000E+00 0. -1.
<mgrwt>
<rscale>  1 0.30000000E+03</rscale>
<asrwt>0</asrwt>
<pdfrwt beam="1">  1       21 0.77383907E-02 0.30000000E+03</pdfrwt>
<pdfrwt beam="2">0</pdfrwt>
<totfact> 0.13541342E+04</totfact>
</mgrwt>
</event>
<event>
 6    1  0.6377696E-002  0.3000000E+03  0.7818608E-02  0.1093470E+00
         21   -1    0    0  501  502  0.00000000000E+00  0.00000000000E+00  0.12857834744E+01  0.12857834744E+01  0.00000000000E+00 0. -1.
         13   -1    0    0    0    0 -0.00000000000E+00 -0.00000000000E+00 -0.10000000000E+04  0.10000000000E+04  0.00000000000E+00 0.  1.
    9000005    2    1    2  501    0 -0.20762491984E+02  0.28973506259E+02 -0.45561050464E+03  0.45701362086E+03  0.31579376906E+01 0.  0.
         13    1    3    3    0    0 -0.12173729616E+01  0.26291960955E+01 -0.46464501287E+02  0.46554747866E+02  0.00000000000E+00 0.  1.
          3    1    3    3  501    0 -0.19545119022E+02  0.26344310164E+02 -0.40914600335E+03  0.41045887299E+03  0.00000000000E+00 0.  1.
         -1    1    1    2    0  502  0.20762491984E+02 -0.28973506259E+02 -0.54310371189E+03  0.54427216262E+03  0.00000000000E+00 0. -1.
<mgrwt>
<rscale>  1 0.30000000E+03</rscale>
<asrwt>0</asrwt>
<pdfrwt beam="1">  1       21 0.46755861E-02 0.30000000E+03</pdfrwt>
<pdfrwt beam="2">0</pdfrwt>
<totfact> 0.32288954E+04</totfact>
</mgrwt>
</event>
<event>
 6    1  0.6377696E-002  0.3000000E+03  0.7818608E-02  0.1093470E+00
         21   -1    0    0  501  502  0.00000000000E+00  0.00000000000E+00  0.28055200004E+01  0.28055200004E+01  0.00000000000E+00 0. -1.
         13   -1    0    0    0    0 -0.00000000000E+00 -0.00000000000E+00 -0.10000000000E+04  0.10000000000E+04  0.00000000000E+00 0.  1.
    9000005    2    1    2  501    0 -0.11910700728E+02 -0.42740652034E+02 -0.77176952512E+03  0.77305557243E+03  0.42532371438E+01 0.  0.
         13    1    3    3    0    0 -0.17298777237E+01 -0.88094782712E+01 -0.13069224086E+03  0.13100023360E+03  0.00000000000E+00 0.  1.
          3    1    3    3  501    0 -0.10180823004E+02 -0.33931173762E+02 -0.64107728427E+03  0.64205533883E+03  0.00000000000E+00 0.  1.
         -3    1    1    2    0  502  0.11910700728E+02  0.42740652034E+02 -0.22542495487E+03  0.22974994757E+03  0.00000000000E+00 0. -1.
<mgrwt>
<rscale>  1 0.30000000E+03</rscale>
<asrwt>0</asrwt>
<pdfrwt beam="1">  1       21 0.10201912E-01 0.30000000E+03</pdfrwt>
<pdfrwt beam="2">0</pdfrwt>
<totfact> 0.83011420E+03</totfact>
</mgrwt>
</event>
<event>
 6    1  0.6377696E-002  0.3000000E+03  0.7818608E-02  0.1093470E+00
         21   -1    0    0  501  502  0.00000000000E+00  0.00000000000E+00  0.13685669658E+01  0.13685669658E+01  0.00000000000E+00 0. -1.
         13   -1    0    0    0    0 -0.00000000000E+00 -0.00000000000E+00 -0.10000000000E+04  0.10000000000E+04  0.00000000000E+00 0.  1.
    9000005    2    1    2  501    0  0.24701049413E+02 -0.18042152157E+02 -0.78018096356E+03  0.78078690701E+03  0.31932986075E+01 0.  0.
         13    1    3    3    0    0  0.26910326238E+01 -0.26447757805E+01 -0.12120611212E+03  0.12126482635E+03  0.00000000000E+00 0.  1.
          3    1    3    3  501    0  0.22010016789E+02 -0.15397376376E+02 -0.65897485144E+03  0.65952208066E+03  0.00000000000E+00 0.  1.
         -3    1    1    2    0  502 -0.24701049413E+02  0.18042152157E+02 -0.21845046947E+03  0.22058165996E+03  0.00000000000E+00 0. -1.
<mgrwt>
<rscale>  1 0.30000000E+03</rscale>
<asrwt>0</asrwt>
<pdfrwt beam="1">  1       21 0.49766176E-02 0.30000000E+03</pdfrwt>
<pdfrwt beam="2">0</pdfrwt>
<totfact> 0.29035723E+04</totfact>
</mgrwt>
</event>
<event>
 6    1  0.6377696E-002  0.3000000E+03  0.7818608E-02  0.1093470E+00
         21   -1    0    0  501  502  0.00000000000E+00  0.00000000000E+00  0.16231911155E+01  0.16231911155E+01  0.00000000000E+00 0. -1.
         13   -1    0    0    0    0 -0.00000000000E+00 -0.00000000000E+00 -0.10000000000E+04  0.10000000000E+04  0.00000000000E+00 0.  1.
    9000005    2    1    2  501    0  0.22510703127E+02 -0.31032516300E+02 -0.65173946108E+03  0.65287227754E+03  0.28525138052E+01 0.  0.
         13    1    3    3    0    0  0.11580007982E+02 -0.17915288278E+02 -0.37609380755E+03  0.37669829601E+03  0.00000000000E+00 0.  1.
          1    1    3    3  501    0  0.10930695145E+02 -0.13117228022E+02 -0.27564565353E+03  0.27617398154E+03  0.00000000000E+00 0.  1.
         -3    1    1    2    0  502 -0.22510703127E+02  0.31032516300E+02 -0.34663734780E+03  0.34875091357E+03  0.00000000000E+00 0. -1.
<mgrwt>
<rscale>  1 0.30000000E+03</rscale>
<asrwt>0</asrwt>
<pdfrwt beam="1">  1       21 0.59025256E-02 0.30000000E+03</pdfrwt>
<pdfrwt beam="2">0</pdfrwt>
<totfact> 0.21675195E+04</totfact>
</mgrwt>
</event>
<event>
 6    1  0.6377696E-002  0.3000000E+03  0.7818608E-02  0.1093470E+00
         21   -1    0    0  501  502  0.00000000000E+00  0.00000000000E+00  0.31161360511E+01  0.31161360511E+01  0.00000000000E+00 0. -1.
         13   -1    0    0    0    0 -0.00000000000E+00 -0.00000000000E+00 -0.10000000000E+04  0.10000000000E+04  0.00000000000E+00 0.  1.
    9000005    2    1    2  501    0  0.18212852548E+02 -0.38198601335E+02 -0.82530517509E+03  0.82639577047E+03  0.32397950888E+01 0.  0.
         13    1    3    3    0    0  0.70491136793E+01 -0.17807483520E+02 -0.35433577539E+03  0.35485298109E+03  0.00000000000E+00 0.  1.
          3    1    3    3  501    0  0.11163738869E+02 -0.20391117815E+02 -0.47096939971E+03  0.47154278938E+03  0.00000000000E+00 0.  1.
         -1    1    1    2    0  502 -0.18212852548E+02  0.38198601335E+02 -0.17157868886E+03  0.17672036558E+03  0.00000000000E+00 0. -1.
<mgrwt>
<rscale>  1 0.30000000E+03</rscale>
<asrwt>0</asrwt>
<pdfrwt beam="1">  1       21 0.11331428E-01 0.30000000E+03</pdfrwt>
<pdfrwt beam="2">0</pdfrwt>
<totfact> 0.68743913E+03</totfact>
</mgrwt>
</event>
<event>
 6    1  0.6377696E-002  0.3000000E+03  0.7818608E-02  0.1093470E+00
         21   -1    0    0  501  502  0.00000000000E+00  0.00000000000E+00  0.10826644575E+01  0.10826644575E+01  0.00000000000E+00 0. -1.
         13   -1    0    0    0    0 -0.00000000000E+00 -0.00000000000E+00 -0.10000000000E+04  0.10000000000E+04  0.00000000000E+00 0.  1.
    9000005    2    1    2  501    0  0.28784783683E+02  0.15573671380E+02 -0.46147792490E+03  0.46264768870E+03  0.31473280029E+01 0.  0.
         13    1    3    3    0    0  0.26812811824E+01  0.25090407788E+01 -0.56321445494E+02  0.56441029198E+02  0.00000000000E+00 0.  1.
          1    1    3    3  501    0  0.26103502500E+02  0.13064630601E+02 -0.40515647941E+03  0.40620665950E+03  0.00000000000E+00 0.  1.
         -3    1    1    2    0  502 -0.28784783683E+02 -0.15573671380E+02 -0.53743941064E+03  0.53843497576E+03  0.00000000000E+00 0. -1.
<mgrwt>
<rscale>  1 0.30000000E+03</rscale>
<asrwt>0</asrwt>
<pdfrwt beam="1">  1       21 0.39369700E-02 0.30000000E+03</pdfrwt>
<pdfrwt beam="2">0</pdfrwt>
<totfact> 0.43186705E+04</totfact>
</mgrwt>
</event>
<event>
 6    1  0.6377696E-002  0.3000000E+03  0.7818608E-02  0.1093470E+00
         21   -1    0    0  501  502  0.00000000000E+00  0.00000000000E+00  0.13173573736E+01  0.13173573736E+01  0.00000000000E+00 0. -1.
         13   -1    0    0    0    0 -0.00000000000E+00 -0.00000000000E+00 -0.10000000000E+04  0.10000000000E+04  0.00000000000E+00 0.  1.
    9000005    2    1    2  501    0  0.31495170798E+02 -0.68477225270E+00 -0.74672442397E+03  0.74739737264E+03  0.36128361506E+01 0.  0.
         13    1    3    3    0    0  0.11485441356E+02 -0.19772770153E+01 -0.27968085511E+03  0.27992357119E+03  0.00000000000E+00 0.  1.
          3    1    3    3  501    0  0.20009729443E+02  0.12925047626E+01 -0.46704356885E+03  0.46747380146E+03  0.00000000000E+00 0.  1.
         -1    1    1    2    0  502 -0.31495170798E+02  0.68477225270E+00 -0.25195821866E+03  0.25391998473E+03  0.00000000000E+00 0. -1.
<mgrwt>
<rscale>  1 0.30000000E+03</rscale>
<asrwt>0</asrwt>
<pdfrwt beam="1">  1       21 0.47904006E-02 0.30000000E+03</pdfrwt>
<pdfrwt beam="2">0</pdfrwt>
<totfact> 0.30983902E+04</totfact>
</mgrwt>
</event>
<event>
 6    1  0.6377696E-002  0.3000000E+03  0.7818608E-02  0.1093470E+00
         21   -1    0    0  501  502  0.00000000000E+00  0.00000000000E+00  0.23032378829E+01  0.23032378829E+01  0.00000000000E+00 0. -1.
         13   -1    0    0    0    0 -0.00000000000E+00 -0.00000000000E+00 -0.10000000000E+04  0.10000000000E+04  0.00000000000E+00 0.  1.
    9000005    2    1    2  501    0  0.28466186410E+02 -0.27078755880E+02 -0.78616511401E+03  0.78715393870E+03  0.34862491210E+01 0.  0.
         13    1    3    3    0    0  0.25820945126E+02 -0.25552754188E+02 -0.73598725007E+03  0.73688323140E+03  0.00000000000E+00 0.  1.
          1    1    3    3  501    0  0.26452412845E+01 -0.15260016925E+01 -0.50177863933E+02  0.50270707291E+02  0.00000000000E+00 0.  1.
         -1    1    1    2    0  502 -0.28466186410E+02  0.27078755880E+02 -0.21153164811E+03  0.21514929919E+03  0.00000000000E+00 0. -1.
<mgrwt>
<rscale>  1 0.30000000E+03</rscale>
<asrwt>0</asrwt>
<pdfrwt beam="1">  1       21 0.83754281E-02 0.30000000E+03</pdfrwt>
<pdfrwt beam="2">0</pdfrwt>
<totfact> 0.11783931E+04</totfact>
</mgrwt>
</event>
<event>
 6    1  0.6377696E-002  0.3000000E+03  0.7818608E-02  0.1093470E+00
         21   -1    0    0  501  502  0.00000000000E+00  0.00000000000E+00  0.11976188173E+01  0.11976188173E+01  0.00000000000E+00 0. -1.
         13   -1    0    0    0    0 -0.00000000000E+00 -0.00000000000E+00 -0.10000000000E+04  0.10000000000E+04  0.00000000000E+00 0.  1.
    9000005    2    1    2  501    0 -0.25737784877E+02 -0.22232225154E+02 -0.41189264481E+03  0.41330328813E+03  0.27114063699E+01 0.  0.
         13    1    3    3    0    0 -0.21919421780E+02 -0.20125491080E+02 -0.35922992655E+03  0.36046031206E+03  0.00000000000E+00 0.  1.
          3    1    3    3  501    0 -0.38183630976E+01 -0.21067340740E+01 -0.52662718261E+02  0.52842976069E+02  0.00000000000E+00 0.  1.
         -3    1    1    2    0  502  0.25737784877E+02  0.22232225154E+02 -0.58690973637E+03  0.58789433069E+03  0.00000000000E+00 0. -1.
<mgrwt>
<rscale>  1 0.30000000E+03</rscale>
<asrwt>0</asrwt>
<pdfrwt beam="1">  1       21 0.43549867E-02 0.30000000E+03</pdfrwt>
<pdfrwt beam="2">0</pdfrwt>
<totfact> 0.36425167E+04</totfact>
</mgrwt>
</event>
<event>
 6    1  0.6377696E-002  0.3000000E+03  0.7818608E-02  0.1093470E+00
         21   -1    0    0  501  502  0.00000000000E+00  0.00000000000E+00  0.93214279079E+00  0.93214279079E+00  0.00000000000E+00 0. -1.
         13   -1    0    0    0    0 -0.00000000000E+00 -0.00000000000E+00 -0.10000000000E+04  0.10000000000E+04  0.00000000000E+00 0.  1.
    9000005    2    1    2  501    0 -0.29585157686E+02 -0.65777079926E+01 -0.45560192933E+03  0.45662178779E+03  0.34338426915E+01 0.  0.
         13    1    3    3    0    0 -0.23995811034E+02 -0.66807175243E+01 -0.37442290210E+03  0.37525050373E+03  0.00000000000E+00 0.  1.
          3    1    3    3  501    0 -0.55893466524E+01  0.10300953175E+00 -0.81179027237E+02  0.81371284064E+02  0.00000000000E+00 0.  1.
         -3    1    1    2    0  502  0.29585157686E+02  0.65777079926E+01 -0.54346592787E+03  0.54431035500E+03  0.00000000000E+00 0. -1.
<mgrwt>
<rscale>  1 0.30000000E+03</rscale>
<asrwt>0</asrwt>
<pdfrwt beam="1">  1       21 0.33896173E-02 0.30000000E+03</pdfrwt>
<pdfrwt beam="2">0</pdfrwt>
<totfact> 0.55513997E+04</totfact>
</mgrwt>
</event>
<event>
 6    1  0.6377696E-002  0.3000000E+03  0.7818608E-02  0.1093470E+00
         21   -1    0    0  501  502  0.00000000000E+00  0.00000000000E+00  0.96640922217E+00  0.96640922217E+00  0.00000000000E+00 0. -1.
         13   -1    0    0    0    0 -0.00000000000E+00 -0.00000000000E+00 -0.10000000000E+04  0.10000000000E+04  0.00000000000E+00 0.  1.
    9000005    2    1    2  501    0 -0.23879423903E+02  0.18653358804E+02 -0.60599922733E+03  0.60676571727E+03  0.33760117413E+01 0.  0.
         13    1    3    3    0    0 -0.21748170202E+02  0.17830405728E+02 -0.54735234919E+03  0.54807435667E+03  0.00000000000E+00 0.  1.
          3    1    3    3  501    0 -0.21312537013E+01  0.82295307635E+00 -0.58646878141E+02  0.58691360606E+02  0.00000000000E+00 0.  1.
         -1    1    1    2    0  502  0.23879423903E+02 -0.18653358804E+02 -0.39303436345E+03  0.39420069195E+03  0.00000000000E+00 0. -1.
<mgrwt>
<rscale>  1 0.30000000E+03</rscale>
<asrwt>0</asrwt>
<pdfrwt beam="1">  1       21 0.35142228E-02 0.30000000E+03</pdfrwt>
<pdfrwt beam="2">0</pdfrwt>
<totfact> 0.52260662E+04</totfact>
</mgrwt>
</event>
<event>
 6    1  0.6377696E-002  0.3000000E+03  0.7818608E-02  0.1093470E+00
         21   -1    0    0  501  502  0.00000000000E+00  0.00000000000E+00  0.39386891718E+01  0.39386891718E+01  0.00000000000E+00 0. -1.
         13   -1    0    0    0    0 -0.00000000000E+00 -0.00000000000E+00 -0.10000000000E+04  0.10000000000E+04  0.00000000000E+00 0.  1.
    9000005    2    1    2  501    0  0.34778469844E+02 -0.51560662294E+02 -0.44258611526E+03  0.44698013060E+03  0.63815253895E+01 0.  0.
         13    1    3    3    0    0  0.66751398735E+01 -0.92043497859E+01 -0.64853650753E+02  0.65842794315E+02  0.00000000000E+00 0.  1.
          1    1    3    3  501    0  0.28103329971E+02 -0.42356312508E+02 -0.37773246451E+03  0.38113733628E+03  0.00000000000E+00 0.  1.
         -1    1    1    2    0  502 -0.34778469844E+02  0.51560662294E+02 -0.55347519557E+03  0.55695855857E+03  0.00000000000E+00 0. -1.
<mgrwt>
<rscale>  1 0.30000000E+03</rscale>
<asrwt>0</asrwt>
<pdfrwt beam="1">  1       21 0.14322536E-01 0.30000000E+03</pdfrwt>
<pdfrwt beam="2">0</pdfrwt>
<totfact> 0.44847947E+03</totfact>
</mgrwt>
</event>
<event>
 6    1  0.6377696E-002  0.3000000E+03  0.7818608E-02  0.1093470E+00
         21   -1    0    0  501  502  0.00000000000E+00  0.00000000000E+00  0.49106402339E+01  0.49106402339E+01  0.00000000000E+00 0. -1.
         13   -1    0    0    0    0 -0.00000000000E+00 -0.00000000000E+00 -0.10000000000E+04  0.10000000000E+04  0.00000000000E+00 0.  1.
    9000005    2    1    2  501    0 -0.53874124416E+02 -0.28202940757E+02 -0.74696567296E+03  0.74944402577E+03  0.32869500001E+01 0.  0.
         13    1    3    3    0    0 -0.35506173061E+02 -0.19170387452E+02 -0.47723041010E+03  0.47893324838E+03  0.00000000000E+00 0.  1.
          1    1    3    3  501    0 -0.18367951355E+02 -0.90325533055E+01 -0.26973526285E+03  0.27051077739E+03  0.00000000000E+00 0.  1.
         -3    1    1    2    0  502  0.53874124416E+02  0.28202940757E+02 -0.24812368681E+03  0.25546661446E+03  0.00000000000E+00 0. -1.
<mgrwt>
<rscale>  1 0.30000000E+03</rscale>
<asrwt>0</asrwt>
<pdfrwt beam="1">  1       21 0.17856911E-01 0.30000000E+03</pdfrwt>
<pdfrwt beam="2">0</pdfrwt>
<totfact> 0.29739023E+03</totfact>
</mgrwt>
</event>
<event>
 6    1  0.6377696E-002  0.3000000E+03  0.7818608E-02  0.1093470E+00
         21   -1    0    0  501  502  0.00000000000E+00  0.00000000000E+00  0.22140742515E+01  0.22140742515E+01  0.00000000000E+00 0. -1.
         13   -1    0    0    0    0 -0.00000000000E+00 -0.00000000000E+00 -0.10000000000E+04  0.10000000000E+04  0.00000000000E+00 0.  1.
    9000005    2    1    2  501    0 -0.28947170810E+02 -0.32276884499E+02 -0.30532480318E+03  0.30839699300E+03  0.23945525952E+01 0.  0.
         13    1    3    3    0    0 -0.19549483035E+02 -0.20721196494E+02 -0.20666458662E+03  0.20861879502E+03  0.00000000000E+00 0.  1.
          3    1    3    3  501    0 -0.93976877751E+01 -0.11555688005E+02 -0.98660216561E+02  0.99778197982E+02  0.00000000000E+00 0.  1.
         -1    1    1    2    0  502  0.28947170810E+02  0.32276884499E+02 -0.69246112257E+03  0.69381708125E+03  0.00000000000E+00 0. -1.
<mgrwt>
<rscale>  1 0.30000000E+03</rscale>
<asrwt>0</asrwt>
<pdfrwt beam="1">  1       21 0.80511961E-02 0.30000000E+03</pdfrwt>
<pdfrwt beam="2">0</pdfrwt>
<totfact> 0.12631515E+04</totfact>
</mgrwt>
</event>
<event>
 6    1  0.6377696E-002  0.3000000E+03  0.7818608E-02  0.1093470E+00
         21   -1    0    0  501  502  0.00000000000E+00  0.00000000000E+00  0.11217434377E+01  0.11217434377E+01  0.00000000000E+00 0. -1.
         13   -1    0    0    0    0 -0.00000000000E+00 -0.00000000000E+00 -0.10000000000E+04  0.10000000000E+04  0.00000000000E+00 0.  1.
    9000005    2    1    2  501    0 -0.97746463701E+01 -0.31790608725E+02 -0.45282425849E+03  0.45405579191E+03  0.32659717289E+01 0.  0.
         13    1    3    3    0    0 -0.57235961867E+01 -0.20125899117E+02 -0.26367891765E+03  0.26450781270E+03  0.00000000000E+00 0.  1.
          3    1    3    3  501    0 -0.40510501833E+01 -0.11664709608E+02 -0.18914534085E+03  0.18954797921E+03  0.00000000000E+00 0.  1.
         -3    1    1    2    0  502  0.97746463701E+01  0.31790608725E+02 -0.54605399807E+03  0.54706595153E+03  0.00000000000E+00 0. -1.
<mgrwt>
<rscale>  1 0.30000000E+03</rscale>
<asrwt>0</asrwt>
<pdfrwt beam="1">  1       21 0.40790756E-02 0.30000000E+03</pdfrwt>
<pdfrwt beam="2">0</pdfrwt>
<totfact> 0.40683081E+04</totfact>
</mgrwt>
</event>
<event>
 6    1  0.6377696E-002  0.3000000E+03  0.7818608E-02  0.1093470E+00
         21   -1    0    0  501  502  0.00000000000E+00  0.00000000000E+00  0.26877830594E+01  0.26877830594E+01  0.00000000000E+00 0. -1.
         13   -1    0    0    0    0 -0.00000000000E+00 -0.00000000000E+00 -0.10000000000E+04  0.10000000000E+04  0.00000000000E+00 0.  1.
    9000005    2    1    2  501    0 -0.26114068031E+02 -0.33627449928E+02 -0.78070596421E+03  0.78193674985E+03  0.10513243410E+02 0.  0.
         13    1    3    3    0    0 -0.11596655081E+02 -0.17338380771E+02 -0.47196943318E+03  0.47243015115E+03  0.00000000000E+00 0.  1.
          3    1    3    3  501    0 -0.14517412950E+02 -0.16289069157E+02 -0.30873653103E+03  0.30950659871E+03  0.00000000000E+00 0.  1.
         -1    1    1    2    0  502  0.26114068031E+02  0.33627449928E+02 -0.21660625273E+03  0.22075103321E+03  0.00000000000E+00 0. -1.
<mgrwt>
<rscale>  1 0.30000000E+03</rscale>
<asrwt>0</asrwt>
<pdfrwt beam="1">  1       21 0.97737772E-02 0.30000000E+03</pdfrwt>
<pdfrwt beam="2">0</pdfrwt>
<totfact> 0.89620008E+03</totfact>
</mgrwt>
</event>
<event>
 6    1  0.6377696E-002  0.3000000E+03  0.7818608E-02  0.1093470E+00
         21   -1    0    0  501  502  0.00000000000E+00  0.00000000000E+00  0.95403076174E+00  0.95403076174E+00  0.00000000000E+00 0. -1.
         13   -1    0    0    0    0 -0.00000000000E+00 -0.00000000000E+00 -0.10000000000E+04  0.10000000000E+04  0.00000000000E+00 0.  1.
    9000005    2    1    2  501    0 -0.57590171249E+01  0.29517267386E+02 -0.39210331173E+03  0.39326675522E+03  0.30493178644E+01 0.  0.
         13    1    3    3    0    0 -0.27429935002E+01  0.14610973672E+02 -0.17405713779E+03  0.17469084630E+03  0.00000000000E+00 0.  1.
          3    1    3    3  501    0 -0.30160236247E+01  0.14906293714E+02 -0.21804617395E+03  0.21857590893E+03  0.00000000000E+00 0.  1.
         -1    1    1    2    0  502  0.57590171249E+01 -0.29517267386E+02 -0.60694265750E+03  0.60768727554E+03  0.00000000000E+00 0. -1.
<mgrwt>
<rscale>  1 0.30000000E+03</rscale>
<asrwt>0</asrwt>
<pdfrwt beam="1">  1       21 0.34692101E-02 0.30000000E+03</pdfrwt>
<pdfrwt beam="2">0</pdfrwt>
<totfact> 0.53400844E+04</totfact>
</mgrwt>
</event>
<event>
 6    1  0.6377696E-002  0.3000000E+03  0.7818608E-02  0.1093470E+00
         21   -1    0    0  501  502  0.00000000000E+00  0.00000000000E+00  0.12227251787E+01  0.12227251787E+01  0.00000000000E+00 0. -1.
         13   -1    0    0    0    0 -0.00000000000E+00 -0.00000000000E+00 -0.10000000000E+04  0.10000000000E+04  0.00000000000E+00 0.  1.
    9000005    2    1    2  501    0  0.27500563551E+02 -0.19495268713E+02 -0.37114211538E+03  0.37268295725E+03  0.31257510993E+01 0.  0.
         13    1    3    3    0    0  0.13216428547E+02 -0.10979649686E+02 -0.17928109466E+03  0.18010257520E+03  0.00000000000E+00 0.  1.
          1    1    3    3  501    0  0.14284135004E+02 -0.85156190270E+01 -0.19186102072E+03  0.19258038205E+03  0.00000000000E+00 0.  1.
         -1    1    1    2    0  502 -0.27500563551E+02  0.19495268713E+02 -0.62763515944E+03  0.62853976793E+03  0.00000000000E+00 0. -1.
<mgrwt>
<rscale>  1 0.30000000E+03</rscale>
<asrwt>0</asrwt>
<pdfrwt beam="1">  1       21 0.44462828E-02 0.30000000E+03</pdfrwt>
<pdfrwt beam="2">0</pdfrwt>
<totfact> 0.35167244E+04</totfact>
</mgrwt>
</event>
<event>
 6    1  0.6377696E-002  0.3000000E+03  0.7818608E-02  0.1093470E+00
         21   -1    0    0  501  502  0.00000000000E+00  0.00000000000E+00  0.25828200886E+01  0.25828200886E+01  0.00000000000E+00 0. -1.
         13   -1    0    0    0    0 -0.00000000000E+00 -0.00000000000E+00 -0.10000000000E+04  0.10000000000E+04  0.00000000000E+00 0.  1.
    9000005    2    1    2  501    0 -0.44410537871E+02  0.23263490080E+02 -0.42039980088E+03  0.42339153774E+03  0.33039075101E+01 0.  0.
         13    1    3    3    0    0 -0.34389117776E+02  0.17991419264E+02 -0.33660015654E+03  0.33883029376E+03  0.00000000000E+00 0.  1.
          3    1    3    3  501    0 -0.10021420095E+02  0.52720708159E+01 -0.83799644341E+02  0.84561243978E+02  0.00000000000E+00 0.  1.
         -1    1    1    2    0  502  0.44410537871E+02 -0.23263490080E+02 -0.57701737903E+03  0.57919128235E+03  0.00000000000E+00 0. -1.
<mgrwt>
<rscale>  1 0.30000000E+03</rscale>
<asrwt>0</asrwt>
<pdfrwt beam="1">  1       21 0.93920929E-02 0.30000000E+03</pdfrwt>
<pdfrwt beam="2">0</pdfrwt>
<totfact> 0.96214174E+03</totfact>
</mgrwt>
</event>
<event>
 6    1  0.6377696E-002  0.3000000E+03  0.7818608E-02  0.1093470E+00
         21   -1    0    0  501  502  0.00000000000E+00  0.00000000000E+00  0.70422608378E+01  0.70422608378E+01  0.00000000000E+00 0. -1.
         13   -1    0    0    0    0 -0.00000000000E+00 -0.00000000000E+00 -0.10000000000E+04  0.10000000000E+04  0.00000000000E+00 0.  1.
    9000005    2    1    2  501    0 -0.46741170318E+02 -0.69472031096E+02 -0.52682463973E+03  0.53344837733E+03  0.34453076911E+01 0.  0.
         13    1    3    3    0    0 -0.83987487313E+01 -0.10398631577E+02 -0.87176015831E+02  0.88194831226E+02  0.00000000000E+00 0.  1.
          3    1    3    3  501    0 -0.38342421586E+02 -0.59073399519E+02 -0.43964862390E+03  0.44525354611E+03  0.00000000000E+00 0.  1.
         -3    1    1    2    0  502  0.46741170318E+02  0.69472031096E+02 -0.46613309943E+03  0.47359388351E+03  0.00000000000E+00 0. -1.
<mgrwt>
<rscale>  1 0.30000000E+03</rscale>
<asrwt>0</asrwt>
<pdfrwt beam="1">  1       21 0.25608275E-01 0.30000000E+03</pdfrwt>
<pdfrwt beam="2">0</pdfrwt>
<totfact> 0.14877787E+03</totfact>
</mgrwt>
</event>
<event>
 6    1  0.6377696E-002  0.3000000E+03  0.7818608E-02  0.1093470E+00
         21   -1    0    0  501  502  0.00000000000E+00  0.00000000000E+00  0.17223416773E+01  0.17223416773E+01  0.00000000000E+00 0. -1.
         13   -1    0    0    0    0 -0.00000000000E+00 -0.00000000000E+00 -0.10000000000E+04  0.10000000000E+04  0.00000000000E+00 0.  1.
    9000005    2    1    2  501    0 -0.15012163234E+02  0.38354558978E+02 -0.45252734587E+03  0.45442001135E+03  0.44844973023E+01 0.  0.
         13    1    3    3    0    0 -0.13884448653E+02  0.31367419582E+02 -0.38323695347E+03  0.38476909366E+03  0.00000000000E+00 0.  1.
          1    1    3    3  501    0 -0.11277145809E+01  0.69871393952E+01 -0.69290392392E+02  0.69650917690E+02  0.00000000000E+00 0.  1.
         -1    1    1    2    0  502  0.15012163234E+02 -0.38354558978E+02 -0.54575031246E+03  0.54730233033E+03  0.00000000000E+00 0. -1.
<mgrwt>
<rscale>  1 0.30000000E+03</rscale>
<asrwt>0</asrwt>
<pdfrwt beam="1">  1       21 0.62630739E-02 0.30000000E+03</pdfrwt>
<pdfrwt beam="2">0</pdfrwt>
<totfact> 0.19567191E+04</totfact>
</mgrwt>
</event>
<event>
 6    1  0.6377696E-002  0.3000000E+03  0.7818608E-02  0.1093470E+00
         21   -1    0    0  501  502  0.00000000000E+00  0.00000000000E+00  0.28989968298E+01  0.28989968298E+01  0.00000000000E+00 0. -1.
         13   -1    0    0    0    0 -0.00000000000E+00 -0.00000000000E+00 -0.10000000000E+04  0.10000000000E+04  0.00000000000E+00 0.  1.
    9000005    2    1    2  501    0  0.27267034636E+02  0.45552159024E+02 -0.42020419156E+03  0.42356453245E+03  0.41061146179E+01 0.  0.
         13    1    3    3    0    0  0.16563247918E+02  0.23724277753E+02 -0.23052406929E+03  0.23233279807E+03  0.00000000000E+00 0.  1.
          1    1    3    3  501    0  0.10703786718E+02  0.21827881271E+02 -0.18968012227E+03  0.19123173439E+03  0.00000000000E+00 0.  1.
         -1    1    1    2    0  502 -0.27267034636E+02 -0.45552159024E+02 -0.57689681161E+03  0.57933446438E+03  0.00000000000E+00 0. -1.
<mgrwt>
<rscale>  1 0.30000000E+03</rscale>
<asrwt>0</asrwt>
<pdfrwt beam="1">  1       21 0.10541829E-01 0.30000000E+03</pdfrwt>
<pdfrwt beam="2">0</pdfrwt>
<totfact> 0.78278733E+03</totfact>
</mgrwt>
</event>
<event>
 6    1  0.6377696E-002  0.3000000E+03  0.7818608E-02  0.1093470E+00
         21   -1    0    0  501  502  0.00000000000E+00  0.00000000000E+00  0.18623592121E+01  0.18623592121E+01  0.00000000000E+00 0. -1.
         13   -1    0    0    0    0 -0.00000000000E+00 -0.00000000000E+00 -0.10000000000E+04  0.10000000000E+04  0.00000000000E+00 0.  1.
    9000005    2    1    2  501    0  0.36902796848E+02 -0.35539285240E+01 -0.75341490433E+03  0.75434738075E+03  0.56130166688E+01 0.  0.
         13    1    3    3    0    0  0.24270418691E+02 -0.28233001410E+01 -0.44106346067E+03  0.44173974304E+03  0.00000000000E+00 0.  1.
          1    1    3    3  501    0  0.12632378158E+02 -0.73062838303E+00 -0.31235144366E+03  0.31260763771E+03  0.00000000000E+00 0.  1.
         -3    1    1    2    0  502 -0.36902796848E+02  0.35539285240E+01 -0.24472273646E+03  0.24751497846E+03  0.00000000000E+00 0. -1.
<mgrwt>
<rscale>  1 0.30000000E+03</rscale>
<asrwt>0</asrwt>
<pdfrwt beam="1">  1       21 0.67722296E-02 0.30000000E+03</pdfrwt>
<pdfrwt beam="2">0</pdfrwt>
<totfact> 0.17090193E+04</totfact>
</mgrwt>
</event>
<event>
 6    1  0.6377696E-002  0.3000000E+03  0.7818608E-02  0.1093470E+00
         21   -1    0    0  501  502  0.00000000000E+00  0.00000000000E+00  0.95543812524E+00  0.95543812524E+00  0.00000000000E+00 0. -1.
         13   -1    0    0    0    0 -0.00000000000E+00 -0.00000000000E+00 -0.10000000000E+04  0.10000000000E+04  0.00000000000E+00 0.  1.
    9000005    2    1    2  501    0  0.30037093587E+02  0.60744690877E+01 -0.45268712720E+03  0.45373923534E+03  0.38121370449E+01 0.  0.
         13    1    3    3    0    0  0.17502161446E+02  0.43819991546E+01 -0.24087174067E+03  0.24154652352E+03  0.00000000000E+00 0.  1.
          1    1    3    3  501    0  0.12534932141E+02  0.16924699331E+01 -0.21181538653E+03  0.21219271182E+03  0.00000000000E+00 0.  1.
         -1    1    1    2    0  502 -0.30037093587E+02 -0.60744690877E+01 -0.54635743468E+03  0.54721620279E+03  0.00000000000E+00 0. -1.
<mgrwt>
<rscale>  1 0.30000000E+03</rscale>
<asrwt>0</asrwt>
<pdfrwt beam="1">  1       21 0.34743278E-02 0.30000000E+03</pdfrwt>
<pdfrwt beam="2">0</pdfrwt>
<totfact> 0.53269273E+04</totfact>
</mgrwt>
</event>
<event>
 6    1  0.6377696E-002  0.3000000E+03  0.7818608E-02  0.1093470E+00
         21   -1    0    0  501  502  0.00000000000E+00  0.00000000000E+00  0.10256703805E+01  0.10256703805E+01  0.00000000000E+00 0. -1.
         13   -1    0    0    0    0 -0.00000000000E+00 -0.00000000000E+00 -0.10000000000E+04  0.10000000000E+04  0.00000000000E+00 0.  1.
    9000005    2    1    2  501    0 -0.69660746347E+01  0.30800482633E+02 -0.57543921945E+03  0.57631496240E+03  0.33829986344E+01 0.  0.
         13    1    3    3    0    0 -0.63306433147E+01  0.24619212050E+02 -0.48138427223E+03  0.48205497632E+03  0.00000000000E+00 0.  1.
          1    1    3    3  501    0 -0.63543132005E+00  0.61812705830E+01 -0.94054947220E+02  0.94259986079E+02  0.00000000000E+00 0.  1.
         -3    1    1    2    0  502  0.69660746347E+01 -0.30800482633E+02 -0.42353511017E+03  0.42471070798E+03  0.00000000000E+00 0. -1.
<mgrwt>
<rscale>  1 0.30000000E+03</rscale>
<asrwt>0</asrwt>
<pdfrwt beam="1">  1       21 0.37297183E-02 0.30000000E+03</pdfrwt>
<pdfrwt beam="2">0</pdfrwt>
<totfact> 0.47295997E+04</totfact>
</mgrwt>
</event>
<event>
 6    1  0.6377696E-002  0.3000000E+03  0.7818608E-02  0.1093470E+00
         21   -1    0    0  501  502  0.00000000000E+00  0.00000000000E+00  0.10884690713E+01  0.10884690713E+01  0.00000000000E+00 0. -1.
         13   -1    0    0    0    0 -0.00000000000E+00 -0.00000000000E+00 -0.10000000000E+04  0.10000000000E+04  0.00000000000E+00 0.  1.
    9000005    2    1    2  501    0  0.31534073031E+02  0.93221978315E+01 -0.50501505733E+03  0.50609854214E+03  0.37716160657E+01 0.  0.
         13    1    3    3    0    0  0.17543603418E+02  0.32385223504E+01 -0.27547776302E+03  0.27605482058E+03  0.00000000000E+00 0.  1.
          3    1    3    3  501    0  0.13990469613E+02  0.60836754811E+01 -0.22953729431E+03  0.23004372156E+03  0.00000000000E+00 0.  1.
         -3    1    1    2    0  502 -0.31534073031E+02 -0.93221978315E+01 -0.49389647360E+03  0.49498992693E+03  0.00000000000E+00 0. -1.
<mgrwt>
<rscale>  1 0.30000000E+03</rscale>
<asrwt>0</asrwt>
<pdfrwt beam="1">  1       21 0.39580777E-02 0.30000000E+03</pdfrwt>
<pdfrwt beam="2">0</pdfrwt>
<totfact> 0.42799818E+04</totfact>
</mgrwt>
</event>
<event>
 6    1  0.6377696E-002  0.3000000E+03  0.7818608E-02  0.1093470E+00
         21   -1    0    0  501  502  0.00000000000E+00  0.00000000000E+00  0.10803250326E+01  0.10803250326E+01  0.00000000000E+00 0. -1.
         13   -1    0    0    0    0 -0.00000000000E+00 -0.00000000000E+00 -0.10000000000E+04  0.10000000000E+04  0.00000000000E+00 0.  1.
    9000005    2    1    2  501    0  0.16148195659E+02  0.26522190932E+02 -0.34042488477E+03  0.34185382409E+03  0.32778095934E+01 0.  0.
         13    1    3    3    0    0  0.65550498399E+01  0.12390076066E+02 -0.16885718974E+03  0.16943799217E+03  0.00000000000E+00 0.  1.
          3    1    3    3  501    0  0.95931458195E+01  0.14132114866E+02 -0.17156769503E+03  0.17241583192E+03  0.00000000000E+00 0.  1.
         -1    1    1    2    0  502 -0.16148195659E+02 -0.26522190932E+02 -0.65849479019E+03  0.65922650094E+03  0.00000000000E+00 0. -1.
<mgrwt>
<rscale>  1 0.30000000E+03</rscale>
<asrwt>0</asrwt>
<pdfrwt beam="1">  1       21 0.39284629E-02 0.30000000E+03</pdfrwt>
<pdfrwt beam="2">0</pdfrwt>
<totfact> 0.43344182E+04</totfact>
</mgrwt>
</event>
<event>
 6    1  0.6377696E-002  0.3000000E+03  0.7818608E-02  0.1093470E+00
         21   -1    0    0  501  502  0.00000000000E+00  0.00000000000E+00  0.10625212348E+01  0.10625212348E+01  0.00000000000E+00 0. -1.
         13   -1    0    0    0    0 -0.00000000000E+00 -0.00000000000E+00 -0.10000000000E+04  0.10000000000E+04  0.00000000000E+00 0.  1.
    9000005    2    1    2  501    0 -0.26313906012E+02  0.18950664482E+02 -0.46715089428E+03  0.46828815927E+03  0.35061014460E+01 0.  0.
         13    1    3    3    0    0 -0.69164259213E+01  0.68264208622E+01 -0.13123084730E+03  0.13159016777E+03  0.00000000000E+00 0.  1.
          1    1    3    3  501    0 -0.19397480090E+02  0.12124243620E+02 -0.33592004698E+03  0.33669799150E+03  0.00000000000E+00 0.  1.
         -1    1    1    2    0  502  0.26313906012E+02 -0.18950664482E+02 -0.53178658448E+03  0.53277436197E+03  0.00000000000E+00 0. -1.
<mgrwt>
<rscale>  1 0.30000000E+03</rscale>
<asrwt>0</asrwt>
<pdfrwt beam="1">  1       21 0.38637217E-02 0.30000000E+03</pdfrwt>
<pdfrwt beam="2">0</pdfrwt>
<totfact> 0.44572701E+04</totfact>
</mgrwt>
</event>
<event>
 6    1  0.6377696E-002  0.3000000E+03  0.7818608E-02  0.1093470E+00
         21   -1    0    0  501  502  0.00000000000E+00  0.00000000000E+00  0.11030143059E+01  0.11030143059E+01  0.00000000000E+00 0. -1.
         13   -1    0    0    0    0 -0.00000000000E+00 -0.00000000000E+00 -0.10000000000E+04  0.10000000000E+04  0.00000000000E+00 0.  1.
    9000005    2    1    2  501    0 -0.10091234502E+02  0.30640771396E+02 -0.38735900984E+03  0.38871475038E+03  0.33859668299E+01 0.  0.
         13    1    3    3    0    0 -0.82628097851E+01  0.20235767476E+02 -0.26657855086E+03  0.26747314649E+03  0.00000000000E+00 0.  1.
          1    1    3    3  501    0 -0.18284247170E+01  0.10405003919E+02 -0.12078045898E+03  0.12124160389E+03  0.00000000000E+00 0.  1.
         -3    1    1    2    0  502  0.10091234502E+02 -0.30640771396E+02 -0.61153797585E+03  0.61238826393E+03  0.00000000000E+00 0. -1.
<mgrwt>
<rscale>  1 0.30000000E+03</rscale>
<asrwt>0</asrwt>
<pdfrwt beam="1">  1       21 0.40109696E-02 0.30000000E+03</pdfrwt>
<pdfrwt beam="2">0</pdfrwt>
<totfact> 0.41853836E+04</totfact>
</mgrwt>
</event>
<event>
 6    1  0.6377696E-002  0.3000000E+03  0.7818608E-02  0.1093470E+00
         21   -1    0    0  501  502  0.00000000000E+00  0.00000000000E+00  0.24267997542E+01  0.24267997542E+01  0.00000000000E+00 0. -1.
         13   -1    0    0    0    0 -0.00000000000E+00 -0.00000000000E+00 -0.10000000000E+04  0.10000000000E+04  0.00000000000E+00 0.  1.
    9000005    2    1    2  501    0  0.44094297724E+02  0.50258509120E+01 -0.71395399478E+03  0.71535639031E+03  0.59069642325E+01 0.  0.
         13    1    3    3    0    0  0.25649283855E+02  0.54830419316E+01 -0.44140155963E+03  0.44218015148E+03  0.00000000000E+00 0.  1.
          3    1    3    3  501    0  0.18445013870E+02 -0.45719101958E+00 -0.27255243514E+03  0.27317623883E+03  0.00000000000E+00 0.  1.
         -3    1    1    2    0  502 -0.44094297724E+02 -0.50258509120E+01 -0.28361920547E+03  0.28707040944E+03  0.00000000000E+00 0. -1.
<mgrwt>
<rscale>  1 0.30000000E+03</rscale>
<asrwt>0</asrwt>
<pdfrwt beam="1">  1       21 0.88247450E-02 0.30000000E+03</pdfrwt>
<pdfrwt beam="2">0</pdfrwt>
<totfact> 0.10745701E+04</totfact>
</mgrwt>
</event>
<event>
 6    1  0.6377696E-002  0.3000000E+03  0.7818608E-02  0.1093470E+00
         21   -1    0    0  501  502  0.00000000000E+00  0.00000000000E+00  0.10390281374E+01  0.10390281374E+01  0.00000000000E+00 0. -1.
         13   -1    0    0    0    0 -0.00000000000E+00 -0.00000000000E+00 -0.10000000000E+04  0.10000000000E+04  0.00000000000E+00 0.  1.
    9000005    2    1    2  501    0 -0.29015498570E+02  0.86477411740E+01 -0.33247514225E+03  0.33386585447E+03  0.31632235787E+01 0.  0.
         13    1    3    3    0    0 -0.57660024926E+01  0.92229726235E+00 -0.75513519585E+02  0.75738953366E+02  0.00000000000E+00 0.  1.
          3    1    3    3  501    0 -0.23249496077E+02  0.77254439116E+01 -0.25696162267E+03  0.25812690111E+03  0.00000000000E+00 0.  1.
         -3    1    1    2    0  502  0.29015498570E+02 -0.86477411740E+01 -0.66648582961E+03  0.66717317366E+03  0.00000000000E+00 0. -1.
<mgrwt>
<rscale>  1 0.30000000E+03</rscale>
<asrwt>0</asrwt>
<pdfrwt beam="1">  1       21 0.37782921E-02 0.30000000E+03</pdfrwt>
<pdfrwt beam="2">0</pdfrwt>
<totfact> 0.46279356E+04</totfact>
</mgrwt>
</event>
<event>
 6    1  0.6377696E-002  0.3000000E+03  0.7818608E-02  0.1093470E+00
         21   -1    0    0  501  502  0.00000000000E+00  0.00000000000E+00  0.14644696847E+01  0.14644696847E+01  0.00000000000E+00 0. -1.
         13   -1    0    0    0    0 -0.00000000000E+00 -0.00000000000E+00 -0.10000000000E+04  0.10000000000E+04  0.00000000000E+00 0.  1.
    9000005    2    1    2  501    0  0.28722386156E+02 -0.24796149129E+02 -0.44144323036E+03  0.44308139764E+03  0.30289972920E+01 0.  0.
         13    1    3    3    0    0  0.78620923705E+01 -0.70107988830E+01 -0.13883268728E+03  0.13923174514E+03  0.00000000000E+00 0.  1.
          3    1    3    3  501    0  0.20860293785E+02 -0.17785350246E+02 -0.30261054308E+03  0.30384965250E+03  0.00000000000E+00 0.  1.
         -1    1    1    2    0  502 -0.28722386156E+02  0.24796149129E+02 -0.55709229996E+03  0.55838307205E+03  0.00000000000E+00 0. -1.
<mgrwt>
<rscale>  1 0.30000000E+03</rscale>
<asrwt>0</asrwt>
<pdfrwt beam="1">  1       21 0.53253555E-02 0.30000000E+03</pdfrwt>
<pdfrwt beam="2">0</pdfrwt>
<totfact> 0.25864839E+04</totfact>
</mgrwt>
</event>
<event>
 6    1  0.6377696E-002  0.3000000E+03  0.7818608E-02  0.1093470E+00
         21   -1    0    0  501  502  0.00000000000E+00  0.00000000000E+00  0.15550311660E+01  0.15550311660E+01  0.00000000000E+00 0. -1.
         13   -1    0    0    0    0 -0.00000000000E+00 -0.00000000000E+00 -0.10000000000E+04  0.10000000000E+04  0.00000000000E+00 0.  1.
    9000005    2    1    2  501    0 -0.43197670200E+01  0.36644024667E+02 -0.32810196071E+03  0.33019730724E+03  0.42332207094E+01 0.  0.
         13    1    3    3    0    0 -0.24380178663E+01  0.26326591813E+02 -0.25004973848E+03  0.25144364196E+03  0.00000000000E+00 0.  1.
          1    1    3    3  501    0 -0.18817491537E+01  0.10317432855E+02 -0.78052222229E+02  0.78753665283E+02  0.00000000000E+00 0.  1.
         -1    1    1    2    0  502  0.43197670200E+01 -0.36644024667E+02 -0.67034300813E+03  0.67135772392E+03  0.00000000000E+00 0. -1.
<mgrwt>
<rscale>  1 0.30000000E+03</rscale>
<asrwt>0</asrwt>
<pdfrwt beam="1">  1       21 0.56546707E-02 0.30000000E+03</pdfrwt>
<pdfrwt beam="2">0</pdfrwt>
<totfact> 0.23336356E+04</totfact>
</mgrwt>
</event>
<event>
 6    1  0.6377696E-002  0.3000000E+03  0.7818608E-02  0.1093470E+00
         21   -1    0    0  501  502  0.00000000000E+00  0.00000000000E+00  0.12205137062E+01  0.12205137062E+01  0.00000000000E+00 0. -1.
         13   -1    0    0    0    0 -0.00000000000E+00 -0.00000000000E+00 -0.10000000000E+04  0.10000000000E+04  0.00000000000E+00 0.  1.
    9000005    2    1    2  501    0  0.52647263331E+01  0.34296982915E+02 -0.54413521089E+03  0.54525404834E+03  0.38534557353E+01 0.  0.
         13    1    3    3    0    0  0.54409311936E+01  0.23892032643E+02 -0.38448849616E+03  0.38526852536E+03  0.00000000000E+00 0.  1.
          1    1    3    3  501    0 -0.17620486056E+00  0.10404950272E+02 -0.15964671473E+03  0.15998552298E+03  0.00000000000E+00 0.  1.
         -3    1    1    2    0  502 -0.52647263331E+01 -0.34296982915E+02 -0.45464427541E+03  0.45596646537E+03  0.00000000000E+00 0. -1.
<mgrwt>
<rscale>  1 0.30000000E+03</rscale>
<asrwt>0</asrwt>
<pdfrwt beam="1">  1       21 0.44382410E-02 0.30000000E+03</pdfrwt>
<pdfrwt beam="2">0</pdfrwt>
<totfact> 0.35275329E+04</totfact>
</mgrwt>
</event>
<event>
 6    1  0.6377696E-002  0.3000000E+03  0.7818608E-02  0.1093470E+00
         21   -1    0    0  501  502  0.00000000000E+00  0.00000000000E+00  0.98950998226E+00  0.98950998226E+00  0.00000000000E+00 0. -1.
         13   -1    0    0    0    0 -0.00000000000E+00 -0.00000000000E+00 -0.10000000000E+04  0.10000000000E+04  0.00000000000E+00 0.  1.
    9000005    2    1    2  501    0  0.27773724192E+02 -0.13877046942E+02 -0.57184336115E+03  0.57269555932E+03  0.33796136122E+01 0.  0.
         13    1    3    3    0    0  0.79475196387E+01 -0.23120160548E+01 -0.15383217298E+03  0.15405468487E+03  0.00000000000E+00 0.  1.
          3    1    3    3  501    0  0.19826204553E+02 -0.11565030887E+02 -0.41801118817E+03  0.41864087445E+03  0.00000000000E+00 0.  1.
         -3    1    1    2    0  502 -0.27773724192E+02  0.13877046942E+02 -0.42716712887E+03  0.42829395066E+03  0.00000000000E+00 0. -1.
<mgrwt>
<rscale>  1 0.30000000E+03</rscale>
<asrwt>0</asrwt>
<pdfrwt beam="1">  1       21 0.35982257E-02 0.30000000E+03</pdfrwt>
<pdfrwt beam="2">0</pdfrwt>
<totfact> 0.50231821E+04</totfact>
</mgrwt>
</event>
<event>
 6    1  0.6377696E-002  0.3000000E+03  0.7818608E-02  0.1093470E+00
         21   -1    0    0  501  502  0.00000000000E+00  0.00000000000E+00  0.20826287720E+02  0.20826287720E+02  0.00000000000E+00 0. -1.
         13   -1    0    0    0    0 -0.00000000000E+00 -0.00000000000E+00 -0.10000000000E+04  0.10000000000E+04  0.00000000000E+00 0.  1.
    9000005    2    1    2  501    0  0.75597353118E+02  0.69147320191E+02 -0.13026220071E+03  0.16575490698E+03  0.31837973315E+01 0.  0.
         13    1    3    3    0    0  0.18223735716E+02  0.16943490386E+02 -0.33853114150E+02  0.42014518295E+02  0.00000000000E+00 0.  1.
          1    1    3    3  501    0  0.57373617402E+02  0.52203829805E+02 -0.96409086562E+02  0.12374038868E+03  0.00000000000E+00 0.  1.
         -3    1    1    2    0  502 -0.75597353118E+02 -0.69147320191E+02 -0.84891151157E+03  0.85507138074E+03  0.00000000000E+00 0. -1.
<mgrwt>
<rscale>  1 0.30000000E+03</rscale>
<asrwt>0</asrwt>
<pdfrwt beam="1">  1       21 0.75732115E-01 0.30000000E+03</pdfrwt>
<pdfrwt beam="2">0</pdfrwt>
<totfact> 0.14665900E+02</totfact>
</mgrwt>
</event>
<event>
 6    1  0.6377696E-002  0.3000000E+03  0.7818608E-02  0.1093470E+00
         21   -1    0    0  501  502  0.00000000000E+00  0.00000000000E+00  0.10180388062E+01  0.10180388062E+01  0.00000000000E+00 0. -1.
         13   -1    0    0    0    0 -0.00000000000E+00 -0.00000000000E+00 -0.10000000000E+04  0.10000000000E+04  0.00000000000E+00 0.  1.
    9000005    2    1    2  501    0 -0.22057966039E+02  0.21251934004E+02 -0.36691129712E+03  0.36820564721E+03  0.36469335489E+01 0.  0.
         13    1    3    3    0    0 -0.50524155723E+01  0.71416607453E+01 -0.10537841744E+03  0.10574091490E+03  0.00000000000E+00 0.  1.
          3    1    3    3  501    0 -0.17005550467E+02  0.14110273259E+02 -0.26153287968E+03  0.26246473232E+03  0.00000000000E+00 0.  1.
         -1    1    1    2    0  502  0.22057966039E+02 -0.21251934004E+02 -0.63207066408E+03  0.63281239159E+03  0.00000000000E+00 0. -1.
<mgrwt>
<rscale>  1 0.30000000E+03</rscale>
<asrwt>0</asrwt>
<pdfrwt beam="1">  1       21 0.37019671E-02 0.30000000E+03</pdfrwt>
<pdfrwt beam="2">0</pdfrwt>
<totfact> 0.47892693E+04</totfact>
</mgrwt>
</event>
<event>
 6    1  0.6377696E-002  0.3000000E+03  0.7818608E-02  0.1093470E+00
         21   -1    0    0  501  502  0.00000000000E+00  0.00000000000E+00  0.51936416692E+01  0.51936416692E+01  0.00000000000E+00 0. -1.
         13   -1    0    0    0    0 -0.00000000000E+00 -0.00000000000E+00 -0.10000000000E+04  0.10000000000E+04  0.00000000000E+00 0.  1.
    9000005    2    1    2  501    0  0.67107171080E+02 -0.19658262394E+02 -0.61819228264E+03  0.62214275510E+03  0.31764320912E+01 0.  0.
         13    1    3    3    0    0  0.60765514897E+01 -0.27488256233E+01 -0.58504310117E+02  0.58883230402E+02  0.00000000000E+00 0.  1.
          3    1    3    3  501    0  0.61030619590E+02 -0.16909436771E+02 -0.55968797252E+03  0.56325952470E+03  0.00000000000E+00 0.  1.
         -1    1    1    2    0  502 -0.67107171080E+02  0.19658262394E+02 -0.37661407569E+03  0.38305088657E+03  0.00000000000E+00 0. -1.
<mgrwt>
<rscale>  1 0.30000000E+03</rscale>
<asrwt>0</asrwt>
<pdfrwt beam="1">  1       21 0.18886010E-01 0.30000000E+03</pdfrwt>
<pdfrwt beam="2">0</pdfrwt>
<totfact> 0.26754189E+03</totfact>
</mgrwt>
</event>
<event>
 6    1  0.6377696E-002  0.3000000E+03  0.7818608E-02  0.1093470E+00
         21   -1    0    0  501  502  0.00000000000E+00  0.00000000000E+00  0.24691270120E+01  0.24691270120E+01  0.00000000000E+00 0. -1.
         13   -1    0    0    0    0 -0.00000000000E+00 -0.00000000000E+00 -0.10000000000E+04  0.10000000000E+04  0.00000000000E+00 0.  1.
    9000005    2    1    2  501    0 -0.41001161282E+02 -0.34526744510E+01 -0.21915876686E+03  0.22301024305E+03  0.31602574005E+01 0.  0.
         13    1    3    3    0    0 -0.24023457430E+02 -0.15523627641E+01 -0.12006533748E+03  0.12245497785E+03  0.00000000000E+00 0.  1.
          3    1    3    3  501    0 -0.16977703852E+02 -0.19003116870E+01 -0.99093429381E+02  0.10055526520E+03  0.00000000000E+00 0.  1.
         -1    1    1    2    0  502  0.41001161282E+02  0.34526744510E+01 -0.77837210613E+03  0.77945888396E+03  0.00000000000E+00 0. -1.
<mgrwt>
<rscale>  1 0.30000000E+03</rscale>
<asrwt>0</asrwt>
<pdfrwt beam="1">  1       21 0.89786626E-02 0.30000000E+03</pdfrwt>
<pdfrwt beam="2">0</pdfrwt>
<totfact> 0.10421819E+04</totfact>
</mgrwt>
</event>
<event>
 6    1  0.6377696E-002  0.3000000E+03  0.7818608E-02  0.1093470E+00
         21   -1    0    0  501  502  0.00000000000E+00  0.00000000000E+00  0.15024468766E+01  0.15024468766E+01  0.00000000000E+00 0. -1.
         13   -1    0    0    0    0 -0.00000000000E+00 -0.00000000000E+00 -0.10000000000E+04  0.10000000000E+04  0.00000000000E+00 0.  1.
    9000005    2    1    2  501    0 -0.37216951135E+02 -0.12552948136E+01 -0.61116117564E+03  0.61238016978E+03  0.10237797799E+02 0.  0.
         13    1    3    3    0    0 -0.20488100140E+02 -0.55434695987E+01 -0.31225915370E+03  0.31297966607E+03  0.00000000000E+00 0.  1.
          1    1    3    3  501    0 -0.16728850995E+02  0.42881747851E+01 -0.29890202194E+03  0.29940050370E+03  0.00000000000E+00 0.  1.
         -1    1    1    2    0  502  0.37216951135E+02  0.12552948136E+01 -0.38733637748E+03  0.38912227710E+03  0.00000000000E+00 0. -1.
<mgrwt>
<rscale>  1 0.30000000E+03</rscale>
<asrwt>0</asrwt>
<pdfrwt beam="1">  1       21 0.54634547E-02 0.30000000E+03</pdfrwt>
<pdfrwt beam="2">0</pdfrwt>
<totfact> 0.24755458E+04</totfact>
</mgrwt>
</event>
<event>
 6    1  0.6377696E-002  0.3000000E+03  0.7818608E-02  0.1093470E+00
         21   -1    0    0  501  502  0.00000000000E+00  0.00000000000E+00  0.18321308901E+01  0.18321308901E+01  0.00000000000E+00 0. -1.
         13   -1    0    0    0    0 -0.00000000000E+00 -0.00000000000E+00 -0.10000000000E+04  0.10000000000E+04  0.00000000000E+00 0.  1.
    9000005    2    1    2  501    0  0.41217789314E+02 -0.11102385663E+02 -0.47472452738E+03  0.47665111341E+03  0.32768723763E+01 0.  0.
         13    1    3    3    0    0  0.22691642450E+02 -0.66580596311E+01 -0.27993971162E+03  0.28093679456E+03  0.00000000000E+00 0.  1.
          3    1    3    3  501    0  0.18526146864E+02 -0.44443260323E+01 -0.19478481576E+03  0.19571431885E+03  0.00000000000E+00 0.  1.
         -1    1    1    2    0  502 -0.41217789314E+02  0.11102385663E+02 -0.52344334173E+03  0.52518101749E+03  0.00000000000E+00 0. -1.
<mgrwt>
<rscale>  1 0.30000000E+03</rscale>
<asrwt>0</asrwt>
<pdfrwt beam="1">  1       21 0.66623082E-02 0.30000000E+03</pdfrwt>
<pdfrwt beam="2">0</pdfrwt>
<totfact> 0.17582377E+04</totfact>
</mgrwt>
</event>
<event>
 6    1  0.6377696E-002  0.3000000E+03  0.7818608E-02  0.1093470E+00
         21   -1    0    0  501  502  0.00000000000E+00  0.00000000000E+00  0.12566135984E+01  0.12566135984E+01  0.00000000000E+00 0. -1.
         13   -1    0    0    0    0 -0.00000000000E+00 -0.00000000000E+00 -0.10000000000E+04  0.10000000000E+04  0.00000000000E+00 0.  1.
    9000005    2    1    2  501    0  0.31645610233E+02 -0.14304068353E+02 -0.59511250344E+03  0.59613448301E+03  0.33732854967E+01 0.  0.
         13    1    3    3    0    0  0.25604960019E+02 -0.10149660204E+02 -0.46222880769E+03  0.46304870180E+03  0.00000000000E+00 0.  1.
          3    1    3    3  501    0  0.60406502146E+01 -0.41544081488E+01 -0.13288369575E+03  0.13308578120E+03  0.00000000000E+00 0.  1.
         -1    1    1    2    0  502 -0.31645610233E+02  0.14304068353E+02 -0.40363088296E+03  0.40512213059E+03  0.00000000000E+00 0. -1.
<mgrwt>
<rscale>  1 0.30000000E+03</rscale>
<asrwt>0</asrwt>
<pdfrwt beam="1">  1       21 0.45695136E-02 0.30000000E+03</pdfrwt>
<pdfrwt beam="2">0</pdfrwt>
<totfact> 0.33572893E+04</totfact>
</mgrwt>
</event>
<event>
 6    1  0.6377696E-002  0.3000000E+03  0.7818608E-02  0.1093470E+00
         21   -1    0    0  501  502  0.00000000000E+00  0.00000000000E+00  0.13309815348E+01  0.13309815348E+01  0.00000000000E+00 0. -1.
         13   -1    0    0    0    0 -0.00000000000E+00 -0.00000000000E+00 -0.10000000000E+04  0.10000000000E+04  0.00000000000E+00 0.  1.
    9000005    2    1    2  501    0 -0.23427017657E+02  0.27504356853E+02 -0.44508519699E+03  0.44656944519E+03  0.42569943216E+01 0.  0.
         13    1    3    3    0    0 -0.19737972155E+01  0.26271843468E+01 -0.27880593561E+02  0.28073572455E+02  0.00000000000E+00 0.  1.
          3    1    3    3  501    0 -0.21453220442E+02  0.24877172506E+02 -0.41720460343E+03  0.41849587274E+03  0.00000000000E+00 0.  1.
         -3    1    1    2    0  502  0.23427017657E+02 -0.27504356853E+02 -0.55358382148E+03  0.55476153634E+03  0.00000000000E+00 0. -1.
<mgrwt>
<rscale>  1 0.30000000E+03</rscale>
<asrwt>0</asrwt>
<pdfrwt beam="1">  1       21 0.48399431E-02 0.30000000E+03</pdfrwt>
<pdfrwt beam="2">0</pdfrwt>
<totfact> 0.30446098E+04</totfact>
</mgrwt>
</event>
<event>
 6    1  0.6377696E-002  0.3000000E+03  0.7818608E-02  0.1093470E+00
         21   -1    0    0  501  502  0.00000000000E+00  0.00000000000E+00  0.12518201115E+01  0.12518201115E+01  0.00000000000E+00 0. -1.
         13   -1    0    0    0    0 -0.00000000000E+00 -0.00000000000E+00 -0.10000000000E+04  0.10000000000E+04  0.00000000000E+00 0.  1.
    9000005    2    1    2  501    0 -0.29307679294E+02  0.19609808215E+02 -0.47592173371E+03  0.47723752883E+03  0.32676692239E+01 0.  0.
         13    1    3    3    0    0 -0.24460605058E+02  0.16120258493E+02 -0.37768606556E+03  0.37882046942E+03  0.00000000000E+00 0.  1.
          3    1    3    3  501    0 -0.48470742362E+01  0.34895497228E+01 -0.98235668143E+02  0.98417059402E+02  0.00000000000E+00 0.  1.
         -1    1    1    2    0  502  0.29307679294E+02 -0.19609808215E+02 -0.52282644618E+03  0.52401429129E+03  0.00000000000E+00 0. -1.
<mgrwt>
<rscale>  1 0.30000000E+03</rscale>
<asrwt>0</asrwt>
<pdfrwt beam="1">  1       21 0.45520827E-02 0.30000000E+03</pdfrwt>
<pdfrwt beam="2">0</pdfrwt>
<totfact> 0.33791541E+04</totfact>
</mgrwt>
</event>
<event>
 6    1  0.6377696E-002  0.3000000E+03  0.7818608E-02  0.1093470E+00
         21   -1    0    0  501  502  0.00000000000E+00  0.00000000000E+00  0.24896886611E+01  0.24896886611E+01  0.00000000000E+00 0. -1.
         13   -1    0    0    0    0 -0.00000000000E+00 -0.00000000000E+00 -0.10000000000E+04  0.10000000000E+04  0.00000000000E+00 0.  1.
    9000005    2    1    2  501    0 -0.37116115660E+02 -0.76759783354E+01 -0.17431391181E+03  0.17842122131E+03  0.35022390240E+01 0.  0.
         13    1    3    3    0    0 -0.33267024406E+02 -0.62304640547E+01 -0.15920580609E+03  0.16276363933E+03  0.00000000000E+00 0.  1.
          3    1    3    3  501    0 -0.38490912542E+01 -0.14455142807E+01 -0.15108105721E+02  0.15657581981E+02  0.00000000000E+00 0.  1.
         -1    1    1    2    0  502  0.37116115660E+02  0.76759783354E+01 -0.82319639953E+03  0.82406846735E+03  0.00000000000E+00 0. -1.
<mgrwt>
<rscale>  1 0.30000000E+03</rscale>
<asrwt>0</asrwt>
<pdfrwt beam="1">  1       21 0.90534324E-02 0.30000000E+03</pdfrwt>
<pdfrwt beam="2">0</pdfrwt>
<totfact> 0.10269793E+04</totfact>
</mgrwt>
</event>
<event>
 6    1  0.6377696E-002  0.3000000E+03  0.7818608E-02  0.1093470E+00
         21   -1    0    0  501  502  0.00000000000E+00  0.00000000000E+00  0.11377212265E+01  0.11377212265E+01  0.00000000000E+00 0. -1.
         13   -1    0    0    0    0 -0.00000000000E+00 -0.00000000000E+00 -0.10000000000E+04  0.10000000000E+04  0.00000000000E+00 0.  1.
    9000005    2    1    2  501    0 -0.15643370069E+02 -0.29512895545E+02 -0.43942924125E+03  0.44070837733E+03  0.31764367190E+01 0.  0.
         13    1    3    3    0    0 -0.55921395394E+01 -0.83743625367E+01 -0.11890885019E+03  0.11933447375E+03  0.00000000000E+00 0.  1.
          3    1    3    3  501    0 -0.10051230530E+02 -0.21138533008E+02 -0.32052039106E+03  0.32137390358E+03  0.00000000000E+00 0.  1.
         -1    1    1    2    0  502  0.15643370069E+02  0.29512895545E+02 -0.55943303752E+03  0.56042934389E+03  0.00000000000E+00 0. -1.
<mgrwt>
<rscale>  1 0.30000000E+03</rscale>
<asrwt>0</asrwt>
<pdfrwt beam="1">  1       21 0.41371768E-02 0.30000000E+03</pdfrwt>
<pdfrwt beam="2">0</pdfrwt>
<totfact> 0.39724206E+04</totfact>
</mgrwt>
</event>
<event>
 6    1  0.6377696E-002  0.3000000E+03  0.7818608E-02  0.1093470E+00
         21   -1    0    0  501  502  0.00000000000E+00  0.00000000000E+00  0.12157928175E+01  0.12157928175E+01  0.00000000000E+00 0. -1.
         13   -1    0    0    0    0 -0.00000000000E+00 -0.00000000000E+00 -0.10000000000E+04  0.10000000000E+04  0.00000000000E+00 0.  1.
    9000005    2    1    2  501    0  0.33640766137E+02  0.13332105200E+01 -0.37407629246E+03  0.37560132902E+03  0.31316423687E+01 0.  0.
         13    1    3    3    0    0  0.30999637320E+02  0.78282262453E+00 -0.33507068401E+03  0.33650253136E+03  0.00000000000E+00 0.  1.
          3    1    3    3  501    0  0.26411288171E+01  0.55038789550E+00 -0.39005608452E+02  0.39098797667E+02  0.00000000000E+00 0.  1.
         -1    1    1    2    0  502 -0.33640766137E+02 -0.13332105200E+01 -0.62470791472E+03  0.62561446379E+03  0.00000000000E+00 0. -1.
<mgrwt>
<rscale>  1 0.30000000E+03</rscale>
<asrwt>0</asrwt>
<pdfrwt beam="1">  1       21 0.44210741E-02 0.30000000E+03</pdfrwt>
<pdfrwt beam="2">0</pdfrwt>
<totfact> 0.35507787E+04</totfact>
</mgrwt>
</event>
<event>
 6    1  0.6377696E-002  0.3000000E+03  0.7818608E-02  0.1093470E+00
         21   -1    0    0  501  502  0.00000000000E+00  0.00000000000E+00  0.33385980814E+01  0.33385980814E+01  0.00000000000E+00 0. -1.
         13   -1    0    0    0    0 -0.00000000000E+00 -0.00000000000E+00 -0.10000000000E+04  0.10000000000E+04  0.00000000000E+00 0.  1.
    9000005    2    1    2  501    0 -0.19105280286E+02  0.53084020817E+02 -0.59059429695E+03  0.59337101554E+03  0.10228073465E+02 0.  0.
         13    1    3    3    0    0 -0.59593420497E+01  0.27124267764E+02 -0.25072473362E+03  0.25225806570E+03  0.00000000000E+00 0.  1.
          3    1    3    3  501    0 -0.13145938237E+02  0.25959753053E+02 -0.33986956333E+03  0.34111294984E+03  0.00000000000E+00 0.  1.
         -1    1    1    2    0  502  0.19105280286E+02 -0.53084020817E+02 -0.40606710497E+03  0.40996758254E+03  0.00000000000E+00 0. -1.
<mgrwt>
<rscale>  1 0.30000000E+03</rscale>
<asrwt>0</asrwt>
<pdfrwt beam="1">  1       21 0.12140382E-01 0.30000000E+03</pdfrwt>
<pdfrwt beam="2">0</pdfrwt>
<totfact> 0.60675900E+03</totfact>
</mgrwt>
</event>
<event>
 6    1  0.6377696E-002  0.3000000E+03  0.7818608E-02  0.1093470E+00
         21   -1    0    0  501  502  0.00000000000E+00  0.00000000000E+00  0.11089954677E+01  0.11089954677E+01  0.00000000000E+00 0. -1.
         13   -1    0    0    0    0 -0.00000000000E+00 -0.00000000000E+00 -0.10000000000E+04  0.10000000000E+04  0.00000000000E+00 0.  1.
    9000005    2    1    2  501    0 -0.88889338168E+01 -0.29907780883E+02 -0.34646470807E+03  0.34793707260E+03  0.69945730881E+01 0.  0.
         13    1    3    3    0    0 -0.58861809727E+01 -0.14352654803E+02 -0.20557573474E+03  0.20616020116E+03  0.00000000000E+00 0.  1.
          3    1    3    3  501    0 -0.30027528441E+01 -0.15555126079E+02 -0.14088897333E+03  0.14177687145E+03  0.00000000000E+00 0.  1.
         -3    1    1    2    0  502  0.88889338168E+01  0.29907780883E+02 -0.65242629646E+03  0.65317192287E+03  0.00000000000E+00 0. -1.
<mgrwt>
<rscale>  1 0.30000000E+03</rscale>
<asrwt>0</asrwt>
<pdfrwt beam="1">  1       21 0.40327193E-02 0.30000000E+03</pdfrwt>
<pdfrwt beam="2">0</pdfrwt>
<totfact> 0.41474295E+04</totfact>
</mgrwt>
</event>
<event>
 6    1  0.6377696E-002  0.3000000E+03  0.7818608E-02  0.1093470E+00
         21   -1    0    0  501  502  0.00000000000E+00  0.00000000000E+00  0.64796407890E+01  0.64796407890E+01  0.00000000000E+00 0. -1.
         13   -1    0    0    0    0 -0.00000000000E+00 -0.00000000000E+00 -0.10000000000E+04  0.10000000000E+04  0.00000000000E+00 0.  1.
    9000005    2    1    2  501    0 -0.55109622027E+02 -0.31588111024E+02 -0.19050603991E+03  0.20095690604E+03  0.74998429439E+01 0.  0.
         13    1    3    3    0    0 -0.72781948683E+01 -0.17469256312E+01 -0.18931381889E+02  0.20357335040E+02  0.00000000000E+00 0.  1.
          1    1    3    3  501    0 -0.47831427158E+02 -0.29841185393E+02 -0.17157465802E+03  0.18059957100E+03  0.00000000000E+00 0.  1.
         -1    1    1    2    0  502  0.55109622027E+02  0.31588111024E+02 -0.80301431930E+03  0.80552273475E+03  0.00000000000E+00 0. -1.
<mgrwt>
<rscale>  1 0.30000000E+03</rscale>
<asrwt>0</asrwt>
<pdfrwt beam="1">  1       21 0.23562380E-01 0.30000000E+03</pdfrwt>
<pdfrwt beam="2">0</pdfrwt>
<totfact> 0.17503918E+03</totfact>
</mgrwt>
</event>
<event>
 6    1  0.6377696E-002  0.3000000E+03  0.7818608E-02  0.1093470E+00
         21   -1    0    0  501  502  0.00000000000E+00  0.00000000000E+00  0.11663559473E+01  0.11663559473E+01  0.00000000000E+00 0. -1.
         13   -1    0    0    0    0 -0.00000000000E+00 -0.00000000000E+00 -0.10000000000E+04  0.10000000000E+04  0.00000000000E+00 0.  1.
    9000005    2    1    2  501    0 -0.32971555184E+02  0.80451917326E+01 -0.54792425995E+03  0.54898152512E+03  0.28056579695E+01 0.  0.
         13    1    3    3    0    0 -0.29943175756E+02  0.64792826789E+01 -0.49677382842E+03  0.49771760214E+03  0.00000000000E+00 0.  1.
          3    1    3    3  501    0 -0.30283794275E+01  0.15659090537E+01 -0.51150431528E+02  0.51263922973E+02  0.00000000000E+00 0.  1.
         -1    1    1    2    0  502  0.32971555184E+02 -0.80451917326E+01 -0.45090938410E+03  0.45218483083E+03  0.00000000000E+00 0. -1.
<mgrwt>
<rscale>  1 0.30000000E+03</rscale>
<asrwt>0</asrwt>
<pdfrwt beam="1">  1       21 0.42413033E-02 0.30000000E+03</pdfrwt>
<pdfrwt beam="2">0</pdfrwt>
<totfact> 0.38091564E+04</totfact>
</mgrwt>
</event>
<event>
 6    1  0.6377696E-002  0.3000000E+03  0.7818608E-02  0.1093470E+00
         21   -1    0    0  501  502  0.00000000000E+00  0.00000000000E+00  0.25127110040E+01  0.25127110040E+01  0.00000000000E+00 0. -1.
         13   -1    0    0    0    0 -0.00000000000E+00 -0.00000000000E+00 -0.10000000000E+04  0.10000000000E+04  0.00000000000E+00 0.  1.
    9000005    2    1    2  501    0  0.30020464813E+02  0.31039383827E+02 -0.24565560623E+03  0.24944196342E+03  0.31535038686E+01 0.  0.
         13    1    3    3    0    0  0.24695382627E+02  0.24777775162E+02 -0.19212122296E+03  0.19528022013E+03  0.00000000000E+00 0.  1.
          1    1    3    3  501    0  0.53250821860E+01  0.62616086645E+01 -0.53534383276E+02  0.54161743289E+02  0.00000000000E+00 0.  1.
         -1    1    1    2    0  502 -0.30020464813E+02 -0.31039383827E+02 -0.75183168276E+03  0.75307074758E+03  0.00000000000E+00 0. -1.
<mgrwt>
<rscale>  1 0.30000000E+03</rscale>
<asrwt>0</asrwt>
<pdfrwt beam="1">  1       21 0.91371502E-02 0.30000000E+03</pdfrwt>
<pdfrwt beam="2">0</pdfrwt>
<totfact> 0.10103516E+04</totfact>
</mgrwt>
</event>
<event>
 6    1  0.6377696E-002  0.3000000E+03  0.7818608E-02  0.1093470E+00
         21   -1    0    0  501  502  0.00000000000E+00  0.00000000000E+00  0.21227122508E+01  0.21227122508E+01  0.00000000000E+00 0. -1.
         13   -1    0    0    0    0 -0.00000000000E+00 -0.00000000000E+00 -0.10000000000E+04  0.10000000000E+04  0.00000000000E+00 0.  1.
    9000005    2    1    2  501    0  0.41436850231E+02  0.16739342935E+02 -0.38063730968E+03  0.38326698699E+03  0.34064113775E+01 0.  0.
         13    1    3    3    0    0  0.24339261088E+02  0.11607455995E+02 -0.23130364306E+03  0.23287015257E+03  0.00000000000E+00 0.  1.
          1    1    3    3  501    0  0.17097589143E+02  0.51318869404E+01 -0.14933366663E+03  0.15039683443E+03  0.00000000000E+00 0.  1.
         -3    1    1    2    0  502 -0.41436850231E+02 -0.16739342935E+02 -0.61723997807E+03  0.61885572526E+03  0.00000000000E+00 0. -1.
<mgrwt>
<rscale>  1 0.30000000E+03</rscale>
<asrwt>0</asrwt>
<pdfrwt beam="1">  1       21 0.77189699E-02 0.30000000E+03</pdfrwt>
<pdfrwt beam="2">0</pdfrwt>
<totfact> 0.13601132E+04</totfact>
</mgrwt>
</event>
<event>
 6    1  0.6377696E-002  0.3000000E+03  0.7818608E-02  0.1093470E+00
         21   -1    0    0  501  502  0.00000000000E+00  0.00000000000E+00  0.17396909087E+01  0.17396909087E+01  0.00000000000E+00 0. -1.
         13   -1    0    0    0    0 -0.00000000000E+00 -0.00000000000E+00 -0.10000000000E+04  0.10000000000E+04  0.00000000000E+00 0.  1.
    9000005    2    1    2  501    0  0.77673921198E+01 -0.36932383403E+02 -0.29059095854E+03  0.29306469979E+03  0.44135875385E+01 0.  0.
         13    1    3    3    0    0  0.47103956893E+00 -0.75088012270E+00 -0.34863496490E+01  0.35972674503E+01  0.00000000000E+00 0.  1.
          1    1    3    3  501    0  0.72963525509E+01 -0.36181503281E+02 -0.28710460889E+03  0.28946743234E+03  0.00000000000E+00 0.  1.
         -1    1    1    2    0  502 -0.77673921198E+01  0.36932383403E+02 -0.70766935055E+03  0.70867499111E+03  0.00000000000E+00 0. -1.
<mgrwt>
<rscale>  1 0.30000000E+03</rscale>
<asrwt>0</asrwt>
<pdfrwt beam="1">  1       21 0.63261621E-02 0.30000000E+03</pdfrwt>
<pdfrwt beam="2">0</pdfrwt>
<totfact> 0.19231153E+04</totfact>
</mgrwt>
</event>
<event>
 6    1  0.6377696E-002  0.3000000E+03  0.7818608E-02  0.1093470E+00
         21   -1    0    0  501  502  0.00000000000E+00  0.00000000000E+00  0.24060907314E+01  0.24060907314E+01  0.00000000000E+00 0. -1.
         13   -1    0    0    0    0 -0.00000000000E+00 -0.00000000000E+00 -0.10000000000E+04  0.10000000000E+04  0.00000000000E+00 0.  1.
    9000005    2    1    2  501    0  0.44212167205E+02  0.18858259002E+02 -0.57430685799E+03  0.57639872291E+03  0.98372237700E+01 0.  0.
         13    1    3    3    0    0  0.26721187290E+02  0.72571187903E+01 -0.29038048742E+03  0.29169764329E+03  0.00000000000E+00 0.  1.
          3    1    3    3  501    0  0.17490979915E+02  0.11601140212E+02 -0.28392637057E+03  0.28470107962E+03  0.00000000000E+00 0.  1.
         -3    1    1    2    0  502 -0.44212167205E+02 -0.18858259002E+02 -0.42328705128E+03  0.42600736782E+03  0.00000000000E+00 0. -1.
<mgrwt>
<rscale>  1 0.30000000E+03</rscale>
<asrwt>0</asrwt>
<pdfrwt beam="1">  1       21 0.87494393E-02 0.30000000E+03</pdfrwt>
<pdfrwt beam="2">0</pdfrwt>
<totfact> 0.10909755E+04</totfact>
</mgrwt>
</event>
<event>
 6    1  0.6377696E-002  0.3000000E+03  0.7818608E-02  0.1093470E+00
         21   -1    0    0  501  502  0.00000000000E+00  0.00000000000E+00  0.14268894281E+01  0.14268894281E+01  0.00000000000E+00 0. -1.
         13   -1    0    0    0    0 -0.00000000000E+00 -0.00000000000E+00 -0.10000000000E+04  0.10000000000E+04  0.00000000000E+00 0.  1.
    9000005    2    1    2  501    0 -0.35710636560E+02  0.76582569956E+01 -0.62477950072E+03  0.62585324655E+03  0.29938645593E+01 0.  0.
         13    1    3    3    0    0 -0.59625318037E+01  0.38209164302E+00 -0.91004324763E+02  0.91200246190E+02  0.00000000000E+00 0.  1.
          3    1    3    3  501    0 -0.29748104756E+02  0.72761653526E+01 -0.53377517596E+03  0.53465300036E+03  0.00000000000E+00 0.  1.
         -3    1    1    2    0  502  0.35710636560E+02 -0.76582569956E+01 -0.37379360985E+03  0.37557364288E+03  0.00000000000E+00 0. -1.
<mgrwt>
<rscale>  1 0.30000000E+03</rscale>
<asrwt>0</asrwt>
<pdfrwt beam="1">  1       21 0.51886998E-02 0.30000000E+03</pdfrwt>
<pdfrwt beam="2">0</pdfrwt>
<totfact> 0.27040184E+04</totfact>
</mgrwt>
</event>
<event>
 6    1  0.6377696E-002  0.3000000E+03  0.7818608E-02  0.1093470E+00
         21   -1    0    0  501  502  0.00000000000E+00  0.00000000000E+00  0.29426544644E+01  0.29426544644E+01  0.00000000000E+00 0. -1.
         13   -1    0    0    0    0 -0.00000000000E+00 -0.00000000000E+00 -0.10000000000E+04  0.10000000000E+04  0.00000000000E+00 0.  1.
    9000005    2    1    2  501    0 -0.94884211983E+00  0.32660055862E+02 -0.99348194499E+02  0.10463908695E+03  0.34198271452E+01 0.  0.
         13    1    3    3    0    0 -0.16954382457E+01  0.28790872350E+02 -0.85000088735E+02  0.89759701016E+02  0.00000000000E+00 0.  1.
          3    1    3    3  501    0  0.74659612584E+00  0.38691835119E+01 -0.14348105764E+02  0.14879385936E+02  0.00000000000E+00 0.  1.
         -1    1    1    2    0  502  0.94884211983E+00 -0.32660055862E+02 -0.89770915104E+03  0.89830356751E+03  0.00000000000E+00 0. -1.
<mgrwt>
<rscale>  1 0.30000000E+03</rscale>
<asrwt>0</asrwt>
<pdfrwt beam="1">  1       21 0.10700584E-01 0.30000000E+03</pdfrwt>
<pdfrwt beam="2">0</pdfrwt>
<totfact> 0.76207460E+03</totfact>
</mgrwt>
</event>
<event>
 6    1  0.6377696E-002  0.3000000E+03  0.7818608E-02  0.1093470E+00
         21   -1    0    0  501  502  0.00000000000E+00  0.00000000000E+00  0.98173701386E+00  0.98173701386E+00  0.00000000000E+00 0. -1.
         13   -1    0    0    0    0 -0.00000000000E+00 -0.00000000000E+00 -0.10000000000E+04  0.10000000000E+04  0.00000000000E+00 0.  1.
    9000005    2    1    2  501    0 -0.27775752524E+02  0.13751862439E+02 -0.46023094566E+03  0.46130370387E+03  0.52893960289E+01 0.  0.
         13    1    3    3    0    0 -0.23441217547E+02  0.11167047444E+02 -0.35274656354E+03  0.35370090715E+03  0.00000000000E+00 0.  1.
          3    1    3    3  501    0 -0.43345349763E+01  0.25848149949E+01 -0.10748438212E+03  0.10760279672E+03  0.00000000000E+00 0.  1.
         -1    1    1    2    0  502  0.27775752524E+02 -0.13751862439E+02 -0.53878731733E+03  0.53967803315E+03  0.00000000000E+00 0. -1.
<mgrwt>
<rscale>  1 0.30000000E+03</rscale>
<asrwt>0</asrwt>
<pdfrwt beam="1">  1       21 0.35699603E-02 0.30000000E+03</pdfrwt>
<pdfrwt beam="2">0</pdfrwt>
<totfact> 0.50900464E+04</totfact>
</mgrwt>
</event>
<event>
 6    1  0.6377696E-002  0.3000000E+03  0.7818608E-02  0.1093470E+00
         21   -1    0    0  501  502  0.00000000000E+00  0.00000000000E+00  0.21501368129E+01  0.21501368129E+01  0.00000000000E+00 0. -1.
         13   -1    0    0    0    0 -0.00000000000E+00 -0.00000000000E+00 -0.10000000000E+04  0.10000000000E+04  0.00000000000E+00 0.  1.
    9000005    2    1    2  501    0  0.21536062141E+02 -0.40195076616E+02 -0.44116706809E+03  0.44360275250E+03  0.86933255350E+01 0.  0.
         13    1    3    3    0    0  0.94236716692E+01 -0.25935915644E+02 -0.27821880514E+03  0.27958394239E+03  0.00000000000E+00 0.  1.
          1    1    3    3  501    0  0.12112390472E+02 -0.14259160972E+02 -0.16294826294E+03  0.16401881011E+03  0.00000000000E+00 0.  1.
         -1    1    1    2    0  502 -0.21536062141E+02  0.40195076616E+02 -0.55668279510E+03  0.55854738431E+03  0.00000000000E+00 0. -1.
<mgrwt>
<rscale>  1 0.30000000E+03</rscale>
<asrwt>0</asrwt>
<pdfrwt beam="1">  1       21 0.78186958E-02 0.30000000E+03</pdfrwt>
<pdfrwt beam="2">0</pdfrwt>
<totfact> 0.13298362E+04</totfact>
</mgrwt>
</event>
<event>
 6    1  0.6377696E-002  0.3000000E+03  0.7818608E-02  0.1093470E+00
         21   -1    0    0  501  502  0.00000000000E+00  0.00000000000E+00  0.10331838735E+01  0.10331838735E+01  0.00000000000E+00 0. -1.
         13   -1    0    0    0    0 -0.00000000000E+00 -0.00000000000E+00 -0.10000000000E+04  0.10000000000E+04  0.00000000000E+00 0.  1.
    9000005    2    1    2  501    0 -0.28829310276E+02 -0.91770789455E+01 -0.33482611932E+03  0.33620372223E+03  0.30107733767E+01 0.  0.
         13    1    3    3    0    0 -0.14893739215E+02 -0.61498275437E+01 -0.18506952897E+03  0.18576968105E+03  0.00000000000E+00 0.  1.
          1    1    3    3  501    0 -0.13935571061E+02 -0.30272514018E+01 -0.14975659035E+03  0.15043404118E+03  0.00000000000E+00 0.  1.
         -3    1    1    2    0  502  0.28829310276E+02  0.91770789455E+01 -0.66414069681E+03  0.66482946164E+03  0.00000000000E+00 0. -1.
<mgrwt>
<rscale>  1 0.30000000E+03</rscale>
<asrwt>0</asrwt>
<pdfrwt beam="1">  1       21 0.37570402E-02 0.30000000E+03</pdfrwt>
<pdfrwt beam="2">0</pdfrwt>
<totfact> 0.46719883E+04</totfact>
</mgrwt>
</event>
<event>
 6    1  0.6377696E-002  0.3000000E+03  0.7818608E-02  0.1093470E+00
         21   -1    0    0  501  502  0.00000000000E+00  0.00000000000E+00  0.94438061360E+00  0.94438061360E+00  0.00000000000E+00 0. -1.
         13   -1    0    0    0    0 -0.00000000000E+00 -0.00000000000E+00 -0.10000000000E+04  0.10000000000E+04  0.00000000000E+00 0.  1.
    9000005    2    1    2  501    0  0.18305800204E+02 -0.24042982072E+02 -0.41393782226E+03  0.41504677538E+03  0.24774473625E+01 0.  0.
         13    1    3    3    0    0  0.32197558371E+00 -0.97702177395E+00 -0.10565185340E+02  0.10615148660E+02  0.00000000000E+00 0.  1.
          3    1    3    3  501    0  0.17983824620E+02 -0.23065960298E+02 -0.40337263692E+03  0.40443162672E+03  0.00000000000E+00 0.  1.
         -3    1    1    2    0  502 -0.18305800204E+02  0.24042982072E+02 -0.58511779713E+03  0.58589760524E+03  0.00000000000E+00 0. -1.
<mgrwt>
<rscale>  1 0.30000000E+03</rscale>
<asrwt>0</asrwt>
<pdfrwt beam="1">  1       21 0.34341186E-02 0.30000000E+03</pdfrwt>
<pdfrwt beam="2">0</pdfrwt>
<totfact> 0.54316792E+04</totfact>
</mgrwt>
</event>
<event>
 6    1  0.6377696E-002  0.3000000E+03  0.7818608E-02  0.1093470E+00
         21   -1    0    0  501  502  0.00000000000E+00  0.00000000000E+00  0.17463634058E+01  0.17463634058E+01  0.00000000000E+00 0. -1.
         13   -1    0    0    0    0 -0.00000000000E+00 -0.00000000000E+00 -0.10000000000E+04  0.10000000000E+04  0.00000000000E+00 0.  1.
    9000005    2    1    2  501    0 -0.32274600753E+02 -0.23976286307E+02 -0.62520736912E+03  0.62653971390E+03  0.71586681701E+01 0.  0.
         13    1    3    3    0    0 -0.13002960714E+02 -0.78159147489E+01 -0.28533460312E+03  0.28573764409E+03  0.00000000000E+00 0.  1.
          1    1    3    3  501    0 -0.19271640039E+02 -0.16160371558E+02 -0.33987276600E+03  0.34080206981E+03  0.00000000000E+00 0.  1.
         -1    1    1    2    0  502  0.32274600753E+02  0.23976286307E+02 -0.37304626748E+03  0.37520664951E+03  0.00000000000E+00 0. -1.
<mgrwt>
<rscale>  1 0.30000000E+03</rscale>
<asrwt>0</asrwt>
<pdfrwt beam="1">  1       21 0.63504258E-02 0.30000000E+03</pdfrwt>
<pdfrwt beam="2">0</pdfrwt>
<totfact> 0.19104288E+04</totfact>
</mgrwt>
</event>
<event>
 6    1  0.6377696E-002  0.3000000E+03  0.7818608E-02  0.1093470E+00
         21   -1    0    0  501  502  0.00000000000E+00  0.00000000000E+00  0.30897617465E+01  0.30897617465E+01  0.00000000000E+00 0. -1.
         13   -1    0    0    0    0 -0.00000000000E+00 -0.00000000000E+00 -0.10000000000E+04  0.10000000000E+04  0.00000000000E+00 0.  1.
    9000005    2    1    2  501    0  0.32414121290E+01 -0.49316792327E+02 -0.27004291571E+03  0.27454411641E+03  0.29398591620E+01 0.  0.
         13    1    3    3    0    0  0.11240356229E+01 -0.29266226247E+02 -0.15319909175E+03  0.15597351432E+03  0.00000000000E+00 0.  1.
          3    1    3    3  501    0  0.21173765061E+01 -0.20050566080E+02 -0.11684382396E+03  0.11857060209E+03  0.00000000000E+00 0.  1.
         -3    1    1    2    0  502 -0.32414121290E+01  0.49316792327E+02 -0.72686732254E+03  0.72854564534E+03  0.00000000000E+00 0. -1.
<mgrwt>
<rscale>  1 0.30000000E+03</rscale>
<asrwt>0</asrwt>
<pdfrwt beam="1">  1       21 0.11235521E-01 0.30000000E+03</pdfrwt>
<pdfrwt beam="2">0</pdfrwt>
<totfact> 0.69805682E+03</totfact>
</mgrwt>
</event>
<event>
 6    1  0.6377696E-002  0.3000000E+03  0.7818608E-02  0.1093470E+00
         21   -1    0    0  501  502  0.00000000000E+00  0.00000000000E+00  0.10415740077E+01  0.10415740077E+01  0.00000000000E+00 0. -1.
         13   -1    0    0    0    0 -0.00000000000E+00 -0.00000000000E+00 -0.10000000000E+04  0.10000000000E+04  0.00000000000E+00 0.  1.
    9000005    2    1    2  501    0 -0.31051041110E+01  0.31778170639E+02 -0.51712479148E+03  0.51815116703E+03  0.65641552301E+01 0.  0.
         13    1    3    3    0    0 -0.14237909675E+01  0.28836080537E+02 -0.48178505709E+03  0.48264934265E+03  0.00000000000E+00 0.  1.
          1    1    3    3  501    0 -0.16813131435E+01  0.29420901022E+01 -0.35339734383E+02  0.35501824380E+02  0.00000000000E+00 0.  1.
         -3    1    1    2    0  502  0.31051041110E+01 -0.31778170639E+02 -0.48183363452E+03  0.48289040698E+03  0.00000000000E+00 0. -1.
<mgrwt>
<rscale>  1 0.30000000E+03</rscale>
<asrwt>0</asrwt>
<pdfrwt beam="1">  1       21 0.37875498E-02 0.30000000E+03</pdfrwt>
<pdfrwt beam="2">0</pdfrwt>
<totfact> 0.46089493E+04</totfact>
</mgrwt>
</event>
<event>
 6    1  0.6377696E-002  0.3000000E+03  0.7818608E-02  0.1093470E+00
         21   -1    0    0  501  502  0.00000000000E+00  0.00000000000E+00  0.11210327675E+02  0.11210327675E+02  0.00000000000E+00 0. -1.
         13   -1    0    0    0    0 -0.00000000000E+00 -0.00000000000E+00 -0.10000000000E+04  0.10000000000E+04  0.00000000000E+00 0.  1.
    9000005    2    1    2  501    0  0.27795595648E+02  0.37606071613E+02 -0.94799708347E+03  0.94915513398E+03  0.31916016682E+01 0.  0.
         13    1    3    3    0    0  0.87534475552E+01  0.10441071065E+02 -0.30064306635E+03  0.30095164421E+03  0.00000000000E+00 0.  1.
          1    1    3    3  501    0  0.19042148092E+02  0.27165000548E+02 -0.64735401712E+03  0.64820348977E+03  0.00000000000E+00 0.  1.
         -1    1    1    2    0  502 -0.27795595648E+02 -0.37606071613E+02 -0.40792588850E+02  0.62055193696E+02  0.00000000000E+00 0. -1.
<mgrwt>
<rscale>  1 0.30000000E+03</rscale>
<asrwt>0</asrwt>
<pdfrwt beam="1">  1       21 0.40764914E-01 0.30000000E+03</pdfrwt>
<pdfrwt beam="2">0</pdfrwt>
<totfact> 0.58055397E+02</totfact>
</mgrwt>
</event>
<event>
 6    1  0.6377696E-002  0.3000000E+03  0.7818608E-02  0.1093470E+00
         21   -1    0    0  501  502  0.00000000000E+00  0.00000000000E+00  0.12678954904E+01  0.12678954904E+01  0.00000000000E+00 0. -1.
         13   -1    0    0    0    0 -0.00000000000E+00 -0.00000000000E+00 -0.10000000000E+04  0.10000000000E+04  0.00000000000E+00 0.  1.
    9000005    2    1    2  501    0 -0.73612280138E+01 -0.31394735073E+02 -0.29232418148E+03  0.29412436636E+03  0.39873226789E+01 0.  0.
         13    1    3    3    0    0 -0.42991522543E+01 -0.20099776869E+02 -0.16871648620E+03  0.16996392692E+03  0.00000000000E+00 0.  1.
          1    1    3    3  501    0 -0.30620757595E+01 -0.11294958204E+02 -0.12360769528E+03  0.12416043944E+03  0.00000000000E+00 0.  1.
         -3    1    1    2    0  502  0.73612280138E+01  0.31394735073E+02 -0.70640792303E+03  0.70714352913E+03  0.00000000000E+00 0. -1.
<mgrwt>
<rscale>  1 0.30000000E+03</rscale>
<asrwt>0</asrwt>
<pdfrwt beam="1">  1       21 0.46105388E-02 0.30000000E+03</pdfrwt>
<pdfrwt beam="2">0</pdfrwt>
<totfact> 0.33066967E+04</totfact>
</mgrwt>
</event>
<event>
 6    1  0.6377696E-002  0.3000000E+03  0.7818608E-02  0.1093470E+00
         21   -1    0    0  501  502  0.00000000000E+00  0.00000000000E+00  0.23637107770E+01  0.23637107770E+01  0.00000000000E+00 0. -1.
         13   -1    0    0    0    0 -0.00000000000E+00 -0.00000000000E+00 -0.10000000000E+04  0.10000000000E+04  0.00000000000E+00 0.  1.
    9000005    2    1    2  501    0  0.31673229266E+02  0.25100640763E+02 -0.77709393534E+03  0.77814915845E+03  0.28094190872E+01 0.  0.
         13    1    3    3    0    0  0.20811039245E+02  0.17353728285E+02 -0.54205744945E+03  0.54273430861E+03  0.00000000000E+00 0.  1.
          3    1    3    3  501    0  0.10862190021E+02  0.77469124781E+01 -0.23503648589E+03  0.23541484984E+03  0.00000000000E+00 0.  1.
         -1    1    1    2    0  502 -0.31673229266E+02 -0.25100640763E+02 -0.22054235388E+03  0.22421455232E+03  0.00000000000E+00 0. -1.
<mgrwt>
<rscale>  1 0.30000000E+03</rscale>
<asrwt>0</asrwt>
<pdfrwt beam="1">  1       21 0.85953300E-02 0.30000000E+03</pdfrwt>
<pdfrwt beam="2">0</pdfrwt>
<totfact> 0.11257578E+04</totfact>
</mgrwt>
</event>
<event>
 6    1  0.6377696E-002  0.3000000E+03  0.7818608E-02  0.1093470E+00
         21   -1    0    0  501  502  0.00000000000E+00  0.00000000000E+00  0.13743513562E+01  0.13743513562E+01  0.00000000000E+00 0. -1.
         13   -1    0    0    0    0 -0.00000000000E+00 -0.00000000000E+00 -0.10000000000E+04  0.10000000000E+04  0.00000000000E+00 0.  1.
    9000005    2    1    2  501    0 -0.90477767936E+01  0.35505264882E+02 -0.43172619760E+03  0.43329207414E+03  0.34678112207E+01 0.  0.
         13    1    3    3    0    0 -0.41210386396E+01  0.13321239929E+02 -0.14654514395E+03  0.14720705692E+03  0.00000000000E+00 0.  1.
          1    1    3    3  501    0 -0.49267381540E+01  0.22184024953E+02 -0.28518105365E+03  0.28608501722E+03  0.00000000000E+00 0.  1.
         -3    1    1    2    0  502  0.90477767936E+01 -0.35505264882E+02 -0.56689945104E+03  0.56808227722E+03  0.00000000000E+00 0. -1.
<mgrwt>
<rscale>  1 0.30000000E+03</rscale>
<asrwt>0</asrwt>
<pdfrwt beam="1">  1       21 0.49976518E-02 0.30000000E+03</pdfrwt>
<pdfrwt beam="2">0</pdfrwt>
<totfact> 0.28827731E+04</totfact>
</mgrwt>
</event>
<event>
 6    1  0.6377696E-002  0.3000000E+03  0.7818608E-02  0.1093470E+00
         21   -1    0    0  501  502  0.00000000000E+00  0.00000000000E+00  0.10740024149E+01  0.10740024149E+01  0.00000000000E+00 0. -1.
         13   -1    0    0    0    0 -0.00000000000E+00 -0.00000000000E+00 -0.10000000000E+04  0.10000000000E+04  0.00000000000E+00 0.  1.
    9000005    2    1    2  501    0  0.19397414655E+02  0.24471812955E+02 -0.64813889810E+03  0.64889972952E+03  0.34202945713E+01 0.  0.
         13    1    3    3    0    0  0.39726905884E+00  0.92694280960E+00 -0.12230911795E+02  0.12272418222E+02  0.00000000000E+00 0.  1.
          3    1    3    3  501    0  0.19000145596E+02  0.23544870146E+02 -0.63590798631E+03  0.63662731130E+03  0.00000000000E+00 0.  1.
         -1    1    1    2    0  502 -0.19397414655E+02 -0.24471812955E+02 -0.35078709948E+03  0.35217427289E+03  0.00000000000E+00 0. -1.
<mgrwt>
<rscale>  1 0.30000000E+03</rscale>
<asrwt>0</asrwt>
<pdfrwt beam="1">  1       21 0.39054716E-02 0.30000000E+03</pdfrwt>
<pdfrwt beam="2">0</pdfrwt>
<totfact> 0.43774317E+04</totfact>
</mgrwt>
</event>
<event>
 6    1  0.6377696E-002  0.3000000E+03  0.7818608E-02  0.1093470E+00
         21   -1    0    0  501  502  0.00000000000E+00  0.00000000000E+00  0.25983669580E+01  0.25983669580E+01  0.00000000000E+00 0. -1.
         13   -1    0    0    0    0 -0.00000000000E+00 -0.00000000000E+00 -0.10000000000E+04  0.10000000000E+04  0.00000000000E+00 0.  1.
    9000005    2    1    2  501    0 -0.19572879111E+02  0.31275109419E+02 -0.15402092618E+03  0.15841103777E+03  0.32219742518E+01 0.  0.
         13    1    3    3    0    0 -0.22916266887E+01  0.25646079132E+01 -0.17770815137E+02  0.18100570081E+02  0.00000000000E+00 0.  1.
          3    1    3    3  501    0 -0.17281252422E+02  0.28710501505E+02 -0.13625011105E+03  0.14031046769E+03  0.00000000000E+00 0.  1.
         -3    1    1    2    0  502  0.19572879111E+02 -0.31275109419E+02 -0.84338070686E+03  0.84418732919E+03  0.00000000000E+00 0. -1.
<mgrwt>
<rscale>  1 0.30000000E+03</rscale>
<asrwt>0</asrwt>
<pdfrwt beam="1">  1       21 0.94486270E-02 0.30000000E+03</pdfrwt>
<pdfrwt beam="2">0</pdfrwt>
<totfact> 0.95192016E+03</totfact>
</mgrwt>
</event>
<event>
 6    1  0.6377696E-002  0.3000000E+03  0.7818608E-02  0.1093470E+00
         21   -1    0    0  501  502  0.00000000000E+00  0.00000000000E+00  0.93816807273E+00  0.93816807273E+00  0.00000000000E+00 0. -1.
         13   -1    0    0    0    0 -0.00000000000E+00 -0.00000000000E+00 -0.10000000000E+04  0.10000000000E+04  0.00000000000E+00 0.  1.
    9000005    2    1    2  501    0 -0.95028746590E+01 -0.28998167548E+02 -0.51902512272E+03  0.51993251267E+03  0.33972582280E+01 0.  0.
         13    1    3    3    0    0 -0.61748342985E+01 -0.18017634745E+02 -0.35066659241E+03  0.35118346028E+03  0.00000000000E+00 0.  1.
          3    1    3    3  501    0 -0.33280403604E+01 -0.10980532802E+02 -0.16835853031E+03  0.16874905239E+03  0.00000000000E+00 0.  1.
         -1    1    1    2    0  502  0.95028746590E+01  0.28998167548E+02 -0.48003670921E+03  0.48100565541E+03  0.00000000000E+00 0. -1.
<mgrwt>
<rscale>  1 0.30000000E+03</rscale>
<asrwt>0</asrwt>
<pdfrwt beam="1">  1       21 0.34115275E-02 0.30000000E+03</pdfrwt>
<pdfrwt beam="2">0</pdfrwt>
<totfact> 0.54919470E+04</totfact>
</mgrwt>
</event>
<event>
 6    1  0.6377696E-002  0.3000000E+03  0.7818608E-02  0.1093470E+00
         21   -1    0    0  501  502  0.00000000000E+00  0.00000000000E+00  0.10058024073E+01  0.10058024073E+01  0.00000000000E+00 0. -1.
         13   -1    0    0    0    0 -0.00000000000E+00 -0.00000000000E+00 -0.10000000000E+04  0.10000000000E+04  0.00000000000E+00 0.  1.
    9000005    2    1    2  501    0  0.30160367475E+02 -0.18162161240E+01 -0.64738830219E+03  0.64810404258E+03  0.37801837285E+01 0.  0.
         13    1    3    3    0    0  0.20695387684E+02 -0.29971789102E+01 -0.44688499735E+03  0.44737398562E+03  0.00000000000E+00 0.  1.
          3    1    3    3  501    0  0.94649797908E+01  0.11809627863E+01 -0.20050330484E+03  0.20073005696E+03  0.00000000000E+00 0.  1.
         -3    1    1    2    0  502 -0.30160367475E+02  0.18162161240E+01 -0.35160589541E+03  0.35290175983E+03  0.00000000000E+00 0. -1.
<mgrwt>
<rscale>  1 0.30000000E+03</rscale>
<asrwt>0</asrwt>
<pdfrwt beam="1">  1       21 0.36574710E-02 0.30000000E+03</pdfrwt>
<pdfrwt beam="2">0</pdfrwt>
<totfact> 0.48874495E+04</totfact>
</mgrwt>
</event>
<event>
 6    1  0.6377696E-002  0.3000000E+03  0.7818608E-02  0.1093470E+00
         21   -1    0    0  501  502  0.00000000000E+00  0.00000000000E+00  0.23224837679E+01  0.23224837679E+01  0.00000000000E+00 0. -1.
         13   -1    0    0    0    0 -0.00000000000E+00 -0.00000000000E+00 -0.10000000000E+04  0.10000000000E+04  0.00000000000E+00 0.  1.
    9000005    2    1    2  501    0 -0.46494309910E+02 -0.60541179300E+01 -0.38550307184E+03  0.38835512016E+03  0.29508923145E+01 0.  0.
         13    1    3    3    0    0 -0.79675953031E+01 -0.48300083279E+00 -0.73944400530E+02  0.74373988965E+02  0.00000000000E+00 0.  1.
          1    1    3    3  501    0 -0.38526714607E+02 -0.55711170972E+01 -0.31155867131E+03  0.31398113120E+03  0.00000000000E+00 0.  1.
         -3    1    1    2    0  502  0.46494309910E+02  0.60541179300E+01 -0.61217444440E+03  0.61396736360E+03  0.00000000000E+00 0. -1.
<mgrwt>
<rscale>  1 0.30000000E+03</rscale>
<asrwt>0</asrwt>
<pdfrwt beam="1">  1       21 0.84454133E-02 0.30000000E+03</pdfrwt>
<pdfrwt beam="2">0</pdfrwt>
<totfact> 0.11612411E+04</totfact>
</mgrwt>
</event>
<event>
 6    1  0.6377696E-002  0.3000000E+03  0.7818608E-02  0.1093470E+00
         21   -1    0    0  501  502  0.00000000000E+00  0.00000000000E+00  0.18761469562E+01  0.18761469562E+01  0.00000000000E+00 0. -1.
         13   -1    0    0    0    0 -0.00000000000E+00 -0.00000000000E+00 -0.10000000000E+04  0.10000000000E+04  0.00000000000E+00 0.  1.
    9000005    2    1    2  501    0  0.19799255633E+02 -0.29487293769E+02 -0.78111691467E+03  0.78198180342E+03  0.95076535929E+01 0.  0.
         13    1    3    3    0    0  0.19803261121E+02 -0.26522171223E+02 -0.66092048069E+03  0.66174880167E+03  0.00000000000E+00 0.  1.
          3    1    3    3  501    0 -0.40054880095E-02 -0.29651225464E+01 -0.12019643399E+03  0.12023300175E+03  0.00000000000E+00 0.  1.
         -1    1    1    2    0  502 -0.19799255633E+02  0.29487293769E+02 -0.21700693837E+03  0.21989434353E+03  0.00000000000E+00 0. -1.
<mgrwt>
<rscale>  1 0.30000000E+03</rscale>
<asrwt>0</asrwt>
<pdfrwt beam="1">  1       21 0.68223670E-02 0.30000000E+03</pdfrwt>
<pdfrwt beam="2">0</pdfrwt>
<totfact> 0.16872695E+04</totfact>
</mgrwt>
</event>
<event>
 6    1  0.6377696E-002  0.3000000E+03  0.7818608E-02  0.1093470E+00
         21   -1    0    0  501  502  0.00000000000E+00  0.00000000000E+00  0.41999563581E+01  0.41999563581E+01  0.00000000000E+00 0. -1.
         13   -1    0    0    0    0 -0.00000000000E+00 -0.00000000000E+00 -0.10000000000E+04  0.10000000000E+04  0.00000000000E+00 0.  1.
    9000005    2    1    2  501    0  0.19732005028E+02 -0.54173976992E+02 -0.72674356489E+03  0.72903535005E+03  0.34872209114E+01 0.  0.
         13    1    3    3    0    0  0.63636485336E+01 -0.14365327561E+02 -0.18391714987E+03  0.18458704363E+03  0.00000000000E+00 0.  1.
          1    1    3    3  501    0  0.13368356495E+02 -0.39808649432E+02 -0.54282641502E+03  0.54444830642E+03  0.00000000000E+00 0.  1.
         -1    1    1    2    0  502 -0.19732005028E+02  0.54173976992E+02 -0.26905647875E+03  0.27516460631E+03  0.00000000000E+00 0. -1.
<mgrwt>
<rscale>  1 0.30000000E+03</rscale>
<asrwt>0</asrwt>
<pdfrwt beam="1">  1       21 0.15272601E-01 0.30000000E+03</pdfrwt>
<pdfrwt beam="2">0</pdfrwt>
<totfact> 0.39828781E+03</totfact>
</mgrwt>
</event>
<event>
 6    1  0.6377696E-002  0.3000000E+03  0.7818608E-02  0.1093470E+00
         21   -1    0    0  501  502  0.00000000000E+00  0.00000000000E+00  0.33395279679E+01  0.33395279679E+01  0.00000000000E+00 0. -1.
         13   -1    0    0    0    0 -0.00000000000E+00 -0.00000000000E+00 -0.10000000000E+04  0.10000000000E+04  0.00000000000E+00 0.  1.
    9000005    2    1    2  501    0 -0.52360768535E+02 -0.22210655945E+02 -0.58547309179E+03  0.58823710086E+03  0.30302311885E+01 0.  0.
         13    1    3    3    0    0 -0.14527148205E+00 -0.28159175147E+00 -0.40269497008E+01  0.40393961938E+01  0.00000000000E+00 0.  1.
          1    1    3    3  501    0 -0.52215497053E+02 -0.21929064193E+02 -0.58144614209E+03  0.58419770467E+03  0.00000000000E+00 0.  1.
         -1    1    1    2    0  502  0.52360768535E+02  0.22210655945E+02 -0.41118738024E+03  0.41510242711E+03  0.00000000000E+00 0. -1.
<mgrwt>
<rscale>  1 0.30000000E+03</rscale>
<asrwt>0</asrwt>
<pdfrwt beam="1">  1       21 0.12143764E-01 0.30000000E+03</pdfrwt>
<pdfrwt beam="2">0</pdfrwt>
<totfact> 0.60645197E+03</totfact>
</mgrwt>
</event>
<event>
 6    1  0.6377696E-002  0.3000000E+03  0.7818608E-02  0.1093470E+00
         21   -1    0    0  501  502  0.00000000000E+00  0.00000000000E+00  0.12101394168E+01  0.12101394168E+01  0.00000000000E+00 0. -1.
         13   -1    0    0    0    0 -0.00000000000E+00 -0.00000000000E+00 -0.10000000000E+04  0.10000000000E+04  0.00000000000E+00 0.  1.
    9000005    2    1    2  501    0  0.45037809763E+01 -0.31535100308E+02 -0.30697256069E+03  0.30865983581E+03  0.48984314873E+01 0.  0.
         13    1    3    3    0    0  0.27387012118E+01 -0.24944181370E+02 -0.25730907897E+03  0.25852983346E+03  0.00000000000E+00 0.  1.
          1    1    3    3  501    0  0.17650797645E+01 -0.65909189385E+01 -0.49663481725E+02  0.50130002354E+02  0.00000000000E+00 0.  1.
         -3    1    1    2    0  502 -0.45037809763E+01  0.31535100308E+02 -0.69181729989E+03  0.69255030361E+03  0.00000000000E+00 0. -1.
<mgrwt>
<rscale>  1 0.30000000E+03</rscale>
<asrwt>0</asrwt>
<pdfrwt beam="1">  1       21 0.44005162E-02 0.30000000E+03</pdfrwt>
<pdfrwt beam="2">0</pdfrwt>
<totfact> 0.35789291E+04</totfact>
</mgrwt>
</event>
<event>
 6    1  0.6377696E-002  0.3000000E+03  0.7818608E-02  0.1093470E+00
         21   -1    0    0  501  502  0.00000000000E+00  0.00000000000E+00  0.11823204509E+01  0.11823204509E+01  0.00000000000E+00 0. -1.
         13   -1    0    0    0    0 -0.00000000000E+00 -0.00000000000E+00 -0.10000000000E+04  0.10000000000E+04  0.00000000000E+00 0.  1.
    9000005    2    1    2  501    0  0.19549101584E+02  0.27751151328E+02 -0.42688789778E+03  0.42824605083E+03  0.30181132593E+01 0.  0.
         13    1    3    3    0    0  0.74938637741E+01  0.81877421512E+01 -0.13797668663E+03  0.13842240848E+03  0.00000000000E+00 0.  1.
          3    1    3    3  501    0  0.12055237810E+02  0.19563409177E+02 -0.28891121115E+03  0.28982364235E+03  0.00000000000E+00 0.  1.
         -3    1    1    2    0  502 -0.19549101584E+02 -0.27751151328E+02 -0.57192978177E+03  0.57293626962E+03  0.00000000000E+00 0. -1.
<mgrwt>
<rscale>  1 0.30000000E+03</rscale>
<asrwt>0</asrwt>
<pdfrwt beam="1">  1       21 0.42993562E-02 0.30000000E+03</pdfrwt>
<pdfrwt beam="2">0</pdfrwt>
<totfact> 0.37226170E+04</totfact>
</mgrwt>
</event>
<event>
 6    1  0.6377696E-002  0.3000000E+03  0.7818608E-02  0.1093470E+00
         21   -1    0    0  501  502  0.00000000000E+00  0.00000000000E+00  0.13898650357E+01  0.13898650357E+01  0.00000000000E+00 0. -1.
         13   -1    0    0    0    0 -0.00000000000E+00 -0.00000000000E+00 -0.10000000000E+04  0.10000000000E+04  0.00000000000E+00 0.  1.
    9000005    2    1    2  501    0  0.34576249966E+02  0.45589068490E+01 -0.32597062939E+03  0.32784684105E+03  0.32247901812E+01 0.  0.
         13    1    3    3    0    0  0.11259672715E+01 -0.23324539493E+00 -0.15523149870E+02  0.15565679799E+02  0.00000000000E+00 0.  1.
          3    1    3    3  501    0  0.33450282695E+02  0.47921522439E+01 -0.31044747952E+03  0.31228116125E+03  0.00000000000E+00 0.  1.
         -3    1    1    2    0  502 -0.34576249966E+02 -0.45589068490E+01 -0.67263950558E+03  0.67354302398E+03  0.00000000000E+00 0. -1.
<mgrwt>
<rscale>  1 0.30000000E+03</rscale>
<asrwt>0</asrwt>
<pdfrwt beam="1">  1       21 0.50540653E-02 0.30000000E+03</pdfrwt>
<pdfrwt beam="2">0</pdfrwt>
<totfact> 0.28281213E+04</totfact>
</mgrwt>
</event>
<event>
 6    1  0.6377696E-002  0.3000000E+03  0.7818608E-02  0.1093470E+00
         21   -1    0    0  501  502  0.00000000000E+00  0.00000000000E+00  0.11853773767E+01  0.11853773767E+01  0.00000000000E+00 0. -1.
         13   -1    0    0    0    0 -0.00000000000E+00 -0.00000000000E+00 -0.10000000000E+04  0.10000000000E+04  0.00000000000E+00 0.  1.
    9000005    2    1    2  501    0  0.17029700950E+02  0.26458857412E+02 -0.70071256329E+03  0.70142727552E+03  0.34705390108E+01 0.  0.
         13    1    3    3    0    0  0.45688359438E+01  0.45739353404E+01 -0.13700582757E+03  0.13715827330E+03  0.00000000000E+00 0.  1.
          3    1    3    3  501    0  0.12460865006E+02  0.21884922071E+02 -0.56370673572E+03  0.56426900222E+03  0.00000000000E+00 0.  1.
         -1    1    1    2    0  502 -0.17029700950E+02 -0.26458857412E+02 -0.29810205934E+03  0.29975810186E+03  0.00000000000E+00 0. -1.
<mgrwt>
<rscale>  1 0.30000000E+03</rscale>
<asrwt>0</asrwt>
<pdfrwt beam="1">  1       21 0.43104723E-02 0.30000000E+03</pdfrwt>
<pdfrwt beam="2">0</pdfrwt>
<totfact> 0.37063944E+04</totfact>
</mgrwt>
</event>
<event>
 6    1  0.6377696E-002  0.3000000E+03  0.7818608E-02  0.1093470E+00
         21   -1    0    0  501  502  0.00000000000E+00  0.00000000000E+00  0.44857554308E+01  0.44857554308E+01  0.00000000000E+00 0. -1.
         13   -1    0    0    0    0 -0.00000000000E+00 -0.00000000000E+00 -0.10000000000E+04  0.10000000000E+04  0.00000000000E+00 0.  1.
    9000005    2    1    2  501    0  0.33451926632E+01  0.38701642871E+02 -0.89366221883E+02  0.97505465406E+02  0.34621807478E+01 0.  0.
         13    1    3    3    0    0  0.38457106536E+01  0.26803392475E+02 -0.60884941809E+02  0.66634731767E+02  0.00000000000E+00 0.  1.
          3    1    3    3  501    0 -0.50051799041E+00  0.11898250396E+02 -0.28481280074E+02  0.30870733639E+02  0.00000000000E+00 0.  1.
         -3    1    1    2    0  502 -0.33451926632E+01 -0.38701642871E+02 -0.90614802269E+03  0.90698029002E+03  0.00000000000E+00 0. -1.
<mgrwt>
<rscale>  1 0.30000000E+03</rscale>
<asrwt>0</asrwt>
<pdfrwt beam="1">  1       21 0.16311872E-01 0.30000000E+03</pdfrwt>
<pdfrwt beam="2">0</pdfrwt>
<totfact> 0.35234814E+03</totfact>
</mgrwt>
</event>
<event>
 6    1  0.6377696E-002  0.3000000E+03  0.7818608E-02  0.1093470E+00
         21   -1    0    0  501  502  0.00000000000E+00  0.00000000000E+00  0.11894309938E+01  0.11894309938E+01  0.00000000000E+00 0. -1.
         13   -1    0    0    0    0 -0.00000000000E+00 -0.00000000000E+00 -0.10000000000E+04  0.10000000000E+04  0.00000000000E+00 0.  1.
    9000005    2    1    2  501    0 -0.31723966607E+02  0.16613626421E+00 -0.31599190648E+03  0.31763419288E+03  0.58444732283E+01 0.  0.
         13    1    3    3    0    0 -0.19379623406E+02  0.18443087411E+01 -0.21419510187E+03  0.21507792295E+03  0.00000000000E+00 0.  1.
          3    1    3    3  501    0 -0.12344343200E+02 -0.16781724769E+01 -0.10179680461E+03  0.10255626993E+03  0.00000000000E+00 0.  1.
         -3    1    1    2    0  502  0.31723966607E+02 -0.16613626421E+00 -0.68281866253E+03  0.68355523811E+03  0.00000000000E+00 0. -1.
<mgrwt>
<rscale>  1 0.30000000E+03</rscale>
<asrwt>0</asrwt>
<pdfrwt beam="1">  1       21 0.43252127E-02 0.30000000E+03</pdfrwt>
<pdfrwt beam="2">0</pdfrwt>
<totfact> 0.36850510E+04</totfact>
</mgrwt>
</event>
<event>
 6    1  0.6377696E-002  0.3000000E+03  0.7818608E-02  0.1093470E+00
         21   -1    0    0  501  502  0.00000000000E+00  0.00000000000E+00  0.15759160957E+01  0.15759160957E+01  0.00000000000E+00 0. -1.
         13   -1    0    0    0    0 -0.00000000000E+00 -0.00000000000E+00 -0.10000000000E+04  0.10000000000E+04  0.00000000000E+00 0.  1.
    9000005    2    1    2  501    0  0.97111596400E+01 -0.38189593195E+02 -0.44851285425E+03  0.45025467385E+03  0.35692082548E+01 0.  0.
         13    1    3    3    0    0  0.62793235420E+01 -0.19202133230E+02 -0.24262143694E+03  0.24346111288E+03  0.00000000000E+00 0.  1.
          1    1    3    3  501    0  0.34318360980E+01 -0.18987459965E+02 -0.20589141731E+03  0.20679356096E+03  0.00000000000E+00 0.  1.
         -3    1    1    2    0  502 -0.97111596400E+01  0.38189593195E+02 -0.54991122966E+03  0.55132124225E+03  0.00000000000E+00 0. -1.
<mgrwt>
<rscale>  1 0.30000000E+03</rscale>
<asrwt>0</asrwt>
<pdfrwt beam="1">  1       21 0.57306161E-02 0.30000000E+03</pdfrwt>
<pdfrwt beam="2">0</pdfrwt>
<totfact> 0.22807158E+04</totfact>
</mgrwt>
</event>
<event>
 6    1  0.6377696E-002  0.3000000E+03  0.7818608E-02  0.1093470E+00
         21   -1    0    0  501  502  0.00000000000E+00  0.00000000000E+00  0.14366009586E+01  0.14366009586E+01  0.00000000000E+00 0. -1.
         13   -1    0    0    0    0 -0.00000000000E+00 -0.00000000000E+00 -0.10000000000E+04  0.10000000000E+04  0.00000000000E+00 0.  1.
    9000005    2    1    2  501    0 -0.16979423201E+01  0.37761656002E+02 -0.48080266801E+03  0.48229789091E+03  0.33502744812E+01 0.  0.
         13    1    3    3    0    0 -0.95554435859E+00  0.16923516213E+02 -0.23681696448E+03  0.23742281510E+03  0.00000000000E+00 0.  1.
          1    1    3    3  501    0 -0.74239796152E+00  0.20838139789E+02 -0.24398570353E+03  0.24487507581E+03  0.00000000000E+00 0.  1.
         -3    1    1    2    0  502  0.16979423201E+01 -0.37761656002E+02 -0.51776073103E+03  0.51913871005E+03  0.00000000000E+00 0. -1.
<mgrwt>
<rscale>  1 0.30000000E+03</rscale>
<asrwt>0</asrwt>
<pdfrwt beam="1">  1       21 0.52240145E-02 0.30000000E+03</pdfrwt>
<pdfrwt beam="2">0</pdfrwt>
<totfact> 0.26728637E+04</totfact>
</mgrwt>
</event>
<event>
 6    1  0.6377696E-002  0.3000000E+03  0.7818608E-02  0.1093470E+00
         21   -1    0    0  501  502  0.00000000000E+00  0.00000000000E+00  0.30620163681E+01  0.30620163681E+01  0.00000000000E+00 0. -1.
         13   -1    0    0    0    0 -0.00000000000E+00 -0.00000000000E+00 -0.10000000000E+04  0.10000000000E+04  0.00000000000E+00 0.  1.
    9000005    2    1    2  501    0  0.76355547836E-01 -0.42759961952E+02 -0.81644791529E+03  0.81757593886E+03  0.38467204528E+01 0.  0.
         13    1    3    3    0    0 -0.11706492053E+01 -0.14088613477E+02 -0.29592932448E+03  0.29626681309E+03  0.00000000000E+00 0.  1.
          3    1    3    3  501    0  0.12470047531E+01 -0.28671348475E+02 -0.52051859080E+03  0.52130912578E+03  0.00000000000E+00 0.  1.
         -3    1    1    2    0  502 -0.76355547836E-01  0.42759961952E+02 -0.18049006835E+03  0.18548607750E+03  0.00000000000E+00 0. -1.
<mgrwt>
<rscale>  1 0.30000000E+03</rscale>
<asrwt>0</asrwt>
<pdfrwt beam="1">  1       21 0.11134628E-01 0.30000000E+03</pdfrwt>
<pdfrwt beam="2">0</pdfrwt>
<totfact> 0.70949483E+03</totfact>
</mgrwt>
</event>
<event>
 6    1  0.6377696E-002  0.3000000E+03  0.7818608E-02  0.1093470E+00
         21   -1    0    0  501  502  0.00000000000E+00  0.00000000000E+00  0.17152533869E+01  0.17152533869E+01  0.00000000000E+00 0. -1.
         13   -1    0    0    0    0 -0.00000000000E+00 -0.00000000000E+00 -0.10000000000E+04  0.10000000000E+04  0.00000000000E+00 0.  1.
    9000005    2    1    2  501    0 -0.24897674732E+02  0.32582358645E+02 -0.43582772359E+03  0.43776542667E+03  0.33555683751E+01 0.  0.
         13    1    3    3    0    0 -0.49642779588E+01  0.63915960770E+01 -0.10111106715E+03  0.10143443427E+03  0.00000000000E+00 0.  1.
          3    1    3    3  501    0 -0.19933396773E+02  0.26190762568E+02 -0.33471665644E+03  0.33633099240E+03  0.00000000000E+00 0.  1.
         -3    1    1    2    0  502  0.24897674732E+02 -0.32582358645E+02 -0.56245702303E+03  0.56394982672E+03  0.00000000000E+00 0. -1.
<mgrwt>
<rscale>  1 0.30000000E+03</rscale>
<asrwt>0</asrwt>
<pdfrwt beam="1">  1       21 0.62372982E-02 0.30000000E+03</pdfrwt>
<pdfrwt beam="2">0</pdfrwt>
<totfact> 0.19707110E+04</totfact>
</mgrwt>
</event>
<event>
 6    1  0.6377696E-002  0.3000000E+03  0.7818608E-02  0.1093470E+00
         21   -1    0    0  501  502  0.00000000000E+00  0.00000000000E+00  0.10159845456E+01  0.10159845456E+01  0.00000000000E+00 0. -1.
         13   -1    0    0    0    0 -0.00000000000E+00 -0.00000000000E+00 -0.10000000000E+04  0.10000000000E+04  0.00000000000E+00 0.  1.
    9000005    2    1    2  501    0 -0.10168275450E+02  0.30046365675E+02 -0.51896393068E+03  0.51994898328E+03  0.41480061942E+01 0.  0.
         13    1    3    3    0    0 -0.85023994493E+01  0.21859876741E+02 -0.35693517382E+03  0.35770499482E+03  0.00000000000E+00 0.  1.
          3    1    3    3  501    0 -0.16658760011E+01  0.81864889333E+01 -0.16202875685E+03  0.16224398846E+03  0.00000000000E+00 0.  1.
         -3    1    1    2    0  502  0.10168275450E+02 -0.30046365675E+02 -0.48002008478E+03  0.48106700127E+03  0.00000000000E+00 0. -1.
<mgrwt>
<rscale>  1 0.30000000E+03</rscale>
<asrwt>0</asrwt>
<pdfrwt beam="1">  1       21 0.36944970E-02 0.30000000E+03</pdfrwt>
<pdfrwt beam="2">0</pdfrwt>
<totfact> 0.48055337E+04</totfact>
</mgrwt>
</event>
<event>
 6    1  0.6377696E-002  0.3000000E+03  0.7818608E-02  0.1093470E+00
         21   -1    0    0  501  502  0.00000000000E+00  0.00000000000E+00  0.96166972524E+00  0.96166972524E+00  0.00000000000E+00 0. -1.
         13   -1    0    0    0    0 -0.00000000000E+00 -0.00000000000E+00 -0.10000000000E+04  0.10000000000E+04  0.00000000000E+00 0.  1.
    9000005    2    1    2  501    0 -0.27817787886E+02  0.13234073952E+02 -0.54390893364E+03  0.54479093665E+03  0.33565641425E+01 0.  0.
         13    1    3    3    0    0 -0.12862428825E+02  0.79702837001E+01 -0.26815319229E+03  0.26857978709E+03  0.00000000000E+00 0.  1.
          3    1    3    3  501    0 -0.14955359061E+02  0.52637902516E+01 -0.27575574134E+03  0.27621114955E+03  0.00000000000E+00 0.  1.
         -3    1    1    2    0  502  0.27817787886E+02 -0.13234073952E+02 -0.45512939664E+03  0.45617073308E+03  0.00000000000E+00 0. -1.
<mgrwt>
<rscale>  1 0.30000000E+03</rscale>
<asrwt>0</asrwt>
<pdfrwt beam="1">  1       21 0.34969882E-02 0.30000000E+03</pdfrwt>
<pdfrwt beam="2">0</pdfrwt>
<totfact> 0.52692708E+04</totfact>
</mgrwt>
</event>
<event>
 6    1  0.6377696E-002  0.3000000E+03  0.7818608E-02  0.1093470E+00
         21   -1    0    0  501  502  0.00000000000E+00  0.00000000000E+00  0.24637417809E+01  0.24637417809E+01  0.00000000000E+00 0. -1.
         13   -1    0    0    0    0 -0.00000000000E+00 -0.00000000000E+00 -0.10000000000E+04  0.10000000000E+04  0.00000000000E+00 0.  1.
    9000005    2    1    2  501    0 -0.43657604629E+02  0.20036204615E+02 -0.37533145640E+03  0.37840745318E+03  0.33260367465E+01 0.  0.
         13    1    3    3    0    0 -0.12827145957E+02  0.70227274113E+01 -0.12320640040E+03  0.12407123548E+03  0.00000000000E+00 0.  1.
          1    1    3    3  501    0 -0.30830458672E+02  0.13013477204E+02 -0.25212505600E+03  0.25433621770E+03  0.00000000000E+00 0.  1.
         -3    1    1    2    0  502  0.43657604629E+02 -0.20036204615E+02 -0.62220480182E+03  0.62405628860E+03  0.00000000000E+00 0. -1.
<mgrwt>
<rscale>  1 0.30000000E+03</rscale>
<asrwt>0</asrwt>
<pdfrwt beam="1">  1       21 0.89590799E-02 0.30000000E+03</pdfrwt>
<pdfrwt beam="2">0</pdfrwt>
<totfact> 0.10462199E+04</totfact>
</mgrwt>
</event>
<event>
 6    1  0.6377696E-002  0.3000000E+03  0.7818608E-02  0.1093470E+00
         21   -1    0    0  501  502  0.00000000000E+00  0.00000000000E+00  0.14239065817E+01  0.14239065817E+01  0.00000000000E+00 0. -1.
         13   -1    0    0    0    0 -0.00000000000E+00 -0.00000000000E+00 -0.10000000000E+04  0.10000000000E+04  0.00000000000E+00 0.  1.
    9000005    2    1    2  501    0  0.31564414915E+02 -0.19709930306E+02 -0.57710578456E+03  0.57831397419E+03  0.33425329117E+01 0.  0.
         13    1    3    3    0    0  0.29998903628E+02 -0.18251493548E+02 -0.53214462001E+03  0.53330192935E+03  0.00000000000E+00 0.  1.
          3    1    3    3  501    0  0.15655112873E+01 -0.14584367586E+01 -0.44961164548E+02  0.45012044842E+02  0.00000000000E+00 0.  1.
         -3    1    1    2    0  502 -0.31564414915E+02  0.19709930306E+02 -0.42147030886E+03  0.42310993239E+03  0.00000000000E+00 0. -1.
<mgrwt>
<rscale>  1 0.30000000E+03</rscale>
<asrwt>0</asrwt>
<pdfrwt beam="1">  1       21 0.51778530E-02 0.30000000E+03</pdfrwt>
<pdfrwt beam="2">0</pdfrwt>
<totfact> 0.27137005E+04</totfact>
</mgrwt>
</event>
<event>
 6    1  0.6377696E-002  0.3000000E+03  0.7818608E-02  0.1093470E+00
         21   -1    0    0  501  502  0.00000000000E+00  0.00000000000E+00  0.11799307516E+01  0.11799307516E+01  0.00000000000E+00 0. -1.
         13   -1    0    0    0    0 -0.00000000000E+00 -0.00000000000E+00 -0.10000000000E+04  0.10000000000E+04  0.00000000000E+00 0.  1.
    9000005    2    1    2  501    0  0.32226066376E+02  0.10198637034E+02 -0.58352094994E+03  0.58450752940E+03  0.31339037721E+01 0.  0.
         13    1    3    3    0    0  0.29570604842E+02  0.84132183883E+01 -0.52649376719E+03  0.52739064251E+03  0.00000000000E+00 0.  1.
          3    1    3    3  501    0  0.26554615336E+01  0.17854186460E+01 -0.57027182748E+02  0.57116886888E+02  0.00000000000E+00 0.  1.
         -1    1    1    2    0  502 -0.32226066376E+02 -0.10198637034E+02 -0.41529911931E+03  0.41667240135E+03  0.00000000000E+00 0. -1.
<mgrwt>
<rscale>  1 0.30000000E+03</rscale>
<asrwt>0</asrwt>
<pdfrwt beam="1">  1       21 0.42906663E-02 0.30000000E+03</pdfrwt>
<pdfrwt beam="2">0</pdfrwt>
<totfact> 0.37353756E+04</totfact>
</mgrwt>
</event>
<event>
 6    1  0.6377696E-002  0.3000000E+03  0.7818608E-02  0.1093470E+00
         21   -1    0    0  501  502  0.00000000000E+00  0.00000000000E+00  0.97628483786E+00  0.97628483786E+00  0.00000000000E+00 0. -1.
         13   -1    0    0    0    0 -0.00000000000E+00 -0.00000000000E+00 -0.10000000000E+04  0.10000000000E+04  0.00000000000E+00 0.  1.
    9000005    2    1    2  501    0  0.14211220154E+02 -0.26844948867E+02 -0.57016042193E+03  0.57103869130E+03  0.89258145089E+01 0.  0.
         13    1    3    3    0    0  0.10040416214E+02 -0.17755318079E+02 -0.45031011235E+03  0.45077184757E+03  0.00000000000E+00 0.  1.
          1    1    3    3  501    0  0.41708039398E+01 -0.90896307880E+01 -0.11985030958E+03  0.12026684373E+03  0.00000000000E+00 0.  1.
         -1    1    1    2    0  502 -0.14211220154E+02  0.26844948867E+02 -0.42886329323E+03  0.42993759354E+03  0.00000000000E+00 0. -1.
<mgrwt>
<rscale>  1 0.30000000E+03</rscale>
<asrwt>0</asrwt>
<pdfrwt beam="1">  1       21 0.35501342E-02 0.30000000E+03</pdfrwt>
<pdfrwt beam="2">0</pdfrwt>
<totfact> 0.51377896E+04</totfact>
</mgrwt>
</event>
<event>
 6    1  0.6377696E-002  0.3000000E+03  0.7818608E-02  0.1093470E+00
         21   -1    0    0  501  502  0.00000000000E+00  0.00000000000E+00  0.12234122424E+01  0.12234122424E+01  0.00000000000E+00 0. -1.
         13   -1    0    0    0    0 -0.00000000000E+00 -0.00000000000E+00 -0.10000000000E+04  0.10000000000E+04  0.00000000000E+00 0.  1.
    9000005    2    1    2  501    0  0.12644813776E+01 -0.30969869996E+02 -0.27252532867E+03  0.27431102200E+03  0.39686601752E+01 0.  0.
         13    1    3    3    0    0  0.10175046224E+01 -0.10527896890E+02 -0.10925542971E+03  0.10976620996E+03  0.00000000000E+00 0.  1.
          1    1    3    3  501    0  0.24697675521E+00 -0.20441973106E+02 -0.16326989896E+03  0.16454481203E+03  0.00000000000E+00 0.  1.
         -3    1    1    2    0  502 -0.12644813776E+01  0.30969869996E+02 -0.72625125909E+03  0.72691239025E+03  0.00000000000E+00 0. -1.
<mgrwt>
<rscale>  1 0.30000000E+03</rscale>
<asrwt>0</asrwt>
<pdfrwt beam="1">  1       21 0.44487812E-02 0.30000000E+03</pdfrwt>
<pdfrwt beam="2">0</pdfrwt>
<totfact> 0.35133768E+04</totfact>
</mgrwt>
</event>
<event>
 6    1  0.6377696E-002  0.3000000E+03  0.7818608E-02  0.1093470E+00
         21   -1    0    0  501  502  0.00000000000E+00  0.00000000000E+00  0.16200720926E+01  0.16200720926E+01  0.00000000000E+00 0. -1.
         13   -1    0    0    0    0 -0.00000000000E+00 -0.00000000000E+00 -0.10000000000E+04  0.10000000000E+04  0.00000000000E+00 0.  1.
    9000005    2    1    2  501    0 -0.22860036068E+02 -0.32993311102E+02 -0.49357551444E+03  0.49522236704E+03  0.41550614268E+01 0.  0.
         13    1    3    3    0    0 -0.96032639906E+01 -0.10394234927E+02 -0.17094586507E+03  0.17153061412E+03  0.00000000000E+00 0.  1.
          3    1    3    3  501    0 -0.13256772077E+02 -0.22599076174E+02 -0.32262964938E+03  0.32369175292E+03  0.00000000000E+00 0.  1.
         -1    1    1    2    0  502  0.22860036068E+02  0.32993311102E+02 -0.50480441347E+03  0.50639770505E+03  0.00000000000E+00 0. -1.
<mgrwt>
<rscale>  1 0.30000000E+03</rscale>
<asrwt>0</asrwt>
<pdfrwt beam="1">  1       21 0.58911837E-02 0.30000000E+03</pdfrwt>
<pdfrwt beam="2">0</pdfrwt>
<totfact> 0.21747167E+04</totfact>
</mgrwt>
</event>
<event>
 6    1  0.6377696E-002  0.3000000E+03  0.7818608E-02  0.1093470E+00
         21   -1    0    0  501  502  0.00000000000E+00  0.00000000000E+00  0.22559999011E+01  0.22559999011E+01  0.00000000000E+00 0. -1.
         13   -1    0    0    0    0 -0.00000000000E+00 -0.00000000000E+00 -0.10000000000E+04  0.10000000000E+04  0.00000000000E+00 0.  1.
    9000005    2    1    2  501    0 -0.46068375962E+02 -0.10902863881E+00 -0.62009302778E+03  0.62180552475E+03  0.21072148800E+01 0.  0.
         13    1    3    3    0    0 -0.37320333720E+02  0.72056488084E+00 -0.49958791295E+03  0.50098044801E+03  0.00000000000E+00 0.  1.
          1    1    3    3  501    0 -0.87480422412E+01 -0.82959351965E+00 -0.12050511483E+03  0.12082507674E+03  0.00000000000E+00 0.  1.
         -1    1    1    2    0  502  0.46068375962E+02  0.10902863881E+00 -0.37765097232E+03  0.38045047515E+03  0.00000000000E+00 0. -1.
<mgrwt>
<rscale>  1 0.30000000E+03</rscale>
<asrwt>0</asrwt>
<pdfrwt beam="1">  1       21 0.82036533E-02 0.30000000E+03</pdfrwt>
<pdfrwt beam="2">0</pdfrwt>
<totfact> 0.12221722E+04</totfact>
</mgrwt>
</event>
<event>
 6    1  0.6377696E-002  0.3000000E+03  0.7818608E-02  0.1093470E+00
         21   -1    0    0  501  502  0.00000000000E+00  0.00000000000E+00  0.14198736197E+01  0.14198736197E+01  0.00000000000E+00 0. -1.
         13   -1    0    0    0    0 -0.00000000000E+00 -0.00000000000E+00 -0.10000000000E+04  0.10000000000E+04  0.00000000000E+00 0.  1.
    9000005    2    1    2  501    0  0.17438771459E+02 -0.31126264940E+02 -0.65723103630E+03  0.65821125424E+03  0.40577100422E+01 0.  0.
         13    1    3    3    0    0  0.97684512897E+01 -0.18566793885E+02 -0.35040629750E+03  0.35103379011E+03  0.00000000000E+00 0.  1.
          1    1    3    3  501    0  0.76703201697E+01 -0.12559471054E+02 -0.30682473881E+03  0.30717746413E+03  0.00000000000E+00 0.  1.
         -1    1    1    2    0  502 -0.17438771459E+02  0.31126264940E+02 -0.34134909008E+03  0.34320861938E+03  0.00000000000E+00 0. -1.
<mgrwt>
<rscale>  1 0.30000000E+03</rscale>
<asrwt>0</asrwt>
<pdfrwt beam="1">  1       21 0.51631877E-02 0.30000000E+03</pdfrwt>
<pdfrwt beam="2">0</pdfrwt>
<totfact> 0.27268771E+04</totfact>
</mgrwt>
</event>
<event>
 6    1  0.6377696E-002  0.3000000E+03  0.7818608E-02  0.1093470E+00
         21   -1    0    0  501  502  0.00000000000E+00  0.00000000000E+00  0.13443293269E+01  0.13443293269E+01  0.00000000000E+00 0. -1.
         13   -1    0    0    0    0 -0.00000000000E+00 -0.00000000000E+00 -0.10000000000E+04  0.10000000000E+04  0.00000000000E+00 0.  1.
    9000005    2    1    2  501    0  0.18268050246E+02  0.31430379770E+02 -0.44373398629E+03  0.44523312980E+03  0.33314947257E+01 0.  0.
         13    1    3    3    0    0  0.13240416063E+02  0.20141648646E+02 -0.30357120951E+03  0.30452663902E+03  0.00000000000E+00 0.  1.
          1    1    3    3  501    0  0.50276341835E+01  0.11288731124E+02 -0.14016277678E+03  0.14070649079E+03  0.00000000000E+00 0.  1.
         -1    1    1    2    0  502 -0.18268050246E+02 -0.31430379770E+02 -0.55492168439E+03  0.55611119952E+03  0.00000000000E+00 0. -1.
<mgrwt>
<rscale>  1 0.30000000E+03</rscale>
<asrwt>0</asrwt>
<pdfrwt beam="1">  1       21 0.48884806E-02 0.30000000E+03</pdfrwt>
<pdfrwt beam="2">0</pdfrwt>
<totfact> 0.29933216E+04</totfact>
</mgrwt>
</event>
<event>
 6    1  0.6377696E-002  0.3000000E+03  0.7818608E-02  0.1093470E+00
         21   -1    0    0  501  502  0.00000000000E+00  0.00000000000E+00  0.16335894801E+01  0.16335894801E+01  0.00000000000E+00 0. -1.
         13   -1    0    0    0    0 -0.00000000000E+00 -0.00000000000E+00 -0.10000000000E+04  0.10000000000E+04  0.00000000000E+00 0.  1.
    9000005    2    1    2  501    0  0.27112395335E+02  0.22326202475E+02 -0.25388349856E+03  0.25632268288E+03  0.33084164781E+01 0.  0.
         13    1    3    3    0    0  0.13065469192E+02  0.89820323625E+01 -0.10768443672E+03  0.10884540092E+03  0.00000000000E+00 0.  1.
          1    1    3    3  501    0  0.14046926144E+02  0.13344170113E+02 -0.14619906184E+03  0.14747728196E+03  0.00000000000E+00 0.  1.
         -3    1    1    2    0  502 -0.27112395335E+02 -0.22326202475E+02 -0.74448291196E+03  0.74531090660E+03  0.00000000000E+00 0. -1.
<mgrwt>
<rscale>  1 0.30000000E+03</rscale>
<asrwt>0</asrwt>
<pdfrwt beam="1">  1       21 0.59403379E-02 0.30000000E+03</pdfrwt>
<pdfrwt beam="2">0</pdfrwt>
<totfact> 0.21437914E+04</totfact>
</mgrwt>
</event>
<event>
 6    1  0.6377696E-002  0.3000000E+03  0.7818608E-02  0.1093470E+00
         21   -1    0    0  501  502  0.00000000000E+00  0.00000000000E+00  0.21506281356E+01  0.21506281356E+01  0.00000000000E+00 0. -1.
         13   -1    0    0    0    0 -0.00000000000E+00 -0.00000000000E+00 -0.10000000000E+04  0.10000000000E+04  0.00000000000E+00 0.  1.
    9000005    2    1    2  501    0  0.39576197868E+02 -0.19516753005E+01 -0.24100708004E+03  0.24427178612E+03  0.37694021897E+01 0.  0.
         13    1    3    3    0    0  0.17556100755E+02 -0.27373954611E+01 -0.10680206155E+03  0.10826998827E+03  0.00000000000E+00 0.  1.
          1    1    3    3  501    0  0.22020097113E+02  0.78572016063E+00 -0.13420501848E+03  0.13600179785E+03  0.00000000000E+00 0.  1.
         -3    1    1    2    0  502 -0.39576197868E+02  0.19516753005E+01 -0.75684229183E+03  0.75787884202E+03  0.00000000000E+00 0. -1.
<mgrwt>
<rscale>  1 0.30000000E+03</rscale>
<asrwt>0</asrwt>
<pdfrwt beam="1">  1       21 0.78204824E-02 0.30000000E+03</pdfrwt>
<pdfrwt beam="2">0</pdfrwt>
<totfact> 0.13293033E+04</totfact>
</mgrwt>
</event>
<event>
 6    1  0.6377696E-002  0.3000000E+03  0.7818608E-02  0.1093470E+00
         21   -1    0    0  501  502  0.00000000000E+00  0.00000000000E+00  0.17819255472E+01  0.17819255472E+01  0.00000000000E+00 0. -1.
         13   -1    0    0    0    0 -0.00000000000E+00 -0.00000000000E+00 -0.10000000000E+04  0.10000000000E+04  0.00000000000E+00 0.  1.
    9000005    2    1    2  501    0 -0.24736996502E+02 -0.29238771225E+02 -0.69917547601E+03  0.70029676767E+03  0.10118883948E+02 0.  0.
         13    1    3    3    0    0 -0.23104883397E+02 -0.21490198407E+02 -0.58108420256E+03  0.58194030169E+03  0.00000000000E+00 0.  1.
          3    1    3    3  501    0 -0.16321131045E+01 -0.77485728185E+01 -0.11809127345E+03  0.11835646598E+03  0.00000000000E+00 0.  1.
         -1    1    1    2    0  502  0.24736996502E+02  0.29238771225E+02 -0.29904259844E+03  0.30148515788E+03  0.00000000000E+00 0. -1.
<mgrwt>
<rscale>  1 0.30000000E+03</rscale>
<asrwt>0</asrwt>
<pdfrwt beam="1">  1       21 0.64797429E-02 0.30000000E+03</pdfrwt>
<pdfrwt beam="2">0</pdfrwt>
<totfact> 0.18449473E+04</totfact>
</mgrwt>
</event>
<event>
 6    1  0.6377696E-002  0.3000000E+03  0.7818608E-02  0.1093470E+00
         21   -1    0    0  501  502  0.00000000000E+00  0.00000000000E+00  0.12076158410E+01  0.12076158410E+01  0.00000000000E+00 0. -1.
         13   -1    0    0    0    0 -0.00000000000E+00 -0.00000000000E+00 -0.10000000000E+04  0.10000000000E+04  0.00000000000E+00 0.  1.
    9000005    2    1    2  501    0  0.36649408068E+01  0.30307785851E+02 -0.73695072127E+03  0.73759227088E+03  0.37414980409E+01 0.  0.
         13    1    3    3    0    0  0.31839039345E+01  0.11265681423E+02 -0.27659765373E+03  0.27684529050E+03  0.00000000000E+00 0.  1.
          3    1    3    3  501    0  0.48103687225E+00  0.19042104429E+02 -0.46035306754E+03  0.46074698038E+03  0.00000000000E+00 0.  1.
         -3    1    1    2    0  502 -0.36649408068E+01 -0.30307785851E+02 -0.26184166288E+03  0.26361534496E+03  0.00000000000E+00 0. -1.
<mgrwt>
<rscale>  1 0.30000000E+03</rscale>
<asrwt>0</asrwt>
<pdfrwt beam="1">  1       21 0.43913396E-02 0.30000000E+03</pdfrwt>
<pdfrwt beam="2">0</pdfrwt>
<totfact> 0.35916065E+04</totfact>
</mgrwt>
</event>
<event>
 6    1  0.6377696E-002  0.3000000E+03  0.7818608E-02  0.1093470E+00
         21   -1    0    0  501  502  0.00000000000E+00  0.00000000000E+00  0.12762023823E+01  0.12762023823E+01  0.00000000000E+00 0. -1.
         13   -1    0    0    0    0 -0.00000000000E+00 -0.00000000000E+00 -0.10000000000E+04  0.10000000000E+04  0.00000000000E+00 0.  1.
    9000005    2    1    2  501    0  0.28460383869E+02 -0.14820143523E+02 -0.71825984134E+03  0.71898263024E+03  0.30319623370E+01 0.  0.
         13    1    3    3    0    0  0.24856053129E+02 -0.12984796642E+02 -0.64790810836E+03  0.64851472242E+03  0.00000000000E+00 0.  1.
          1    1    3    3  501    0  0.36043307400E+01 -0.18353468817E+01 -0.70351732988E+02  0.70467907821E+02  0.00000000000E+00 0.  1.
         -1    1    1    2    0  502 -0.28460383869E+02  0.14820143523E+02 -0.28046395627E+03  0.28229357214E+03  0.00000000000E+00 0. -1.
<mgrwt>
<rscale>  1 0.30000000E+03</rscale>
<asrwt>0</asrwt>
<pdfrwt beam="1">  1       21 0.46407457E-02 0.30000000E+03</pdfrwt>
<pdfrwt beam="2">0</pdfrwt>
<totfact> 0.32702055E+04</totfact>
</mgrwt>
</event>
<event>
 6    1  0.6377696E-002  0.3000000E+03  0.7818608E-02  0.1093470E+00
         21   -1    0    0  501  502  0.00000000000E+00  0.00000000000E+00  0.17840485405E+01  0.17840485405E+01  0.00000000000E+00 0. -1.
         13   -1    0    0    0    0 -0.00000000000E+00 -0.00000000000E+00 -0.10000000000E+04  0.10000000000E+04  0.00000000000E+00 0.  1.
    9000005    2    1    2  501    0 -0.41845735781E+02 -0.51559856337E+01 -0.48851515658E+03  0.49034240955E+03  0.33121904193E+01 0.  0.
         13    1    3    3    0    0 -0.31893542036E+02 -0.25988640373E+01 -0.36364250634E+03  0.36504770173E+03  0.00000000000E+00 0.  1.
          1    1    3    3  501    0 -0.99521937456E+01 -0.25571215964E+01 -0.12487265024E+03  0.12529470782E+03  0.00000000000E+00 0.  1.
         -1    1    1    2    0  502  0.41845735781E+02  0.51559856337E+01 -0.50970079488E+03  0.51144163899E+03  0.00000000000E+00 0. -1.
<mgrwt>
<rscale>  1 0.30000000E+03</rscale>
<asrwt>0</asrwt>
<pdfrwt beam="1">  1       21 0.64874629E-02 0.30000000E+03</pdfrwt>
<pdfrwt beam="2">0</pdfrwt>
<totfact> 0.18411483E+04</totfact>
</mgrwt>
</event>
<event>
 6    1  0.6377696E-002  0.3000000E+03  0.7818608E-02  0.1093470E+00
         21   -1    0    0  501  502  0.00000000000E+00  0.00000000000E+00  0.20545621887E+01  0.20545621887E+01  0.00000000000E+00 0. -1.
         13   -1    0    0    0    0 -0.00000000000E+00 -0.00000000000E+00 -0.10000000000E+04  0.10000000000E+04  0.00000000000E+00 0.  1.
    9000005    2    1    2  501    0 -0.44985768760E+02  0.35689264805E+01 -0.54090784781E+03  0.54279448848E+03  0.28460984435E+01 0.  0.
         13    1    3    3    0    0 -0.27014358246E+02  0.19388857730E+01 -0.30785336797E+03  0.30904244207E+03  0.00000000000E+00 0.  1.
          1    1    3    3  501    0 -0.17971410514E+02  0.16300407075E+01 -0.23305447984E+03  0.23375204642E+03  0.00000000000E+00 0.  1.
         -1    1    1    2    0  502  0.44985768760E+02 -0.35689264805E+01 -0.45703759000E+03  0.45926007371E+03  0.00000000000E+00 0. -1.
<mgrwt>
<rscale>  1 0.30000000E+03</rscale>
<asrwt>0</asrwt>
<pdfrwt beam="1">  1       21 0.74711510E-02 0.30000000E+03</pdfrwt>
<pdfrwt beam="2">0</pdfrwt>
<totfact> 0.14401305E+04</totfact>
</mgrwt>
</event>
<event>
 6    1  0.6377696E-002  0.3000000E+03  0.7818608E-02  0.1093470E+00
         21   -1    0    0  501  502  0.00000000000E+00  0.00000000000E+00  0.12066789601E+01  0.12066789601E+01  0.00000000000E+00 0. -1.
         13   -1    0    0    0    0 -0.00000000000E+00 -0.00000000000E+00 -0.10000000000E+04  0.10000000000E+04  0.00000000000E+00 0.  1.
    9000005    2    1    2  501    0 -0.99312303750E+01  0.31435127227E+02 -0.65598341547E+03  0.65681529127E+03  0.22997629329E+01 0.  0.
         13    1    3    3    0    0 -0.60232551883E+01  0.20730815833E+02 -0.40964529008E+03  0.41021373699E+03  0.00000000000E+00 0.  1.
          3    1    3    3  501    0 -0.39079751867E+01  0.10704311394E+02 -0.24633812539E+03  0.24660155428E+03  0.00000000000E+00 0.  1.
         -3    1    1    2    0  502  0.99312303750E+01 -0.31435127227E+02 -0.34280990557E+03  0.34439138769E+03  0.00000000000E+00 0. -1.
<mgrwt>
<rscale>  1 0.30000000E+03</rscale>
<asrwt>0</asrwt>
<pdfrwt beam="1">  1       21 0.43879327E-02 0.30000000E+03</pdfrwt>
<pdfrwt beam="2">0</pdfrwt>
<totfact> 0.35963307E+04</totfact>
</mgrwt>
</event>
<event>
 6    1  0.6377696E-002  0.3000000E+03  0.7818608E-02  0.1093470E+00
         21   -1    0    0  501  502  0.00000000000E+00  0.00000000000E+00  0.52806846564E+01  0.52806846564E+01  0.00000000000E+00 0. -1.
         13   -1    0    0    0    0 -0.00000000000E+00 -0.00000000000E+00 -0.10000000000E+04  0.10000000000E+04  0.00000000000E+00 0.  1.
    9000005    2    1    2  501    0  0.65972835137E+02  0.24281256444E+02 -0.62395677022E+03  0.62791235099E+03  0.31424555578E+01 0.  0.
         13    1    3    3    0    0  0.10600673133E+02  0.27053436040E+01 -0.98670227879E+02  0.99274906319E+02  0.00000000000E+00 0.  1.
          1    1    3    3  501    0  0.55372162004E+02  0.21575912840E+02 -0.52528654234E+03  0.52863744467E+03  0.00000000000E+00 0.  1.
         -3    1    1    2    0  502 -0.65972835137E+02 -0.24281256444E+02 -0.37076254512E+03  0.37736833367E+03  0.00000000000E+00 0. -1.
<mgrwt>
<rscale>  1 0.30000000E+03</rscale>
<asrwt>0</asrwt>
<pdfrwt beam="1">  1       21 0.19202530E-01 0.30000000E+03</pdfrwt>
<pdfrwt beam="2">0</pdfrwt>
<totfact> 0.25924251E+03</totfact>
</mgrwt>
</event>
<event>
 6    1  0.6377696E-002  0.3000000E+03  0.7818608E-02  0.1093470E+00
         21   -1    0    0  501  502  0.00000000000E+00  0.00000000000E+00  0.16188901924E+01  0.16188901924E+01  0.00000000000E+00 0. -1.
         13   -1    0    0    0    0 -0.00000000000E+00 -0.00000000000E+00 -0.10000000000E+04  0.10000000000E+04  0.00000000000E+00 0.  1.
    9000005    2    1    2  501    0  0.78278076444E+01  0.38159942030E+02 -0.37852492892E+03  0.38053987691E+03  0.34670391910E+01 0.  0.
         13    1    3    3    0    0  0.57790559549E+01  0.19790369831E+02 -0.20346518839E+03  0.20450706372E+03  0.00000000000E+00 0.  1.
          1    1    3    3  501    0  0.20487516895E+01  0.18369572200E+02 -0.17505974052E+03  0.17603281319E+03  0.00000000000E+00 0.  1.
         -3    1    1    2    0  502 -0.78278076444E+01 -0.38159942030E+02 -0.61985618089E+03  0.62107901328E+03  0.00000000000E+00 0. -1.
<mgrwt>
<rscale>  1 0.30000000E+03</rscale>
<asrwt>0</asrwt>
<pdfrwt beam="1">  1       21 0.58868858E-02 0.30000000E+03</pdfrwt>
<pdfrwt beam="2">0</pdfrwt>
<totfact> 0.21774537E+04</totfact>
</mgrwt>
</event>
<event>
 6    1  0.6377696E-002  0.3000000E+03  0.7818608E-02  0.1093470E+00
         21   -1    0    0  501  502  0.00000000000E+00  0.00000000000E+00  0.19199344416E+01  0.19199344416E+01  0.00000000000E+00 0. -1.
         13   -1    0    0    0    0 -0.00000000000E+00 -0.00000000000E+00 -0.10000000000E+04  0.10000000000E+04  0.00000000000E+00 0.  1.
    9000005    2    1    2  501    0 -0.16938326663E+02  0.38200528275E+02 -0.64781390475E+03  0.64916992285E+03  0.35420720817E+01 0.  0.
         13    1    3    3    0    0 -0.13853989468E+02  0.30662687266E+02 -0.49874264594E+03  0.49987634500E+03  0.00000000000E+00 0.  1.
          1    1    3    3  501    0 -0.30843371950E+01  0.75378410092E+01 -0.14907125881E+03  0.14929357784E+03  0.00000000000E+00 0.  1.
         -1    1    1    2    0  502  0.16938326663E+02 -0.38200528275E+02 -0.35026616081E+03  0.35275001160E+03  0.00000000000E+00 0. -1.
<mgrwt>
<rscale>  1 0.30000000E+03</rscale>
<asrwt>0</asrwt>
<pdfrwt beam="1">  1       21 0.69815945E-02 0.30000000E+03</pdfrwt>
<pdfrwt beam="2">0</pdfrwt>
<totfact> 0.16209380E+04</totfact>
</mgrwt>
</event>
<event>
 6    1  0.6377696E-002  0.3000000E+03  0.7818608E-02  0.1093470E+00
         21   -1    0    0  501  502  0.00000000000E+00  0.00000000000E+00  0.22581581645E+01  0.22581581645E+01  0.00000000000E+00 0. -1.
         13   -1    0    0    0    0 -0.00000000000E+00 -0.00000000000E+00 -0.10000000000E+04  0.10000000000E+04  0.00000000000E+00 0.  1.
    9000005    2    1    2  501    0 -0.36351829604E+02  0.16096587337E+02 -0.22631280620E+03  0.22980536824E+03  0.35306348918E+01 0.  0.
         13    1    3    3    0    0 -0.35110356409E+02  0.14897981860E+02 -0.21854861794E+03  0.22185171938E+03  0.00000000000E+00 0.  1.
          1    1    3    3  501    0 -0.12414731946E+01  0.11986054767E+01 -0.77641882609E+01  0.79536488565E+01  0.00000000000E+00 0.  1.
         -3    1    1    2    0  502  0.36351829604E+02 -0.16096587337E+02 -0.77142903564E+03  0.77245278992E+03  0.00000000000E+00 0. -1.
<mgrwt>
<rscale>  1 0.30000000E+03</rscale>
<asrwt>0</asrwt>
<pdfrwt beam="1">  1       21 0.82115016E-02 0.30000000E+03</pdfrwt>
<pdfrwt beam="2">0</pdfrwt>
<totfact> 0.12201181E+04</totfact>
</mgrwt>
</event>
<event>
 6    1  0.6377696E-002  0.3000000E+03  0.7818608E-02  0.1093470E+00
         21   -1    0    0  501  502  0.00000000000E+00  0.00000000000E+00  0.10692111434E+01  0.10692111434E+01  0.00000000000E+00 0. -1.
         13   -1    0    0    0    0 -0.00000000000E+00 -0.00000000000E+00 -0.10000000000E+04  0.10000000000E+04  0.00000000000E+00 0.  1.
    9000005    2    1    2  501    0 -0.19572751419E+02 -0.25775075485E+02 -0.53574605583E+03  0.53675515361E+03  0.59001249961E+01 0.  0.
         13    1    3    3    0    0 -0.59488835961E+01 -0.80009837421E+01 -0.21287978987E+03  0.21311313871E+03  0.00000000000E+00 0.  1.
          3    1    3    3  501    0 -0.13623867823E+02 -0.17774091743E+02 -0.32286626597E+03  0.32364201490E+03  0.00000000000E+00 0.  1.
         -1    1    1    2    0  502  0.19572751419E+02  0.25775075485E+02 -0.46318473302E+03  0.46431405753E+03  0.00000000000E+00 0. -1.
<mgrwt>
<rscale>  1 0.30000000E+03</rscale>
<asrwt>0</asrwt>
<pdfrwt beam="1">  1       21 0.38880487E-02 0.30000000E+03</pdfrwt>
<pdfrwt beam="2">0</pdfrwt>
<totfact> 0.44104746E+04</totfact>
</mgrwt>
</event>
<event>
 6    1  0.6377696E-002  0.3000000E+03  0.7818608E-02  0.1093470E+00
         21   -1    0    0  501  502  0.00000000000E+00  0.00000000000E+00  0.12004555641E+01  0.12004555641E+01  0.00000000000E+00 0. -1.
         13   -1    0    0    0    0 -0.00000000000E+00 -0.00000000000E+00 -0.10000000000E+04  0.10000000000E+04  0.00000000000E+00 0.  1.
    9000005    2    1    2  501    0  0.22727384864E+02  0.21451596492E+02 -0.28591502682E+03  0.28763122944E+03  0.27598139188E+01 0.  0.
         13    1    3    3    0    0  0.18798054950E+02  0.19053422218E+02 -0.24572489447E+03  0.24717832334E+03  0.00000000000E+00 0.  1.
          1    1    3    3  501    0  0.39293299142E+01  0.23981742745E+01 -0.40190132352E+02  0.40452906099E+02  0.00000000000E+00 0.  1.
         -3    1    1    2    0  502 -0.22727384864E+02 -0.21451596492E+02 -0.71288451762E+03  0.71356922613E+03  0.00000000000E+00 0. -1.
<mgrwt>
<rscale>  1 0.30000000E+03</rscale>
<asrwt>0</asrwt>
<pdfrwt beam="1">  1       21 0.43653022E-02 0.30000000E+03</pdfrwt>
<pdfrwt beam="2">0</pdfrwt>
<totfact> 0.36279575E+04</totfact>
</mgrwt>
</event>
<event>
 6    1  0.6377696E-002  0.3000000E+03  0.7818608E-02  0.1093470E+00
         21   -1    0    0  501  502  0.00000000000E+00  0.00000000000E+00  0.78500891747E+01  0.78500891747E+01  0.00000000000E+00 0. -1.
         13   -1    0    0    0    0 -0.00000000000E+00 -0.00000000000E+00 -0.10000000000E+04  0.10000000000E+04  0.00000000000E+00 0.  1.
    9000005    2    1    2  501    0  0.83743724627E+02 -0.28311444885E+02 -0.46497949984E+03  0.47331927478E+03  0.32636290727E+01 0.  0.
         13    1    3    3    0    0  0.98647826159E+01 -0.25909941609E+01 -0.49652842120E+02  0.50689564186E+02  0.00000000000E+00 0.  1.
          1    1    3    3  501    0  0.73878942011E+02 -0.25720450724E+02 -0.41532665772E+03  0.42262971059E+03  0.00000000000E+00 0.  1.
         -1    1    1    2    0  502 -0.83743724627E+02  0.28311444885E+02 -0.52717041098E+03  0.53453081440E+03  0.00000000000E+00 0. -1.
<mgrwt>
<rscale>  1 0.30000000E+03</rscale>
<asrwt>0</asrwt>
<pdfrwt beam="1">  1       21 0.28545839E-01 0.30000000E+03</pdfrwt>
<pdfrwt beam="2">0</pdfrwt>
<totfact> 0.12004988E+03</totfact>
</mgrwt>
</event>
<event>
 6    1  0.6377696E-002  0.3000000E+03  0.7818608E-02  0.1093470E+00
         21   -1    0    0  501  502  0.00000000000E+00  0.00000000000E+00  0.13431972913E+01  0.13431972913E+01  0.00000000000E+00 0. -1.
         13   -1    0    0    0    0 -0.00000000000E+00 -0.00000000000E+00 -0.10000000000E+04  0.10000000000E+04  0.00000000000E+00 0.  1.
    9000005    2    1    2  501    0 -0.21232037831E+02 -0.28632884148E+02 -0.39015671716E+03  0.39179992926E+03  0.37787750476E+01 0.  0.
         13    1    3    3    0    0 -0.23035396195E+01 -0.48344864966E+01 -0.68548975471E+02  0.68757840226E+02  0.00000000000E+00 0.  1.
          3    1    3    3  501    0 -0.18928498212E+02 -0.23798397651E+02 -0.32160774169E+03  0.32304208904E+03  0.00000000000E+00 0.  1.
         -1    1    1    2    0  502  0.21232037831E+02  0.28632884148E+02 -0.60850008555E+03  0.60954326803E+03  0.00000000000E+00 0. -1.
<mgrwt>
<rscale>  1 0.30000000E+03</rscale>
<asrwt>0</asrwt>
<pdfrwt beam="1">  1       21 0.48843641E-02 0.30000000E+03</pdfrwt>
<pdfrwt beam="2">0</pdfrwt>
<totfact> 0.29976188E+04</totfact>
</mgrwt>
</event>
<event>
 6    1  0.6377696E-002  0.3000000E+03  0.7818608E-02  0.1093470E+00
         21   -1    0    0  501  502  0.00000000000E+00  0.00000000000E+00  0.14085796755E+01  0.14085796755E+01  0.00000000000E+00 0. -1.
         13   -1    0    0    0    0 -0.00000000000E+00 -0.00000000000E+00 -0.10000000000E+04  0.10000000000E+04  0.00000000000E+00 0.  1.
    9000005    2    1    2  501    0 -0.26147659259E+02  0.26706187453E+02 -0.46865296008E+03  0.47015375176E+03  0.34688287681E+01 0.  0.
         13    1    3    3    0    0 -0.19353112972E+02  0.17500576794E+02 -0.32350539022E+03  0.32455592842E+03  0.00000000000E+00 0.  1.
          3    1    3    3  501    0 -0.67945462866E+01  0.92056106584E+01 -0.14514756986E+03  0.14559782335E+03  0.00000000000E+00 0.  1.
         -3    1    1    2    0  502  0.26147659259E+02 -0.26706187453E+02 -0.52993846025E+03  0.53125482791E+03  0.00000000000E+00 0. -1.
<mgrwt>
<rscale>  1 0.30000000E+03</rscale>
<asrwt>0</asrwt>
<pdfrwt beam="1">  1       21 0.51221187E-02 0.30000000E+03</pdfrwt>
<pdfrwt beam="2">0</pdfrwt>
<totfact> 0.27643101E+04</totfact>
</mgrwt>
</event>
<event>
 6    1  0.6377696E-002  0.3000000E+03  0.7818608E-02  0.1093470E+00
         21   -1    0    0  501  502  0.00000000000E+00  0.00000000000E+00  0.12617558245E+01  0.12617558245E+01  0.00000000000E+00 0. -1.
         13   -1    0    0    0    0 -0.00000000000E+00 -0.00000000000E+00 -0.10000000000E+04  0.10000000000E+04  0.00000000000E+00 0.  1.
    9000005    2    1    2  501    0 -0.32584383259E+02 -0.11491283834E+02 -0.60961316110E+03  0.61060574100E+03  0.41681080530E+01 0.  0.
         13    1    3    3    0    0 -0.23375141567E+02 -0.98626722514E+01 -0.46303719462E+03  0.46373172540E+03  0.00000000000E+00 0.  1.
          3    1    3    3  501    0 -0.92092416927E+01 -0.16286115821E+01 -0.14657596648E+03  0.14687401560E+03  0.00000000000E+00 0.  1.
         -3    1    1    2    0  502  0.32584383259E+02  0.11491283834E+02 -0.38912508308E+03  0.39065601482E+03  0.00000000000E+00 0. -1.
<mgrwt>
<rscale>  1 0.30000000E+03</rscale>
<asrwt>0</asrwt>
<pdfrwt beam="1">  1       21 0.45882127E-02 0.30000000E+03</pdfrwt>
<pdfrwt beam="2">0</pdfrwt>
<totfact> 0.33340798E+04</totfact>
</mgrwt>
</event>
<event>
 6    1  0.6377696E-002  0.3000000E+03  0.7818608E-02  0.1093470E+00
         21   -1    0    0  501  502  0.00000000000E+00  0.00000000000E+00  0.13366116626E+01  0.13366116626E+01  0.00000000000E+00 0. -1.
         13   -1    0    0    0    0 -0.00000000000E+00 -0.00000000000E+00 -0.10000000000E+04  0.10000000000E+04  0.00000000000E+00 0.  1.
    9000005    2    1    2  501    0 -0.26592024212E+02 -0.24087505460E+02 -0.59168470483E+03  0.59277940330E+03  0.30475207441E+01 0.  0.
         13    1    3    3    0    0 -0.80731793959E+01 -0.56922283008E+01 -0.15217217740E+03  0.15249245641E+03  0.00000000000E+00 0.  1.
          1    1    3    3  501    0 -0.18518844816E+02 -0.18395277159E+02 -0.43951252743E+03  0.44028694689E+03  0.00000000000E+00 0.  1.
         -1    1    1    2    0  502  0.26592024212E+02  0.24087505460E+02 -0.40697868351E+03  0.40855720836E+03  0.00000000000E+00 0. -1.
<mgrwt>
<rscale>  1 0.30000000E+03</rscale>
<asrwt>0</asrwt>
<pdfrwt beam="1">  1       21 0.48604163E-02 0.30000000E+03</pdfrwt>
<pdfrwt beam="2">0</pdfrwt>
<totfact> 0.30228102E+04</totfact>
</mgrwt>
</event>
<event>
 6    1  0.6377696E-002  0.3000000E+03  0.7818608E-02  0.1093470E+00
         21   -1    0    0  501  502  0.00000000000E+00  0.00000000000E+00  0.13725472402E+01  0.13725472402E+01  0.00000000000E+00 0. -1.
         13   -1    0    0    0    0 -0.00000000000E+00 -0.00000000000E+00 -0.10000000000E+04  0.10000000000E+04  0.00000000000E+00 0.  1.
    9000005    2    1    2  501    0  0.13544134005E+02 -0.34209862959E+02 -0.45165182904E+03  0.45316082606E+03  0.34060704129E+01 0.  0.
         13    1    3    3    0    0  0.61745120727E+01 -0.11211624160E+02 -0.15472548004E+03  0.15525398316E+03  0.00000000000E+00 0.  1.
          1    1    3    3  501    0  0.73696219326E+01 -0.22998238799E+02 -0.29692634900E+03  0.29790684290E+03  0.00000000000E+00 0.  1.
         -3    1    1    2    0  502 -0.13544134005E+02  0.34209862959E+02 -0.54697562372E+03  0.54821172118E+03  0.00000000000E+00 0. -1.
<mgrwt>
<rscale>  1 0.30000000E+03</rscale>
<asrwt>0</asrwt>
<pdfrwt beam="1">  1       21 0.49910914E-02 0.30000000E+03</pdfrwt>
<pdfrwt beam="2">0</pdfrwt>
<totfact> 0.28892352E+04</totfact>
</mgrwt>
</event>
<event>
 6    1  0.6377696E-002  0.3000000E+03  0.7818608E-02  0.1093470E+00
         21   -1    0    0  501  502  0.00000000000E+00  0.00000000000E+00  0.13395263925E+01  0.13395263925E+01  0.00000000000E+00 0. -1.
         13   -1    0    0    0    0 -0.00000000000E+00 -0.00000000000E+00 -0.10000000000E+04  0.10000000000E+04  0.00000000000E+00 0.  1.
    9000005    2    1    2  501    0  0.35423759582E+02 -0.74581960664E+01 -0.46637991599E+03  0.46782939580E+03  0.66068222675E+01 0.  0.
         13    1    3    3    0    0  0.32614421743E+02 -0.77235860887E+01 -0.40493270283E+03  0.40631742285E+03  0.00000000000E+00 0.  1.
          1    1    3    3  501    0  0.28093378385E+01  0.26539002235E+00 -0.61447213159E+02  0.61511972949E+02  0.00000000000E+00 0.  1.
         -3    1    1    2    0  502 -0.35423759582E+02  0.74581960664E+01 -0.53228055762E+03  0.53351013059E+03  0.00000000000E+00 0. -1.
<mgrwt>
<rscale>  1 0.30000000E+03</rscale>
<asrwt>0</asrwt>
<pdfrwt beam="1">  1       21 0.48710153E-02 0.30000000E+03</pdfrwt>
<pdfrwt beam="2">0</pdfrwt>
<totfact> 0.30116201E+04</totfact>
</mgrwt>
</event>
<event>
 6    1  0.6377696E-002  0.3000000E+03  0.7818608E-02  0.1093470E+00
         21   -1    0    0  501  502  0.00000000000E+00  0.00000000000E+00  0.20846022948E+01  0.20846022948E+01  0.00000000000E+00 0. -1.
         13   -1    0    0    0    0 -0.00000000000E+00 -0.00000000000E+00 -0.10000000000E+04  0.10000000000E+04  0.00000000000E+00 0.  1.
    9000005    2    1    2  501    0 -0.33398381148E+02 -0.20596082945E+02 -0.24474387821E+03  0.24789166393E+03  0.33257525875E+01 0.  0.
         13    1    3    3    0    0 -0.23548113238E+02 -0.15631080844E+02 -0.16851605271E+03  0.17086984621E+03  0.00000000000E+00 0.  1.
          1    1    3    3  501    0 -0.98502679100E+01 -0.49650021005E+01 -0.76227825500E+02  0.77021817716E+02  0.00000000000E+00 0.  1.
         -3    1    1    2    0  502  0.33398381148E+02  0.20596082945E+02 -0.75317151950E+03  0.75419293837E+03  0.00000000000E+00 0. -1.
<mgrwt>
<rscale>  1 0.30000000E+03</rscale>
<asrwt>0</asrwt>
<pdfrwt beam="1">  1       21 0.75803880E-02 0.30000000E+03</pdfrwt>
<pdfrwt beam="2">0</pdfrwt>
<totfact> 0.14039863E+04</totfact>
</mgrwt>
</event>
<event>
 6    1  0.6377696E-002  0.3000000E+03  0.7818608E-02  0.1093470E+00
         21   -1    0    0  501  502  0.00000000000E+00  0.00000000000E+00  0.15140067107E+01  0.15140067107E+01  0.00000000000E+00 0. -1.
         13   -1    0    0    0    0 -0.00000000000E+00 -0.00000000000E+00 -0.10000000000E+04  0.10000000000E+04  0.00000000000E+00 0.  1.
    9000005    2    1    2  501    0  0.33227057289E+02 -0.18087666637E+02 -0.61404347061E+03  0.61521457070E+03  0.28953719316E+01 0.  0.
         13    1    3    3    0    0  0.12408244905E+02 -0.83518238578E+01 -0.24505384600E+03  0.24550988767E+03  0.00000000000E+00 0.  1.
          1    1    3    3  501    0  0.20818812384E+02 -0.97358427788E+01 -0.36898962461E+03  0.36970468303E+03  0.00000000000E+00 0.  1.
         -1    1    1    2    0  502 -0.33227057289E+02  0.18087666637E+02 -0.38444252268E+03  0.38629943601E+03  0.00000000000E+00 0. -1.
<mgrwt>
<rscale>  1 0.30000000E+03</rscale>
<asrwt>0</asrwt>
<pdfrwt beam="1">  1       21 0.55054906E-02 0.30000000E+03</pdfrwt>
<pdfrwt beam="2">0</pdfrwt>
<totfact> 0.24432311E+04</totfact>
</mgrwt>
</event>
<event>
 6    1  0.6377696E-002  0.3000000E+03  0.7818608E-02  0.1093470E+00
         21   -1    0    0  501  502  0.00000000000E+00  0.00000000000E+00  0.14203815729E+01  0.14203815729E+01  0.00000000000E+00 0. -1.
         13   -1    0    0    0    0 -0.00000000000E+00 -0.00000000000E+00 -0.10000000000E+04  0.10000000000E+04  0.00000000000E+00 0.  1.
    9000005    2    1    2  501    0  0.14605884175E+02 -0.31361542441E+02 -0.30484146758E+03  0.30682013673E+03  0.36602935773E+01 0.  0.
         13    1    3    3    0    0  0.97974308097E+01 -0.18336383266E+02 -0.19478615866E+03  0.19589247103E+03  0.00000000000E+00 0.  1.
          1    1    3    3  501    0  0.48084533653E+01 -0.13025159175E+02 -0.11005530892E+03  0.11092766570E+03  0.00000000000E+00 0.  1.
         -1    1    1    2    0  502 -0.14605884175E+02  0.31361542441E+02 -0.69373815084E+03  0.69460024484E+03  0.00000000000E+00 0. -1.
<mgrwt>
<rscale>  1 0.30000000E+03</rscale>
<asrwt>0</asrwt>
<pdfrwt beam="1">  1       21 0.51650348E-02 0.30000000E+03</pdfrwt>
<pdfrwt beam="2">0</pdfrwt>
<totfact> 0.27252120E+04</totfact>
</mgrwt>
</event>
<event>
 6    1  0.6377696E-002  0.3000000E+03  0.7818608E-02  0.1093470E+00
         21   -1    0    0  501  502  0.00000000000E+00  0.00000000000E+00  0.10713793555E+01  0.10713793555E+01  0.00000000000E+00 0. -1.
         13   -1    0    0    0    0 -0.00000000000E+00 -0.00000000000E+00 -0.10000000000E+04  0.10000000000E+04  0.00000000000E+00 0.  1.
    9000005    2    1    2  501    0  0.18635788766E+02 -0.26795117346E+02 -0.52294636452E+03  0.52397141176E+03  0.28052162054E+01 0.  0.
         13    1    3    3    0    0  0.15091165139E+02 -0.19747834722E+02 -0.38974397329E+03  0.39053563852E+03  0.00000000000E+00 0.  1.
          3    1    3    3  501    0  0.35446236272E+01 -0.70472826242E+01 -0.13320239123E+03  0.13343577324E+03  0.00000000000E+00 0.  1.
         -3    1    1    2    0  502 -0.18635788766E+02  0.26795117346E+02 -0.47598225612E+03  0.47709996760E+03  0.00000000000E+00 0. -1.
<mgrwt>
<rscale>  1 0.30000000E+03</rscale>
<asrwt>0</asrwt>
<pdfrwt beam="1">  1       21 0.38959331E-02 0.30000000E+03</pdfrwt>
<pdfrwt beam="2">0</pdfrwt>
<totfact> 0.43954733E+04</totfact>
</mgrwt>
</event>
<event>
 6    1  0.6377696E-002  0.3000000E+03  0.7818608E-02  0.1093470E+00
         21   -1    0    0  501  502  0.00000000000E+00  0.00000000000E+00  0.10134256792E+01  0.10134256792E+01  0.00000000000E+00 0. -1.
         13   -1    0    0    0    0 -0.00000000000E+00 -0.00000000000E+00 -0.10000000000E+04  0.10000000000E+04  0.00000000000E+00 0.  1.
    9000005    2    1    2  501    0 -0.21512709871E+02  0.22410258152E+02 -0.60393830285E+03  0.60474564608E+03  0.32873160867E+01 0.  0.
         13    1    3    3    0    0 -0.48157633534E+00  0.10854124524E+01 -0.34230800354E+02  0.34251390174E+02  0.00000000000E+00 0.  1.
          3    1    3    3  501    0 -0.21031133536E+02  0.21324845699E+02 -0.56970750250E+03  0.57049425591E+03  0.00000000000E+00 0.  1.
         -3    1    1    2    0  502  0.21512709871E+02 -0.22410258152E+02 -0.39504827147E+03  0.39626777960E+03  0.00000000000E+00 0. -1.
<mgrwt>
<rscale>  1 0.30000000E+03</rscale>
<asrwt>0</asrwt>
<pdfrwt beam="1">  1       21 0.36851921E-02 0.30000000E+03</pdfrwt>
<pdfrwt beam="2">0</pdfrwt>
<totfact> 0.48259153E+04</totfact>
</mgrwt>
</event>
<event>
 6    1  0.6377696E-002  0.3000000E+03  0.7818608E-02  0.1093470E+00
         21   -1    0    0  501  502  0.00000000000E+00  0.00000000000E+00  0.63811430326E+01  0.63811430326E+01  0.00000000000E+00 0. -1.
         13   -1    0    0    0    0 -0.00000000000E+00 -0.00000000000E+00 -0.10000000000E+04  0.10000000000E+04  0.00000000000E+00 0.  1.
    9000005    2    1    2  501    0 -0.81496567238E+01  0.77031053087E+02 -0.37490296570E+03  0.38283519111E+03  0.32171138975E+01 0.  0.
         13    1    3    3    0    0  0.10004380064E+00  0.71671186698E+01 -0.32873884820E+02  0.33646246476E+02  0.00000000000E+00 0.  1.
          1    1    3    3  501    0 -0.82497005244E+01  0.69863934417E+02 -0.34202908088E+03  0.34918894464E+03  0.00000000000E+00 0.  1.
         -3    1    1    2    0  502  0.81496567238E+01 -0.77031053087E+02 -0.61871589127E+03  0.62354595192E+03  0.00000000000E+00 0. -1.
<mgrwt>
<rscale>  1 0.30000000E+03</rscale>
<asrwt>0</asrwt>
<pdfrwt beam="1">  1       21 0.23204205E-01 0.30000000E+03</pdfrwt>
<pdfrwt beam="2">0</pdfrwt>
<totfact> 0.18031560E+03</totfact>
</mgrwt>
</event>
<event>
 6    1  0.6377696E-002  0.3000000E+03  0.7818608E-02  0.1093470E+00
         21   -1    0    0  501  502  0.00000000000E+00  0.00000000000E+00  0.12805557121E+01  0.12805557121E+01  0.00000000000E+00 0. -1.
         13   -1    0    0    0    0 -0.00000000000E+00 -0.00000000000E+00 -0.10000000000E+04  0.10000000000E+04  0.00000000000E+00 0.  1.
    9000005    2    1    2  501    0  0.27554221453E+02 -0.22580102681E+02 -0.53347445006E+03  0.53467365391E+03  0.34396452664E+01 0.  0.
         13    1    3    3    0    0  0.14821594775E+02 -0.12015278777E+02 -0.25995978246E+03  0.26065903992E+03  0.00000000000E+00 0.  1.
          1    1    3    3  501    0  0.12732626678E+02 -0.10564823904E+02 -0.27351466760E+03  0.27401461399E+03  0.00000000000E+00 0.  1.
         -1    1    1    2    0  502 -0.27554221453E+02  0.22580102681E+02 -0.46524499423E+03  0.46660690180E+03  0.00000000000E+00 0. -1.
<mgrwt>
<rscale>  1 0.30000000E+03</rscale>
<asrwt>0</asrwt>
<pdfrwt beam="1">  1       21 0.46565760E-02 0.30000000E+03</pdfrwt>
<pdfrwt beam="2">0</pdfrwt>
<totfact> 0.32513335E+04</totfact>
</mgrwt>
</event>
<event>
 6    1  0.6377696E-002  0.3000000E+03  0.7818608E-02  0.1093470E+00
         21   -1    0    0  501  502  0.00000000000E+00  0.00000000000E+00  0.11810984532E+01  0.11810984532E+01  0.00000000000E+00 0. -1.
         13   -1    0    0    0    0 -0.00000000000E+00 -0.00000000000E+00 -0.10000000000E+04  0.10000000000E+04  0.00000000000E+00 0.  1.
    9000005    2    1    2  501    0  0.15896392937E+02  0.29983316664E+02 -0.42897312558E+03  0.43032568508E+03  0.32493362291E+01 0.  0.
         13    1    3    3    0    0  0.29163693670E+01  0.39281655458E+01 -0.51526651995E+02  0.51758396040E+02  0.00000000000E+00 0.  1.
          1    1    3    3  501    0  0.12980023570E+02  0.26055151118E+02 -0.37744647359E+03  0.37856728904E+03  0.00000000000E+00 0.  1.
         -1    1    1    2    0  502 -0.15896392937E+02 -0.29983316664E+02 -0.56984577597E+03  0.57085541337E+03  0.00000000000E+00 0. -1.
<mgrwt>
<rscale>  1 0.30000000E+03</rscale>
<asrwt>0</asrwt>
<pdfrwt beam="1">  1       21 0.42949125E-02 0.30000000E+03</pdfrwt>
<pdfrwt beam="2">0</pdfrwt>
<totfact> 0.37291328E+04</totfact>
</mgrwt>
</event>
<event>
 6    1  0.6377696E-002  0.3000000E+03  0.7818608E-02  0.1093470E+00
         21   -1    0    0  501  502  0.00000000000E+00  0.00000000000E+00  0.25126678761E+01  0.25126678761E+01  0.00000000000E+00 0. -1.
         13   -1    0    0    0    0 -0.00000000000E+00 -0.00000000000E+00 -0.10000000000E+04  0.10000000000E+04  0.00000000000E+00 0.  1.
    9000005    2    1    2  501    0  0.46556037233E+02 -0.38958172352E+01 -0.67908955339E+03  0.68070560224E+03  0.38540101275E+01 0.  0.
         13    1    3    3    0    0  0.26736672671E+02 -0.32300410382E+00 -0.38748295681E+03  0.38840442301E+03  0.00000000000E+00 0.  1.
          1    1    3    3  501    0  0.19819364562E+02 -0.35728131314E+01 -0.29160659659E+03  0.29230117923E+03  0.00000000000E+00 0.  1.
         -1    1    1    2    0  502 -0.46556037233E+02  0.38958172352E+01 -0.31839777873E+03  0.32180706564E+03  0.00000000000E+00 0. -1.
<mgrwt>
<rscale>  1 0.30000000E+03</rscale>
<asrwt>0</asrwt>
<pdfrwt beam="1">  1       21 0.91369934E-02 0.30000000E+03</pdfrwt>
<pdfrwt beam="2">0</pdfrwt>
<totfact> 0.10103823E+04</totfact>
</mgrwt>
</event>
<event>
 6    1  0.6377696E-002  0.3000000E+03  0.7818608E-02  0.1093470E+00
         21   -1    0    0  501  502  0.00000000000E+00  0.00000000000E+00  0.10886364711E+01  0.10886364711E+01  0.00000000000E+00 0. -1.
         13   -1    0    0    0    0 -0.00000000000E+00 -0.00000000000E+00 -0.10000000000E+04  0.10000000000E+04  0.00000000000E+00 0.  1.
    9000005    2    1    2  501    0 -0.34863350164E+01  0.31782418431E+02 -0.38132295321E+03  0.38267314409E+03  0.30436675031E+01 0.  0.
         13    1    3    3    0    0  0.22197711559E+00  0.11259481190E+02 -0.13488245590E+03  0.13535177169E+03  0.00000000000E+00 0.  1.
          3    1    3    3  501    0 -0.37083121320E+01  0.20522937241E+02 -0.24644049731E+03  0.24732137240E+03  0.00000000000E+00 0.  1.
         -3    1    1    2    0  502  0.34863350164E+01 -0.31782418431E+02 -0.61758841032E+03  0.61841549238E+03  0.00000000000E+00 0. -1.
<mgrwt>
<rscale>  1 0.30000000E+03</rscale>
<asrwt>0</asrwt>
<pdfrwt beam="1">  1       21 0.39586864E-02 0.30000000E+03</pdfrwt>
<pdfrwt beam="2">0</pdfrwt>
<totfact> 0.42788741E+04</totfact>
</mgrwt>
</event>
<event>
 6    1  0.6377696E-002  0.3000000E+03  0.7818608E-02  0.1093470E+00
         21   -1    0    0  501  502  0.00000000000E+00  0.00000000000E+00  0.11694035910E+01  0.11694035910E+01  0.00000000000E+00 0. -1.
         13   -1    0    0    0    0 -0.00000000000E+00 -0.00000000000E+00 -0.10000000000E+04  0.10000000000E+04  0.00000000000E+00 0.  1.
    9000005    2    1    2  501    0  0.24380575442E+02  0.22039388899E+02 -0.63492995236E+03  0.63578765000E+03  0.31215957159E+01 0.  0.
         13    1    3    3    0    0  0.12119320546E+02  0.10281090928E+02 -0.33542862642E+03  0.33580491685E+03  0.00000000000E+00 0.  1.
          3    1    3    3  501    0  0.12261254896E+02  0.11758297970E+02 -0.29950132595E+03  0.29998273315E+03  0.00000000000E+00 0.  1.
         -3    1    1    2    0  502 -0.24380575442E+02 -0.22039388899E+02 -0.36390064404E+03  0.36538175359E+03  0.00000000000E+00 0. -1.
<mgrwt>
<rscale>  1 0.30000000E+03</rscale>
<asrwt>0</asrwt>
<pdfrwt beam="1">  1       21 0.42523857E-02 0.30000000E+03</pdfrwt>
<pdfrwt beam="2">0</pdfrwt>
<totfact> 0.37923962E+04</totfact>
</mgrwt>
</event>
<event>
 6    1  0.6377696E-002  0.3000000E+03  0.7818608E-02  0.1093470E+00
         21   -1    0    0  501  502  0.00000000000E+00  0.00000000000E+00  0.25951702949E+01  0.25951702949E+01  0.00000000000E+00 0. -1.
         13   -1    0    0    0    0 -0.00000000000E+00 -0.00000000000E+00 -0.10000000000E+04  0.10000000000E+04  0.00000000000E+00 0.  1.
    9000005    2    1    2  501    0 -0.39965624344E+02  0.31423475906E+02 -0.51244931743E+03  0.51498207074E+03  0.41885900362E+01 0.  0.
         13    1    3    3    0    0 -0.19679964109E+01  0.28729246751E+01 -0.35909457154E+02  0.36077913176E+02  0.00000000000E+00 0.  1.
          3    1    3    3  501    0 -0.37997627933E+02  0.28550551231E+02 -0.47653986027E+03  0.47890415756E+03  0.00000000000E+00 0.  1.
         -3    1    1    2    0  502  0.39965624344E+02 -0.31423475906E+02 -0.48495551228E+03  0.48761309955E+03  0.00000000000E+00 0. -1.
<mgrwt>
<rscale>  1 0.30000000E+03</rscale>
<asrwt>0</asrwt>
<pdfrwt beam="1">  1       21 0.94370028E-02 0.30000000E+03</pdfrwt>
<pdfrwt beam="2">0</pdfrwt>
<totfact> 0.95400851E+03</totfact>
</mgrwt>
</event>
<event>
 6    1  0.6377696E-002  0.3000000E+03  0.7818608E-02  0.1093470E+00
         21   -1    0    0  501  502  0.00000000000E+00  0.00000000000E+00  0.18705885001E+01  0.18705885001E+01  0.00000000000E+00 0. -1.
         13   -1    0    0    0    0 -0.00000000000E+00 -0.00000000000E+00 -0.10000000000E+04  0.10000000000E+04  0.00000000000E+00 0.  1.
    9000005    2    1    2  501    0  0.30089508607E+02  0.15504594553E+02 -0.18896036997E+03  0.19199386409E+03  0.31387013730E+01 0.  0.
         13    1    3    3    0    0  0.28324223905E+02  0.15338410947E+02 -0.17797743578E+03  0.18086872631E+03  0.00000000000E+00 0.  1.
          1    1    3    3  501    0  0.17652847016E+01  0.16618360528E+00 -0.10982934191E+02  0.11125137775E+02  0.00000000000E+00 0.  1.
         -3    1    1    2    0  502 -0.30089508607E+02 -0.15504594553E+02 -0.80916904152E+03  0.80987672441E+03  0.00000000000E+00 0. -1.
<mgrwt>
<rscale>  1 0.30000000E+03</rscale>
<asrwt>0</asrwt>
<pdfrwt beam="1">  1       21 0.68021543E-02 0.30000000E+03</pdfrwt>
<pdfrwt beam="2">0</pdfrwt>
<totfact> 0.16959864E+04</totfact>
</mgrwt>
</event>
<event>
 6    1  0.6377696E-002  0.3000000E+03  0.7818608E-02  0.1093470E+00
         21   -1    0    0  501  502  0.00000000000E+00  0.00000000000E+00  0.48292431055E+01  0.48292431055E+01  0.00000000000E+00 0. -1.
         13   -1    0    0    0    0 -0.00000000000E+00 -0.00000000000E+00 -0.10000000000E+04  0.10000000000E+04  0.00000000000E+00 0.  1.
    9000005    2    1    2  501    0  0.32707804350E+02  0.60050371157E+02 -0.58566990230E+03  0.58965843795E+03  0.34628660906E+01 0.  0.
         13    1    3    3    0    0  0.63132249619E+01  0.89452566674E+01 -0.94325753987E+02  0.94959055869E+02  0.00000000000E+00 0.  1.
          1    1    3    3  501    0  0.26394579388E+02  0.51105114490E+02 -0.49134414831E+03  0.49469938208E+03  0.00000000000E+00 0.  1.
         -1    1    1    2    0  502 -0.32707804350E+02 -0.60050371157E+02 -0.40950085460E+03  0.41517080516E+03  0.00000000000E+00 0. -1.
<mgrwt>
<rscale>  1 0.30000000E+03</rscale>
<asrwt>0</asrwt>
<pdfrwt beam="1">  1       21 0.17560921E-01 0.30000000E+03</pdfrwt>
<pdfrwt beam="2">0</pdfrwt>
<totfact> 0.30688473E+03</totfact>
</mgrwt>
</event>
<event>
 6    1  0.6377696E-002  0.3000000E+03  0.7818608E-02  0.1093470E+00
         21   -1    0    0  501  502  0.00000000000E+00  0.00000000000E+00  0.14673987395E+01  0.14673987395E+01  0.00000000000E+00 0. -1.
         13   -1    0    0    0    0 -0.00000000000E+00 -0.00000000000E+00 -0.10000000000E+04  0.10000000000E+04  0.00000000000E+00 0.  1.
    9000005    2    1    2  501    0 -0.25163701973E+01  0.34667735190E+02 -0.70861820559E+03  0.70947674684E+03  0.30510694555E+01 0.  0.
         13    1    3    3    0    0 -0.23709888027E+01  0.12820950260E+02 -0.27174508172E+03  0.27205769203E+03  0.00000000000E+00 0.  1.
          3    1    3    3  501    0 -0.14538139450E+00  0.21846784930E+02 -0.43687312387E+03  0.43741905481E+03  0.00000000000E+00 0.  1.
         -3    1    1    2    0  502  0.25163701973E+01 -0.34667735190E+02 -0.28991439567E+03  0.29199065190E+03  0.00000000000E+00 0. -1.
<mgrwt>
<rscale>  1 0.30000000E+03</rscale>
<asrwt>0</asrwt>
<pdfrwt beam="1">  1       21 0.53360067E-02 0.30000000E+03</pdfrwt>
<pdfrwt beam="2">0</pdfrwt>
<totfact> 0.25776567E+04</totfact>
</mgrwt>
</event>
<event>
 6    1  0.6377696E-002  0.3000000E+03  0.7818608E-02  0.1093470E+00
         21   -1    0    0  501  502  0.00000000000E+00  0.00000000000E+00  0.11849806563E+01  0.11849806563E+01  0.00000000000E+00 0. -1.
         13   -1    0    0    0    0 -0.00000000000E+00 -0.00000000000E+00 -0.10000000000E+04  0.10000000000E+04  0.00000000000E+00 0.  1.
    9000005    2    1    2  501    0 -0.32378854275E+02  0.85717454553E+01 -0.61140265328E+03  0.61232741495E+03  0.31294796556E+01 0.  0.
         13    1    3    3    0    0 -0.12197894497E+02  0.47139237366E+01 -0.22845822837E+03  0.22883219139E+03  0.00000000000E+00 0.  1.
          1    1    3    3  501    0 -0.20180959778E+02  0.38578217187E+01 -0.38294442491E+03  0.38349522356E+03  0.00000000000E+00 0.  1.
         -3    1    1    2    0  502  0.32378854275E+02 -0.85717454553E+01 -0.38741236607E+03  0.38885756571E+03  0.00000000000E+00 0. -1.
<mgrwt>
<rscale>  1 0.30000000E+03</rscale>
<asrwt>0</asrwt>
<pdfrwt beam="1">  1       21 0.43090297E-02 0.30000000E+03</pdfrwt>
<pdfrwt beam="2">0</pdfrwt>
<totfact> 0.37084935E+04</totfact>
</mgrwt>
</event>
<event>
 6    1  0.6377696E-002  0.3000000E+03  0.7818608E-02  0.1093470E+00
         21   -1    0    0  501  502  0.00000000000E+00  0.00000000000E+00  0.10171849245E+01  0.10171849245E+01  0.00000000000E+00 0. -1.
         13   -1    0    0    0    0 -0.00000000000E+00 -0.00000000000E+00 -0.10000000000E+04  0.10000000000E+04  0.00000000000E+00 0.  1.
    9000005    2    1    2  501    0 -0.15600812526E+02  0.25672138409E+02 -0.33673064325E+03  0.33808401851E+03  0.32914172746E+01 0.  0.
         13    1    3    3    0    0 -0.15555883968E+02  0.25774203272E+02 -0.33578731657E+03  0.33713412323E+03  0.00000000000E+00 0.  1.
          3    1    3    3  501    0 -0.44928557742E-01 -0.10206486273E+00 -0.94332668083E+00  0.94989527753E+00  0.00000000000E+00 0.  1.
         -1    1    1    2    0  502  0.15600812526E+02 -0.25672138409E+02 -0.66225217183E+03  0.66293316642E+03  0.00000000000E+00 0. -1.
<mgrwt>
<rscale>  1 0.30000000E+03</rscale>
<asrwt>0</asrwt>
<pdfrwt beam="1">  1       21 0.36988621E-02 0.30000000E+03</pdfrwt>
<pdfrwt beam="2">0</pdfrwt>
<totfact> 0.47960193E+04</totfact>
</mgrwt>
</event>
<event>
 6    1  0.6377696E-002  0.3000000E+03  0.7818608E-02  0.1093470E+00
         21   -1    0    0  501  502  0.00000000000E+00  0.00000000000E+00  0.22447230747E+01  0.22447230747E+01  0.00000000000E+00 0. -1.
         13   -1    0    0    0    0 -0.00000000000E+00 -0.00000000000E+00 -0.10000000000E+04  0.10000000000E+04  0.00000000000E+00 0.  1.
    9000005    2    1    2  501    0 -0.34904398467E+02  0.29289780497E+02 -0.36401101489E+03  0.36686452356E+03  0.30580077034E+01 0.  0.
         13    1    3    3    0    0 -0.19909446132E+02  0.15811497904E+02 -0.21382551127E+03  0.21533169479E+03  0.00000000000E+00 0.  1.
          1    1    3    3  501    0 -0.14994952335E+02  0.13478282593E+02 -0.15018550362E+03  0.15153282877E+03  0.00000000000E+00 0.  1.
         -1    1    1    2    0  502  0.34904398467E+02 -0.29289780497E+02 -0.63374426204E+03  0.63538019952E+03  0.00000000000E+00 0. -1.
<mgrwt>
<rscale>  1 0.30000000E+03</rscale>
<asrwt>0</asrwt>
<pdfrwt beam="1">  1       21 0.81626466E-02 0.30000000E+03</pdfrwt>
<pdfrwt beam="2">0</pdfrwt>
<totfact> 0.12329918E+04</totfact>
</mgrwt>
</event>
<event>
 6    1  0.6377696E-002  0.3000000E+03  0.7818608E-02  0.1093470E+00
         21   -1    0    0  501  502  0.00000000000E+00  0.00000000000E+00  0.15525769630E+01  0.15525769630E+01  0.00000000000E+00 0. -1.
         13   -1    0    0    0    0 -0.00000000000E+00 -0.00000000000E+00 -0.10000000000E+04  0.10000000000E+04  0.00000000000E+00 0.  1.
    9000005    2    1    2  501    0  0.27631844114E+02  0.27953953610E+02 -0.48019406310E+03  0.48181082627E+03  0.32236220378E+01 0.  0.
         13    1    3    3    0    0  0.22618250673E+02  0.21074776458E+02 -0.38102700024E+03  0.38227909487E+03  0.00000000000E+00 0.  1.
          3    1    3    3  501    0  0.50135934410E+01  0.68791771529E+01 -0.99167062863E+02  0.99531731395E+02  0.00000000000E+00 0.  1.
         -1    1    1    2    0  502 -0.27631844114E+02 -0.27953953610E+02 -0.51825335994E+03  0.51974175070E+03  0.00000000000E+00 0. -1.
<mgrwt>
<rscale>  1 0.30000000E+03</rscale>
<asrwt>0</asrwt>
<pdfrwt beam="1">  1       21 0.56457463E-02 0.30000000E+03</pdfrwt>
<pdfrwt beam="2">0</pdfrwt>
<totfact> 0.23399776E+04</totfact>
</mgrwt>
</event>
<event>
 6    1  0.6377696E-002  0.3000000E+03  0.7818608E-02  0.1093470E+00
         21   -1    0    0  501  502  0.00000000000E+00  0.00000000000E+00  0.27507644081E+01  0.27507644081E+01  0.00000000000E+00 0. -1.
         13   -1    0    0    0    0 -0.00000000000E+00 -0.00000000000E+00 -0.10000000000E+04  0.10000000000E+04  0.00000000000E+00 0.  1.
    9000005    2    1    2  501    0 -0.25610731144E+02 -0.24256098240E+02 -0.86952590399E+03  0.87024598228E+03  0.29161810257E+01 0.  0.
         13    1    3    3    0    0 -0.22639817868E+02 -0.21917056929E+02 -0.79497037128E+03  0.79559462665E+03  0.00000000000E+00 0.  1.
          1    1    3    3  501    0 -0.29709132757E+01 -0.23390413113E+01 -0.74555532712E+02  0.74651355633E+02  0.00000000000E+00 0.  1.
         -3    1    1    2    0  502  0.25610731144E+02  0.24256098240E+02 -0.12772333160E+03  0.13250478213E+03  0.00000000000E+00 0. -1.
<mgrwt>
<rscale>  1 0.30000000E+03</rscale>
<asrwt>0</asrwt>
<pdfrwt beam="1">  1       21 0.10002801E-01 0.30000000E+03</pdfrwt>
<pdfrwt beam="2">0</pdfrwt>
<totfact> 0.85988938E+03</totfact>
</mgrwt>
</event>
<event>
 6    1  0.6377696E-002  0.3000000E+03  0.7818608E-02  0.1093470E+00
         21   -1    0    0  501  502  0.00000000000E+00  0.00000000000E+00  0.25434563155E+01  0.25434563155E+01  0.00000000000E+00 0. -1.
         13   -1    0    0    0    0 -0.00000000000E+00 -0.00000000000E+00 -0.10000000000E+04  0.10000000000E+04  0.00000000000E+00 0.  1.
    9000005    2    1    2  501    0  0.11317200951E+02  0.46617278086E+02 -0.34821882919E+03  0.35153588372E+03  0.44581260085E+01 0.  0.
         13    1    3    3    0    0  0.20816502456E+01  0.43511459620E+01 -0.28938834710E+02  0.29338062194E+02  0.00000000000E+00 0.  1.
          3    1    3    3  501    0  0.92355507052E+01  0.42266132124E+02 -0.31927999448E+03  0.32219782153E+03  0.00000000000E+00 0.  1.
         -1    1    1    2    0  502 -0.11317200951E+02 -0.46617278086E+02 -0.64923771449E+03  0.65100757259E+03  0.00000000000E+00 0. -1.
<mgrwt>
<rscale>  1 0.30000000E+03</rscale>
<asrwt>0</asrwt>
<pdfrwt beam="1">  1       21 0.92489516E-02 0.30000000E+03</pdfrwt>
<pdfrwt beam="2">0</pdfrwt>
<totfact> 0.98877206E+03</totfact>
</mgrwt>
</event>
<event>
 6    1  0.6377696E-002  0.3000000E+03  0.7818608E-02  0.1093470E+00
         21   -1    0    0  501  502  0.00000000000E+00  0.00000000000E+00  0.58442760864E+01  0.58442760864E+01  0.00000000000E+00 0. -1.
         13   -1    0    0    0    0 -0.00000000000E+00 -0.00000000000E+00 -0.10000000000E+04  0.10000000000E+04  0.00000000000E+00 0.  1.
    9000005    2    1    2  501    0  0.23602805856E+02 -0.69159348897E+02 -0.35188672363E+03  0.35943142294E+03  0.51549536665E+01 0.  0.
         13    1    3    3    0    0  0.23457779380E+02 -0.68109848400E+02 -0.34307504457E+03  0.35055627946E+03  0.00000000000E+00 0.  1.
          3    1    3    3  501    0  0.14502647595E+00 -0.10495004976E+01 -0.88116790530E+01  0.88751434753E+01  0.00000000000E+00 0.  1.
         -1    1    1    2    0  502 -0.23602805856E+02  0.69159348897E+02 -0.64226900029E+03  0.64641285315E+03  0.00000000000E+00 0. -1.
<mgrwt>
<rscale>  1 0.30000000E+03</rscale>
<asrwt>0</asrwt>
<pdfrwt beam="1">  1       21 0.21251958E-01 0.30000000E+03</pdfrwt>
<pdfrwt beam="2">0</pdfrwt>
<totfact> 0.21360008E+03</totfact>
</mgrwt>
</event>
<event>
 6    1  0.6377696E-002  0.3000000E+03  0.7818608E-02  0.1093470E+00
         21   -1    0    0  501  502  0.00000000000E+00  0.00000000000E+00  0.20295761151E+01  0.20295761151E+01  0.00000000000E+00 0. -1.
         13   -1    0    0    0    0 -0.00000000000E+00 -0.00000000000E+00 -0.10000000000E+04  0.10000000000E+04  0.00000000000E+00 0.  1.
    9000005    2    1    2  501    0 -0.38216858747E+02 -0.40540181703E+01 -0.23950485150E+03  0.24259097567E+03  0.32930575133E+01 0.  0.
         13    1    3    3    0    0 -0.37362497820E+02 -0.42181125641E+01 -0.23078750752E+03  0.23383032811E+03  0.00000000000E+00 0.  1.
          3    1    3    3  501    0 -0.85436092659E+00  0.16409439379E+00 -0.87173439848E+01  0.87606475624E+01  0.00000000000E+00 0.  1.
         -3    1    1    2    0  502  0.38216858747E+02  0.40540181703E+01 -0.75846557238E+03  0.75943860045E+03  0.00000000000E+00 0. -1.
<mgrwt>
<rscale>  1 0.30000000E+03</rscale>
<asrwt>0</asrwt>
<pdfrwt beam="1">  1       21 0.73802923E-02 0.30000000E+03</pdfrwt>
<pdfrwt beam="2">0</pdfrwt>
<totfact> 0.14712946E+04</totfact>
</mgrwt>
</event>
<event>
 6    1  0.6377696E-002  0.3000000E+03  0.7818608E-02  0.1093470E+00
         21   -1    0    0  501  502  0.00000000000E+00  0.00000000000E+00  0.10374399780E+01  0.10374399780E+01  0.00000000000E+00 0. -1.
         13   -1    0    0    0    0 -0.00000000000E+00 -0.00000000000E+00 -0.10000000000E+04  0.10000000000E+04  0.00000000000E+00 0.  1.
    9000005    2    1    2  501    0 -0.21103450600E+02 -0.23509547006E+02 -0.40961975520E+03  0.41084849056E+03  0.31755176014E+01 0.  0.
         13    1    3    3    0    0 -0.17637936121E+02 -0.21239368622E+02 -0.35567703089E+03  0.35674691011E+03  0.00000000000E+00 0.  1.
          3    1    3    3  501    0 -0.34655144785E+01 -0.22701783847E+01 -0.53942724317E+02  0.54101580450E+02  0.00000000000E+00 0.  1.
         -3    1    1    2    0  502  0.21103450600E+02  0.23509547006E+02 -0.58934280482E+03  0.59018894942E+03  0.00000000000E+00 0. -1.
<mgrwt>
<rscale>  1 0.30000000E+03</rscale>
<asrwt>0</asrwt>
<pdfrwt beam="1">  1       21 0.37725170E-02 0.30000000E+03</pdfrwt>
<pdfrwt beam="2">0</pdfrwt>
<totfact> 0.46398419E+04</totfact>
</mgrwt>
</event>
<event>
 6    1  0.6377696E-002  0.3000000E+03  0.7818608E-02  0.1093470E+00
         21   -1    0    0  501  502  0.00000000000E+00  0.00000000000E+00  0.71060695443E+01  0.71060695443E+01  0.00000000000E+00 0. -1.
         13   -1    0    0    0    0 -0.00000000000E+00 -0.00000000000E+00 -0.10000000000E+04  0.10000000000E+04  0.00000000000E+00 0.  1.
    9000005    2    1    2  501    0 -0.69856001697E+02  0.41273532540E+02 -0.36069242496E+03  0.36971913133E+03  0.31377034524E+01 0.  0.
         13    1    3    3    0    0 -0.55519000829E+02  0.31435778030E+02 -0.28579087695E+03  0.29282587478E+03  0.00000000000E+00 0.  1.
          1    1    3    3  501    0 -0.14337000868E+02  0.98377545107E+01 -0.74901548018E+02  0.76893256552E+02  0.00000000000E+00 0.  1.
         -3    1    1    2    0  502  0.69856001697E+02 -0.41273532540E+02 -0.63220150549E+03  0.63738693822E+03  0.00000000000E+00 0. -1.
<mgrwt>
<rscale>  1 0.30000000E+03</rscale>
<asrwt>0</asrwt>
<pdfrwt beam="1">  1       21 0.25840307E-01 0.30000000E+03</pdfrwt>
<pdfrwt beam="2">0</pdfrwt>
<totfact> 0.14616265E+03</totfact>
</mgrwt>
</event>
<event>
 6    1  0.6377696E-002  0.3000000E+03  0.7818608E-02  0.1093470E+00
         21   -1    0    0  501  502  0.00000000000E+00  0.00000000000E+00  0.12020033206E+01  0.12020033206E+01  0.00000000000E+00 0. -1.
         13   -1    0    0    0    0 -0.00000000000E+00 -0.00000000000E+00 -0.10000000000E+04  0.10000000000E+04  0.00000000000E+00 0.  1.
    9000005    2    1    2  501    0  0.31508523819E+02 -0.12488333827E+02 -0.40187553018E+03  0.40331808769E+03  0.35766670892E+01 0.  0.
         13    1    3    3    0    0  0.18884448712E+02 -0.77798524820E+01 -0.22123449933E+03  0.22217527361E+03  0.00000000000E+00 0.  1.
          3    1    3    3  501    0  0.12624075107E+02 -0.47084813451E+01 -0.18064103085E+03  0.18114281409E+03  0.00000000000E+00 0.  1.
         -3    1    1    2    0  502 -0.31508523819E+02  0.12488333827E+02 -0.59692246650E+03  0.59788391563E+03  0.00000000000E+00 0. -1.
<mgrwt>
<rscale>  1 0.30000000E+03</rscale>
<asrwt>0</asrwt>
<pdfrwt beam="1">  1       21 0.43709304E-02 0.30000000E+03</pdfrwt>
<pdfrwt beam="2">0</pdfrwt>
<totfact> 0.36200518E+04</totfact>
</mgrwt>
</event>
<event>
 6    1  0.6377696E-002  0.3000000E+03  0.7818608E-02  0.1093470E+00
         21   -1    0    0  501  502  0.00000000000E+00  0.00000000000E+00  0.97610344955E+00  0.97610344955E+00  0.00000000000E+00 0. -1.
         13   -1    0    0    0    0 -0.00000000000E+00 -0.00000000000E+00 -0.10000000000E+04  0.10000000000E+04  0.00000000000E+00 0.  1.
    9000005    2    1    2  501    0 -0.17216151457E+02 -0.25031758011E+02 -0.40026979132E+03  0.40145173921E+03  0.49606749085E+01 0.  0.
         13    1    3    3    0    0 -0.24749774674E+01 -0.26907075877E+01 -0.31398493187E+02  0.31610612067E+02  0.00000000000E+00 0.  1.
          3    1    3    3  501    0 -0.14741173989E+02 -0.22341050423E+02 -0.36887129813E+03  0.36984112714E+03  0.00000000000E+00 0.  1.
         -1    1    1    2    0  502  0.17216151457E+02  0.25031758011E+02 -0.59875410523E+03  0.59952436424E+03  0.00000000000E+00 0. -1.
<mgrwt>
<rscale>  1 0.30000000E+03</rscale>
<asrwt>0</asrwt>
<pdfrwt beam="1">  1       21 0.35494746E-02 0.30000000E+03</pdfrwt>
<pdfrwt beam="2">0</pdfrwt>
<totfact> 0.51393901E+04</totfact>
</mgrwt>
</event>
<event>
 6    1  0.6377696E-002  0.3000000E+03  0.7818608E-02  0.1093470E+00
         21   -1    0    0  501  502  0.00000000000E+00  0.00000000000E+00  0.17299665567E+01  0.17299665567E+01  0.00000000000E+00 0. -1.
         13   -1    0    0    0    0 -0.00000000000E+00 -0.00000000000E+00 -0.10000000000E+04  0.10000000000E+04  0.00000000000E+00 0.  1.
    9000005    2    1    2  501    0  0.10359922414E+02 -0.38715585728E+02 -0.36860839467E+03  0.37079415055E+03  0.31510147922E+01 0.  0.
         13    1    3    3    0    0  0.43874065334E+01 -0.11748508561E+02 -0.10758837735E+03  0.10831683032E+03  0.00000000000E+00 0.  1.
          1    1    3    3  501    0  0.59725158801E+01 -0.26967077167E+02 -0.26102001732E+03  0.26247732023E+03  0.00000000000E+00 0.  1.
         -1    1    1    2    0  502 -0.10359922414E+02  0.38715585728E+02 -0.62966163878E+03  0.63093581600E+03  0.00000000000E+00 0. -1.
<mgrwt>
<rscale>  1 0.30000000E+03</rscale>
<asrwt>0</asrwt>
<pdfrwt beam="1">  1       21 0.62908007E-02 0.30000000E+03</pdfrwt>
<pdfrwt beam="2">0</pdfrwt>
<totfact> 0.19418393E+04</totfact>
</mgrwt>
</event>
<event>
 6    1  0.6377696E-002  0.3000000E+03  0.7818608E-02  0.1093470E+00
         21   -1    0    0  501  502  0.00000000000E+00  0.00000000000E+00  0.10930887080E+01  0.10930887080E+01  0.00000000000E+00 0. -1.
         13   -1    0    0    0    0 -0.00000000000E+00 -0.00000000000E+00 -0.10000000000E+04  0.10000000000E+04  0.00000000000E+00 0.  1.
    9000005    2    1    2  501    0  0.28667187179E+02  0.15232490304E+02 -0.57694368173E+03  0.57788297129E+03  0.55569990483E+01 0.  0.
         13    1    3    3    0    0  0.15150234440E+02  0.11108512737E+02 -0.32014320630E+03  0.32069393695E+03  0.00000000000E+00 0.  1.
          3    1    3    3  501    0  0.13516952740E+02  0.41239775667E+01 -0.25680047543E+03  0.25718903433E+03  0.00000000000E+00 0.  1.
         -3    1    1    2    0  502 -0.28667187179E+02 -0.15232490304E+02 -0.42196322957E+03  0.42321011742E+03  0.00000000000E+00 0. -1.
<mgrwt>
<rscale>  1 0.30000000E+03</rscale>
<asrwt>0</asrwt>
<pdfrwt beam="1">  1       21 0.39748764E-02 0.30000000E+03</pdfrwt>
<pdfrwt beam="2">0</pdfrwt>
<totfact> 0.42495775E+04</totfact>
</mgrwt>
</event>
<event>
 6    1  0.6377696E-002  0.3000000E+03  0.7818608E-02  0.1093470E+00
         21   -1    0    0  501  502  0.00000000000E+00  0.00000000000E+00  0.10224143940E+01  0.10224143940E+01  0.00000000000E+00 0. -1.
         13   -1    0    0    0    0 -0.00000000000E+00 -0.00000000000E+00 -0.10000000000E+04  0.10000000000E+04  0.00000000000E+00 0.  1.
    9000005    2    1    2  501    0 -0.22967912681E+02 -0.20290516731E+02 -0.36273252646E+03  0.36403967886E+03  0.32820648246E+01 0.  0.
         13    1    3    3    0    0 -0.13920314880E+02 -0.14385443560E+02 -0.23600592362E+03  0.23685335576E+03  0.00000000000E+00 0.  1.
          3    1    3    3  501    0 -0.90475978009E+01 -0.59050731710E+01 -0.12672660284E+03  0.12718632310E+03  0.00000000000E+00 0.  1.
         -1    1    1    2    0  502  0.22967912681E+02  0.20290516731E+02 -0.63624505915E+03  0.63698273554E+03  0.00000000000E+00 0. -1.
<mgrwt>
<rscale>  1 0.30000000E+03</rscale>
<asrwt>0</asrwt>
<pdfrwt beam="1">  1       21 0.37178784E-02 0.30000000E+03</pdfrwt>
<pdfrwt beam="2">0</pdfrwt>
<totfact> 0.47549136E+04</totfact>
</mgrwt>
</event>
<event>
 6    1  0.6377696E-002  0.3000000E+03  0.7818608E-02  0.1093470E+00
         21   -1    0    0  501  502  0.00000000000E+00  0.00000000000E+00  0.37488120557E+01  0.37488120557E+01  0.00000000000E+00 0. -1.
         13   -1    0    0    0    0 -0.00000000000E+00 -0.00000000000E+00 -0.10000000000E+04  0.10000000000E+04  0.00000000000E+00 0.  1.
    9000005    2    1    2  501    0  0.10223805874E+02 -0.59311754943E+02 -0.58859085241E+03  0.59166949973E+03  0.33458759793E+01 0.  0.
         13    1    3    3    0    0  0.84229757046E+01 -0.46756575132E+02 -0.47700933772E+03  0.47936941090E+03  0.00000000000E+00 0.  1.
          1    1    3    3  501    0  0.18008301699E+01 -0.12555179811E+02 -0.11158151470E+03  0.11230008883E+03  0.00000000000E+00 0.  1.
         -1    1    1    2    0  502 -0.10223805874E+02  0.59311754943E+02 -0.40766033553E+03  0.41207931232E+03  0.00000000000E+00 0. -1.
<mgrwt>
<rscale>  1 0.30000000E+03</rscale>
<asrwt>0</asrwt>
<pdfrwt beam="1">  1       21 0.13632073E-01 0.30000000E+03</pdfrwt>
<pdfrwt beam="2">0</pdfrwt>
<totfact> 0.49109164E+03</totfact>
</mgrwt>
</event>
<event>
 6    1  0.6377696E-002  0.3000000E+03  0.7818608E-02  0.1093470E+00
         21   -1    0    0  501  502  0.00000000000E+00  0.00000000000E+00  0.12629306822E+01  0.12629306822E+01  0.00000000000E+00 0. -1.
         13   -1    0    0    0    0 -0.00000000000E+00 -0.00000000000E+00 -0.10000000000E+04  0.10000000000E+04  0.00000000000E+00 0.  1.
    9000005    2    1    2  501    0  0.15245876445E+02 -0.30802983962E+02 -0.62267030876E+03  0.62362888962E+03  0.36630578334E+01 0.  0.
         13    1    3    3    0    0  0.10659069527E+02 -0.20981292874E+02 -0.39462848157E+03  0.39532956996E+03  0.00000000000E+00 0.  1.
          3    1    3    3  501    0  0.45868069181E+01 -0.98216910882E+01 -0.22804182719E+03  0.22829931967E+03  0.00000000000E+00 0.  1.
         -1    1    1    2    0  502 -0.15245876445E+02  0.30802983962E+02 -0.37606676056E+03  0.37763404106E+03  0.00000000000E+00 0. -1.
<mgrwt>
<rscale>  1 0.30000000E+03</rscale>
<asrwt>0</asrwt>
<pdfrwt beam="1">  1       21 0.45924849E-02 0.30000000E+03</pdfrwt>
<pdfrwt beam="2">0</pdfrwt>
<totfact> 0.33288124E+04</totfact>
</mgrwt>
</event>
<event>
 6    1  0.6377696E-002  0.3000000E+03  0.7818608E-02  0.1093470E+00
         21   -1    0    0  501  502  0.00000000000E+00  0.00000000000E+00  0.13469551653E+01  0.13469551653E+01  0.00000000000E+00 0. -1.
         13   -1    0    0    0    0 -0.00000000000E+00 -0.00000000000E+00 -0.10000000000E+04  0.10000000000E+04  0.00000000000E+00 0.  1.
    9000005    2    1    2  501    0 -0.24380484122E+02 -0.21959288086E+02 -0.72196350584E+03  0.72271867352E+03  0.37893220381E+01 0.  0.
         13    1    3    3    0    0 -0.18224511481E+02 -0.16622840438E+02 -0.50460583641E+03  0.50520837461E+03  0.00000000000E+00 0.  1.
          1    1    3    3  501    0 -0.61559726410E+01 -0.53364476472E+01 -0.21735766943E+03  0.21751029891E+03  0.00000000000E+00 0.  1.
         -3    1    1    2    0  502  0.24380484122E+02  0.21959288086E+02 -0.27668953900E+03  0.27862828164E+03  0.00000000000E+00 0. -1.
<mgrwt>
<rscale>  1 0.30000000E+03</rscale>
<asrwt>0</asrwt>
<pdfrwt beam="1">  1       21 0.48980291E-02 0.30000000E+03</pdfrwt>
<pdfrwt beam="2">0</pdfrwt>
<totfact> 0.29833908E+04</totfact>
</mgrwt>
</event>
<event>
 6    1  0.6377696E-002  0.3000000E+03  0.7818608E-02  0.1093470E+00
         21   -1    0    0  501  502  0.00000000000E+00  0.00000000000E+00  0.18528232242E+01  0.18528232242E+01  0.00000000000E+00 0. -1.
         13   -1    0    0    0    0 -0.00000000000E+00 -0.00000000000E+00 -0.10000000000E+04  0.10000000000E+04  0.00000000000E+00 0.  1.
    9000005    2    1    2  501    0  0.27415214995E+02 -0.32649692351E+02 -0.44024256503E+03  0.44232163354E+03  0.41611306330E+01 0.  0.
         13    1    3    3    0    0  0.69079918534E+01 -0.69933227977E+01 -0.11845160636E+03  0.11885878161E+03  0.00000000000E+00 0.  1.
          1    1    3    3  501    0  0.20507223142E+02 -0.25656369554E+02 -0.32179095867E+03  0.32346285193E+03  0.00000000000E+00 0.  1.
         -1    1    1    2    0  502 -0.27415214995E+02  0.32649692351E+02 -0.55790461174E+03  0.55953118968E+03  0.00000000000E+00 0. -1.
<mgrwt>
<rscale>  1 0.30000000E+03</rscale>
<asrwt>0</asrwt>
<pdfrwt beam="1">  1       21 0.67375532E-02 0.30000000E+03</pdfrwt>
<pdfrwt beam="2">0</pdfrwt>
<totfact> 0.17243150E+04</totfact>
</mgrwt>
</event>
<event>
 6    1  0.6377696E-002  0.3000000E+03  0.7818608E-02  0.1093470E+00
         21   -1    0    0  501  502  0.00000000000E+00  0.00000000000E+00  0.14738485896E+01  0.14738485896E+01  0.00000000000E+00 0. -1.
         13   -1    0    0    0    0 -0.00000000000E+00 -0.00000000000E+00 -0.10000000000E+04  0.10000000000E+04  0.00000000000E+00 0.  1.
    9000005    2    1    2  501    0  0.21830168067E+02 -0.29791572182E+02 -0.63293800975E+03  0.63402482718E+03  0.35865422799E+01 0.  0.
         13    1    3    3    0    0  0.26863526879E+01 -0.26135856158E+01 -0.50510536268E+02  0.50649398759E+02  0.00000000000E+00 0.  1.
          1    1    3    3  501    0  0.19143815379E+02 -0.27177986567E+02 -0.58242747348E+03  0.58337542842E+03  0.00000000000E+00 0.  1.
         -3    1    1    2    0  502 -0.21830168067E+02  0.29791572182E+02 -0.36558814166E+03  0.36744902141E+03  0.00000000000E+00 0. -1.
<mgrwt>
<rscale>  1 0.30000000E+03</rscale>
<asrwt>0</asrwt>
<pdfrwt beam="1">  1       21 0.53594607E-02 0.30000000E+03</pdfrwt>
<pdfrwt beam="2">0</pdfrwt>
<totfact> 0.25583826E+04</totfact>
</mgrwt>
</event>
<event>
 6    1  0.6377696E-002  0.3000000E+03  0.7818608E-02  0.1093470E+00
         21   -1    0    0  501  502  0.00000000000E+00  0.00000000000E+00  0.15957096866E+01  0.15957096866E+01  0.00000000000E+00 0. -1.
         13   -1    0    0    0    0 -0.00000000000E+00 -0.00000000000E+00 -0.10000000000E+04  0.10000000000E+04  0.00000000000E+00 0.  1.
    9000005    2    1    2  501    0  0.32395823772E+02  0.21354268162E+02 -0.60731422011E+03  0.60858561162E+03  0.63553570171E+01 0.  0.
         13    1    3    3    0    0  0.28505640848E+02  0.16193277538E+02 -0.52013011656E+03  0.52116228945E+03  0.00000000000E+00 0.  1.
          3    1    3    3  501    0  0.38901829234E+01  0.51609906244E+01 -0.87184103550E+02  0.87423322170E+02  0.00000000000E+00 0.  1.
         -1    1    1    2    0  502 -0.32395823772E+02 -0.21354268162E+02 -0.39109007021E+03  0.39301009807E+03  0.00000000000E+00 0. -1.
<mgrwt>
<rscale>  1 0.30000000E+03</rscale>
<asrwt>0</asrwt>
<pdfrwt beam="1">  1       21 0.58025929E-02 0.30000000E+03</pdfrwt>
<pdfrwt beam="2">0</pdfrwt>
<totfact> 0.22322384E+04</totfact>
</mgrwt>
</event>
<event>
 6    1  0.6377696E-002  0.3000000E+03  0.7818608E-02  0.1093470E+00
         21   -1    0    0  501  502  0.00000000000E+00  0.00000000000E+00  0.45227919512E+01  0.45227919512E+01  0.00000000000E+00 0. -1.
         13   -1    0    0    0    0 -0.00000000000E+00 -0.00000000000E+00 -0.10000000000E+04  0.10000000000E+04  0.00000000000E+00 0.  1.
    9000005    2    1    2  501    0  0.53024004756E+02  0.17284587704E+02 -0.21792217810E+03  0.22497027502E+03  0.33536372861E+01 0.  0.
         13    1    3    3    0    0  0.11604623961E+02  0.52242636695E+01 -0.50911390028E+02  0.52477898803E+02  0.00000000000E+00 0.  1.
          3    1    3    3  501    0  0.41419380794E+02  0.12060324034E+02 -0.16701078807E+03  0.17249237622E+03  0.00000000000E+00 0.  1.
         -1    1    1    2    0  502 -0.53024004756E+02 -0.17284587704E+02 -0.77755502995E+03  0.77955251693E+03  0.00000000000E+00 0. -1.
<mgrwt>
<rscale>  1 0.30000000E+03</rscale>
<asrwt>0</asrwt>
<pdfrwt beam="1">  1       21 0.16446551E-01 0.30000000E+03</pdfrwt>
<pdfrwt beam="2">0</pdfrwt>
<totfact> 0.34697984E+03</totfact>
</mgrwt>
</event>
<event>
 6    1  0.6377696E-002  0.3000000E+03  0.7818608E-02  0.1093470E+00
         21   -1    0    0  501  502  0.00000000000E+00  0.00000000000E+00  0.15319023281E+01  0.15319023281E+01  0.00000000000E+00 0. -1.
         13   -1    0    0    0    0 -0.00000000000E+00 -0.00000000000E+00 -0.10000000000E+04  0.10000000000E+04  0.00000000000E+00 0.  1.
    9000005    2    1    2  501    0  0.27893266490E+02 -0.15010111922E+02 -0.79307881455E+03  0.79371444542E+03  0.22971724190E+01 0.  0.
         13    1    3    3    0    0  0.17457374874E+02 -0.10442827134E+02 -0.52323882713E+03  0.52363411157E+03  0.00000000000E+00 0.  1.
          1    1    3    3  501    0  0.10435891616E+02 -0.45672847886E+01 -0.26983998742E+03  0.27008033386E+03  0.00000000000E+00 0.  1.
         -1    1    1    2    0  502 -0.27893266490E+02  0.15010111922E+02 -0.20538928312E+03  0.20781745691E+03  0.00000000000E+00 0. -1.
<mgrwt>
<rscale>  1 0.30000000E+03</rscale>
<asrwt>0</asrwt>
<pdfrwt beam="1">  1       21 0.55705657E-02 0.30000000E+03</pdfrwt>
<pdfrwt beam="2">0</pdfrwt>
<totfact> 0.23944710E+04</totfact>
</mgrwt>
</event>
<event>
 6    1  0.6377696E-002  0.3000000E+03  0.7818608E-02  0.1093470E+00
         21   -1    0    0  501  502  0.00000000000E+00  0.00000000000E+00  0.11271568236E+01  0.11271568236E+01  0.00000000000E+00 0. -1.
         13   -1    0    0    0    0 -0.00000000000E+00 -0.00000000000E+00 -0.10000000000E+04  0.10000000000E+04  0.00000000000E+00 0.  1.
    9000005    2    1    2  501    0  0.11633216742E+02  0.31380156578E+02 -0.52012428865E+03  0.52121026358E+03  0.32889602933E+01 0.  0.
         13    1    3    3    0    0  0.96865877166E+01  0.26805902341E+02 -0.42336529606E+03  0.42432365040E+03  0.00000000000E+00 0.  1.
          1    1    3    3  501    0  0.19466290249E+01  0.45742542365E+01 -0.96758992595E+02  0.96886613184E+02  0.00000000000E+00 0.  1.
         -1    1    1    2    0  502 -0.11633216742E+02 -0.31380156578E+02 -0.47874855453E+03  0.47991689324E+03  0.00000000000E+00 0. -1.
<mgrwt>
<rscale>  1 0.30000000E+03</rscale>
<asrwt>0</asrwt>
<pdfrwt beam="1">  1       21 0.40987607E-02 0.30000000E+03</pdfrwt>
<pdfrwt beam="2">0</pdfrwt>
<totfact> 0.40354201E+04</totfact>
</mgrwt>
</event>
<event>
 6    1  0.6377696E-002  0.3000000E+03  0.7818608E-02  0.1093470E+00
         21   -1    0    0  501  502  0.00000000000E+00  0.00000000000E+00  0.32570851725E+01  0.32570851725E+01  0.00000000000E+00 0. -1.
         13   -1    0    0    0    0 -0.00000000000E+00 -0.00000000000E+00 -0.10000000000E+04  0.10000000000E+04  0.00000000000E+00 0.  1.
    9000005    2    1    2  501    0 -0.33430768190E+02  0.33341212283E+02 -0.22671767434E+03  0.23178568344E+03  0.97183585459E+01 0.  0.
         13    1    3    3    0    0 -0.12708084733E+02  0.96901121322E+01 -0.97227592759E+02  0.98532220539E+02  0.00000000000E+00 0.  1.
          1    1    3    3  501    0 -0.20722683456E+02  0.23651100151E+02 -0.12949008158E+03  0.13325346290E+03  0.00000000000E+00 0.  1.
         -1    1    1    2    0  502  0.33430768190E+02 -0.33341212283E+02 -0.77002524049E+03  0.77147140173E+03  0.00000000000E+00 0. -1.
<mgrwt>
<rscale>  1 0.30000000E+03</rscale>
<asrwt>0</asrwt>
<pdfrwt beam="1">  1       21 0.11843971E-01 0.30000000E+03</pdfrwt>
<pdfrwt beam="2">0</pdfrwt>
<totfact> 0.63459699E+03</totfact>
</mgrwt>
</event>
<event>
 6    1  0.6377696E-002  0.3000000E+03  0.7818608E-02  0.1093470E+00
         21   -1    0    0  501  502  0.00000000000E+00  0.00000000000E+00  0.23281579617E+01  0.23281579617E+01  0.00000000000E+00 0. -1.
         13   -1    0    0    0    0 -0.00000000000E+00 -0.00000000000E+00 -0.10000000000E+04  0.10000000000E+04  0.00000000000E+00 0.  1.
    9000005    2    1    2  501    0 -0.19803672175E+02  0.42532752273E+02 -0.38571392246E+03  0.38857436711E+03  0.36862378742E+01 0.  0.
         13    1    3    3    0    0 -0.77389116292E+01  0.17936686648E+02 -0.17502010981E+03  0.17610694001E+03  0.00000000000E+00 0.  1.
          1    1    3    3  501    0 -0.12064760546E+02  0.24596065625E+02 -0.21069381265E+03  0.21246742711E+03  0.00000000000E+00 0.  1.
         -1    1    1    2    0  502  0.19803672175E+02 -0.42532752273E+02 -0.61195791958E+03  0.61375379085E+03  0.00000000000E+00 0. -1.
<mgrwt>
<rscale>  1 0.30000000E+03</rscale>
<asrwt>0</asrwt>
<pdfrwt beam="1">  1       21 0.84660468E-02 0.30000000E+03</pdfrwt>
<pdfrwt beam="2">0</pdfrwt>
<totfact> 0.11562570E+04</totfact>
</mgrwt>
</event>
<event>
 6    1  0.6377696E-002  0.3000000E+03  0.7818608E-02  0.1093470E+00
         21   -1    0    0  501  502  0.00000000000E+00  0.00000000000E+00  0.17392008066E+01  0.17392008066E+01  0.00000000000E+00 0. -1.
         13   -1    0    0    0    0 -0.00000000000E+00 -0.00000000000E+00 -0.10000000000E+04  0.10000000000E+04  0.00000000000E+00 0.  1.
    9000005    2    1    2  501    0  0.26346892847E+02 -0.31213722766E+02 -0.40281357288E+03  0.40489260864E+03  0.32855420636E+01 0.  0.
         13    1    3    3    0    0  0.25754319071E+02 -0.31087372759E+02 -0.39622629733E+03  0.39827752685E+03  0.00000000000E+00 0.  1.
          1    1    3    3  501    0  0.59257377655E+00 -0.12635000671E+00 -0.65872755474E+01  0.66150817941E+01  0.00000000000E+00 0.  1.
         -1    1    1    2    0  502 -0.26346892847E+02  0.31213722766E+02 -0.59544722632E+03  0.59684659217E+03  0.00000000000E+00 0. -1.
<mgrwt>
<rscale>  1 0.30000000E+03</rscale>
<asrwt>0</asrwt>
<pdfrwt beam="1">  1       21 0.63243799E-02 0.30000000E+03</pdfrwt>
<pdfrwt beam="2">0</pdfrwt>
<totfact> 0.19240522E+04</totfact>
</mgrwt>
</event>
<event>
 6    1  0.6377696E-002  0.3000000E+03  0.7818608E-02  0.1093470E+00
         21   -1    0    0  501  502  0.00000000000E+00  0.00000000000E+00  0.18261915014E+01  0.18261915014E+01  0.00000000000E+00 0. -1.
         13   -1    0    0    0    0 -0.00000000000E+00 -0.00000000000E+00 -0.10000000000E+04  0.10000000000E+04  0.00000000000E+00 0.  1.
    9000005    2    1    2  501    0 -0.34922169602E+02 -0.11999335302E+02 -0.74923996099E+03  0.75016848267E+03  0.53564236383E+01 0.  0.
         13    1    3    3    0    0 -0.84376466658E+01 -0.51366496204E+01 -0.17843340110E+03  0.17870662461E+03  0.00000000000E+00 0.  1.
          1    1    3    3  501    0 -0.26484522936E+02 -0.68626856813E+01 -0.57080655988E+03  0.57146185806E+03  0.00000000000E+00 0.  1.
         -3    1    1    2    0  502  0.34922169602E+02  0.11999335302E+02 -0.24893384751E+03  0.25165770883E+03  0.00000000000E+00 0. -1.
<mgrwt>
<rscale>  1 0.30000000E+03</rscale>
<asrwt>0</asrwt>
<pdfrwt beam="1">  1       21 0.66407104E-02 0.30000000E+03</pdfrwt>
<pdfrwt beam="2">0</pdfrwt>
<totfact> 0.17681644E+04</totfact>
</mgrwt>
</event>
<event>
 6    1  0.6377696E-002  0.3000000E+03  0.7818608E-02  0.1093470E+00
         21   -1    0    0  501  502  0.00000000000E+00  0.00000000000E+00  0.92810606822E+00  0.92810606822E+00  0.00000000000E+00 0. -1.
         13   -1    0    0    0    0 -0.00000000000E+00 -0.00000000000E+00 -0.10000000000E+04  0.10000000000E+04  0.00000000000E+00 0.  1.
    9000005    2    1    2  501    0 -0.29413417203E+02 -0.73707537236E+01 -0.46288453021E+03  0.46388400533E+03  0.26086341131E+01 0.  0.
         13    1    3    3    0    0 -0.65043835903E+00 -0.39863877560E+00 -0.74823778652E+01  0.75211675590E+01  0.00000000000E+00 0.  1.
          1    1    3    3  501    0 -0.28762978844E+02 -0.69721149480E+01 -0.45540215234E+03  0.45636283777E+03  0.00000000000E+00 0.  1.
         -1    1    1    2    0  502  0.29413417203E+02  0.73707537236E+01 -0.53618736372E+03  0.53704410074E+03  0.00000000000E+00 0. -1.
<mgrwt>
<rscale>  1 0.30000000E+03</rscale>
<asrwt>0</asrwt>
<pdfrwt beam="1">  1       21 0.33749383E-02 0.30000000E+03</pdfrwt>
<pdfrwt beam="2">0</pdfrwt>
<totfact> 0.55917944E+04</totfact>
</mgrwt>
</event>
<event>
 6    1  0.6377696E-002  0.3000000E+03  0.7818608E-02  0.1093470E+00
         21   -1    0    0  501  502  0.00000000000E+00  0.00000000000E+00  0.11370194003E+01  0.11370194003E+01  0.00000000000E+00 0. -1.
         13   -1    0    0    0    0 -0.00000000000E+00 -0.00000000000E+00 -0.10000000000E+04  0.10000000000E+04  0.00000000000E+00 0.  1.
    9000005    2    1    2  501    0  0.11366891012E+02 -0.28109303284E+02 -0.28426161672E+03  0.28589269164E+03  0.32596391497E+01 0.  0.
         13    1    3    3    0    0  0.11345709636E+02 -0.28130179983E+02 -0.28124232798E+03  0.28287325642E+03  0.00000000000E+00 0.  1.
          1    1    3    3  501    0  0.21181375534E-01  0.20876699004E-01 -0.30192887470E+01  0.30194352162E+01  0.00000000000E+00 0.  1.
         -1    1    1    2    0  502 -0.11366891012E+02  0.28109303284E+02 -0.71460136388E+03  0.71524432776E+03  0.00000000000E+00 0. -1.
<mgrwt>
<rscale>  1 0.30000000E+03</rscale>
<asrwt>0</asrwt>
<pdfrwt beam="1">  1       21 0.41346247E-02 0.30000000E+03</pdfrwt>
<pdfrwt beam="2">0</pdfrwt>
<totfact> 0.39765581E+04</totfact>
</mgrwt>
</event>
<event>
 6    1  0.6377696E-002  0.3000000E+03  0.7818608E-02  0.1093470E+00
         21   -1    0    0  501  502  0.00000000000E+00  0.00000000000E+00  0.10594931986E+01  0.10594931986E+01  0.00000000000E+00 0. -1.
         13   -1    0    0    0    0 -0.00000000000E+00 -0.00000000000E+00 -0.10000000000E+04  0.10000000000E+04  0.00000000000E+00 0.  1.
    9000005    2    1    2  501    0 -0.54435190246E+01  0.29538286921E+02 -0.33754291650E+03  0.33898025719E+03  0.83816462346E+01 0.  0.
         13    1    3    3    0    0  0.77658604911E+00  0.16245222146E+01 -0.46698235002E+02  0.46732936036E+02  0.00000000000E+00 0.  1.
          1    1    3    3  501    0 -0.62201050737E+01  0.27913764706E+02 -0.29084468150E+03  0.29224732116E+03  0.00000000000E+00 0.  1.
         -3    1    1    2    0  502  0.54435190246E+01 -0.29538286921E+02 -0.66139759030E+03  0.66207923601E+03  0.00000000000E+00 0. -1.
<mgrwt>
<rscale>  1 0.30000000E+03</rscale>
<asrwt>0</asrwt>
<pdfrwt beam="1">  1       21 0.38527107E-02 0.30000000E+03</pdfrwt>
<pdfrwt beam="2">0</pdfrwt>
<totfact> 0.44787076E+04</totfact>
</mgrwt>
</event>
<event>
 6    1  0.6377696E-002  0.3000000E+03  0.7818608E-02  0.1093470E+00
         21   -1    0    0  501  502  0.00000000000E+00  0.00000000000E+00  0.13807221730E+01  0.13807221730E+01  0.00000000000E+00 0. -1.
         13   -1    0    0    0    0 -0.00000000000E+00 -0.00000000000E+00 -0.10000000000E+04  0.10000000000E+04  0.00000000000E+00 0.  1.
    9000005    2    1    2  501    0  0.30384302062E+02  0.10400494591E+02 -0.75019518551E+03  0.75088939350E+03  0.32693731427E+01 0.  0.
         13    1    3    3    0    0  0.18893659697E+02  0.61035081895E+01 -0.49890892673E+03  0.49930385575E+03  0.00000000000E+00 0.  1.
          3    1    3    3  501    0  0.11490642365E+02  0.42969864013E+01 -0.25128625878E+03  0.25158553775E+03  0.00000000000E+00 0.  1.
         -3    1    1    2    0  502 -0.30384302062E+02 -0.10400494591E+02 -0.24842409232E+03  0.25049132868E+03  0.00000000000E+00 0. -1.
<mgrwt>
<rscale>  1 0.30000000E+03</rscale>
<asrwt>0</asrwt>
<pdfrwt beam="1">  1       21 0.50208185E-02 0.30000000E+03</pdfrwt>
<pdfrwt beam="2">0</pdfrwt>
<totfact> 0.28601326E+04</totfact>
</mgrwt>
</event>
<event>
 6    1  0.6377696E-002  0.3000000E+03  0.7818608E-02  0.1093470E+00
         21   -1    0    0  501  502  0.00000000000E+00  0.00000000000E+00  0.11193732904E+01  0.11193732904E+01  0.00000000000E+00 0. -1.
         13   -1    0    0    0    0 -0.00000000000E+00 -0.00000000000E+00 -0.10000000000E+04  0.10000000000E+04  0.00000000000E+00 0.  1.
    9000005    2    1    2  501    0  0.14382800713E+02  0.29841896575E+02 -0.43191012675E+03  0.43318191936E+03  0.16774765225E+01 0.  0.
         13    1    3    3    0    0  0.45176748297E+01  0.98765130967E+01 -0.13188155995E+03  0.13232800442E+03  0.00000000000E+00 0.  1.
          3    1    3    3  501    0  0.98651258828E+01  0.19965383479E+02 -0.30002856679E+03  0.30085391495E+03  0.00000000000E+00 0.  1.
         -1    1    1    2    0  502 -0.14382800713E+02 -0.29841896575E+02 -0.56697049996E+03  0.56793745393E+03  0.00000000000E+00 0. -1.
<mgrwt>
<rscale>  1 0.30000000E+03</rscale>
<asrwt>0</asrwt>
<pdfrwt beam="1">  1       21 0.40704569E-02 0.30000000E+03</pdfrwt>
<pdfrwt beam="2">0</pdfrwt>
<totfact> 0.40828393E+04</totfact>
</mgrwt>
</event>
<event>
 6    1  0.6377696E-002  0.3000000E+03  0.7818608E-02  0.1093470E+00
         21   -1    0    0  501  502  0.00000000000E+00  0.00000000000E+00  0.22357655568E+01  0.22357655568E+01  0.00000000000E+00 0. -1.
         13   -1    0    0    0    0 -0.00000000000E+00 -0.00000000000E+00 -0.10000000000E+04  0.10000000000E+04  0.00000000000E+00 0.  1.
    9000005    2    1    2  501    0 -0.40851329497E+02 -0.18717721108E+02 -0.65352370797E+03  0.65507481690E+03  0.32549429600E+01 0.  0.
         13    1    3    3    0    0 -0.33632217559E+02 -0.16615281299E+02 -0.55173809939E+03  0.55301186601E+03  0.00000000000E+00 0.  1.
          3    1    3    3  501    0 -0.72191119381E+01 -0.21024398089E+01 -0.10178560859E+03  0.10206295090E+03  0.00000000000E+00 0.  1.
         -1    1    1    2    0  502  0.40851329497E+02  0.18717721108E+02 -0.34424052647E+03  0.34716094866E+03  0.00000000000E+00 0. -1.
<mgrwt>
<rscale>  1 0.30000000E+03</rscale>
<asrwt>0</asrwt>
<pdfrwt beam="1">  1       21 0.81300737E-02 0.30000000E+03</pdfrwt>
<pdfrwt beam="2">0</pdfrwt>
<totfact> 0.12416911E+04</totfact>
</mgrwt>
</event>
<event>
 6    1  0.6377696E-002  0.3000000E+03  0.7818608E-02  0.1093470E+00
         21   -1    0    0  501  502  0.00000000000E+00  0.00000000000E+00  0.20572954335E+01  0.20572954335E+01  0.00000000000E+00 0. -1.
         13   -1    0    0    0    0 -0.00000000000E+00 -0.00000000000E+00 -0.10000000000E+04  0.10000000000E+04  0.00000000000E+00 0.  1.
    9000005    2    1    2  501    0  0.12024219457E+02 -0.35777669007E+02 -0.77637333527E+03  0.77729606910E+03  0.29999774391E+01 0.  0.
         13    1    3    3    0    0  0.31811490786E+01 -0.13981495660E+02 -0.29849506265E+03  0.29883926174E+03  0.00000000000E+00 0.  1.
          3    1    3    3  501    0  0.88430703782E+01 -0.21796173347E+02 -0.47787827262E+03  0.47845680736E+03  0.00000000000E+00 0.  1.
         -1    1    1    2    0  502 -0.12024219457E+02  0.35777669007E+02 -0.22156936930E+03  0.22476122634E+03  0.00000000000E+00 0. -1.
<mgrwt>
<rscale>  1 0.30000000E+03</rscale>
<asrwt>0</asrwt>
<pdfrwt beam="1">  1       21 0.74810901E-02 0.30000000E+03</pdfrwt>
<pdfrwt beam="2">0</pdfrwt>
<totfact> 0.14367826E+04</totfact>
</mgrwt>
</event>
<event>
 6    1  0.6377696E-002  0.3000000E+03  0.7818608E-02  0.1093470E+00
         21   -1    0    0  501  502  0.00000000000E+00  0.00000000000E+00  0.18479572117E+01  0.18479572117E+01  0.00000000000E+00 0. -1.
         13   -1    0    0    0    0 -0.00000000000E+00 -0.00000000000E+00 -0.10000000000E+04  0.10000000000E+04  0.00000000000E+00 0.  1.
    9000005    2    1    2  501    0 -0.38150687789E+02 -0.19130786501E+02 -0.44764112224E+03  0.44968517721E+03  0.35668355087E+01 0.  0.
         13    1    3    3    0    0 -0.30768101049E+02 -0.15298043833E+02 -0.37427035649E+03  0.37584439058E+03  0.00000000000E+00 0.  1.
          3    1    3    3  501    0 -0.73825867393E+01 -0.38327426682E+01 -0.73370765751E+02  0.73840786630E+02  0.00000000000E+00 0.  1.
         -3    1    1    2    0  502  0.38150687789E+02  0.19130786501E+02 -0.55051092055E+03  0.55216278000E+03  0.00000000000E+00 0. -1.
<mgrwt>
<rscale>  1 0.30000000E+03</rscale>
<asrwt>0</asrwt>
<pdfrwt beam="1">  1       21 0.67198586E-02 0.30000000E+03</pdfrwt>
<pdfrwt beam="2">0</pdfrwt>
<totfact> 0.17322012E+04</totfact>
</mgrwt>
</event>
<event>
 6    1  0.6377696E-002  0.3000000E+03  0.7818608E-02  0.1093470E+00
         21   -1    0    0  501  502  0.00000000000E+00  0.00000000000E+00  0.24387677192E+01  0.24387677192E+01  0.00000000000E+00 0. -1.
         13   -1    0    0    0    0 -0.00000000000E+00 -0.00000000000E+00 -0.10000000000E+04  0.10000000000E+04  0.00000000000E+00 0.  1.
    9000005    2    1    2  501    0  0.34873447042E+02  0.29413440966E+02 -0.31620322671E+03  0.31955514690E+03  0.70500719730E+01 0.  0.
         13    1    3    3    0    0  0.11758737696E+01  0.17083770805E+01 -0.27078649136E+02  0.27157954091E+02  0.00000000000E+00 0.  1.
          1    1    3    3  501    0  0.33697573273E+02  0.27705063886E+02 -0.28912457757E+03  0.29239719281E+03  0.00000000000E+00 0.  1.
         -1    1    1    2    0  502 -0.34873447042E+02 -0.29413440966E+02 -0.68135800557E+03  0.68288362081E+03  0.00000000000E+00 0. -1.
<mgrwt>
<rscale>  1 0.30000000E+03</rscale>
<asrwt>0</asrwt>
<pdfrwt beam="1">  1       21 0.88682650E-02 0.30000000E+03</pdfrwt>
<pdfrwt beam="2">0</pdfrwt>
<totfact> 0.10652593E+04</totfact>
</mgrwt>
</event>
<event>
 6    1  0.6377696E-002  0.3000000E+03  0.7818608E-02  0.1093470E+00
         21   -1    0    0  501  502  0.00000000000E+00  0.00000000000E+00  0.11604526595E+01  0.11604526595E+01  0.00000000000E+00 0. -1.
         13   -1    0    0    0    0 -0.00000000000E+00 -0.00000000000E+00 -0.10000000000E+04  0.10000000000E+04  0.00000000000E+00 0.  1.
    9000005    2    1    2  501    0 -0.26773878270E+02  0.15054803440E+02 -0.71461040581E+03  0.71527639826E+03  0.29675163194E+01 0.  0.
         13    1    3    3    0    0 -0.18816159202E+02  0.92929249059E+01 -0.50505767113E+03  0.50549347916E+03  0.00000000000E+00 0.  1.
          1    1    3    3  501    0 -0.79577190676E+01  0.57618785341E+01 -0.20955273467E+03  0.20978291910E+03  0.00000000000E+00 0.  1.
         -1    1    1    2    0  502  0.26773878270E+02 -0.15054803440E+02 -0.28422914153E+03  0.28588405440E+03  0.00000000000E+00 0. -1.
<mgrwt>
<rscale>  1 0.30000000E+03</rscale>
<asrwt>0</asrwt>
<pdfrwt beam="1">  1       21 0.42198368E-02 0.30000000E+03</pdfrwt>
<pdfrwt beam="2">0</pdfrwt>
<totfact> 0.38419500E+04</totfact>
</mgrwt>
</event>
<event>
 6    1  0.6377696E-002  0.3000000E+03  0.7818608E-02  0.1093470E+00
         21   -1    0    0  501  502  0.00000000000E+00  0.00000000000E+00  0.31560454179E+01  0.31560454179E+01  0.00000000000E+00 0. -1.
         13   -1    0    0    0    0 -0.00000000000E+00 -0.00000000000E+00 -0.10000000000E+04  0.10000000000E+04  0.00000000000E+00 0.  1.
    9000005    2    1    2  501    0 -0.49622218933E+02 -0.18909367503E+02 -0.66112287756E+03  0.66326110526E+03  0.34504666681E+01 0.  0.
         13    1    3    3    0    0 -0.18786733905E+02 -0.87090930250E+01 -0.26814356897E+03  0.26894193287E+03  0.00000000000E+00 0.  1.
          1    1    3    3  501    0 -0.30835485028E+02 -0.10200274478E+02 -0.39297930859E+03  0.39431917239E+03  0.00000000000E+00 0.  1.
         -3    1    1    2    0  502  0.49622218933E+02  0.18909367503E+02 -0.33572107702E+03  0.33989494016E+03  0.00000000000E+00 0. -1.
<mgrwt>
<rscale>  1 0.30000000E+03</rscale>
<asrwt>0</asrwt>
<pdfrwt beam="1">  1       21 0.11476553E-01 0.30000000E+03</pdfrwt>
<pdfrwt beam="2">0</pdfrwt>
<totfact> 0.67182767E+03</totfact>
</mgrwt>
</event>
<event>
 6    1  0.6377696E-002  0.3000000E+03  0.7818608E-02  0.1093470E+00
         21   -1    0    0  501  502  0.00000000000E+00  0.00000000000E+00  0.15438428482E+01  0.15438428482E+01  0.00000000000E+00 0. -1.
         13   -1    0    0    0    0 -0.00000000000E+00 -0.00000000000E+00 -0.10000000000E+04  0.10000000000E+04  0.00000000000E+00 0.  1.
    9000005    2    1    2  501    0 -0.31279867206E+02 -0.22467708674E+02 -0.59430629421E+03  0.59556312934E+03  0.34988090943E+01 0.  0.
         13    1    3    3    0    0 -0.79197337945E+01 -0.68183394496E+01 -0.14241484325E+03  0.14279775739E+03  0.00000000000E+00 0.  1.
          1    1    3    3  501    0 -0.23360133411E+02 -0.15649369224E+02 -0.45189145096E+03  0.45276537195E+03  0.00000000000E+00 0.  1.
         -1    1    1    2    0  502  0.31279867206E+02  0.22467708674E+02 -0.40414986294E+03  0.40598071351E+03  0.00000000000E+00 0. -1.
<mgrwt>
<rscale>  1 0.30000000E+03</rscale>
<asrwt>0</asrwt>
<pdfrwt beam="1">  1       21 0.56139858E-02 0.30000000E+03</pdfrwt>
<pdfrwt beam="2">0</pdfrwt>
<totfact> 0.23627639E+04</totfact>
</mgrwt>
</event>
<event>
 6    1  0.6377696E-002  0.3000000E+03  0.7818608E-02  0.1093470E+00
         21   -1    0    0  501  502  0.00000000000E+00  0.00000000000E+00  0.12854222367E+01  0.12854222367E+01  0.00000000000E+00 0. -1.
         13   -1    0    0    0    0 -0.00000000000E+00 -0.00000000000E+00 -0.10000000000E+04  0.10000000000E+04  0.00000000000E+00 0.  1.
    9000005    2    1    2  501    0 -0.24703264506E+02  0.18081527214E+02 -0.24165764819E+03  0.24360977427E+03  0.31796679887E+01 0.  0.
         13    1    3    3    0    0 -0.12877431989E+02  0.11382156095E+02 -0.13486133615E+03  0.13595205670E+03  0.00000000000E+00 0.  1.
          3    1    3    3  501    0 -0.11825832517E+02  0.66993711193E+01 -0.10679631204E+03  0.10765771757E+03  0.00000000000E+00 0.  1.
         -3    1    1    2    0  502  0.24703264506E+02 -0.18081527214E+02 -0.75705692957E+03  0.75767564796E+03  0.00000000000E+00 0. -1.
<mgrwt>
<rscale>  1 0.30000000E+03</rscale>
<asrwt>0</asrwt>
<pdfrwt beam="1">  1       21 0.46742725E-02 0.30000000E+03</pdfrwt>
<pdfrwt beam="2">0</pdfrwt>
<totfact> 0.32304381E+04</totfact>
</mgrwt>
</event>
<event>
 6    1  0.6377696E-002  0.3000000E+03  0.7818608E-02  0.1093470E+00
         21   -1    0    0  501  502  0.00000000000E+00  0.00000000000E+00  0.13894298511E+01  0.13894298511E+01  0.00000000000E+00 0. -1.
         13   -1    0    0    0    0 -0.00000000000E+00 -0.00000000000E+00 -0.10000000000E+04  0.10000000000E+04  0.00000000000E+00 0.  1.
    9000005    2    1    2  501    0  0.34364265943E+02  0.94463616486E+01 -0.35740397276E+03  0.35919316931E+03  0.34636122493E+01 0.  0.
         13    1    3    3    0    0  0.29118712818E+02  0.72767994682E+01 -0.31037387670E+03  0.31182173527E+03  0.00000000000E+00 0.  1.
          3    1    3    3  501    0  0.52455531246E+01  0.21695621804E+01 -0.47030096060E+02  0.47371434040E+02  0.00000000000E+00 0.  1.
         -3    1    1    2    0  502 -0.34364265943E+02 -0.94463616486E+01 -0.64120659739E+03  0.64219626054E+03  0.00000000000E+00 0. -1.
<mgrwt>
<rscale>  1 0.30000000E+03</rscale>
<asrwt>0</asrwt>
<pdfrwt beam="1">  1       21 0.50524828E-02 0.30000000E+03</pdfrwt>
<pdfrwt beam="2">0</pdfrwt>
<totfact> 0.28296323E+04</totfact>
</mgrwt>
</event>
<event>
 6    1  0.6377696E-002  0.3000000E+03  0.7818608E-02  0.1093470E+00
         21   -1    0    0  501  502  0.00000000000E+00  0.00000000000E+00  0.22365691093E+01  0.22365691093E+01  0.00000000000E+00 0. -1.
         13   -1    0    0    0    0 -0.00000000000E+00 -0.00000000000E+00 -0.10000000000E+04  0.10000000000E+04  0.00000000000E+00 0.  1.
    9000005    2    1    2  501    0  0.40723602725E+02 -0.10594090112E+02 -0.72557308207E+03  0.72681283637E+03  0.54731275755E+01 0.  0.
         13    1    3    3    0    0  0.26651099085E+02 -0.56145005454E+01 -0.50651086700E+03  0.50724260673E+03  0.00000000000E+00 0.  1.
          1    1    3    3  501    0  0.14072503639E+02 -0.49795895669E+01 -0.21906221507E+03  0.21957022964E+03  0.00000000000E+00 0.  1.
         -1    1    1    2    0  502 -0.40723602725E+02  0.10594090112E+02 -0.27219034882E+03  0.27542373274E+03  0.00000000000E+00 0. -1.
<mgrwt>
<rscale>  1 0.30000000E+03</rscale>
<asrwt>0</asrwt>
<pdfrwt beam="1">  1       21 0.81329957E-02 0.30000000E+03</pdfrwt>
<pdfrwt beam="2">0</pdfrwt>
<totfact> 0.12409068E+04</totfact>
</mgrwt>
</event>
<event>
 6    1  0.6377696E-002  0.3000000E+03  0.7818608E-02  0.1093470E+00
         21   -1    0    0  501  502  0.00000000000E+00  0.00000000000E+00  0.10083201329E+01  0.10083201329E+01  0.00000000000E+00 0. -1.
         13   -1    0    0    0    0 -0.00000000000E+00 -0.00000000000E+00 -0.10000000000E+04  0.10000000000E+04  0.00000000000E+00 0.  1.
    9000005    2    1    2  501    0  0.79052582326E+01 -0.29622340574E+02 -0.62507487194E+03  0.62583668551E+03  0.36035040228E+01 0.  0.
         13    1    3    3    0    0  0.24009051752E-01 -0.18756331879E+00 -0.96336434708E+00  0.98174706434E+00  0.00000000000E+00 0.  1.
          1    1    3    3  501    0  0.78812491809E+01 -0.29434777255E+02 -0.62411150759E+03  0.62485493845E+03  0.00000000000E+00 0.  1.
         -1    1    1    2    0  502 -0.79052582326E+01  0.29622340574E+02 -0.37391680793E+03  0.37517163462E+03  0.00000000000E+00 0. -1.
<mgrwt>
<rscale>  1 0.30000000E+03</rscale>
<asrwt>0</asrwt>
<pdfrwt beam="1">  1       21 0.36666264E-02 0.30000000E+03</pdfrwt>
<pdfrwt beam="2">0</pdfrwt>
<totfact> 0.48669907E+04</totfact>
</mgrwt>
</event>
<event>
 6    1  0.6377696E-002  0.3000000E+03  0.7818608E-02  0.1093470E+00
         21   -1    0    0  501  502  0.00000000000E+00  0.00000000000E+00  0.10065317077E+01  0.10065317077E+01  0.00000000000E+00 0. -1.
         13   -1    0    0    0    0 -0.00000000000E+00 -0.00000000000E+00 -0.10000000000E+04  0.10000000000E+04  0.00000000000E+00 0.  1.
    9000005    2    1    2  501    0  0.19441460337E+02  0.23333468308E+02 -0.36077948382E+03  0.36207029772E+03  0.32624260978E+01 0.  0.
         13    1    3    3    0    0  0.81778881875E+01  0.91776451951E+01 -0.12797783508E+03  0.12856684370E+03  0.00000000000E+00 0.  1.
          3    1    3    3  501    0  0.11263572150E+02  0.14155823113E+02 -0.23280164873E+03  0.23350345402E+03  0.00000000000E+00 0.  1.
         -1    1    1    2    0  502 -0.19441460337E+02 -0.23333468308E+02 -0.63821398448E+03  0.63893623399E+03  0.00000000000E+00 0. -1.
<mgrwt>
<rscale>  1 0.30000000E+03</rscale>
<asrwt>0</asrwt>
<pdfrwt beam="1">  1       21 0.36601230E-02 0.30000000E+03</pdfrwt>
<pdfrwt beam="2">0</pdfrwt>
<totfact> 0.48815094E+04</totfact>
</mgrwt>
</event>
<event>
 6    1  0.6377696E-002  0.3000000E+03  0.7818608E-02  0.1093470E+00
         21   -1    0    0  501  502  0.00000000000E+00  0.00000000000E+00  0.94521208135E+00  0.94521208135E+00  0.00000000000E+00 0. -1.
         13   -1    0    0    0    0 -0.00000000000E+00 -0.00000000000E+00 -0.10000000000E+04  0.10000000000E+04  0.00000000000E+00 0.  1.
    9000005    2    1    2  501    0  0.22730010123E+02  0.20400234808E+02 -0.45389233872E+03  0.45492788731E+03  0.28817630020E+01 0.  0.
         13    1    3    3    0    0  0.15726216297E+02  0.15089916130E+02 -0.33893798133E+03  0.33963800529E+03  0.00000000000E+00 0.  1.
          3    1    3    3  501    0  0.70037938265E+01  0.53103186776E+01 -0.11495435739E+03  0.11528988202E+03  0.00000000000E+00 0.  1.
         -3    1    1    2    0  502 -0.22730010123E+02 -0.20400234808E+02 -0.54516244920E+03  0.54601732478E+03  0.00000000000E+00 0. -1.
<mgrwt>
<rscale>  1 0.30000000E+03</rscale>
<asrwt>0</asrwt>
<pdfrwt beam="1">  1       21 0.34371421E-02 0.30000000E+03</pdfrwt>
<pdfrwt beam="2">0</pdfrwt>
<totfact> 0.54236914E+04</totfact>
</mgrwt>
</event>
<event>
 6    1  0.6377696E-002  0.3000000E+03  0.7818608E-02  0.1093470E+00
         21   -1    0    0  501  502  0.00000000000E+00  0.00000000000E+00  0.10584896778E+01  0.10584896778E+01  0.00000000000E+00 0. -1.
         13   -1    0    0    0    0 -0.00000000000E+00 -0.00000000000E+00 -0.10000000000E+04  0.10000000000E+04  0.00000000000E+00 0.  1.
    9000005    2    1    2  501    0  0.18539914258E+02 -0.26542441906E+02 -0.53797524094E+03  0.53895662737E+03  0.29422228463E+01 0.  0.
         13    1    3    3    0    0  0.17108532774E+02 -0.24733511082E+02 -0.48535183108E+03  0.48628268363E+03  0.00000000000E+00 0.  1.
          1    1    3    3  501    0  0.14313814838E+01 -0.18089308238E+01 -0.52623409857E+02  0.52673943736E+02  0.00000000000E+00 0.  1.
         -3    1    1    2    0  502 -0.18539914258E+02  0.26542441906E+02 -0.46096626938E+03  0.46210186231E+03  0.00000000000E+00 0. -1.
<mgrwt>
<rscale>  1 0.30000000E+03</rscale>
<asrwt>0</asrwt>
<pdfrwt beam="1">  1       21 0.38490615E-02 0.30000000E+03</pdfrwt>
<pdfrwt beam="2">0</pdfrwt>
<totfact> 0.44858479E+04</totfact>
</mgrwt>
</event>
<event>
 6    1  0.6377696E-002  0.3000000E+03  0.7818608E-02  0.1093470E+00
         21   -1    0    0  501  502  0.00000000000E+00  0.00000000000E+00  0.10188425877E+02  0.10188425877E+02  0.00000000000E+00 0. -1.
         13   -1    0    0    0    0 -0.00000000000E+00 -0.00000000000E+00 -0.10000000000E+04  0.10000000000E+04  0.00000000000E+00 0.  1.
    9000005    2    1    2  501    0 -0.22251592244E+02  0.81065872966E+02 -0.21577047654E+03  0.23159583031E+03  0.35945731320E+01 0.  0.
         13    1    3    3    0    0 -0.17769189489E+02  0.66605982034E+02 -0.17325725267E+03  0.18646762867E+03  0.00000000000E+00 0.  1.
          1    1    3    3  501    0 -0.44824027550E+01  0.14459890932E+02 -0.42513223866E+02  0.45128201645E+02  0.00000000000E+00 0.  1.
         -3    1    1    2    0  502  0.22251592244E+02 -0.81065872966E+02 -0.77404109759E+03  0.77859259557E+03  0.00000000000E+00 0. -1.
<mgrwt>
<rscale>  1 0.30000000E+03</rscale>
<asrwt>0</asrwt>
<pdfrwt beam="1">  1       21 0.37048899E-01 0.30000000E+03</pdfrwt>
<pdfrwt beam="2">0</pdfrwt>
<totfact> 0.70807133E+02</totfact>
</mgrwt>
</event>
<event>
 6    1  0.6377696E-002  0.3000000E+03  0.7818608E-02  0.1093470E+00
         21   -1    0    0  501  502  0.00000000000E+00  0.00000000000E+00  0.12458264959E+01  0.12458264959E+01  0.00000000000E+00 0. -1.
         13   -1    0    0    0    0 -0.00000000000E+00 -0.00000000000E+00 -0.10000000000E+04  0.10000000000E+04  0.00000000000E+00 0.  1.
    9000005    2    1    2  501    0 -0.34039925234E+02  0.75805734824E+01 -0.42587314052E+03  0.42730431418E+03  0.22053339530E+01 0.  0.
         13    1    3    3    0    0 -0.16462229417E+02  0.26693305663E+01 -0.19703452012E+03  0.19773905138E+03  0.00000000000E+00 0.  1.
          1    1    3    3  501    0 -0.17577695817E+02  0.49112429162E+01 -0.22883862040E+03  0.22956526280E+03  0.00000000000E+00 0.  1.
         -3    1    1    2    0  502  0.34039925234E+02 -0.75805734824E+01 -0.57288103299E+03  0.57394151232E+03  0.00000000000E+00 0. -1.
<mgrwt>
<rscale>  1 0.30000000E+03</rscale>
<asrwt>0</asrwt>
<pdfrwt beam="1">  1       21 0.45302877E-02 0.30000000E+03</pdfrwt>
<pdfrwt beam="2">0</pdfrwt>
<totfact> 0.34068073E+04</totfact>
</mgrwt>
</event>
<event>
 6    1  0.6377696E-002  0.3000000E+03  0.7818608E-02  0.1093470E+00
         21   -1    0    0  501  502  0.00000000000E+00  0.00000000000E+00  0.16701158480E+01  0.16701158480E+01  0.00000000000E+00 0. -1.
         13   -1    0    0    0    0 -0.00000000000E+00 -0.00000000000E+00 -0.10000000000E+04  0.10000000000E+04  0.00000000000E+00 0.  1.
    9000005    2    1    2  501    0  0.27867732941E+02  0.28952726552E+02 -0.58472414333E+03  0.58611677420E+03  0.39595822290E+01 0.  0.
         13    1    3    3    0    0  0.16642704228E+02  0.19132864762E+02 -0.38843044663E+03  0.38925731591E+03  0.00000000000E+00 0.  1.
          3    1    3    3  501    0  0.11225028713E+02  0.98198617894E+01 -0.19629369670E+03  0.19685945830E+03  0.00000000000E+00 0.  1.
         -1    1    1    2    0  502 -0.27867732941E+02 -0.28952726552E+02 -0.41360574082E+03  0.41555334164E+03  0.00000000000E+00 0. -1.
<mgrwt>
<rscale>  1 0.30000000E+03</rscale>
<asrwt>0</asrwt>
<pdfrwt beam="1">  1       21 0.60731613E-02 0.30000000E+03</pdfrwt>
<pdfrwt beam="2">0</pdfrwt>
<totfact> 0.20635684E+04</totfact>
</mgrwt>
</event>
<event>
 6    1  0.6377696E-002  0.3000000E+03  0.7818608E-02  0.1093470E+00
         21   -1    0    0  501  502  0.00000000000E+00  0.00000000000E+00  0.94912062295E+00  0.94912062295E+00  0.00000000000E+00 0. -1.
         13   -1    0    0    0    0 -0.00000000000E+00 -0.00000000000E+00 -0.10000000000E+04  0.10000000000E+04  0.00000000000E+00 0.  1.
    9000005    2    1    2  501    0 -0.22288733590E+02  0.20504482189E+02 -0.58330721826E+03  0.58410380975E+03  0.35676686250E+01 0.  0.
         13    1    3    3    0    0 -0.88328685205E+01  0.10474636428E+02 -0.26988262428E+03  0.27023021382E+03  0.00000000000E+00 0.  1.
          3    1    3    3  501    0 -0.13455865069E+02  0.10029845761E+02 -0.31342459398E+03  0.31387359594E+03  0.00000000000E+00 0.  1.
         -1    1    1    2    0  502  0.22288733590E+02 -0.20504482189E+02 -0.41574366112E+03  0.41684531087E+03  0.00000000000E+00 0. -1.
<mgrwt>
<rscale>  1 0.30000000E+03</rscale>
<asrwt>0</asrwt>
<pdfrwt beam="1">  1       21 0.34513550E-02 0.30000000E+03</pdfrwt>
<pdfrwt beam="2">0</pdfrwt>
<totfact> 0.53863862E+04</totfact>
</mgrwt>
</event>
<event>
 6    1  0.6377696E-002  0.3000000E+03  0.7818608E-02  0.1093470E+00
         21   -1    0    0  501  502  0.00000000000E+00  0.00000000000E+00  0.15161706027E+01  0.15161706027E+01  0.00000000000E+00 0. -1.
         13   -1    0    0    0    0 -0.00000000000E+00 -0.00000000000E+00 -0.10000000000E+04  0.10000000000E+04  0.00000000000E+00 0.  1.
    9000005    2    1    2  501    0 -0.61682721928E+01 -0.36823565529E+02 -0.36025598296E+03  0.36219715279E+03  0.28951123690E+01 0.  0.
         13    1    3    3    0    0 -0.13334103324E+01 -0.14592531467E+02 -0.13259407763E+03  0.13340130951E+03  0.00000000000E+00 0.  1.
          1    1    3    3  501    0 -0.48348618605E+01 -0.22231034062E+02 -0.22766190533E+03  0.22879584328E+03  0.00000000000E+00 0.  1.
         -3    1    1    2    0  502  0.61682721928E+01  0.36823565529E+02 -0.63822784644E+03  0.63931901781E+03  0.00000000000E+00 0. -1.
<mgrwt>
<rscale>  1 0.30000000E+03</rscale>
<asrwt>0</asrwt>
<pdfrwt beam="1">  1       21 0.55133593E-02 0.30000000E+03</pdfrwt>
<pdfrwt beam="2">0</pdfrwt>
<totfact> 0.24372543E+04</totfact>
</mgrwt>
</event>
<event>
 6    1  0.6377696E-002  0.3000000E+03  0.7818608E-02  0.1093470E+00
         21   -1    0    0  501  502  0.00000000000E+00  0.00000000000E+00  0.24714332705E+01  0.24714332705E+01  0.00000000000E+00 0. -1.
         13   -1    0    0    0    0 -0.00000000000E+00 -0.00000000000E+00 -0.10000000000E+04  0.10000000000E+04  0.00000000000E+00 0.  1.
    9000005    2    1    2  501    0 -0.30574489517E+02  0.36301459361E+02 -0.64583488932E+03  0.64758970918E+03  0.41390598976E+01 0.  0.
         13    1    3    3    0    0 -0.26808509432E+02  0.31330644448E+02 -0.57786317320E+03  0.57933250591E+03  0.00000000000E+00 0.  1.
          1    1    3    3  501    0 -0.37659800850E+01  0.49708149128E+01 -0.67971716117E+02  0.68257203274E+02  0.00000000000E+00 0.  1.
         -3    1    1    2    0  502  0.30574489517E+02 -0.36301459361E+02 -0.35169367741E+03  0.35488172409E+03  0.00000000000E+00 0. -1.
<mgrwt>
<rscale>  1 0.30000000E+03</rscale>
<asrwt>0</asrwt>
<pdfrwt beam="1">  1       21 0.89870490E-02 0.30000000E+03</pdfrwt>
<pdfrwt beam="2">0</pdfrwt>
<totfact> 0.10404599E+04</totfact>
</mgrwt>
</event>
<event>
 6    1  0.6377696E-002  0.3000000E+03  0.7818608E-02  0.1093470E+00
         21   -1    0    0  501  502  0.00000000000E+00  0.00000000000E+00  0.21609241283E+01  0.21609241283E+01  0.00000000000E+00 0. -1.
         13   -1    0    0    0    0 -0.00000000000E+00 -0.00000000000E+00 -0.10000000000E+04  0.10000000000E+04  0.00000000000E+00 0.  1.
    9000005    2    1    2  501    0  0.45192090325E+01 -0.43462108802E+02 -0.33081648618E+03  0.33370859725E+03  0.35358446520E+01 0.  0.
         13    1    3    3    0    0 -0.39822617493E+00 -0.66981583018E+01 -0.45875344610E+02  0.46363467858E+02  0.00000000000E+00 0.  1.
          1    1    3    3  501    0  0.49174352074E+01 -0.36763950501E+02 -0.28494114157E+03  0.28734512940E+03  0.00000000000E+00 0.  1.
         -1    1    1    2    0  502 -0.45192090325E+01  0.43462108802E+02 -0.66702258969E+03  0.66845232688E+03  0.00000000000E+00 0. -1.
<mgrwt>
<rscale>  1 0.30000000E+03</rscale>
<asrwt>0</asrwt>
<pdfrwt beam="1">  1       21 0.78579225E-02 0.30000000E+03</pdfrwt>
<pdfrwt beam="2">0</pdfrwt>
<totfact> 0.13182108E+04</totfact>
</mgrwt>
</event>
<event>
 6    1  0.6377696E-002  0.3000000E+03  0.7818608E-02  0.1093470E+00
         21   -1    0    0  501  502  0.00000000000E+00  0.00000000000E+00  0.10115531608E+02  0.10115531608E+02  0.00000000000E+00 0. -1.
         13   -1    0    0    0    0 -0.00000000000E+00 -0.00000000000E+00 -0.10000000000E+04  0.10000000000E+04  0.00000000000E+00 0.  1.
    9000005    2    1    2  501    0  0.49900184838E+02 -0.80697986020E+02 -0.66226708994E+03  0.66903586341E+03  0.30157449106E+01 0.  0.
         13    1    3    3    0    0  0.18850646909E+02 -0.30962387882E+02 -0.24292051187E+03  0.24561024294E+03  0.00000000000E+00 0.  1.
          3    1    3    3  501    0  0.31049537929E+02 -0.49735598138E+02 -0.41934657807E+03  0.42342562047E+03  0.00000000000E+00 0.  1.
         -3    1    1    2    0  502 -0.49900184838E+02  0.80697986020E+02 -0.32761737845E+03  0.34107966820E+03  0.00000000000E+00 0. -1.
<mgrwt>
<rscale>  1 0.30000000E+03</rscale>
<asrwt>0</asrwt>
<pdfrwt beam="1">  1       21 0.36783829E-01 0.30000000E+03</pdfrwt>
<pdfrwt beam="2">0</pdfrwt>
<totfact> 0.71862245E+02</totfact>
</mgrwt>
</event>
<event>
 6    1  0.6377696E-002  0.3000000E+03  0.7818608E-02  0.1093470E+00
         21   -1    0    0  501  502  0.00000000000E+00  0.00000000000E+00  0.10892232980E+01  0.10892232980E+01  0.00000000000E+00 0. -1.
         13   -1    0    0    0    0 -0.00000000000E+00 -0.00000000000E+00 -0.10000000000E+04  0.10000000000E+04  0.00000000000E+00 0.  1.
    9000005    2    1    2  501    0 -0.23637682964E+02 -0.19983584401E+02 -0.38178765197E+03  0.38319033611E+03  0.10720951208E+02 0.  0.
         13    1    3    3    0    0 -0.73956605731E+01 -0.13146034700E+02 -0.18676225722E+03  0.18737036784E+03  0.00000000000E+00 0.  1.
          3    1    3    3  501    0 -0.16242022391E+02 -0.68375497003E+01 -0.19502539475E+03  0.19581996828E+03  0.00000000000E+00 0.  1.
         -3    1    1    2    0  502  0.23637682964E+02  0.19983584401E+02 -0.61712312473E+03  0.61789888718E+03  0.00000000000E+00 0. -1.
<mgrwt>
<rscale>  1 0.30000000E+03</rscale>
<asrwt>0</asrwt>
<pdfrwt beam="1">  1       21 0.39608203E-02 0.30000000E+03</pdfrwt>
<pdfrwt beam="2">0</pdfrwt>
<totfact> 0.42749946E+04</totfact>
</mgrwt>
</event>
<event>
 6    1  0.6377696E-002  0.3000000E+03  0.7818608E-02  0.1093470E+00
         21   -1    0    0  501  502  0.00000000000E+00  0.00000000000E+00  0.74585710071E+01  0.74585710071E+01  0.00000000000E+00 0. -1.
         13   -1    0    0    0    0 -0.00000000000E+00 -0.00000000000E+00 -0.10000000000E+04  0.10000000000E+04  0.00000000000E+00 0.  1.
    9000005    2    1    2  501    0  0.81714807963E+01 -0.85381348232E+02 -0.43923565699E+03  0.44754426948E+03  0.33411147051E+01 0.  0.
         13    1    3    3    0    0  0.35558445348E+01 -0.46633349269E+02 -0.23214248851E+03  0.23680677411E+03  0.00000000000E+00 0.  1.
          3    1    3    3  501    0  0.46156362615E+01 -0.38747998963E+02 -0.20709316848E+03  0.21073749537E+03  0.00000000000E+00 0.  1.
         -1    1    1    2    0  502 -0.81714807963E+01  0.85381348232E+02 -0.55330577200E+03  0.55991430153E+03  0.00000000000E+00 0. -1.
<mgrwt>
<rscale>  1 0.30000000E+03</rscale>
<asrwt>0</asrwt>
<pdfrwt beam="1">  1       21 0.27122134E-01 0.30000000E+03</pdfrwt>
<pdfrwt beam="2">0</pdfrwt>
<totfact> 0.13285790E+03</totfact>
</mgrwt>
</event>
<event>
 6    1  0.6377696E-002  0.3000000E+03  0.7818608E-02  0.1093470E+00
         21   -1    0    0  501  502  0.00000000000E+00  0.00000000000E+00  0.39521077398E+01  0.39521077398E+01  0.00000000000E+00 0. -1.
         13   -1    0    0    0    0 -0.00000000000E+00 -0.00000000000E+00 -0.10000000000E+04  0.10000000000E+04  0.00000000000E+00 0.  1.
    9000005    2    1    2  501    0 -0.31655945096E+01  0.60162557697E+02 -0.36675842934E+03  0.37178537145E+03  0.91138680141E+01 0.  0.
         13    1    3    3    0    0 -0.42799848202E+00 -0.53046354681E-01 -0.94200132871E+00  0.10360323931E+01  0.00000000000E+00 0.  1.
          3    1    3    3  501    0 -0.27375960276E+01  0.60215604051E+02 -0.36581642801E+03  0.37074933905E+03  0.00000000000E+00 0.  1.
         -3    1    1    2    0  502  0.31655945096E+01 -0.60162557697E+02 -0.62928946292E+03  0.63216673629E+03  0.00000000000E+00 0. -1.
<mgrwt>
<rscale>  1 0.30000000E+03</rscale>
<asrwt>0</asrwt>
<pdfrwt beam="1">  1       21 0.14371331E-01 0.30000000E+03</pdfrwt>
<pdfrwt beam="2">0</pdfrwt>
<totfact> 0.44567898E+03</totfact>
</mgrwt>
</event>
<event>
 6    1  0.6377696E-002  0.3000000E+03  0.7818608E-02  0.1093470E+00
         21   -1    0    0  501  502  0.00000000000E+00  0.00000000000E+00  0.13975071736E+01  0.13975071736E+01  0.00000000000E+00 0. -1.
         13   -1    0    0    0    0 -0.00000000000E+00 -0.00000000000E+00 -0.10000000000E+04  0.10000000000E+04  0.00000000000E+00 0.  1.
    9000005    2    1    2  501    0  0.34627202304E+02 -0.13750581882E+02 -0.48362677242E+03  0.48507579133E+03  0.39429295539E+01 0.  0.
         13    1    3    3    0    0  0.37617746738E+01 -0.63213275998E+00 -0.39070227559E+02  0.39255996001E+02  0.00000000000E+00 0.  1.
          1    1    3    3  501    0  0.30865427630E+02 -0.13118449122E+02 -0.44455654486E+03  0.44581979533E+03  0.00000000000E+00 0.  1.
         -1    1    1    2    0  502 -0.34627202304E+02  0.13750581882E+02 -0.51497572041E+03  0.51632171585E+03  0.00000000000E+00 0. -1.
<mgrwt>
<rscale>  1 0.30000000E+03</rscale>
<asrwt>0</asrwt>
<pdfrwt beam="1">  1       21 0.50818550E-02 0.30000000E+03</pdfrwt>
<pdfrwt beam="2">0</pdfrwt>
<totfact> 0.28017900E+04</totfact>
</mgrwt>
</event>
<event>
 6    1  0.6377696E-002  0.3000000E+03  0.7818608E-02  0.1093470E+00
         21   -1    0    0  501  502  0.00000000000E+00  0.00000000000E+00  0.10858398834E+01  0.10858398834E+01  0.00000000000E+00 0. -1.
         13   -1    0    0    0    0 -0.00000000000E+00 -0.00000000000E+00 -0.10000000000E+04  0.10000000000E+04  0.00000000000E+00 0.  1.
    9000005    2    1    2  501    0 -0.32014998315E+02 -0.73661334226E+01 -0.50980833432E+03  0.51087799737E+03  0.35454774633E+01 0.  0.
         13    1    3    3    0    0 -0.89931876486E+01 -0.45561626153E+00 -0.14063471191E+03  0.14092269939E+03  0.00000000000E+00 0.  1.
          1    1    3    3  501    0 -0.23021810667E+02 -0.69105171610E+01 -0.36917362242E+03  0.36995529798E+03  0.00000000000E+00 0.  1.
         -3    1    1    2    0  502  0.32014998315E+02  0.73661334226E+01 -0.48910582579E+03  0.49020784251E+03  0.00000000000E+00 0. -1.
<mgrwt>
<rscale>  1 0.30000000E+03</rscale>
<asrwt>0</asrwt>
<pdfrwt beam="1">  1       21 0.39485170E-02 0.30000000E+03</pdfrwt>
<pdfrwt beam="2">0</pdfrwt>
<totfact> 0.42974383E+04</totfact>
</mgrwt>
</event>
<event>
 6    1  0.6377696E-002  0.3000000E+03  0.7818608E-02  0.1093470E+00
         21   -1    0    0  501  502  0.00000000000E+00  0.00000000000E+00  0.12154681252E+01  0.12154681252E+01  0.00000000000E+00 0. -1.
         13   -1    0    0    0    0 -0.00000000000E+00 -0.00000000000E+00 -0.10000000000E+04  0.10000000000E+04  0.00000000000E+00 0.  1.
    9000005    2    1    2  501    0  0.29433946170E+02  0.81404120474E+01 -0.26094899621E+03  0.26274820332E+03  0.31010048012E+01 0.  0.
         13    1    3    3    0    0  0.21819834475E+02  0.70690970104E+01 -0.20285497147E+03  0.20414753674E+03  0.00000000000E+00 0.  1.
          1    1    3    3  501    0  0.76141116946E+01  0.10713150370E+01 -0.58094024742E+02  0.58600666579E+02  0.00000000000E+00 0.  1.
         -3    1    1    2    0  502 -0.29433946170E+02 -0.81404120474E+01 -0.73783553566E+03  0.73846726480E+03  0.00000000000E+00 0. -1.
<mgrwt>
<rscale>  1 0.30000000E+03</rscale>
<asrwt>0</asrwt>
<pdfrwt beam="1">  1       21 0.44198934E-02 0.30000000E+03</pdfrwt>
<pdfrwt beam="2">0</pdfrwt>
<totfact> 0.35523861E+04</totfact>
</mgrwt>
</event>
<event>
 6    1  0.6377696E-002  0.3000000E+03  0.7818608E-02  0.1093470E+00
         21   -1    0    0  501  502  0.00000000000E+00  0.00000000000E+00  0.24248189563E+01  0.24248189563E+01  0.00000000000E+00 0. -1.
         13   -1    0    0    0    0 -0.00000000000E+00 -0.00000000000E+00 -0.10000000000E+04  0.10000000000E+04  0.00000000000E+00 0.  1.
    9000005    2    1    2  501    0  0.40396910489E+02 -0.58377890415E+01 -0.21987541041E+03  0.22365468381E+03  0.31986446464E+01 0.  0.
         13    1    3    3    0    0  0.17964477315E+02 -0.10323261409E+01 -0.94723668302E+02  0.96417640912E+02  0.00000000000E+00 0.  1.
          3    1    3    3  501    0  0.22432433174E+02 -0.48054629006E+01 -0.12515174211E+03  0.12723704290E+03  0.00000000000E+00 0.  1.
         -3    1    1    2    0  502 -0.40396910489E+02  0.58377890415E+01 -0.77769977063E+03  0.77877013515E+03  0.00000000000E+00 0. -1.
<mgrwt>
<rscale>  1 0.30000000E+03</rscale>
<asrwt>0</asrwt>
<pdfrwt beam="1">  1       21 0.88175421E-02 0.30000000E+03</pdfrwt>
<pdfrwt beam="2">0</pdfrwt>
<totfact> 0.10761230E+04</totfact>
</mgrwt>
</event>
<event>
 6    1  0.6377696E-002  0.3000000E+03  0.7818608E-02  0.1093470E+00
         21   -1    0    0  501  502  0.00000000000E+00  0.00000000000E+00  0.13505851723E+01  0.13505851723E+01  0.00000000000E+00 0. -1.
         13   -1    0    0    0    0 -0.00000000000E+00 -0.00000000000E+00 -0.10000000000E+04  0.10000000000E+04  0.00000000000E+00 0.  1.
    9000005    2    1    2  501    0  0.27065373477E+02 -0.17608307012E+02 -0.26305009833E+03  0.26504294474E+03  0.31339130795E+01 0.  0.
         13    1    3    3    0    0  0.20424557883E+02 -0.14739457605E+02 -0.20046768143E+03  0.20204382067E+03  0.00000000000E+00 0.  1.
          3    1    3    3  501    0  0.66408155947E+01 -0.28688494065E+01 -0.62582416897E+02  0.62999124068E+02  0.00000000000E+00 0.  1.
         -1    1    1    2    0  502 -0.27065373477E+02  0.17608307012E+02 -0.73559931650E+03  0.73630764043E+03  0.00000000000E+00 0. -1.
<mgrwt>
<rscale>  1 0.30000000E+03</rscale>
<asrwt>0</asrwt>
<pdfrwt beam="1">  1       21 0.49112292E-02 0.30000000E+03</pdfrwt>
<pdfrwt beam="2">0</pdfrwt>
<totfact> 0.29697467E+04</totfact>
</mgrwt>
</event>
<event>
 6    1  0.6377696E-002  0.3000000E+03  0.7818608E-02  0.1093470E+00
         21   -1    0    0  501  502  0.00000000000E+00  0.00000000000E+00  0.10701096024E+01  0.10701096024E+01  0.00000000000E+00 0. -1.
         13   -1    0    0    0    0 -0.00000000000E+00 -0.00000000000E+00 -0.10000000000E+04  0.10000000000E+04  0.00000000000E+00 0.  1.
    9000005    2    1    2  501    0  0.38497203626E+01 -0.32268761469E+02 -0.54647207884E+03  0.54744673658E+03  0.31785414444E+01 0.  0.
         13    1    3    3    0    0  0.41222594782E+01 -0.31298485960E+02 -0.53494833863E+03  0.53587900990E+03  0.00000000000E+00 0.  1.
          1    1    3    3  501    0 -0.27253911552E+00 -0.97027550862E+00 -0.11523740213E+02  0.11567726684E+02  0.00000000000E+00 0.  1.
         -1    1    1    2    0  502 -0.38497203626E+01  0.32268761469E+02 -0.45245781155E+03  0.45362337302E+03  0.00000000000E+00 0. -1.
<mgrwt>
<rscale>  1 0.30000000E+03</rscale>
<asrwt>0</asrwt>
<pdfrwt beam="1">  1       21 0.38913159E-02 0.30000000E+03</pdfrwt>
<pdfrwt beam="2">0</pdfrwt>
<totfact> 0.44042487E+04</totfact>
</mgrwt>
</event>
<event>
 6    1  0.6377696E-002  0.3000000E+03  0.7818608E-02  0.1093470E+00
         21   -1    0    0  501  502  0.00000000000E+00  0.00000000000E+00  0.17067667785E+01  0.17067667785E+01  0.00000000000E+00 0. -1.
         13   -1    0    0    0    0 -0.00000000000E+00 -0.00000000000E+00 -0.10000000000E+04  0.10000000000E+04  0.00000000000E+00 0.  1.
    9000005    2    1    2  501    0  0.38254609469E+02 -0.11255875796E+02 -0.37178470108E+03  0.37393049235E+03  0.31684804833E+01 0.  0.
         13    1    3    3    0    0  0.32448774924E+02 -0.99440157029E+01 -0.32554655147E+03  0.32731080583E+03  0.00000000000E+00 0.  1.
          3    1    3    3  501    0  0.58058345450E+01 -0.13118600931E+01 -0.46238149612E+02  0.46619686520E+02  0.00000000000E+00 0.  1.
         -1    1    1    2    0  502 -0.38254609469E+02  0.11255875796E+02 -0.62650853214E+03  0.62777627443E+03  0.00000000000E+00 0. -1.
<mgrwt>
<rscale>  1 0.30000000E+03</rscale>
<asrwt>0</asrwt>
<pdfrwt beam="1">  1       21 0.62064377E-02 0.30000000E+03</pdfrwt>
<pdfrwt beam="2">0</pdfrwt>
<totfact> 0.19876681E+04</totfact>
</mgrwt>
</event>
<event>
 6    1  0.6377696E-002  0.3000000E+03  0.7818608E-02  0.1093470E+00
         21   -1    0    0  501  502  0.00000000000E+00  0.00000000000E+00  0.23380815950E+01  0.23380815950E+01  0.00000000000E+00 0. -1.
         13   -1    0    0    0    0 -0.00000000000E+00 -0.00000000000E+00 -0.10000000000E+04  0.10000000000E+04  0.00000000000E+00 0.  1.
    9000005    2    1    2  501    0 -0.29096776381E+02 -0.33301254616E+02 -0.70116572367E+03  0.70256218288E+03  0.21570388306E+01 0.  0.
         13    1    3    3    0    0 -0.21622011304E+02 -0.26019828028E+02 -0.52995968951E+03  0.53103843112E+03  0.00000000000E+00 0.  1.
          1    1    3    3  501    0 -0.74747650766E+01 -0.72814265880E+01 -0.17120603416E+03  0.17152375176E+03  0.00000000000E+00 0.  1.
         -1    1    1    2    0  502  0.29096776381E+02  0.33301254616E+02 -0.29649619474E+03  0.29977589871E+03  0.00000000000E+00 0. -1.
<mgrwt>
<rscale>  1 0.30000000E+03</rscale>
<asrwt>0</asrwt>
<pdfrwt beam="1">  1       21 0.85021328E-02 0.30000000E+03</pdfrwt>
<pdfrwt beam="2">0</pdfrwt>
<totfact> 0.11476183E+04</totfact>
</mgrwt>
</event>
<event>
 6    1  0.6377696E-002  0.3000000E+03  0.7818608E-02  0.1093470E+00
         21   -1    0    0  501  502  0.00000000000E+00  0.00000000000E+00  0.30541235932E+01  0.30541235932E+01  0.00000000000E+00 0. -1.
         13   -1    0    0    0    0 -0.00000000000E+00 -0.00000000000E+00 -0.10000000000E+04  0.10000000000E+04  0.00000000000E+00 0.  1.
    9000005    2    1    2  501    0  0.34603191518E+02  0.17089843944E+01 -0.11120944038E+03  0.11664037393E+03  0.60939075681E+01 0.  0.
         13    1    3    3    0    0  0.15093848527E+02 -0.21575724295E+01 -0.45481269634E+02  0.47969003217E+02  0.00000000000E+00 0.  1.
          1    1    3    3  501    0  0.19509342991E+02  0.38665568240E+01 -0.65728170747E+02  0.68671370711E+02  0.00000000000E+00 0.  1.
         -3    1    1    2    0  502 -0.34603191518E+02 -0.17089843944E+01 -0.88573643603E+03  0.88641374967E+03  0.00000000000E+00 0. -1.
<mgrwt>
<rscale>  1 0.30000000E+03</rscale>
<asrwt>0</asrwt>
<pdfrwt beam="1">  1       21 0.11105927E-01 0.30000000E+03</pdfrwt>
<pdfrwt beam="2">0</pdfrwt>
<totfact> 0.71280018E+03</totfact>
</mgrwt>
</event>
<event>
 6    1  0.6377696E-002  0.3000000E+03  0.7818608E-02  0.1093470E+00
         21   -1    0    0  501  502  0.00000000000E+00  0.00000000000E+00  0.18176468317E+01  0.18176468317E+01  0.00000000000E+00 0. -1.
         13   -1    0    0    0    0 -0.00000000000E+00 -0.00000000000E+00 -0.10000000000E+04  0.10000000000E+04  0.00000000000E+00 0.  1.
    9000005    2    1    2  501    0 -0.27419055624E+00 -0.35943689651E+02 -0.23251972391E+03  0.23531175263E+03  0.37649583654E+01 0.  0.
         13    1    3    3    0    0 -0.67608853496E+00 -0.33639364894E+02 -0.21107585668E+03  0.21374068690E+03  0.00000000000E+00 0.  1.
          1    1    3    3  501    0  0.40189797871E+00 -0.23043247570E+01 -0.21443867235E+02  0.21571065726E+02  0.00000000000E+00 0.  1.
         -3    1    1    2    0  502  0.27419055624E+00  0.35943689651E+02 -0.76566262926E+03  0.76650589420E+03  0.00000000000E+00 0. -1.
<mgrwt>
<rscale>  1 0.30000000E+03</rscale>
<asrwt>0</asrwt>
<pdfrwt beam="1">  1       21 0.66096388E-02 0.30000000E+03</pdfrwt>
<pdfrwt beam="2">0</pdfrwt>
<totfact> 0.17825976E+04</totfact>
</mgrwt>
</event>
<event>
 6    1  0.6377696E-002  0.3000000E+03  0.7818608E-02  0.1093470E+00
         21   -1    0    0  501  502  0.00000000000E+00  0.00000000000E+00  0.96988387405E+00  0.96988387405E+00  0.00000000000E+00 0. -1.
         13   -1    0    0    0    0 -0.00000000000E+00 -0.00000000000E+00 -0.10000000000E+04  0.10000000000E+04  0.00000000000E+00 0.  1.
    9000005    2    1    2  501    0 -0.27651249006E+02  0.13457530157E+02 -0.56971659070E+03  0.57055636201E+03  0.34455510413E+01 0.  0.
         13    1    3    3    0    0 -0.67653172536E+00 -0.18796071808E+00 -0.10707390377E+02  0.10730388301E+02  0.00000000000E+00 0.  1.
          1    1    3    3  501    0 -0.26974717281E+02  0.13645490876E+02 -0.55900920033E+03  0.55982597371E+03  0.00000000000E+00 0.  1.
         -1    1    1    2    0  502  0.27651249006E+02 -0.13457530157E+02 -0.42931352542E+03  0.43041352186E+03  0.00000000000E+00 0. -1.
<mgrwt>
<rscale>  1 0.30000000E+03</rscale>
<asrwt>0</asrwt>
<pdfrwt beam="1">  1       21 0.35268579E-02 0.30000000E+03</pdfrwt>
<pdfrwt beam="2">0</pdfrwt>
<totfact> 0.51947403E+04</totfact>
</mgrwt>
</event>
<event>
 6    1  0.6377696E-002  0.3000000E+03  0.7818608E-02  0.1093470E+00
         21   -1    0    0  501  502  0.00000000000E+00  0.00000000000E+00  0.25286166319E+01  0.25286166319E+01  0.00000000000E+00 0. -1.
         13   -1    0    0    0    0 -0.00000000000E+00 -0.00000000000E+00 -0.10000000000E+04  0.10000000000E+04  0.00000000000E+00 0.  1.
    9000005    2    1    2  501    0 -0.15509595391E+02 -0.39790241977E+02 -0.76282831997E+03  0.76403086380E+03  0.35077317924E+01 0.  0.
         13    1    3    3    0    0 -0.10701661517E+02 -0.31306006849E+02 -0.58100858186E+03  0.58194979493E+03  0.00000000000E+00 0.  1.
          1    1    3    3  501    0 -0.48079338738E+01 -0.84842351277E+01 -0.18181973811E+03  0.18208106887E+03  0.00000000000E+00 0.  1.
         -1    1    1    2    0  502  0.15509595391E+02  0.39790241977E+02 -0.23464306340E+03  0.23849775283E+03  0.00000000000E+00 0. -1.
<mgrwt>
<rscale>  1 0.30000000E+03</rscale>
<asrwt>0</asrwt>
<pdfrwt beam="1">  1       21 0.91949890E-02 0.30000000E+03</pdfrwt>
<pdfrwt beam="2">0</pdfrwt>
<totfact> 0.99910006E+03</totfact>
</mgrwt>
</event>
<event>
 6    1  0.6377696E-002  0.3000000E+03  0.7818608E-02  0.1093470E+00
         21   -1    0    0  501  502  0.00000000000E+00  0.00000000000E+00  0.14560811335E+01  0.14560811335E+01  0.00000000000E+00 0. -1.
         13   -1    0    0    0    0 -0.00000000000E+00 -0.00000000000E+00 -0.10000000000E+04  0.10000000000E+04  0.00000000000E+00 0.  1.
    9000005    2    1    2  501    0 -0.22044455889E+02  0.25451882262E+02 -0.26648143451E+03  0.26861964826E+03  0.32255458689E+01 0.  0.
         13    1    3    3    0    0 -0.55189754580E+01  0.86329561946E+01 -0.80349048282E+02  0.80999731991E+02  0.00000000000E+00 0.  1.
          3    1    3    3  501    0 -0.16525480431E+02  0.16818926067E+02 -0.18613238623E+03  0.18761991627E+03  0.00000000000E+00 0.  1.
         -1    1    1    2    0  502  0.22044455889E+02 -0.25451882262E+02 -0.73206248436E+03  0.73283643287E+03  0.00000000000E+00 0. -1.
<mgrwt>
<rscale>  1 0.30000000E+03</rscale>
<asrwt>0</asrwt>
<pdfrwt beam="1">  1       21 0.52948517E-02 0.30000000E+03</pdfrwt>
<pdfrwt beam="2">0</pdfrwt>
<totfact> 0.26120244E+04</totfact>
</mgrwt>
</event>
<event>
 6    1  0.6377696E-002  0.3000000E+03  0.7818608E-02  0.1093470E+00
         21   -1    0    0  501  502  0.00000000000E+00  0.00000000000E+00  0.13302137089E+01  0.13302137089E+01  0.00000000000E+00 0. -1.
         13   -1    0    0    0    0 -0.00000000000E+00 -0.00000000000E+00 -0.10000000000E+04  0.10000000000E+04  0.00000000000E+00 0.  1.
    9000005    2    1    2  501    0  0.18975582146E+02 -0.30440854966E+02 -0.58480475331E+03  0.58591357478E+03  0.33762785282E+01 0.  0.
         13    1    3    3    0    0  0.17211728223E+02 -0.26732034772E+02 -0.53212925455E+03  0.53307822017E+03  0.00000000000E+00 0.  1.
          1    1    3    3  501    0  0.17638539232E+01 -0.37088201944E+01 -0.52675498758E+02  0.52835354615E+02  0.00000000000E+00 0.  1.
         -1    1    1    2    0  502 -0.18975582146E+02  0.30440854966E+02 -0.41386503299E+03  0.41541663893E+03  0.00000000000E+00 0. -1.
<mgrwt>
<rscale>  1 0.30000000E+03</rscale>
<asrwt>0</asrwt>
<pdfrwt beam="1">  1       21 0.48371510E-02 0.30000000E+03</pdfrwt>
<pdfrwt beam="2">0</pdfrwt>
<totfact> 0.30476018E+04</totfact>
</mgrwt>
</event>
<event>
 6    1  0.6377696E-002  0.3000000E+03  0.7818608E-02  0.1093470E+00
         21   -1    0    0  501  502  0.00000000000E+00  0.00000000000E+00  0.95353001508E+00  0.95353001508E+00  0.00000000000E+00 0. -1.
         13   -1    0    0    0    0 -0.00000000000E+00 -0.00000000000E+00 -0.10000000000E+04  0.10000000000E+04  0.00000000000E+00 0.  1.
    9000005    2    1    2  501    0  0.15516042465E+01 -0.30087601873E+02 -0.39647164264E+03  0.39762601215E+03  0.30018093295E+01 0.  0.
         13    1    3    3    0    0  0.67281860920E+00 -0.95559199906E+01 -0.10853305616E+03  0.10895500250E+03  0.00000000000E+00 0.  1.
          3    1    3    3  501    0  0.87878563734E+00 -0.20531681883E+02 -0.28793858648E+03  0.28867100965E+03  0.00000000000E+00 0.  1.
         -1    1    1    2    0  502 -0.15516042465E+01  0.30087601873E+02 -0.60257482735E+03  0.60332751787E+03  0.00000000000E+00 0. -1.
<mgrwt>
<rscale>  1 0.30000000E+03</rscale>
<asrwt>0</asrwt>
<pdfrwt beam="1">  1       21 0.34673892E-02 0.30000000E+03</pdfrwt>
<pdfrwt beam="2">0</pdfrwt>
<totfact> 0.53447779E+04</totfact>
</mgrwt>
</event>
<event>
 6    1  0.6377696E-002  0.3000000E+03  0.7818608E-02  0.1093470E+00
         21   -1    0    0  501  502  0.00000000000E+00  0.00000000000E+00  0.22910632729E+01  0.22910632729E+01  0.00000000000E+00 0. -1.
         13   -1    0    0    0    0 -0.00000000000E+00 -0.00000000000E+00 -0.10000000000E+04  0.10000000000E+04  0.00000000000E+00 0.  1.
    9000005    2    1    2  501    0 -0.38574753069E+02  0.23913549179E+02 -0.34788508569E+03  0.35088419595E+03  0.59847070631E+01 0.  0.
         13    1    3    3    0    0 -0.71429370747E+01  0.61927766786E+01 -0.58642536465E+02  0.59399655859E+02  0.00000000000E+00 0.  1.
          3    1    3    3  501    0 -0.31431815994E+02  0.17720772501E+02 -0.28924254922E+03  0.29148454009E+03  0.00000000000E+00 0.  1.
         -3    1    1    2    0  502  0.38574753069E+02 -0.23913549179E+02 -0.64982385104E+03  0.65140686732E+03  0.00000000000E+00 0. -1.
<mgrwt>
<rscale>  1 0.30000000E+03</rscale>
<asrwt>0</asrwt>
<pdfrwt beam="1">  1       21 0.83311567E-02 0.30000000E+03</pdfrwt>
<pdfrwt beam="2">0</pdfrwt>
<totfact> 0.11894440E+04</totfact>
</mgrwt>
</event>
<event>
 6    1  0.6377696E-002  0.3000000E+03  0.7818608E-02  0.1093470E+00
         21   -1    0    0  501  502  0.00000000000E+00  0.00000000000E+00  0.20488649988E+01  0.20488649988E+01  0.00000000000E+00 0. -1.
         13   -1    0    0    0    0 -0.00000000000E+00 -0.00000000000E+00 -0.10000000000E+04  0.10000000000E+04  0.00000000000E+00 0.  1.
    9000005    2    1    2  501    0 -0.32749297380E+02 -0.12950890166E+02 -0.81323126586E+03  0.81400187063E+03  0.37029157064E+01 0.  0.
         13    1    3    3    0    0 -0.36678915928E+00 -0.61125320067E+00 -0.23182962142E+02  0.23193919428E+02  0.00000000000E+00 0.  1.
          1    1    3    3  501    0 -0.32382508221E+02 -0.12339636965E+02 -0.79004830372E+03  0.79080795120E+03  0.00000000000E+00 0.  1.
         -1    1    1    2    0  502  0.32749297380E+02  0.12950890166E+02 -0.18471986914E+03  0.18804699437E+03  0.00000000000E+00 0. -1.
<mgrwt>
<rscale>  1 0.30000000E+03</rscale>
<asrwt>0</asrwt>
<pdfrwt beam="1">  1       21 0.74504339E-02 0.30000000E+03</pdfrwt>
<pdfrwt beam="2">0</pdfrwt>
<totfact> 0.14471476E+04</totfact>
</mgrwt>
</event>
<event>
 6    1  0.6377696E-002  0.3000000E+03  0.7818608E-02  0.1093470E+00
         21   -1    0    0  501  502  0.00000000000E+00  0.00000000000E+00  0.11491524080E+01  0.11491524080E+01  0.00000000000E+00 0. -1.
         13   -1    0    0    0    0 -0.00000000000E+00 -0.00000000000E+00 -0.10000000000E+04  0.10000000000E+04  0.00000000000E+00 0.  1.
    9000005    2    1    2  501    0  0.49846331047E+01 -0.32687228664E+02 -0.60411731064E+03  0.60503317611E+03  0.37573517879E+01 0.  0.
         13    1    3    3    0    0 -0.24443083231E+00 -0.96148973801E+01 -0.17131197582E+03  0.17158175619E+03  0.00000000000E+00 0.  1.
          1    1    3    3  501    0  0.52290639370E+01 -0.23072331284E+02 -0.43280533482E+03  0.43345141992E+03  0.00000000000E+00 0.  1.
         -3    1    1    2    0  502 -0.49846331047E+01  0.32687228664E+02 -0.39473353695E+03  0.39611597630E+03  0.00000000000E+00 0. -1.
<mgrwt>
<rscale>  1 0.30000000E+03</rscale>
<asrwt>0</asrwt>
<pdfrwt beam="1">  1       21 0.41787448E-02 0.30000000E+03</pdfrwt>
<pdfrwt beam="2">0</pdfrwt>
<totfact> 0.39059619E+04</totfact>
</mgrwt>
</event>
<event>
 6    1  0.6377696E-002  0.3000000E+03  0.7818608E-02  0.1093470E+00
         21   -1    0    0  501  502  0.00000000000E+00  0.00000000000E+00  0.19757591656E+01  0.19757591656E+01  0.00000000000E+00 0. -1.
         13   -1    0    0    0    0 -0.00000000000E+00 -0.00000000000E+00 -0.10000000000E+04  0.10000000000E+04  0.00000000000E+00 0.  1.
    9000005    2    1    2  501    0  0.99680096795E+01  0.43259760212E+02 -0.49187508351E+03  0.49388350619E+03  0.30086277747E+01 0.  0.
         13    1    3    3    0    0  0.86008596926E+01  0.33761499487E+02 -0.37479538616E+03  0.37641120483E+03  0.00000000000E+00 0.  1.
          1    1    3    3  501    0  0.13671499869E+01  0.94982607247E+01 -0.11707969734E+03  0.11747230136E+03  0.00000000000E+00 0.  1.
         -3    1    1    2    0  502 -0.99680096795E+01 -0.43259760212E+02 -0.50614915733E+03  0.50809225297E+03  0.00000000000E+00 0. -1.
<mgrwt>
<rscale>  1 0.30000000E+03</rscale>
<asrwt>0</asrwt>
<pdfrwt beam="1">  1       21 0.71845939E-02 0.30000000E+03</pdfrwt>
<pdfrwt beam="2">0</pdfrwt>
<totfact> 0.15419922E+04</totfact>
</mgrwt>
</event>
<event>
 6    1  0.6377696E-002  0.3000000E+03  0.7818608E-02  0.1093470E+00
         21   -1    0    0  501  502  0.00000000000E+00  0.00000000000E+00  0.58415987133E+01  0.58415987133E+01  0.00000000000E+00 0. -1.
         13   -1    0    0    0    0 -0.00000000000E+00 -0.00000000000E+00 -0.10000000000E+04  0.10000000000E+04  0.00000000000E+00 0.  1.
    9000005    2    1    2  501    0 -0.37737700236E+02  0.40051271238E+02 -0.14901503881E+03  0.15890857805E+03  0.42680253308E+01 0.  0.
         13    1    3    3    0    0 -0.35341058793E+02  0.36561904752E+02 -0.13461132060E+03  0.14389569468E+03  0.00000000000E+00 0.  1.
          1    1    3    3  501    0 -0.23966414433E+01  0.34893664862E+01 -0.14403718210E+02  0.15012883366E+02  0.00000000000E+00 0.  1.
         -3    1    1    2    0  502  0.37737700236E+02 -0.40051271238E+02 -0.84514336248E+03  0.84693302066E+03  0.00000000000E+00 0. -1.
<mgrwt>
<rscale>  1 0.30000000E+03</rscale>
<asrwt>0</asrwt>
<pdfrwt beam="1">  1       21 0.21242222E-01 0.30000000E+03</pdfrwt>
<pdfrwt beam="2">0</pdfrwt>
<totfact> 0.21378798E+03</totfact>
</mgrwt>
</event>
<event>
 6    1  0.6377696E-002  0.3000000E+03  0.7818608E-02  0.1093470E+00
         21   -1    0    0  501  502  0.00000000000E+00  0.00000000000E+00  0.21183153242E+01  0.21183153242E+01  0.00000000000E+00 0. -1.
         13   -1    0    0    0    0 -0.00000000000E+00 -0.00000000000E+00 -0.10000000000E+04  0.10000000000E+04  0.00000000000E+00 0.  1.
    9000005    2    1    2  501    0 -0.29371938126E+02  0.18861201951E+02 -0.17397433651E+03  0.17747186135E+03  0.32766017669E+01 0.  0.
         13    1    3    3    0    0 -0.26710329739E+01  0.26806531035E+01 -0.15936487473E+02  0.16379619995E+02  0.00000000000E+00 0.  1.
          1    1    3    3  501    0 -0.26700905152E+02  0.16180548847E+02 -0.15803784904E+03  0.16109224136E+03  0.00000000000E+00 0.  1.
         -1    1    1    2    0  502  0.29371938126E+02 -0.18861201951E+02 -0.82390734816E+03  0.82464645397E+03  0.00000000000E+00 0. -1.
<mgrwt>
<rscale>  1 0.30000000E+03</rscale>
<asrwt>0</asrwt>
<pdfrwt beam="1">  1       21 0.77029811E-02 0.30000000E+03</pdfrwt>
<pdfrwt beam="2">0</pdfrwt>
<totfact> 0.13650663E+04</totfact>
</mgrwt>
</event>
<event>
 6    1  0.6377696E-002  0.3000000E+03  0.7818608E-02  0.1093470E+00
         21   -1    0    0  501  502  0.00000000000E+00  0.00000000000E+00  0.97973023492E+00  0.97973023492E+00  0.00000000000E+00 0. -1.
         13   -1    0    0    0    0 -0.00000000000E+00 -0.00000000000E+00 -0.10000000000E+04  0.10000000000E+04  0.00000000000E+00 0.  1.
    9000005    2    1    2  501    0  0.19250671112E+02  0.24482333549E+02 -0.52684173236E+03  0.52777518231E+03  0.38025134077E+01 0.  0.
         13    1    3    3    0    0  0.17470254278E+01  0.16534940844E+01 -0.59798193051E+02  0.59846554059E+02  0.00000000000E+00 0.  1.
          1    1    3    3  501    0  0.17503645684E+02  0.22828839464E+02 -0.46704353931E+03  0.46792862825E+03  0.00000000000E+00 0.  1.
         -3    1    1    2    0  502 -0.19250671112E+02 -0.24482333549E+02 -0.47217853740E+03  0.47320454793E+03  0.00000000000E+00 0. -1.
<mgrwt>
<rscale>  1 0.30000000E+03</rscale>
<asrwt>0</asrwt>
<pdfrwt beam="1">  1       21 0.35626629E-02 0.30000000E+03</pdfrwt>
<pdfrwt beam="2">0</pdfrwt>
<totfact> 0.51075374E+04</totfact>
</mgrwt>
</event>
<event>
 6    1  0.6377696E-002  0.3000000E+03  0.7818608E-02  0.1093470E+00
         21   -1    0    0  501  502  0.00000000000E+00  0.00000000000E+00  0.11189580011E+01  0.11189580011E+01  0.00000000000E+00 0. -1.
         13   -1    0    0    0    0 -0.00000000000E+00 -0.00000000000E+00 -0.10000000000E+04  0.10000000000E+04  0.00000000000E+00 0.  1.
    9000005    2    1    2  501    0 -0.33016176438E+02  0.21560771816E+01 -0.56525007955E+03  0.56622755987E+03  0.33586526964E+01 0.  0.
         13    1    3    3    0    0 -0.25347822697E+01  0.10716451532E+01 -0.44460769238E+02  0.44545858907E+02  0.00000000000E+00 0.  1.
          3    1    3    3  501    0 -0.30481394168E+02  0.10844320284E+01 -0.52078931032E+03  0.52168170097E+03  0.00000000000E+00 0.  1.
         -3    1    1    2    0  502  0.33016176438E+02 -0.21560771816E+01 -0.43363096245E+03  0.43489139813E+03  0.00000000000E+00 0. -1.
<mgrwt>
<rscale>  1 0.30000000E+03</rscale>
<asrwt>0</asrwt>
<pdfrwt beam="1">  1       21 0.40689468E-02 0.30000000E+03</pdfrwt>
<pdfrwt beam="2">0</pdfrwt>
<totfact> 0.40853938E+04</totfact>
</mgrwt>
</event>
<event>
 6    1  0.6377696E-002  0.3000000E+03  0.7818608E-02  0.1093470E+00
         21   -1    0    0  501  502  0.00000000000E+00  0.00000000000E+00  0.32499803118E+01  0.32499803118E+01  0.00000000000E+00 0. -1.
         13   -1    0    0    0    0 -0.00000000000E+00 -0.00000000000E+00 -0.10000000000E+04  0.10000000000E+04  0.00000000000E+00 0.  1.
    9000005    2    1    2  501    0  0.21192612232E+02  0.36532933740E+02 -0.83508987241E+03  0.83616381907E+03  0.33249446611E+01 0.  0.
         13    1    3    3    0    0  0.19298793473E+02  0.33669131499E+02 -0.78277321233E+03  0.78373462077E+03  0.00000000000E+00 0.  1.
          1    1    3    3  501    0  0.18938187592E+01  0.28638022408E+01 -0.52316660080E+02  0.52429198303E+02  0.00000000000E+00 0.  1.
         -1    1    1    2    0  502 -0.21192612232E+02 -0.36532933740E+02 -0.16166014728E+03  0.16708616124E+03  0.00000000000E+00 0. -1.
<mgrwt>
<rscale>  1 0.30000000E+03</rscale>
<asrwt>0</asrwt>
<pdfrwt beam="1">  1       21 0.11818135E-01 0.30000000E+03</pdfrwt>
<pdfrwt beam="2">0</pdfrwt>
<totfact> 0.63711302E+03</totfact>
</mgrwt>
</event>
<event>
 6    1  0.6377696E-002  0.3000000E+03  0.7818608E-02  0.1093470E+00
         21   -1    0    0  501  502  0.00000000000E+00  0.00000000000E+00  0.11497392125E+02  0.11497392125E+02  0.00000000000E+00 0. -1.
         13   -1    0    0    0    0 -0.00000000000E+00 -0.00000000000E+00 -0.10000000000E+04  0.10000000000E+04  0.00000000000E+00 0.  1.
    9000005    2    1    2  501    0  0.10596617470E+03  0.12975164984E+00 -0.57000380197E+03  0.57979136071E+03  0.49840426600E+01 0.  0.
         13    1    3    3    0    0  0.69447621816E+01 -0.12631233081E+00 -0.44626081524E+02  0.45163401430E+02  0.00000000000E+00 0.  1.
          3    1    3    3  501    0  0.99021412514E+02  0.25606398065E+00 -0.52537772045E+03  0.53462795928E+03  0.00000000000E+00 0.  1.
         -1    1    1    2    0  502 -0.10596617470E+03 -0.12975164984E+00 -0.41849880590E+03  0.43170603141E+03  0.00000000000E+00 0. -1.
<mgrwt>
<rscale>  1 0.30000000E+03</rscale>
<asrwt>0</asrwt>
<pdfrwt beam="1">  1       21 0.41808787E-01 0.30000000E+03</pdfrwt>
<pdfrwt beam="2">0</pdfrwt>
<totfact> 0.55051337E+02</totfact>
</mgrwt>
</event>
<event>
 6    1  0.6377696E-002  0.3000000E+03  0.7818608E-02  0.1093470E+00
         21   -1    0    0  501  502  0.00000000000E+00  0.00000000000E+00  0.19092144092E+01  0.19092144092E+01  0.00000000000E+00 0. -1.
         13   -1    0    0    0    0 -0.00000000000E+00 -0.00000000000E+00 -0.10000000000E+04  0.10000000000E+04  0.00000000000E+00 0.  1.
    9000005    2    1    2  501    0 -0.36200658848E+02 -0.23710745184E+02 -0.45043253174E+03  0.45254389865E+03  0.58161349528E+01 0.  0.
         13    1    3    3    0    0 -0.11474476006E+02 -0.76613106937E+01 -0.11695140570E+03  0.11776243279E+03  0.00000000000E+00 0.  1.
          1    1    3    3  501    0 -0.24726182842E+02 -0.16049434491E+02 -0.33348112603E+03  0.33478146586E+03  0.00000000000E+00 0.  1.
         -1    1    1    2    0  502  0.36200658848E+02  0.23710745184E+02 -0.54765825386E+03  0.54936531575E+03  0.00000000000E+00 0. -1.
<mgrwt>
<rscale>  1 0.30000000E+03</rscale>
<asrwt>0</asrwt>
<pdfrwt beam="1">  1       21 0.69426125E-02 0.30000000E+03</pdfrwt>
<pdfrwt beam="2">0</pdfrwt>
<totfact> 0.16368034E+04</totfact>
</mgrwt>
</event>
<event>
 6    1  0.6377696E-002  0.3000000E+03  0.7818608E-02  0.1093470E+00
         21   -1    0    0  501  502  0.00000000000E+00  0.00000000000E+00  0.95025921765E+00  0.95025921765E+00  0.00000000000E+00 0. -1.
         13   -1    0    0    0    0 -0.00000000000E+00 -0.00000000000E+00 -0.10000000000E+04  0.10000000000E+04  0.00000000000E+00 0.  1.
    9000005    2    1    2  501    0  0.86997398923E+01  0.29099678263E+02 -0.51190956028E+03  0.51286416824E+03  0.74686281089E+01 0.  0.
         13    1    3    3    0    0  0.19117320849E+01  0.26442576363E+01 -0.98098263257E+02  0.98152514344E+02  0.00000000000E+00 0.  1.
          1    1    3    3  501    0  0.67880078075E+01  0.26455420627E+02 -0.41381129702E+03  0.41471165389E+03  0.00000000000E+00 0.  1.
         -3    1    1    2    0  502 -0.86997398923E+01 -0.29099678263E+02 -0.48714018050E+03  0.48808609098E+03  0.00000000000E+00 0. -1.
<mgrwt>
<rscale>  1 0.30000000E+03</rscale>
<asrwt>0</asrwt>
<pdfrwt beam="1">  1       21 0.34554954E-02 0.30000000E+03</pdfrwt>
<pdfrwt beam="2">0</pdfrwt>
<totfact> 0.53755940E+04</totfact>
</mgrwt>
</event>
<event>
 6    1  0.6377696E-002  0.3000000E+03  0.7818608E-02  0.1093470E+00
         21   -1    0    0  501  502  0.00000000000E+00  0.00000000000E+00  0.10603713725E+01  0.10603713725E+01  0.00000000000E+00 0. -1.
         13   -1    0    0    0    0 -0.00000000000E+00 -0.00000000000E+00 -0.10000000000E+04  0.10000000000E+04  0.00000000000E+00 0.  1.
    9000005    2    1    2  501    0 -0.13606673536E+02  0.29071940986E+02 -0.42471801107E+03  0.42594230925E+03  0.33380471106E+01 0.  0.
         13    1    3    3    0    0 -0.90334578782E+01  0.18124289491E+02 -0.28750327868E+03  0.28821559376E+03  0.00000000000E+00 0.  1.
          3    1    3    3  501    0 -0.45732156578E+01  0.10947651495E+02 -0.13721473239E+03  0.13772671549E+03  0.00000000000E+00 0.  1.
         -1    1    1    2    0  502  0.13606673536E+02 -0.29071940986E+02 -0.57422161755E+03  0.57511806212E+03  0.00000000000E+00 0. -1.
<mgrwt>
<rscale>  1 0.30000000E+03</rscale>
<asrwt>0</asrwt>
<pdfrwt beam="1">  1       21 0.38559040E-02 0.30000000E+03</pdfrwt>
<pdfrwt beam="2">0</pdfrwt>
<totfact> 0.44724738E+04</totfact>
</mgrwt>
</event>
<event>
 6    1  0.6377696E-002  0.3000000E+03  0.7818608E-02  0.1093470E+00
         21   -1    0    0  501  502  0.00000000000E+00  0.00000000000E+00  0.20481460984E+01  0.20481460984E+01  0.00000000000E+00 0. -1.
         13   -1    0    0    0    0 -0.00000000000E+00 -0.00000000000E+00 -0.10000000000E+04  0.10000000000E+04  0.00000000000E+00 0.  1.
    9000005    2    1    2  501    0 -0.37065168324E+02 -0.24961666204E+02 -0.57388452722E+03  0.57563284496E+03  0.35791251052E+01 0.  0.
         13    1    3    3    0    0 -0.69562975771E+01 -0.48323861571E+01 -0.91920962682E+02  0.92310375431E+02  0.00000000000E+00 0.  1.
          3    1    3    3  501    0 -0.30108870747E+02 -0.20129280047E+02 -0.48196356454E+03  0.48332246953E+03  0.00000000000E+00 0.  1.
         -1    1    1    2    0  502  0.37065168324E+02  0.24961666204E+02 -0.42406732668E+03  0.42641530114E+03  0.00000000000E+00 0. -1.
<mgrwt>
<rscale>  1 0.30000000E+03</rscale>
<asrwt>0</asrwt>
<pdfrwt beam="1">  1       21 0.74478197E-02 0.30000000E+03</pdfrwt>
<pdfrwt beam="2">0</pdfrwt>
<totfact> 0.14480368E+04</totfact>
</mgrwt>
</event>
<event>
 6    1  0.6377696E-002  0.3000000E+03  0.7818608E-02  0.1093470E+00
         21   -1    0    0  501  502  0.00000000000E+00  0.00000000000E+00  0.37853949248E+01  0.37853949248E+01  0.00000000000E+00 0. -1.
         13   -1    0    0    0    0 -0.00000000000E+00 -0.00000000000E+00 -0.10000000000E+04  0.10000000000E+04  0.00000000000E+00 0.  1.
    9000005    2    1    2  501    0  0.52028826990E+02 -0.32618325172E+02 -0.47433635921E+03  0.47830670127E+03  0.33711776568E+01 0.  0.
         13    1    3    3    0    0  0.51791526974E+01 -0.21471743091E+01 -0.45325479895E+02  0.45670921907E+02  0.00000000000E+00 0.  1.
          3    1    3    3  501    0  0.46849674293E+02 -0.30471150863E+02 -0.42901087931E+03  0.43263577936E+03  0.00000000000E+00 0.  1.
         -3    1    1    2    0  502 -0.52028826990E+02  0.32618325172E+02 -0.52187824587E+03  0.52547869365E+03  0.00000000000E+00 0. -1.
<mgrwt>
<rscale>  1 0.30000000E+03</rscale>
<asrwt>0</asrwt>
<pdfrwt beam="1">  1       21 0.13765101E-01 0.30000000E+03</pdfrwt>
<pdfrwt beam="2">0</pdfrwt>
<totfact> 0.48242383E+03</totfact>
</mgrwt>
</event>
<event>
 6    1  0.6377696E-002  0.3000000E+03  0.7818608E-02  0.1093470E+00
         21   -1    0    0  501  502  0.00000000000E+00  0.00000000000E+00  0.16089472901E+01  0.16089472901E+01  0.00000000000E+00 0. -1.
         13   -1    0    0    0    0 -0.00000000000E+00 -0.00000000000E+00 -0.10000000000E+04  0.10000000000E+04  0.00000000000E+00 0.  1.
    9000005    2    1    2  501    0  0.34042081445E+02 -0.20797480807E+02 -0.54133055211E+03  0.54281084385E+03  0.36670192184E+01 0.  0.
         13    1    3    3    0    0  0.26978297317E+02 -0.14725505550E+02 -0.42053813723E+03  0.42165980827E+03  0.00000000000E+00 0.  1.
          1    1    3    3  501    0  0.70637841282E+01 -0.60719752570E+01 -0.12079241488E+03  0.12115103558E+03  0.00000000000E+00 0.  1.
         -1    1    1    2    0  502 -0.34042081445E+02  0.20797480807E+02 -0.45706050060E+03  0.45879810344E+03  0.00000000000E+00 0. -1.
<mgrwt>
<rscale>  1 0.30000000E+03</rscale>
<asrwt>0</asrwt>
<pdfrwt beam="1">  1       21 0.58507298E-02 0.30000000E+03</pdfrwt>
<pdfrwt beam="2">0</pdfrwt>
<totfact> 0.22006934E+04</totfact>
</mgrwt>
</event>
<event>
 6    1  0.6377696E-002  0.3000000E+03  0.7818608E-02  0.1093470E+00
         21   -1    0    0  501  502  0.00000000000E+00  0.00000000000E+00  0.22211017188E+01  0.22211017188E+01  0.00000000000E+00 0. -1.
         13   -1    0    0    0    0 -0.00000000000E+00 -0.00000000000E+00 -0.10000000000E+04  0.10000000000E+04  0.00000000000E+00 0.  1.
    9000005    2    1    2  501    0  0.38199477904E+02 -0.22845810147E+02 -0.33606557484E+03  0.33901249685E+03  0.28759822761E+01 0.  0.
         13    1    3    3    0    0  0.29130697037E+02 -0.16791472082E+02 -0.24502418540E+03  0.24732044492E+03  0.00000000000E+00 0.  1.
          3    1    3    3  501    0  0.90687808666E+01 -0.60543380653E+01 -0.91041389449E+02  0.91692051938E+02  0.00000000000E+00 0.  1.
         -3    1    1    2    0  502 -0.38199477904E+02  0.22845810147E+02 -0.66171332344E+03  0.66320860487E+03  0.00000000000E+00 0. -1.
<mgrwt>
<rscale>  1 0.30000000E+03</rscale>
<asrwt>0</asrwt>
<pdfrwt beam="1">  1       21 0.80767506E-02 0.30000000E+03</pdfrwt>
<pdfrwt beam="2">0</pdfrwt>
<totfact> 0.12561369E+04</totfact>
</mgrwt>
</event>
<event>
 6    1  0.6377696E-002  0.3000000E+03  0.7818608E-02  0.1093470E+00
         21   -1    0    0  501  502  0.00000000000E+00  0.00000000000E+00  0.10791596839E+01  0.10791596839E+01  0.00000000000E+00 0. -1.
         13   -1    0    0    0    0 -0.00000000000E+00 -0.00000000000E+00 -0.10000000000E+04  0.10000000000E+04  0.00000000000E+00 0.  1.
    9000005    2    1    2  501    0 -0.21593109366E+01  0.31806729123E+02 -0.61501460330E+03  0.61585152638E+03  0.37161311508E+01 0.  0.
         13    1    3    3    0    0  0.95171184893E+00  0.11830324358E+02 -0.22010313064E+03  0.22042289002E+03  0.00000000000E+00 0.  1.
          1    1    3    3  501    0 -0.31110227855E+01  0.19976404765E+02 -0.39491147266E+03  0.39542863635E+03  0.00000000000E+00 0.  1.
         -1    1    1    2    0  502  0.21593109366E+01 -0.31806729123E+02 -0.38390623702E+03  0.38522763331E+03  0.00000000000E+00 0. -1.
<mgrwt>
<rscale>  1 0.30000000E+03</rscale>
<asrwt>0</asrwt>
<pdfrwt beam="1">  1       21 0.39242253E-02 0.30000000E+03</pdfrwt>
<pdfrwt beam="2">0</pdfrwt>
<totfact> 0.43422963E+04</totfact>
</mgrwt>
</event>
<event>
 6    1  0.6377696E-002  0.3000000E+03  0.7818608E-02  0.1093470E+00
         21   -1    0    0  501  502  0.00000000000E+00  0.00000000000E+00  0.24539839964E+01  0.24539839964E+01  0.00000000000E+00 0. -1.
         13   -1    0    0    0    0 -0.00000000000E+00 -0.00000000000E+00 -0.10000000000E+04  0.10000000000E+04  0.00000000000E+00 0.  1.
    9000005    2    1    2  501    0 -0.22445571976E+02 -0.39995872268E+02 -0.31177503511E+03  0.31515105825E+03  0.36115786341E+01 0.  0.
         13    1    3    3    0    0 -0.14783600020E+02 -0.26748293643E+02 -0.19584084325E+03  0.19821115490E+03  0.00000000000E+00 0.  1.
          3    1    3    3  501    0 -0.76619719563E+01 -0.13247578625E+02 -0.11593419186E+03  0.11693990335E+03  0.00000000000E+00 0.  1.
         -1    1    1    2    0  502  0.22445571976E+02  0.39995872268E+02 -0.68577098090E+03  0.68730292575E+03  0.00000000000E+00 0. -1.
<mgrwt>
<rscale>  1 0.30000000E+03</rscale>
<asrwt>0</asrwt>
<pdfrwt beam="1">  1       21 0.89235970E-02 0.30000000E+03</pdfrwt>
<pdfrwt beam="2">0</pdfrwt>
<totfact> 0.10535971E+04</totfact>
</mgrwt>
</event>
<event>
 6    1  0.6377696E-002  0.3000000E+03  0.7818608E-02  0.1093470E+00
         21   -1    0    0  501  502  0.00000000000E+00  0.00000000000E+00  0.11713949225E+01  0.11713949225E+01  0.00000000000E+00 0. -1.
         13   -1    0    0    0    0 -0.00000000000E+00 -0.00000000000E+00 -0.10000000000E+04  0.10000000000E+04  0.00000000000E+00 0.  1.
    9000005    2    1    2  501    0 -0.31235080731E+02 -0.29694606589E+01 -0.30298315474E+03  0.30461892833E+03  0.30743249763E+01 0.  0.
         13    1    3    3    0    0 -0.29964566890E+02 -0.22223868139E+01 -0.28996235227E+03  0.29151497389E+03  0.00000000000E+00 0.  1.
          1    1    3    3  501    0 -0.12705138403E+01 -0.74707384505E+00 -0.13020802473E+02  0.13103954433E+02  0.00000000000E+00 0.  1.
         -1    1    1    2    0  502  0.31235080731E+02  0.29694606589E+01 -0.69584545034E+03  0.69655246660E+03  0.00000000000E+00 0. -1.
<mgrwt>
<rscale>  1 0.30000000E+03</rscale>
<asrwt>0</asrwt>
<pdfrwt beam="1">  1       21 0.42596269E-02 0.30000000E+03</pdfrwt>
<pdfrwt beam="2">0</pdfrwt>
<totfact> 0.37815069E+04</totfact>
</mgrwt>
</event>
<event>
 6    1  0.6377696E-002  0.3000000E+03  0.7818608E-02  0.1093470E+00
         21   -1    0    0  501  502  0.00000000000E+00  0.00000000000E+00  0.98396455446E+00  0.98396455446E+00  0.00000000000E+00 0. -1.
         13   -1    0    0    0    0 -0.00000000000E+00 -0.00000000000E+00 -0.10000000000E+04  0.10000000000E+04  0.00000000000E+00 0.  1.
    9000005    2    1    2  501    0  0.92786667175E+01  0.28886945818E+02 -0.62222270170E+03  0.62297104725E+03  0.33594500881E+01 0.  0.
         13    1    3    3    0    0  0.87412507916E+01  0.28499897320E+02 -0.61312973502E+03  0.61385399370E+03  0.00000000000E+00 0.  1.
          1    1    3    3  501    0  0.53741592590E+00  0.38704849816E+00 -0.90929666778E+01  0.91170535493E+01  0.00000000000E+00 0.  1.
         -3    1    1    2    0  502 -0.92786667175E+01 -0.28886945818E+02 -0.37679333375E+03  0.37801291731E+03  0.00000000000E+00 0. -1.
<mgrwt>
<rscale>  1 0.30000000E+03</rscale>
<asrwt>0</asrwt>
<pdfrwt beam="1">  1       21 0.35780605E-02 0.30000000E+03</pdfrwt>
<pdfrwt beam="2">0</pdfrwt>
<totfact> 0.50707418E+04</totfact>
</mgrwt>
</event>
<event>
 6    1  0.6377696E-002  0.3000000E+03  0.7818608E-02  0.1093470E+00
         21   -1    0    0  501  502  0.00000000000E+00  0.00000000000E+00  0.16042553186E+01  0.16042553186E+01  0.00000000000E+00 0. -1.
         13   -1    0    0    0    0 -0.00000000000E+00 -0.00000000000E+00 -0.10000000000E+04  0.10000000000E+04  0.00000000000E+00 0.  1.
    9000005    2    1    2  501    0  0.21523407615E+02  0.29089721691E+02 -0.28706074803E+03  0.28934942280E+03  0.31219276701E+01 0.  0.
         13    1    3    3    0    0  0.49419034944E+01  0.87179222308E+01 -0.84885275991E+02  0.85474760358E+02  0.00000000000E+00 0.  1.
          3    1    3    3  501    0  0.16581504121E+02  0.20371799461E+02 -0.20217547204E+03  0.20387466244E+03  0.00000000000E+00 0.  1.
         -3    1    1    2    0  502 -0.21523407615E+02 -0.29089721691E+02 -0.71133499665E+03  0.71225483252E+03  0.00000000000E+00 0. -1.
<mgrwt>
<rscale>  1 0.30000000E+03</rscale>
<asrwt>0</asrwt>
<pdfrwt beam="1">  1       21 0.58336680E-02 0.30000000E+03</pdfrwt>
<pdfrwt beam="2">0</pdfrwt>
<totfact> 0.22117947E+04</totfact>
</mgrwt>
</event>
<event>
 6    1  0.6377696E-002  0.3000000E+03  0.7818608E-02  0.1093470E+00
         21   -1    0    0  501  502  0.00000000000E+00  0.00000000000E+00  0.12034228855E+01  0.12034228855E+01  0.00000000000E+00 0. -1.
         13   -1    0    0    0    0 -0.00000000000E+00 -0.00000000000E+00 -0.10000000000E+04  0.10000000000E+04  0.00000000000E+00 0.  1.
    9000005    2    1    2  501    0 -0.29401842912E+02  0.71042073850E+01 -0.74326257185E+03  0.74388539791E+03  0.33610096652E+01 0.  0.
         13    1    3    3    0    0 -0.18078084072E+02  0.38564909044E+01 -0.49122330039E+03  0.49157097197E+03  0.00000000000E+00 0.  1.
          1    1    3    3  501    0 -0.11323758840E+02  0.32477164806E+01 -0.25203927146E+03  0.25231442594E+03  0.00000000000E+00 0.  1.
         -3    1    1    2    0  502  0.29401842912E+02 -0.71042073850E+01 -0.25553400526E+03  0.25731802497E+03  0.00000000000E+00 0. -1.
<mgrwt>
<rscale>  1 0.30000000E+03</rscale>
<asrwt>0</asrwt>
<pdfrwt beam="1">  1       21 0.43760924E-02 0.30000000E+03</pdfrwt>
<pdfrwt beam="2">0</pdfrwt>
<totfact> 0.36128243E+04</totfact>
</mgrwt>
</event>
<event>
 6    1  0.6377696E-002  0.3000000E+03  0.7818608E-02  0.1093470E+00
         21   -1    0    0  501  502  0.00000000000E+00  0.00000000000E+00  0.14538050222E+01  0.14538050222E+01  0.00000000000E+00 0. -1.
         13   -1    0    0    0    0 -0.00000000000E+00 -0.00000000000E+00 -0.10000000000E+04  0.10000000000E+04  0.00000000000E+00 0.  1.
    9000005    2    1    2  501    0 -0.36205301396E+02 -0.25561920583E+01 -0.65100816093E+03  0.65202563919E+03  0.29069910084E+01 0.  0.
         13    1    3    3    0    0 -0.23287501473E+02 -0.30294374458E+01 -0.42267740284E+03  0.42332927148E+03  0.00000000000E+00 0.  1.
          3    1    3    3  501    0 -0.12917799923E+02  0.47324538753E+00 -0.22833075809E+03  0.22869636771E+03  0.00000000000E+00 0.  1.
         -3    1    1    2    0  502  0.36205301396E+02  0.25561920583E+01 -0.34753803405E+03  0.34942816583E+03  0.00000000000E+00 0. -1.
<mgrwt>
<rscale>  1 0.30000000E+03</rscale>
<asrwt>0</asrwt>
<pdfrwt beam="1">  1       21 0.52865749E-02 0.30000000E+03</pdfrwt>
<pdfrwt beam="2">0</pdfrwt>
<totfact> 0.26190217E+04</totfact>
</mgrwt>
</event>
<event>
 6    1  0.6377696E-002  0.3000000E+03  0.7818608E-02  0.1093470E+00
         21   -1    0    0  501  502  0.00000000000E+00  0.00000000000E+00  0.20374141111E+01  0.20374141111E+01  0.00000000000E+00 0. -1.
         13   -1    0    0    0    0 -0.00000000000E+00 -0.00000000000E+00 -0.10000000000E+04  0.10000000000E+04  0.00000000000E+00 0.  1.
    9000005    2    1    2  501    0  0.31442831564E+02 -0.10924989737E+02 -0.16261343953E+03  0.16602533084E+03  0.36431725644E+01 0.  0.
         13    1    3    3    0    0  0.13194714914E+02 -0.27707862284E+01 -0.68029536543E+02  0.69352689928E+02  0.00000000000E+00 0.  1.
          3    1    3    3  501    0  0.18248116650E+02 -0.81542035086E+01 -0.94583902989E+02  0.96672640911E+02  0.00000000000E+00 0.  1.
         -3    1    1    2    0  502 -0.31442831564E+02  0.10924989737E+02 -0.83534914636E+03  0.83601208327E+03  0.00000000000E+00 0. -1.
<mgrwt>
<rscale>  1 0.30000000E+03</rscale>
<asrwt>0</asrwt>
<pdfrwt beam="1">  1       21 0.74087942E-02 0.30000000E+03</pdfrwt>
<pdfrwt beam="2">0</pdfrwt>
<totfact> 0.14614095E+04</totfact>
</mgrwt>
</event>
<event>
 6    1  0.6377696E-002  0.3000000E+03  0.7818608E-02  0.1093470E+00
         21   -1    0    0  501  502  0.00000000000E+00  0.00000000000E+00  0.92631060881E+00  0.92631060881E+00  0.00000000000E+00 0. -1.
         13   -1    0    0    0    0 -0.00000000000E+00 -0.00000000000E+00 -0.10000000000E+04  0.10000000000E+04  0.00000000000E+00 0.  1.
    9000005    2    1    2  501    0  0.29589756556E+02 -0.59285855086E+01 -0.55432438818E+03  0.55515434789E+03  0.31813251734E+01 0.  0.
         13    1    3    3    0    0 -0.65759626875E-01  0.15742091701E-02 -0.33034641321E+01  0.33041189565E+01  0.00000000000E+00 0.  1.
          1    1    3    3  501    0  0.29655516183E+02 -0.59301597178E+01 -0.55102092404E+03  0.55185022893E+03  0.00000000000E+00 0.  1.
         -3    1    1    2    0  502 -0.29589756556E+02  0.59285855086E+01 -0.44474930122E+03  0.44577196272E+03  0.00000000000E+00 0. -1.
<mgrwt>
<rscale>  1 0.30000000E+03</rscale>
<asrwt>0</asrwt>
<pdfrwt beam="1">  1       21 0.33684093E-02 0.30000000E+03</pdfrwt>
<pdfrwt beam="2">0</pdfrwt>
<totfact> 0.56099087E+04</totfact>
</mgrwt>
</event>
<event>
 6    1  0.6377696E-002  0.3000000E+03  0.7818608E-02  0.1093470E+00
         21   -1    0    0  501  502  0.00000000000E+00  0.00000000000E+00  0.11296182032E+01  0.11296182032E+01  0.00000000000E+00 0. -1.
         13   -1    0    0    0    0 -0.00000000000E+00 -0.00000000000E+00 -0.10000000000E+04  0.10000000000E+04  0.00000000000E+00 0.  1.
    9000005    2    1    2  501    0  0.31159420398E+02  0.48729193463E+01 -0.33140900955E+03  0.33292355847E+03  0.33925434483E+01 0.  0.
         13    1    3    3    0    0  0.19598992528E+02  0.38290534926E+01 -0.19395529687E+03  0.19498061273E+03  0.00000000000E+00 0.  1.
          3    1    3    3  501    0  0.11560427869E+02  0.10438658538E+01 -0.13745371269E+03  0.13794294574E+03  0.00000000000E+00 0.  1.
         -3    1    1    2    0  502 -0.31159420398E+02 -0.48729193463E+01 -0.66746137224E+03  0.66820605973E+03  0.00000000000E+00 0. -1.
<mgrwt>
<rscale>  1 0.30000000E+03</rscale>
<asrwt>0</asrwt>
<pdfrwt beam="1">  1       21 0.41077112E-02 0.30000000E+03</pdfrwt>
<pdfrwt beam="2">0</pdfrwt>
<totfact> 0.40206035E+04</totfact>
</mgrwt>
</event>
<event>
 6    1  0.6377696E-002  0.3000000E+03  0.7818608E-02  0.1093470E+00
         21   -1    0    0  501  502  0.00000000000E+00  0.00000000000E+00  0.17571643131E+01  0.17571643131E+01  0.00000000000E+00 0. -1.
         13   -1    0    0    0    0 -0.00000000000E+00 -0.00000000000E+00 -0.10000000000E+04  0.10000000000E+04  0.00000000000E+00 0.  1.
    9000005    2    1    2  501    0 -0.35899833871E+02  0.89396641890E+01 -0.26736109417E+03  0.26993967631E+03  0.40937148847E+01 0.  0.
         13    1    3    3    0    0 -0.71472267187E+01  0.29408268942E+01 -0.65074134200E+02  0.65531475296E+02  0.00000000000E+00 0.  1.
          1    1    3    3  501    0 -0.28752607153E+02  0.59988372949E+01 -0.20228695997E+03  0.20440820101E+03  0.00000000000E+00 0.  1.
         -3    1    1    2    0  502  0.35899833871E+02 -0.89396641890E+01 -0.73088174151E+03  0.73181748800E+03  0.00000000000E+00 0. -1.
<mgrwt>
<rscale>  1 0.30000000E+03</rscale>
<asrwt>0</asrwt>
<pdfrwt beam="1">  1       21 0.63897019E-02 0.30000000E+03</pdfrwt>
<pdfrwt beam="2">0</pdfrwt>
<totfact> 0.18901656E+04</totfact>
</mgrwt>
</event>
<event>
 6    1  0.6377696E-002  0.3000000E+03  0.7818608E-02  0.1093470E+00
         21   -1    0    0  501  502  0.00000000000E+00  0.00000000000E+00  0.11985752636E+01  0.11985752636E+01  0.00000000000E+00 0. -1.
         13   -1    0    0    0    0 -0.00000000000E+00 -0.00000000000E+00 -0.10000000000E+04  0.10000000000E+04  0.00000000000E+00 0.  1.
    9000005    2    1    2  501    0  0.32587769564E+02 -0.68282251834E+01 -0.63385890290E+03  0.63474034896E+03  0.31007132622E+01 0.  0.
         13    1    3    3    0    0  0.99744350907E+00  0.14184186817E+00 -0.12863117058E+02  0.12902511117E+02  0.00000000000E+00 0.  1.
          1    1    3    3  501    0  0.31590326055E+02 -0.69700670516E+01 -0.62099578584E+03  0.62183783784E+03  0.00000000000E+00 0.  1.
         -1    1    1    2    0  502 -0.32587769564E+02  0.68282251834E+01 -0.36494252183E+03  0.36645822631E+03  0.00000000000E+00 0. -1.
<mgrwt>
<rscale>  1 0.30000000E+03</rscale>
<asrwt>0</asrwt>
<pdfrwt beam="1">  1       21 0.43584647E-02 0.30000000E+03</pdfrwt>
<pdfrwt beam="2">0</pdfrwt>
<totfact> 0.36375978E+04</totfact>
</mgrwt>
</event>
<event>
 6    1  0.6377696E-002  0.3000000E+03  0.7818608E-02  0.1093470E+00
         21   -1    0    0  501  502  0.00000000000E+00  0.00000000000E+00  0.33165207034E+01  0.33165207034E+01  0.00000000000E+00 0. -1.
         13   -1    0    0    0    0 -0.00000000000E+00 -0.00000000000E+00 -0.10000000000E+04  0.10000000000E+04  0.00000000000E+00 0.  1.
    9000005    2    1    2  501    0  0.13863136935E+02  0.54553309818E+02 -0.60301096041E+03  0.60564039330E+03  0.31332806768E+01 0.  0.
         13    1    3    3    0    0  0.49606164170E+00  0.23663819370E+01 -0.19943130869E+02  0.20089159004E+02  0.00000000000E+00 0.  1.
          1    1    3    3  501    0  0.13367075293E+02  0.52186927881E+02 -0.58306782954E+03  0.58555123430E+03  0.00000000000E+00 0.  1.
         -1    1    1    2    0  502 -0.13863136935E+02 -0.54553309818E+02 -0.39367251889E+03  0.39767612740E+03  0.00000000000E+00 0. -1.
<mgrwt>
<rscale>  1 0.30000000E+03</rscale>
<asrwt>0</asrwt>
<pdfrwt beam="1">  1       21 0.12060101E-01 0.30000000E+03</pdfrwt>
<pdfrwt beam="2">0</pdfrwt>
<totfact> 0.61411673E+03</totfact>
</mgrwt>
</event>
<event>
 6    1  0.6377696E-002  0.3000000E+03  0.7818608E-02  0.1093470E+00
         21   -1    0    0  501  502  0.00000000000E+00  0.00000000000E+00  0.25594264908E+01  0.25594264908E+01  0.00000000000E+00 0. -1.
         13   -1    0    0    0    0 -0.00000000000E+00 -0.00000000000E+00 -0.10000000000E+04  0.10000000000E+04  0.00000000000E+00 0.  1.
    9000005    2    1    2  501    0  0.11127765491E+02  0.44860307723E+02 -0.29690568612E+03  0.30050144967E+03  0.34438970981E+01 0.  0.
         13    1    3    3    0    0  0.37992084680E+01  0.18138766765E+02 -0.10911344044E+03  0.11067606666E+03  0.00000000000E+00 0.  1.
          3    1    3    3  501    0  0.73285570229E+01  0.26721540959E+02 -0.18779224568E+03  0.18982538302E+03  0.00000000000E+00 0.  1.
         -3    1    1    2    0  502 -0.11127765491E+02 -0.44860307723E+02 -0.70053488738E+03  0.70205797682E+03  0.00000000000E+00 0. -1.
<mgrwt>
<rscale>  1 0.30000000E+03</rscale>
<asrwt>0</asrwt>
<pdfrwt beam="1">  1       21 0.93070250E-02 0.30000000E+03</pdfrwt>
<pdfrwt beam="2">0</pdfrwt>
<totfact> 0.97783587E+03</totfact>
</mgrwt>
</event>
<event>
 6    1  0.6377696E-002  0.3000000E+03  0.7818608E-02  0.1093470E+00
         21   -1    0    0  501  502  0.00000000000E+00  0.00000000000E+00  0.10730154428E+01  0.10730154428E+01  0.00000000000E+00 0. -1.
         13   -1    0    0    0    0 -0.00000000000E+00 -0.00000000000E+00 -0.10000000000E+04  0.10000000000E+04  0.00000000000E+00 0.  1.
    9000005    2    1    2  501    0 -0.24690609190E+02  0.20720120951E+02 -0.41772477754E+03  0.41897770105E+03  0.30617990492E+01 0.  0.
         13    1    3    3    0    0 -0.24385429387E+02  0.19905376324E+02 -0.40905157535E+03  0.41026097118E+03  0.00000000000E+00 0.  1.
          1    1    3    3  501    0 -0.30517980235E+00  0.81474462685E+00 -0.86732021838E+01  0.87167298708E+01  0.00000000000E+00 0.  1.
         -3    1    1    2    0  502  0.24690609190E+02 -0.20720120951E+02 -0.58120220702E+03  0.58209531439E+03  0.00000000000E+00 0. -1.
<mgrwt>
<rscale>  1 0.30000000E+03</rscale>
<asrwt>0</asrwt>
<pdfrwt beam="1">  1       21 0.39018826E-02 0.30000000E+03</pdfrwt>
<pdfrwt beam="2">0</pdfrwt>
<totfact> 0.43842065E+04</totfact>
</mgrwt>
</event>
<event>
 6    1  0.6377696E-002  0.3000000E+03  0.7818608E-02  0.1093470E+00
         21   -1    0    0  501  502  0.00000000000E+00  0.00000000000E+00  0.14253727409E+01  0.14253727409E+01  0.00000000000E+00 0. -1.
         13   -1    0    0    0    0 -0.00000000000E+00 -0.00000000000E+00 -0.10000000000E+04  0.10000000000E+04  0.00000000000E+00 0.  1.
    9000005    2    1    2  501    0  0.93720907712E+01 -0.35668853690E+02 -0.60017964527E+03  0.60132705372E+03  0.43029908882E+01 0.  0.
         13    1    3    3    0    0  0.76751920608E+01 -0.22064424389E+02 -0.39428593709E+03  0.39497740135E+03  0.00000000000E+00 0.  1.
          1    1    3    3  501    0  0.16968987104E+01 -0.13604429301E+02 -0.20589370818E+03  0.20634965236E+03  0.00000000000E+00 0.  1.
         -1    1    1    2    0  502 -0.93720907712E+01  0.35668853690E+02 -0.39839498199E+03  0.40009831903E+03  0.00000000000E+00 0. -1.
<mgrwt>
<rscale>  1 0.30000000E+03</rscale>
<asrwt>0</asrwt>
<pdfrwt beam="1">  1       21 0.51831845E-02 0.30000000E+03</pdfrwt>
<pdfrwt beam="2">0</pdfrwt>
<totfact> 0.27089347E+04</totfact>
</mgrwt>
</event>
<event>
 6    1  0.6377696E-002  0.3000000E+03  0.7818608E-02  0.1093470E+00
         21   -1    0    0  501  502  0.00000000000E+00  0.00000000000E+00  0.20006888631E+01  0.20006888631E+01  0.00000000000E+00 0. -1.
         13   -1    0    0    0    0 -0.00000000000E+00 -0.00000000000E+00 -0.10000000000E+04  0.10000000000E+04  0.00000000000E+00 0.  1.
    9000005    2    1    2  501    0 -0.29211381753E+02  0.25487602835E+02 -0.74797165181E+03  0.74898536690E+03  0.38164366822E+01 0.  0.
         13    1    3    3    0    0 -0.22551666005E+02  0.18112082466E+02 -0.53323385522E+03  0.53401776143E+03  0.00000000000E+00 0.  1.
          3    1    3    3  501    0 -0.66597157471E+01  0.73755203692E+01 -0.21473779660E+03  0.21496760547E+03  0.00000000000E+00 0.  1.
         -1    1    1    2    0  502  0.29211381753E+02 -0.25487602835E+02 -0.25002765932E+03  0.25301532196E+03  0.00000000000E+00 0. -1.
<mgrwt>
<rscale>  1 0.30000000E+03</rscale>
<asrwt>0</asrwt>
<pdfrwt beam="1">  1       21 0.72752476E-02 0.30000000E+03</pdfrwt>
<pdfrwt beam="2">0</pdfrwt>
<totfact> 0.15086158E+04</totfact>
</mgrwt>
</event>
<event>
 6    1  0.6377696E-002  0.3000000E+03  0.7818608E-02  0.1093470E+00
         21   -1    0    0  501  502  0.00000000000E+00  0.00000000000E+00  0.15459657064E+01  0.15459657064E+01  0.00000000000E+00 0. -1.
         13   -1    0    0    0    0 -0.00000000000E+00 -0.00000000000E+00 -0.10000000000E+04  0.10000000000E+04  0.00000000000E+00 0.  1.
    9000005    2    1    2  501    0 -0.20548252751E+02 -0.26368267001E+02 -0.76207260167E+03  0.76281243667E+03  0.32629941107E+01 0.  0.
         13    1    3    3    0    0 -0.18537418063E+02 -0.25000317359E+02 -0.69741850215E+03  0.69811261189E+03  0.00000000000E+00 0.  1.
          3    1    3    3  501    0 -0.20108346874E+01 -0.13679496419E+01 -0.64654099522E+02  0.64699824787E+02  0.00000000000E+00 0.  1.
         -1    1    1    2    0  502  0.20548252751E+02  0.26368267001E+02 -0.23638143262E+03  0.23873352903E+03  0.00000000000E+00 0. -1.
<mgrwt>
<rscale>  1 0.30000000E+03</rscale>
<asrwt>0</asrwt>
<pdfrwt beam="1">  1       21 0.56217053E-02 0.30000000E+03</pdfrwt>
<pdfrwt beam="2">0</pdfrwt>
<totfact> 0.23571944E+04</totfact>
</mgrwt>
</event>
<event>
 6    1  0.6377696E-002  0.3000000E+03  0.7818608E-02  0.1093470E+00
         21   -1    0    0  501  502  0.00000000000E+00  0.00000000000E+00  0.34800177677E+01  0.34800177677E+01  0.00000000000E+00 0. -1.
         13   -1    0    0    0    0 -0.00000000000E+00 -0.00000000000E+00 -0.10000000000E+04  0.10000000000E+04  0.00000000000E+00 0.  1.
    9000005    2    1    2  501    0 -0.11527214720E+02  0.57195771590E+02 -0.56572878468E+03  0.56875563514E+03  0.54480927875E+01 0.  0.
         13    1    3    3    0    0 -0.34533851196E+01  0.16442102534E+02 -0.14000561163E+03  0.14101007018E+03  0.00000000000E+00 0.  1.
          3    1    3    3  501    0 -0.80738296005E+01  0.40753669056E+02 -0.42572317305E+03  0.42774556495E+03  0.00000000000E+00 0.  1.
         -1    1    1    2    0  502  0.11527214720E+02 -0.57195771590E+02 -0.43079119755E+03  0.43472438263E+03  0.00000000000E+00 0. -1.
<mgrwt>
<rscale>  1 0.30000000E+03</rscale>
<asrwt>0</asrwt>
<pdfrwt beam="1">  1       21 0.12654637E-01 0.30000000E+03</pdfrwt>
<pdfrwt beam="2">0</pdfrwt>
<totfact> 0.56262299E+03</totfact>
</mgrwt>
</event>
<event>
 6    1  0.6377696E-002  0.3000000E+03  0.7818608E-02  0.1093470E+00
         21   -1    0    0  501  502  0.00000000000E+00  0.00000000000E+00  0.11935203451E+01  0.11935203451E+01  0.00000000000E+00 0. -1.
         13   -1    0    0    0    0 -0.00000000000E+00 -0.00000000000E+00 -0.10000000000E+04  0.10000000000E+04  0.00000000000E+00 0.  1.
    9000005    2    1    2  501    0 -0.15582318301E+02 -0.30235076722E+02 -0.58087816627E+03  0.58188332057E+03  0.34331033308E+01 0.  0.
         13    1    3    3    0    0 -0.27490078148E+00 -0.58820404410E+00 -0.54312231662E+01  0.54698939220E+01  0.00000000000E+00 0.  1.
          1    1    3    3  501    0 -0.15307417520E+02 -0.29646872678E+02 -0.57544694310E+03  0.57641342664E+03  0.00000000000E+00 0.  1.
         -1    1    1    2    0  502  0.15582318301E+02  0.30235076722E+02 -0.41792831339E+03  0.41931019978E+03  0.00000000000E+00 0. -1.
<mgrwt>
<rscale>  1 0.30000000E+03</rscale>
<asrwt>0</asrwt>
<pdfrwt beam="1">  1       21 0.43400831E-02 0.30000000E+03</pdfrwt>
<pdfrwt beam="2">0</pdfrwt>
<totfact> 0.36637119E+04</totfact>
</mgrwt>
</event>
<event>
 6    1  0.6377696E-002  0.3000000E+03  0.7818608E-02  0.1093470E+00
         21   -1    0    0  501  502  0.00000000000E+00  0.00000000000E+00  0.13985068789E+01  0.13985068789E+01  0.00000000000E+00 0. -1.
         13   -1    0    0    0    0 -0.00000000000E+00 -0.00000000000E+00 -0.10000000000E+04  0.10000000000E+04  0.00000000000E+00 0.  1.
    9000005    2    1    2  501    0 -0.28325973421E+02  0.20111456999E+02 -0.31838038010E+03  0.32029088390E+03  0.36540946182E+01 0.  0.
         13    1    3    3    0    0 -0.18291774234E+02  0.10806564572E+02 -0.19489690264E+03  0.19605145626E+03  0.00000000000E+00 0.  1.
          1    1    3    3  501    0 -0.10034199187E+02  0.93048924265E+01 -0.12348347746E+03  0.12423942764E+03  0.00000000000E+00 0.  1.
         -3    1    1    2    0  502  0.28325973421E+02 -0.20111456999E+02 -0.68022111303E+03  0.68110762298E+03  0.00000000000E+00 0. -1.
<mgrwt>
<rscale>  1 0.30000000E+03</rscale>
<asrwt>0</asrwt>
<pdfrwt beam="1">  1       21 0.50854903E-02 0.30000000E+03</pdfrwt>
<pdfrwt beam="2">0</pdfrwt>
<totfact> 0.27983737E+04</totfact>
</mgrwt>
</event>
<event>
 6    1  0.6377696E-002  0.3000000E+03  0.7818608E-02  0.1093470E+00
         21   -1    0    0  501  502  0.00000000000E+00  0.00000000000E+00  0.99439632528E+00  0.99439632528E+00  0.00000000000E+00 0. -1.
         13   -1    0    0    0    0 -0.00000000000E+00 -0.00000000000E+00 -0.10000000000E+04  0.10000000000E+04  0.00000000000E+00 0.  1.
    9000005    2    1    2  501    0  0.87742416902E+01 -0.30099960328E+02 -0.46339247529E+03  0.46446441745E+03  0.34079314882E+01 0.  0.
         13    1    3    3    0    0  0.83174166161E+00 -0.57134869151E+01 -0.70750055529E+02  0.70985252583E+02  0.00000000000E+00 0.  1.
          1    1    3    3  501    0  0.79425000285E+01 -0.24386473413E+02 -0.39264241976E+03  0.39347916487E+03  0.00000000000E+00 0.  1.
         -1    1    1    2    0  502 -0.87742416902E+01  0.30099960328E+02 -0.53561312838E+03  0.53652997887E+03  0.00000000000E+00 0. -1.
<mgrwt>
<rscale>  1 0.30000000E+03</rscale>
<asrwt>0</asrwt>
<pdfrwt beam="1">  1       21 0.36159943E-02 0.30000000E+03</pdfrwt>
<pdfrwt beam="2">0</pdfrwt>
<totfact> 0.49818557E+04</totfact>
</mgrwt>
</event>
<event>
 6    1  0.6377696E-002  0.3000000E+03  0.7818608E-02  0.1093470E+00
         21   -1    0    0  501  502  0.00000000000E+00  0.00000000000E+00  0.26109096063E+01  0.26109096063E+01  0.00000000000E+00 0. -1.
         13   -1    0    0    0    0 -0.00000000000E+00 -0.00000000000E+00 -0.10000000000E+04  0.10000000000E+04  0.00000000000E+00 0.  1.
    9000005    2    1    2  501    0  0.45123657881E+02 -0.22909762863E+02 -0.49418247651E+03  0.49686601542E+03  0.99254953985E+01 0.  0.
         13    1    3    3    0    0  0.25927712197E+02 -0.15045151964E+02 -0.33477169999E+03  0.33611113336E+03  0.00000000000E+00 0.  1.
          3    1    3    3  501    0  0.19195945684E+02 -0.78646108985E+01 -0.15941077652E+03  0.16075488206E+03  0.00000000000E+00 0.  1.
         -1    1    1    2    0  502 -0.45123657881E+02  0.22909762863E+02 -0.50320661388E+03  0.50574489418E+03  0.00000000000E+00 0. -1.
<mgrwt>
<rscale>  1 0.30000000E+03</rscale>
<asrwt>0</asrwt>
<pdfrwt beam="1">  1       21 0.94942368E-02 0.30000000E+03</pdfrwt>
<pdfrwt beam="2">0</pdfrwt>
<totfact> 0.94379204E+03</totfact>
</mgrwt>
</event>
<event>
 6    1  0.6377696E-002  0.3000000E+03  0.7818608E-02  0.1093470E+00
         21   -1    0    0  501  502  0.00000000000E+00  0.00000000000E+00  0.14287580079E+01  0.14287580079E+01  0.00000000000E+00 0. -1.
         13   -1    0    0    0    0 -0.00000000000E+00 -0.00000000000E+00 -0.10000000000E+04  0.10000000000E+04  0.00000000000E+00 0.  1.
    9000005    2    1    2  501    0  0.30758496769E+02 -0.13686344287E+02 -0.72578827981E+03  0.72657616915E+03  0.33017159251E+01 0.  0.
         13    1    3    3    0    0  0.17776859552E+02 -0.96807665634E+01 -0.43348381511E+03  0.43395616361E+03  0.00000000000E+00 0.  1.
          3    1    3    3  501    0  0.12981637217E+02 -0.40055777240E+01 -0.29230446470E+03  0.29262000554E+03  0.00000000000E+00 0.  1.
         -3    1    1    2    0  502 -0.30758496769E+02  0.13686344287E+02 -0.27278296218E+03  0.27485258886E+03  0.00000000000E+00 0. -1.
<mgrwt>
<rscale>  1 0.30000000E+03</rscale>
<asrwt>0</asrwt>
<pdfrwt beam="1">  1       21 0.51954946E-02 0.30000000E+03</pdfrwt>
<pdfrwt beam="2">0</pdfrwt>
<totfact> 0.26979803E+04</totfact>
</mgrwt>
</event>
<event>
 6    1  0.6377696E-002  0.3000000E+03  0.7818608E-02  0.1093470E+00
         21   -1    0    0  501  502  0.00000000000E+00  0.00000000000E+00  0.11119923449E+01  0.11119923449E+01  0.00000000000E+00 0. -1.
         13   -1    0    0    0    0 -0.00000000000E+00 -0.00000000000E+00 -0.10000000000E+04  0.10000000000E+04  0.00000000000E+00 0.  1.
    9000005    2    1    2  501    0 -0.44619231290E+01 -0.32937690997E+02 -0.48716843527E+03  0.48831405844E+03  0.35686284602E+01 0.  0.
         13    1    3    3    0    0 -0.31292984742E+01 -0.18612684081E+02 -0.25183152583E+03  0.25253780296E+03  0.00000000000E+00 0.  1.
          3    1    3    3  501    0 -0.13326246549E+01 -0.14325006915E+02 -0.23533690943E+03  0.23577625549E+03  0.00000000000E+00 0.  1.
         -1    1    1    2    0  502  0.44619231290E+01  0.32937690997E+02 -0.51171957239E+03  0.51279793390E+03  0.00000000000E+00 0. -1.
<mgrwt>
<rscale>  1 0.30000000E+03</rscale>
<asrwt>0</asrwt>
<pdfrwt beam="1">  1       21 0.40436171E-02 0.30000000E+03</pdfrwt>
<pdfrwt beam="2">0</pdfrwt>
<totfact> 0.41286143E+04</totfact>
</mgrwt>
</event>
<event>
 6    1  0.6377696E-002  0.3000000E+03  0.7818608E-02  0.1093470E+00
         21   -1    0    0  501  502  0.00000000000E+00  0.00000000000E+00  0.15115106688E+01  0.15115106688E+01  0.00000000000E+00 0. -1.
         13   -1    0    0    0    0 -0.00000000000E+00 -0.00000000000E+00 -0.10000000000E+04  0.10000000000E+04  0.00000000000E+00 0.  1.
    9000005    2    1    2  501    0 -0.35688554323E+02 -0.15164669358E+02 -0.48027454234E+03  0.48184879797E+03  0.33148129951E+01 0.  0.
         13    1    3    3    0    0 -0.26288012378E+02 -0.11727538914E+02 -0.37243580190E+03  0.37354654502E+03  0.00000000000E+00 0.  1.
          1    1    3    3  501    0 -0.94005419446E+01 -0.34371304443E+01 -0.10783874044E+03  0.10830225295E+03  0.00000000000E+00 0.  1.
         -3    1    1    2    0  502  0.35688554323E+02  0.15164669358E+02 -0.51821394699E+03  0.51966271270E+03  0.00000000000E+00 0. -1.
<mgrwt>
<rscale>  1 0.30000000E+03</rscale>
<asrwt>0</asrwt>
<pdfrwt beam="1">  1       21 0.54964140E-02 0.30000000E+03</pdfrwt>
<pdfrwt beam="2">0</pdfrwt>
<totfact> 0.24501534E+04</totfact>
</mgrwt>
</event>
<event>
 6    1  0.6377696E-002  0.3000000E+03  0.7818608E-02  0.1093470E+00
         21   -1    0    0  501  502  0.00000000000E+00  0.00000000000E+00  0.24452329415E+01  0.24452329415E+01  0.00000000000E+00 0. -1.
         13   -1    0    0    0    0 -0.00000000000E+00 -0.00000000000E+00 -0.10000000000E+04  0.10000000000E+04  0.00000000000E+00 0.  1.
    9000005    2    1    2  501    0  0.12031522581E+02 -0.47706314203E+02 -0.45479390138E+03  0.45745898792E+03  0.32531440105E+01 0.  0.
         13    1    3    3    0    0  0.71013650609E+01 -0.31087245413E+02 -0.28160343153E+03  0.28340313842E+03  0.00000000000E+00 0.  1.
          1    1    3    3  501    0  0.49301575200E+01 -0.16619068790E+02 -0.17319046985E+03  0.17405584951E+03  0.00000000000E+00 0.  1.
         -1    1    1    2    0  502 -0.12031522581E+02  0.47706314203E+02 -0.54276086567E+03  0.54498624502E+03  0.00000000000E+00 0. -1.
<mgrwt>
<rscale>  1 0.30000000E+03</rscale>
<asrwt>0</asrwt>
<pdfrwt beam="1">  1       21 0.88917749E-02 0.30000000E+03</pdfrwt>
<pdfrwt beam="2">0</pdfrwt>
<totfact> 0.10602804E+04</totfact>
</mgrwt>
</event>
<event>
 6    1  0.6377696E-002  0.3000000E+03  0.7818608E-02  0.1093470E+00
         21   -1    0    0  501  502  0.00000000000E+00  0.00000000000E+00  0.30308025882E+01  0.30308025882E+01  0.00000000000E+00 0. -1.
         13   -1    0    0    0    0 -0.00000000000E+00 -0.00000000000E+00 -0.10000000000E+04  0.10000000000E+04  0.00000000000E+00 0.  1.
    9000005    2    1    2  501    0  0.48840245150E+02 -0.22720204030E+02 -0.41076352787E+03  0.41435545554E+03  0.78860948039E+01 0.  0.
         13    1    3    3    0    0  0.12068334567E+02 -0.20803778634E+01 -0.97873181312E+02  0.98636363941E+02  0.00000000000E+00 0.  1.
          1    1    3    3  501    0  0.36771910584E+02 -0.20639826167E+02 -0.31289034655E+03  0.31571909160E+03  0.00000000000E+00 0.  1.
         -1    1    1    2    0  502 -0.48840245150E+02  0.22720204030E+02 -0.58620566955E+03  0.58867534705E+03  0.00000000000E+00 0. -1.
<mgrwt>
<rscale>  1 0.30000000E+03</rscale>
<asrwt>0</asrwt>
<pdfrwt beam="1">  1       21 0.11021124E-01 0.30000000E+03</pdfrwt>
<pdfrwt beam="2">0</pdfrwt>
<totfact> 0.72270327E+03</totfact>
</mgrwt>
</event>
<event>
 6    1  0.6377696E-002  0.3000000E+03  0.7818608E-02  0.1093470E+00
         21   -1    0    0  501  502  0.00000000000E+00  0.00000000000E+00  0.12627003072E+01  0.12627003072E+01  0.00000000000E+00 0. -1.
         13   -1    0    0    0    0 -0.00000000000E+00 -0.00000000000E+00 -0.10000000000E+04  0.10000000000E+04  0.00000000000E+00 0.  1.
    9000005    2    1    2  501    0 -0.18333234221E+02 -0.28294007501E+02 -0.65553397433E+03  0.65640739604E+03  0.30364032333E+01 0.  0.
         13    1    3    3    0    0 -0.17504410012E+02 -0.27666578466E+02 -0.62652879901E+03  0.62738359871E+03  0.00000000000E+00 0.  1.
          3    1    3    3  501    0 -0.82882420913E+00 -0.62742903487E+00 -0.29005175313E+02  0.29023797334E+02  0.00000000000E+00 0.  1.
         -1    1    1    2    0  502  0.18333234221E+02  0.28294007501E+02 -0.34320332537E+03  0.34485530427E+03  0.00000000000E+00 0. -1.
<mgrwt>
<rscale>  1 0.30000000E+03</rscale>
<asrwt>0</asrwt>
<pdfrwt beam="1">  1       21 0.45916472E-02 0.30000000E+03</pdfrwt>
<pdfrwt beam="2">0</pdfrwt>
<totfact> 0.33298443E+04</totfact>
</mgrwt>
</event>
<event>
 6    1  0.6377696E-002  0.3000000E+03  0.7818608E-02  0.1093470E+00
         21   -1    0    0  501  502  0.00000000000E+00  0.00000000000E+00  0.12327662183E+01  0.12327662183E+01  0.00000000000E+00 0. -1.
         13   -1    0    0    0    0 -0.00000000000E+00 -0.00000000000E+00 -0.10000000000E+04  0.10000000000E+04  0.00000000000E+00 0.  1.
    9000005    2    1    2  501    0 -0.31368089777E+02 -0.14998674326E+02 -0.56196428558E+03  0.56304817858E+03  0.32366409564E+01 0.  0.
         13    1    3    3    0    0 -0.15035502808E+02 -0.54019814472E+01 -0.25704310010E+03  0.25753912918E+03  0.00000000000E+00 0.  1.
          3    1    3    3  501    0 -0.16332586970E+02 -0.95966928784E+01 -0.30492118548E+03  0.30550904941E+03  0.00000000000E+00 0.  1.
         -1    1    1    2    0  502  0.31368089777E+02  0.14998674326E+02 -0.43680294820E+03  0.43818458764E+03  0.00000000000E+00 0. -1.
<mgrwt>
<rscale>  1 0.30000000E+03</rscale>
<asrwt>0</asrwt>
<pdfrwt beam="1">  1       21 0.44827957E-02 0.30000000E+03</pdfrwt>
<pdfrwt beam="2">0</pdfrwt>
<totfact> 0.34682862E+04</totfact>
</mgrwt>
</event>
<event>
 6    1  0.6377696E-002  0.3000000E+03  0.7818608E-02  0.1093470E+00
         21   -1    0    0  501  502  0.00000000000E+00  0.00000000000E+00  0.30316582812E+01  0.30316582812E+01  0.00000000000E+00 0. -1.
         13   -1    0    0    0    0 -0.00000000000E+00 -0.00000000000E+00 -0.10000000000E+04  0.10000000000E+04  0.00000000000E+00 0.  1.
    9000005    2    1    2  501    0  0.20581134706E+02  0.50834595923E+02 -0.46443541048E+03  0.46768218167E+03  0.43166306592E+01 0.  0.
         13    1    3    3    0    0  0.20270471663E+02  0.48727369641E+02 -0.45127805948E+03  0.45435353585E+03  0.00000000000E+00 0.  1.
          1    1    3    3  501    0  0.31066304301E+00  0.21072262820E+01 -0.13157350999E+02  0.13328645822E+02  0.00000000000E+00 0.  1.
         -1    1    1    2    0  502 -0.20581134706E+02 -0.50834595923E+02 -0.53253293124E+03  0.53534947661E+03  0.00000000000E+00 0. -1.
<mgrwt>
<rscale>  1 0.30000000E+03</rscale>
<asrwt>0</asrwt>
<pdfrwt beam="1">  1       21 0.11024235E-01 0.30000000E+03</pdfrwt>
<pdfrwt beam="2">0</pdfrwt>
<totfact> 0.72233626E+03</totfact>
</mgrwt>
</event>
<event>
 6    1  0.6377696E-002  0.3000000E+03  0.7818608E-02  0.1093470E+00
         21   -1    0    0  501  502  0.00000000000E+00  0.00000000000E+00  0.36273037780E+01  0.36273037780E+01  0.00000000000E+00 0. -1.
         13   -1    0    0    0    0 -0.00000000000E+00 -0.00000000000E+00 -0.10000000000E+04  0.10000000000E+04  0.00000000000E+00 0.  1.
    9000005    2    1    2  501    0  0.35647518441E+01  0.59969299473E+02 -0.46983183633E+03  0.47367041735E+03  0.35616723056E+01 0.  0.
         13    1    3    3    0    0  0.15328189962E+00  0.30843779384E+02 -0.23614782613E+03  0.23815364370E+03  0.00000000000E+00 0.  1.
          3    1    3    3  501    0  0.34114699445E+01  0.29125520090E+02 -0.23368401019E+03  0.23551677364E+03  0.00000000000E+00 0.  1.
         -1    1    1    2    0  502 -0.35647518441E+01 -0.59969299473E+02 -0.52654085990E+03  0.52995688643E+03  0.00000000000E+00 0. -1.
<mgrwt>
<rscale>  1 0.30000000E+03</rscale>
<asrwt>0</asrwt>
<pdfrwt beam="1">  1       21 0.13190223E-01 0.30000000E+03</pdfrwt>
<pdfrwt beam="2">0</pdfrwt>
<totfact> 0.52162235E+03</totfact>
</mgrwt>
</event>
<event>
 6    1  0.6377696E-002  0.3000000E+03  0.7818608E-02  0.1093470E+00
         21   -1    0    0  501  502  0.00000000000E+00  0.00000000000E+00  0.10702127378E+01  0.10702127378E+01  0.00000000000E+00 0. -1.
         13   -1    0    0    0    0 -0.00000000000E+00 -0.00000000000E+00 -0.10000000000E+04  0.10000000000E+04  0.00000000000E+00 0.  1.
    9000005    2    1    2  501    0  0.13877890748E+02  0.28599933965E+02 -0.38812227793E+03  0.38943603651E+03  0.33123755673E+01 0.  0.
         13    1    3    3    0    0  0.11311353044E+02  0.25427536851E+02 -0.33069260188E+03  0.33186157246E+03  0.00000000000E+00 0.  1.
          3    1    3    3  501    0  0.25665377043E+01  0.31723971138E+01 -0.57429676051E+02  0.57574464050E+02  0.00000000000E+00 0.  1.
         -1    1    1    2    0  502 -0.13877890748E+02 -0.28599933965E+02 -0.61080750933E+03  0.61163417623E+03  0.00000000000E+00 0. -1.
<mgrwt>
<rscale>  1 0.30000000E+03</rscale>
<asrwt>0</asrwt>
<pdfrwt beam="1">  1       21 0.38916909E-02 0.30000000E+03</pdfrwt>
<pdfrwt beam="2">0</pdfrwt>
<totfact> 0.44035349E+04</totfact>
</mgrwt>
</event>
<event>
 6    1  0.6377696E-002  0.3000000E+03  0.7818608E-02  0.1093470E+00
         21   -1    0    0  501  502  0.00000000000E+00  0.00000000000E+00  0.12619230366E+02  0.12619230366E+02  0.00000000000E+00 0. -1.
         13   -1    0    0    0    0 -0.00000000000E+00 -0.00000000000E+00 -0.10000000000E+04  0.10000000000E+04  0.00000000000E+00 0.  1.
    9000005    2    1    2  501    0  0.40817768856E+02 -0.67648861762E+02 -0.13400004260E+03  0.15558882016E+03  0.30677008386E+01 0.  0.
         13    1    3    3    0    0  0.92619845765E+01 -0.15677953415E+02 -0.28415263081E+02  0.33749218621E+02  0.00000000000E+00 0.  1.
          3    1    3    3  501    0  0.31555784279E+02 -0.51970908346E+02 -0.10558477952E+03  0.12183960154E+03  0.00000000000E+00 0.  1.
         -1    1    1    2    0  502 -0.40817768856E+02  0.67648861762E+02 -0.85338072703E+03  0.85703041021E+03  0.00000000000E+00 0. -1.
<mgrwt>
<rscale>  1 0.30000000E+03</rscale>
<asrwt>0</asrwt>
<pdfrwt beam="1">  1       21 0.45888207E-01 0.30000000E+03</pdfrwt>
<pdfrwt beam="2">0</pdfrwt>
<totfact> 0.45186952E+02</totfact>
</mgrwt>
</event>
<event>
 6    1  0.6377696E-002  0.3000000E+03  0.7818608E-02  0.1093470E+00
         21   -1    0    0  501  502  0.00000000000E+00  0.00000000000E+00  0.17414413624E+01  0.17414413624E+01  0.00000000000E+00 0. -1.
         13   -1    0    0    0    0 -0.00000000000E+00 -0.00000000000E+00 -0.10000000000E+04  0.10000000000E+04  0.00000000000E+00 0.  1.
    9000005    2    1    2  501    0  0.21350094565E+02  0.32025205713E+02 -0.30865534921E+03  0.31106494198E+03  0.34399415022E+01 0.  0.
         13    1    3    3    0    0  0.12115256198E+02  0.18842150311E+02 -0.19274238161E+03  0.19403976842E+03  0.00000000000E+00 0.  1.
          1    1    3    3  501    0  0.92348383670E+01  0.13183055401E+02 -0.11591296760E+03  0.11702517356E+03  0.00000000000E+00 0.  1.
         -3    1    1    2    0  502 -0.21350094565E+02 -0.32025205713E+02 -0.68960320943E+03  0.69067649938E+03  0.00000000000E+00 0. -1.
<mgrwt>
<rscale>  1 0.30000000E+03</rscale>
<asrwt>0</asrwt>
<pdfrwt beam="1">  1       21 0.63325274E-02 0.30000000E+03</pdfrwt>
<pdfrwt beam="2">0</pdfrwt>
<totfact> 0.19197745E+04</totfact>
</mgrwt>
</event>
<event>
 6    1  0.6377696E-002  0.3000000E+03  0.7818608E-02  0.1093470E+00
         21   -1    0    0  501  502  0.00000000000E+00  0.00000000000E+00  0.30061565359E+01  0.30061565359E+01  0.00000000000E+00 0. -1.
         13   -1    0    0    0    0 -0.00000000000E+00 -0.00000000000E+00 -0.10000000000E+04  0.10000000000E+04  0.00000000000E+00 0.  1.
    9000005    2    1    2  501    0  0.13569438765E+02  0.51324134786E+02 -0.62250171760E+03  0.62476992240E+03  0.32819261701E+01 0.  0.
         13    1    3    3    0    0  0.73647163369E+01  0.32900087577E+02 -0.38398375208E+03  0.38546099241E+03  0.00000000000E+00 0.  1.
          3    1    3    3  501    0  0.62047224283E+01  0.18424047209E+02 -0.23851796551E+03  0.23930892998E+03  0.00000000000E+00 0.  1.
         -1    1    1    2    0  502 -0.13569438765E+02 -0.51324134786E+02 -0.37449212587E+03  0.37823623414E+03  0.00000000000E+00 0. -1.
<mgrwt>
<rscale>  1 0.30000000E+03</rscale>
<asrwt>0</asrwt>
<pdfrwt beam="1">  1       21 0.10931501E-01 0.30000000E+03</pdfrwt>
<pdfrwt beam="2">0</pdfrwt>
<totfact> 0.73339624E+03</totfact>
</mgrwt>
</event>
<event>
 6    1  0.6377696E-002  0.3000000E+03  0.7818608E-02  0.1093470E+00
         21   -1    0    0  501  502  0.00000000000E+00  0.00000000000E+00  0.13301514265E+01  0.13301514265E+01  0.00000000000E+00 0. -1.
         13   -1    0    0    0    0 -0.00000000000E+00 -0.00000000000E+00 -0.10000000000E+04  0.10000000000E+04  0.00000000000E+00 0.  1.
    9000005    2    1    2  501    0 -0.66195763355E+00 -0.35912785814E+02 -0.58179836633E+03  0.58291409165E+03  0.30549639061E+01 0.  0.
         13    1    3    3    0    0  0.56904703729E+00 -0.53380074471E+01 -0.10167420674E+03  0.10181582614E+03  0.00000000000E+00 0.  1.
          1    1    3    3  501    0 -0.12310046708E+01 -0.30574778367E+02 -0.48012415960E+03  0.48109826551E+03  0.00000000000E+00 0.  1.
         -1    1    1    2    0  502  0.66195763355E+00  0.35912785814E+02 -0.41687148224E+03  0.41841605977E+03  0.00000000000E+00 0. -1.
<mgrwt>
<rscale>  1 0.30000000E+03</rscale>
<asrwt>0</asrwt>
<pdfrwt beam="1">  1       21 0.48369245E-02 0.30000000E+03</pdfrwt>
<pdfrwt beam="2">0</pdfrwt>
<totfact> 0.30478447E+04</totfact>
</mgrwt>
</event>
<event>
 6    1  0.6377696E-002  0.3000000E+03  0.7818608E-02  0.1093470E+00
         21   -1    0    0  501  502  0.00000000000E+00  0.00000000000E+00  0.33888252407E+01  0.33888252407E+01  0.00000000000E+00 0. -1.
         13   -1    0    0    0    0 -0.00000000000E+00 -0.00000000000E+00 -0.10000000000E+04  0.10000000000E+04  0.00000000000E+00 0.  1.
    9000005    2    1    2  501    0  0.41875680738E+02 -0.15730526672E+02 -0.17796662124E+03  0.18352302701E+03  0.27497380787E+01 0.  0.
         13    1    3    3    0    0  0.26813215508E+02 -0.10918491617E+02 -0.11074321685E+03  0.11446493814E+03  0.00000000000E+00 0.  1.
          1    1    3    3  501    0  0.15062465231E+02 -0.48120350548E+01 -0.67223404389E+02  0.69058088866E+02  0.00000000000E+00 0.  1.
         -1    1    1    2    0  502 -0.41875680738E+02  0.15730526672E+02 -0.81864455352E+03  0.81986579824E+03  0.00000000000E+00 0. -1.
<mgrwt>
<rscale>  1 0.30000000E+03</rscale>
<asrwt>0</asrwt>
<pdfrwt beam="1">  1       21 0.12323027E-01 0.30000000E+03</pdfrwt>
<pdfrwt beam="2">0</pdfrwt>
<totfact> 0.59050147E+03</totfact>
</mgrwt>
</event>
<event>
 6    1  0.6377696E-002  0.3000000E+03  0.7818608E-02  0.1093470E+00
         21   -1    0    0  501  502  0.00000000000E+00  0.00000000000E+00  0.20194656169E+01  0.20194656169E+01  0.00000000000E+00 0. -1.
         13   -1    0    0    0    0 -0.00000000000E+00 -0.00000000000E+00 -0.10000000000E+04  0.10000000000E+04  0.00000000000E+00 0.  1.
    9000005    2    1    2  501    0 -0.59984166677E+01 -0.44454300677E+02 -0.50534717808E+03  0.50734807005E+03  0.37587148320E+01 0.  0.
         13    1    3    3    0    0 -0.12661600021E+01 -0.14101867557E+02 -0.14163239669E+03  0.14233833504E+03  0.00000000000E+00 0.  1.
          3    1    3    3  501    0 -0.47322566656E+01 -0.30352433120E+02 -0.36371478139E+03  0.36500973501E+03  0.00000000000E+00 0.  1.
         -1    1    1    2    0  502  0.59984166677E+01  0.44454300677E+02 -0.49263335630E+03  0.49467139557E+03  0.00000000000E+00 0. -1.
<mgrwt>
<rscale>  1 0.30000000E+03</rscale>
<asrwt>0</asrwt>
<pdfrwt beam="1">  1       21 0.73435268E-02 0.30000000E+03</pdfrwt>
<pdfrwt beam="2">0</pdfrwt>
<totfact> 0.14841961E+04</totfact>
</mgrwt>
</event>
<event>
 6    1  0.6377696E-002  0.3000000E+03  0.7818608E-02  0.1093470E+00
         21   -1    0    0  501  502  0.00000000000E+00  0.00000000000E+00  0.14192582613E+01  0.14192582613E+01  0.00000000000E+00 0. -1.
         13   -1    0    0    0    0 -0.00000000000E+00 -0.00000000000E+00 -0.10000000000E+04  0.10000000000E+04  0.00000000000E+00 0.  1.
    9000005    2    1    2  501    0 -0.50754137209E+01 -0.36294142200E+02 -0.61158373557E+03  0.61269093749E+03  0.35347831732E+01 0.  0.
         13    1    3    3    0    0 -0.41519862112E+00 -0.30101255745E+01 -0.36670177156E+02  0.36795857628E+02  0.00000000000E+00 0.  1.
          3    1    3    3  501    0 -0.46602150998E+01 -0.33284016625E+02 -0.57491355841E+03  0.57589507987E+03  0.00000000000E+00 0.  1.
         -3    1    1    2    0  502  0.50754137209E+01  0.36294142200E+02 -0.38699700617E+03  0.38872832077E+03  0.00000000000E+00 0. -1.
<mgrwt>
<rscale>  1 0.30000000E+03</rscale>
<asrwt>0</asrwt>
<pdfrwt beam="1">  1       21 0.51609500E-02 0.30000000E+03</pdfrwt>
<pdfrwt beam="2">0</pdfrwt>
<totfact> 0.27288963E+04</totfact>
</mgrwt>
</event>
<event>
 6    1  0.6377696E-002  0.3000000E+03  0.7818608E-02  0.1093470E+00
         21   -1    0    0  501  502  0.00000000000E+00  0.00000000000E+00  0.20768364084E+01  0.20768364084E+01  0.00000000000E+00 0. -1.
         13   -1    0    0    0    0 -0.00000000000E+00 -0.00000000000E+00 -0.10000000000E+04  0.10000000000E+04  0.00000000000E+00 0.  1.
    9000005    2    1    2  501    0 -0.44717689401E+02  0.69610948739E+01 -0.44699507603E+03  0.44929307556E+03  0.33972295932E+01 0.  0.
         13    1    3    3    0    0 -0.61719090108E+01  0.19808729606E+01 -0.70357410273E+02  0.70655371338E+02  0.00000000000E+00 0.  1.
          1    1    3    3  501    0 -0.38545780390E+02  0.49802219132E+01 -0.37663766575E+03  0.37863770422E+03  0.00000000000E+00 0.  1.
         -1    1    1    2    0  502  0.44717689401E+02 -0.69610948739E+01 -0.55092808757E+03  0.55278376085E+03  0.00000000000E+00 0. -1.
<mgrwt>
<rscale>  1 0.30000000E+03</rscale>
<asrwt>0</asrwt>
<pdfrwt beam="1">  1       21 0.75521483E-02 0.30000000E+03</pdfrwt>
<pdfrwt beam="2">0</pdfrwt>
<totfact> 0.14131946E+04</totfact>
</mgrwt>
</event>
<event>
 6    1  0.6377696E-002  0.3000000E+03  0.7818608E-02  0.1093470E+00
         21   -1    0    0  501  502  0.00000000000E+00  0.00000000000E+00  0.11814418967E+01  0.11814418967E+01  0.00000000000E+00 0. -1.
         13   -1    0    0    0    0 -0.00000000000E+00 -0.00000000000E+00 -0.10000000000E+04  0.10000000000E+04  0.00000000000E+00 0.  1.
    9000005    2    1    2  501    0 -0.21399603149E+02 -0.26619555162E+02 -0.45539980940E+03  0.45669041334E+03  0.32563026342E+01 0.  0.
         13    1    3    3    0    0 -0.45471548472E+01 -0.70226792483E+01 -0.97269541592E+02  0.97628675923E+02  0.00000000000E+00 0.  1.
          1    1    3    3  501    0 -0.16852448302E+02 -0.19596875914E+02 -0.35813026781E+03  0.35906173742E+03  0.00000000000E+00 0.  1.
         -1    1    1    2    0  502  0.21399603149E+02  0.26619555162E+02 -0.54341874871E+03  0.54449102856E+03  0.00000000000E+00 0. -1.
<mgrwt>
<rscale>  1 0.30000000E+03</rscale>
<asrwt>0</asrwt>
<pdfrwt beam="1">  1       21 0.42961614E-02 0.30000000E+03</pdfrwt>
<pdfrwt beam="2">0</pdfrwt>
<totfact> 0.37272997E+04</totfact>
</mgrwt>
</event>
<event>
 6    1  0.6377696E-002  0.3000000E+03  0.7818608E-02  0.1093470E+00
         21   -1    0    0  501  502  0.00000000000E+00  0.00000000000E+00  0.22167268086E+01  0.22167268086E+01  0.00000000000E+00 0. -1.
         13   -1    0    0    0    0 -0.00000000000E+00 -0.00000000000E+00 -0.10000000000E+04  0.10000000000E+04  0.00000000000E+00 0.  1.
    9000005    2    1    2  501    0  0.28906461986E+02  0.36185138395E+02 -0.55425307052E+03  0.55627503952E+03  0.10025249148E+02 0.  0.
         13    1    3    3    0    0  0.13852034666E+02  0.10775854829E+02 -0.17714532048E+03  0.17801253462E+03  0.00000000000E+00 0.  1.
          3    1    3    3  501    0  0.15054427320E+02  0.25409283566E+02 -0.37710775004E+03  0.37826250490E+03  0.00000000000E+00 0.  1.
         -1    1    1    2    0  502 -0.28906461986E+02 -0.36185138395E+02 -0.44353020267E+03  0.44594168729E+03  0.00000000000E+00 0. -1.
<mgrwt>
<rscale>  1 0.30000000E+03</rscale>
<asrwt>0</asrwt>
<pdfrwt beam="1">  1       21 0.80608418E-02 0.30000000E+03</pdfrwt>
<pdfrwt beam="2">0</pdfrwt>
<totfact> 0.12604967E+04</totfact>
</mgrwt>
</event>
<event>
 6    1  0.6377696E-002  0.3000000E+03  0.7818608E-02  0.1093470E+00
         21   -1    0    0  501  502  0.00000000000E+00  0.00000000000E+00  0.12357144924E+01  0.12357144924E+01  0.00000000000E+00 0. -1.
         13   -1    0    0    0    0 -0.00000000000E+00 -0.00000000000E+00 -0.10000000000E+04  0.10000000000E+04  0.00000000000E+00 0.  1.
    9000005    2    1    2  501    0  0.10821370095E+02 -0.32456011570E+02 -0.46732660004E+03  0.46869791464E+03  0.10634347373E+02 0.  0.
         13    1    3    3    0    0  0.18835080724E+01 -0.14185993033E+02 -0.13689808250E+03  0.13764401546E+03  0.00000000000E+00 0.  1.
          3    1    3    3  501    0  0.89378620227E+01 -0.18270018537E+02 -0.33042851754E+03  0.33105389917E+03  0.00000000000E+00 0.  1.
         -3    1    1    2    0  502 -0.10821370095E+02  0.32456011570E+02 -0.53143768547E+03  0.53253779986E+03  0.00000000000E+00 0. -1.
<mgrwt>
<rscale>  1 0.30000000E+03</rscale>
<asrwt>0</asrwt>
<pdfrwt beam="1">  1       21 0.44935167E-02 0.30000000E+03</pdfrwt>
<pdfrwt beam="2">0</pdfrwt>
<totfact> 0.34542590E+04</totfact>
</mgrwt>
</event>
<event>
 6    1  0.6377696E-002  0.3000000E+03  0.7818608E-02  0.1093470E+00
         21   -1    0    0  501  502  0.00000000000E+00  0.00000000000E+00  0.10548979300E+01  0.10548979300E+01  0.00000000000E+00 0. -1.
         13   -1    0    0    0    0 -0.00000000000E+00 -0.00000000000E+00 -0.10000000000E+04  0.10000000000E+04  0.00000000000E+00 0.  1.
    9000005    2    1    2  501    0  0.26588816783E+02 -0.17828142862E+02 -0.58044622586E+03  0.58133342213E+03  0.24328416692E+01 0.  0.
         13    1    3    3    0    0  0.40092813558E+01 -0.17279553543E+01 -0.74779395387E+02  0.74906729611E+02  0.00000000000E+00 0.  1.
          3    1    3    3  501    0  0.22579535427E+02 -0.16100187507E+02 -0.50566683047E+03  0.50642669252E+03  0.00000000000E+00 0.  1.
         -1    1    1    2    0  502 -0.26588816783E+02  0.17828142862E+02 -0.41849887621E+03  0.41972147580E+03  0.00000000000E+00 0. -1.
<mgrwt>
<rscale>  1 0.30000000E+03</rscale>
<asrwt>0</asrwt>
<pdfrwt beam="1">  1       21 0.38360006E-02 0.30000000E+03</pdfrwt>
<pdfrwt beam="2">0</pdfrwt>
<totfact> 0.45115511E+04</totfact>
</mgrwt>
</event>
<event>
 6    1  0.6377696E-002  0.3000000E+03  0.7818608E-02  0.1093470E+00
         21   -1    0    0  501  502  0.00000000000E+00  0.00000000000E+00  0.35707538634E+01  0.35707538634E+01  0.00000000000E+00 0. -1.
         13   -1    0    0    0    0 -0.00000000000E+00 -0.00000000000E+00 -0.10000000000E+04  0.10000000000E+04  0.00000000000E+00 0.  1.
    9000005    2    1    2  501    0  0.39392970786E+02  0.23256185221E+02 -0.17677827252E+03  0.18264421948E+03  0.39619410882E+01 0.  0.
         13    1    3    3    0    0  0.27001492212E+02  0.14571091773E+02 -0.11251681568E+03  0.11662517356E+03  0.00000000000E+00 0.  1.
          3    1    3    3  501    0  0.12391478574E+02  0.86850934484E+01 -0.64261456837E+02  0.66019045921E+02  0.00000000000E+00 0.  1.
         -1    1    1    2    0  502 -0.39392970786E+02 -0.23256185221E+02 -0.81965097362E+03  0.82092653438E+03  0.00000000000E+00 0. -1.
<mgrwt>
<rscale>  1 0.30000000E+03</rscale>
<asrwt>0</asrwt>
<pdfrwt beam="1">  1       21 0.12984587E-01 0.30000000E+03</pdfrwt>
<pdfrwt beam="2">0</pdfrwt>
<totfact> 0.53681408E+03</totfact>
</mgrwt>
</event>
<event>
 6    1  0.6377696E-002  0.3000000E+03  0.7818608E-02  0.1093470E+00
         21   -1    0    0  501  502  0.00000000000E+00  0.00000000000E+00  0.16161548422E+01  0.16161548422E+01  0.00000000000E+00 0. -1.
         13   -1    0    0    0    0 -0.00000000000E+00 -0.00000000000E+00 -0.10000000000E+04  0.10000000000E+04  0.00000000000E+00 0.  1.
    9000005    2    1    2  501    0 -0.21282164023E+02 -0.33477730824E+02 -0.42355840759E+03  0.42542350248E+03  0.31213541246E+01 0.  0.
         13    1    3    3    0    0 -0.19543884963E+02 -0.28996558296E+02 -0.37638107775E+03  0.37800195703E+03  0.00000000000E+00 0.  1.
          3    1    3    3  501    0 -0.17382790606E+01 -0.44811725277E+01 -0.47177329842E+02  0.47421545444E+02  0.00000000000E+00 0.  1.
         -1    1    1    2    0  502  0.21282164023E+02  0.33477730824E+02 -0.57482543757E+03  0.57619265237E+03  0.00000000000E+00 0. -1.
<mgrwt>
<rscale>  1 0.30000000E+03</rscale>
<asrwt>0</asrwt>
<pdfrwt beam="1">  1       21 0.58769391E-02 0.30000000E+03</pdfrwt>
<pdfrwt beam="2">0</pdfrwt>
<totfact> 0.21838088E+04</totfact>
</mgrwt>
</event>
<event>
 6    1  0.6377696E-002  0.3000000E+03  0.7818608E-02  0.1093470E+00
         21   -1    0    0  501  502  0.00000000000E+00  0.00000000000E+00  0.10489381471E+01  0.10489381471E+01  0.00000000000E+00 0. -1.
         13   -1    0    0    0    0 -0.00000000000E+00 -0.00000000000E+00 -0.10000000000E+04  0.10000000000E+04  0.00000000000E+00 0.  1.
    9000005    2    1    2  501    0 -0.12611618315E+02 -0.28662043848E+02 -0.45427531507E+03  0.45547379685E+03  0.10476261534E+02 0.  0.
         13    1    3    3    0    0 -0.63302424104E+01 -0.14444761739E+02 -0.15637254061E+03  0.15716581870E+03  0.00000000000E+00 0.  1.
          1    1    3    3  501    0 -0.62813759044E+01 -0.14217282108E+02 -0.29790277446E+03  0.29830797815E+03  0.00000000000E+00 0.  1.
         -1    1    1    2    0  502  0.12611618315E+02  0.28662043848E+02 -0.54467574678E+03  0.54557514130E+03  0.00000000000E+00 0. -1.
<mgrwt>
<rscale>  1 0.30000000E+03</rscale>
<asrwt>0</asrwt>
<pdfrwt beam="1">  1       21 0.38143286E-02 0.30000000E+03</pdfrwt>
<pdfrwt beam="2">0</pdfrwt>
<totfact> 0.45547136E+04</totfact>
</mgrwt>
</event>
<event>
 6    1  0.6377696E-002  0.3000000E+03  0.7818608E-02  0.1093470E+00
         21   -1    0    0  501  502  0.00000000000E+00  0.00000000000E+00  0.12726722338E+01  0.12726722338E+01  0.00000000000E+00 0. -1.
         13   -1    0    0    0    0 -0.00000000000E+00 -0.00000000000E+00 -0.10000000000E+04  0.10000000000E+04  0.00000000000E+00 0.  1.
    9000005    2    1    2  501    0  0.18204593980E+02  0.30048893464E+02 -0.58174346273E+03  0.58281133957E+03  0.30426720388E+01 0.  0.
         13    1    3    3    0    0  0.10095046909E+02  0.17100823098E+02 -0.35315892446E+03  0.35371679922E+03  0.00000000000E+00 0.  1.
          1    1    3    3  501    0  0.81095470714E+01  0.12948070367E+02 -0.22858453827E+03  0.22909454035E+03  0.00000000000E+00 0.  1.
         -1    1    1    2    0  502 -0.18204593980E+02 -0.30048893464E+02 -0.41698386503E+03  0.41846133267E+03  0.00000000000E+00 0. -1.
<mgrwt>
<rscale>  1 0.30000000E+03</rscale>
<asrwt>0</asrwt>
<pdfrwt beam="1">  1       21 0.46279088E-02 0.30000000E+03</pdfrwt>
<pdfrwt beam="2">0</pdfrwt>
<totfact> 0.32856354E+04</totfact>
</mgrwt>
</event>
<event>
 6    1  0.6377696E-002  0.3000000E+03  0.7818608E-02  0.1093470E+00
         21   -1    0    0  501  502  0.00000000000E+00  0.00000000000E+00  0.13537747229E+01  0.13537747229E+01  0.00000000000E+00 0. -1.
         13   -1    0    0    0    0 -0.00000000000E+00 -0.00000000000E+00 -0.10000000000E+04  0.10000000000E+04  0.00000000000E+00 0.  1.
    9000005    2    1    2  501    0 -0.91990619679E+01  0.29335884314E+02 -0.77297571119E+03  0.77359864793E+03  0.42662804066E+01 0.  0.
         13    1    3    3    0    0 -0.80022243715E+01  0.28296158811E+02 -0.72286660284E+03  0.72346446609E+03  0.00000000000E+00 0.  1.
          3    1    3    3  501    0 -0.11968375964E+01  0.10397255026E+01 -0.50109108352E+02  0.50134181844E+02  0.00000000000E+00 0.  1.
         -3    1    1    2    0  502  0.91990619679E+01 -0.29335884314E+02 -0.22567051409E+03  0.22775512679E+03  0.00000000000E+00 0. -1.
<mgrwt>
<rscale>  1 0.30000000E+03</rscale>
<asrwt>0</asrwt>
<pdfrwt beam="1">  1       21 0.49228276E-02 0.30000000E+03</pdfrwt>
<pdfrwt beam="2">0</pdfrwt>
<totfact> 0.29578383E+04</totfact>
</mgrwt>
</event>
<event>
 6    1  0.6377696E-002  0.3000000E+03  0.7818608E-02  0.1093470E+00
         21   -1    0    0  501  502  0.00000000000E+00  0.00000000000E+00  0.17562211362E+01  0.17562211362E+01  0.00000000000E+00 0. -1.
         13   -1    0    0    0    0 -0.00000000000E+00 -0.00000000000E+00 -0.10000000000E+04  0.10000000000E+04  0.00000000000E+00 0.  1.
    9000005    2    1    2  501    0 -0.10644508550E+02 -0.37444077358E+02 -0.31640848321E+03  0.31881059014E+03  0.32403162598E+01 0.  0.
         13    1    3    3    0    0 -0.58965626608E+01 -0.19770572641E+02 -0.18063341796E+03  0.18180780148E+03  0.00000000000E+00 0.  1.
          1    1    3    3  501    0 -0.47479458890E+01 -0.17673504717E+02 -0.13577506524E+03  0.13700278866E+03  0.00000000000E+00 0.  1.
         -3    1    1    2    0  502  0.10644508550E+02  0.37444077358E+02 -0.68183529566E+03  0.68294563100E+03  0.00000000000E+00 0. -1.
<mgrwt>
<rscale>  1 0.30000000E+03</rscale>
<asrwt>0</asrwt>
<pdfrwt beam="1">  1       21 0.63862721E-02 0.30000000E+03</pdfrwt>
<pdfrwt beam="2">0</pdfrwt>
<totfact> 0.18919218E+04</totfact>
</mgrwt>
</event>
<event>
 6    1  0.6377696E-002  0.3000000E+03  0.7818608E-02  0.1093470E+00
         21   -1    0    0  501  502  0.00000000000E+00  0.00000000000E+00  0.18493773411E+01  0.18493773411E+01  0.00000000000E+00 0. -1.
         13   -1    0    0    0    0 -0.00000000000E+00 -0.00000000000E+00 -0.10000000000E+04  0.10000000000E+04  0.00000000000E+00 0.  1.
    9000005    2    1    2  501    0 -0.20181178112E+02  0.24213713965E+02 -0.83931059309E+03  0.83991192371E+03  0.40229378186E+01 0.  0.
         13    1    3    3    0    0 -0.29681130295E+01  0.52913230266E+01 -0.19292554993E+03  0.19302092013E+03  0.00000000000E+00 0.  1.
          3    1    3    3  501    0 -0.17213065083E+02  0.18922390939E+02 -0.64638504316E+03  0.64689100358E+03  0.00000000000E+00 0.  1.
         -3    1    1    2    0  502  0.20181178112E+02 -0.24213713965E+02 -0.15884002957E+03  0.16193745363E+03  0.00000000000E+00 0. -1.
<mgrwt>
<rscale>  1 0.30000000E+03</rscale>
<asrwt>0</asrwt>
<pdfrwt beam="1">  1       21 0.67250227E-02 0.30000000E+03</pdfrwt>
<pdfrwt beam="2">0</pdfrwt>
<totfact> 0.17298939E+04</totfact>
</mgrwt>
</event>
<event>
 6    1  0.6377696E-002  0.3000000E+03  0.7818608E-02  0.1093470E+00
         21   -1    0    0  501  502  0.00000000000E+00  0.00000000000E+00  0.15774141094E+01  0.15774141094E+01  0.00000000000E+00 0. -1.
         13   -1    0    0    0    0 -0.00000000000E+00 -0.00000000000E+00 -0.10000000000E+04  0.10000000000E+04  0.00000000000E+00 0.  1.
    9000005    2    1    2  501    0  0.98471274843E+01  0.35050811344E+02 -0.30088249125E+03  0.30308782297E+03  0.25356651522E+01 0.  0.
         13    1    3    3    0    0  0.33659420543E+01  0.81958667671E+01 -0.76129557544E+02  0.76643403694E+02  0.00000000000E+00 0.  1.
          1    1    3    3  501    0  0.64811854300E+01  0.26854944577E+02 -0.22475293370E+03  0.22644441927E+03  0.00000000000E+00 0.  1.
         -3    1    1    2    0  502 -0.98471274843E+01 -0.35050811344E+02 -0.69754009464E+03  0.69848959114E+03  0.00000000000E+00 0. -1.
<mgrwt>
<rscale>  1 0.30000000E+03</rscale>
<asrwt>0</asrwt>
<pdfrwt beam="1">  1       21 0.57360634E-02 0.30000000E+03</pdfrwt>
<pdfrwt beam="2">0</pdfrwt>
<totfact> 0.22769908E+04</totfact>
</mgrwt>
</event>
<event>
 6    1  0.6377696E-002  0.3000000E+03  0.7818608E-02  0.1093470E+00
         21   -1    0    0  501  502  0.00000000000E+00  0.00000000000E+00  0.86750302224E+01  0.86750302224E+01  0.00000000000E+00 0. -1.
         13   -1    0    0    0    0 -0.00000000000E+00 -0.00000000000E+00 -0.10000000000E+04  0.10000000000E+04  0.00000000000E+00 0.  1.
    9000005    2    1    2  501    0  0.99629632803E+01 -0.82614859959E+02 -0.72214792351E+03  0.72692911994E+03  0.19611892851E+01 0.  0.
         13    1    3    3    0    0  0.81540154762E+00 -0.11502991920E+02 -0.96871216266E+02  0.97555195882E+02  0.00000000000E+00 0.  1.
          3    1    3    3  501    0  0.91475617327E+01 -0.71111868039E+02 -0.62527670725E+03  0.62937392406E+03  0.00000000000E+00 0.  1.
         -1    1    1    2    0  502 -0.99629632803E+01  0.82614859959E+02 -0.26917704626E+03  0.28174591028E+03  0.00000000000E+00 0. -1.
<mgrwt>
<rscale>  1 0.30000000E+03</rscale>
<asrwt>0</asrwt>
<pdfrwt beam="1">  1       21 0.31545631E-01 0.30000000E+03</pdfrwt>
<pdfrwt beam="2">0</pdfrwt>
<totfact> 0.98294036E+02</totfact>
</mgrwt>
</event>
<event>
 6    1  0.6377696E-002  0.3000000E+03  0.7818608E-02  0.1093470E+00
         21   -1    0    0  501  502  0.00000000000E+00  0.00000000000E+00  0.10589057607E+01  0.10589057607E+01  0.00000000000E+00 0. -1.
         13   -1    0    0    0    0 -0.00000000000E+00 -0.00000000000E+00 -0.10000000000E+04  0.10000000000E+04  0.00000000000E+00 0.  1.
    9000005    2    1    2  501    0 -0.17101255754E+02  0.25887386109E+02 -0.35262331999E+03  0.35399687240E+03  0.28231470757E+01 0.  0.
         13    1    3    3    0    0 -0.11536062659E+02  0.18149797688E+02 -0.22965722375E+03  0.23066195248E+03  0.00000000000E+00 0.  1.
          3    1    3    3  501    0 -0.55651930946E+01  0.77375884217E+01 -0.12296609624E+03  0.12333491992E+03  0.00000000000E+00 0.  1.
         -1    1    1    2    0  502  0.17101255754E+02 -0.25887386109E+02 -0.64631777425E+03  0.64706203336E+03  0.00000000000E+00 0. -1.
<mgrwt>
<rscale>  1 0.30000000E+03</rscale>
<asrwt>0</asrwt>
<pdfrwt beam="1">  1       21 0.38505745E-02 0.30000000E+03</pdfrwt>
<pdfrwt beam="2">0</pdfrwt>
<totfact> 0.44828852E+04</totfact>
</mgrwt>
</event>
<event>
 6    1  0.6377696E-002  0.3000000E+03  0.7818608E-02  0.1093470E+00
         21   -1    0    0  501  502  0.00000000000E+00  0.00000000000E+00  0.93061322692E+00  0.93061322692E+00  0.00000000000E+00 0. -1.
         13   -1    0    0    0    0 -0.00000000000E+00 -0.00000000000E+00 -0.10000000000E+04  0.10000000000E+04  0.00000000000E+00 0.  1.
    9000005    2    1    2  501    0 -0.30040718308E+02 -0.32932790388E+01 -0.44672047969E+03  0.44775559065E+03  0.35484565120E+01 0.  0.
         13    1    3    3    0    0 -0.17893356468E+02 -0.22114078637E+00 -0.26620287459E+03  0.26680365730E+03  0.00000000000E+00 0.  1.
          3    1    3    3  501    0 -0.12147361841E+02 -0.30721382524E+01 -0.18051760510E+03  0.18095193335E+03  0.00000000000E+00 0.  1.
         -1    1    1    2    0  502  0.30040718308E+02  0.32932790388E+01 -0.55234890708E+03  0.55317502257E+03  0.00000000000E+00 0. -1.
<mgrwt>
<rscale>  1 0.30000000E+03</rscale>
<asrwt>0</asrwt>
<pdfrwt beam="1">  1       21 0.33840552E-02 0.30000000E+03</pdfrwt>
<pdfrwt beam="2">0</pdfrwt>
<totfact> 0.55666520E+04</totfact>
</mgrwt>
</event>
<event>
 6    1  0.6377696E-002  0.3000000E+03  0.7818608E-02  0.1093470E+00
         21   -1    0    0  501  502  0.00000000000E+00  0.00000000000E+00  0.34629041388E+01  0.34629041388E+01  0.00000000000E+00 0. -1.
         13   -1    0    0    0    0 -0.00000000000E+00 -0.00000000000E+00 -0.10000000000E+04  0.10000000000E+04  0.00000000000E+00 0.  1.
    9000005    2    1    2  501    0 -0.46102777613E+02 -0.34231298288E+02 -0.39075862875E+03  0.39496902652E+03  0.33133185828E+01 0.  0.
         13    1    3    3    0    0 -0.13861797688E+02 -0.12139753033E+02 -0.12222886726E+03  0.12360994713E+03  0.00000000000E+00 0.  1.
          1    1    3    3  501    0 -0.32240979925E+02 -0.22091545255E+02 -0.26852976149E+03  0.27135907939E+03  0.00000000000E+00 0.  1.
         -3    1    1    2    0  502  0.46102777613E+02  0.34231298288E+02 -0.60577846711E+03  0.60849387762E+03  0.00000000000E+00 0. -1.
<mgrwt>
<rscale>  1 0.30000000E+03</rscale>
<asrwt>0</asrwt>
<pdfrwt beam="1">  1       21 0.12592405E-01 0.30000000E+03</pdfrwt>
<pdfrwt beam="2">0</pdfrwt>
<totfact> 0.56770071E+03</totfact>
</mgrwt>
</event>
<event>
 6    1  0.6377696E-002  0.3000000E+03  0.7818608E-02  0.1093470E+00
         21   -1    0    0  501  502  0.00000000000E+00  0.00000000000E+00  0.12136507308E+01  0.12136507308E+01  0.00000000000E+00 0. -1.
         13   -1    0    0    0    0 -0.00000000000E+00 -0.00000000000E+00 -0.10000000000E+04  0.10000000000E+04  0.00000000000E+00 0.  1.
    9000005    2    1    2  501    0  0.48708512983E+01 -0.34257619595E+02 -0.45093329717E+03  0.45226895735E+03  0.30102485484E+01 0.  0.
         13    1    3    3    0    0  0.26100982438E+01 -0.26960826010E+02 -0.35544489592E+03  0.35647548694E+03  0.00000000000E+00 0.  1.
          3    1    3    3  501    0  0.22607530545E+01 -0.72967935857E+01 -0.95488401249E+02  0.95793470415E+02  0.00000000000E+00 0.  1.
         -3    1    1    2    0  502 -0.48708512983E+01  0.34257619595E+02 -0.54785305210E+03  0.54894469338E+03  0.00000000000E+00 0. -1.
<mgrwt>
<rscale>  1 0.30000000E+03</rscale>
<asrwt>0</asrwt>
<pdfrwt beam="1">  1       21 0.44132847E-02 0.30000000E+03</pdfrwt>
<pdfrwt beam="2">0</pdfrwt>
<totfact> 0.35614045E+04</totfact>
</mgrwt>
</event>
<event>
 6    1  0.6377696E-002  0.3000000E+03  0.7818608E-02  0.1093470E+00
         21   -1    0    0  501  502  0.00000000000E+00  0.00000000000E+00  0.38675621304E+01  0.38675621304E+01  0.00000000000E+00 0. -1.
         13   -1    0    0    0    0 -0.00000000000E+00 -0.00000000000E+00 -0.10000000000E+04  0.10000000000E+04  0.00000000000E+00 0.  1.
    9000005    2    1    2  501    0  0.57571646351E+02 -0.10377719096E+02 -0.32935361504E+03  0.33452744672E+03  0.35520916601E+01 0.  0.
         13    1    3    3    0    0  0.12130729707E+02 -0.30002438606E+01 -0.77498356697E+02  0.78499371700E+02  0.00000000000E+00 0.  1.
          3    1    3    3  501    0  0.45440916644E+02 -0.73774752350E+01 -0.25185525834E+03  0.25602807502E+03  0.00000000000E+00 0.  1.
         -1    1    1    2    0  502 -0.57571646351E+02  0.10377719096E+02 -0.66677882283E+03  0.66934011541E+03  0.00000000000E+00 0. -1.
<mgrwt>
<rscale>  1 0.30000000E+03</rscale>
<asrwt>0</asrwt>
<pdfrwt beam="1">  1       21 0.14063892E-01 0.30000000E+03</pdfrwt>
<pdfrwt beam="2">0</pdfrwt>
<totfact> 0.46377066E+03</totfact>
</mgrwt>
</event>
<event>
 6    1  0.6377696E-002  0.3000000E+03  0.7818608E-02  0.1093470E+00
         21   -1    0    0  501  502  0.00000000000E+00  0.00000000000E+00  0.12792690688E+01  0.12792690688E+01  0.00000000000E+00 0. -1.
         13   -1    0    0    0    0 -0.00000000000E+00 -0.00000000000E+00 -0.10000000000E+04  0.10000000000E+04  0.00000000000E+00 0.  1.
    9000005    2    1    2  501    0 -0.21235139731E+01  0.34868462136E+02 -0.39583299750E+03  0.39738032216E+03  0.26532172618E+01 0.  0.
         13    1    3    3    0    0  0.19891939365E+00  0.89097079580E+01 -0.91114557854E+02  0.91549358915E+02  0.00000000000E+00 0.  1.
          3    1    3    3  501    0 -0.23224333667E+01  0.25958754178E+02 -0.30471843965E+03  0.30583096324E+03  0.00000000000E+00 0.  1.
         -1    1    1    2    0  502  0.21235139731E+01 -0.34868462136E+02 -0.60288773343E+03  0.60389894691E+03  0.00000000000E+00 0. -1.
<mgrwt>
<rscale>  1 0.30000000E+03</rscale>
<asrwt>0</asrwt>
<pdfrwt beam="1">  1       21 0.46518973E-02 0.30000000E+03</pdfrwt>
<pdfrwt beam="2">0</pdfrwt>
<totfact> 0.32568934E+04</totfact>
</mgrwt>
</event>
<event>
 6    1  0.6377696E-002  0.3000000E+03  0.7818608E-02  0.1093470E+00
         21   -1    0    0  501  502  0.00000000000E+00  0.00000000000E+00  0.50975916014E+01  0.50975916014E+01  0.00000000000E+00 0. -1.
         13   -1    0    0    0    0 -0.00000000000E+00 -0.00000000000E+00 -0.10000000000E+04  0.10000000000E+04  0.00000000000E+00 0.  1.
    9000005    2    1    2  501    0 -0.96368201807E+01 -0.70677303633E+02 -0.48290263659E+03  0.48815280163E+03  0.31704505234E+01 0.  0.
         13    1    3    3    0    0 -0.33251246035E+01 -0.33951412264E+02 -0.23706092673E+03  0.23950289734E+03  0.00000000000E+00 0.  1.
          1    1    3    3  501    0 -0.63116955772E+01 -0.36725891368E+02 -0.24584170986E+03  0.24864990429E+03  0.00000000000E+00 0.  1.
         -3    1    1    2    0  502  0.96368201807E+01  0.70677303633E+02 -0.51199977181E+03  0.51694478997E+03  0.00000000000E+00 0. -1.
<mgrwt>
<rscale>  1 0.30000000E+03</rscale>
<asrwt>0</asrwt>
<pdfrwt beam="1">  1       21 0.18536736E-01 0.30000000E+03</pdfrwt>
<pdfrwt beam="2">0</pdfrwt>
<totfact> 0.27715858E+03</totfact>
</mgrwt>
</event>
<event>
 6    1  0.6377696E-002  0.3000000E+03  0.7818608E-02  0.1093470E+00
         21   -1    0    0  501  502  0.00000000000E+00  0.00000000000E+00  0.16287365752E+01  0.16287365752E+01  0.00000000000E+00 0. -1.
         13   -1    0    0    0    0 -0.00000000000E+00 -0.00000000000E+00 -0.10000000000E+04  0.10000000000E+04  0.00000000000E+00 0.  1.
    9000005    2    1    2  501    0 -0.39455776657E+01 -0.38056390060E+02 -0.36010665534E+03  0.36221840952E+03  0.78432499346E+01 0.  0.
         13    1    3    3    0    0 -0.47086347090E+01 -0.24895758682E+02 -0.20689610870E+03  0.20844176606E+03  0.00000000000E+00 0.  1.
          3    1    3    3  501    0  0.76305704332E+00 -0.13160631379E+02 -0.15321054663E+03  0.15377664346E+03  0.00000000000E+00 0.  1.
         -1    1    1    2    0  502  0.39455776657E+01  0.38056390060E+02 -0.63826460809E+03  0.63941032705E+03  0.00000000000E+00 0. -1.
<mgrwt>
<rscale>  1 0.30000000E+03</rscale>
<asrwt>0</asrwt>
<pdfrwt beam="1">  1       21 0.59226909E-02 0.30000000E+03</pdfrwt>
<pdfrwt beam="2">0</pdfrwt>
<totfact> 0.21548146E+04</totfact>
</mgrwt>
</event>
<event>
 6    1  0.6377696E-002  0.3000000E+03  0.7818608E-02  0.1093470E+00
         21   -1    0    0  501  502  0.00000000000E+00  0.00000000000E+00  0.22774654402E+01  0.22774654402E+01  0.00000000000E+00 0. -1.
         13   -1    0    0    0    0 -0.00000000000E+00 -0.00000000000E+00 -0.10000000000E+04  0.10000000000E+04  0.00000000000E+00 0.  1.
    9000005    2    1    2  501    0 -0.38952008009E+02  0.41945561741E+01 -0.78446880381E+03  0.78545494145E+03  0.36479682701E+01 0.  0.
         13    1    3    3    0    0 -0.11160683419E+02  0.18689533504E+01 -0.25787442126E+03  0.25812258905E+03  0.00000000000E+00 0.  1.
          1    1    3    3  501    0 -0.27791324590E+02  0.23256028237E+01 -0.52659438255E+03  0.52733235240E+03  0.00000000000E+00 0.  1.
         -3    1    1    2    0  502  0.38952008009E+02 -0.41945561741E+01 -0.21325373075E+03  0.21682252399E+03  0.00000000000E+00 0. -1.
<mgrwt>
<rscale>  1 0.30000000E+03</rscale>
<asrwt>0</asrwt>
<pdfrwt beam="1">  1       21 0.82817100E-02 0.30000000E+03</pdfrwt>
<pdfrwt beam="2">0</pdfrwt>
<totfact> 0.12019751E+04</totfact>
</mgrwt>
</event>
<event>
 6    1  0.6377696E-002  0.3000000E+03  0.7818608E-02  0.1093470E+00
         21   -1    0    0  501  502  0.00000000000E+00  0.00000000000E+00  0.19049339236E+01  0.19049339236E+01  0.00000000000E+00 0. -1.
         13   -1    0    0    0    0 -0.00000000000E+00 -0.00000000000E+00 -0.10000000000E+04  0.10000000000E+04  0.00000000000E+00 0.  1.
    9000005    2    1    2  501    0 -0.36373947083E+02  0.13867541960E+02 -0.72485352305E+03  0.72590436584E+03  0.30241895948E+01 0.  0.
         13    1    3    3    0    0 -0.36112673033E+02  0.13448116675E+02 -0.71308867867E+03  0.71412914843E+03  0.00000000000E+00 0.  1.
          1    1    3    3  501    0 -0.26127405006E+00  0.41942528478E+00 -0.11764844378E+02  0.11775217405E+02  0.00000000000E+00 0.  1.
         -1    1    1    2    0  502  0.36373947083E+02 -0.13867541960E+02 -0.27324154303E+03  0.27600056808E+03  0.00000000000E+00 0. -1.
<mgrwt>
<rscale>  1 0.30000000E+03</rscale>
<asrwt>0</asrwt>
<pdfrwt beam="1">  1       21 0.69270471E-02 0.30000000E+03</pdfrwt>
<pdfrwt beam="2">0</pdfrwt>
<totfact> 0.16432049E+04</totfact>
</mgrwt>
</event>
<event>
 6    1  0.6377696E-002  0.3000000E+03  0.7818608E-02  0.1093470E+00
         21   -1    0    0  501  502  0.00000000000E+00  0.00000000000E+00  0.26908063467E+01  0.26908063467E+01  0.00000000000E+00 0. -1.
         13   -1    0    0    0    0 -0.00000000000E+00 -0.00000000000E+00 -0.10000000000E+04  0.10000000000E+04  0.00000000000E+00 0.  1.
    9000005    2    1    2  501    0  0.49391675792E+02  0.11740227440E+02 -0.41230069525E+03  0.41548359098E+03  0.75749910784E+01 0.  0.
         13    1    3    3    0    0  0.46693697250E+02  0.12286125370E+02 -0.37770660884E+03  0.38078016309E+03  0.00000000000E+00 0.  1.
          3    1    3    3  501    0  0.26979785427E+01 -0.54589793025E+00 -0.34594086409E+02  0.34703427889E+02  0.00000000000E+00 0.  1.
         -1    1    1    2    0  502 -0.49391675792E+02 -0.11740227440E+02 -0.58500849841E+03  0.58720721537E+03  0.00000000000E+00 0. -1.
<mgrwt>
<rscale>  1 0.30000000E+03</rscale>
<asrwt>0</asrwt>
<pdfrwt beam="1">  1       21 0.97847710E-02 0.30000000E+03</pdfrwt>
<pdfrwt beam="2">0</pdfrwt>
<totfact> 0.89440393E+03</totfact>
</mgrwt>
</event>
<event>
 6    1  0.6377696E-002  0.3000000E+03  0.7818608E-02  0.1093470E+00
         21   -1    0    0  501  502  0.00000000000E+00  0.00000000000E+00  0.17535790056E+01  0.17535790056E+01  0.00000000000E+00 0. -1.
         13   -1    0    0    0    0 -0.00000000000E+00 -0.00000000000E+00 -0.10000000000E+04  0.10000000000E+04  0.00000000000E+00 0.  1.
    9000005    2    1    2  501    0  0.39102274082E+02  0.69557220762E+01 -0.34398829312E+03  0.34629109511E+03  0.34938287492E+01 0.  0.
         13    1    3    3    0    0  0.26238481478E+02  0.35024794135E+01 -0.21833085643E+03  0.21992973456E+03  0.00000000000E+00 0.  1.
          3    1    3    3  501    0  0.12863792603E+02  0.34532426627E+01 -0.12565743669E+03  0.12636136055E+03  0.00000000000E+00 0.  1.
         -1    1    1    2    0  502 -0.39102274082E+02 -0.69557220762E+01 -0.65425812788E+03  0.65546248390E+03  0.00000000000E+00 0. -1.
<mgrwt>
<rscale>  1 0.30000000E+03</rscale>
<asrwt>0</asrwt>
<pdfrwt beam="1">  1       21 0.63766644E-02 0.30000000E+03</pdfrwt>
<pdfrwt beam="2">0</pdfrwt>
<totfact> 0.18968548E+04</totfact>
</mgrwt>
</event>
<event>
 6    1  0.6377696E-002  0.3000000E+03  0.7818608E-02  0.1093470E+00
         21   -1    0    0  501  502  0.00000000000E+00  0.00000000000E+00  0.11627011893E+01  0.11627011893E+01  0.00000000000E+00 0. -1.
         13   -1    0    0    0    0 -0.00000000000E+00 -0.00000000000E+00 -0.10000000000E+04  0.10000000000E+04  0.00000000000E+00 0.  1.
    9000005    2    1    2  501    0  0.12049376847E+02  0.28717005610E+02 -0.29967770602E+03  0.30130986660E+03  0.33248053476E+01 0.  0.
         13    1    3    3    0    0  0.11611259579E+01  0.16186452405E+01 -0.26777923908E+02  0.26851916779E+02  0.00000000000E+00 0.  1.
          3    1    3    3  501    0  0.10888250889E+02  0.27098360370E+02 -0.27289978211E+03  0.27445794982E+03  0.00000000000E+00 0.  1.
         -1    1    1    2    0  502 -0.12049376847E+02 -0.28717005610E+02 -0.69915959279E+03  0.69985283459E+03  0.00000000000E+00 0. -1.
<mgrwt>
<rscale>  1 0.30000000E+03</rscale>
<asrwt>0</asrwt>
<pdfrwt beam="1">  1       21 0.42280132E-02 0.30000000E+03</pdfrwt>
<pdfrwt beam="2">0</pdfrwt>
<totfact> 0.38294076E+04</totfact>
</mgrwt>
</event>
<event>
 6    1  0.6377696E-002  0.3000000E+03  0.7818608E-02  0.1093470E+00
         21   -1    0    0  501  502  0.00000000000E+00  0.00000000000E+00  0.11714930628E+01  0.11714930628E+01  0.00000000000E+00 0. -1.
         13   -1    0    0    0    0 -0.00000000000E+00 -0.00000000000E+00 -0.10000000000E+04  0.10000000000E+04  0.00000000000E+00 0.  1.
    9000005    2    1    2  501    0 -0.12899520173E+02  0.29160567964E+02 -0.32057372707E+03  0.32216760297E+03  0.27773319826E+01 0.  0.
         13    1    3    3    0    0 -0.87291576173E+01  0.18613802506E+02 -0.21887874790E+03  0.21984216638E+03  0.00000000000E+00 0.  1.
          3    1    3    3  501    0 -0.41703625561E+01  0.10546765458E+02 -0.10169497917E+03  0.10232543660E+03  0.00000000000E+00 0.  1.
         -3    1    1    2    0  502  0.12899520173E+02 -0.29160567964E+02 -0.67825477987E+03  0.67900389009E+03  0.00000000000E+00 0. -1.
<mgrwt>
<rscale>  1 0.30000000E+03</rscale>
<asrwt>0</asrwt>
<pdfrwt beam="1">  1       21 0.42599838E-02 0.30000000E+03</pdfrwt>
<pdfrwt beam="2">0</pdfrwt>
<totfact> 0.37809715E+04</totfact>
</mgrwt>
</event>
<event>
 6    1  0.6377696E-002  0.3000000E+03  0.7818608E-02  0.1093470E+00
         21   -1    0    0  501  502  0.00000000000E+00  0.00000000000E+00  0.10930328393E+01  0.10930328393E+01  0.00000000000E+00 0. -1.
         13   -1    0    0    0    0 -0.00000000000E+00 -0.00000000000E+00 -0.10000000000E+04  0.10000000000E+04  0.00000000000E+00 0.  1.
    9000005    2    1    2  501    0 -0.24405859923E+02  0.19372321050E+02 -0.66450803500E+03  0.66524548014E+03  0.31124669572E+01 0.  0.
         13    1    3    3    0    0 -0.16763978318E+00 -0.11926731336E+00 -0.34429247137E+01  0.34490663045E+01  0.00000000000E+00 0.  1.
          1    1    3    3  501    0 -0.24238220140E+02  0.19491588363E+02 -0.66106511028E+03  0.66179641383E+03  0.00000000000E+00 0.  1.
         -3    1    1    2    0  502  0.24405859923E+02 -0.19372321050E+02 -0.33439893217E+03  0.33584755270E+03  0.00000000000E+00 0. -1.
<mgrwt>
<rscale>  1 0.30000000E+03</rscale>
<asrwt>0</asrwt>
<pdfrwt beam="1">  1       21 0.39746733E-02 0.30000000E+03</pdfrwt>
<pdfrwt beam="2">0</pdfrwt>
<totfact> 0.42499431E+04</totfact>
</mgrwt>
</event>
<event>
 6    1  0.6377696E-002  0.3000000E+03  0.7818608E-02  0.1093470E+00
         21   -1    0    0  501  502  0.00000000000E+00  0.00000000000E+00  0.16742745497E+01  0.16742745497E+01  0.00000000000E+00 0. -1.
         13   -1    0    0    0    0 -0.00000000000E+00 -0.00000000000E+00 -0.10000000000E+04  0.10000000000E+04  0.00000000000E+00 0.  1.
    9000005    2    1    2  501    0 -0.33547451487E+02 -0.11698287958E+02 -0.74639026843E+03  0.74724598221E+03  0.39804106536E+01 0.  0.
         13    1    3    3    0    0 -0.29118801918E+02 -0.10393874272E+02 -0.61832363662E+03  0.61909616123E+03  0.00000000000E+00 0.  1.
          1    1    3    3  501    0 -0.44286495688E+01 -0.13044136862E+01 -0.12806663181E+03  0.12814982098E+03  0.00000000000E+00 0.  1.
         -3    1    1    2    0  502  0.33547451487E+02  0.11698287958E+02 -0.25193545702E+03  0.25442829234E+03  0.00000000000E+00 0. -1.
<mgrwt>
<rscale>  1 0.30000000E+03</rscale>
<asrwt>0</asrwt>
<pdfrwt beam="1">  1       21 0.60882839E-02 0.30000000E+03</pdfrwt>
<pdfrwt beam="2">0</pdfrwt>
<totfact> 0.20547316E+04</totfact>
</mgrwt>
</event>
<event>
 6    1  0.6377696E-002  0.3000000E+03  0.7818608E-02  0.1093470E+00
         21   -1    0    0  501  502  0.00000000000E+00  0.00000000000E+00  0.43301930775E+01  0.43301930775E+01  0.00000000000E+00 0. -1.
         13   -1    0    0    0    0 -0.00000000000E+00 -0.00000000000E+00 -0.10000000000E+04  0.10000000000E+04  0.00000000000E+00 0.  1.
    9000005    2    1    2  501    0  0.46532242091E+02 -0.35359605354E+02 -0.72798561401E+03  0.73034045170E+03  0.43092852434E+01 0.  0.
         13    1    3    3    0    0  0.11428353009E+02 -0.11061943770E+02 -0.19401294185E+03  0.19466380110E+03  0.00000000000E+00 0.  1.
          1    1    3    3  501    0  0.35103889081E+02 -0.24297661584E+02 -0.53397267216E+03  0.53567665061E+03  0.00000000000E+00 0.  1.
         -1    1    1    2    0  502 -0.46532242091E+02  0.35359605354E+02 -0.26768419291E+03  0.27398974137E+03  0.00000000000E+00 0. -1.
<mgrwt>
<rscale>  1 0.30000000E+03</rscale>
<asrwt>0</asrwt>
<pdfrwt beam="1">  1       21 0.15746190E-01 0.30000000E+03</pdfrwt>
<pdfrwt beam="2">0</pdfrwt>
<totfact> 0.37631057E+03</totfact>
</mgrwt>
</event>
<event>
 6    1  0.6377696E-002  0.3000000E+03  0.7818608E-02  0.1093470E+00
         21   -1    0    0  501  502  0.00000000000E+00  0.00000000000E+00  0.21719644333E+01  0.21719644333E+01  0.00000000000E+00 0. -1.
         13   -1    0    0    0    0 -0.00000000000E+00 -0.00000000000E+00 -0.10000000000E+04  0.10000000000E+04  0.00000000000E+00 0.  1.
    9000005    2    1    2  501    0  0.47851618134E+01 -0.33736803707E+02 -0.84042366774E+03  0.84112164711E+03  0.35516541423E+01 0.  0.
         13    1    3    3    0    0  0.31177499174E+01 -0.10354952160E+02 -0.25959343494E+03  0.25981858452E+03  0.00000000000E+00 0.  1.
          3    1    3    3  501    0  0.16674118961E+01 -0.23381851548E+02 -0.58083023280E+03  0.58130306259E+03  0.00000000000E+00 0.  1.
         -1    1    1    2    0  502 -0.47851618134E+01  0.33736803707E+02 -0.15740436783E+03  0.16105031732E+03  0.00000000000E+00 0. -1.
<mgrwt>
<rscale>  1 0.30000000E+03</rscale>
<asrwt>0</asrwt>
<pdfrwt beam="1">  1       21 0.78980691E-02 0.30000000E+03</pdfrwt>
<pdfrwt beam="2">0</pdfrwt>
<totfact> 0.13064740E+04</totfact>
</mgrwt>
</event>
<event>
 6    1  0.6377696E-002  0.3000000E+03  0.7818608E-02  0.1093470E+00
         21   -1    0    0  501  502  0.00000000000E+00  0.00000000000E+00  0.22696327383E+01  0.22696327383E+01  0.00000000000E+00 0. -1.
         13   -1    0    0    0    0 -0.00000000000E+00 -0.00000000000E+00 -0.10000000000E+04  0.10000000000E+04  0.00000000000E+00 0.  1.
    9000005    2    1    2  501    0  0.46164346039E+02  0.76764688705E+01 -0.40839753553E+03  0.41108162409E+03  0.30788980486E+01 0.  0.
         13    1    3    3    0    0  0.23628382195E+02  0.54252784395E+01 -0.21495037890E+03  0.21631319766E+03  0.00000000000E+00 0.  1.
          1    1    3    3  501    0  0.22535963844E+02  0.22511904310E+01 -0.19344715663E+03  0.19476842643E+03  0.00000000000E+00 0.  1.
         -3    1    1    2    0  502 -0.46164346039E+02 -0.76764688705E+01 -0.58933283173E+03  0.59118800865E+03  0.00000000000E+00 0. -1.
<mgrwt>
<rscale>  1 0.30000000E+03</rscale>
<asrwt>0</asrwt>
<pdfrwt beam="1">  1       21 0.82532274E-02 0.30000000E+03</pdfrwt>
<pdfrwt beam="2">0</pdfrwt>
<totfact> 0.12092854E+04</totfact>
</mgrwt>
</event>
<event>
 6    1  0.6377696E-002  0.3000000E+03  0.7818608E-02  0.1093470E+00
         21   -1    0    0  501  502  0.00000000000E+00  0.00000000000E+00  0.20462166749E+01  0.20462166749E+01  0.00000000000E+00 0. -1.
         13   -1    0    0    0    0 -0.00000000000E+00 -0.00000000000E+00 -0.10000000000E+04  0.10000000000E+04  0.00000000000E+00 0.  1.
    9000005    2    1    2  501    0 -0.37157170644E+02 -0.25575073498E+02 -0.47786819097E+03  0.48000813081E+03  0.38804627629E+01 0.  0.
         13    1    3    3    0    0 -0.14585792186E+02 -0.79583617706E+01 -0.16762481532E+03  0.16844631063E+03  0.00000000000E+00 0.  1.
          1    1    3    3  501    0 -0.22571378457E+02 -0.17616711728E+02 -0.31024337565E+03  0.31156182018E+03  0.00000000000E+00 0.  1.
         -3    1    1    2    0  502  0.37157170644E+02  0.25575073498E+02 -0.52008559236E+03  0.52203808587E+03  0.00000000000E+00 0. -1.
<mgrwt>
<rscale>  1 0.30000000E+03</rscale>
<asrwt>0</asrwt>
<pdfrwt beam="1">  1       21 0.74408036E-02 0.30000000E+03</pdfrwt>
<pdfrwt beam="2">0</pdfrwt>
<totfact> 0.14504272E+04</totfact>
</mgrwt>
</event>
<event>
 6    1  0.6377696E-002  0.3000000E+03  0.7818608E-02  0.1093470E+00
         21   -1    0    0  501  502  0.00000000000E+00  0.00000000000E+00  0.10319687181E+01  0.10319687181E+01  0.00000000000E+00 0. -1.
         13   -1    0    0    0    0 -0.00000000000E+00 -0.00000000000E+00 -0.10000000000E+04  0.10000000000E+04  0.00000000000E+00 0.  1.
    9000005    2    1    2  501    0 -0.20576931193E+02 -0.23967302579E+02 -0.58405614646E+03  0.58491934712E+03  0.33494361390E+01 0.  0.
         13    1    3    3    0    0 -0.13704596260E+02 -0.14907010478E+02 -0.34650729999E+03  0.34709846422E+03  0.00000000000E+00 0.  1.
          3    1    3    3  501    0 -0.68723349320E+01 -0.90602921014E+01 -0.23754884647E+03  0.23782088290E+03  0.00000000000E+00 0.  1.
         -3    1    1    2    0  502  0.20576931193E+02  0.23967302579E+02 -0.41491188482E+03  0.41611262160E+03  0.00000000000E+00 0. -1.
<mgrwt>
<rscale>  1 0.30000000E+03</rscale>
<asrwt>0</asrwt>
<pdfrwt beam="1">  1       21 0.37526214E-02 0.30000000E+03</pdfrwt>
<pdfrwt beam="2">0</pdfrwt>
<totfact> 0.46812307E+04</totfact>
</mgrwt>
</event>
<event>
 6    1  0.6377696E-002  0.3000000E+03  0.7818608E-02  0.1093470E+00
         21   -1    0    0  501  502  0.00000000000E+00  0.00000000000E+00  0.12685188264E+01  0.12685188264E+01  0.00000000000E+00 0. -1.
         13   -1    0    0    0    0 -0.00000000000E+00 -0.00000000000E+00 -0.10000000000E+04  0.10000000000E+04  0.00000000000E+00 0.  1.
    9000005    2    1    2  501    0  0.17122277820E+02  0.30210928012E+02 -0.40345569002E+03  0.40498071910E+03  0.51977364383E+01 0.  0.
         13    1    3    3    0    0  0.17402793537E+02  0.29192799051E+02 -0.39497746439E+03  0.39643697370E+03  0.00000000000E+00 0.  1.
          1    1    3    3  501    0 -0.28051571770E+00  0.10181289611E+01 -0.84782256256E+01  0.85437453969E+01  0.00000000000E+00 0.  1.
         -3    1    1    2    0  502 -0.17122277820E+02 -0.30210928012E+02 -0.59527579116E+03  0.59628779973E+03  0.00000000000E+00 0. -1.
<mgrwt>
<rscale>  1 0.30000000E+03</rscale>
<asrwt>0</asrwt>
<pdfrwt beam="1">  1       21 0.46128055E-02 0.30000000E+03</pdfrwt>
<pdfrwt beam="2">0</pdfrwt>
<totfact> 0.33039363E+04</totfact>
</mgrwt>
</event>
<event>
 6    1  0.6377696E-002  0.3000000E+03  0.7818608E-02  0.1093470E+00
         21   -1    0    0  501  502  0.00000000000E+00  0.00000000000E+00  0.12140757223E+01  0.12140757223E+01  0.00000000000E+00 0. -1.
         13   -1    0    0    0    0 -0.00000000000E+00 -0.00000000000E+00 -0.10000000000E+04  0.10000000000E+04  0.00000000000E+00 0.  1.
    9000005    2    1    2  501    0  0.22857765643E+02 -0.25834981348E+02 -0.44388342720E+03  0.44524042079E+03  0.40757397318E+01 0.  0.
         13    1    3    3    0    0  0.19264143555E+02 -0.22817558249E+02 -0.39755368168E+03  0.39867364850E+03  0.00000000000E+00 0.  1.
          1    1    3    3  501    0  0.35936220880E+01 -0.30174230987E+01 -0.46329745523E+02  0.46566772296E+02  0.00000000000E+00 0.  1.
         -3    1    1    2    0  502 -0.22857765643E+02  0.25834981348E+02 -0.55490249708E+03  0.55597365493E+03  0.00000000000E+00 0. -1.
<mgrwt>
<rscale>  1 0.30000000E+03</rscale>
<asrwt>0</asrwt>
<pdfrwt beam="1">  1       21 0.44148301E-02 0.30000000E+03</pdfrwt>
<pdfrwt beam="2">0</pdfrwt>
<totfact> 0.35592924E+04</totfact>
</mgrwt>
</event>
<event>
 6    1  0.6377696E-002  0.3000000E+03  0.7818608E-02  0.1093470E+00
         21   -1    0    0  501  502  0.00000000000E+00  0.00000000000E+00  0.70968452459E+01  0.70968452459E+01  0.00000000000E+00 0. -1.
         13   -1    0    0    0    0 -0.00000000000E+00 -0.00000000000E+00 -0.10000000000E+04  0.10000000000E+04  0.00000000000E+00 0.  1.
    9000005    2    1    2  501    0 -0.26907057043E+02  0.79238028340E+02 -0.44034745258E+03  0.44824046042E+03  0.33130818685E+01 0.  0.
         13    1    3    3    0    0 -0.11315643482E+02  0.29684726791E+02 -0.17304181029E+03  0.17593377988E+03  0.00000000000E+00 0.  1.
          1    1    3    3  501    0 -0.15591413561E+02  0.49553301548E+02 -0.26730564229E+03  0.27230668055E+03  0.00000000000E+00 0.  1.
         -1    1    1    2    0  502  0.26907057043E+02 -0.79238028340E+02 -0.55255570217E+03  0.55885638482E+03  0.00000000000E+00 0. -1.
<mgrwt>
<rscale>  1 0.30000000E+03</rscale>
<asrwt>0</asrwt>
<pdfrwt beam="1">  1       21 0.25806764E-01 0.30000000E+03</pdfrwt>
<pdfrwt beam="2">0</pdfrwt>
<totfact> 0.14653653E+03</totfact>
</mgrwt>
</event>
<event>
 6    1  0.6377696E-002  0.3000000E+03  0.7818608E-02  0.1093470E+00
         21   -1    0    0  501  502  0.00000000000E+00  0.00000000000E+00  0.17360945300E+01  0.17360945300E+01  0.00000000000E+00 0. -1.
         13   -1    0    0    0    0 -0.00000000000E+00 -0.00000000000E+00 -0.10000000000E+04  0.10000000000E+04  0.00000000000E+00 0.  1.
    9000005    2    1    2  501    0  0.78538150019E+01  0.35813090516E+02 -0.27344496679E+03  0.27599044092E+03  0.73697866199E+01 0.  0.
         13    1    3    3    0    0  0.47787038256E+01  0.32595694355E+02 -0.24197316123E+03  0.24420549964E+03  0.00000000000E+00 0.  1.
          3    1    3    3  501    0  0.30751111763E+01  0.32173961614E+01 -0.31471805564E+02  0.31784941282E+02  0.00000000000E+00 0.  1.
         -3    1    1    2    0  502 -0.78538150019E+01 -0.35813090516E+02 -0.72481893868E+03  0.72574565361E+03  0.00000000000E+00 0. -1.
<mgrwt>
<rscale>  1 0.30000000E+03</rscale>
<asrwt>0</asrwt>
<pdfrwt beam="1">  1       21 0.63130843E-02 0.30000000E+03</pdfrwt>
<pdfrwt beam="2">0</pdfrwt>
<totfact> 0.19300073E+04</totfact>
</mgrwt>
</event>
<event>
 6    1  0.6377696E-002  0.3000000E+03  0.7818608E-02  0.1093470E+00
         21   -1    0    0  501  502  0.00000000000E+00  0.00000000000E+00  0.10533380699E+01  0.10533380699E+01  0.00000000000E+00 0. -1.
         13   -1    0    0    0    0 -0.00000000000E+00 -0.00000000000E+00 -0.10000000000E+04  0.10000000000E+04  0.00000000000E+00 0.  1.
    9000005    2    1    2  501    0  0.31247975227E+02 -0.72596582235E+01 -0.56644344125E+03  0.56736200256E+03  0.35115845478E+01 0.  0.
         13    1    3    3    0    0  0.37579856304E+01 -0.20654434626E+01 -0.79452440954E+02  0.79568077055E+02  0.00000000000E+00 0.  1.
          1    1    3    3  501    0  0.27489989597E+02 -0.51942147609E+01 -0.48699100029E+03  0.48779392551E+03  0.00000000000E+00 0.  1.
         -3    1    1    2    0  502 -0.31247975227E+02  0.72596582235E+01 -0.43250322068E+03  0.43369133551E+03  0.00000000000E+00 0. -1.
<mgrwt>
<rscale>  1 0.30000000E+03</rscale>
<asrwt>0</asrwt>
<pdfrwt beam="1">  1       21 0.38303283E-02 0.30000000E+03</pdfrwt>
<pdfrwt beam="2">0</pdfrwt>
<totfact> 0.45227858E+04</totfact>
</mgrwt>
</event>
<event>
 6    1  0.6377696E-002  0.3000000E+03  0.7818608E-02  0.1093470E+00
         21   -1    0    0  501  502  0.00000000000E+00  0.00000000000E+00  0.23369300999E+01  0.23369300999E+01  0.00000000000E+00 0. -1.
         13   -1    0    0    0    0 -0.00000000000E+00 -0.00000000000E+00 -0.10000000000E+04  0.10000000000E+04  0.00000000000E+00 0.  1.
    9000005    2    1    2  501    0  0.39141189543E+02  0.26498805990E+02 -0.60170065320E+03  0.60356324130E+03  0.32696717151E+01 0.  0.
         13    1    3    3    0    0  0.33900544861E+02  0.24096657339E+02 -0.53444835752E+03  0.53606430835E+03  0.00000000000E+00 0.  1.
          3    1    3    3  501    0  0.52406446825E+01  0.24021486508E+01 -0.67252295682E+02  0.67498932949E+02  0.00000000000E+00 0.  1.
         -3    1    1    2    0  502 -0.39141189543E+02 -0.26498805990E+02 -0.39596241670E+03  0.39877368880E+03  0.00000000000E+00 0. -1.
<mgrwt>
<rscale>  1 0.30000000E+03</rscale>
<asrwt>0</asrwt>
<pdfrwt beam="1">  1       21 0.84979456E-02 0.30000000E+03</pdfrwt>
<pdfrwt beam="2">0</pdfrwt>
<totfact> 0.11486157E+04</totfact>
</mgrwt>
</event>
<event>
 6    1  0.6377696E-002  0.3000000E+03  0.7818608E-02  0.1093470E+00
         21   -1    0    0  501  502  0.00000000000E+00  0.00000000000E+00  0.12590551796E+01  0.12590551796E+01  0.00000000000E+00 0. -1.
         13   -1    0    0    0    0 -0.00000000000E+00 -0.00000000000E+00 -0.10000000000E+04  0.10000000000E+04  0.00000000000E+00 0.  1.
    9000005    2    1    2  501    0 -0.25280952903E+02 -0.21905857121E+02 -0.33591756944E+03  0.33759210550E+03  0.29703664174E+01 0.  0.
         13    1    3    3    0    0 -0.25280468817E+02 -0.21716303918E+02 -0.33508341746E+03  0.33673668736E+03  0.00000000000E+00 0.  1.
          1    1    3    3  501    0 -0.48408618562E-03 -0.18955320336E+00 -0.83415198179E+00  0.85541813166E+00  0.00000000000E+00 0.  1.
         -3    1    1    2    0  502  0.25280952903E+02  0.21905857121E+02 -0.66282337538E+03  0.66366694968E+03  0.00000000000E+00 0. -1.
<mgrwt>
<rscale>  1 0.30000000E+03</rscale>
<asrwt>0</asrwt>
<pdfrwt beam="1">  1       21 0.45783921E-02 0.30000000E+03</pdfrwt>
<pdfrwt beam="2">0</pdfrwt>
<totfact> 0.33462377E+04</totfact>
</mgrwt>
</event>
<event>
 6    1  0.6377696E-002  0.3000000E+03  0.7818608E-02  0.1093470E+00
         21   -1    0    0  501  502  0.00000000000E+00  0.00000000000E+00  0.12125743055E+01  0.12125743055E+01  0.00000000000E+00 0. -1.
         13   -1    0    0    0    0 -0.00000000000E+00 -0.00000000000E+00 -0.10000000000E+04  0.10000000000E+04  0.00000000000E+00 0.  1.
    9000005    2    1    2  501    0  0.55926428576E+01 -0.32402764612E+02 -0.33937036710E+03  0.34097619696E+03  0.33621447316E+01 0.  0.
         13    1    3    3    0    0  0.50488890874E+01 -0.30861017336E+02 -0.31403573545E+03  0.31558887308E+03  0.00000000000E+00 0.  1.
          3    1    3    3  501    0  0.54375377020E+00 -0.15417472753E+01 -0.25334631648E+02  0.25387323876E+02  0.00000000000E+00 0.  1.
         -3    1    1    2    0  502 -0.55926428576E+01  0.32402764612E+02 -0.65941705859E+03  0.66023637735E+03  0.00000000000E+00 0. -1.
<mgrwt>
<rscale>  1 0.30000000E+03</rscale>
<asrwt>0</asrwt>
<pdfrwt beam="1">  1       21 0.44093704E-02 0.30000000E+03</pdfrwt>
<pdfrwt beam="2">0</pdfrwt>
<totfact> 0.35667627E+04</totfact>
</mgrwt>
</event>
<event>
 6    1  0.6377696E-002  0.3000000E+03  0.7818608E-02  0.1093470E+00
         21   -1    0    0  501  502  0.00000000000E+00  0.00000000000E+00  0.14287847926E+01  0.14287847926E+01  0.00000000000E+00 0. -1.
         13   -1    0    0    0    0 -0.00000000000E+00 -0.00000000000E+00 -0.10000000000E+04  0.10000000000E+04  0.00000000000E+00 0.  1.
    9000005    2    1    2  501    0 -0.28637654688E+01  0.37215560109E+02 -0.57417440892E+03  0.57539375307E+03  0.29189292247E+01 0.  0.
         13    1    3    3    0    0 -0.22762669297E+01  0.15449979073E+02 -0.22538524238E+03  0.22592563097E+03  0.00000000000E+00 0.  1.
          1    1    3    3  501    0 -0.58749853913E+00  0.21765581037E+02 -0.34878916654E+03  0.34946812211E+03  0.00000000000E+00 0.  1.
         -3    1    1    2    0  502  0.28637654688E+01 -0.37215560109E+02 -0.42439680629E+03  0.42603503172E+03  0.00000000000E+00 0. -1.
<mgrwt>
<rscale>  1 0.30000000E+03</rscale>
<asrwt>0</asrwt>
<pdfrwt beam="1">  1       21 0.51955920E-02 0.30000000E+03</pdfrwt>
<pdfrwt beam="2">0</pdfrwt>
<totfact> 0.26978939E+04</totfact>
</mgrwt>
</event>
<event>
 6    1  0.6377696E-002  0.3000000E+03  0.7818608E-02  0.1093470E+00
         21   -1    0    0  501  502  0.00000000000E+00  0.00000000000E+00  0.10417066970E+01  0.10417066970E+01  0.00000000000E+00 0. -1.
         13   -1    0    0    0    0 -0.00000000000E+00 -0.00000000000E+00 -0.10000000000E+04  0.10000000000E+04  0.00000000000E+00 0.  1.
    9000005    2    1    2  501    0 -0.19710089118E+02 -0.25376294507E+02 -0.52795452811E+03  0.52894320981E+03  0.35343340882E+01 0.  0.
         13    1    3    3    0    0 -0.13884781292E+02 -0.19595426533E+02 -0.37430321218E+03  0.37507287631E+03  0.00000000000E+00 0.  1.
          3    1    3    3  501    0 -0.58253078257E+01 -0.57808679738E+01 -0.15365131593E+03  0.15387033350E+03  0.00000000000E+00 0.  1.
         -3    1    1    2    0  502  0.19710089118E+02  0.25376294507E+02 -0.47100376520E+03  0.47209849689E+03  0.00000000000E+00 0. -1.
<mgrwt>
<rscale>  1 0.30000000E+03</rscale>
<asrwt>0</asrwt>
<pdfrwt beam="1">  1       21 0.37880323E-02 0.30000000E+03</pdfrwt>
<pdfrwt beam="2">0</pdfrwt>
<totfact> 0.46079631E+04</totfact>
</mgrwt>
</event>
<event>
 6    1  0.6377696E-002  0.3000000E+03  0.7818608E-02  0.1093470E+00
         21   -1    0    0  501  502  0.00000000000E+00  0.00000000000E+00  0.27347734984E+01  0.27347734984E+01  0.00000000000E+00 0. -1.
         13   -1    0    0    0    0 -0.00000000000E+00 -0.00000000000E+00 -0.10000000000E+04  0.10000000000E+04  0.00000000000E+00 0.  1.
    9000005    2    1    2  501    0  0.46004512283E+02  0.82903041569E+01 -0.27554317576E+03  0.27950046650E+03  0.33652298811E+01 0.  0.
         13    1    3    3    0    0  0.43346364916E+01  0.71258666259E+00 -0.20596254122E+02  0.21059499926E+02  0.00000000000E+00 0.  1.
          3    1    3    3  501    0  0.41669875792E+02  0.75777174944E+01 -0.25494692164E+03  0.25844096658E+03  0.00000000000E+00 0.  1.
         -3    1    1    2    0  502 -0.46004512283E+02 -0.82903041569E+01 -0.72172205074E+03  0.72323430700E+03  0.00000000000E+00 0. -1.
<mgrwt>
<rscale>  1 0.30000000E+03</rscale>
<asrwt>0</asrwt>
<pdfrwt beam="1">  1       21 0.99446519E-02 0.30000000E+03</pdfrwt>
<pdfrwt beam="2">0</pdfrwt>
<totfact> 0.86889283E+03</totfact>
</mgrwt>
</event>
<event>
 6    1  0.6377696E-002  0.3000000E+03  0.7818608E-02  0.1093470E+00
         21   -1    0    0  501  502  0.00000000000E+00  0.00000000000E+00  0.31695998718E+01  0.31695998718E+01  0.00000000000E+00 0. -1.
         13   -1    0    0    0    0 -0.00000000000E+00 -0.00000000000E+00 -0.10000000000E+04  0.10000000000E+04  0.00000000000E+00 0.  1.
    9000005    2    1    2  501    0 -0.49362950661E+02 -0.23810347779E+02 -0.38850548472E+03  0.39238089969E+03  0.47565982921E+01 0.  0.
         13    1    3    3    0    0 -0.98082748334E+01 -0.32278609907E+01 -0.64396350323E+02  0.65218948755E+02  0.00000000000E+00 0.  1.
          1    1    3    3  501    0 -0.39554675828E+02 -0.20582486789E+02 -0.32410913439E+03  0.32716195093E+03  0.00000000000E+00 0.  1.
         -1    1    1    2    0  502  0.49362950661E+02  0.23810347779E+02 -0.60832491541E+03  0.61078870018E+03  0.00000000000E+00 0. -1.
<mgrwt>
<rscale>  1 0.30000000E+03</rscale>
<asrwt>0</asrwt>
<pdfrwt beam="1">  1       21 0.11525842E-01 0.30000000E+03</pdfrwt>
<pdfrwt beam="2">0</pdfrwt>
<totfact> 0.66664628E+03</totfact>
</mgrwt>
</event>
<event>
 6    1  0.6377696E-002  0.3000000E+03  0.7818608E-02  0.1093470E+00
         21   -1    0    0  501  502  0.00000000000E+00  0.00000000000E+00  0.24637450651E+01  0.24637450651E+01  0.00000000000E+00 0. -1.
         13   -1    0    0    0    0 -0.00000000000E+00 -0.00000000000E+00 -0.10000000000E+04  0.10000000000E+04  0.00000000000E+00 0.  1.
    9000005    2    1    2  501    0 -0.23118499848E+01  0.49032922271E+02 -0.42937226586E+03  0.43218320832E+03  0.34943871027E+01 0.  0.
         13    1    3    3    0    0 -0.23636203977E+01  0.16588899883E+02 -0.14191248834E+03  0.14289832976E+03  0.00000000000E+00 0.  1.
          3    1    3    3  501    0  0.51770412890E-01  0.32444022388E+02 -0.28745977752E+03  0.28928487856E+03  0.00000000000E+00 0.  1.
         -3    1    1    2    0  502  0.23118499848E+01 -0.49032922271E+02 -0.56816398907E+03  0.57028053675E+03  0.00000000000E+00 0. -1.
<mgrwt>
<rscale>  1 0.30000000E+03</rscale>
<asrwt>0</asrwt>
<pdfrwt beam="1">  1       21 0.89590919E-02 0.30000000E+03</pdfrwt>
<pdfrwt beam="2">0</pdfrwt>
<totfact> 0.10462174E+04</totfact>
</mgrwt>
</event>
<event>
 6    1  0.6377696E-002  0.3000000E+03  0.7818608E-02  0.1093470E+00
         21   -1    0    0  501  502  0.00000000000E+00  0.00000000000E+00  0.14565719926E+01  0.14565719926E+01  0.00000000000E+00 0. -1.
         13   -1    0    0    0    0 -0.00000000000E+00 -0.00000000000E+00 -0.10000000000E+04  0.10000000000E+04  0.00000000000E+00 0.  1.
    9000005    2    1    2  501    0 -0.31563684508E+02 -0.20789888192E+02 -0.55917581571E+03  0.56046634039E+03  0.40546525394E+01 0.  0.
         13    1    3    3    0    0 -0.12362783827E+02 -0.81384117517E+01 -0.19048035157E+03  0.19105453803E+03  0.00000000000E+00 0.  1.
          3    1    3    3  501    0 -0.19200900681E+02 -0.12651476441E+02 -0.36869546414E+03  0.36941180236E+03  0.00000000000E+00 0.  1.
         -1    1    1    2    0  502  0.31563684508E+02  0.20789888192E+02 -0.43936761230E+03  0.44099023160E+03  0.00000000000E+00 0. -1.
<mgrwt>
<rscale>  1 0.30000000E+03</rscale>
<asrwt>0</asrwt>
<pdfrwt beam="1">  1       21 0.52966366E-02 0.30000000E+03</pdfrwt>
<pdfrwt beam="2">0</pdfrwt>
<totfact> 0.26105191E+04</totfact>
</mgrwt>
</event>
<event>
 6    1  0.6377696E-002  0.3000000E+03  0.7818608E-02  0.1093470E+00
         21   -1    0    0  501  502  0.00000000000E+00  0.00000000000E+00  0.13458447711E+01  0.13458447711E+01  0.00000000000E+00 0. -1.
         13   -1    0    0    0    0 -0.00000000000E+00 -0.00000000000E+00 -0.10000000000E+04  0.10000000000E+04  0.00000000000E+00 0.  1.
    9000005    2    1    2  501    0  0.14763543967E+02  0.33153652698E+02 -0.43553124525E+03  0.43705466226E+03  0.34907443004E+01 0.  0.
         13    1    3    3    0    0  0.13998374750E+02  0.30327856073E+02 -0.38903429367E+03  0.39046563870E+03  0.00000000000E+00 0.  1.
          1    1    3    3  501    0  0.76516921729E+00  0.28257966254E+01 -0.46496951579E+02  0.46589023564E+02  0.00000000000E+00 0.  1.
         -1    1    1    2    0  502 -0.14763543967E+02 -0.33153652698E+02 -0.56312290998E+03  0.56429118251E+03  0.00000000000E+00 0. -1.
<mgrwt>
<rscale>  1 0.30000000E+03</rscale>
<asrwt>0</asrwt>
<pdfrwt beam="1">  1       21 0.48939913E-02 0.30000000E+03</pdfrwt>
<pdfrwt beam="2">0</pdfrwt>
<totfact> 0.29875840E+04</totfact>
</mgrwt>
</event>
<event>
 6    1  0.6377696E-002  0.3000000E+03  0.7818608E-02  0.1093470E+00
         21   -1    0    0  501  502  0.00000000000E+00  0.00000000000E+00  0.99021244040E+00  0.99021244040E+00  0.00000000000E+00 0. -1.
         13   -1    0    0    0    0 -0.00000000000E+00 -0.00000000000E+00 -0.10000000000E+04  0.10000000000E+04  0.00000000000E+00 0.  1.
    9000005    2    1    2  501    0  0.21645894797E+02  0.22157593206E+02 -0.57802586685E+03  0.57886823339E+03  0.38762335324E+01 0.  0.
         13    1    3    3    0    0  0.30493478767E+01  0.36726036366E+01 -0.66768953015E+02  0.66939372768E+02  0.00000000000E+00 0.  1.
          1    1    3    3  501    0  0.18596546921E+02  0.18484989570E+02 -0.51125691383E+03  0.51192886062E+03  0.00000000000E+00 0.  1.
         -1    1    1    2    0  502 -0.21645894797E+02 -0.22157593206E+02 -0.42098392071E+03  0.42212197905E+03  0.00000000000E+00 0. -1.
<mgrwt>
<rscale>  1 0.30000000E+03</rscale>
<asrwt>0</asrwt>
<pdfrwt beam="1">  1       21 0.36007801E-02 0.30000000E+03</pdfrwt>
<pdfrwt beam="2">0</pdfrwt>
<totfact> 0.50172078E+04</totfact>
</mgrwt>
</event>
<event>
 6    1  0.6377696E-002  0.3000000E+03  0.7818608E-02  0.1093470E+00
         21   -1    0    0  501  502  0.00000000000E+00  0.00000000000E+00  0.19090534391E+01  0.19090534391E+01  0.00000000000E+00 0. -1.
         13   -1    0    0    0    0 -0.00000000000E+00 -0.00000000000E+00 -0.10000000000E+04  0.10000000000E+04  0.00000000000E+00 0.  1.
    9000005    2    1    2  501    0 -0.77560738892E+01  0.41168803543E+02 -0.35939319565E+03  0.36183886660E+03  0.29781256444E+01 0.  0.
         13    1    3    3    0    0 -0.80190140569E+01  0.40027465095E+02 -0.35022472550E+03  0.35259588894E+03  0.00000000000E+00 0.  1.
          1    1    3    3  501    0  0.26294016773E+00  0.11413384478E+01 -0.91684701566E+01  0.92429776585E+01  0.00000000000E+00 0.  1.
         -3    1    1    2    0  502  0.77560738892E+01 -0.41168803543E+02 -0.63869775091E+03  0.64007018684E+03  0.00000000000E+00 0. -1.
<mgrwt>
<rscale>  1 0.30000000E+03</rscale>
<asrwt>0</asrwt>
<pdfrwt beam="1">  1       21 0.69420271E-02 0.30000000E+03</pdfrwt>
<pdfrwt beam="2">0</pdfrwt>
<totfact> 0.16370435E+04</totfact>
</mgrwt>
</event>
<event>
 6    1  0.6377696E-002  0.3000000E+03  0.7818608E-02  0.1093470E+00
         21   -1    0    0  501  502  0.00000000000E+00  0.00000000000E+00  0.10581686519E+01  0.10581686519E+01  0.00000000000E+00 0. -1.
         13   -1    0    0    0    0 -0.00000000000E+00 -0.00000000000E+00 -0.10000000000E+04  0.10000000000E+04  0.00000000000E+00 0.  1.
    9000005    2    1    2  501    0  0.24972302056E+01  0.31940345279E+02 -0.57635472608E+03  0.57725835347E+03  0.40018187042E+01 0.  0.
         13    1    3    3    0    0 -0.36002217121E+00  0.13424255312E+02 -0.21622393146E+03  0.21664055203E+03  0.00000000000E+00 0.  1.
          3    1    3    3  501    0  0.28572523768E+01  0.18516089967E+02 -0.36013079462E+03  0.36061780143E+03  0.00000000000E+00 0.  1.
         -3    1    1    2    0  502 -0.24972302056E+01 -0.31940345279E+02 -0.42258710527E+03  0.42379981519E+03  0.00000000000E+00 0. -1.
<mgrwt>
<rscale>  1 0.30000000E+03</rscale>
<asrwt>0</asrwt>
<pdfrwt beam="1">  1       21 0.38478941E-02 0.30000000E+03</pdfrwt>
<pdfrwt beam="2">0</pdfrwt>
<totfact> 0.44881358E+04</totfact>
</mgrwt>
</event>
<event>
 6    1  0.6377696E-002  0.3000000E+03  0.7818608E-02  0.1093470E+00
         21   -1    0    0  501  502  0.00000000000E+00  0.00000000000E+00  0.12390886908E+01  0.12390886908E+01  0.00000000000E+00 0. -1.
         13   -1    0    0    0    0 -0.00000000000E+00 -0.00000000000E+00 -0.10000000000E+04  0.10000000000E+04  0.00000000000E+00 0.  1.
    9000005    2    1    2  501    0  0.13918117924E+02 -0.30224771093E+02 -0.36494954119E+03  0.36655483358E+03  0.81870392293E+01 0.  0.
         13    1    3    3    0    0 -0.99641748527E+00 -0.87396312655E+00 -0.11921501700E+02  0.11994951527E+02  0.00000000000E+00 0.  1.
          1    1    3    3  501    0  0.14914535410E+02 -0.29350807966E+02 -0.35302803949E+03  0.35455988206E+03  0.00000000000E+00 0.  1.
         -3    1    1    2    0  502 -0.13918117924E+02  0.30224771093E+02 -0.63381137012E+03  0.63468425511E+03  0.00000000000E+00 0. -1.
<mgrwt>
<rscale>  1 0.30000000E+03</rscale>
<asrwt>0</asrwt>
<pdfrwt beam="1">  1       21 0.45057866E-02 0.30000000E+03</pdfrwt>
<pdfrwt beam="2">0</pdfrwt>
<totfact> 0.34383126E+04</totfact>
</mgrwt>
</event>
<event>
 6    1  0.6377696E-002  0.3000000E+03  0.7818608E-02  0.1093470E+00
         21   -1    0    0  501  502  0.00000000000E+00  0.00000000000E+00  0.16018552798E+01  0.16018552798E+01  0.00000000000E+00 0. -1.
         13   -1    0    0    0    0 -0.00000000000E+00 -0.00000000000E+00 -0.10000000000E+04  0.10000000000E+04  0.00000000000E+00 0.  1.
    9000005    2    1    2  501    0  0.37890532857E+02 -0.12636041289E+02 -0.49897261866E+03  0.50058167794E+03  0.36027904130E+01 0.  0.
         13    1    3    3    0    0  0.74060862023E+01 -0.39729747858E+01 -0.10052407897E+03  0.10087479910E+03  0.00000000000E+00 0.  1.
          1    1    3    3  501    0  0.30484446654E+02 -0.86630665036E+01 -0.39844853969E+03  0.39970687884E+03  0.00000000000E+00 0.  1.
         -3    1    1    2    0  502 -0.37890532857E+02  0.12636041289E+02 -0.49942552606E+03  0.50102017734E+03  0.00000000000E+00 0. -1.
<mgrwt>
<rscale>  1 0.30000000E+03</rscale>
<asrwt>0</asrwt>
<pdfrwt beam="1">  1       21 0.58249406E-02 0.30000000E+03</pdfrwt>
<pdfrwt beam="2">0</pdfrwt>
<totfact> 0.22175070E+04</totfact>
</mgrwt>
</event>
<event>
 6    1  0.6377696E-002  0.3000000E+03  0.7818608E-02  0.1093470E+00
         21   -1    0    0  501  502  0.00000000000E+00  0.00000000000E+00  0.21848685462E+01  0.21848685462E+01  0.00000000000E+00 0. -1.
         13   -1    0    0    0    0 -0.00000000000E+00 -0.00000000000E+00 -0.10000000000E+04  0.10000000000E+04  0.00000000000E+00 0.  1.
    9000005    2    1    2  501    0 -0.32354886031E+02  0.53746237234E+01 -0.85568222237E+03  0.85631681490E+03  0.32705608170E+01 0.  0.
         13    1    3    3    0    0 -0.17870627039E+02  0.13836134235E+01 -0.47733597790E+03  0.47767238721E+03  0.00000000000E+00 0.  1.
          3    1    3    3  501    0 -0.14484258993E+02  0.39910102999E+01 -0.37834624447E+03  0.37864442770E+03  0.00000000000E+00 0.  1.
         -1    1    1    2    0  502  0.32354886031E+02 -0.53746237234E+01 -0.14213290908E+03  0.14586805364E+03  0.00000000000E+00 0. -1.
<mgrwt>
<rscale>  1 0.30000000E+03</rscale>
<asrwt>0</asrwt>
<pdfrwt beam="1">  1       21 0.79449933E-02 0.30000000E+03</pdfrwt>
<pdfrwt beam="2">0</pdfrwt>
<totfact> 0.12929585E+04</totfact>
</mgrwt>
</event>
<event>
 6    1  0.6377696E-002  0.3000000E+03  0.7818608E-02  0.1093470E+00
         21   -1    0    0  501  502  0.00000000000E+00  0.00000000000E+00  0.19135206139E+01  0.19135206139E+01  0.00000000000E+00 0. -1.
         13   -1    0    0    0    0 -0.00000000000E+00 -0.00000000000E+00 -0.10000000000E+04  0.10000000000E+04  0.00000000000E+00 0.  1.
    9000005    2    1    2  501    0 -0.33226943777E+01  0.42430741558E+02 -0.61253622595E+03  0.61402125973E+03  0.31735115015E+01 0.  0.
         13    1    3    3    0    0 -0.26129057479E+01  0.39755897816E+02 -0.58057151823E+03  0.58193697809E+03  0.00000000000E+00 0.  1.
          1    1    3    3  501    0 -0.70978862977E+00  0.26748437415E+01 -0.31964707716E+02  0.32084281639E+02  0.00000000000E+00 0.  1.
         -3    1    1    2    0  502  0.33226943777E+01 -0.42430741558E+02 -0.38555025344E+03  0.38789226088E+03  0.00000000000E+00 0. -1.
<mgrwt>
<rscale>  1 0.30000000E+03</rscale>
<asrwt>0</asrwt>
<pdfrwt beam="1">  1       21 0.69582715E-02 0.30000000E+03</pdfrwt>
<pdfrwt beam="2">0</pdfrwt>
<totfact> 0.16304019E+04</totfact>
</mgrwt>
</event>
<event>
 6    1  0.6377696E-002  0.3000000E+03  0.7818608E-02  0.1093470E+00
         21   -1    0    0  501  502  0.00000000000E+00  0.00000000000E+00  0.34745089058E+01  0.34745089058E+01  0.00000000000E+00 0. -1.
         13   -1    0    0    0    0 -0.00000000000E+00 -0.00000000000E+00 -0.10000000000E+04  0.10000000000E+04  0.00000000000E+00 0.  1.
    9000005    2    1    2  501    0 -0.35053511010E+01  0.57637923077E+02 -0.59703478814E+03  0.59983204408E+03  0.36776615124E+01 0.  0.
         13    1    3    3    0    0 -0.39507452803E+01  0.52213180819E+02 -0.53263056876E+03  0.53519823189E+03  0.00000000000E+00 0.  1.
          1    1    3    3  501    0  0.44539417939E+00  0.54247422581E+01 -0.64404219380E+02  0.64633812192E+02  0.00000000000E+00 0.  1.
         -1    1    1    2    0  502  0.35053511010E+01 -0.57637923077E+02 -0.39949070296E+03  0.40364246483E+03  0.00000000000E+00 0. -1.
<mgrwt>
<rscale>  1 0.30000000E+03</rscale>
<asrwt>0</asrwt>
<pdfrwt beam="1">  1       21 0.12634604E-01 0.30000000E+03</pdfrwt>
<pdfrwt beam="2">0</pdfrwt>
<totfact> 0.56424997E+03</totfact>
</mgrwt>
</event>
<event>
 6    1  0.6377696E-002  0.3000000E+03  0.7818608E-02  0.1093470E+00
         21   -1    0    0  501  502  0.00000000000E+00  0.00000000000E+00  0.11267288258E+01  0.11267288258E+01  0.00000000000E+00 0. -1.
         13   -1    0    0    0    0 -0.00000000000E+00 -0.00000000000E+00 -0.10000000000E+04  0.10000000000E+04  0.00000000000E+00 0.  1.
    9000005    2    1    2  501    0  0.27790474206E+02  0.17821579881E+02 -0.41627559454E+03  0.41759440582E+03  0.31301759396E+01 0.  0.
         13    1    3    3    0    0  0.37069129513E+01  0.28470991506E+01 -0.72910181448E+02  0.73059850369E+02  0.00000000000E+00 0.  1.
          1    1    3    3  501    0  0.24083561254E+02  0.14974480731E+02 -0.34336541309E+03  0.34453455545E+03  0.00000000000E+00 0.  1.
         -3    1    1    2    0  502 -0.27790474206E+02 -0.17821579881E+02 -0.58259767664E+03  0.58353232300E+03  0.00000000000E+00 0. -1.
<mgrwt>
<rscale>  1 0.30000000E+03</rscale>
<asrwt>0</asrwt>
<pdfrwt beam="1">  1       21 0.40972044E-02 0.30000000E+03</pdfrwt>
<pdfrwt beam="2">0</pdfrwt>
<totfact> 0.40380052E+04</totfact>
</mgrwt>
</event>
<event>
 6    1  0.6377696E-002  0.3000000E+03  0.7818608E-02  0.1093470E+00
         21   -1    0    0  501  502  0.00000000000E+00  0.00000000000E+00  0.17984937877E+02  0.17984937877E+02  0.00000000000E+00 0. -1.
         13   -1    0    0    0    0 -0.00000000000E+00 -0.00000000000E+00 -0.10000000000E+04  0.10000000000E+04  0.00000000000E+00 0.  1.
    9000005    2    1    2  501    0  0.70608310659E+02 -0.85846629121E+02 -0.77575865507E+03  0.78368409982E+03  0.20248761781E+01 0.  0.
         13    1    3    3    0    0  0.18111467541E+02 -0.22275528365E+02 -0.19428306600E+03  0.19639280576E+03  0.00000000000E+00 0.  1.
          1    1    3    3  501    0  0.52496843118E+02 -0.63571100756E+02 -0.58147558907E+03  0.58729129405E+03  0.00000000000E+00 0.  1.
         -3    1    1    2    0  502 -0.70608310659E+02  0.85846629121E+02 -0.20625640705E+03  0.23430083806E+03  0.00000000000E+00 0. -1.
<mgrwt>
<rscale>  1 0.30000000E+03</rscale>
<asrwt>0</asrwt>
<pdfrwt beam="1">  1       21 0.65399912E-01 0.30000000E+03</pdfrwt>
<pdfrwt beam="2">0</pdfrwt>
<totfact> 0.20649745E+02</totfact>
</mgrwt>
</event>
<event>
 6    1  0.6377696E-002  0.3000000E+03  0.7818608E-02  0.1093470E+00
         21   -1    0    0  501  502  0.00000000000E+00  0.00000000000E+00  0.97066197177E+00  0.97066197177E+00  0.00000000000E+00 0. -1.
         13   -1    0    0    0    0 -0.00000000000E+00 -0.00000000000E+00 -0.10000000000E+04  0.10000000000E+04  0.00000000000E+00 0.  1.
    9000005    2    1    2  501    0 -0.26915949645E+02  0.13449780314E+02 -0.62535607466E+03  0.62608791672E+03  0.32395069473E+01 0.  0.
         13    1    3    3    0    0 -0.20469566834E+02  0.10302044147E+02 -0.50297814444E+03  0.50349989977E+03  0.00000000000E+00 0.  1.
          1    1    3    3  501    0 -0.64463828103E+01  0.31477361672E+01 -0.12237793022E+03  0.12258801695E+03  0.00000000000E+00 0.  1.
         -3    1    1    2    0  502  0.26915949645E+02 -0.13449780314E+02 -0.37367326336E+03  0.37488274525E+03  0.00000000000E+00 0. -1.
<mgrwt>
<rscale>  1 0.30000000E+03</rscale>
<asrwt>0</asrwt>
<pdfrwt beam="1">  1       21 0.35296873E-02 0.30000000E+03</pdfrwt>
<pdfrwt beam="2">0</pdfrwt>
<totfact> 0.51877652E+04</totfact>
</mgrwt>
</event>
<event>
 6    1  0.6377696E-002  0.3000000E+03  0.7818608E-02  0.1093470E+00
         21   -1    0    0  501  502  0.00000000000E+00  0.00000000000E+00  0.58488423067E+01  0.58488423067E+01  0.00000000000E+00 0. -1.
         13   -1    0    0    0    0 -0.00000000000E+00 -0.00000000000E+00 -0.10000000000E+04  0.10000000000E+04  0.00000000000E+00 0.  1.
    9000005    2    1    2  501    0 -0.47971404443E+01 -0.73543641358E+02 -0.36311998027E+03  0.37052842974E+03  0.18754826896E+01 0.  0.
         13    1    3    3    0    0 -0.18972564458E+01 -0.42381022206E+02 -0.21062997828E+03  0.21485981099E+03  0.00000000000E+00 0.  1.
          1    1    3    3  501    0 -0.28998839985E+01 -0.31162619152E+02 -0.15249000198E+03  0.15566861875E+03  0.00000000000E+00 0.  1.
         -3    1    1    2    0  502  0.47971404443E+01  0.73543641358E+02 -0.63103117743E+03  0.63532041257E+03  0.00000000000E+00 0. -1.
<mgrwt>
<rscale>  1 0.30000000E+03</rscale>
<asrwt>0</asrwt>
<pdfrwt beam="1">  1       21 0.21268562E-01 0.30000000E+03</pdfrwt>
<pdfrwt beam="2">0</pdfrwt>
<totfact> 0.21328018E+03</totfact>
</mgrwt>
</event>
<event>
 6    1  0.6377696E-002  0.3000000E+03  0.7818608E-02  0.1093470E+00
         21   -1    0    0  501  502  0.00000000000E+00  0.00000000000E+00  0.16298522294E+01  0.16298522294E+01  0.00000000000E+00 0. -1.
         13   -1    0    0    0    0 -0.00000000000E+00 -0.00000000000E+00 -0.10000000000E+04  0.10000000000E+04  0.00000000000E+00 0.  1.
    9000005    2    1    2  501    0  0.25958425136E+02 -0.27988629994E+02 -0.66051508184E+03  0.66162507459E+03  0.32191209844E+01 0.  0.
         13    1    3    3    0    0  0.18014460268E+01 -0.12551675549E+01 -0.49344698102E+02  0.49393520670E+02  0.00000000000E+00 0.  1.
          1    1    3    3  501    0  0.24156979109E+02 -0.26733462440E+02 -0.61117038374E+03  0.61223155392E+03  0.00000000000E+00 0.  1.
         -1    1    1    2    0  502 -0.25958425136E+02  0.27988629994E+02 -0.33785506593E+03  0.34000477764E+03  0.00000000000E+00 0. -1.
<mgrwt>
<rscale>  1 0.30000000E+03</rscale>
<asrwt>0</asrwt>
<pdfrwt beam="1">  1       21 0.59267479E-02 0.30000000E+03</pdfrwt>
<pdfrwt beam="2">0</pdfrwt>
<totfact> 0.21522726E+04</totfact>
</mgrwt>
</event>
<event>
 6    1  0.6377696E-002  0.3000000E+03  0.7818608E-02  0.1093470E+00
         21   -1    0    0  501  502  0.00000000000E+00  0.00000000000E+00  0.19933950447E+01  0.19933950447E+01  0.00000000000E+00 0. -1.
         13   -1    0    0    0    0 -0.00000000000E+00 -0.00000000000E+00 -0.10000000000E+04  0.10000000000E+04  0.00000000000E+00 0.  1.
    9000005    2    1    2  501    0  0.44155918966E+02  0.55038459448E+01 -0.53077026372E+03  0.53264295447E+03  0.33773649141E+01 0.  0.
         13    1    3    3    0    0  0.12658497052E+02  0.31159607466E+01 -0.15312645276E+03  0.15368037381E+03  0.00000000000E+00 0.  1.
          1    1    3    3  501    0  0.31497421913E+02  0.23878851982E+01 -0.37764381096E+03  0.37896258065E+03  0.00000000000E+00 0.  1.
         -3    1    1    2    0  502 -0.44155918966E+02 -0.55038459448E+01 -0.46723634124E+03  0.46935044058E+03  0.00000000000E+00 0. -1.
<mgrwt>
<rscale>  1 0.30000000E+03</rscale>
<asrwt>0</asrwt>
<pdfrwt beam="1">  1       21 0.72487245E-02 0.30000000E+03</pdfrwt>
<pdfrwt beam="2">0</pdfrwt>
<totfact> 0.15182664E+04</totfact>
</mgrwt>
</event>
<event>
 6    1  0.6377696E-002  0.3000000E+03  0.7818608E-02  0.1093470E+00
         21   -1    0    0  501  502  0.00000000000E+00  0.00000000000E+00  0.11894709213E+01  0.11894709213E+01  0.00000000000E+00 0. -1.
         13   -1    0    0    0    0 -0.00000000000E+00 -0.00000000000E+00 -0.10000000000E+04  0.10000000000E+04  0.00000000000E+00 0.  1.
    9000005    2    1    2  501    0 -0.69195381602E+01 -0.31909310736E+02 -0.34605121735E+03  0.34761407117E+03  0.42442103440E+01 0.  0.
         13    1    3    3    0    0 -0.41768464310E+01 -0.98880858709E+01 -0.11338271192E+03  0.11388968193E+03  0.00000000000E+00 0.  1.
          3    1    3    3  501    0 -0.27426917291E+01 -0.22021224865E+02 -0.23266850543E+03  0.23372438923E+03  0.00000000000E+00 0.  1.
         -1    1    1    2    0  502  0.69195381602E+01  0.31909310736E+02 -0.65275931172E+03  0.65357539975E+03  0.00000000000E+00 0. -1.
<mgrwt>
<rscale>  1 0.30000000E+03</rscale>
<asrwt>0</asrwt>
<pdfrwt beam="1">  1       21 0.43253579E-02 0.30000000E+03</pdfrwt>
<pdfrwt beam="2">0</pdfrwt>
<totfact> 0.36848417E+04</totfact>
</mgrwt>
</event>
<event>
 6    1  0.6377696E-002  0.3000000E+03  0.7818608E-02  0.1093470E+00
         21   -1    0    0  501  502  0.00000000000E+00  0.00000000000E+00  0.52253933688E+01  0.52253933688E+01  0.00000000000E+00 0. -1.
         13   -1    0    0    0    0 -0.00000000000E+00 -0.00000000000E+00 -0.10000000000E+04  0.10000000000E+04  0.00000000000E+00 0.  1.
    9000005    2    1    2  501    0 -0.45291886712E+02 -0.50909920666E+02 -0.33065785342E+03  0.33762204038E+03  0.32941006129E+01 0.  0.
         13    1    3    3    0    0 -0.11014811441E+02 -0.10859197331E+02 -0.70466033010E+02  0.72143676410E+02  0.00000000000E+00 0.  1.
          3    1    3    3  501    0 -0.34277075271E+02 -0.40050723335E+02 -0.26019182041E+03  0.26547836397E+03  0.00000000000E+00 0.  1.
         -1    1    1    2    0  502  0.45291886712E+02  0.50909920666E+02 -0.66411675321E+03  0.66760335298E+03  0.00000000000E+00 0. -1.
<mgrwt>
<rscale>  1 0.30000000E+03</rscale>
<asrwt>0</asrwt>
<pdfrwt beam="1">  1       21 0.19001471E-01 0.30000000E+03</pdfrwt>
<pdfrwt beam="2">0</pdfrwt>
<totfact> 0.26447008E+03</totfact>
</mgrwt>
</event>
<event>
 6    1  0.6377696E-002  0.3000000E+03  0.7818608E-02  0.1093470E+00
         21   -1    0    0  501  502  0.00000000000E+00  0.00000000000E+00  0.25745620527E+01  0.25745620527E+01  0.00000000000E+00 0. -1.
         13   -1    0    0    0    0 -0.00000000000E+00 -0.00000000000E+00 -0.10000000000E+04  0.10000000000E+04  0.00000000000E+00 0.  1.
    9000005    2    1    2  501    0  0.47407864822E+02  0.17759821037E+02 -0.52224264569E+03  0.52470260960E+03  0.35398652501E+01 0.  0.
         13    1    3    3    0    0  0.11916550587E+02  0.52619952466E+01 -0.14879225536E+03  0.14936140072E+03  0.00000000000E+00 0.  1.
          1    1    3    3  501    0  0.35491314235E+02  0.12497825791E+02 -0.37345039034E+03  0.37534120887E+03  0.00000000000E+00 0.  1.
         -1    1    1    2    0  502 -0.47407864822E+02 -0.17759821037E+02 -0.47518279225E+03  0.47787195246E+03  0.00000000000E+00 0. -1.
<mgrwt>
<rscale>  1 0.30000000E+03</rscale>
<asrwt>0</asrwt>
<pdfrwt beam="1">  1       21 0.93620636E-02 0.30000000E+03</pdfrwt>
<pdfrwt beam="2">0</pdfrwt>
<totfact> 0.96763832E+03</totfact>
</mgrwt>
</event>
<event>
 6    1  0.6377696E-002  0.3000000E+03  0.7818608E-02  0.1093470E+00
         21   -1    0    0  501  502  0.00000000000E+00  0.00000000000E+00  0.13571791642E+01  0.13571791642E+01  0.00000000000E+00 0. -1.
         13   -1    0    0    0    0 -0.00000000000E+00 -0.00000000000E+00 -0.10000000000E+04  0.10000000000E+04  0.00000000000E+00 0.  1.
    9000005    2    1    2  501    0  0.29143638656E+02 -0.19717762214E+02 -0.35559231014E+03  0.35734467841E+03  0.33445981577E+01 0.  0.
         13    1    3    3    0    0  0.94316367525E+01 -0.58471947372E+01 -0.97573153356E+02  0.98202167563E+02  0.00000000000E+00 0.  1.
          3    1    3    3  501    0  0.19712001904E+02 -0.13870567477E+02 -0.25801915678E+03  0.25914251085E+03  0.00000000000E+00 0.  1.
         -1    1    1    2    0  502 -0.29143638656E+02  0.19717762214E+02 -0.64305051070E+03  0.64401250076E+03  0.00000000000E+00 0. -1.
<mgrwt>
<rscale>  1 0.30000000E+03</rscale>
<asrwt>0</asrwt>
<pdfrwt beam="1">  1       21 0.49352074E-02 0.30000000E+03</pdfrwt>
<pdfrwt beam="2">0</pdfrwt>
<totfact> 0.29452097E+04</totfact>
</mgrwt>
</event>
<event>
 6    1  0.6377696E-002  0.3000000E+03  0.7818608E-02  0.1093470E+00
         21   -1    0    0  501  502  0.00000000000E+00  0.00000000000E+00  0.10006993119E+01  0.10006993119E+01  0.00000000000E+00 0. -1.
         13   -1    0    0    0    0 -0.00000000000E+00 -0.00000000000E+00 -0.10000000000E+04  0.10000000000E+04  0.00000000000E+00 0.  1.
    9000005    2    1    2  501    0 -0.25052120450E+01  0.30757490521E+02 -0.39694380306E+03  0.39815484710E+03  0.32557897869E+01 0.  0.
         13    1    3    3    0    0 -0.23722213718E+01  0.13387688011E+02 -0.18707455338E+03  0.18756797740E+03  0.00000000000E+00 0.  1.
          3    1    3    3  501    0 -0.13299067318E+00  0.17369802510E+02 -0.20986924968E+03  0.21058686970E+03  0.00000000000E+00 0.  1.
         -3    1    1    2    0  502  0.25052120450E+01 -0.30757490521E+02 -0.60205549762E+03  0.60284585221E+03  0.00000000000E+00 0. -1.
<mgrwt>
<rscale>  1 0.30000000E+03</rscale>
<asrwt>0</asrwt>
<pdfrwt beam="1">  1       21 0.36389143E-02 0.30000000E+03</pdfrwt>
<pdfrwt beam="2">0</pdfrwt>
<totfact> 0.49293352E+04</totfact>
</mgrwt>
</event>
<event>
 6    1  0.6377696E-002  0.3000000E+03  0.7818608E-02  0.1093470E+00
         21   -1    0    0  501  502  0.00000000000E+00  0.00000000000E+00  0.44125137062E+01  0.44125137062E+01  0.00000000000E+00 0. -1.
         13   -1    0    0    0    0 -0.00000000000E+00 -0.00000000000E+00 -0.10000000000E+04  0.10000000000E+04  0.00000000000E+00 0.  1.
    9000005    2    1    2  501    0  0.57084948688E+02  0.11407222036E+02 -0.73941461533E+03  0.74170858168E+03  0.29716495682E+01 0.  0.
         13    1    3    3    0    0  0.13123293694E+01 -0.18422314978E-01 -0.21623976218E+02  0.21663769183E+02  0.00000000000E+00 0.  1.
          1    1    3    3  501    0  0.55772619319E+02  0.11425644351E+02 -0.71779063911E+03  0.72004481250E+03  0.00000000000E+00 0.  1.
         -3    1    1    2    0  502 -0.57084948688E+02 -0.11407222036E+02 -0.25617287097E+03  0.26270393202E+03  0.00000000000E+00 0. -1.
<mgrwt>
<rscale>  1 0.30000000E+03</rscale>
<asrwt>0</asrwt>
<pdfrwt beam="1">  1       21 0.16045538E-01 0.30000000E+03</pdfrwt>
<pdfrwt beam="2">0</pdfrwt>
<totfact> 0.36333639E+03</totfact>
</mgrwt>
</event>
<event>
 6    1  0.6377696E-002  0.3000000E+03  0.7818608E-02  0.1093470E+00
         21   -1    0    0  501  502  0.00000000000E+00  0.00000000000E+00  0.26683529123E+01  0.26683529123E+01  0.00000000000E+00 0. -1.
         13   -1    0    0    0    0 -0.00000000000E+00 -0.00000000000E+00 -0.10000000000E+04  0.10000000000E+04  0.00000000000E+00 0.  1.
    9000005    2    1    2  501    0  0.30900891082E+02  0.96058374299E+01 -0.88931070596E+03  0.88990461360E+03  0.30906928928E+01 0.  0.
         13    1    3    3    0    0  0.11621499722E+02  0.21056636107E+01 -0.33342912949E+03  0.33363824342E+03  0.00000000000E+00 0.  1.
          1    1    3    3  501    0  0.19279391360E+02  0.75001738192E+01 -0.55588157647E+03  0.55626637018E+03  0.00000000000E+00 0.  1.
         -3    1    1    2    0  502 -0.30900891082E+02 -0.96058374299E+01 -0.10802094113E+03  0.11276373932E+03  0.00000000000E+00 0. -1.
<mgrwt>
<rscale>  1 0.30000000E+03</rscale>
<asrwt>0</asrwt>
<pdfrwt beam="1">  1       21 0.97031220E-02 0.30000000E+03</pdfrwt>
<pdfrwt beam="2">0</pdfrwt>
<totfact> 0.90787652E+03</totfact>
</mgrwt>
</event>
<event>
 6    1  0.6377696E-002  0.3000000E+03  0.7818608E-02  0.1093470E+00
         21   -1    0    0  501  502  0.00000000000E+00  0.00000000000E+00  0.15688364646E+01  0.15688364646E+01  0.00000000000E+00 0. -1.
         13   -1    0    0    0    0 -0.00000000000E+00 -0.00000000000E+00 -0.10000000000E+04  0.10000000000E+04  0.00000000000E+00 0.  1.
    9000005    2    1    2  501    0 -0.24110976262E+02  0.27113352505E+02 -0.69866084904E+03  0.69961070275E+03  0.34176554534E+01 0.  0.
         13    1    3    3    0    0 -0.16452221394E+02  0.19296020791E+02 -0.45858624424E+03  0.45928678994E+03  0.00000000000E+00 0.  1.
          3    1    3    3  501    0 -0.76587548677E+01  0.78173317131E+01 -0.24007460480E+03  0.24032391281E+03  0.00000000000E+00 0.  1.
         -3    1    1    2    0  502  0.24110976262E+02 -0.27113352505E+02 -0.29977031450E+03  0.30195813371E+03  0.00000000000E+00 0. -1.
<mgrwt>
<rscale>  1 0.30000000E+03</rscale>
<asrwt>0</asrwt>
<pdfrwt beam="1">  1       21 0.57048719E-02 0.30000000E+03</pdfrwt>
<pdfrwt beam="2">0</pdfrwt>
<totfact> 0.22984468E+04</totfact>
</mgrwt>
</event>
<event>
 6    1  0.6377696E-002  0.3000000E+03  0.7818608E-02  0.1093470E+00
         21   -1    0    0  501  502  0.00000000000E+00  0.00000000000E+00  0.10598763285E+01  0.10598763285E+01  0.00000000000E+00 0. -1.
         13   -1    0    0    0    0 -0.00000000000E+00 -0.00000000000E+00 -0.10000000000E+04  0.10000000000E+04  0.00000000000E+00 0.  1.
    9000005    2    1    2  501    0 -0.74298173996E+01  0.30848417757E+02 -0.39113361150E+03  0.39242568134E+03  0.23635290386E+01 0.  0.
         13    1    3    3    0    0 -0.31281657271E+01  0.15082221771E+02 -0.17655270804E+03  0.17722335498E+03  0.00000000000E+00 0.  1.
          1    1    3    3  501    0 -0.43016516724E+01  0.15766195987E+02 -0.21458090346E+03  0.21520232636E+03  0.00000000000E+00 0.  1.
         -1    1    1    2    0  502  0.74298173996E+01 -0.30848417757E+02 -0.60780651217E+03  0.60863419498E+03  0.00000000000E+00 0. -1.
<mgrwt>
<rscale>  1 0.30000000E+03</rscale>
<asrwt>0</asrwt>
<pdfrwt beam="1">  1       21 0.38541039E-02 0.30000000E+03</pdfrwt>
<pdfrwt beam="2">0</pdfrwt>
<totfact> 0.44759862E+04</totfact>
</mgrwt>
</event>
<event>
 6    1  0.6377696E-002  0.3000000E+03  0.7818608E-02  0.1093470E+00
         21   -1    0    0  501  502  0.00000000000E+00  0.00000000000E+00  0.12406419642E+01  0.12406419642E+01  0.00000000000E+00 0. -1.
         13   -1    0    0    0    0 -0.00000000000E+00 -0.00000000000E+00 -0.10000000000E+04  0.10000000000E+04  0.00000000000E+00 0.  1.
    9000005    2    1    2  501    0  0.33621893753E+02  0.68856697742E+01 -0.60830490480E+03  0.60928079167E+03  0.32220663242E+01 0.  0.
         13    1    3    3    0    0  0.72031745080E+01  0.25191750481E+01 -0.15077419064E+03  0.15096717700E+03  0.00000000000E+00 0.  1.
          1    1    3    3  501    0  0.26418719245E+02  0.43664947261E+01 -0.45753071415E+03  0.45831361467E+03  0.00000000000E+00 0.  1.
         -3    1    1    2    0  502 -0.33621893753E+02 -0.68856697742E+01 -0.39045445324E+03  0.39195985029E+03  0.00000000000E+00 0. -1.
<mgrwt>
<rscale>  1 0.30000000E+03</rscale>
<asrwt>0</asrwt>
<pdfrwt beam="1">  1       21 0.45114348E-02 0.30000000E+03</pdfrwt>
<pdfrwt beam="2">0</pdfrwt>
<totfact> 0.34310099E+04</totfact>
</mgrwt>
</event>
<event>
 6    1  0.6377696E-002  0.3000000E+03  0.7818608E-02  0.1093470E+00
         21   -1    0    0  501  502  0.00000000000E+00  0.00000000000E+00  0.16700441648E+01  0.16700441648E+01  0.00000000000E+00 0. -1.
         13   -1    0    0    0    0 -0.00000000000E+00 -0.00000000000E+00 -0.10000000000E+04  0.10000000000E+04  0.00000000000E+00 0.  1.
    9000005    2    1    2  501    0  0.63708127162E+00 -0.40761578511E+02 -0.52494315526E+03  0.52653114330E+03  0.27957926150E+01 0.  0.
         13    1    3    3    0    0 -0.12162326618E-01 -0.29941298873E+02 -0.37025195333E+03  0.37146061766E+03  0.00000000000E+00 0.  1.
          3    1    3    3  501    0  0.64924359823E+00 -0.10820279638E+02 -0.15469120193E+03  0.15507052564E+03  0.00000000000E+00 0.  1.
         -1    1    1    2    0  502 -0.63708127162E+00  0.40761578511E+02 -0.47338680058E+03  0.47513890086E+03  0.00000000000E+00 0. -1.
<mgrwt>
<rscale>  1 0.30000000E+03</rscale>
<asrwt>0</asrwt>
<pdfrwt beam="1">  1       21 0.60729007E-02 0.30000000E+03</pdfrwt>
<pdfrwt beam="2">0</pdfrwt>
<totfact> 0.20637212E+04</totfact>
</mgrwt>
</event>
<event>
 6    1  0.6377696E-002  0.3000000E+03  0.7818608E-02  0.1093470E+00
         21   -1    0    0  501  502  0.00000000000E+00  0.00000000000E+00  0.12748785975E+01  0.12748785975E+01  0.00000000000E+00 0. -1.
         13   -1    0    0    0    0 -0.00000000000E+00 -0.00000000000E+00 -0.10000000000E+04  0.10000000000E+04  0.00000000000E+00 0.  1.
    9000005    2    1    2  501    0 -0.17055362058E+02 -0.26777661808E+02 -0.72110477241E+03  0.72184512585E+03  0.77694511704E+01 0.  0.
         13    1    3    3    0    0 -0.70998214981E+01 -0.50328574186E+01 -0.21345865376E+03  0.21363598476E+03  0.00000000000E+00 0.  1.
          3    1    3    3  501    0 -0.99555405601E+01 -0.21744804389E+02 -0.50764611865E+03  0.50820914109E+03  0.00000000000E+00 0.  1.
         -1    1    1    2    0  502  0.17055362058E+02  0.26777661808E+02 -0.27762034899E+03  0.27942975275E+03  0.00000000000E+00 0. -1.
<mgrwt>
<rscale>  1 0.30000000E+03</rscale>
<asrwt>0</asrwt>
<pdfrwt beam="1">  1       21 0.46359319E-02 0.30000000E+03</pdfrwt>
<pdfrwt beam="2">0</pdfrwt>
<totfact> 0.32759783E+04</totfact>
</mgrwt>
</event>
<event>
 6    1  0.6377696E-002  0.3000000E+03  0.7818608E-02  0.1093470E+00
         21   -1    0    0  501  502  0.00000000000E+00  0.00000000000E+00  0.33163478492E+01  0.33163478492E+01  0.00000000000E+00 0. -1.
         13   -1    0    0    0    0 -0.00000000000E+00 -0.00000000000E+00 -0.10000000000E+04  0.10000000000E+04  0.00000000000E+00 0.  1.
    9000005    2    1    2  501    0  0.55264903525E+02 -0.14547495014E+02 -0.43944302189E+03  0.44315301525E+03  0.29302331695E+01 0.  0.
         13    1    3    3    0    0  0.39145297129E+02 -0.91867746594E+01 -0.31496512773E+03  0.31752131078E+03  0.00000000000E+00 0.  1.
          3    1    3    3  501    0  0.16119606395E+02 -0.53607203542E+01 -0.12447789416E+03  0.12563170447E+03  0.00000000000E+00 0.  1.
         -3    1    1    2    0  502 -0.55264903525E+02  0.14547495014E+02 -0.55724063026E+03  0.56016333260E+03  0.00000000000E+00 0. -1.
<mgrwt>
<rscale>  1 0.30000000E+03</rscale>
<asrwt>0</asrwt>
<pdfrwt beam="1">  1       21 0.12059472E-01 0.30000000E+03</pdfrwt>
<pdfrwt beam="2">0</pdfrwt>
<totfact> 0.61417486E+03</totfact>
</mgrwt>
</event>
<event>
 6    1  0.6377696E-002  0.3000000E+03  0.7818608E-02  0.1093470E+00
         21   -1    0    0  501  502  0.00000000000E+00  0.00000000000E+00  0.30462208656E+01  0.30462208656E+01  0.00000000000E+00 0. -1.
         13   -1    0    0    0    0 -0.00000000000E+00 -0.00000000000E+00 -0.10000000000E+04  0.10000000000E+04  0.00000000000E+00 0.  1.
    9000005    2    1    2  501    0  0.40425454070E+02 -0.37451166463E+02 -0.51811115236E+03  0.52104303787E+03  0.31422765440E+01 0.  0.
         13    1    3    3    0    0  0.35322547778E+02 -0.32981526607E+02 -0.44412430936E+03  0.44674586248E+03  0.00000000000E+00 0.  1.
          1    1    3    3  501    0  0.51029062915E+01 -0.44696398565E+01 -0.73986843000E+02  0.74297175385E+02  0.00000000000E+00 0.  1.
         -3    1    1    2    0  502 -0.40425454070E+02  0.37451166463E+02 -0.47884262677E+03  0.48200318300E+03  0.00000000000E+00 0. -1.
<mgrwt>
<rscale>  1 0.30000000E+03</rscale>
<asrwt>0</asrwt>
<pdfrwt beam="1">  1       21 0.11077190E-01 0.30000000E+03</pdfrwt>
<pdfrwt beam="2">0</pdfrwt>
<totfact> 0.71613299E+03</totfact>
</mgrwt>
</event>
<event>
 6    1  0.6377696E-002  0.3000000E+03  0.7818608E-02  0.1093470E+00
         21   -1    0    0  501  502  0.00000000000E+00  0.00000000000E+00  0.20520343932E+01  0.20520343932E+01  0.00000000000E+00 0. -1.
         13   -1    0    0    0    0 -0.00000000000E+00 -0.00000000000E+00 -0.10000000000E+04  0.10000000000E+04  0.00000000000E+00 0.  1.
    9000005    2    1    2  501    0 -0.66660603519E+01  0.44016783007E+02 -0.42551595146E+03  0.42789149555E+03  0.67374675053E+01 0.  0.
         13    1    3    3    0    0 -0.33118422935E+01  0.79379482193E+01 -0.67229786662E+02  0.67777751039E+02  0.00000000000E+00 0.  1.
          1    1    3    3  501    0 -0.33542180584E+01  0.36078834788E+02 -0.35828616480E+03  0.36011374451E+03  0.00000000000E+00 0.  1.
         -1    1    1    2    0  502  0.66660603519E+01 -0.44016783007E+02 -0.57243201415E+03  0.57416053884E+03  0.00000000000E+00 0. -1.
<mgrwt>
<rscale>  1 0.30000000E+03</rscale>
<asrwt>0</asrwt>
<pdfrwt beam="1">  1       21 0.74619590E-02 0.30000000E+03</pdfrwt>
<pdfrwt beam="2">0</pdfrwt>
<totfact> 0.14432374E+04</totfact>
</mgrwt>
</event>
<event>
 6    1  0.6377696E-002  0.3000000E+03  0.7818608E-02  0.1093470E+00
         21   -1    0    0  501  502  0.00000000000E+00  0.00000000000E+00  0.16000394829E+01  0.16000394829E+01  0.00000000000E+00 0. -1.
         13   -1    0    0    0    0 -0.00000000000E+00 -0.00000000000E+00 -0.10000000000E+04  0.10000000000E+04  0.00000000000E+00 0.  1.
    9000005    2    1    2  501    0  0.28875643360E+02 -0.21069234381E+02 -0.27701118894E+03  0.27932621664E+03  0.31970429620E+01 0.  0.
         13    1    3    3    0    0  0.14022713043E+02 -0.82615895506E+01 -0.12556371712E+03  0.12661412796E+03  0.00000000000E+00 0.  1.
          3    1    3    3  501    0  0.14852930316E+02 -0.12807644831E+02 -0.15144747183E+03  0.15271208868E+03  0.00000000000E+00 0.  1.
         -1    1    1    2    0  502 -0.28875643360E+02  0.21069234381E+02 -0.72138877157E+03  0.72227382285E+03  0.00000000000E+00 0. -1.
<mgrwt>
<rscale>  1 0.30000000E+03</rscale>
<asrwt>0</asrwt>
<pdfrwt beam="1">  1       21 0.58183377E-02 0.30000000E+03</pdfrwt>
<pdfrwt beam="2">0</pdfrwt>
<totfact> 0.22218441E+04</totfact>
</mgrwt>
</event>
<event>
 6    1  0.6377696E-002  0.3000000E+03  0.7818608E-02  0.1093470E+00
         21   -1    0    0  501  502  0.00000000000E+00  0.00000000000E+00  0.36294198838E+01  0.36294198838E+01  0.00000000000E+00 0. -1.
         13   -1    0    0    0    0 -0.00000000000E+00 -0.00000000000E+00 -0.10000000000E+04  0.10000000000E+04  0.00000000000E+00 0.  1.
    9000005    2    1    2  501    0 -0.24186014948E+02 -0.45890098751E+02 -0.75237101227E+03  0.75417671176E+03  0.54321239651E+01 0.  0.
         13    1    3    3    0    0 -0.22113617507E+02 -0.39326973366E+02 -0.63126015300E+03  0.63287044779E+03  0.00000000000E+00 0.  1.
          3    1    3    3  501    0 -0.20723974406E+01 -0.65631253844E+01 -0.12111085927E+03  0.12130626397E+03  0.00000000000E+00 0.  1.
         -3    1    1    2    0  502  0.24186014948E+02  0.45890098751E+02 -0.24399956784E+03  0.24945270812E+03  0.00000000000E+00 0. -1.
<mgrwt>
<rscale>  1 0.30000000E+03</rscale>
<asrwt>0</asrwt>
<pdfrwt beam="1">  1       21 0.13197918E-01 0.30000000E+03</pdfrwt>
<pdfrwt beam="2">0</pdfrwt>
<totfact> 0.52106650E+03</totfact>
</mgrwt>
</event>
<event>
 6    1  0.6377696E-002  0.3000000E+03  0.7818608E-02  0.1093470E+00
         21   -1    0    0  501  502  0.00000000000E+00  0.00000000000E+00  0.13879639599E+01  0.13879639599E+01  0.00000000000E+00 0. -1.
         13   -1    0    0    0    0 -0.00000000000E+00 -0.00000000000E+00 -0.10000000000E+04  0.10000000000E+04  0.00000000000E+00 0.  1.
    9000005    2    1    2  501    0  0.21241137933E+02  0.28954694134E+02 -0.62922628284E+03  0.63026076889E+03  0.36553429812E+01 0.  0.
         13    1    3    3    0    0 -0.47806530802E-02 -0.50506560463E-01 -0.15987770584E+00  0.16773386098E+00  0.00000000000E+00 0.  1.
          3    1    3    3  501    0  0.21245918586E+02  0.29005200695E+02 -0.62906640514E+03  0.63009303503E+03  0.00000000000E+00 0.  1.
         -3    1    1    2    0  502 -0.21241137933E+02 -0.28954694134E+02 -0.36938575320E+03  0.37112719507E+03  0.00000000000E+00 0. -1.
<mgrwt>
<rscale>  1 0.30000000E+03</rscale>
<asrwt>0</asrwt>
<pdfrwt beam="1">  1       21 0.50471523E-02 0.30000000E+03</pdfrwt>
<pdfrwt beam="2">0</pdfrwt>
<totfact> 0.28347313E+04</totfact>
</mgrwt>
</event>
<event>
 6    1  0.6377696E-002  0.3000000E+03  0.7818608E-02  0.1093470E+00
         21   -1    0    0  501  502  0.00000000000E+00  0.00000000000E+00  0.13077633053E+01  0.13077633053E+01  0.00000000000E+00 0. -1.
         13   -1    0    0    0    0 -0.00000000000E+00 -0.00000000000E+00 -0.10000000000E+04  0.10000000000E+04  0.00000000000E+00 0.  1.
    9000005    2    1    2  501    0  0.31932866376E+02 -0.15999416827E+02 -0.57221195839E+03  0.57333449653E+03  0.31984824187E+01 0.  0.
         13    1    3    3    0    0  0.21170999215E+02 -0.91809534577E+01 -0.35492724680E+03  0.35567661103E+03  0.00000000000E+00 0.  1.
          1    1    3    3  501    0  0.10761867162E+02 -0.68184633690E+01 -0.21728471159E+03  0.21765788550E+03  0.00000000000E+00 0.  1.
         -3    1    1    2    0  502 -0.31932866376E+02  0.15999416827E+02 -0.42648027830E+03  0.42797326678E+03  0.00000000000E+00 0. -1.
<mgrwt>
<rscale>  1 0.30000000E+03</rscale>
<asrwt>0</asrwt>
<pdfrwt beam="1">  1       21 0.47555130E-02 0.30000000E+03</pdfrwt>
<pdfrwt beam="2">0</pdfrwt>
<totfact> 0.31371593E+04</totfact>
</mgrwt>
</event>
<event>
 6    1  0.6377696E-002  0.3000000E+03  0.7818608E-02  0.1093470E+00
         21   -1    0    0  501  502  0.00000000000E+00  0.00000000000E+00  0.10267579835E+01  0.10267579835E+01  0.00000000000E+00 0. -1.
         13   -1    0    0    0    0 -0.00000000000E+00 -0.00000000000E+00 -0.10000000000E+04  0.10000000000E+04  0.00000000000E+00 0.  1.
    9000005    2    1    2  501    0  0.20526109249E+02 -0.24446431276E+02 -0.47696763310E+03  0.47804606531E+03  0.33118538290E+01 0.  0.
         13    1    3    3    0    0  0.17277502049E+02 -0.18934202602E+02 -0.36928024413E+03  0.37016876531E+03  0.00000000000E+00 0.  1.
          1    1    3    3  501    0  0.32486072000E+01 -0.55122286744E+01 -0.10768738896E+03  0.10787730000E+03  0.00000000000E+00 0.  1.
         -3    1    1    2    0  502 -0.20526109249E+02  0.24446431276E+02 -0.52200560892E+03  0.52298069267E+03  0.00000000000E+00 0. -1.
<mgrwt>
<rscale>  1 0.30000000E+03</rscale>
<asrwt>0</asrwt>
<pdfrwt beam="1">  1       21 0.37336733E-02 0.30000000E+03</pdfrwt>
<pdfrwt beam="2">0</pdfrwt>
<totfact> 0.47211912E+04</totfact>
</mgrwt>
</event>
<event>
 6    1  0.6377696E-002  0.3000000E+03  0.7818608E-02  0.1093470E+00
         21   -1    0    0  501  502  0.00000000000E+00  0.00000000000E+00  0.28654972006E+01  0.28654972006E+01  0.00000000000E+00 0. -1.
         13   -1    0    0    0    0 -0.00000000000E+00 -0.00000000000E+00 -0.10000000000E+04  0.10000000000E+04  0.00000000000E+00 0.  1.
    9000005    2    1    2  501    0 -0.34872209653E+02  0.40090069821E+02 -0.55341936777E+03  0.55598027060E+03  0.42166293748E+01 0.  0.
         13    1    3    3    0    0 -0.30091464457E+02  0.35258479144E+02 -0.49549633804E+03  0.49765980106E+03  0.00000000000E+00 0.  1.
          3    1    3    3  501    0 -0.47807451962E+01  0.48315906768E+01 -0.57923029737E+02  0.58320469537E+02  0.00000000000E+00 0.  1.
         -1    1    1    2    0  502  0.34872209653E+02 -0.40090069821E+02 -0.44371513503E+03  0.44688522660E+03  0.00000000000E+00 0. -1.
<mgrwt>
<rscale>  1 0.30000000E+03</rscale>
<asrwt>0</asrwt>
<pdfrwt beam="1">  1       21 0.10420012E-01 0.30000000E+03</pdfrwt>
<pdfrwt beam="2">0</pdfrwt>
<totfact> 0.79926542E+03</totfact>
</mgrwt>
</event>
<event>
 6    1  0.6377696E-002  0.3000000E+03  0.7818608E-02  0.1093470E+00
         21   -1    0    0  501  502  0.00000000000E+00  0.00000000000E+00  0.10383352775E+01  0.10383352775E+01  0.00000000000E+00 0. -1.
         13   -1    0    0    0    0 -0.00000000000E+00 -0.00000000000E+00 -0.10000000000E+04  0.10000000000E+04  0.00000000000E+00 0.  1.
    9000005    2    1    2  501    0 -0.27850710461E+02 -0.15852025986E+02 -0.54495127499E+03  0.54589837572E+03  0.24891162084E+01 0.  0.
         13    1    3    3    0    0 -0.21307406203E+02 -0.12843022077E+02 -0.43617229054E+03  0.43688123765E+03  0.00000000000E+00 0.  1.
          1    1    3    3  501    0 -0.65433042575E+01 -0.30090039086E+01 -0.10877898446E+03  0.10901713808E+03  0.00000000000E+00 0.  1.
         -1    1    1    2    0  502  0.27850710461E+02  0.15852025986E+02 -0.45401038973E+03  0.45513995956E+03  0.00000000000E+00 0. -1.
<mgrwt>
<rscale>  1 0.30000000E+03</rscale>
<asrwt>0</asrwt>
<pdfrwt beam="1">  1       21 0.37757726E-02 0.30000000E+03</pdfrwt>
<pdfrwt beam="2">0</pdfrwt>
<totfact> 0.46331240E+04</totfact>
</mgrwt>
</event>
<event>
 6    1  0.6377696E-002  0.3000000E+03  0.7818608E-02  0.1093470E+00
         21   -1    0    0  501  502  0.00000000000E+00  0.00000000000E+00  0.18611744122E+01  0.18611744122E+01  0.00000000000E+00 0. -1.
         13   -1    0    0    0    0 -0.00000000000E+00 -0.00000000000E+00 -0.10000000000E+04  0.10000000000E+04  0.00000000000E+00 0.  1.
    9000005    2    1    2  501    0  0.25670160614E+02  0.34584236628E+02 -0.50284955283E+03  0.50470275873E+03  0.34893158319E+01 0.  0.
         13    1    3    3    0    0  0.23039925980E+02  0.29281743872E+02 -0.42687425345E+03  0.42849724266E+03  0.00000000000E+00 0.  1.
          3    1    3    3  501    0  0.26302346343E+01  0.53024927557E+01 -0.75975299382E+02  0.76205516072E+02  0.00000000000E+00 0.  1.
         -3    1    1    2    0  502 -0.25670160614E+02 -0.34584236628E+02 -0.49528927276E+03  0.49715841568E+03  0.00000000000E+00 0. -1.
<mgrwt>
<rscale>  1 0.30000000E+03</rscale>
<asrwt>0</asrwt>
<pdfrwt beam="1">  1       21 0.67679212E-02 0.30000000E+03</pdfrwt>
<pdfrwt beam="2">0</pdfrwt>
<totfact> 0.17109084E+04</totfact>
</mgrwt>
</event>
<event>
 6    1  0.6377696E-002  0.3000000E+03  0.7818608E-02  0.1093470E+00
         21   -1    0    0  501  502  0.00000000000E+00  0.00000000000E+00  0.21171087395E+01  0.21171087395E+01  0.00000000000E+00 0. -1.
         13   -1    0    0    0    0 -0.00000000000E+00 -0.00000000000E+00 -0.10000000000E+04  0.10000000000E+04  0.00000000000E+00 0.  1.
    9000005    2    1    2  501    0  0.17577713212E+02  0.42277162916E+02 -0.45765251479E+03  0.45994998122E+03  0.34389563291E+01 0.  0.
         13    1    3    3    0    0  0.14188419919E+02  0.35729899553E+02 -0.39441716111E+03  0.39628630302E+03  0.00000000000E+00 0.  1.
          1    1    3    3  501    0  0.33892932936E+01  0.65472633633E+01 -0.63235353685E+02  0.63663678202E+02  0.00000000000E+00 0.  1.
         -3    1    1    2    0  502 -0.17577713212E+02 -0.42277162916E+02 -0.54023037647E+03  0.54216712752E+03  0.00000000000E+00 0. -1.
<mgrwt>
<rscale>  1 0.30000000E+03</rscale>
<asrwt>0</asrwt>
<pdfrwt beam="1">  1       21 0.76985935E-02 0.30000000E+03</pdfrwt>
<pdfrwt beam="2">0</pdfrwt>
<totfact> 0.13664303E+04</totfact>
</mgrwt>
</event>
<event>
 6    1  0.6377696E-002  0.3000000E+03  0.7818608E-02  0.1093470E+00
         21   -1    0    0  501  502  0.00000000000E+00  0.00000000000E+00  0.20181799923E+01  0.20181799923E+01  0.00000000000E+00 0. -1.
         13   -1    0    0    0    0 -0.00000000000E+00 -0.00000000000E+00 -0.10000000000E+04  0.10000000000E+04  0.00000000000E+00 0.  1.
    9000005    2    1    2  501    0 -0.69661245765E+01  0.44199580546E+02 -0.52024634914E+03  0.52219184690E+03  0.50922837806E+01 0.  0.
         13    1    3    3    0    0 -0.34687431504E+01  0.31092306933E+02 -0.38367150741E+03  0.38494491726E+03  0.00000000000E+00 0.  1.
          3    1    3    3  501    0 -0.34973814261E+01  0.13107273613E+02 -0.13657484174E+03  0.13724692963E+03  0.00000000000E+00 0.  1.
         -3    1    1    2    0  502  0.69661245765E+01 -0.44199580546E+02 -0.47773547086E+03  0.47982633310E+03  0.00000000000E+00 0. -1.
<mgrwt>
<rscale>  1 0.30000000E+03</rscale>
<asrwt>0</asrwt>
<pdfrwt beam="1">  1       21 0.73388518E-02 0.30000000E+03</pdfrwt>
<pdfrwt beam="2">0</pdfrwt>
<totfact> 0.14858489E+04</totfact>
</mgrwt>
</event>
<event>
 6    1  0.6377696E-002  0.3000000E+03  0.7818608E-02  0.1093470E+00
         21   -1    0    0  501  502  0.00000000000E+00  0.00000000000E+00  0.12248824361E+02  0.12248824361E+02  0.00000000000E+00 0. -1.
         13   -1    0    0    0    0 -0.00000000000E+00 -0.00000000000E+00 -0.10000000000E+04  0.10000000000E+04  0.00000000000E+00 0.  1.
    9000005    2    1    2  501    0 -0.20578052830E+02 -0.10456408629E+03 -0.35818838166E+03  0.37372990063E+03  0.42446987995E+01 0.  0.
         13    1    3    3    0    0 -0.14402224699E+02 -0.82010878684E+02 -0.28111571782E+03  0.29318808827E+03  0.00000000000E+00 0.  1.
          3    1    3    3  501    0 -0.61758281314E+01 -0.22553207610E+02 -0.77072663845E+02  0.80541812363E+02  0.00000000000E+00 0.  1.
         -3    1    1    2    0  502  0.20578052830E+02  0.10456408629E+03 -0.62956279398E+03  0.63851892373E+03  0.00000000000E+00 0. -1.
<mgrwt>
<rscale>  1 0.30000000E+03</rscale>
<asrwt>0</asrwt>
<pdfrwt beam="1">  1       21 0.44541273E-01 0.30000000E+03</pdfrwt>
<pdfrwt beam="2">0</pdfrwt>
<totfact> 0.48147183E+02</totfact>
</mgrwt>
</event>
<event>
 6    1  0.6377696E-002  0.3000000E+03  0.7818608E-02  0.1093470E+00
         21   -1    0    0  501  502  0.00000000000E+00  0.00000000000E+00  0.19783186625E+01  0.19783186625E+01  0.00000000000E+00 0. -1.
         13   -1    0    0    0    0 -0.00000000000E+00 -0.00000000000E+00 -0.10000000000E+04  0.10000000000E+04  0.00000000000E+00 0.  1.
    9000005    2    1    2  501    0 -0.16381933110E+02 -0.38599841250E+02 -0.66471101334E+03  0.66604035284E+03  0.32718320443E+01 0.  0.
         13    1    3    3    0    0 -0.14995517046E+02 -0.35633658653E+02 -0.59726774149E+03  0.59851765069E+03  0.00000000000E+00 0.  1.
          1    1    3    3  501    0 -0.13864160642E+01 -0.29661825970E+01 -0.67443271848E+02  0.67522702154E+02  0.00000000000E+00 0.  1.
         -3    1    1    2    0  502  0.16381933110E+02  0.38599841250E+02 -0.33331066800E+03  0.33593796582E+03  0.00000000000E+00 0. -1.
<mgrwt>
<rscale>  1 0.30000000E+03</rscale>
<asrwt>0</asrwt>
<pdfrwt beam="1">  1       21 0.71939012E-02 0.30000000E+03</pdfrwt>
<pdfrwt beam="2">0</pdfrwt>
<totfact> 0.15385141E+04</totfact>
</mgrwt>
</event>
<event>
 6    1  0.6377696E-002  0.3000000E+03  0.7818608E-02  0.1093470E+00
         21   -1    0    0  501  502  0.00000000000E+00  0.00000000000E+00  0.99939973513E+00  0.99939973513E+00  0.00000000000E+00 0. -1.
         13   -1    0    0    0    0 -0.00000000000E+00 -0.00000000000E+00 -0.10000000000E+04  0.10000000000E+04  0.00000000000E+00 0.  1.
    9000005    2    1    2  501    0 -0.16608943790E+02 -0.26444878675E+02 -0.43298162188E+03  0.43411963072E+03  0.34029799240E+01 0.  0.
         13    1    3    3    0    0 -0.11501859721E+02 -0.19694507372E+02 -0.33317558121E+03  0.33395528789E+03  0.00000000000E+00 0.  1.
          1    1    3    3  501    0 -0.51070840688E+01 -0.67503713029E+01 -0.99806040669E+02  0.10016434283E+03  0.00000000000E+00 0.  1.
         -1    1    1    2    0  502  0.16608943790E+02  0.26444878675E+02 -0.56601897839E+03  0.56687976901E+03  0.00000000000E+00 0. -1.
<mgrwt>
<rscale>  1 0.30000000E+03</rscale>
<asrwt>0</asrwt>
<pdfrwt beam="1">  1       21 0.36341885E-02 0.30000000E+03</pdfrwt>
<pdfrwt beam="2">0</pdfrwt>
<totfact> 0.49400924E+04</totfact>
</mgrwt>
</event>
<event>
 6    1  0.6377696E-002  0.3000000E+03  0.7818608E-02  0.1093470E+00
         21   -1    0    0  501  502  0.00000000000E+00  0.00000000000E+00  0.11617241216E+01  0.11617241216E+01  0.00000000000E+00 0. -1.
         13   -1    0    0    0    0 -0.00000000000E+00 -0.00000000000E+00 -0.10000000000E+04  0.10000000000E+04  0.00000000000E+00 0.  1.
    9000005    2    1    2  501    0  0.30043577384E+01 -0.31574364610E+02 -0.31981183370E+03  0.32139494364E+03  0.30222769953E+01 0.  0.
         13    1    3    3    0    0  0.22280306460E+01 -0.17454180565E+02 -0.19121796224E+03  0.19202583582E+03  0.00000000000E+00 0.  1.
          3    1    3    3  501    0  0.77632709233E+00 -0.14120184045E+02 -0.12859387146E+03  0.12936910782E+03  0.00000000000E+00 0.  1.
         -3    1    1    2    0  502 -0.30043577384E+01  0.31574364610E+02 -0.67902644218E+03  0.67976678048E+03  0.00000000000E+00 0. -1.
<mgrwt>
<rscale>  1 0.30000000E+03</rscale>
<asrwt>0</asrwt>
<pdfrwt beam="1">  1       21 0.42244603E-02 0.30000000E+03</pdfrwt>
<pdfrwt beam="2">0</pdfrwt>
<totfact> 0.38348499E+04</totfact>
</mgrwt>
</event>
<event>
 6    1  0.6377696E-002  0.3000000E+03  0.7818608E-02  0.1093470E+00
         21   -1    0    0  501  502  0.00000000000E+00  0.00000000000E+00  0.10897660036E+01  0.10897660036E+01  0.00000000000E+00 0. -1.
         13   -1    0    0    0    0 -0.00000000000E+00 -0.00000000000E+00 -0.10000000000E+04  0.10000000000E+04  0.00000000000E+00 0.  1.
    9000005    2    1    2  501    0 -0.29323993308E+02  0.14856156851E+02 -0.53062909259E+03  0.53165624635E+03  0.32447492016E+01 0.  0.
         13    1    3    3    0    0 -0.19174046653E+02  0.91531783534E+01 -0.36577225505E+03  0.36638881984E+03  0.00000000000E+00 0.  1.
          1    1    3    3  501    0 -0.10149946656E+02  0.57029784979E+01 -0.16485683755E+03  0.16526742652E+03  0.00000000000E+00 0.  1.
         -3    1    1    2    0  502  0.29323993308E+02 -0.14856156851E+02 -0.46828114140E+03  0.46943351965E+03  0.00000000000E+00 0. -1.
<mgrwt>
<rscale>  1 0.30000000E+03</rscale>
<asrwt>0</asrwt>
<pdfrwt beam="1">  1       21 0.39627938E-02 0.30000000E+03</pdfrwt>
<pdfrwt beam="2">0</pdfrwt>
<totfact> 0.42714117E+04</totfact>
</mgrwt>
</event>
<event>
 6    1  0.6377696E-002  0.3000000E+03  0.7818608E-02  0.1093470E+00
         21   -1    0    0  501  502  0.00000000000E+00  0.00000000000E+00  0.11174672388E+01  0.11174672388E+01  0.00000000000E+00 0. -1.
         13   -1    0    0    0    0 -0.00000000000E+00 -0.00000000000E+00 -0.10000000000E+04  0.10000000000E+04  0.00000000000E+00 0.  1.
    9000005    2    1    2  501    0 -0.31651874507E+02 -0.74559669410E+01 -0.38935945106E+03  0.39072757567E+03  0.31342712836E+01 0.  0.
         13    1    3    3    0    0 -0.17269558036E+01 -0.11132925229E+01 -0.21080343797E+02  0.21180242944E+02  0.00000000000E+00 0.  1.
          1    1    3    3  501    0 -0.29924918703E+02 -0.63426744181E+01 -0.36827910726E+03  0.36954733272E+03  0.00000000000E+00 0.  1.
         -1    1    1    2    0  502  0.31651874507E+02  0.74559669410E+01 -0.60952308171E+03  0.61038989157E+03  0.00000000000E+00 0. -1.
<mgrwt>
<rscale>  1 0.30000000E+03</rscale>
<asrwt>0</asrwt>
<pdfrwt beam="1">  1       21 0.40635258E-02 0.30000000E+03</pdfrwt>
<pdfrwt beam="2">0</pdfrwt>
<totfact> 0.40945841E+04</totfact>
</mgrwt>
</event>
<event>
 6    1  0.6377696E-002  0.3000000E+03  0.7818608E-02  0.1093470E+00
         21   -1    0    0  501  502  0.00000000000E+00  0.00000000000E+00  0.21264715693E+01  0.21264715693E+01  0.00000000000E+00 0. -1.
         13   -1    0    0    0    0 -0.00000000000E+00 -0.00000000000E+00 -0.10000000000E+04  0.10000000000E+04  0.00000000000E+00 0.  1.
    9000005    2    1    2  501    0  0.95795130923E+01  0.43932565914E+02 -0.60734448192E+03  0.60901736001E+03  0.36038398417E+01 0.  0.
         13    1    3    3    0    0 -0.54979241776E-01  0.16807093371E+00 -0.71891869077E+01  0.71913614114E+01  0.00000000000E+00 0.  1.
          3    1    3    3  501    0  0.96344923341E+01  0.43764494980E+02 -0.60015529501E+03  0.60182599860E+03  0.00000000000E+00 0.  1.
         -3    1    1    2    0  502 -0.95795130923E+01 -0.43932565914E+02 -0.39052904651E+03  0.39310911155E+03  0.00000000000E+00 0. -1.
<mgrwt>
<rscale>  1 0.30000000E+03</rscale>
<asrwt>0</asrwt>
<pdfrwt beam="1">  1       21 0.77326402E-02 0.30000000E+03</pdfrwt>
<pdfrwt beam="2">0</pdfrwt>
<totfact> 0.13559004E+04</totfact>
</mgrwt>
</event>
<event>
 6    1  0.6377696E-002  0.3000000E+03  0.7818608E-02  0.1093470E+00
         21   -1    0    0  501  502  0.00000000000E+00  0.00000000000E+00  0.16958164540E+01  0.16958164540E+01  0.00000000000E+00 0. -1.
         13   -1    0    0    0    0 -0.00000000000E+00 -0.00000000000E+00 -0.10000000000E+04  0.10000000000E+04  0.00000000000E+00 0.  1.
    9000005    2    1    2  501    0 -0.41001203066E+02 -0.29202783768E+01 -0.49285030850E+03  0.49457330021E+03  0.34199440363E+01 0.  0.
         13    1    3    3    0    0 -0.18363180449E+02 -0.29940790952E+01 -0.22543993985E+03  0.22620640439E+03  0.00000000000E+00 0.  1.
          3    1    3    3  501    0 -0.22638022618E+02  0.73800718393E-01 -0.26741036865E+03  0.26836689582E+03  0.00000000000E+00 0.  1.
         -3    1    1    2    0  502  0.41001203066E+02  0.29202783768E+01 -0.50545387505E+03  0.50712251624E+03  0.00000000000E+00 0. -1.
<mgrwt>
<rscale>  1 0.30000000E+03</rscale>
<asrwt>0</asrwt>
<pdfrwt beam="1">  1       21 0.61666183E-02 0.30000000E+03</pdfrwt>
<pdfrwt beam="2">0</pdfrwt>
<totfact> 0.20098848E+04</totfact>
</mgrwt>
</event>
<event>
 6    1  0.6377696E-002  0.3000000E+03  0.7818608E-02  0.1093470E+00
         21   -1    0    0  501  502  0.00000000000E+00  0.00000000000E+00  0.17359404347E+01  0.17359404347E+01  0.00000000000E+00 0. -1.
         13   -1    0    0    0    0 -0.00000000000E+00 -0.00000000000E+00 -0.10000000000E+04  0.10000000000E+04  0.00000000000E+00 0.  1.
    9000005    2    1    2  501    0 -0.24789413137E+02 -0.21477711238E+02 -0.19275157702E+03  0.19555595643E+03  0.36269223072E+01 0.  0.
         13    1    3    3    0    0 -0.23572994986E+02 -0.20858551838E+02 -0.17998550580E+03  0.18271712447E+03  0.00000000000E+00 0.  1.
          3    1    3    3  501    0 -0.12164181515E+01 -0.61915940010E+00 -0.12766071225E+02  0.12838831956E+02  0.00000000000E+00 0.  1.
         -3    1    1    2    0  502  0.24789413137E+02  0.21477711238E+02 -0.80551248254E+03  0.80617998401E+03  0.00000000000E+00 0. -1.
<mgrwt>
<rscale>  1 0.30000000E+03</rscale>
<asrwt>0</asrwt>
<pdfrwt beam="1">  1       21 0.63125240E-02 0.30000000E+03</pdfrwt>
<pdfrwt beam="2">0</pdfrwt>
<totfact> 0.19303034E+04</totfact>
</mgrwt>
</event>
<event>
 6    1  0.6377696E-002  0.3000000E+03  0.7818608E-02  0.1093470E+00
         21   -1    0    0  501  502  0.00000000000E+00  0.00000000000E+00  0.15503972289E+01  0.15503972289E+01  0.00000000000E+00 0. -1.
         13   -1    0    0    0    0 -0.00000000000E+00 -0.00000000000E+00 -0.10000000000E+04  0.10000000000E+04  0.00000000000E+00 0.  1.
    9000005    2    1    2  501    0 -0.31370667157E+02  0.14510802282E+02 -0.73813220138E+03  0.73894835685E+03  0.32932121025E+01 0.  0.
         13    1    3    3    0    0 -0.48038990007E+01  0.28745433355E+01 -0.14371605179E+03  0.14382504645E+03  0.00000000000E+00 0.  1.
          1    1    3    3  501    0 -0.26566768157E+02  0.11636258946E+02 -0.59441614959E+03  0.59512331040E+03  0.00000000000E+00 0.  1.
         -1    1    1    2    0  502  0.31370667157E+02 -0.14510802282E+02 -0.26031740139E+03  0.26260204037E+03  0.00000000000E+00 0. -1.
<mgrwt>
<rscale>  1 0.30000000E+03</rscale>
<asrwt>0</asrwt>
<pdfrwt beam="1">  1       21 0.56378200E-02 0.30000000E+03</pdfrwt>
<pdfrwt beam="2">0</pdfrwt>
<totfact> 0.23456326E+04</totfact>
</mgrwt>
</event>
<event>
 6    1  0.6377696E-002  0.3000000E+03  0.7818608E-02  0.1093470E+00
         21   -1    0    0  501  502  0.00000000000E+00  0.00000000000E+00  0.20238862514E+01  0.20238862514E+01  0.00000000000E+00 0. -1.
         13   -1    0    0    0    0 -0.00000000000E+00 -0.00000000000E+00 -0.10000000000E+04  0.10000000000E+04  0.00000000000E+00 0.  1.
    9000005    2    1    2  501    0 -0.44101352693E+02 -0.85497970024E+01 -0.49751008968E+03  0.49954575779E+03  0.34126897514E+01 0.  0.
         13    1    3    3    0    0 -0.15372191356E+02 -0.26214588483E+01 -0.19068569986E+03  0.19132227378E+03  0.00000000000E+00 0.  1.
          3    1    3    3  501    0 -0.28729161337E+02 -0.59283381541E+01 -0.30682438982E+03  0.30822348400E+03  0.00000000000E+00 0.  1.
         -3    1    1    2    0  502  0.44101352693E+02  0.85497970024E+01 -0.50046602407E+03  0.50247812846E+03  0.00000000000E+00 0. -1.
<mgrwt>
<rscale>  1 0.30000000E+03</rscale>
<asrwt>0</asrwt>
<pdfrwt beam="1">  1       21 0.73596019E-02 0.30000000E+03</pdfrwt>
<pdfrwt beam="2">0</pdfrwt>
<totfact> 0.14785341E+04</totfact>
</mgrwt>
</event>
<event>
 6    1  0.6377696E-002  0.3000000E+03  0.7818608E-02  0.1093470E+00
         21   -1    0    0  501  502  0.00000000000E+00  0.00000000000E+00  0.17309488088E+01  0.17309488088E+01  0.00000000000E+00 0. -1.
         13   -1    0    0    0    0 -0.00000000000E+00 -0.00000000000E+00 -0.10000000000E+04  0.10000000000E+04  0.00000000000E+00 0.  1.
    9000005    2    1    2  501    0  0.19782649606E+02 -0.30496379353E+02 -0.25780647944E+03  0.26037664583E+03  0.32302436277E+01 0.  0.
         13    1    3    3    0    0  0.19214031489E+02 -0.28283236584E+02 -0.23964622392E+03  0.24207319785E+03  0.00000000000E+00 0.  1.
          1    1    3    3  501    0  0.56861811685E+00 -0.22131427691E+01 -0.18160255519E+02  0.18303447981E+02  0.00000000000E+00 0.  1.
         -1    1    1    2    0  502 -0.19782649606E+02  0.30496379353E+02 -0.74046257175E+03  0.74135430298E+03  0.00000000000E+00 0. -1.
<mgrwt>
<rscale>  1 0.30000000E+03</rscale>
<asrwt>0</asrwt>
<pdfrwt beam="1">  1       21 0.62943726E-02 0.30000000E+03</pdfrwt>
<pdfrwt beam="2">0</pdfrwt>
<totfact> 0.19399352E+04</totfact>
</mgrwt>
</event>
<event>
 6    1  0.6377696E-002  0.3000000E+03  0.7818608E-02  0.1093470E+00
         21   -1    0    0  501  502  0.00000000000E+00  0.00000000000E+00  0.11246018432E+01  0.11246018432E+01  0.00000000000E+00 0. -1.
         13   -1    0    0    0    0 -0.00000000000E+00 -0.00000000000E+00 -0.10000000000E+04  0.10000000000E+04  0.00000000000E+00 0.  1.
    9000005    2    1    2  501    0  0.32581419689E+01 -0.33160763910E+02 -0.46165132785E+03  0.46286820061E+03  0.38432899408E+01 0.  0.
         13    1    3    3    0    0  0.22765182893E+01 -0.93708476701E+01 -0.14875548430E+03  0.14906773437E+03  0.00000000000E+00 0.  1.
          1    1    3    3  501    0  0.98162367955E+00 -0.23789916240E+02 -0.31289584355E+03  0.31380046624E+03  0.00000000000E+00 0.  1.
         -1    1    1    2    0  502 -0.32581419689E+01  0.33160763910E+02 -0.53722407030E+03  0.53825640123E+03  0.00000000000E+00 0. -1.
<mgrwt>
<rscale>  1 0.30000000E+03</rscale>
<asrwt>0</asrwt>
<pdfrwt beam="1">  1       21 0.40894699E-02 0.30000000E+03</pdfrwt>
<pdfrwt beam="2">0</pdfrwt>
<totfact> 0.40508905E+04</totfact>
</mgrwt>
</event>
<event>
 6    1  0.6377696E-002  0.3000000E+03  0.7818608E-02  0.1093470E+00
         21   -1    0    0  501  502  0.00000000000E+00  0.00000000000E+00  0.14058597948E+01  0.14058597948E+01  0.00000000000E+00 0. -1.
         13   -1    0    0    0    0 -0.00000000000E+00 -0.00000000000E+00 -0.10000000000E+04  0.10000000000E+04  0.00000000000E+00 0.  1.
    9000005    2    1    2  501    0  0.32460975285E+02  0.17521659849E+02 -0.58089551811E+03  0.58208156717E+03  0.43156002024E+01 0.  0.
         13    1    3    3    0    0  0.64168800176E+01  0.39830873095E+01 -0.14745420332E+03  0.14764749713E+03  0.00000000000E+00 0.  1.
          1    1    3    3  501    0  0.26044095267E+02  0.13538572540E+02 -0.43344131479E+03  0.43443407004E+03  0.00000000000E+00 0.  1.
         -1    1    1    2    0  502 -0.32460975285E+02 -0.17521659849E+02 -0.41769862210E+03  0.41932429262E+03  0.00000000000E+00 0. -1.
<mgrwt>
<rscale>  1 0.30000000E+03</rscale>
<asrwt>0</asrwt>
<pdfrwt beam="1">  1       21 0.51122282E-02 0.30000000E+03</pdfrwt>
<pdfrwt beam="2">0</pdfrwt>
<totfact> 0.27734443E+04</totfact>
</mgrwt>
</event>
<event>
 6    1  0.6377696E-002  0.3000000E+03  0.7818608E-02  0.1093470E+00
         21   -1    0    0  501  502  0.00000000000E+00  0.00000000000E+00  0.80731210699E+01  0.80731210699E+01  0.00000000000E+00 0. -1.
         13   -1    0    0    0    0 -0.00000000000E+00 -0.00000000000E+00 -0.10000000000E+04  0.10000000000E+04  0.00000000000E+00 0.  1.
    9000005    2    1    2  501    0  0.87252286477E+02  0.21251051352E+02 -0.48654191817E+03  0.49477152625E+03  0.33550521549E+01 0.  0.
         13    1    3    3    0    0  0.80932985646E+02  0.18961320741E+02 -0.45278455916E+03  0.46035153618E+03  0.00000000000E+00 0.  1.
          1    1    3    3  501    0  0.63193008314E+01  0.22897306110E+01 -0.33757359010E+02  0.34419990073E+02  0.00000000000E+00 0.  1.
         -3    1    1    2    0  502 -0.87252286477E+02 -0.21251051352E+02 -0.50538496076E+03  0.51330159482E+03  0.00000000000E+00 0. -1.
<mgrwt>
<rscale>  1 0.30000000E+03</rscale>
<asrwt>0</asrwt>
<pdfrwt beam="1">  1       21 0.29356866E-01 0.30000000E+03</pdfrwt>
<pdfrwt beam="2">0</pdfrwt>
<totfact> 0.11353765E+03</totfact>
</mgrwt>
</event>
<event>
 6    1  0.6377696E-002  0.3000000E+03  0.7818608E-02  0.1093470E+00
         21   -1    0    0  501  502  0.00000000000E+00  0.00000000000E+00  0.13243333748E+01  0.13243333748E+01  0.00000000000E+00 0. -1.
         13   -1    0    0    0    0 -0.00000000000E+00 -0.00000000000E+00 -0.10000000000E+04  0.10000000000E+04  0.00000000000E+00 0.  1.
    9000005    2    1    2  501    0 -0.18072125547E+02  0.30788310693E+02 -0.59112039432E+03  0.59220843074E+03  0.36032030954E+01 0.  0.
         13    1    3    3    0    0 -0.10500002084E+01  0.39266369168E+01 -0.72848674378E+02  0.72961978705E+02  0.00000000000E+00 0.  1.
          1    1    3    3  501    0 -0.17022125339E+02  0.26861673777E+02 -0.51827171994E+03  0.51924645204E+03  0.00000000000E+00 0.  1.
         -3    1    1    2    0  502  0.18072125547E+02 -0.30788310693E+02 -0.40755527231E+03  0.40911590263E+03  0.00000000000E+00 0. -1.
<mgrwt>
<rscale>  1 0.30000000E+03</rscale>
<asrwt>0</asrwt>
<pdfrwt beam="1">  1       21 0.48157679E-02 0.30000000E+03</pdfrwt>
<pdfrwt beam="2">0</pdfrwt>
<totfact> 0.30706690E+04</totfact>
</mgrwt>
</event>
<event>
 6    1  0.6377696E-002  0.3000000E+03  0.7818608E-02  0.1093470E+00
         21   -1    0    0  501  502  0.00000000000E+00  0.00000000000E+00  0.11613246728E+01  0.11613246728E+01  0.00000000000E+00 0. -1.
         13   -1    0    0    0    0 -0.00000000000E+00 -0.00000000000E+00 -0.10000000000E+04  0.10000000000E+04  0.00000000000E+00 0.  1.
    9000005    2    1    2  501    0  0.33911237462E+02 -0.95722135769E-01 -0.46769359093E+03  0.46893479220E+03  0.35444533350E+01 0.  0.
         13    1    3    3    0    0  0.33824371469E+02  0.38753888148E-01 -0.46698359849E+03  0.46820697439E+03  0.00000000000E+00 0.  1.
          3    1    3    3  501    0  0.86865993354E-01 -0.13447602392E+00 -0.70999243938E+00  0.72781781085E+00  0.00000000000E+00 0.  1.
         -1    1    1    2    0  502 -0.33911237462E+02  0.95722135769E-01 -0.53114508439E+03  0.53222653247E+03  0.00000000000E+00 0. -1.
<mgrwt>
<rscale>  1 0.30000000E+03</rscale>
<asrwt>0</asrwt>
<pdfrwt beam="1">  1       21 0.42230077E-02 0.30000000E+03</pdfrwt>
<pdfrwt beam="2">0</pdfrwt>
<totfact> 0.38370783E+04</totfact>
</mgrwt>
</event>
<event>
 6    1  0.6377696E-002  0.3000000E+03  0.7818608E-02  0.1093470E+00
         21   -1    0    0  501  502  0.00000000000E+00  0.00000000000E+00  0.17748495283E+01  0.17748495283E+01  0.00000000000E+00 0. -1.
         13   -1    0    0    0    0 -0.00000000000E+00 -0.00000000000E+00 -0.10000000000E+04  0.10000000000E+04  0.00000000000E+00 0.  1.
    9000005    2    1    2  501    0  0.19910722916E+01 -0.37787087100E+02 -0.71822308778E+03  0.71922753768E+03  0.34668167574E+01 0.  0.
         13    1    3    3    0    0 -0.42420357768E+00 -0.13888104716E+01 -0.20366952278E+02  0.20418655399E+02  0.00000000000E+00 0.  1.
          3    1    3    3  501    0  0.24152758693E+01 -0.36398276628E+02 -0.69785613550E+03  0.69880888228E+03  0.00000000000E+00 0.  1.
         -3    1    1    2    0  502 -0.19910722916E+01  0.37787087100E+02 -0.28000206269E+03  0.28254731185E+03  0.00000000000E+00 0. -1.
<mgrwt>
<rscale>  1 0.30000000E+03</rscale>
<asrwt>0</asrwt>
<pdfrwt beam="1">  1       21 0.64540119E-02 0.30000000E+03</pdfrwt>
<pdfrwt beam="2">0</pdfrwt>
<totfact> 0.18576973E+04</totfact>
</mgrwt>
</event>
<event>
 6    1  0.6377696E-002  0.3000000E+03  0.7818608E-02  0.1093470E+00
         21   -1    0    0  501  502  0.00000000000E+00  0.00000000000E+00  0.13537517922E+01  0.13537517922E+01  0.00000000000E+00 0. -1.
         13   -1    0    0    0    0 -0.00000000000E+00 -0.00000000000E+00 -0.10000000000E+04  0.10000000000E+04  0.00000000000E+00 0.  1.
    9000005    2    1    2  501    0  0.30022664640E+01  0.32635618229E+02 -0.27574243605E+03  0.27770741634E+03  0.36634506124E+01 0.  0.
         13    1    3    3    0    0  0.11160299296E+01  0.10083845542E+02 -0.10018219154E+03  0.10069459254E+03  0.00000000000E+00 0.  1.
          1    1    3    3  501    0  0.18862365344E+01  0.22551772687E+02 -0.17556024451E+03  0.17701282381E+03  0.00000000000E+00 0.  1.
         -1    1    1    2    0  502 -0.30022664640E+01 -0.32635618229E+02 -0.72290381215E+03  0.72364633545E+03  0.00000000000E+00 0. -1.
<mgrwt>
<rscale>  1 0.30000000E+03</rscale>
<asrwt>0</asrwt>
<pdfrwt beam="1">  1       21 0.49227442E-02 0.30000000E+03</pdfrwt>
<pdfrwt beam="2">0</pdfrwt>
<totfact> 0.29579237E+04</totfact>
</mgrwt>
</event>
<event>
 6    1  0.6377696E-002  0.3000000E+03  0.7818608E-02  0.1093470E+00
         21   -1    0    0  501  502  0.00000000000E+00  0.00000000000E+00  0.10936810040E+01  0.10936810040E+01  0.00000000000E+00 0. -1.
         13   -1    0    0    0    0 -0.00000000000E+00 -0.00000000000E+00 -0.10000000000E+04  0.10000000000E+04  0.00000000000E+00 0.  1.
    9000005    2    1    2  501    0 -0.31022471664E+02  0.10975672336E+02 -0.53876550893E+03  0.53977771096E+03  0.29739709264E+01 0.  0.
         13    1    3    3    0    0 -0.30490173185E+02  0.11030814431E+02 -0.53369335255E+03  0.53467740189E+03  0.00000000000E+00 0.  1.
          1    1    3    3  501    0 -0.53229847863E+00 -0.55142095251E-01 -0.50721563782E+01  0.51003090736E+01  0.00000000000E+00 0.  1.
         -3    1    1    2    0  502  0.31022471664E+02 -0.10975672336E+02 -0.46014081006E+03  0.46131597004E+03  0.00000000000E+00 0. -1.
<mgrwt>
<rscale>  1 0.30000000E+03</rscale>
<asrwt>0</asrwt>
<pdfrwt beam="1">  1       21 0.39770302E-02 0.30000000E+03</pdfrwt>
<pdfrwt beam="2">0</pdfrwt>
<totfact> 0.42457037E+04</totfact>
</mgrwt>
</event>
<event>
 6    1  0.6377696E-002  0.3000000E+03  0.7818608E-02  0.1093470E+00
         21   -1    0    0  501  502  0.00000000000E+00  0.00000000000E+00  0.16421602220E+01  0.16421602220E+01  0.00000000000E+00 0. -1.
         13   -1    0    0    0    0 -0.00000000000E+00 -0.00000000000E+00 -0.10000000000E+04  0.10000000000E+04  0.00000000000E+00 0.  1.
    9000005    2    1    2  501    0 -0.40256102822E+02 -0.38344272574E+01 -0.51157365988E+03  0.51318121558E+03  0.34776268821E+01 0.  0.
         13    1    3    3    0    0 -0.42456987581E+01 -0.13876883846E+01 -0.62516116345E+02  0.62675485159E+02  0.00000000000E+00 0.  1.
          1    1    3    3  501    0 -0.36010404064E+02 -0.24467388728E+01 -0.44905754354E+03  0.45050573042E+03  0.00000000000E+00 0.  1.
         -1    1    1    2    0  502  0.40256102822E+02  0.38344272574E+01 -0.48678417989E+03  0.48846094464E+03  0.00000000000E+00 0. -1.
<mgrwt>
<rscale>  1 0.30000000E+03</rscale>
<asrwt>0</asrwt>
<pdfrwt beam="1">  1       21 0.59715043E-02 0.30000000E+03</pdfrwt>
<pdfrwt beam="2">0</pdfrwt>
<totfact> 0.21245366E+04</totfact>
</mgrwt>
</event>
<event>
 6    1  0.6377696E-002  0.3000000E+03  0.7818608E-02  0.1093470E+00
         21   -1    0    0  501  502  0.00000000000E+00  0.00000000000E+00  0.12430951750E+01  0.12430951750E+01  0.00000000000E+00 0. -1.
         13   -1    0    0    0    0 -0.00000000000E+00 -0.00000000000E+00 -0.10000000000E+04  0.10000000000E+04  0.00000000000E+00 0.  1.
    9000005    2    1    2  501    0 -0.56135438541E+01 -0.29495161426E+02 -0.23913265469E+03  0.24102570665E+03  0.27364767456E+01 0.  0.
         13    1    3    3    0    0 -0.47354054820E+00 -0.85081818171E+01 -0.71703027631E+02  0.72207600500E+02  0.00000000000E+00 0.  1.
          3    1    3    3  501    0 -0.51400033059E+01 -0.20986979609E+02 -0.16742962706E+03  0.16881810615E+03  0.00000000000E+00 0.  1.
         -3    1    1    2    0  502  0.56135438541E+01  0.29495161426E+02 -0.75962425013E+03  0.76021738852E+03  0.00000000000E+00 0. -1.
<mgrwt>
<rscale>  1 0.30000000E+03</rscale>
<asrwt>0</asrwt>
<pdfrwt beam="1">  1       21 0.45203556E-02 0.30000000E+03</pdfrwt>
<pdfrwt beam="2">0</pdfrwt>
<totfact> 0.34195248E+04</totfact>
</mgrwt>
</event>
<event>
 6    1  0.6377696E-002  0.3000000E+03  0.7818608E-02  0.1093470E+00
         21   -1    0    0  501  502  0.00000000000E+00  0.00000000000E+00  0.96689340042E+00  0.96689340042E+00  0.00000000000E+00 0. -1.
         13   -1    0    0    0    0 -0.00000000000E+00 -0.00000000000E+00 -0.10000000000E+04  0.10000000000E+04  0.00000000000E+00 0.  1.
    9000005    2    1    2  501    0 -0.25157240759E+02  0.16997036808E+02 -0.57985068998E+03  0.58068641035E+03  0.69353069117E+01 0.  0.
         13    1    3    3    0    0 -0.47889268056E+01  0.34500213997E+01 -0.17327565738E+03  0.17337615150E+03  0.00000000000E+00 0.  1.
          1    1    3    3  501    0 -0.20368313953E+02  0.13547015409E+02 -0.40657503260E+03  0.40731025886E+03  0.00000000000E+00 0.  1.
         -3    1    1    2    0  502  0.25157240759E+02 -0.16997036808E+02 -0.41918241662E+03  0.42028048305E+03  0.00000000000E+00 0. -1.
<mgrwt>
<rscale>  1 0.30000000E+03</rscale>
<asrwt>0</asrwt>
<pdfrwt beam="1">  1       21 0.35159834E-02 0.30000000E+03</pdfrwt>
<pdfrwt beam="2">0</pdfrwt>
<totfact> 0.52216835E+04</totfact>
</mgrwt>
</event>
<event>
 6    1  0.6377696E-002  0.3000000E+03  0.7818608E-02  0.1093470E+00
         21   -1    0    0  501  502  0.00000000000E+00  0.00000000000E+00  0.23238500485E+01  0.23238500485E+01  0.00000000000E+00 0. -1.
         13   -1    0    0    0    0 -0.00000000000E+00 -0.00000000000E+00 -0.10000000000E+04  0.10000000000E+04  0.00000000000E+00 0.  1.
    9000005    2    1    2  501    0  0.35293609504E+02 -0.23446824248E+02 -0.26174385928E+03  0.26517276045E+03  0.33693584351E+01 0.  0.
         13    1    3    3    0    0  0.13404600258E+02 -0.98123824210E+01 -0.93575463724E+02  0.95038589889E+02  0.00000000000E+00 0.  1.
          3    1    3    3  501    0  0.21889009246E+02 -0.13634441827E+02 -0.16816839556E+03  0.17013417057E+03  0.00000000000E+00 0.  1.
         -3    1    1    2    0  502 -0.35293609504E+02  0.23446824248E+02 -0.73593229067E+03  0.73715108959E+03  0.00000000000E+00 0. -1.
<mgrwt>
<rscale>  1 0.30000000E+03</rscale>
<asrwt>0</asrwt>
<pdfrwt beam="1">  1       21 0.84503816E-02 0.30000000E+03</pdfrwt>
<pdfrwt beam="2">0</pdfrwt>
<totfact> 0.11600380E+04</totfact>
</mgrwt>
</event>
<event>
 6    1  0.6377696E-002  0.3000000E+03  0.7818608E-02  0.1093470E+00
         21   -1    0    0  501  502  0.00000000000E+00  0.00000000000E+00  0.12675385759E+01  0.12675385759E+01  0.00000000000E+00 0. -1.
         13   -1    0    0    0    0 -0.00000000000E+00 -0.00000000000E+00 -0.10000000000E+04  0.10000000000E+04  0.00000000000E+00 0.  1.
    9000005    2    1    2  501    0 -0.35507985170E+02  0.13191393177E+01 -0.48562133911E+03  0.48692759167E+03  0.27995343321E+01 0.  0.
         13    1    3    3    0    0 -0.38353531597E+01 -0.19702505915E+00 -0.42483025923E+02  0.42656256801E+02  0.00000000000E+00 0.  1.
          1    1    3    3  501    0 -0.31672632010E+02  0.15161643768E+01 -0.44313831319E+03  0.44427133487E+03  0.00000000000E+00 0.  1.
         -3    1    1    2    0  502  0.35507985170E+02 -0.13191393177E+01 -0.51311112231E+03  0.51433994690E+03  0.00000000000E+00 0. -1.
<mgrwt>
<rscale>  1 0.30000000E+03</rscale>
<asrwt>0</asrwt>
<pdfrwt beam="1">  1       21 0.46092409E-02 0.30000000E+03</pdfrwt>
<pdfrwt beam="2">0</pdfrwt>
<totfact> 0.33082788E+04</totfact>
</mgrwt>
</event>
<event>
 6    1  0.6377696E-002  0.3000000E+03  0.7818608E-02  0.1093470E+00
         21   -1    0    0  501  502  0.00000000000E+00  0.00000000000E+00  0.11818556911E+01  0.11818556911E+01  0.00000000000E+00 0. -1.
         13   -1    0    0    0    0 -0.00000000000E+00 -0.00000000000E+00 -0.10000000000E+04  0.10000000000E+04  0.00000000000E+00 0.  1.
    9000005    2    1    2  501    0 -0.52632564270E+01 -0.31873198811E+02 -0.66838713404E+03  0.66917544729E+03  0.32887136748E+01 0.  0.
         13    1    3    3    0    0 -0.54966027096E+01 -0.26862369153E+02 -0.55300394787E+03  0.55368327216E+03  0.00000000000E+00 0.  1.
          1    1    3    3  501    0  0.23334628261E+00 -0.50108296581E+01 -0.11538318618E+03  0.11549217513E+03  0.00000000000E+00 0.  1.
         -3    1    1    2    0  502  0.52632564270E+01  0.31873198811E+02 -0.33043101027E+03  0.33200640840E+03  0.00000000000E+00 0. -1.
<mgrwt>
<rscale>  1 0.30000000E+03</rscale>
<asrwt>0</asrwt>
<pdfrwt beam="1">  1       21 0.42976661E-02 0.30000000E+03</pdfrwt>
<pdfrwt beam="2">0</pdfrwt>
<totfact> 0.37250930E+04</totfact>
</mgrwt>
</event>
<event>
 6    1  0.6377696E-002  0.3000000E+03  0.7818608E-02  0.1093470E+00
         21   -1    0    0  501  502  0.00000000000E+00  0.00000000000E+00  0.13689239027E+01  0.13689239027E+01  0.00000000000E+00 0. -1.
         13   -1    0    0    0    0 -0.00000000000E+00 -0.00000000000E+00 -0.10000000000E+04  0.10000000000E+04  0.00000000000E+00 0.  1.
    9000005    2    1    2  501    0  0.11544166645E+02  0.30672354915E+02 -0.27838929500E+03  0.28038190296E+03  0.62730210780E+01 0.  0.
         13    1    3    3    0    0  0.10586770015E+02  0.30335326282E+02 -0.26227353144E+03  0.26423420864E+03  0.00000000000E+00 0.  1.
          3    1    3    3  501    0  0.95739662988E+00  0.33702863341E+00 -0.16115763564E+02  0.16147694320E+02  0.00000000000E+00 0.  1.
         -1    1    1    2    0  502 -0.11544166645E+02 -0.30672354915E+02 -0.72024178109E+03  0.72098702095E+03  0.00000000000E+00 0. -1.
<mgrwt>
<rscale>  1 0.30000000E+03</rscale>
<asrwt>0</asrwt>
<pdfrwt beam="1">  1       21 0.49779156E-02 0.30000000E+03</pdfrwt>
<pdfrwt beam="2">0</pdfrwt>
<totfact> 0.29022821E+04</totfact>
</mgrwt>
</event>
<event>
 6    1  0.6377696E-002  0.3000000E+03  0.7818608E-02  0.1093470E+00
         21   -1    0    0  501  502  0.00000000000E+00  0.00000000000E+00  0.21720863189E+01  0.21720863189E+01  0.00000000000E+00 0. -1.
         13   -1    0    0    0    0 -0.00000000000E+00 -0.00000000000E+00 -0.10000000000E+04  0.10000000000E+04  0.00000000000E+00 0.  1.
    9000005    2    1    2  501    0 -0.25185125552E+02 -0.39039262774E+02 -0.46875047428E+03  0.47105882959E+03  0.33255394557E+01 0.  0.
         13    1    3    3    0    0 -0.13145806425E+02 -0.19636584366E+02 -0.22205603216E+03  0.22330984996E+03  0.00000000000E+00 0.  1.
          1    1    3    3  501    0 -0.12039319127E+02 -0.19402678408E+02 -0.24669444212E+03  0.24774897963E+03  0.00000000000E+00 0.  1.
         -1    1    1    2    0  502  0.25185125552E+02  0.39039262774E+02 -0.52907743940E+03  0.53111325673E+03  0.00000000000E+00 0. -1.
<mgrwt>
<rscale>  1 0.30000000E+03</rscale>
<asrwt>0</asrwt>
<pdfrwt beam="1">  1       21 0.78985124E-02 0.30000000E+03</pdfrwt>
<pdfrwt beam="2">0</pdfrwt>
<totfact> 0.13063453E+04</totfact>
</mgrwt>
</event>
<event>
 6    1  0.6377696E-002  0.3000000E+03  0.7818608E-02  0.1093470E+00
         21   -1    0    0  501  502  0.00000000000E+00  0.00000000000E+00  0.10313745296E+01  0.10313745296E+01  0.00000000000E+00 0. -1.
         13   -1    0    0    0    0 -0.00000000000E+00 -0.00000000000E+00 -0.10000000000E+04  0.10000000000E+04  0.00000000000E+00 0.  1.
    9000005    2    1    2  501    0 -0.14787965419E+02 -0.28205292998E+02 -0.55412382663E+03  0.55504805923E+03  0.33030798530E+01 0.  0.
         13    1    3    3    0    0 -0.14556285164E+02 -0.26843644436E+02 -0.53762901782E+03  0.53849552225E+03  0.00000000000E+00 0.  1.
          1    1    3    3  501    0 -0.23168025482E+00 -0.13616485623E+01 -0.16494808814E+02  0.16552536977E+02  0.00000000000E+00 0.  1.
         -3    1    1    2    0  502  0.14787965419E+02  0.28205292998E+02 -0.44484479884E+03  0.44598331530E+03  0.00000000000E+00 0. -1.
<mgrwt>
<rscale>  1 0.30000000E+03</rscale>
<asrwt>0</asrwt>
<pdfrwt beam="1">  1       21 0.37504607E-02 0.30000000E+03</pdfrwt>
<pdfrwt beam="2">0</pdfrwt>
<totfact> 0.46857605E+04</totfact>
</mgrwt>
</event>
<event>
 6    1  0.6377696E-002  0.3000000E+03  0.7818608E-02  0.1093470E+00
         21   -1    0    0  501  502  0.00000000000E+00  0.00000000000E+00  0.12248382054E+01  0.12248382054E+01  0.00000000000E+00 0. -1.
         13   -1    0    0    0    0 -0.00000000000E+00 -0.00000000000E+00 -0.10000000000E+04  0.10000000000E+04  0.00000000000E+00 0.  1.
    9000005    2    1    2  501    0 -0.23643720741E+02  0.25429146144E+02 -0.52973204438E+03  0.53089823573E+03  0.55884570124E+01 0.  0.
         13    1    3    3    0    0 -0.14749432330E+02  0.19607915487E+02 -0.37308531541E+03  0.37389125247E+03  0.00000000000E+00 0.  1.
          3    1    3    3  501    0 -0.88942884107E+01  0.58212306568E+01 -0.15664672897E+03  0.15700698325E+03  0.00000000000E+00 0.  1.
         -3    1    1    2    0  502  0.23643720741E+02 -0.25429146144E+02 -0.46904311742E+03  0.47032660248E+03  0.00000000000E+00 0. -1.
<mgrwt>
<rscale>  1 0.30000000E+03</rscale>
<asrwt>0</asrwt>
<pdfrwt beam="1">  1       21 0.44539665E-02 0.30000000E+03</pdfrwt>
<pdfrwt beam="2">0</pdfrwt>
<totfact> 0.35064447E+04</totfact>
</mgrwt>
</event>
<event>
 6    1  0.6377696E-002  0.3000000E+03  0.7818608E-02  0.1093470E+00
         21   -1    0    0  501  502  0.00000000000E+00  0.00000000000E+00  0.11089706378E+01  0.11089706378E+01  0.00000000000E+00 0. -1.
         13   -1    0    0    0    0 -0.00000000000E+00 -0.00000000000E+00 -0.10000000000E+04  0.10000000000E+04  0.00000000000E+00 0.  1.
    9000005    2    1    2  501    0  0.79615658773E+01  0.29581225727E+02 -0.31626219102E+03  0.31779310928E+03  0.56790307557E+01 0.  0.
         13    1    3    3    0    0  0.17850936817E+01  0.89177371057E+01 -0.69997010767E+02  0.70585367540E+02  0.00000000000E+00 0.  1.
          1    1    3    3  501    0  0.61764721956E+01  0.20663488621E+02 -0.24626518025E+03  0.24720774174E+03  0.00000000000E+00 0.  1.
         -1    1    1    2    0  502 -0.79615658773E+01 -0.29581225727E+02 -0.68262883834E+03  0.68331586136E+03  0.00000000000E+00 0. -1.
<mgrwt>
<rscale>  1 0.30000000E+03</rscale>
<asrwt>0</asrwt>
<pdfrwt beam="1">  1       21 0.40326290E-02 0.30000000E+03</pdfrwt>
<pdfrwt beam="2">0</pdfrwt>
<totfact> 0.41475859E+04</totfact>
</mgrwt>
</event>
<event>
 6    1  0.6377696E-002  0.3000000E+03  0.7818608E-02  0.1093470E+00
         21   -1    0    0  501  502  0.00000000000E+00  0.00000000000E+00  0.10432459841E+01  0.10432459841E+01  0.00000000000E+00 0. -1.
         13   -1    0    0    0    0 -0.00000000000E+00 -0.00000000000E+00 -0.10000000000E+04  0.10000000000E+04  0.00000000000E+00 0.  1.
    9000005    2    1    2  501    0 -0.30579634202E+02  0.47683536069E+01 -0.63516444963E+03  0.63593683416E+03  0.48915994040E+01 0.  0.
         13    1    3    3    0    0 -0.18023962538E+02  0.28424236092E+01 -0.42193916349E+03  0.42233351783E+03  0.00000000000E+00 0.  1.
          3    1    3    3  501    0 -0.12555671664E+02  0.19259299976E+01 -0.21322528614E+03  0.21360331633E+03  0.00000000000E+00 0.  1.
         -3    1    1    2    0  502  0.30579634202E+02 -0.47683536069E+01 -0.36379230439E+03  0.36510641183E+03  0.00000000000E+00 0. -1.
<mgrwt>
<rscale>  1 0.30000000E+03</rscale>
<asrwt>0</asrwt>
<pdfrwt beam="1">  1       21 0.37936298E-02 0.30000000E+03</pdfrwt>
<pdfrwt beam="2">0</pdfrwt>
<totfact> 0.45965467E+04</totfact>
</mgrwt>
</event>
<event>
 6    1  0.6377696E-002  0.3000000E+03  0.7818608E-02  0.1093470E+00
         21   -1    0    0  501  502  0.00000000000E+00  0.00000000000E+00  0.12054375659E+02  0.12054375659E+02  0.00000000000E+00 0. -1.
         13   -1    0    0    0    0 -0.00000000000E+00 -0.00000000000E+00 -0.10000000000E+04  0.10000000000E+04  0.00000000000E+00 0.  1.
    9000005    2    1    2  501    0  0.35513675761E+02  0.88244204555E+02 -0.74655284784E+03  0.75259583687E+03  0.33284010645E+01 0.  0.
         13    1    3    3    0    0  0.33206409180E+01  0.63049575093E+01 -0.52161693884E+02  0.52646191259E+02  0.00000000000E+00 0.  1.
          1    1    3    3  501    0  0.32193034843E+02  0.81939247046E+02 -0.69439115396E+03  0.69994964561E+03  0.00000000000E+00 0.  1.
         -1    1    1    2    0  502 -0.35513675761E+02 -0.88244204555E+02 -0.24139277650E+03  0.25945853879E+03  0.00000000000E+00 0. -1.
<mgrwt>
<rscale>  1 0.30000000E+03</rscale>
<asrwt>0</asrwt>
<pdfrwt beam="1">  1       21 0.43834186E-01 0.30000000E+03</pdfrwt>
<pdfrwt beam="2">0</pdfrwt>
<totfact> 0.49811019E+02</totfact>
</mgrwt>
</event>
<event>
 6    1  0.6377696E-002  0.3000000E+03  0.7818608E-02  0.1093470E+00
         21   -1    0    0  501  502  0.00000000000E+00  0.00000000000E+00  0.13605977667E+01  0.13605977667E+01  0.00000000000E+00 0. -1.
         13   -1    0    0    0    0 -0.00000000000E+00 -0.00000000000E+00 -0.10000000000E+04  0.10000000000E+04  0.00000000000E+00 0.  1.
    9000005    2    1    2  501    0 -0.23134326131E+02  0.20425769620E+02 -0.22924763529E+03  0.23135014319E+03  0.40001699990E+01 0.  0.
         13    1    3    3    0    0 -0.25056837183E+01  0.39184712310E+01 -0.29979295139E+02  0.30337946613E+02  0.00000000000E+00 0.  1.
          1    1    3    3  501    0 -0.20628642413E+02  0.16507298389E+02 -0.19926834015E+03  0.20101219658E+03  0.00000000000E+00 0.  1.
         -1    1    1    2    0  502  0.23134326131E+02 -0.20425769620E+02 -0.76939176695E+03  0.77001045458E+03  0.00000000000E+00 0. -1.
<mgrwt>
<rscale>  1 0.30000000E+03</rscale>
<asrwt>0</asrwt>
<pdfrwt beam="1">  1       21 0.49476387E-02 0.30000000E+03</pdfrwt>
<pdfrwt beam="2">0</pdfrwt>
<totfact> 0.29326129E+04</totfact>
</mgrwt>
</event>
<event>
 6    1  0.6377696E-002  0.3000000E+03  0.7818608E-02  0.1093470E+00
         21   -1    0    0  501  502  0.00000000000E+00  0.00000000000E+00  0.20766681005E+01  0.20766681005E+01  0.00000000000E+00 0. -1.
         13   -1    0    0    0    0 -0.00000000000E+00 -0.00000000000E+00 -0.10000000000E+04  0.10000000000E+04  0.00000000000E+00 0.  1.
    9000005    2    1    2  501    0  0.44283414498E+02 -0.10438413006E+02 -0.49782018795E+03  0.49990823435E+03  0.36499282533E+01 0.  0.
         13    1    3    3    0    0  0.32366380493E+02 -0.92680287047E+01 -0.36532413483E+03  0.36687218814E+03  0.00000000000E+00 0.  1.
          1    1    3    3  501    0  0.11917034005E+02 -0.11703843013E+01 -0.13249605311E+03  0.13303604621E+03  0.00000000000E+00 0.  1.
         -3    1    1    2    0  502 -0.44283414498E+02  0.10438413006E+02 -0.50010314395E+03  0.50216843375E+03  0.00000000000E+00 0. -1.
<mgrwt>
<rscale>  1 0.30000000E+03</rscale>
<asrwt>0</asrwt>
<pdfrwt beam="1">  1       21 0.75515363E-02 0.30000000E+03</pdfrwt>
<pdfrwt beam="2">0</pdfrwt>
<totfact> 0.14133952E+04</totfact>
</mgrwt>
</event>
<event>
 6    1  0.6377696E-002  0.3000000E+03  0.7818608E-02  0.1093470E+00
         21   -1    0    0  501  502  0.00000000000E+00  0.00000000000E+00  0.26709980152E+01  0.26709980152E+01  0.00000000000E+00 0. -1.
         13   -1    0    0    0    0 -0.00000000000E+00 -0.00000000000E+00 -0.10000000000E+04  0.10000000000E+04  0.00000000000E+00 0.  1.
    9000005    2    1    2  501    0 -0.27932268922E+02  0.42201864370E+02 -0.39910402111E+03  0.40230915983E+03  0.27260622564E+01 0.  0.
         13    1    3    3    0    0 -0.70507266872E+01  0.11252345357E+02 -0.11411393399E+03  0.11488393253E+03  0.00000000000E+00 0.  1.
          1    1    3    3  501    0 -0.20881542235E+02  0.30949519013E+02 -0.28499008712E+03  0.28742522730E+03  0.00000000000E+00 0.  1.
         -3    1    1    2    0  502  0.27932268922E+02 -0.42201864370E+02 -0.59822498087E+03  0.60036183818E+03  0.00000000000E+00 0. -1.
<mgrwt>
<rscale>  1 0.30000000E+03</rscale>
<asrwt>0</asrwt>
<pdfrwt beam="1">  1       21 0.97127405E-02 0.30000000E+03</pdfrwt>
<pdfrwt beam="2">0</pdfrwt>
<totfact> 0.90627331E+03</totfact>
</mgrwt>
</event>
<event>
 6    1  0.6377696E-002  0.3000000E+03  0.7818608E-02  0.1093470E+00
         21   -1    0    0  501  502  0.00000000000E+00  0.00000000000E+00  0.10998298774E+01  0.10998298774E+01  0.00000000000E+00 0. -1.
         13   -1    0    0    0    0 -0.00000000000E+00 -0.00000000000E+00 -0.10000000000E+04  0.10000000000E+04  0.00000000000E+00 0.  1.
    9000005    2    1    2  501    0 -0.22191261732E+02 -0.20998939613E+02 -0.30935389956E+03  0.31087706380E+03  0.33624489537E+01 0.  0.
         13    1    3    3    0    0 -0.11773328545E+02 -0.12188079668E+02 -0.15615942708E+03  0.15707618284E+03  0.00000000000E+00 0.  1.
          1    1    3    3  501    0 -0.10417933186E+02 -0.88108599453E+01 -0.15319447248E+03  0.15380088096E+03  0.00000000000E+00 0.  1.
         -1    1    1    2    0  502  0.22191261732E+02  0.20998939613E+02 -0.68954627057E+03  0.69022276608E+03  0.00000000000E+00 0. -1.
<mgrwt>
<rscale>  1 0.30000000E+03</rscale>
<asrwt>0</asrwt>
<pdfrwt beam="1">  1       21 0.39993898E-02 0.30000000E+03</pdfrwt>
<pdfrwt beam="2">0</pdfrwt>
<totfact> 0.42058127E+04</totfact>
</mgrwt>
</event>
<event>
 6    1  0.6377696E-002  0.3000000E+03  0.7818608E-02  0.1093470E+00
         21   -1    0    0  501  502  0.00000000000E+00  0.00000000000E+00  0.11057186820E+01  0.11057186820E+01  0.00000000000E+00 0. -1.
         13   -1    0    0    0    0 -0.00000000000E+00 -0.00000000000E+00 -0.10000000000E+04  0.10000000000E+04  0.00000000000E+00 0.  1.
    9000005    2    1    2  501    0 -0.30517649103E+02 -0.79314658035E+01 -0.35011456080E+03  0.35156021542E+03  0.44882427794E+01 0.  0.
         13    1    3    3    0    0 -0.48022592952E+01  0.21643313276E+00 -0.61639548524E+02  0.61826713320E+02  0.00000000000E+00 0.  1.
          1    1    3    3  501    0 -0.25715389807E+02 -0.81478989363E+01 -0.28847501228E+03  0.28973350210E+03  0.00000000000E+00 0.  1.
         -1    1    1    2    0  502  0.30517649103E+02  0.79314658035E+01 -0.64877972052E+03  0.64954550326E+03  0.00000000000E+00 0. -1.
<mgrwt>
<rscale>  1 0.30000000E+03</rscale>
<asrwt>0</asrwt>
<pdfrwt beam="1">  1       21 0.40208037E-02 0.30000000E+03</pdfrwt>
<pdfrwt beam="2">0</pdfrwt>
<totfact> 0.41681557E+04</totfact>
</mgrwt>
</event>
<event>
 6    1  0.6377696E-002  0.3000000E+03  0.7818608E-02  0.1093470E+00
         21   -1    0    0  501  502  0.00000000000E+00  0.00000000000E+00  0.10354968367E+01  0.10354968367E+01  0.00000000000E+00 0. -1.
         13   -1    0    0    0    0 -0.00000000000E+00 -0.00000000000E+00 -0.10000000000E+04  0.10000000000E+04  0.00000000000E+00 0.  1.
    9000005    2    1    2  501    0 -0.15084326482E+02 -0.28330212189E+02 -0.50464754481E+03  0.50567765331E+03  0.32567999321E+01 0.  0.
         13    1    3    3    0    0 -0.12139636716E+02 -0.25053325407E+02 -0.44090015964E+03  0.44177821434E+03  0.00000000000E+00 0.  1.
          3    1    3    3  501    0 -0.29446897661E+01 -0.32768867820E+01 -0.63747385167E+02  0.63899438968E+02  0.00000000000E+00 0.  1.
         -1    1    1    2    0  502  0.15084326482E+02  0.28330212189E+02 -0.49431695836E+03  0.49535784353E+03  0.00000000000E+00 0. -1.
<mgrwt>
<rscale>  1 0.30000000E+03</rscale>
<asrwt>0</asrwt>
<pdfrwt beam="1">  1       21 0.37654510E-02 0.30000000E+03</pdfrwt>
<pdfrwt beam="2">0</pdfrwt>
<totfact> 0.46544752E+04</totfact>
</mgrwt>
</event>
<event>
 6    1  0.6377696E-002  0.3000000E+03  0.7818608E-02  0.1093470E+00
         21   -1    0    0  501  502  0.00000000000E+00  0.00000000000E+00  0.13984259293E+01  0.13984259293E+01  0.00000000000E+00 0. -1.
         13   -1    0    0    0    0 -0.00000000000E+00 -0.00000000000E+00 -0.10000000000E+04  0.10000000000E+04  0.00000000000E+00 0.  1.
    9000005    2    1    2  501    0  0.33709818769E+02  0.15627052299E+01 -0.28674765172E+03  0.28874507352E+03  0.32722756770E+01 0.  0.
         13    1    3    3    0    0  0.26336448365E+01  0.85677206845E+00 -0.28153295823E+02  0.28289188910E+02  0.00000000000E+00 0.  1.
          1    1    3    3  501    0  0.31076173933E+02  0.70593316141E+00 -0.25859435589E+03  0.26045588461E+03  0.00000000000E+00 0.  1.
         -3    1    1    2    0  502 -0.33709818769E+02 -0.15627052299E+01 -0.71185392235E+03  0.71265335241E+03  0.00000000000E+00 0. -1.
<mgrwt>
<rscale>  1 0.30000000E+03</rscale>
<asrwt>0</asrwt>
<pdfrwt beam="1">  1       21 0.50851959E-02 0.30000000E+03</pdfrwt>
<pdfrwt beam="2">0</pdfrwt>
<totfact> 0.27986501E+04</totfact>
</mgrwt>
</event>
<event>
 6    1  0.6377696E-002  0.3000000E+03  0.7818608E-02  0.1093470E+00
         21   -1    0    0  501  502  0.00000000000E+00  0.00000000000E+00  0.14785258683E+01  0.14785258683E+01  0.00000000000E+00 0. -1.
         13   -1    0    0    0    0 -0.00000000000E+00 -0.00000000000E+00 -0.10000000000E+04  0.10000000000E+04  0.00000000000E+00 0.  1.
    9000005    2    1    2  501    0 -0.34293745331E+02 -0.74891016134E+01 -0.29942234127E+03  0.30149870817E+03  0.39477800105E+01 0.  0.
         13    1    3    3    0    0 -0.24077229180E+02 -0.40979004052E+01 -0.19523036500E+03  0.19675213130E+03  0.00000000000E+00 0.  1.
          1    1    3    3  501    0 -0.10216516151E+02 -0.33912012082E+01 -0.10419197627E+03  0.10474657687E+03  0.00000000000E+00 0.  1.
         -1    1    1    2    0  502  0.34293745331E+02  0.74891016134E+01 -0.69909913286E+03  0.69997981770E+03  0.00000000000E+00 0. -1.
<mgrwt>
<rscale>  1 0.30000000E+03</rscale>
<asrwt>0</asrwt>
<pdfrwt beam="1">  1       21 0.53764690E-02 0.30000000E+03</pdfrwt>
<pdfrwt beam="2">0</pdfrwt>
<totfact> 0.25445444E+04</totfact>
</mgrwt>
</event>
<event>
 6    1  0.6377696E-002  0.3000000E+03  0.7818608E-02  0.1093470E+00
         21   -1    0    0  501  502  0.00000000000E+00  0.00000000000E+00  0.13973070871E+01  0.13973070871E+01  0.00000000000E+00 0. -1.
         13   -1    0    0    0    0 -0.00000000000E+00 -0.00000000000E+00 -0.10000000000E+04  0.10000000000E+04  0.00000000000E+00 0.  1.
    9000005    2    1    2  501    0  0.23739889837E+02 -0.26371830700E+02 -0.34410385712E+03  0.34593732976E+03  0.24730168516E+01 0.  0.
         13    1    3    3    0    0  0.14618966964E+02 -0.17723253749E+02 -0.21610027044E+03  0.21731809589E+03  0.00000000000E+00 0.  1.
          3    1    3    3  501    0  0.91209228731E+01 -0.86485769509E+01 -0.12800358668E+03  0.12861923387E+03  0.00000000000E+00 0.  1.
         -1    1    1    2    0  502 -0.23739889837E+02  0.26371830700E+02 -0.65449883579E+03  0.65545997732E+03  0.00000000000E+00 0. -1.
<mgrwt>
<rscale>  1 0.30000000E+03</rscale>
<asrwt>0</asrwt>
<pdfrwt beam="1">  1       21 0.50811274E-02 0.30000000E+03</pdfrwt>
<pdfrwt beam="2">0</pdfrwt>
<totfact> 0.28024745E+04</totfact>
</mgrwt>
</event>
<event>
 6    1  0.6377696E-002  0.3000000E+03  0.7818608E-02  0.1093470E+00
         21   -1    0    0  501  502  0.00000000000E+00  0.00000000000E+00  0.99087171226E+00  0.99087171226E+00  0.00000000000E+00 0. -1.
         13   -1    0    0    0    0 -0.00000000000E+00 -0.00000000000E+00 -0.10000000000E+04  0.10000000000E+04  0.00000000000E+00 0.  1.
    9000005    2    1    2  501    0  0.21042378805E+02  0.21405010209E+02 -0.64081670257E+03  0.64154300344E+03  0.55156862993E+01 0.  0.
         13    1    3    3    0    0  0.14009014799E+02  0.11273448601E+02 -0.41562845509E+03  0.41601725423E+03  0.00000000000E+00 0.  1.
          1    1    3    3  501    0  0.70333640065E+01  0.10131561608E+02 -0.22518824748E+03  0.22552574921E+03  0.00000000000E+00 0.  1.
         -1    1    1    2    0  502 -0.21042378805E+02 -0.21405010209E+02 -0.35819242572E+03  0.35944786828E+03  0.00000000000E+00 0. -1.
<mgrwt>
<rscale>  1 0.30000000E+03</rscale>
<asrwt>0</asrwt>
<pdfrwt beam="1">  1       21 0.36031775E-02 0.30000000E+03</pdfrwt>
<pdfrwt beam="2">0</pdfrwt>
<totfact> 0.50116110E+04</totfact>
</mgrwt>
</event>
<event>
 6    1  0.6377696E-002  0.3000000E+03  0.7818608E-02  0.1093470E+00
         21   -1    0    0  501  502  0.00000000000E+00  0.00000000000E+00  0.14685555285E+01  0.14685555285E+01  0.00000000000E+00 0. -1.
         13   -1    0    0    0    0 -0.00000000000E+00 -0.00000000000E+00 -0.10000000000E+04  0.10000000000E+04  0.00000000000E+00 0.  1.
    9000005    2    1    2  501    0 -0.36379255524E+02  0.36530731499E+01 -0.64551552753E+03  0.64656429691E+03  0.42776830647E+01 0.  0.
         13    1    3    3    0    0 -0.84750061667E+01 -0.76908040410E+00 -0.13577431437E+03  0.13604073528E+03  0.00000000000E+00 0.  1.
          1    1    3    3  501    0 -0.27904249357E+02  0.44221535540E+01 -0.50974121317E+03  0.51052356163E+03  0.00000000000E+00 0.  1.
         -3    1    1    2    0  502  0.36379255524E+02 -0.36530731499E+01 -0.35301591694E+03  0.35490425862E+03  0.00000000000E+00 0. -1.
<mgrwt>
<rscale>  1 0.30000000E+03</rscale>
<asrwt>0</asrwt>
<pdfrwt beam="1">  1       21 0.53402132E-02 0.30000000E+03</pdfrwt>
<pdfrwt beam="2">0</pdfrwt>
<totfact> 0.25741834E+04</totfact>
</mgrwt>
</event>
<event>
 6    1  0.6377696E-002  0.3000000E+03  0.7818608E-02  0.1093470E+00
         21   -1    0    0  501  502  0.00000000000E+00  0.00000000000E+00  0.33126059547E+01  0.33126059547E+01  0.00000000000E+00 0. -1.
         13   -1    0    0    0    0 -0.00000000000E+00 -0.00000000000E+00 -0.10000000000E+04  0.10000000000E+04  0.00000000000E+00 0.  1.
    9000005    2    1    2  501    0 -0.16480326368E+02 -0.53067850978E+02 -0.62684332565E+03  0.62931737485E+03  0.44727404188E+01 0.  0.
         13    1    3    3    0    0 -0.15150499359E+02 -0.43255922578E+02 -0.51006647757E+03  0.51212149341E+03  0.00000000000E+00 0.  1.
          1    1    3    3  501    0 -0.13298270099E+01 -0.98119283992E+01 -0.11677684808E+03  0.11719588144E+03  0.00000000000E+00 0.  1.
         -1    1    1    2    0  502  0.16480326368E+02  0.53067850978E+02 -0.36984406839E+03  0.37399523110E+03  0.00000000000E+00 0. -1.
<mgrwt>
<rscale>  1 0.30000000E+03</rscale>
<asrwt>0</asrwt>
<pdfrwt beam="1">  1       21 0.12045865E-01 0.30000000E+03</pdfrwt>
<pdfrwt beam="2">0</pdfrwt>
<totfact> 0.61543522E+03</totfact>
</mgrwt>
</event>
<event>
 6    1  0.6377696E-002  0.3000000E+03  0.7818608E-02  0.1093470E+00
         21   -1    0    0  501  502  0.00000000000E+00  0.00000000000E+00  0.32667988464E+01  0.32667988464E+01  0.00000000000E+00 0. -1.
         13   -1    0    0    0    0 -0.00000000000E+00 -0.00000000000E+00 -0.10000000000E+04  0.10000000000E+04  0.00000000000E+00 0.  1.
    9000005    2    1    2  501    0 -0.15834682088E+02 -0.42531196445E+02 -0.19451583120E+03  0.19976673756E+03  0.32712415184E+01 0.  0.
         13    1    3    3    0    0 -0.13169005455E+02 -0.37626294891E+02 -0.17365388910E+03  0.17817079999E+03  0.00000000000E+00 0.  1.
          1    1    3    3  501    0 -0.26656766329E+01 -0.49049015541E+01 -0.20861942106E+02  0.21595937571E+02  0.00000000000E+00 0.  1.
         -1    1    1    2    0  502  0.15834682088E+02  0.42531196445E+02 -0.80221736995E+03  0.80350006128E+03  0.00000000000E+00 0. -1.
<mgrwt>
<rscale>  1 0.30000000E+03</rscale>
<asrwt>0</asrwt>
<pdfrwt beam="1">  1       21 0.11879294E-01 0.30000000E+03</pdfrwt>
<pdfrwt beam="2">0</pdfrwt>
<totfact> 0.63118100E+03</totfact>
</mgrwt>
</event>
<event>
 6    1  0.6377696E-002  0.3000000E+03  0.7818608E-02  0.1093470E+00
         21   -1    0    0  501  502  0.00000000000E+00  0.00000000000E+00  0.14864427444E+01  0.14864427444E+01  0.00000000000E+00 0. -1.
         13   -1    0    0    0    0 -0.00000000000E+00 -0.00000000000E+00 -0.10000000000E+04  0.10000000000E+04  0.00000000000E+00 0.  1.
    9000005    2    1    2  501    0 -0.25011759410E+02 -0.24710615831E+02 -0.70362001152E+03  0.70450427837E+03  0.29924869883E+01 0.  0.
         13    1    3    3    0    0 -0.93951023336E+00 -0.48215215647E+00 -0.30597342774E+02  0.30615560341E+02  0.00000000000E+00 0.  1.
          3    1    3    3  501    0 -0.24072249176E+02 -0.24228463674E+02 -0.67302266875E+03  0.67388871803E+03  0.00000000000E+00 0.  1.
         -1    1    1    2    0  502  0.25011759410E+02  0.24710615831E+02 -0.29489354573E+03  0.29698216438E+03  0.00000000000E+00 0. -1.
<mgrwt>
<rscale>  1 0.30000000E+03</rscale>
<asrwt>0</asrwt>
<pdfrwt beam="1">  1       21 0.54052577E-02 0.30000000E+03</pdfrwt>
<pdfrwt beam="2">0</pdfrwt>
<totfact> 0.25213835E+04</totfact>
</mgrwt>
</event>
<event>
 6    1  0.6377696E-002  0.3000000E+03  0.7818608E-02  0.1093470E+00
         21   -1    0    0  501  502  0.00000000000E+00  0.00000000000E+00  0.15376480588E+01  0.15376480588E+01  0.00000000000E+00 0. -1.
         13   -1    0    0    0    0 -0.00000000000E+00 -0.00000000000E+00 -0.10000000000E+04  0.10000000000E+04  0.00000000000E+00 0.  1.
    9000005    2    1    2  501    0 -0.40178273132E+01  0.32123192020E+02 -0.78126627251E+03  0.78194215785E+03  0.29167193483E+01 0.  0.
         13    1    3    3    0    0 -0.31577398707E+01  0.16672747766E+02 -0.38462755093E+03  0.38500169450E+03  0.00000000000E+00 0.  1.
          3    1    3    3  501    0 -0.86008744255E+00  0.15450444255E+02 -0.39663872158E+03  0.39694046334E+03  0.00000000000E+00 0.  1.
         -3    1    1    2    0  502  0.40178273132E+01 -0.32123192020E+02 -0.21719607943E+03  0.21959549021E+03  0.00000000000E+00 0. -1.
<mgrwt>
<rscale>  1 0.30000000E+03</rscale>
<asrwt>0</asrwt>
<pdfrwt beam="1">  1       21 0.55914593E-02 0.30000000E+03</pdfrwt>
<pdfrwt beam="2">0</pdfrwt>
<totfact> 0.23791326E+04</totfact>
</mgrwt>
</event>
<event>
 6    1  0.6377696E-002  0.3000000E+03  0.7818608E-02  0.1093470E+00
         21   -1    0    0  501  502  0.00000000000E+00  0.00000000000E+00  0.15154697429E+01  0.15154697429E+01  0.00000000000E+00 0. -1.
         13   -1    0    0    0    0 -0.00000000000E+00 -0.00000000000E+00 -0.10000000000E+04  0.10000000000E+04  0.00000000000E+00 0.  1.
    9000005    2    1    2  501    0 -0.28151680282E+02  0.19866756608E+02 -0.26841641075E+03  0.27063472418E+03  0.29290354561E+01 0.  0.
         13    1    3    3    0    0 -0.17146072248E+02  0.10951021785E+02 -0.16670213621E+03  0.16793902134E+03  0.00000000000E+00 0.  1.
          3    1    3    3  501    0 -0.11005608034E+02  0.89157348231E+01 -0.10171427454E+03  0.10269570284E+03  0.00000000000E+00 0.  1.
         -3    1    1    2    0  502  0.28151680282E+02 -0.19866756608E+02 -0.73006811951E+03  0.73088074557E+03  0.00000000000E+00 0. -1.
<mgrwt>
<rscale>  1 0.30000000E+03</rscale>
<asrwt>0</asrwt>
<pdfrwt beam="1">  1       21 0.55108107E-02 0.30000000E+03</pdfrwt>
<pdfrwt beam="2">0</pdfrwt>
<totfact> 0.24391877E+04</totfact>
</mgrwt>
</event>
<event>
 6    1  0.6377696E-002  0.3000000E+03  0.7818608E-02  0.1093470E+00
         21   -1    0    0  501  502  0.00000000000E+00  0.00000000000E+00  0.13901642853E+01  0.13901642853E+01  0.00000000000E+00 0. -1.
         13   -1    0    0    0    0 -0.00000000000E+00 -0.00000000000E+00 -0.10000000000E+04  0.10000000000E+04  0.00000000000E+00 0.  1.
    9000005    2    1    2  501    0  0.35028188804E+00  0.34806330045E+02 -0.67675985582E+03  0.67766340779E+03  0.34912043926E+01 0.  0.
         13    1    3    3    0    0 -0.10134239822E+00  0.12453823290E+02 -0.21092879912E+03  0.21129615775E+03  0.00000000000E+00 0.  1.
          1    1    3    3  501    0  0.45162428625E+00  0.22352506755E+02 -0.46583105670E+03  0.46636725004E+03  0.00000000000E+00 0.  1.
         -3    1    1    2    0  502 -0.35028188804E+00 -0.34806330045E+02 -0.32184997990E+03  0.32372675649E+03  0.00000000000E+00 0. -1.
<mgrwt>
<rscale>  1 0.30000000E+03</rscale>
<asrwt>0</asrwt>
<pdfrwt beam="1">  1       21 0.50551535E-02 0.30000000E+03</pdfrwt>
<pdfrwt beam="2">0</pdfrwt>
<totfact> 0.28270830E+04</totfact>
</mgrwt>
</event>
<event>
 6    1  0.6377696E-002  0.3000000E+03  0.7818608E-02  0.1093470E+00
         21   -1    0    0  501  502  0.00000000000E+00  0.00000000000E+00  0.13823867982E+01  0.13823867982E+01  0.00000000000E+00 0. -1.
         13   -1    0    0    0    0 -0.00000000000E+00 -0.00000000000E+00 -0.10000000000E+04  0.10000000000E+04  0.00000000000E+00 0.  1.
    9000005    2    1    2  501    0 -0.21205134587E+00 -0.37096273668E+02 -0.50928523918E+03  0.51064584775E+03  0.33983080354E+01 0.  0.
         13    1    3    3    0    0  0.13724522837E+01 -0.21604001593E+02 -0.28576238901E+03  0.28658115688E+03  0.00000000000E+00 0.  1.
          3    1    3    3  501    0 -0.15845036296E+01 -0.15492272075E+02 -0.22352285017E+03  0.22406469087E+03  0.00000000000E+00 0.  1.
         -1    1    1    2    0  502  0.21205134587E+00  0.37096273668E+02 -0.48933237402E+03  0.49073653905E+03  0.00000000000E+00 0. -1.
<mgrwt>
<rscale>  1 0.30000000E+03</rscale>
<asrwt>0</asrwt>
<pdfrwt beam="1">  1       21 0.50268717E-02 0.30000000E+03</pdfrwt>
<pdfrwt beam="2">0</pdfrwt>
<totfact> 0.28542625E+04</totfact>
</mgrwt>
</event>
<event>
 6    1  0.6377696E-002  0.3000000E+03  0.7818608E-02  0.1093470E+00
         21   -1    0    0  501  502  0.00000000000E+00  0.00000000000E+00  0.94692440169E+00  0.94692440169E+00  0.00000000000E+00 0. -1.
         13   -1    0    0    0    0 -0.00000000000E+00 -0.00000000000E+00 -0.10000000000E+04  0.10000000000E+04  0.00000000000E+00 0.  1.
    9000005    2    1    2  501    0 -0.30195474420E+02 -0.49698965485E+01 -0.46336301468E+03  0.46438350046E+03  0.32071135631E+01 0.  0.
         13    1    3    3    0    0 -0.28611783380E+02 -0.40285699286E+01 -0.44027502369E+03  0.44122212095E+03  0.00000000000E+00 0.  1.
          1    1    3    3  501    0 -0.15836910400E+01 -0.94132661992E+00 -0.23087990986E+02  0.23161379512E+02  0.00000000000E+00 0.  1.
         -3    1    1    2    0  502  0.30195474420E+02  0.49698965485E+01 -0.53569006092E+03  0.53656342394E+03  0.00000000000E+00 0. -1.
<mgrwt>
<rscale>  1 0.30000000E+03</rscale>
<asrwt>0</asrwt>
<pdfrwt beam="1">  1       21 0.34433687E-02 0.30000000E+03</pdfrwt>
<pdfrwt beam="2">0</pdfrwt>
<totfact> 0.54072987E+04</totfact>
</mgrwt>
</event>
<event>
 6    1  0.6377696E-002  0.3000000E+03  0.7818608E-02  0.1093470E+00
         21   -1    0    0  501  502  0.00000000000E+00  0.00000000000E+00  0.12895140689E+01  0.12895140689E+01  0.00000000000E+00 0. -1.
         13   -1    0    0    0    0 -0.00000000000E+00 -0.00000000000E+00 -0.10000000000E+04  0.10000000000E+04  0.00000000000E+00 0.  1.
    9000005    2    1    2  501    0  0.28066921178E+02  0.21905614596E+02 -0.55307347400E+03  0.55423252171E+03  0.39764886474E+01 0.  0.
         13    1    3    3    0    0  0.15370132816E+02  0.12621449632E+02 -0.27887197977E+03  0.27958026231E+03  0.00000000000E+00 0.  1.
          3    1    3    3  501    0  0.12696788363E+02  0.92841649641E+01 -0.27420149423E+03  0.27465225940E+03  0.00000000000E+00 0.  1.
         -3    1    1    2    0  502 -0.28066921178E+02 -0.21905614596E+02 -0.44563701193E+03  0.44705699236E+03  0.00000000000E+00 0. -1.
<mgrwt>
<rscale>  1 0.30000000E+03</rscale>
<asrwt>0</asrwt>
<pdfrwt beam="1">  1       21 0.46891520E-02 0.30000000E+03</pdfrwt>
<pdfrwt beam="2">0</pdfrwt>
<totfact> 0.32130314E+04</totfact>
</mgrwt>
</event>
<event>
 6    1  0.6377696E-002  0.3000000E+03  0.7818608E-02  0.1093470E+00
         21   -1    0    0  501  502  0.00000000000E+00  0.00000000000E+00  0.11716975493E+01  0.11716975493E+01  0.00000000000E+00 0. -1.
         13   -1    0    0    0    0 -0.00000000000E+00 -0.00000000000E+00 -0.10000000000E+04  0.10000000000E+04  0.00000000000E+00 0.  1.
    9000005    2    1    2  501    0 -0.12144868824E+02 -0.31549185095E+02 -0.54861405286E+03  0.54969000417E+03  0.62348034473E+01 0.  0.
         13    1    3    3    0    0 -0.72307548931E+01 -0.24700473483E+02 -0.38537790231E+03  0.38623635872E+03  0.00000000000E+00 0.  1.
          1    1    3    3  501    0 -0.49141139311E+01 -0.68487116118E+01 -0.16323615055E+03  0.16345364545E+03  0.00000000000E+00 0.  1.
         -1    1    1    2    0  502  0.12144868824E+02  0.31549185095E+02 -0.45021424959E+03  0.45148169338E+03  0.00000000000E+00 0. -1.
<mgrwt>
<rscale>  1 0.30000000E+03</rscale>
<asrwt>0</asrwt>
<pdfrwt beam="1">  1       21 0.42607273E-02 0.30000000E+03</pdfrwt>
<pdfrwt beam="2">0</pdfrwt>
<totfact> 0.37798563E+04</totfact>
</mgrwt>
</event>
<event>
 6    1  0.6377696E-002  0.3000000E+03  0.7818608E-02  0.1093470E+00
         21   -1    0    0  501  502  0.00000000000E+00  0.00000000000E+00  0.10057664570E+01  0.10057664570E+01  0.00000000000E+00 0. -1.
         13   -1    0    0    0    0 -0.00000000000E+00 -0.00000000000E+00 -0.10000000000E+04  0.10000000000E+04  0.00000000000E+00 0.  1.
    9000005    2    1    2  501    0 -0.30458282773E+02 -0.48438991524E+01 -0.61145836095E+03  0.61224462784E+03  0.33146343546E+01 0.  0.
         13    1    3    3    0    0 -0.53257533846E+01 -0.19720573432E+01 -0.10010445074E+03  0.10026541635E+03  0.00000000000E+00 0.  1.
          1    1    3    3  501    0 -0.25132529388E+02 -0.28718418092E+01 -0.51135391021E+03  0.51197921149E+03  0.00000000000E+00 0.  1.
         -1    1    1    2    0  502  0.30458282773E+02  0.48438991524E+01 -0.38753587259E+03  0.38876113861E+03  0.00000000000E+00 0. -1.
<mgrwt>
<rscale>  1 0.30000000E+03</rscale>
<asrwt>0</asrwt>
<pdfrwt beam="1">  1       21 0.36573403E-02 0.30000000E+03</pdfrwt>
<pdfrwt beam="2">0</pdfrwt>
<totfact> 0.48877427E+04</totfact>
</mgrwt>
</event>
<event>
 6    1  0.6377696E-002  0.3000000E+03  0.7818608E-02  0.1093470E+00
         21   -1    0    0  501  502  0.00000000000E+00  0.00000000000E+00  0.12963694914E+01  0.12963694914E+01  0.00000000000E+00 0. -1.
         13   -1    0    0    0    0 -0.00000000000E+00 -0.00000000000E+00 -0.10000000000E+04  0.10000000000E+04  0.00000000000E+00 0.  1.
    9000005    2    1    2  501    0  0.25967847529E+00 -0.31940111191E+02 -0.27149674260E+03  0.27338834236E+03  0.32351757181E+01 0.  0.
         13    1    3    3    0    0  0.16536048670E+01 -0.21525300143E+02 -0.18548737454E+03  0.18673949520E+03  0.00000000000E+00 0.  1.
          3    1    3    3  501    0 -0.13939263917E+01 -0.10414811048E+02 -0.86009368057E+02  0.86648847156E+02  0.00000000000E+00 0.  1.
         -1    1    1    2    0  502 -0.25967847529E+00  0.31940111191E+02 -0.72720688791E+03  0.72790802713E+03  0.00000000000E+00 0. -1.
<mgrwt>
<rscale>  1 0.30000000E+03</rscale>
<asrwt>0</asrwt>
<pdfrwt beam="1">  1       21 0.47140808E-02 0.30000000E+03</pdfrwt>
<pdfrwt beam="2">0</pdfrwt>
<totfact> 0.31841959E+04</totfact>
</mgrwt>
</event>
<event>
 6    1  0.6377696E-002  0.3000000E+03  0.7818608E-02  0.1093470E+00
         21   -1    0    0  501  502  0.00000000000E+00  0.00000000000E+00  0.12238098227E+01  0.12238098227E+01  0.00000000000E+00 0. -1.
         13   -1    0    0    0    0 -0.00000000000E+00 -0.00000000000E+00 -0.10000000000E+04  0.10000000000E+04  0.00000000000E+00 0.  1.
    9000005    2    1    2  501    0 -0.14274210153E+02 -0.31194803374E+02 -0.41459062947E+03  0.41603184288E+03  0.44983790852E+01 0.  0.
         13    1    3    3    0    0 -0.45189125091E+00 -0.46276360389E+01 -0.54308352222E+02  0.54507030208E+02  0.00000000000E+00 0.  1.
          1    1    3    3  501    0 -0.13822318902E+02 -0.26567167335E+02 -0.36028227724E+03  0.36152481267E+03  0.00000000000E+00 0.  1.
         -1    1    1    2    0  502  0.14274210153E+02  0.31194803374E+02 -0.58418556071E+03  0.58519196695E+03  0.00000000000E+00 0. -1.
<mgrwt>
<rscale>  1 0.30000000E+03</rscale>
<asrwt>0</asrwt>
<pdfrwt beam="1">  1       21 0.44502269E-02 0.30000000E+03</pdfrwt>
<pdfrwt beam="2">0</pdfrwt>
<totfact> 0.35114419E+04</totfact>
</mgrwt>
</event>
<event>
 6    1  0.6377696E-002  0.3000000E+03  0.7818608E-02  0.1093470E+00
         21   -1    0    0  501  502  0.00000000000E+00  0.00000000000E+00  0.23039108053E+01  0.23039108053E+01  0.00000000000E+00 0. -1.
         13   -1    0    0    0    0 -0.00000000000E+00 -0.00000000000E+00 -0.10000000000E+04  0.10000000000E+04  0.00000000000E+00 0.  1.
    9000005    2    1    2  501    0 -0.37646361088E+02  0.91350751790E+01 -0.20403595488E+03  0.20769891025E+03  0.27328254484E+01 0.  0.
         13    1    3    3    0    0 -0.73853646414E+00  0.39766563303E+00 -0.65841884230E+01  0.66374024479E+01  0.00000000000E+00 0.  1.
          1    1    3    3  501    0 -0.36907824624E+02  0.87374095460E+01 -0.19745176646E+03  0.20106150781E+03  0.00000000000E+00 0.  1.
         -3    1    1    2    0  502  0.37646361088E+02 -0.91350751790E+01 -0.79366013431E+03  0.79460500055E+03  0.00000000000E+00 0. -1.
<mgrwt>
<rscale>  1 0.30000000E+03</rscale>
<asrwt>0</asrwt>
<pdfrwt beam="1">  1       21 0.83778751E-02 0.30000000E+03</pdfrwt>
<pdfrwt beam="2">0</pdfrwt>
<totfact> 0.11777869E+04</totfact>
</mgrwt>
</event>
<event>
 6    1  0.6377696E-002  0.3000000E+03  0.7818608E-02  0.1093470E+00
         21   -1    0    0  501  502  0.00000000000E+00  0.00000000000E+00  0.29079541175E+01  0.29079541175E+01  0.00000000000E+00 0. -1.
         13   -1    0    0    0    0 -0.00000000000E+00 -0.00000000000E+00 -0.10000000000E+04  0.10000000000E+04  0.00000000000E+00 0.  1.
    9000005    2    1    2  501    0 -0.36780605802E+02 -0.39368562018E+02 -0.49581665201E+03  0.49874556248E+03  0.32073424631E+01 0.  0.
         13    1    3    3    0    0 -0.12933753923E+00 -0.15038224550E+00 -0.46873416855E+01  0.46915365388E+01  0.00000000000E+00 0.  1.
          1    1    3    3  501    0 -0.36651268263E+02 -0.39218179772E+02 -0.49112931032E+03  0.49405402594E+03  0.00000000000E+00 0.  1.
         -3    1    1    2    0  502  0.36780605802E+02  0.39368562018E+02 -0.50127539388E+03  0.50416239164E+03  0.00000000000E+00 0. -1.
<mgrwt>
<rscale>  1 0.30000000E+03</rscale>
<asrwt>0</asrwt>
<pdfrwt beam="1">  1       21 0.10574401E-01 0.30000000E+03</pdfrwt>
<pdfrwt beam="2">0</pdfrwt>
<totfact> 0.77846866E+03</totfact>
</mgrwt>
</event>
<event>
 6    1  0.6377696E-002  0.3000000E+03  0.7818608E-02  0.1093470E+00
         21   -1    0    0  501  502  0.00000000000E+00  0.00000000000E+00  0.12753592817E+01  0.12753592817E+01  0.00000000000E+00 0. -1.
         13   -1    0    0    0    0 -0.00000000000E+00 -0.00000000000E+00 -0.10000000000E+04  0.10000000000E+04  0.00000000000E+00 0.  1.
    9000005    2    1    2  501    0  0.98294304217E+01  0.33916070450E+02 -0.43307253746E+03  0.43452213304E+03  0.32777828853E+01 0.  0.
         13    1    3    3    0    0  0.61248125876E+01  0.26169236608E+02 -0.32846833400E+03  0.32956606123E+03  0.00000000000E+00 0.  1.
          3    1    3    3  501    0  0.37046178341E+01  0.77468338416E+01 -0.10460420346E+03  0.10495607181E+03  0.00000000000E+00 0.  1.
         -1    1    1    2    0  502 -0.98294304217E+01 -0.33916070450E+02 -0.56565210326E+03  0.56675322624E+03  0.00000000000E+00 0. -1.
<mgrwt>
<rscale>  1 0.30000000E+03</rscale>
<asrwt>0</asrwt>
<pdfrwt beam="1">  1       21 0.46376799E-02 0.30000000E+03</pdfrwt>
<pdfrwt beam="2">0</pdfrwt>
<totfact> 0.32738803E+04</totfact>
</mgrwt>
</event>
<event>
 6    1  0.6377696E-002  0.3000000E+03  0.7818608E-02  0.1093470E+00
         21   -1    0    0  501  502  0.00000000000E+00  0.00000000000E+00  0.97835654446E+00  0.97835654446E+00  0.00000000000E+00 0. -1.
         13   -1    0    0    0    0 -0.00000000000E+00 -0.00000000000E+00 -0.10000000000E+04  0.10000000000E+04  0.00000000000E+00 0.  1.
    9000005    2    1    2  501    0 -0.49862579004E+01  0.30427035047E+02 -0.42932491040E+03  0.43044787104E+03  0.38501646673E+01 0.  0.
         13    1    3    3    0    0 -0.32876681977E+00  0.13641070904E+02 -0.19318448850E+03  0.19366577782E+03  0.00000000000E+00 0.  1.
          3    1    3    3  501    0 -0.46574910806E+01  0.16785964143E+02 -0.23614042190E+03  0.23678209322E+03  0.00000000000E+00 0.  1.
         -3    1    1    2    0  502  0.49862579004E+01 -0.30427035047E+02 -0.56969673306E+03  0.57053048550E+03  0.00000000000E+00 0. -1.
<mgrwt>
<rscale>  1 0.30000000E+03</rscale>
<asrwt>0</asrwt>
<pdfrwt beam="1">  1       21 0.35576677E-02 0.30000000E+03</pdfrwt>
<pdfrwt beam="2">0</pdfrwt>
<totfact> 0.51195653E+04</totfact>
</mgrwt>
</event>
<event>
 6    1  0.6377696E-002  0.3000000E+03  0.7818608E-02  0.1093470E+00
         21   -1    0    0  501  502  0.00000000000E+00  0.00000000000E+00  0.37584245367E+01  0.37584245367E+01  0.00000000000E+00 0. -1.
         13   -1    0    0    0    0 -0.00000000000E+00 -0.00000000000E+00 -0.10000000000E+04  0.10000000000E+04  0.00000000000E+00 0.  1.
    9000005    2    1    2  501    0  0.32880542680E+02  0.40700822230E+02 -0.23804794380E+03  0.24376153631E+03  0.38956412174E+01 0.  0.
         13    1    3    3    0    0  0.29472801931E+02  0.34396702584E+02 -0.20666518963E+03  0.21157098054E+03  0.00000000000E+00 0.  1.
          3    1    3    3  501    0  0.34077407487E+01  0.63041196465E+01 -0.31382754172E+02  0.32190555772E+02  0.00000000000E+00 0.  1.
         -1    1    1    2    0  502 -0.32880542680E+02 -0.40700822230E+02 -0.75819363166E+03  0.75999688822E+03  0.00000000000E+00 0. -1.
<mgrwt>
<rscale>  1 0.30000000E+03</rscale>
<asrwt>0</asrwt>
<pdfrwt beam="1">  1       21 0.13667027E-01 0.30000000E+03</pdfrwt>
<pdfrwt beam="2">0</pdfrwt>
<totfact> 0.48879163E+03</totfact>
</mgrwt>
</event>
<event>
 6    1  0.6377696E-002  0.3000000E+03  0.7818608E-02  0.1093470E+00
         21   -1    0    0  501  502  0.00000000000E+00  0.00000000000E+00  0.11286152644E+01  0.11286152644E+01  0.00000000000E+00 0. -1.
         13   -1    0    0    0    0 -0.00000000000E+00 -0.00000000000E+00 -0.10000000000E+04  0.10000000000E+04  0.00000000000E+00 0.  1.
    9000005    2    1    2  501    0 -0.27233580051E+02 -0.16540002495E+02 -0.65547489586E+03  0.65625706217E+03  0.32791727720E+01 0.  0.
         13    1    3    3    0    0 -0.16174183329E+02 -0.11263520584E+02 -0.42461933411E+03  0.42507652253E+03  0.00000000000E+00 0.  1.
          3    1    3    3  501    0 -0.11059396722E+02 -0.52764819117E+01 -0.23085556175E+03  0.23118053964E+03  0.00000000000E+00 0.  1.
         -3    1    1    2    0  502  0.27233580051E+02  0.16540002495E+02 -0.34339648887E+03  0.34487155310E+03  0.00000000000E+00 0. -1.
<mgrwt>
<rscale>  1 0.30000000E+03</rscale>
<asrwt>0</asrwt>
<pdfrwt beam="1">  1       21 0.41040642E-02 0.30000000E+03</pdfrwt>
<pdfrwt beam="2">0</pdfrwt>
<totfact> 0.40266306E+04</totfact>
</mgrwt>
</event>
<event>
 6    1  0.6377696E-002  0.3000000E+03  0.7818608E-02  0.1093470E+00
         21   -1    0    0  501  502  0.00000000000E+00  0.00000000000E+00  0.19681585078E+01  0.19681585078E+01  0.00000000000E+00 0. -1.
         13   -1    0    0    0    0 -0.00000000000E+00 -0.00000000000E+00 -0.10000000000E+04  0.10000000000E+04  0.00000000000E+00 0.  1.
    9000005    2    1    2  501    0 -0.43758773292E+02  0.68567953023E+01 -0.49689168385E+03  0.49887442620E+03  0.35357826763E+01 0.  0.
         13    1    3    3    0    0 -0.90934078589E+01  0.23672036577E+01 -0.11821434447E+03  0.11858720402E+03  0.00000000000E+00 0.  1.
          1    1    3    3  501    0 -0.34665365433E+02  0.44895916446E+01 -0.37867733938E+03  0.38028722218E+03  0.00000000000E+00 0.  1.
         -3    1    1    2    0  502  0.43758773292E+02 -0.68567953023E+01 -0.50114015764E+03  0.50309373231E+03  0.00000000000E+00 0. -1.
<mgrwt>
<rscale>  1 0.30000000E+03</rscale>
<asrwt>0</asrwt>
<pdfrwt beam="1">  1       21 0.71569551E-02 0.30000000E+03</pdfrwt>
<pdfrwt beam="2">0</pdfrwt>
<totfact> 0.15523919E+04</totfact>
</mgrwt>
</event>
<event>
 6    1  0.6377696E-002  0.3000000E+03  0.7818608E-02  0.1093470E+00
         21   -1    0    0  501  502  0.00000000000E+00  0.00000000000E+00  0.23618787495E+01  0.23618787495E+01  0.00000000000E+00 0. -1.
         13   -1    0    0    0    0 -0.00000000000E+00 -0.00000000000E+00 -0.10000000000E+04  0.10000000000E+04  0.00000000000E+00 0.  1.
    9000005    2    1    2  501    0 -0.48276114507E+02 -0.43195141186E+01 -0.51985706568E+03  0.52212862449E+03  0.42059886781E+01 0.  0.
         13    1    3    3    0    0 -0.40042619261E+02 -0.30724198157E+01 -0.41326417927E+03  0.41521094998E+03  0.00000000000E+00 0.  1.
          1    1    3    3  501    0 -0.82334952467E+01 -0.12470943030E+01 -0.10659288641E+03  0.10691767451E+03  0.00000000000E+00 0.  1.
         -3    1    1    2    0  502  0.48276114507E+02  0.43195141186E+01 -0.47778105557E+03  0.48023325426E+03  0.00000000000E+00 0. -1.
<mgrwt>
<rscale>  1 0.30000000E+03</rscale>
<asrwt>0</asrwt>
<pdfrwt beam="1">  1       21 0.85886681E-02 0.30000000E+03</pdfrwt>
<pdfrwt beam="2">0</pdfrwt>
<totfact> 0.11272993E+04</totfact>
</mgrwt>
</event>
<event>
 6    1  0.6377696E-002  0.3000000E+03  0.7818608E-02  0.1093470E+00
         21   -1    0    0  501  502  0.00000000000E+00  0.00000000000E+00  0.10456099232E+01  0.10456099232E+01  0.00000000000E+00 0. -1.
         13   -1    0    0    0    0 -0.00000000000E+00 -0.00000000000E+00 -0.10000000000E+04  0.10000000000E+04  0.00000000000E+00 0.  1.
    9000005    2    1    2  501    0  0.30603470251E+02  0.36887170858E+01 -0.64184679812E+03  0.64261010491E+03  0.55005129637E+01 0.  0.
         13    1    3    3    0    0  0.26769383213E+02  0.37608412331E+01 -0.51905381910E+03  0.51975726154E+03  0.00000000000E+00 0.  1.
          1    1    3    3  501    0  0.38340870381E+01 -0.72124147307E-01 -0.12279297903E+03  0.12285284337E+03  0.00000000000E+00 0.  1.
         -3    1    1    2    0  502 -0.30603470251E+02 -0.36887170858E+01 -0.35710759195E+03  0.35843550501E+03  0.00000000000E+00 0. -1.
<mgrwt>
<rscale>  1 0.30000000E+03</rscale>
<asrwt>0</asrwt>
<pdfrwt beam="1">  1       21 0.38022259E-02 0.30000000E+03</pdfrwt>
<pdfrwt beam="2">0</pdfrwt>
<totfact> 0.45791005E+04</totfact>
</mgrwt>
</event>
<event>
 6    1  0.6377696E-002  0.3000000E+03  0.7818608E-02  0.1093470E+00
         21   -1    0    0  501  502  0.00000000000E+00  0.00000000000E+00  0.11473737222E+01  0.11473737222E+01  0.00000000000E+00 0. -1.
         13   -1    0    0    0    0 -0.00000000000E+00 -0.00000000000E+00 -0.10000000000E+04  0.10000000000E+04  0.00000000000E+00 0.  1.
    9000005    2    1    2  501    0  0.20285547176E+02 -0.26663569194E+02 -0.43564186782E+03  0.43694102159E+03  0.33421553011E+01 0.  0.
         13    1    3    3    0    0  0.12057156691E+02 -0.14431815014E+02 -0.26244409392E+03  0.26311699821E+03  0.00000000000E+00 0.  1.
          1    1    3    3  501    0  0.82283904850E+01 -0.12231754180E+02 -0.17319777390E+03  0.17382402338E+03  0.00000000000E+00 0.  1.
         -3    1    1    2    0  502 -0.20285547176E+02  0.26663569194E+02 -0.56321075846E+03  0.56420635214E+03  0.00000000000E+00 0. -1.
<mgrwt>
<rscale>  1 0.30000000E+03</rscale>
<asrwt>0</asrwt>
<pdfrwt beam="1">  1       21 0.41722769E-02 0.30000000E+03</pdfrwt>
<pdfrwt beam="2">0</pdfrwt>
<totfact> 0.39161886E+04</totfact>
</mgrwt>
</event>
<event>
 6    1  0.6377696E-002  0.3000000E+03  0.7818608E-02  0.1093470E+00
         21   -1    0    0  501  502  0.00000000000E+00  0.00000000000E+00  0.12049467576E+01  0.12049467576E+01  0.00000000000E+00 0. -1.
         13   -1    0    0    0    0 -0.00000000000E+00 -0.00000000000E+00 -0.10000000000E+04  0.10000000000E+04  0.00000000000E+00 0.  1.
    9000005    2    1    2  501    0 -0.86506730102E+01 -0.33127817685E+02 -0.57029792160E+03  0.57134208691E+03  0.44468470397E+01 0.  0.
         13    1    3    3    0    0 -0.76374845679E+01 -0.28129175597E+02 -0.50812930766E+03  0.50896461075E+03  0.00000000000E+00 0.  1.
          1    1    3    3  501    0 -0.10131884422E+01 -0.49986420888E+01 -0.62168613936E+02  0.62377476162E+02  0.00000000000E+00 0.  1.
         -1    1    1    2    0  502  0.86506730102E+01  0.33127817685E+02 -0.42849713164E+03  0.42986285985E+03  0.00000000000E+00 0. -1.
<mgrwt>
<rscale>  1 0.30000000E+03</rscale>
<asrwt>0</asrwt>
<pdfrwt beam="1">  1       21 0.43816338E-02 0.30000000E+03</pdfrwt>
<pdfrwt beam="2">0</pdfrwt>
<totfact> 0.36050906E+04</totfact>
</mgrwt>
</event>
<event>
 6    1  0.6377696E-002  0.3000000E+03  0.7818608E-02  0.1093470E+00
         21   -1    0    0  501  502  0.00000000000E+00  0.00000000000E+00  0.25982254963E+01  0.25982254963E+01  0.00000000000E+00 0. -1.
         13   -1    0    0    0    0 -0.00000000000E+00 -0.00000000000E+00 -0.10000000000E+04  0.10000000000E+04  0.00000000000E+00 0.  1.
    9000005    2    1    2  501    0  0.41245372435E+02  0.26970873055E+02 -0.62463880568E+03  0.62659178983E+03  0.38761801967E+01 0.  0.
         13    1    3    3    0    0  0.37588534862E+02  0.23719134645E+02 -0.57327286835E+03  0.57499328421E+03  0.00000000000E+00 0.  1.
          3    1    3    3  501    0  0.36568375731E+01  0.32517384106E+01 -0.51365937338E+02  0.51598505621E+02  0.00000000000E+00 0.  1.
         -3    1    1    2    0  502 -0.41245372435E+02 -0.26970873055E+02 -0.37276296882E+03  0.37600643567E+03  0.00000000000E+00 0. -1.
<mgrwt>
<rscale>  1 0.30000000E+03</rscale>
<asrwt>0</asrwt>
<pdfrwt beam="1">  1       21 0.94481126E-02 0.30000000E+03</pdfrwt>
<pdfrwt beam="2">0</pdfrwt>
<totfact> 0.95201243E+03</totfact>
</mgrwt>
</event>
<event>
 6    1  0.6377696E-002  0.3000000E+03  0.7818608E-02  0.1093470E+00
         21   -1    0    0  501  502  0.00000000000E+00  0.00000000000E+00  0.17715758798E+01  0.17715758798E+01  0.00000000000E+00 0. -1.
         13   -1    0    0    0    0 -0.00000000000E+00 -0.00000000000E+00 -0.10000000000E+04  0.10000000000E+04  0.00000000000E+00 0.  1.
    9000005    2    1    2  501    0 -0.41179601422E+02 -0.30056274469E+01 -0.59349170990E+03  0.59493426047E+03  0.30937347906E+01 0.  0.
         13    1    3    3    0    0 -0.35878009595E+02 -0.36186542887E+01 -0.52079745865E+03  0.52204436513E+03  0.00000000000E+00 0.  1.
          1    1    3    3  501    0 -0.53015918265E+01  0.61302684176E+00 -0.72694251252E+02  0.72889895342E+02  0.00000000000E+00 0.  1.
         -3    1    1    2    0  502  0.41179601422E+02  0.30056274469E+01 -0.40473671422E+03  0.40683731541E+03  0.00000000000E+00 0. -1.
<mgrwt>
<rscale>  1 0.30000000E+03</rscale>
<asrwt>0</asrwt>
<pdfrwt beam="1">  1       21 0.64421077E-02 0.30000000E+03</pdfrwt>
<pdfrwt beam="2">0</pdfrwt>
<totfact> 0.18636421E+04</totfact>
</mgrwt>
</event>
<event>
 6    1  0.6377696E-002  0.3000000E+03  0.7818608E-02  0.1093470E+00
         21   -1    0    0  501  502  0.00000000000E+00  0.00000000000E+00  0.11131652322E+01  0.11131652322E+01  0.00000000000E+00 0. -1.
         13   -1    0    0    0    0 -0.00000000000E+00 -0.00000000000E+00 -0.10000000000E+04  0.10000000000E+04  0.00000000000E+00 0.  1.
    9000005    2    1    2  501    0 -0.27963125056E+02  0.17310632829E+02 -0.44848368704E+03  0.44972834553E+03  0.60309914809E+01 0.  0.
         13    1    3    3    0    0  0.32070114943E+00  0.19821733561E+00 -0.54989468952E+01  0.55118559756E+01  0.00000000000E+00 0.  1.
          1    1    3    3  501    0 -0.28283826206E+02  0.17112415493E+02 -0.44298474014E+03  0.44421648955E+03  0.00000000000E+00 0.  1.
         -3    1    1    2    0  502  0.27963125056E+02 -0.17310632829E+02 -0.55040314773E+03  0.55138481971E+03  0.00000000000E+00 0. -1.
<mgrwt>
<rscale>  1 0.30000000E+03</rscale>
<asrwt>0</asrwt>
<pdfrwt beam="1">  1       21 0.40478821E-02 0.30000000E+03</pdfrwt>
<pdfrwt beam="2">0</pdfrwt>
<totfact> 0.41212869E+04</totfact>
</mgrwt>
</event>
<event>
 6    1  0.6377696E-002  0.3000000E+03  0.7818608E-02  0.1093470E+00
         21   -1    0    0  501  502  0.00000000000E+00  0.00000000000E+00  0.58864472787E+01  0.58864472787E+01  0.00000000000E+00 0. -1.
         13   -1    0    0    0    0 -0.00000000000E+00 -0.00000000000E+00 -0.10000000000E+04  0.10000000000E+04  0.00000000000E+00 0.  1.
    9000005    2    1    2  501    0  0.54000253484E+01  0.50533507480E+02 -0.12073449033E+03  0.13103001204E+03  0.30415865036E+01 0.  0.
         13    1    3    3    0    0  0.37014466440E+01  0.27382193982E+02 -0.62241861996E+02  0.68099446689E+02  0.00000000000E+00 0.  1.
          3    1    3    3  501    0  0.16985787043E+01  0.23151313498E+02 -0.58492628335E+02  0.62930565355E+02  0.00000000000E+00 0.  1.
         -3    1    1    2    0  502 -0.54000253484E+01 -0.50533507480E+02 -0.87337906239E+03  0.87485643524E+03  0.00000000000E+00 0. -1.
<mgrwt>
<rscale>  1 0.30000000E+03</rscale>
<asrwt>0</asrwt>
<pdfrwt beam="1">  1       21 0.21405308E-01 0.30000000E+03</pdfrwt>
<pdfrwt beam="2">0</pdfrwt>
<totfact> 0.21067233E+03</totfact>
</mgrwt>
</event>
<event>
 6    1  0.6377696E-002  0.3000000E+03  0.7818608E-02  0.1093470E+00
         21   -1    0    0  501  502  0.00000000000E+00  0.00000000000E+00  0.12728796110E+01  0.12728796110E+01  0.00000000000E+00 0. -1.
         13   -1    0    0    0    0 -0.00000000000E+00 -0.00000000000E+00 -0.10000000000E+04  0.10000000000E+04  0.00000000000E+00 0.  1.
    9000005    2    1    2  501    0  0.32799727583E+02  0.44948711273E+01 -0.68420248170E+03  0.68501068721E+03  0.32526358483E+01 0.  0.
         13    1    3    3    0    0  0.16520270646E+02  0.14714222635E+01 -0.37171415210E+03  0.37208398957E+03  0.00000000000E+00 0.  1.
          3    1    3    3  501    0  0.16279456937E+02  0.30234488637E+01 -0.31248832960E+03  0.31292669764E+03  0.00000000000E+00 0.  1.
         -3    1    1    2    0  502 -0.32799727583E+02 -0.44948711273E+01 -0.31452463869E+03  0.31626219240E+03  0.00000000000E+00 0. -1.
<mgrwt>
<rscale>  1 0.30000000E+03</rscale>
<asrwt>0</asrwt>
<pdfrwt beam="1">  1       21 0.46286629E-02 0.30000000E+03</pdfrwt>
<pdfrwt beam="2">0</pdfrwt>
<totfact> 0.32847259E+04</totfact>
</mgrwt>
</event>
<event>
 6    1  0.6377696E-002  0.3000000E+03  0.7818608E-02  0.1093470E+00
         21   -1    0    0  501  502  0.00000000000E+00  0.00000000000E+00  0.21521751878E+01  0.21521751878E+01  0.00000000000E+00 0. -1.
         13   -1    0    0    0    0 -0.00000000000E+00 -0.00000000000E+00 -0.10000000000E+04  0.10000000000E+04  0.00000000000E+00 0.  1.
    9000005    2    1    2  501    0  0.16040198616E+02 -0.43330223116E+02 -0.53621579879E+03  0.53821368394E+03  0.34337307767E+01 0.  0.
         13    1    3    3    0    0  0.68585299820E+01 -0.13877370563E+02 -0.17771348056E+03  0.17838638406E+03  0.00000000000E+00 0.  1.
          1    1    3    3  501    0  0.91816686337E+01 -0.29452852553E+02 -0.35850231823E+03  0.35982729988E+03  0.00000000000E+00 0.  1.
         -1    1    1    2    0  502 -0.16040198616E+02  0.43330223116E+02 -0.46163202603E+03  0.46393849125E+03  0.00000000000E+00 0. -1.
<mgrwt>
<rscale>  1 0.30000000E+03</rscale>
<asrwt>0</asrwt>
<pdfrwt beam="1">  1       21 0.78261081E-02 0.30000000E+03</pdfrwt>
<pdfrwt beam="2">0</pdfrwt>
<totfact> 0.13276274E+04</totfact>
</mgrwt>
</event>
<event>
 6    1  0.6377696E-002  0.3000000E+03  0.7818608E-02  0.1093470E+00
         21   -1    0    0  501  502  0.00000000000E+00  0.00000000000E+00  0.11286547871E+01  0.11286547871E+01  0.00000000000E+00 0. -1.
         13   -1    0    0    0    0 -0.00000000000E+00 -0.00000000000E+00 -0.10000000000E+04  0.10000000000E+04  0.00000000000E+00 0.  1.
    9000005    2    1    2  501    0  0.28989248258E+02  0.16733109037E+02 -0.47396651934E+03  0.47515769582E+03  0.31938986558E+01 0.  0.
         13    1    3    3    0    0  0.28969014760E+02  0.16636636566E+02 -0.46817138465E+03  0.46936172288E+03  0.00000000000E+00 0.  1.
          3    1    3    3  501    0  0.20233498735E-01  0.96472470465E-01 -0.57951346832E+01  0.57959729407E+01  0.00000000000E+00 0.  1.
         -3    1    1    2    0  502 -0.28989248258E+02 -0.16733109037E+02 -0.52490482588E+03  0.52597095897E+03  0.00000000000E+00 0. -1.
<mgrwt>
<rscale>  1 0.30000000E+03</rscale>
<asrwt>0</asrwt>
<pdfrwt beam="1">  1       21 0.41042079E-02 0.30000000E+03</pdfrwt>
<pdfrwt beam="2">0</pdfrwt>
<totfact> 0.40263928E+04</totfact>
</mgrwt>
</event>
<event>
 6    1  0.6377696E-002  0.3000000E+03  0.7818608E-02  0.1093470E+00
         21   -1    0    0  501  502  0.00000000000E+00  0.00000000000E+00  0.14488021817E+01  0.14488021817E+01  0.00000000000E+00 0. -1.
         13   -1    0    0    0    0 -0.00000000000E+00 -0.00000000000E+00 -0.10000000000E+04  0.10000000000E+04  0.00000000000E+00 0.  1.
    9000005    2    1    2  501    0  0.27980047022E+02 -0.18655044932E+02 -0.73279778404E+03  0.73357612595E+03  0.32321119745E+01 0.  0.
         13    1    3    3    0    0  0.27245589785E+02 -0.17751029055E+02 -0.71597476400E+03  0.71671283223E+03  0.00000000000E+00 0.  1.
          1    1    3    3  501    0  0.73445723758E+00 -0.90401587644E+00 -0.16823020035E+02  0.16863293725E+02  0.00000000000E+00 0.  1.
         -3    1    1    2    0  502 -0.27980047022E+02  0.18655044932E+02 -0.26575341378E+03  0.26787267623E+03  0.00000000000E+00 0. -1.
<mgrwt>
<rscale>  1 0.30000000E+03</rscale>
<asrwt>0</asrwt>
<pdfrwt beam="1">  1       21 0.52683827E-02 0.30000000E+03</pdfrwt>
<pdfrwt beam="2">0</pdfrwt>
<totfact> 0.26345042E+04</totfact>
</mgrwt>
</event>
<event>
 6    1  0.6377696E-002  0.3000000E+03  0.7818608E-02  0.1093470E+00
         21   -1    0    0  501  502  0.00000000000E+00  0.00000000000E+00  0.10458686111E+01  0.10458686111E+01  0.00000000000E+00 0. -1.
         13   -1    0    0    0    0 -0.00000000000E+00 -0.00000000000E+00 -0.10000000000E+04  0.10000000000E+04  0.00000000000E+00 0.  1.
    9000005    2    1    2  501    0  0.32135374481E+02 -0.23283546297E+01 -0.46865995090E+03  0.46977379012E+03  0.26759622427E+01 0.  0.
         13    1    3    3    0    0  0.31948093744E+02 -0.25163591324E+01 -0.46599601503E+03  0.46709666963E+03  0.00000000000E+00 0.  1.
          1    1    3    3  501    0  0.18728073685E+00  0.18800450274E+00 -0.26639358736E+01  0.26771204878E+01  0.00000000000E+00 0.  1.
         -3    1    1    2    0  502 -0.32135374481E+02  0.23283546297E+01 -0.53029418049E+03  0.53127207849E+03  0.00000000000E+00 0. -1.
<mgrwt>
<rscale>  1 0.30000000E+03</rscale>
<asrwt>0</asrwt>
<pdfrwt beam="1">  1       21 0.38031666E-02 0.30000000E+03</pdfrwt>
<pdfrwt beam="2">0</pdfrwt>
<totfact> 0.45771977E+04</totfact>
</mgrwt>
</event>
<event>
 6    1  0.6377696E-002  0.3000000E+03  0.7818608E-02  0.1093470E+00
         21   -1    0    0  501  502  0.00000000000E+00  0.00000000000E+00  0.31865922000E+01  0.31865922000E+01  0.00000000000E+00 0. -1.
         13   -1    0    0    0    0 -0.00000000000E+00 -0.00000000000E+00 -0.10000000000E+04  0.10000000000E+04  0.00000000000E+00 0.  1.
    9000005    2    1    2  501    0 -0.55973667109E+02 -0.56828088550E+01 -0.52971367581E+03  0.53271076354E+03  0.43397612205E+01 0.  0.
         13    1    3    3    0    0 -0.25388854726E+02 -0.47494211212E+01 -0.24173591166E+03  0.24311191236E+03  0.00000000000E+00 0.  1.
          3    1    3    3  501    0 -0.30584812383E+02 -0.93338773382E+00 -0.28797776415E+03  0.28959885118E+03  0.00000000000E+00 0.  1.
         -1    1    1    2    0  502  0.55973667109E+02  0.56828088550E+01 -0.46709973199E+03  0.47047582866E+03  0.00000000000E+00 0. -1.
<mgrwt>
<rscale>  1 0.30000000E+03</rscale>
<asrwt>0</asrwt>
<pdfrwt beam="1">  1       21 0.11587632E-01 0.30000000E+03</pdfrwt>
<pdfrwt beam="2">0</pdfrwt>
<totfact> 0.66023480E+03</totfact>
</mgrwt>
</event>
<event>
 6    1  0.6377696E-002  0.3000000E+03  0.7818608E-02  0.1093470E+00
         21   -1    0    0  501  502  0.00000000000E+00  0.00000000000E+00  0.19147283863E+01  0.19147283863E+01  0.00000000000E+00 0. -1.
         13   -1    0    0    0    0 -0.00000000000E+00 -0.00000000000E+00 -0.10000000000E+04  0.10000000000E+04  0.00000000000E+00 0.  1.
    9000005    2    1    2  501    0  0.35328176529E+02 -0.25709521963E+02 -0.49513533323E+03  0.49707049489E+03  0.33195028049E+01 0.  0.
         13    1    3    3    0    0  0.10224657442E+02 -0.56773860546E+01 -0.12827698097E+03  0.12880900659E+03  0.00000000000E+00 0.  1.
          1    1    3    3  501    0  0.25103519086E+02 -0.20032135909E+02 -0.36685835226E+03  0.36826148830E+03  0.00000000000E+00 0.  1.
         -1    1    1    2    0  502 -0.35328176529E+02  0.25709521963E+02 -0.50294993839E+03  0.50484423350E+03  0.00000000000E+00 0. -1.
<mgrwt>
<rscale>  1 0.30000000E+03</rscale>
<asrwt>0</asrwt>
<pdfrwt beam="1">  1       21 0.69626634E-02 0.30000000E+03</pdfrwt>
<pdfrwt beam="2">0</pdfrwt>
<totfact> 0.16286133E+04</totfact>
</mgrwt>
</event>
<event>
 6    1  0.6377696E-002  0.3000000E+03  0.7818608E-02  0.1093470E+00
         21   -1    0    0  501  502  0.00000000000E+00  0.00000000000E+00  0.12151725248E+01  0.12151725248E+01  0.00000000000E+00 0. -1.
         13   -1    0    0    0    0 -0.00000000000E+00 -0.00000000000E+00 -0.10000000000E+04  0.10000000000E+04  0.00000000000E+00 0.  1.
    9000005    2    1    2  501    0 -0.29880088170E+02  0.17482979326E+02 -0.54837234819E+03  0.54947423378E+03  0.33506868170E+01 0.  0.
         13    1    3    3    0    0 -0.58443424502E+01  0.24186926675E+01 -0.85651284063E+02  0.85884508932E+02  0.00000000000E+00 0.  1.
          1    1    3    3  501    0 -0.24035745719E+02  0.15064286659E+02 -0.46272106412E+03  0.46358972485E+03  0.00000000000E+00 0.  1.
         -3    1    1    2    0  502  0.29880088170E+02 -0.17482979326E+02 -0.45041247929E+03  0.45174093874E+03  0.00000000000E+00 0. -1.
<mgrwt>
<rscale>  1 0.30000000E+03</rscale>
<asrwt>0</asrwt>
<pdfrwt beam="1">  1       21 0.44188185E-02 0.30000000E+03</pdfrwt>
<pdfrwt beam="2">0</pdfrwt>
<totfact> 0.35538506E+04</totfact>
</mgrwt>
</event>
<event>
 6    1  0.6377696E-002  0.3000000E+03  0.7818608E-02  0.1093470E+00
         21   -1    0    0  501  502  0.00000000000E+00  0.00000000000E+00  0.11476231254E+01  0.11476231254E+01  0.00000000000E+00 0. -1.
         13   -1    0    0    0    0 -0.00000000000E+00 -0.00000000000E+00 -0.10000000000E+04  0.10000000000E+04  0.00000000000E+00 0.  1.
    9000005    2    1    2  501    0 -0.25069487679E+02  0.21688859712E+02 -0.59692016990E+03  0.59785072895E+03  0.35943044577E+01 0.  0.
         13    1    3    3    0    0  0.93675814787E-01  0.30523358045E+00 -0.64869624835E+01  0.64948152367E+01  0.00000000000E+00 0.  1.
          3    1    3    3  501    0 -0.25163163494E+02  0.21383626132E+02 -0.59043320742E+03  0.59135591371E+03  0.00000000000E+00 0.  1.
         -1    1    1    2    0  502  0.25069487679E+02 -0.21688859712E+02 -0.40193220697E+03  0.40329689418E+03  0.00000000000E+00 0. -1.
<mgrwt>
<rscale>  1 0.30000000E+03</rscale>
<asrwt>0</asrwt>
<pdfrwt beam="1">  1       21 0.41731838E-02 0.30000000E+03</pdfrwt>
<pdfrwt beam="2">0</pdfrwt>
<totfact> 0.39147521E+04</totfact>
</mgrwt>
</event>
<event>
 6    1  0.6377696E-002  0.3000000E+03  0.7818608E-02  0.1093470E+00
         21   -1    0    0  501  502  0.00000000000E+00  0.00000000000E+00  0.11549076116E+01  0.11549076116E+01  0.00000000000E+00 0. -1.
         13   -1    0    0    0    0 -0.00000000000E+00 -0.00000000000E+00 -0.10000000000E+04  0.10000000000E+04  0.00000000000E+00 0.  1.
    9000005    2    1    2  501    0 -0.22641952244E+02  0.25118377921E+02 -0.46637177803E+03  0.46760882581E+03  0.34333240512E+01 0.  0.
         13    1    3    3    0    0 -0.91180184354E+01  0.99993532169E+01 -0.21021813470E+03  0.21065324465E+03  0.00000000000E+00 0.  1.
          1    1    3    3  501    0 -0.13523933809E+02  0.15119024704E+02 -0.25615364333E+03  0.25695558116E+03  0.00000000000E+00 0.  1.
         -1    1    1    2    0  502  0.22641952244E+02 -0.25118377921E+02 -0.53247331435E+03  0.53354608181E+03  0.00000000000E+00 0. -1.
<mgrwt>
<rscale>  1 0.30000000E+03</rscale>
<asrwt>0</asrwt>
<pdfrwt beam="1">  1       21 0.41996729E-02 0.30000000E+03</pdfrwt>
<pdfrwt beam="2">0</pdfrwt>
<totfact> 0.38731552E+04</totfact>
</mgrwt>
</event>
<event>
 6    1  0.6377696E-002  0.3000000E+03  0.7818608E-02  0.1093470E+00
         21   -1    0    0  501  502  0.00000000000E+00  0.00000000000E+00  0.22308176615E+01  0.22308176615E+01  0.00000000000E+00 0. -1.
         13   -1    0    0    0    0 -0.00000000000E+00 -0.00000000000E+00 -0.10000000000E+04  0.10000000000E+04  0.00000000000E+00 0.  1.
    9000005    2    1    2  501    0  0.20683401090E+02 -0.40641101977E+02 -0.37282931546E+03  0.37562939773E+03  0.40303497762E+01 0.  0.
         13    1    3    3    0    0  0.16612063944E+02 -0.34939518378E+02 -0.32347459616E+03  0.32577990266E+03  0.00000000000E+00 0.  1.
          1    1    3    3  501    0  0.40713371461E+01 -0.57015835997E+01 -0.49354719300E+02  0.49849495071E+02  0.00000000000E+00 0.  1.
         -3    1    1    2    0  502 -0.20683401090E+02  0.40641101977E+02 -0.62493986687E+03  0.62660141993E+03  0.00000000000E+00 0. -1.
<mgrwt>
<rscale>  1 0.30000000E+03</rscale>
<asrwt>0</asrwt>
<pdfrwt beam="1">  1       21 0.81120813E-02 0.30000000E+03</pdfrwt>
<pdfrwt beam="2">0</pdfrwt>
<totfact> 0.12465368E+04</totfact>
</mgrwt>
</event>
<event>
 6    1  0.6377696E-002  0.3000000E+03  0.7818608E-02  0.1093470E+00
         21   -1    0    0  501  502  0.00000000000E+00  0.00000000000E+00  0.10949436300E+01  0.10949436300E+01  0.00000000000E+00 0. -1.
         13   -1    0    0    0    0 -0.00000000000E+00 -0.00000000000E+00 -0.10000000000E+04  0.10000000000E+04  0.00000000000E+00 0.  1.
    9000005    2    1    2  501    0 -0.25304532315E+02  0.19293556957E+02 -0.36787050691E+03  0.36925860144E+03  0.32625434760E+01 0.  0.
         13    1    3    3    0    0 -0.13917960114E+02  0.12630923347E+02 -0.21640456270E+03  0.21721920862E+03  0.00000000000E+00 0.  1.
          3    1    3    3  501    0 -0.11386572202E+02  0.66626336095E+01 -0.15146594421E+03  0.15203939282E+03  0.00000000000E+00 0.  1.
         -1    1    1    2    0  502  0.25304532315E+02 -0.19293556957E+02 -0.63103454946E+03  0.63183634219E+03  0.00000000000E+00 0. -1.
<mgrwt>
<rscale>  1 0.30000000E+03</rscale>
<asrwt>0</asrwt>
<pdfrwt beam="1">  1       21 0.39816216E-02 0.30000000E+03</pdfrwt>
<pdfrwt beam="2">0</pdfrwt>
<totfact> 0.42374642E+04</totfact>
</mgrwt>
</event>
<event>
 6    1  0.6377696E-002  0.3000000E+03  0.7818608E-02  0.1093470E+00
         21   -1    0    0  501  502  0.00000000000E+00  0.00000000000E+00  0.15009024709E+02  0.15009024709E+02  0.00000000000E+00 0. -1.
         13   -1    0    0    0    0 -0.00000000000E+00 -0.00000000000E+00 -0.10000000000E+04  0.10000000000E+04  0.00000000000E+00 0.  1.
    9000005    2    1    2  501    0 -0.99930598217E+02  0.49420525734E+02 -0.70278085289E+03  0.71157688071E+03  0.34953046650E+01 0.  0.
         13    1    3    3    0    0 -0.71376610661E+02  0.33525428903E+02 -0.49717529450E+03  0.50339035390E+03  0.00000000000E+00 0.  1.
          1    1    3    3  501    0 -0.28553987556E+02  0.15895096831E+02 -0.20560555839E+03  0.20818652682E+03  0.00000000000E+00 0.  1.
         -1    1    1    2    0  502  0.99930598217E+02 -0.49420525734E+02 -0.28221012240E+03  0.30343214400E+03  0.00000000000E+00 0. -1.
<mgrwt>
<rscale>  1 0.30000000E+03</rscale>
<asrwt>0</asrwt>
<pdfrwt beam="1">  1       21 0.54578387E-01 0.30000000E+03</pdfrwt>
<pdfrwt beam="2">0</pdfrwt>
<totfact> 0.31012656E+02</totfact>
</mgrwt>
</event>
<event>
 6    1  0.6377696E-002  0.3000000E+03  0.7818608E-02  0.1093470E+00
         21   -1    0    0  501  502  0.00000000000E+00  0.00000000000E+00  0.16892114270E+01  0.16892114270E+01  0.00000000000E+00 0. -1.
         13   -1    0    0    0    0 -0.00000000000E+00 -0.00000000000E+00 -0.10000000000E+04  0.10000000000E+04  0.00000000000E+00 0.  1.
    9000005    2    1    2  501    0 -0.21314349686E+01  0.38683435957E+02 -0.66451333310E+03  0.66565098069E+03  0.35081336259E+01 0.  0.
         13    1    3    3    0    0 -0.79031796210E+00  0.27485931126E+02 -0.49465337220E+03  0.49541705627E+03  0.00000000000E+00 0.  1.
          3    1    3    3  501    0 -0.13411170065E+01  0.11197504831E+02 -0.16985996089E+03  0.17023392442E+03  0.00000000000E+00 0.  1.
         -1    1    1    2    0  502  0.21314349686E+01 -0.38683435957E+02 -0.33379745548E+03  0.33603823073E+03  0.00000000000E+00 0. -1.
<mgrwt>
<rscale>  1 0.30000000E+03</rscale>
<asrwt>0</asrwt>
<pdfrwt beam="1">  1       21 0.61426000E-02 0.30000000E+03</pdfrwt>
<pdfrwt beam="2">0</pdfrwt>
<totfact> 0.20234725E+04</totfact>
</mgrwt>
</event>
<event>
 6    1  0.6377696E-002  0.3000000E+03  0.7818608E-02  0.1093470E+00
         21   -1    0    0  501  502  0.00000000000E+00  0.00000000000E+00  0.35680864219E+01  0.35680864219E+01  0.00000000000E+00 0. -1.
         13   -1    0    0    0    0 -0.00000000000E+00 -0.00000000000E+00 -0.10000000000E+04  0.10000000000E+04  0.00000000000E+00 0.  1.
    9000005    2    1    2  501    0  0.15316228537E+02 -0.56323200744E+02 -0.39763866353E+03  0.40193676568E+03  0.54559206377E+01 0.  0.
         13    1    3    3    0    0  0.21571746392E+01 -0.17452597599E+02 -0.11927088144E+03  0.12056031571E+03  0.00000000000E+00 0.  1.
          1    1    3    3  501    0  0.13159053898E+02 -0.38870603145E+02 -0.27836778209E+03  0.28137644997E+03  0.00000000000E+00 0.  1.
         -1    1    1    2    0  502 -0.15316228537E+02  0.56323200744E+02 -0.59879325004E+03  0.60163132074E+03  0.00000000000E+00 0. -1.
<mgrwt>
<rscale>  1 0.30000000E+03</rscale>
<asrwt>0</asrwt>
<pdfrwt beam="1">  1       21 0.12974887E-01 0.30000000E+03</pdfrwt>
<pdfrwt beam="2">0</pdfrwt>
<totfact> 0.53754708E+03</totfact>
</mgrwt>
</event>
<event>
 6    1  0.6377696E-002  0.3000000E+03  0.7818608E-02  0.1093470E+00
         21   -1    0    0  501  502  0.00000000000E+00  0.00000000000E+00  0.15915399577E+01  0.15915399577E+01  0.00000000000E+00 0. -1.
         13   -1    0    0    0    0 -0.00000000000E+00 -0.00000000000E+00 -0.10000000000E+04  0.10000000000E+04  0.00000000000E+00 0.  1.
    9000005    2    1    2  501    0 -0.20851085927E+02 -0.32588429184E+02 -0.62126811932E+03  0.62247202042E+03  0.75273527345E+00 0.  0.
         13    1    3    3    0    0 -0.54646316750E+01 -0.85378079189E+01 -0.16816243142E+03  0.16846768148E+03  0.00000000000E+00 0.  1.
          3    1    3    3  501    0 -0.15386454252E+02 -0.24050621265E+02 -0.45310568791E+03  0.45400433893E+03  0.00000000000E+00 0.  1.
         -3    1    1    2    0  502  0.20851085927E+02  0.32588429184E+02 -0.37714034072E+03  0.37911951954E+03  0.00000000000E+00 0. -1.
<mgrwt>
<rscale>  1 0.30000000E+03</rscale>
<asrwt>0</asrwt>
<pdfrwt beam="1">  1       21 0.57874302E-02 0.30000000E+03</pdfrwt>
<pdfrwt beam="2">0</pdfrwt>
<totfact> 0.22423188E+04</totfact>
</mgrwt>
</event>
<event>
 6    1  0.6377696E-002  0.3000000E+03  0.7818608E-02  0.1093470E+00
         21   -1    0    0  501  502  0.00000000000E+00  0.00000000000E+00  0.14616713557E+01  0.14616713557E+01  0.00000000000E+00 0. -1.
         13   -1    0    0    0    0 -0.00000000000E+00 -0.00000000000E+00 -0.10000000000E+04  0.10000000000E+04  0.00000000000E+00 0.  1.
    9000005    2    1    2  501    0 -0.32518402820E+02 -0.16407168808E+02 -0.63583931305E+03  0.63693839689E+03  0.84998652607E+01 0.  0.
         13    1    3    3    0    0 -0.32767814494E+02 -0.15178202943E+02 -0.61895394912E+03  0.62000653113E+03  0.00000000000E+00 0.  1.
          1    1    3    3  501    0  0.24941167471E+00 -0.12289658655E+01 -0.16885363928E+02  0.16931865764E+02  0.00000000000E+00 0.  1.
         -3    1    1    2    0  502  0.32518402820E+02  0.16407168808E+02 -0.36269901560E+03  0.36452327446E+03  0.00000000000E+00 0. -1.
<mgrwt>
<rscale>  1 0.30000000E+03</rscale>
<asrwt>0</asrwt>
<pdfrwt beam="1">  1       21 0.53151798E-02 0.30000000E+03</pdfrwt>
<pdfrwt beam="2">0</pdfrwt>
<totfact> 0.25949608E+04</totfact>
</mgrwt>
</event>
<event>
 6    1  0.6377696E-002  0.3000000E+03  0.7818608E-02  0.1093470E+00
         21   -1    0    0  501  502  0.00000000000E+00  0.00000000000E+00  0.13288499926E+01  0.13288499926E+01  0.00000000000E+00 0. -1.
         13   -1    0    0    0    0 -0.00000000000E+00 -0.00000000000E+00 -0.10000000000E+04  0.10000000000E+04  0.00000000000E+00 0.  1.
    9000005    2    1    2  501    0 -0.94412201040E+01 -0.31451579794E+02 -0.28646626425E+03  0.28836732382E+03  0.38018921602E+01 0.  0.
         13    1    3    3    0    0 -0.31252299961E+01 -0.83473803988E+01 -0.64624514033E+02  0.65236290790E+02  0.00000000000E+00 0.  1.
          1    1    3    3  501    0 -0.63159901079E+01 -0.23104199395E+02 -0.22184175022E+03  0.22313103303E+03  0.00000000000E+00 0.  1.
         -3    1    1    2    0  502  0.94412201040E+01  0.31451579794E+02 -0.71220488575E+03  0.71296152617E+03  0.00000000000E+00 0. -1.
<mgrwt>
<rscale>  1 0.30000000E+03</rscale>
<asrwt>0</asrwt>
<pdfrwt beam="1">  1       21 0.48321920E-02 0.30000000E+03</pdfrwt>
<pdfrwt beam="2">0</pdfrwt>
<totfact> 0.30529272E+04</totfact>
</mgrwt>
</event>
<event>
 6    1  0.6377696E-002  0.3000000E+03  0.7818608E-02  0.1093470E+00
         21   -1    0    0  501  502  0.00000000000E+00  0.00000000000E+00  0.36451505539E+01  0.36451505539E+01  0.00000000000E+00 0. -1.
         13   -1    0    0    0    0 -0.00000000000E+00 -0.00000000000E+00 -0.10000000000E+04  0.10000000000E+04  0.00000000000E+00 0.  1.
    9000005    2    1    2  501    0 -0.33011671761E+01  0.59700110766E+02 -0.56574493578E+03  0.56890396470E+03  0.30639452107E+01 0.  0.
         13    1    3    3    0    0 -0.26111541406E+01  0.40687926686E+02 -0.39861879289E+03  0.40069847460E+03  0.00000000000E+00 0.  1.
          3    1    3    3  501    0 -0.69001303552E+00  0.19012184080E+02 -0.16712614289E+03  0.16820549010E+03  0.00000000000E+00 0.  1.
         -1    1    1    2    0  502  0.33011671761E+01 -0.59700110766E+02 -0.43060991367E+03  0.43474118586E+03  0.00000000000E+00 0. -1.
<mgrwt>
<rscale>  1 0.30000000E+03</rscale>
<asrwt>0</asrwt>
<pdfrwt beam="1">  1       21 0.13255121E-01 0.30000000E+03</pdfrwt>
<pdfrwt beam="2">0</pdfrwt>
<totfact> 0.51696221E+03</totfact>
</mgrwt>
</event>
<event>
 6    1  0.6377696E-002  0.3000000E+03  0.7818608E-02  0.1093470E+00
         21   -1    0    0  501  502  0.00000000000E+00  0.00000000000E+00  0.10476406289E+01  0.10476406289E+01  0.00000000000E+00 0. -1.
         13   -1    0    0    0    0 -0.00000000000E+00 -0.00000000000E+00 -0.10000000000E+04  0.10000000000E+04  0.00000000000E+00 0.  1.
    9000005    2    1    2  501    0  0.10069088187E+02 -0.28880603038E+02 -0.35713147025E+03  0.35849839779E+03  0.65374614137E+01 0.  0.
         13    1    3    3    0    0  0.15849419510E+01 -0.41900765130E+01 -0.30777172091E+02  0.31101496814E+02  0.00000000000E+00 0.  1.
          1    1    3    3  501    0  0.84841462357E+01 -0.24690526525E+02 -0.32635429816E+03  0.32739690097E+03  0.00000000000E+00 0.  1.
         -1    1    1    2    0  502 -0.10069088187E+02  0.28880603038E+02 -0.64182088912E+03  0.64254924284E+03  0.00000000000E+00 0. -1.
<mgrwt>
<rscale>  1 0.30000000E+03</rscale>
<asrwt>0</asrwt>
<pdfrwt beam="1">  1       21 0.38096103E-02 0.30000000E+03</pdfrwt>
<pdfrwt beam="2">0</pdfrwt>
<totfact> 0.45641966E+04</totfact>
</mgrwt>
</event>
<event>
 6    1  0.6377696E-002  0.3000000E+03  0.7818608E-02  0.1093470E+00
         21   -1    0    0  501  502  0.00000000000E+00  0.00000000000E+00  0.18374982108E+01  0.18374982108E+01  0.00000000000E+00 0. -1.
         13   -1    0    0    0    0 -0.00000000000E+00 -0.00000000000E+00 -0.10000000000E+04  0.10000000000E+04  0.00000000000E+00 0.  1.
    9000005    2    1    2  501    0  0.21753493790E+02  0.36796295857E+02 -0.52750049374E+03  0.52923839992E+03  0.30546975200E+01 0.  0.
         13    1    3    3    0    0  0.11698091922E+02  0.22661536356E+02 -0.31801128199E+03  0.31903223357E+03  0.00000000000E+00 0.  1.
          3    1    3    3  501    0  0.10055401868E+02  0.14134759501E+02 -0.20948921176E+03  0.21020616636E+03  0.00000000000E+00 0.  1.
         -1    1    1    2    0  502 -0.21753493790E+02 -0.36796295857E+02 -0.47066200805E+03  0.47259909829E+03  0.00000000000E+00 0. -1.
<mgrwt>
<rscale>  1 0.30000000E+03</rscale>
<asrwt>0</asrwt>
<pdfrwt beam="1">  1       21 0.66818258E-02 0.30000000E+03</pdfrwt>
<pdfrwt beam="2">0</pdfrwt>
<totfact> 0.17493406E+04</totfact>
</mgrwt>
</event>
<event>
 6    1  0.6377696E-002  0.3000000E+03  0.7818608E-02  0.1093470E+00
         21   -1    0    0  501  502  0.00000000000E+00  0.00000000000E+00  0.25216489613E+01  0.25216489613E+01  0.00000000000E+00 0. -1.
         13   -1    0    0    0    0 -0.00000000000E+00 -0.00000000000E+00 -0.10000000000E+04  0.10000000000E+04  0.00000000000E+00 0.  1.
    9000005    2    1    2  501    0  0.24195655359E+02 -0.24550929450E+02 -0.13552240885E+03  0.13987674858E+03  0.33171702354E+01 0.  0.
         13    1    3    3    0    0  0.17008328652E+02 -0.16035139705E+02 -0.96839586033E+02  0.99620853098E+02  0.00000000000E+00 0.  1.
          1    1    3    3  501    0  0.71873267066E+01 -0.85157897454E+01 -0.38682822816E+02  0.40255895484E+02  0.00000000000E+00 0.  1.
         -1    1    1    2    0  502 -0.24195655359E+02  0.24550929450E+02 -0.86195594219E+03  0.86264490038E+03  0.00000000000E+00 0. -1.
<mgrwt>
<rscale>  1 0.30000000E+03</rscale>
<asrwt>0</asrwt>
<pdfrwt beam="1">  1       21 0.91696519E-02 0.30000000E+03</pdfrwt>
<pdfrwt beam="2">0</pdfrwt>
<totfact> 0.10040055E+04</totfact>
</mgrwt>
</event>
<event>
 6    1  0.6377696E-002  0.3000000E+03  0.7818608E-02  0.1093470E+00
         21   -1    0    0  501  502  0.00000000000E+00  0.00000000000E+00  0.10801573548E+01  0.10801573548E+01  0.00000000000E+00 0. -1.
         13   -1    0    0    0    0 -0.00000000000E+00 -0.00000000000E+00 -0.10000000000E+04  0.10000000000E+04  0.00000000000E+00 0.  1.
    9000005    2    1    2  501    0  0.24519203706E+01  0.32155532840E+02 -0.58600246933E+03  0.58690537856E+03  0.43633833071E+01 0.  0.
         13    1    3    3    0    0 -0.12043745659E+01  0.95141634248E+01 -0.16403023369E+03  0.16431033865E+03  0.00000000000E+00 0.  1.
          3    1    3    3  501    0  0.36562949365E+01  0.22641369415E+02 -0.42197223564E+03  0.42259503991E+03  0.00000000000E+00 0.  1.
         -3    1    1    2    0  502 -0.24519203706E+01 -0.32155532840E+02 -0.41291737331E+03  0.41417477879E+03  0.00000000000E+00 0. -1.
<mgrwt>
<rscale>  1 0.30000000E+03</rscale>
<asrwt>0</asrwt>
<pdfrwt beam="1">  1       21 0.39278532E-02 0.30000000E+03</pdfrwt>
<pdfrwt beam="2">0</pdfrwt>
<totfact> 0.43355504E+04</totfact>
</mgrwt>
</event>
<event>
 6    1  0.6377696E-002  0.3000000E+03  0.7818608E-02  0.1093470E+00
         21   -1    0    0  501  502  0.00000000000E+00  0.00000000000E+00  0.14206369143E+01  0.14206369143E+01  0.00000000000E+00 0. -1.
         13   -1    0    0    0    0 -0.00000000000E+00 -0.00000000000E+00 -0.10000000000E+04  0.10000000000E+04  0.00000000000E+00 0.  1.
    9000005    2    1    2  501    0  0.23367818428E+02  0.29032732189E+02 -0.43773247415E+03  0.43933684663E+03  0.42651378579E+01 0.  0.
         13    1    3    3    0    0  0.78277103921E-01  0.12432608230E+01 -0.12997162709E+02  0.13056724829E+02  0.00000000000E+00 0.  1.
          3    1    3    3  501    0  0.23289541324E+02  0.27789471366E+02 -0.42473531144E+03  0.42628012180E+03  0.00000000000E+00 0.  1.
         -1    1    1    2    0  502 -0.23367818428E+02 -0.29032732189E+02 -0.56084688893E+03  0.56208379029E+03  0.00000000000E+00 0. -1.
<mgrwt>
<rscale>  1 0.30000000E+03</rscale>
<asrwt>0</asrwt>
<pdfrwt beam="1">  1       21 0.51659633E-02 0.30000000E+03</pdfrwt>
<pdfrwt beam="2">0</pdfrwt>
<totfact> 0.27243756E+04</totfact>
</mgrwt>
</event>
<event>
 6    1  0.6377696E-002  0.3000000E+03  0.7818608E-02  0.1093470E+00
         21   -1    0    0  501  502  0.00000000000E+00  0.00000000000E+00  0.11062594393E+01  0.11062594393E+01  0.00000000000E+00 0. -1.
         13   -1    0    0    0    0 -0.00000000000E+00 -0.00000000000E+00 -0.10000000000E+04  0.10000000000E+04  0.00000000000E+00 0.  1.
    9000005    2    1    2  501    0  0.32366620826E+02 -0.14562601449E+01 -0.60849721414E+03  0.60936761356E+03  0.32109184226E+01 0.  0.
         13    1    3    3    0    0  0.30226018868E+02 -0.15636075403E+01 -0.58049490292E+03  0.58128339852E+03  0.00000000000E+00 0.  1.
          3    1    3    3  501    0  0.21406019582E+01  0.10734739540E+00 -0.28002311226E+02  0.28084215037E+02  0.00000000000E+00 0.  1.
         -3    1    1    2    0  502 -0.32366620826E+02  0.14562601449E+01 -0.39039652642E+03  0.39173864588E+03  0.00000000000E+00 0. -1.
<mgrwt>
<rscale>  1 0.30000000E+03</rscale>
<asrwt>0</asrwt>
<pdfrwt beam="1">  1       21 0.40227701E-02 0.30000000E+03</pdfrwt>
<pdfrwt beam="2">0</pdfrwt>
<totfact> 0.41647242E+04</totfact>
</mgrwt>
</event>
<event>
 6    1  0.6377696E-002  0.3000000E+03  0.7818608E-02  0.1093470E+00
         21   -1    0    0  501  502  0.00000000000E+00  0.00000000000E+00  0.11968838062E+01  0.11968838062E+01  0.00000000000E+00 0. -1.
         13   -1    0    0    0    0 -0.00000000000E+00 -0.00000000000E+00 -0.10000000000E+04  0.10000000000E+04  0.00000000000E+00 0.  1.
    9000005    2    1    2  501    0 -0.28368464157E+02 -0.19553862601E+02 -0.53026110716E+03  0.53138975580E+03  0.33327909398E+01 0.  0.
         13    1    3    3    0    0 -0.15622297841E+02 -0.99609354473E+01 -0.26139541222E+03  0.26205121246E+03  0.00000000000E+00 0.  1.
          1    1    3    3  501    0 -0.12746166316E+02 -0.95929271535E+01 -0.26886569494E+03  0.26933854333E+03  0.00000000000E+00 0.  1.
         -1    1    1    2    0  502  0.28368464157E+02  0.19553862601E+02 -0.46854200903E+03  0.46980712801E+03  0.00000000000E+00 0. -1.
<mgrwt>
<rscale>  1 0.30000000E+03</rscale>
<asrwt>0</asrwt>
<pdfrwt beam="1">  1       21 0.43523139E-02 0.30000000E+03</pdfrwt>
<pdfrwt beam="2">0</pdfrwt>
<totfact> 0.36463038E+04</totfact>
</mgrwt>
</event>
<event>
 6    1  0.6377696E-002  0.3000000E+03  0.7818608E-02  0.1093470E+00
         21   -1    0    0  501  502  0.00000000000E+00  0.00000000000E+00  0.16304350809E+01  0.16304350809E+01  0.00000000000E+00 0. -1.
         13   -1    0    0    0    0 -0.00000000000E+00 -0.00000000000E+00 -0.10000000000E+04  0.10000000000E+04  0.00000000000E+00 0.  1.
    9000005    2    1    2  501    0  0.14115463766E+02 -0.33305378997E+02 -0.30573837143E+03  0.30805530232E+03  0.10659406015E+02 0.  0.
         13    1    3    3    0    0  0.80629577999E+01 -0.18353599727E+02 -0.21134791160E+03  0.21229650409E+03  0.00000000000E+00 0.  1.
          1    1    3    3  501    0  0.60525059659E+01 -0.14951779270E+02 -0.94390459835E+02  0.95758798237E+02  0.00000000000E+00 0.  1.
         -3    1    1    2    0  502 -0.14115463766E+02  0.33305378997E+02 -0.69263119349E+03  0.69357513276E+03  0.00000000000E+00 0. -1.
<mgrwt>
<rscale>  1 0.30000000E+03</rscale>
<asrwt>0</asrwt>
<pdfrwt beam="1">  1       21 0.59288673E-02 0.30000000E+03</pdfrwt>
<pdfrwt beam="2">0</pdfrwt>
<totfact> 0.21509465E+04</totfact>
</mgrwt>
</event>
<event>
 6    1  0.6377696E-002  0.3000000E+03  0.7818608E-02  0.1093470E+00
         21   -1    0    0  501  502  0.00000000000E+00  0.00000000000E+00  0.10069411247E+01  0.10069411247E+01  0.00000000000E+00 0. -1.
         13   -1    0    0    0    0 -0.00000000000E+00 -0.00000000000E+00 -0.10000000000E+04  0.10000000000E+04  0.00000000000E+00 0.  1.
    9000005    2    1    2  501    0 -0.29081315792E+02 -0.11878682800E+02 -0.56225405668E+03  0.56313963009E+03  0.31293278452E+01 0.  0.
         13    1    3    3    0    0 -0.17168456027E+02 -0.84791755609E+01 -0.32874857277E+03  0.32930574911E+03  0.00000000000E+00 0.  1.
          3    1    3    3  501    0 -0.11912859766E+02 -0.33995072393E+01 -0.23350548391E+03  0.23383388098E+03  0.00000000000E+00 0.  1.
         -3    1    1    2    0  502  0.29081315792E+02  0.11878682800E+02 -0.43673900219E+03  0.43786731103E+03  0.00000000000E+00 0. -1.
<mgrwt>
<rscale>  1 0.30000000E+03</rscale>
<asrwt>0</asrwt>
<pdfrwt beam="1">  1       21 0.36616118E-02 0.30000000E+03</pdfrwt>
<pdfrwt beam="2">0</pdfrwt>
<totfact> 0.48781796E+04</totfact>
</mgrwt>
</event>
<event>
 6    1  0.6377696E-002  0.3000000E+03  0.7818608E-02  0.1093470E+00
         21   -1    0    0  501  502  0.00000000000E+00  0.00000000000E+00  0.22348615744E+01  0.22348615744E+01  0.00000000000E+00 0. -1.
         13   -1    0    0    0    0 -0.00000000000E+00 -0.00000000000E+00 -0.10000000000E+04  0.10000000000E+04  0.00000000000E+00 0.  1.
    9000005    2    1    2  501    0 -0.34236561175E+02 -0.29775540578E+02 -0.36118322372E+03  0.36403798045E+03  0.34066377269E+01 0.  0.
         13    1    3    3    0    0 -0.42718003923E+01 -0.50012756616E+01 -0.58117427833E+02  0.58488430093E+02  0.00000000000E+00 0.  1.
          3    1    3    3  501    0 -0.29964760783E+02 -0.24774264917E+02 -0.30306579588E+03  0.30554955036E+03  0.00000000000E+00 0.  1.
         -3    1    1    2    0  502  0.34236561175E+02  0.29775540578E+02 -0.63658191471E+03  0.63819688112E+03  0.00000000000E+00 0. -1.
<mgrwt>
<rscale>  1 0.30000000E+03</rscale>
<asrwt>0</asrwt>
<pdfrwt beam="1">  1       21 0.81267865E-02 0.30000000E+03</pdfrwt>
<pdfrwt beam="2">0</pdfrwt>
<totfact> 0.12425742E+04</totfact>
</mgrwt>
</event>
<event>
 6    1  0.6377696E-002  0.3000000E+03  0.7818608E-02  0.1093470E+00
         21   -1    0    0  501  502  0.00000000000E+00  0.00000000000E+00  0.25700095898E+01  0.25700095898E+01  0.00000000000E+00 0. -1.
         13   -1    0    0    0    0 -0.00000000000E+00 -0.00000000000E+00 -0.10000000000E+04  0.10000000000E+04  0.00000000000E+00 0.  1.
    9000005    2    1    2  501    0  0.41492744815E+02  0.16468474278E+01 -0.21191358608E+03  0.21595677460E+03  0.23665490664E+01 0.  0.
         13    1    3    3    0    0  0.39886423636E+02  0.12396734896E+01 -0.20493452643E+03  0.20878367682E+03  0.00000000000E+00 0.  1.
          3    1    3    3  501    0  0.16063211784E+01  0.40717393819E+00 -0.69790596455E+01  0.71730977883E+01  0.00000000000E+00 0.  1.
         -3    1    1    2    0  502 -0.41492744815E+02 -0.16468474278E+01 -0.78551640433E+03  0.78661323499E+03  0.00000000000E+00 0. -1.
<mgrwt>
<rscale>  1 0.30000000E+03</rscale>
<asrwt>0</asrwt>
<pdfrwt beam="1">  1       21 0.93455091E-02 0.30000000E+03</pdfrwt>
<pdfrwt beam="2">0</pdfrwt>
<totfact> 0.97068865E+03</totfact>
</mgrwt>
</event>
<event>
 6    1  0.6377696E-002  0.3000000E+03  0.7818608E-02  0.1093470E+00
         21   -1    0    0  501  502  0.00000000000E+00  0.00000000000E+00  0.10102676241E+01  0.10102676241E+01  0.00000000000E+00 0. -1.
         13   -1    0    0    0    0 -0.00000000000E+00 -0.00000000000E+00 -0.10000000000E+04  0.10000000000E+04  0.00000000000E+00 0.  1.
    9000005    2    1    2  501    0  0.29413896053E+02 -0.60336954146E+01 -0.64349487066E+03  0.64424959229E+03  0.83848573810E+01 0.  0.
         13    1    3    3    0    0  0.84592407382E+01 -0.12045496575E+01 -0.11478212921E+03  0.11509972581E+03  0.00000000000E+00 0.  1.
          3    1    3    3  501    0  0.20954655315E+02 -0.48291457571E+01 -0.52871274145E+03  0.52914986648E+03  0.00000000000E+00 0.  1.
         -1    1    1    2    0  502 -0.29413896053E+02  0.60336954146E+01 -0.35549486171E+03  0.35676067534E+03  0.00000000000E+00 0. -1.
<mgrwt>
<rscale>  1 0.30000000E+03</rscale>
<asrwt>0</asrwt>
<pdfrwt beam="1">  1       21 0.36737082E-02 0.30000000E+03</pdfrwt>
<pdfrwt beam="2">0</pdfrwt>
<totfact> 0.48512579E+04</totfact>
</mgrwt>
</event>
<event>
 6    1  0.6377696E-002  0.3000000E+03  0.7818608E-02  0.1093470E+00
         21   -1    0    0  501  502  0.00000000000E+00  0.00000000000E+00  0.12300754036E+01  0.12300754036E+01  0.00000000000E+00 0. -1.
         13   -1    0    0    0    0 -0.00000000000E+00 -0.00000000000E+00 -0.10000000000E+04  0.10000000000E+04  0.00000000000E+00 0.  1.
    9000005    2    1    2  501    0  0.13935238811E+02  0.32078179279E+02 -0.50756356065E+03  0.50878018714E+03  0.36483232892E+01 0.  0.
         13    1    3    3    0    0  0.10214883533E+02  0.26186725305E+02 -0.39162388859E+03  0.39263132649E+03  0.00000000000E+00 0.  1.
          3    1    3    3  501    0  0.37203552777E+01  0.58914539739E+01 -0.11593967205E+03  0.11614886065E+03  0.00000000000E+00 0.  1.
         -3    1    1    2    0  502 -0.13935238811E+02 -0.32078179279E+02 -0.49120636395E+03  0.49244988826E+03  0.00000000000E+00 0. -1.
<mgrwt>
<rscale>  1 0.30000000E+03</rscale>
<asrwt>0</asrwt>
<pdfrwt beam="1">  1       21 0.44730109E-02 0.30000000E+03</pdfrwt>
<pdfrwt beam="2">0</pdfrwt>
<totfact> 0.34811652E+04</totfact>
</mgrwt>
</event>
<event>
 6    1  0.6377696E-002  0.3000000E+03  0.7818608E-02  0.1093470E+00
         21   -1    0    0  501  502  0.00000000000E+00  0.00000000000E+00  0.12009464166E+01  0.12009464166E+01  0.00000000000E+00 0. -1.
         13   -1    0    0    0    0 -0.00000000000E+00 -0.00000000000E+00 -0.10000000000E+04  0.10000000000E+04  0.00000000000E+00 0.  1.
    9000005    2    1    2  501    0 -0.19722351715E+02 -0.25135197200E+02 -0.69239219990E+03  0.69313291938E+03  0.23529038199E+01 0.  0.
         13    1    3    3    0    0 -0.92603812445E+01 -0.12353781835E+02 -0.31022777494E+03  0.31061172375E+03  0.00000000000E+00 0.  1.
          3    1    3    3  501    0 -0.10461970470E+02 -0.12781415365E+02 -0.38216442496E+03  0.38252119563E+03  0.00000000000E+00 0.  1.
         -3    1    1    2    0  502  0.19722351715E+02  0.25135197200E+02 -0.30640685369E+03  0.30806802703E+03  0.00000000000E+00 0. -1.
<mgrwt>
<rscale>  1 0.30000000E+03</rscale>
<asrwt>0</asrwt>
<pdfrwt beam="1">  1       21 0.43670871E-02 0.30000000E+03</pdfrwt>
<pdfrwt beam="2">0</pdfrwt>
<totfact> 0.36254474E+04</totfact>
</mgrwt>
</event>
<event>
 6    1  0.6377696E-002  0.3000000E+03  0.7818608E-02  0.1093470E+00
         21   -1    0    0  501  502  0.00000000000E+00  0.00000000000E+00  0.12381482359E+01  0.12381482359E+01  0.00000000000E+00 0. -1.
         13   -1    0    0    0    0 -0.00000000000E+00 -0.00000000000E+00 -0.10000000000E+04  0.10000000000E+04  0.00000000000E+00 0.  1.
    9000005    2    1    2  501    0  0.34059036743E+02  0.83431562118E+01 -0.47387252336E+03  0.47517880433E+03  0.31782775670E+01 0.  0.
         13    1    3    3    0    0  0.30728700647E+00  0.77751153074E-01 -0.16965993034E+01  0.17259547336E+01  0.00000000000E+00 0.  1.
          3    1    3    3  501    0  0.33751749737E+02  0.82654050587E+01 -0.47217592406E+03  0.47345284960E+03  0.00000000000E+00 0.  1.
         -3    1    1    2    0  502 -0.34059036743E+02 -0.83431562118E+01 -0.52488932840E+03  0.52605934390E+03  0.00000000000E+00 0. -1.
<mgrwt>
<rscale>  1 0.30000000E+03</rscale>
<asrwt>0</asrwt>
<pdfrwt beam="1">  1       21 0.45023667E-02 0.30000000E+03</pdfrwt>
<pdfrwt beam="2">0</pdfrwt>
<totfact> 0.34427457E+04</totfact>
</mgrwt>
</event>
<event>
 6    1  0.6377696E-002  0.3000000E+03  0.7818608E-02  0.1093470E+00
         21   -1    0    0  501  502  0.00000000000E+00  0.00000000000E+00  0.12336434203E+01  0.12336434203E+01  0.00000000000E+00 0. -1.
         13   -1    0    0    0    0 -0.00000000000E+00 -0.00000000000E+00 -0.10000000000E+04  0.10000000000E+04  0.00000000000E+00 0.  1.
    9000005    2    1    2  501    0 -0.10128903679E+02  0.29651656240E+02 -0.72456894366E+03  0.72525169354E+03  0.28371569463E+01 0.  0.
         13    1    3    3    0    0 -0.32989760463E+01  0.13831176397E+02 -0.33720904900E+03  0.33750870716E+03  0.00000000000E+00 0.  1.
          3    1    3    3  501    0 -0.68299276329E+01  0.15820479843E+02 -0.38735989466E+03  0.38774298638E+03  0.00000000000E+00 0.  1.
         -3    1    1    2    0  502  0.10128903679E+02 -0.29651656240E+02 -0.27419741292E+03  0.27598194988E+03  0.00000000000E+00 0. -1.
<mgrwt>
<rscale>  1 0.30000000E+03</rscale>
<asrwt>0</asrwt>
<pdfrwt beam="1">  1       21 0.44859855E-02 0.30000000E+03</pdfrwt>
<pdfrwt beam="2">0</pdfrwt>
<totfact> 0.34641035E+04</totfact>
</mgrwt>
</event>
<event>
 6    1  0.6377696E-002  0.3000000E+03  0.7818608E-02  0.1093470E+00
         21   -1    0    0  501  502  0.00000000000E+00  0.00000000000E+00  0.16518960718E+01  0.16518960718E+01  0.00000000000E+00 0. -1.
         13   -1    0    0    0    0 -0.00000000000E+00 -0.00000000000E+00 -0.10000000000E+04  0.10000000000E+04  0.00000000000E+00 0.  1.
    9000005    2    1    2  501    0  0.39196280802E+02 -0.10066159480E+02 -0.51210370362E+03  0.51372639682E+03  0.51895593445E+01 0.  0.
         13    1    3    3    0    0  0.21278224562E+02 -0.58453662575E+01 -0.24661921810E+03  0.24760446257E+03  0.00000000000E+00 0.  1.
          1    1    3    3  501    0  0.17918056240E+02 -0.42207932226E+01 -0.26548448552E+03  0.26612193425E+03  0.00000000000E+00 0.  1.
         -1    1    1    2    0  502 -0.39196280802E+02  0.10066159480E+02 -0.48624440031E+03  0.48792549926E+03  0.00000000000E+00 0. -1.
<mgrwt>
<rscale>  1 0.30000000E+03</rscale>
<asrwt>0</asrwt>
<pdfrwt beam="1">  1       21 0.60069075E-02 0.30000000E+03</pdfrwt>
<pdfrwt beam="2">0</pdfrwt>
<totfact> 0.21029892E+04</totfact>
</mgrwt>
</event>
<event>
 6    1  0.6377696E-002  0.3000000E+03  0.7818608E-02  0.1093470E+00
         21   -1    0    0  501  502  0.00000000000E+00  0.00000000000E+00  0.12120174941E+01  0.12120174941E+01  0.00000000000E+00 0. -1.
         13   -1    0    0    0    0 -0.00000000000E+00 -0.00000000000E+00 -0.10000000000E+04  0.10000000000E+04  0.00000000000E+00 0.  1.
    9000005    2    1    2  501    0 -0.12256021649E+02 -0.31503346165E+02 -0.61545874957E+03  0.61639521470E+03  0.33041491351E+01 0.  0.
         13    1    3    3    0    0 -0.25760235760E+00 -0.31864352548E+01 -0.53042392985E+02  0.53138641140E+02  0.00000000000E+00 0.  1.
          3    1    3    3  501    0 -0.11998419291E+02 -0.28316910911E+02 -0.56241635658E+03  0.56325657356E+03  0.00000000000E+00 0.  1.
         -1    1    1    2    0  502  0.12256021649E+02  0.31503346165E+02 -0.38332923294E+03  0.38481680279E+03  0.00000000000E+00 0. -1.
<mgrwt>
<rscale>  1 0.30000000E+03</rscale>
<asrwt>0</asrwt>
<pdfrwt beam="1">  1       21 0.44073456E-02 0.30000000E+03</pdfrwt>
<pdfrwt beam="2">0</pdfrwt>
<totfact> 0.35695393E+04</totfact>
</mgrwt>
</event>
<event>
 6    1  0.6377696E-002  0.3000000E+03  0.7818608E-02  0.1093470E+00
         21   -1    0    0  501  502  0.00000000000E+00  0.00000000000E+00  0.30140659282E+01  0.30140659282E+01  0.00000000000E+00 0. -1.
         13   -1    0    0    0    0 -0.00000000000E+00 -0.00000000000E+00 -0.10000000000E+04  0.10000000000E+04  0.00000000000E+00 0.  1.
    9000005    2    1    2  501    0  0.35395715152E+02  0.41412329995E+02 -0.55681697531E+03  0.55948667108E+03  0.35147392314E+01 0.  0.
         13    1    3    3    0    0  0.15563421288E+01  0.20522399598E+01 -0.34880898505E+02  0.34975862680E+02  0.00000000000E+00 0.  1.
          1    1    3    3  501    0  0.33839373023E+02  0.39360090035E+02 -0.52193607681E+03  0.52451080840E+03  0.00000000000E+00 0.  1.
         -3    1    1    2    0  502 -0.35395715152E+02 -0.41412329995E+02 -0.44016895876E+03  0.44352739485E+03  0.00000000000E+00 0. -1.
<mgrwt>
<rscale>  1 0.30000000E+03</rscale>
<asrwt>0</asrwt>
<pdfrwt beam="1">  1       21 0.10960263E-01 0.30000000E+03</pdfrwt>
<pdfrwt beam="2">0</pdfrwt>
<totfact> 0.72993879E+03</totfact>
</mgrwt>
</event>
<event>
 6    1  0.6377696E-002  0.3000000E+03  0.7818608E-02  0.1093470E+00
         21   -1    0    0  501  502  0.00000000000E+00  0.00000000000E+00  0.16730546770E+01  0.16730546770E+01  0.00000000000E+00 0. -1.
         13   -1    0    0    0    0 -0.00000000000E+00 -0.00000000000E+00 -0.10000000000E+04  0.10000000000E+04  0.00000000000E+00 0.  1.
    9000005    2    1    2  501    0  0.31102263894E+02 -0.24329005175E+02 -0.62775726254E+03  0.62900545331E+03  0.30705549262E+01 0.  0.
         13    1    3    3    0    0  0.59391070010E+01 -0.32542724801E+01 -0.11323206694E+03  0.11343440512E+03  0.00000000000E+00 0.  1.
          3    1    3    3  501    0  0.25163156893E+02 -0.21074732695E+02 -0.51452519560E+03  0.51557104819E+03  0.00000000000E+00 0.  1.
         -1    1    1    2    0  502 -0.31102263894E+02  0.24329005175E+02 -0.37056968278E+03  0.37266760136E+03  0.00000000000E+00 0. -1.
<mgrwt>
<rscale>  1 0.30000000E+03</rscale>
<asrwt>0</asrwt>
<pdfrwt beam="1">  1       21 0.60838480E-02 0.30000000E+03</pdfrwt>
<pdfrwt beam="2">0</pdfrwt>
<totfact> 0.20573176E+04</totfact>
</mgrwt>
</event>
<event>
 6    1  0.6377696E-002  0.3000000E+03  0.7818608E-02  0.1093470E+00
         21   -1    0    0  501  502  0.00000000000E+00  0.00000000000E+00  0.11654476710E+01  0.11654476710E+01  0.00000000000E+00 0. -1.
         13   -1    0    0    0    0 -0.00000000000E+00 -0.00000000000E+00 -0.10000000000E+04  0.10000000000E+04  0.00000000000E+00 0.  1.
    9000005    2    1    2  501    0  0.19527808159E+02 -0.26173062076E+02 -0.35857860513E+03  0.36007727714E+03  0.32657290484E+01 0.  0.
         13    1    3    3    0    0  0.35345431408E+01 -0.34847368132E+01 -0.45224346943E+02  0.45495911270E+02  0.00000000000E+00 0.  1.
          1    1    3    3  501    0  0.15993265019E+02 -0.22688325263E+02 -0.31335425819E+03  0.31458136587E+03  0.00000000000E+00 0.  1.
         -3    1    1    2    0  502 -0.19527808159E+02  0.26173062076E+02 -0.64025594720E+03  0.64108817053E+03  0.00000000000E+00 0. -1.
<mgrwt>
<rscale>  1 0.30000000E+03</rscale>
<asrwt>0</asrwt>
<pdfrwt beam="1">  1       21 0.42380005E-02 0.30000000E+03</pdfrwt>
<pdfrwt beam="2">0</pdfrwt>
<totfact> 0.38141736E+04</totfact>
</mgrwt>
</event>
<event>
 6    1  0.6377696E-002  0.3000000E+03  0.7818608E-02  0.1093470E+00
         21   -1    0    0  501  502  0.00000000000E+00  0.00000000000E+00  0.11674271906E+01  0.11674271906E+01  0.00000000000E+00 0. -1.
         13   -1    0    0    0    0 -0.00000000000E+00 -0.00000000000E+00 -0.10000000000E+04  0.10000000000E+04  0.00000000000E+00 0.  1.
    9000005    2    1    2  501    0 -0.32103728139E+02 -0.10962031494E+02 -0.44812776253E+03  0.44941874930E+03  0.28116138959E+01 0.  0.
         13    1    3    3    0    0 -0.19261154575E+02 -0.59926842186E+01 -0.24937545601E+03  0.25018997262E+03  0.00000000000E+00 0.  1.
          3    1    3    3  501    0 -0.12842573563E+02 -0.49693472755E+01 -0.19875230652E+03  0.19922877667E+03  0.00000000000E+00 0.  1.
         -3    1    1    2    0  502  0.32103728139E+02  0.10962031494E+02 -0.55070481028E+03  0.55174867789E+03  0.00000000000E+00 0. -1.
<mgrwt>
<rscale>  1 0.30000000E+03</rscale>
<asrwt>0</asrwt>
<pdfrwt beam="1">  1       21 0.42451987E-02 0.30000000E+03</pdfrwt>
<pdfrwt beam="2">0</pdfrwt>
<totfact> 0.38032521E+04</totfact>
</mgrwt>
</event>
<event>
 6    1  0.6377696E-002  0.3000000E+03  0.7818608E-02  0.1093470E+00
         21   -1    0    0  501  502  0.00000000000E+00  0.00000000000E+00  0.14660851546E+01  0.14660851546E+01  0.00000000000E+00 0. -1.
         13   -1    0    0    0    0 -0.00000000000E+00 -0.00000000000E+00 -0.10000000000E+04  0.10000000000E+04  0.00000000000E+00 0.  1.
    9000005    2    1    2  501    0 -0.31659317908E+02 -0.11232517983E+02 -0.73891000769E+03  0.73967789780E+03  0.26289088443E+01 0.  0.
         13    1    3    3    0    0 -0.35141955527E+01 -0.17585492489E+01 -0.10276269694E+03  0.10283780408E+03  0.00000000000E+00 0.  1.
          1    1    3    3  501    0 -0.28145122356E+02 -0.94739687343E+01 -0.63614731075E+03  0.63684009373E+03  0.00000000000E+00 0.  1.
         -1    1    1    2    0  502  0.31659317908E+02  0.11232517983E+02 -0.25962390715E+03  0.26178818735E+03  0.00000000000E+00 0. -1.
<mgrwt>
<rscale>  1 0.30000000E+03</rscale>
<asrwt>0</asrwt>
<pdfrwt beam="1">  1       21 0.53312300E-02 0.30000000E+03</pdfrwt>
<pdfrwt beam="2">0</pdfrwt>
<totfact> 0.25816096E+04</totfact>
</mgrwt>
</event>
<event>
 6    1  0.6377696E-002  0.3000000E+03  0.7818608E-02  0.1093470E+00
         21   -1    0    0  501  502  0.00000000000E+00  0.00000000000E+00  0.25286637686E+01  0.25286637686E+01  0.00000000000E+00 0. -1.
         13   -1    0    0    0    0 -0.00000000000E+00 -0.00000000000E+00 -0.10000000000E+04  0.10000000000E+04  0.00000000000E+00 0.  1.
    9000005    2    1    2  501    0 -0.80430998687E+01  0.44989003061E+02 -0.70714736008E+03  0.70862950933E+03  0.31130004989E+01 0.  0.
         13    1    3    3    0    0  0.11723015280E+00  0.15225879834E+01 -0.18094075258E+02  0.18158402367E+02  0.00000000000E+00 0.  1.
          1    1    3    3  501    0 -0.81603300215E+01  0.43466415077E+02 -0.68905328482E+03  0.69047110696E+03  0.00000000000E+00 0.  1.
         -1    1    1    2    0  502  0.80430998687E+01 -0.44989003061E+02 -0.29032397615E+03  0.29389915444E+03  0.00000000000E+00 0. -1.
<mgrwt>
<rscale>  1 0.30000000E+03</rscale>
<asrwt>0</asrwt>
<pdfrwt beam="1">  1       21 0.91951604E-02 0.30000000E+03</pdfrwt>
<pdfrwt beam="2">0</pdfrwt>
<totfact> 0.99906699E+03</totfact>
</mgrwt>
</event>
<event>
 6    1  0.6377696E-002  0.3000000E+03  0.7818608E-02  0.1093470E+00
         21   -1    0    0  501  502  0.00000000000E+00  0.00000000000E+00  0.18745461553E+01  0.18745461553E+01  0.00000000000E+00 0. -1.
         13   -1    0    0    0    0 -0.00000000000E+00 -0.00000000000E+00 -0.10000000000E+04  0.10000000000E+04  0.00000000000E+00 0.  1.
    9000005    2    1    2  501    0  0.20446366153E+02 -0.32549004754E+02 -0.27107408682E+03  0.27380780341E+03  0.34729042015E+01 0.  0.
         13    1    3    3    0    0  0.13195982392E+02 -0.19237273567E+02 -0.15413102069E+03  0.15588642720E+03  0.00000000000E+00 0.  1.
          1    1    3    3  501    0  0.72503837607E+01 -0.13311731187E+02 -0.11694306614E+03  0.11792137622E+03  0.00000000000E+00 0.  1.
         -1    1    1    2    0  502 -0.20446366153E+02  0.32549004754E+02 -0.72705136702E+03  0.72806674274E+03  0.00000000000E+00 0. -1.
<mgrwt>
<rscale>  1 0.30000000E+03</rscale>
<asrwt>0</asrwt>
<pdfrwt beam="1">  1       21 0.68165458E-02 0.30000000E+03</pdfrwt>
<pdfrwt beam="2">0</pdfrwt>
<totfact> 0.16897729E+04</totfact>
</mgrwt>
</event>
<event>
 6    1  0.6377696E-002  0.3000000E+03  0.7818608E-02  0.1093470E+00
         21   -1    0    0  501  502  0.00000000000E+00  0.00000000000E+00  0.20702879149E+01  0.20702879149E+01  0.00000000000E+00 0. -1.
         13   -1    0    0    0    0 -0.00000000000E+00 -0.00000000000E+00 -0.10000000000E+04  0.10000000000E+04  0.00000000000E+00 0.  1.
    9000005    2    1    2  501    0  0.15609295733E+02 -0.41695019190E+02 -0.59843774140E+03  0.60010516582E+03  0.40441283333E+01 0.  0.
         13    1    3    3    0    0  0.12700541671E+02 -0.28885054398E+02 -0.42938826798E+03  0.43054608906E+03  0.00000000000E+00 0.  1.
          3    1    3    3  501    0  0.29087540612E+01 -0.12809964792E+02 -0.16904947342E+03  0.16955907676E+03  0.00000000000E+00 0.  1.
         -1    1    1    2    0  502 -0.15609295733E+02  0.41695019190E+02 -0.39949197068E+03  0.40196512209E+03  0.00000000000E+00 0. -1.
<mgrwt>
<rscale>  1 0.30000000E+03</rscale>
<asrwt>0</asrwt>
<pdfrwt beam="1">  1       21 0.75283356E-02 0.30000000E+03</pdfrwt>
<pdfrwt beam="2">0</pdfrwt>
<totfact> 0.14210322E+04</totfact>
</mgrwt>
</event>
<event>
 6    1  0.6377696E-002  0.3000000E+03  0.7818608E-02  0.1093470E+00
         21   -1    0    0  501  502  0.00000000000E+00  0.00000000000E+00  0.14378124404E+01  0.14378124404E+01  0.00000000000E+00 0. -1.
         13   -1    0    0    0    0 -0.00000000000E+00 -0.00000000000E+00 -0.10000000000E+04  0.10000000000E+04  0.00000000000E+00 0.  1.
    9000005    2    1    2  501    0  0.20763709501E+02 -0.27835542830E+02 -0.69891983545E+03  0.69978985827E+03  0.33106308359E+01 0.  0.
         13    1    3    3    0    0  0.46786151006E+01 -0.72001887727E+01 -0.20047910294E+03  0.20066290856E+03  0.00000000000E+00 0.  1.
          3    1    3    3  501    0  0.16085094401E+02 -0.20635354057E+02 -0.49844073251E+03  0.49912694971E+03  0.00000000000E+00 0.  1.
         -1    1    1    2    0  502 -0.20763709501E+02  0.27835542830E+02 -0.29964235211E+03  0.30164795417E+03  0.00000000000E+00 0. -1.
<mgrwt>
<rscale>  1 0.30000000E+03</rscale>
<asrwt>0</asrwt>
<pdfrwt beam="1">  1       21 0.52284199E-02 0.30000000E+03</pdfrwt>
<pdfrwt beam="2">0</pdfrwt>
<totfact> 0.26690164E+04</totfact>
</mgrwt>
</event>
<event>
 6    1  0.6377696E-002  0.3000000E+03  0.7818608E-02  0.1093470E+00
         21   -1    0    0  501  502  0.00000000000E+00  0.00000000000E+00  0.12450409474E+01  0.12450409474E+01  0.00000000000E+00 0. -1.
         13   -1    0    0    0    0 -0.00000000000E+00 -0.00000000000E+00 -0.10000000000E+04  0.10000000000E+04  0.00000000000E+00 0.  1.
    9000005    2    1    2  501    0  0.26226640241E+02 -0.15525174266E+02 -0.25935828496E+03  0.26122050800E+03  0.63691547127E+01 0.  0.
         13    1    3    3    0    0  0.10420540268E+02 -0.26607104110E+01 -0.90725983454E+02  0.91361212301E+02  0.00000000000E+00 0.  1.
          3    1    3    3  501    0  0.15806099973E+02 -0.12864463855E+02 -0.16863230150E+03  0.16985929570E+03  0.00000000000E+00 0.  1.
         -1    1    1    2    0  502 -0.26226640241E+02  0.15525174266E+02 -0.73939667410E+03  0.74002453294E+03  0.00000000000E+00 0. -1.
<mgrwt>
<rscale>  1 0.30000000E+03</rscale>
<asrwt>0</asrwt>
<pdfrwt beam="1">  1       21 0.45274312E-02 0.30000000E+03</pdfrwt>
<pdfrwt beam="2">0</pdfrwt>
<totfact> 0.34104575E+04</totfact>
</mgrwt>
</event>
<event>
 6    1  0.6377696E-002  0.3000000E+03  0.7818608E-02  0.1093470E+00
         21   -1    0    0  501  502  0.00000000000E+00  0.00000000000E+00  0.11103066757E+01  0.11103066757E+01  0.00000000000E+00 0. -1.
         13   -1    0    0    0    0 -0.00000000000E+00 -0.00000000000E+00 -0.10000000000E+04  0.10000000000E+04  0.00000000000E+00 0.  1.
    9000005    2    1    2  501    0  0.33126147731E+02 -0.23796965872E+01 -0.48862368012E+03  0.48976462238E+03  0.36441650564E+01 0.  0.
         13    1    3    3    0    0  0.20021740378E+02 -0.30103949928E+01 -0.30869989910E+03  0.30936315274E+03  0.00000000000E+00 0.  1.
          3    1    3    3  501    0  0.13104407353E+02  0.63069840559E+00 -0.17992378102E+03  0.18040146964E+03  0.00000000000E+00 0.  1.
         -3    1    1    2    0  502 -0.33126147731E+02  0.23796965872E+01 -0.51026601320E+03  0.51134568430E+03  0.00000000000E+00 0. -1.
<mgrwt>
<rscale>  1 0.30000000E+03</rscale>
<asrwt>0</asrwt>
<pdfrwt beam="1">  1       21 0.40374873E-02 0.30000000E+03</pdfrwt>
<pdfrwt beam="2">0</pdfrwt>
<totfact> 0.41391809E+04</totfact>
</mgrwt>
</event>
<event>
 6    1  0.6377696E-002  0.3000000E+03  0.7818608E-02  0.1093470E+00
         21   -1    0    0  501  502  0.00000000000E+00  0.00000000000E+00  0.21734190185E+01  0.21734190185E+01  0.00000000000E+00 0. -1.
         13   -1    0    0    0    0 -0.00000000000E+00 -0.00000000000E+00 -0.10000000000E+04  0.10000000000E+04  0.00000000000E+00 0.  1.
    9000005    2    1    2  501    0 -0.16338492598E+02 -0.38002084960E+02 -0.26992491107E+03  0.27309732844E+03  0.34041709839E+01 0.  0.
         13    1    3    3    0    0 -0.92289749041E+01 -0.17677047613E+02 -0.13510985028E+03  0.13657351000E+03  0.00000000000E+00 0.  1.
          3    1    3    3  501    0 -0.71095176941E+01 -0.20325037347E+02 -0.13481506079E+03  0.13652381844E+03  0.00000000000E+00 0.  1.
         -3    1    1    2    0  502  0.16338492598E+02  0.38002084960E+02 -0.72790166991E+03  0.72907609058E+03  0.00000000000E+00 0. -1.
<mgrwt>
<rscale>  1 0.30000000E+03</rscale>
<asrwt>0</asrwt>
<pdfrwt beam="1">  1       21 0.79033586E-02 0.30000000E+03</pdfrwt>
<pdfrwt beam="2">0</pdfrwt>
<totfact> 0.13049396E+04</totfact>
</mgrwt>
</event>
<event>
 6    1  0.6377696E-002  0.3000000E+03  0.7818608E-02  0.1093470E+00
         21   -1    0    0  501  502  0.00000000000E+00  0.00000000000E+00  0.10605148962E+01  0.10605148962E+01  0.00000000000E+00 0. -1.
         13   -1    0    0    0    0 -0.00000000000E+00 -0.00000000000E+00 -0.10000000000E+04  0.10000000000E+04  0.00000000000E+00 0.  1.
    9000005    2    1    2  501    0 -0.32441327933E+02 -0.13365947144E+01 -0.51451026328E+03  0.51554440064E+03  0.33153837708E+01 0.  0.
         13    1    3    3    0    0 -0.30073796553E+02 -0.13508756759E+01 -0.48845131990E+03  0.48937812580E+03  0.00000000000E+00 0.  1.
          3    1    3    3  501    0 -0.23675313800E+01  0.14280961534E-01 -0.26058943385E+02  0.26166274842E+02  0.00000000000E+00 0.  1.
         -1    1    1    2    0  502  0.32441327933E+02  0.13365947144E+01 -0.48442922182E+03  0.48551611425E+03  0.00000000000E+00 0. -1.
<mgrwt>
<rscale>  1 0.30000000E+03</rscale>
<asrwt>0</asrwt>
<pdfrwt beam="1">  1       21 0.38564259E-02 0.30000000E+03</pdfrwt>
<pdfrwt beam="2">0</pdfrwt>
<totfact> 0.44714562E+04</totfact>
</mgrwt>
</event>
<event>
 6    1  0.6377696E-002  0.3000000E+03  0.7818608E-02  0.1093470E+00
         21   -1    0    0  501  502  0.00000000000E+00  0.00000000000E+00  0.96634695522E+00  0.96634695522E+00  0.00000000000E+00 0. -1.
         13   -1    0    0    0    0 -0.00000000000E+00 -0.00000000000E+00 -0.10000000000E+04  0.10000000000E+04  0.00000000000E+00 0.  1.
    9000005    2    1    2  501    0 -0.13905789657E+02  0.26900646608E+02 -0.60090151777E+03  0.60168422500E+03  0.49251175291E+01 0.  0.
         13    1    3    3    0    0 -0.93041531502E+01  0.15770662349E+02 -0.40397231571E+03  0.40438708303E+03  0.00000000000E+00 0.  1.
          1    1    3    3  501    0 -0.46016365072E+01  0.11129984259E+02 -0.19692920206E+03  0.19729714197E+03  0.00000000000E+00 0.  1.
         -3    1    1    2    0  502  0.13905789657E+02 -0.26900646608E+02 -0.39813213528E+03  0.39928212196E+03  0.00000000000E+00 0. -1.
<mgrwt>
<rscale>  1 0.30000000E+03</rscale>
<asrwt>0</asrwt>
<pdfrwt beam="1">  1       21 0.35139963E-02 0.30000000E+03</pdfrwt>
<pdfrwt beam="2">0</pdfrwt>
<totfact> 0.52266303E+04</totfact>
</mgrwt>
</event>
<event>
 6    1  0.6377696E-002  0.3000000E+03  0.7818608E-02  0.1093470E+00
         21   -1    0    0  501  502  0.00000000000E+00  0.00000000000E+00  0.94431717928E+00  0.94431717928E+00  0.00000000000E+00 0. -1.
         13   -1    0    0    0    0 -0.00000000000E+00 -0.00000000000E+00 -0.10000000000E+04  0.10000000000E+04  0.00000000000E+00 0.  1.
    9000005    2    1    2  501    0  0.27000981085E+02 -0.13684471164E+02 -0.45347982870E+03  0.45452933721E+03  0.60535625934E+01 0.  0.
         13    1    3    3    0    0  0.14242565087E+02 -0.38437834240E+01 -0.21251767679E+03  0.21302907848E+03  0.00000000000E+00 0.  1.
          1    1    3    3  501    0  0.12758415998E+02 -0.98406877403E+01 -0.24096215191E+03  0.24150025873E+03  0.00000000000E+00 0.  1.
         -3    1    1    2    0  502 -0.27000981085E+02  0.13684471164E+02 -0.54557585412E+03  0.54641497997E+03  0.00000000000E+00 0. -1.
<mgrwt>
<rscale>  1 0.30000000E+03</rscale>
<asrwt>0</asrwt>
<pdfrwt beam="1">  1       21 0.34338879E-02 0.30000000E+03</pdfrwt>
<pdfrwt beam="2">0</pdfrwt>
<totfact> 0.54322894E+04</totfact>
</mgrwt>
</event>
<event>
 6    1  0.6377696E-002  0.3000000E+03  0.7818608E-02  0.1093470E+00
         21   -1    0    0  501  502  0.00000000000E+00  0.00000000000E+00  0.16014263977E+01  0.16014263977E+01  0.00000000000E+00 0. -1.
         13   -1    0    0    0    0 -0.00000000000E+00 -0.00000000000E+00 -0.10000000000E+04  0.10000000000E+04  0.00000000000E+00 0.  1.
    9000005    2    1    2  501    0  0.75488929323E+01 -0.32965230959E+02 -0.76604663466E+03  0.76680126505E+03  0.36112848102E+01 0.  0.
         13    1    3    3    0    0  0.68402593893E+01 -0.31832066493E+02 -0.72092341140E+03  0.72165825341E+03  0.00000000000E+00 0.  1.
          3    1    3    3  501    0  0.70863354299E+00 -0.11331644661E+01 -0.45123223259E+02  0.45143011646E+02  0.00000000000E+00 0.  1.
         -1    1    1    2    0  502 -0.75488929323E+01  0.32965230959E+02 -0.23235193894E+03  0.23480016134E+03  0.00000000000E+00 0. -1.
<mgrwt>
<rscale>  1 0.30000000E+03</rscale>
<asrwt>0</asrwt>
<pdfrwt beam="1">  1       21 0.58233810E-02 0.30000000E+03</pdfrwt>
<pdfrwt beam="2">0</pdfrwt>
<totfact> 0.22185302E+04</totfact>
</mgrwt>
</event>
<event>
 6    1  0.6377696E-002  0.3000000E+03  0.7818608E-02  0.1093470E+00
         21   -1    0    0  501  502  0.00000000000E+00  0.00000000000E+00  0.99702467506E+00  0.99702467506E+00  0.00000000000E+00 0. -1.
         13   -1    0    0    0    0 -0.00000000000E+00 -0.00000000000E+00 -0.10000000000E+04  0.10000000000E+04  0.00000000000E+00 0.  1.
    9000005    2    1    2  501    0 -0.30749521062E+02 -0.63082516115E+01 -0.54059995746E+03  0.54152052488E+03  0.32920764861E+01 0.  0.
         13    1    3    3    0    0 -0.24707255898E+02 -0.60074742807E+01 -0.45149589513E+03  0.45221132401E+03  0.00000000000E+00 0.  1.
          1    1    3    3  501    0 -0.60422651632E+01 -0.30077733086E+00 -0.89104062330E+02  0.89309200865E+02  0.00000000000E+00 0.  1.
         -1    1    1    2    0  502  0.30749521062E+02  0.63082516115E+01 -0.45840301786E+03  0.45947649980E+03  0.00000000000E+00 0. -1.
<mgrwt>
<rscale>  1 0.30000000E+03</rscale>
<asrwt>0</asrwt>
<pdfrwt beam="1">  1       21 0.36255519E-02 0.30000000E+03</pdfrwt>
<pdfrwt beam="2">0</pdfrwt>
<totfact> 0.49598478E+04</totfact>
</mgrwt>
</event>
<event>
 6    1  0.6377696E-002  0.3000000E+03  0.7818608E-02  0.1093470E+00
         21   -1    0    0  501  502  0.00000000000E+00  0.00000000000E+00  0.15865100049E+01  0.15865100049E+01  0.00000000000E+00 0. -1.
         13   -1    0    0    0    0 -0.00000000000E+00 -0.00000000000E+00 -0.10000000000E+04  0.10000000000E+04  0.00000000000E+00 0.  1.
    9000005    2    1    2  501    0 -0.13621358263E+02  0.36049705660E+02 -0.62291128658E+03  0.62411197120E+03  0.34869704466E+01 0.  0.
         13    1    3    3    0    0 -0.24903314086E+01  0.99477527973E+01 -0.15001589479E+03  0.15036598094E+03  0.00000000000E+00 0.  1.
          1    1    3    3  501    0 -0.11131026854E+02  0.26101952862E+02 -0.47289539179E+03  0.47374599025E+03  0.00000000000E+00 0.  1.
         -3    1    1    2    0  502  0.13621358263E+02 -0.36049705660E+02 -0.37550220341E+03  0.37747453881E+03  0.00000000000E+00 0. -1.
<mgrwt>
<rscale>  1 0.30000000E+03</rscale>
<asrwt>0</asrwt>
<pdfrwt beam="1">  1       21 0.57691395E-02 0.30000000E+03</pdfrwt>
<pdfrwt beam="2">0</pdfrwt>
<totfact> 0.22545717E+04</totfact>
</mgrwt>
</event>
<event>
 6    1  0.6377696E-002  0.3000000E+03  0.7818608E-02  0.1093470E+00
         21   -1    0    0  501  502  0.00000000000E+00  0.00000000000E+00  0.11907922159E+01  0.11907922159E+01  0.00000000000E+00 0. -1.
         13   -1    0    0    0    0 -0.00000000000E+00 -0.00000000000E+00 -0.10000000000E+04  0.10000000000E+04  0.00000000000E+00 0.  1.
    9000005    2    1    2  501    0 -0.24197637296E+02  0.23740760921E+02 -0.41715073280E+03  0.41854533321E+03  0.40388978736E+01 0.  0.
         13    1    3    3    0    0 -0.51107595190E+01  0.28933743117E+01 -0.72784542955E+02  0.73021100861E+02  0.00000000000E+00 0.  1.
          1    1    3    3  501    0 -0.19086877777E+02  0.20847386609E+02 -0.34436618985E+03  0.34552423235E+03  0.00000000000E+00 0.  1.
         -1    1    1    2    0  502  0.24197637296E+02 -0.23740760921E+02 -0.58165847498E+03  0.58264545901E+03  0.00000000000E+00 0. -1.
<mgrwt>
<rscale>  1 0.30000000E+03</rscale>
<asrwt>0</asrwt>
<pdfrwt beam="1">  1       21 0.43301626E-02 0.30000000E+03</pdfrwt>
<pdfrwt beam="2">0</pdfrwt>
<totfact> 0.36779265E+04</totfact>
</mgrwt>
</event>
<event>
 6    1  0.6377696E-002  0.3000000E+03  0.7818608E-02  0.1093470E+00
         21   -1    0    0  501  502  0.00000000000E+00  0.00000000000E+00  0.15984283945E+01  0.15984283945E+01  0.00000000000E+00 0. -1.
         13   -1    0    0    0    0 -0.00000000000E+00 -0.00000000000E+00 -0.10000000000E+04  0.10000000000E+04  0.00000000000E+00 0.  1.
    9000005    2    1    2  501    0  0.29574175025E+02  0.22340888313E+02 -0.31997245601E+03  0.32215762007E+03  0.54233245981E+01 0.  0.
         13    1    3    3    0    0  0.21207952672E+02  0.18911923563E+02 -0.24402734126E+03  0.24567617180E+03  0.00000000000E+00 0.  1.
          1    1    3    3  501    0  0.83662223531E+01  0.34289647507E+01 -0.75945114750E+02  0.76481448275E+02  0.00000000000E+00 0.  1.
         -1    1    1    2    0  502 -0.29574175025E+02 -0.22340888313E+02 -0.67842911560E+03  0.67944080832E+03  0.00000000000E+00 0. -1.
<mgrwt>
<rscale>  1 0.30000000E+03</rscale>
<asrwt>0</asrwt>
<pdfrwt beam="1">  1       21 0.58124791E-02 0.30000000E+03</pdfrwt>
<pdfrwt beam="2">0</pdfrwt>
<totfact> 0.22257031E+04</totfact>
</mgrwt>
</event>
<event>
 6    1  0.6377696E-002  0.3000000E+03  0.7818608E-02  0.1093470E+00
         21   -1    0    0  501  502  0.00000000000E+00  0.00000000000E+00  0.16417479519E+01  0.16417479519E+01  0.00000000000E+00 0. -1.
         13   -1    0    0    0    0 -0.00000000000E+00 -0.00000000000E+00 -0.10000000000E+04  0.10000000000E+04  0.00000000000E+00 0.  1.
    9000005    2    1    2  501    0  0.28682626103E+02 -0.26093698923E+02 -0.36164927042E+03  0.36375312017E+03  0.47501028035E+01 0.  0.
         13    1    3    3    0    0  0.72584336744E+01 -0.49263183098E+01 -0.68020298813E+02  0.68583631591E+02  0.00000000000E+00 0.  1.
          3    1    3    3  501    0  0.21424192428E+02 -0.21167380614E+02 -0.29362897160E+03  0.29516948858E+03  0.00000000000E+00 0.  1.
         -3    1    1    2    0  502 -0.28682626103E+02  0.26093698923E+02 -0.63670898163E+03  0.63788862778E+03  0.00000000000E+00 0. -1.
<mgrwt>
<rscale>  1 0.30000000E+03</rscale>
<asrwt>0</asrwt>
<pdfrwt beam="1">  1       21 0.59700051E-02 0.30000000E+03</pdfrwt>
<pdfrwt beam="2">0</pdfrwt>
<totfact> 0.21254566E+04</totfact>
</mgrwt>
</event>
<event>
 6    1  0.6377696E-002  0.3000000E+03  0.7818608E-02  0.1093470E+00
         21   -1    0    0  501  502  0.00000000000E+00  0.00000000000E+00  0.13296320600E+01  0.13296320600E+01  0.00000000000E+00 0. -1.
         13   -1    0    0    0    0 -0.00000000000E+00 -0.00000000000E+00 -0.10000000000E+04  0.10000000000E+04  0.00000000000E+00 0.  1.
    9000005    2    1    2  501    0 -0.21052945450E+02 -0.29166099021E+02 -0.42312587604E+03  0.42466218023E+03  0.29278829164E+01 0.  0.
         13    1    3    3    0    0 -0.11657499785E+02 -0.15829044559E+02 -0.24811332323E+03  0.24889089401E+03  0.00000000000E+00 0.  1.
          3    1    3    3  501    0 -0.93954456648E+01 -0.13337054462E+02 -0.17501255281E+03  0.17577128622E+03  0.00000000000E+00 0.  1.
         -1    1    1    2    0  502  0.21052945450E+02  0.29166099021E+02 -0.57554449190E+03  0.57666745183E+03  0.00000000000E+00 0. -1.
<mgrwt>
<rscale>  1 0.30000000E+03</rscale>
<asrwt>0</asrwt>
<pdfrwt beam="1">  1       21 0.48350359E-02 0.30000000E+03</pdfrwt>
<pdfrwt beam="2">0</pdfrwt>
<totfact> 0.30498714E+04</totfact>
</mgrwt>
</event>
<event>
 6    1  0.6377696E-002  0.3000000E+03  0.7818608E-02  0.1093470E+00
         21   -1    0    0  501  502  0.00000000000E+00  0.00000000000E+00  0.20540918013E+01  0.20540918013E+01  0.00000000000E+00 0. -1.
         13   -1    0    0    0    0 -0.00000000000E+00 -0.00000000000E+00 -0.10000000000E+04  0.10000000000E+04  0.00000000000E+00 0.  1.
    9000005    2    1    2  501    0 -0.24942410290E+01 -0.33971056229E+02 -0.16990905561E+03  0.17331693012E+03  0.30687440030E+01 0.  0.
         13    1    3    3    0    0 -0.45982422087E+00 -0.51985841847E+01 -0.20895843098E+02  0.21537710524E+02  0.00000000000E+00 0.  1.
          1    1    3    3  501    0 -0.20344168081E+01 -0.28772472045E+02 -0.14901321251E+03  0.15177921960E+03  0.00000000000E+00 0.  1.
         -3    1    1    2    0  502  0.24942410290E+01  0.33971056229E+02 -0.82803685259E+03  0.82873716168E+03  0.00000000000E+00 0. -1.
<mgrwt>
<rscale>  1 0.30000000E+03</rscale>
<asrwt>0</asrwt>
<pdfrwt beam="1">  1       21 0.74694405E-02 0.30000000E+03</pdfrwt>
<pdfrwt beam="2">0</pdfrwt>
<totfact> 0.14407078E+04</totfact>
</mgrwt>
</event>
<event>
 6    1  0.6377696E-002  0.3000000E+03  0.7818608E-02  0.1093470E+00
         21   -1    0    0  501  502  0.00000000000E+00  0.00000000000E+00  0.15898363465E+01  0.15898363465E+01  0.00000000000E+00 0. -1.
         13   -1    0    0    0    0 -0.00000000000E+00 -0.00000000000E+00 -0.10000000000E+04  0.10000000000E+04  0.00000000000E+00 0.  1.
    9000005    2    1    2  501    0  0.17952340073E+02 -0.35515600222E+02 -0.51260722628E+03  0.51415969947E+03  0.32223831218E+01 0.  0.
         13    1    3    3    0    0  0.20463427433E+01 -0.22309783783E+01 -0.36234940334E+02  0.36361183756E+02  0.00000000000E+00 0.  1.
          3    1    3    3  501    0  0.15905997329E+02 -0.33284621843E+02 -0.47637228595E+03  0.47779851572E+03  0.00000000000E+00 0.  1.
         -1    1    1    2    0  502 -0.17952340073E+02  0.35515600222E+02 -0.48580293737E+03  0.48743013687E+03  0.00000000000E+00 0. -1.
<mgrwt>
<rscale>  1 0.30000000E+03</rscale>
<asrwt>0</asrwt>
<pdfrwt beam="1">  1       21 0.57812353E-02 0.30000000E+03</pdfrwt>
<pdfrwt beam="2">0</pdfrwt>
<totfact> 0.22464573E+04</totfact>
</mgrwt>
</event>
<event>
 6    1  0.6377696E-002  0.3000000E+03  0.7818608E-02  0.1093470E+00
         21   -1    0    0  501  502  0.00000000000E+00  0.00000000000E+00  0.14530116770E+01  0.14530116770E+01  0.00000000000E+00 0. -1.
         13   -1    0    0    0    0 -0.00000000000E+00 -0.00000000000E+00 -0.10000000000E+04  0.10000000000E+04  0.00000000000E+00 0.  1.
    9000005    2    1    2  501    0  0.17091905730E+02 -0.31953537198E+02 -0.35153425963E+03  0.35342628933E+03  0.45436238017E+01 0.  0.
         13    1    3    3    0    0  0.29481606233E+01 -0.74241504079E+01 -0.94551168082E+02  0.94888002645E+02  0.00000000000E+00 0.  1.
          3    1    3    3  501    0  0.14143745106E+02 -0.24529386790E+02 -0.25698309155E+03  0.25853828669E+03  0.00000000000E+00 0.  1.
         -3    1    1    2    0  502 -0.17091905730E+02  0.31953537198E+02 -0.64701272869E+03  0.64802672234E+03  0.00000000000E+00 0. -1.
<mgrwt>
<rscale>  1 0.30000000E+03</rscale>
<asrwt>0</asrwt>
<pdfrwt beam="1">  1       21 0.52836900E-02 0.30000000E+03</pdfrwt>
<pdfrwt beam="2">0</pdfrwt>
<totfact> 0.26214675E+04</totfact>
</mgrwt>
</event>
<event>
 6    1  0.6377696E-002  0.3000000E+03  0.7818608E-02  0.1093470E+00
         21   -1    0    0  501  502  0.00000000000E+00  0.00000000000E+00  0.11574736902E+01  0.11574736902E+01  0.00000000000E+00 0. -1.
         13   -1    0    0    0    0 -0.00000000000E+00 -0.00000000000E+00 -0.10000000000E+04  0.10000000000E+04  0.00000000000E+00 0.  1.
    9000005    2    1    2  501    0 -0.36911030332E+01 -0.31443480166E+02 -0.32771889055E+03  0.32928750773E+03  0.53174087477E+01 0.  0.
         13    1    3    3    0    0 -0.45599446303E+01 -0.21691710508E+02 -0.24124018878E+03  0.24225637677E+03  0.00000000000E+00 0.  1.
          3    1    3    3  501    0  0.86884159710E+00 -0.97517696580E+01 -0.86478701768E+02  0.87031130963E+02  0.00000000000E+00 0.  1.
         -1    1    1    2    0  502  0.36911030332E+01  0.31443480166E+02 -0.67112363576E+03  0.67186996596E+03  0.00000000000E+00 0. -1.
<mgrwt>
<rscale>  1 0.30000000E+03</rscale>
<asrwt>0</asrwt>
<pdfrwt beam="1">  1       21 0.42090041E-02 0.30000000E+03</pdfrwt>
<pdfrwt beam="2">0</pdfrwt>
<totfact> 0.38586656E+04</totfact>
</mgrwt>
</event>
<event>
 6    1  0.6377696E-002  0.3000000E+03  0.7818608E-02  0.1093470E+00
         21   -1    0    0  501  502  0.00000000000E+00  0.00000000000E+00  0.20099000512E+01  0.20099000512E+01  0.00000000000E+00 0. -1.
         13   -1    0    0    0    0 -0.00000000000E+00 -0.00000000000E+00 -0.10000000000E+04  0.10000000000E+04  0.00000000000E+00 0.  1.
    9000005    2    1    2  501    0 -0.25429258929E+02  0.31222742018E+02 -0.28097122458E+03  0.28386118672E+03  0.32920287866E+01 0.  0.
         13    1    3    3    0    0 -0.18691746455E+02  0.24700133464E+02 -0.20957057566E+03  0.21184736052E+03  0.00000000000E+00 0.  1.
          3    1    3    3  501    0 -0.67375124733E+01  0.65226085534E+01 -0.71400648924E+02  0.72013826197E+02  0.00000000000E+00 0.  1.
         -1    1    1    2    0  502  0.25429258929E+02 -0.31222742018E+02 -0.71701887537E+03  0.71814871333E+03  0.00000000000E+00 0. -1.
<mgrwt>
<rscale>  1 0.30000000E+03</rscale>
<asrwt>0</asrwt>
<pdfrwt beam="1">  1       21 0.73087429E-02 0.30000000E+03</pdfrwt>
<pdfrwt beam="2">0</pdfrwt>
<totfact> 0.14965608E+04</totfact>
</mgrwt>
</event>
<event>
 6    1  0.6377696E-002  0.3000000E+03  0.7818608E-02  0.1093470E+00
         21   -1    0    0  501  502  0.00000000000E+00  0.00000000000E+00  0.97689298022E+00  0.97689298022E+00  0.00000000000E+00 0. -1.
         13   -1    0    0    0    0 -0.00000000000E+00 -0.00000000000E+00 -0.10000000000E+04  0.10000000000E+04  0.00000000000E+00 0.  1.
    9000005    2    1    2  501    0 -0.98125535425E+01 -0.29430007361E+02 -0.45388283332E+03  0.45495461362E+03  0.34150458147E+01 0.  0.
         13    1    3    3    0    0 -0.67323545403E+01 -0.17611784551E+02 -0.29622606021E+03  0.29682550143E+03  0.00000000000E+00 0.  1.
          1    1    3    3  501    0 -0.30801990022E+01 -0.11818222809E+02 -0.15765677311E+03  0.15812911220E+03  0.00000000000E+00 0.  1.
         -1    1    1    2    0  502  0.98125535425E+01  0.29430007361E+02 -0.54514027370E+03  0.54602227936E+03  0.00000000000E+00 0. -1.
<mgrwt>
<rscale>  1 0.30000000E+03</rscale>
<asrwt>0</asrwt>
<pdfrwt beam="1">  1       21 0.35523456E-02 0.30000000E+03</pdfrwt>
<pdfrwt beam="2">0</pdfrwt>
<totfact> 0.51324293E+04</totfact>
</mgrwt>
</event>
<event>
 6    1  0.6377696E-002  0.3000000E+03  0.7818608E-02  0.1093470E+00
         21   -1    0    0  501  502  0.00000000000E+00  0.00000000000E+00  0.17596934867E+01  0.17596934867E+01  0.00000000000E+00 0. -1.
         13   -1    0    0    0    0 -0.00000000000E+00 -0.00000000000E+00 -0.10000000000E+04  0.10000000000E+04  0.00000000000E+00 0.  1.
    9000005    2    1    2  501    0  0.34464884609E+02 -0.23510365165E+02 -0.52468472241E+03  0.52636989892E+03  0.55359749747E+01 0.  0.
         13    1    3    3    0    0  0.12134411175E+02 -0.61909457851E+01 -0.19578298061E+03  0.19625633044E+03  0.00000000000E+00 0.  1.
          3    1    3    3  501    0  0.22330473433E+02 -0.17319419380E+02 -0.32890174180E+03  0.33011356848E+03  0.00000000000E+00 0.  1.
         -3    1    1    2    0  502 -0.34464884609E+02  0.23510365165E+02 -0.47355558411E+03  0.47538979457E+03  0.00000000000E+00 0. -1.
<mgrwt>
<rscale>  1 0.30000000E+03</rscale>
<asrwt>0</asrwt>
<pdfrwt beam="1">  1       21 0.63988989E-02 0.30000000E+03</pdfrwt>
<pdfrwt beam="2">0</pdfrwt>
<totfact> 0.18854688E+04</totfact>
</mgrwt>
</event>
<event>
 6    1  0.6377696E-002  0.3000000E+03  0.7818608E-02  0.1093470E+00
         21   -1    0    0  501  502  0.00000000000E+00  0.00000000000E+00  0.19012293318E+01  0.19012293318E+01  0.00000000000E+00 0. -1.
         13   -1    0    0    0    0 -0.00000000000E+00 -0.00000000000E+00 -0.10000000000E+04  0.10000000000E+04  0.00000000000E+00 0.  1.
    9000005    2    1    2  501    0  0.15621907530E+02  0.40058108636E+02 -0.42519708155E+03  0.42738835614E+03  0.44218489067E+01 0.  0.
         13    1    3    3    0    0  0.45151321770E+01  0.70005728091E+01 -0.87155248345E+02  0.87552451435E+02  0.00000000000E+00 0.  1.
          3    1    3    3  501    0  0.11106775353E+02  0.33057535827E+02 -0.33804183320E+03  0.33983590471E+03  0.00000000000E+00 0.  1.
         -1    1    1    2    0  502 -0.15621907530E+02 -0.40058108636E+02 -0.57290168912E+03  0.57451287319E+03  0.00000000000E+00 0. -1.
<mgrwt>
<rscale>  1 0.30000000E+03</rscale>
<asrwt>0</asrwt>
<pdfrwt beam="1">  1       21 0.69135758E-02 0.30000000E+03</pdfrwt>
<pdfrwt beam="2">0</pdfrwt>
<totfact> 0.16487761E+04</totfact>
</mgrwt>
</event>
<event>
 6    1  0.6377696E-002  0.3000000E+03  0.7818608E-02  0.1093470E+00
         21   -1    0    0  501  502  0.00000000000E+00  0.00000000000E+00  0.13533900865E+01  0.13533900865E+01  0.00000000000E+00 0. -1.
         13   -1    0    0    0    0 -0.00000000000E+00 -0.00000000000E+00 -0.10000000000E+04  0.10000000000E+04  0.00000000000E+00 0.  1.
    9000005    2    1    2  501    0 -0.52169194304E+01  0.33384185936E+02 -0.30455486089E+03  0.30643967157E+03  0.31446624137E+01 0.  0.
         13    1    3    3    0    0  0.35891036120E+00  0.16981125858E+01 -0.13111948907E+02  0.13226322510E+02  0.00000000000E+00 0.  1.
          1    1    3    3  501    0 -0.55758297916E+01  0.31686073350E+02 -0.29144291199E+03  0.29321334906E+03  0.00000000000E+00 0.  1.
         -1    1    1    2    0  502  0.52169194304E+01 -0.33384185936E+02 -0.69409174902E+03  0.69491371851E+03  0.00000000000E+00 0. -1.
<mgrwt>
<rscale>  1 0.30000000E+03</rscale>
<asrwt>0</asrwt>
<pdfrwt beam="1">  1       21 0.49214289E-02 0.30000000E+03</pdfrwt>
<pdfrwt beam="2">0</pdfrwt>
<totfact> 0.29592704E+04</totfact>
</mgrwt>
</event>
<event>
 6    1  0.6377696E-002  0.3000000E+03  0.7818608E-02  0.1093470E+00
         21   -1    0    0  501  502  0.00000000000E+00  0.00000000000E+00  0.16054609133E+01  0.16054609133E+01  0.00000000000E+00 0. -1.
         13   -1    0    0    0    0 -0.00000000000E+00 -0.00000000000E+00 -0.10000000000E+04  0.10000000000E+04  0.00000000000E+00 0.  1.
    9000005    2    1    2  501    0  0.38111091949E+02  0.20120484424E+01 -0.36650018071E+03  0.36855966177E+03  0.75721960425E+01 0.  0.
         13    1    3    3    0    0  0.14208105391E+02  0.31739725654E+01 -0.11341546109E+03  0.11434601512E+03  0.00000000000E+00 0.  1.
          3    1    3    3  501    0  0.23902986559E+02 -0.11619241231E+01 -0.25308471962E+03  0.25421364665E+03  0.00000000000E+00 0.  1.
         -3    1    1    2    0  502 -0.38111091949E+02 -0.20120484424E+01 -0.63189435837E+03  0.63304579914E+03  0.00000000000E+00 0. -1.
<mgrwt>
<rscale>  1 0.30000000E+03</rscale>
<asrwt>0</asrwt>
<pdfrwt beam="1">  1       21 0.58380520E-02 0.30000000E+03</pdfrwt>
<pdfrwt beam="2">0</pdfrwt>
<totfact> 0.22089339E+04</totfact>
</mgrwt>
</event>
<event>
 6    1  0.6377696E-002  0.3000000E+03  0.7818608E-02  0.1093470E+00
         21   -1    0    0  501  502  0.00000000000E+00  0.00000000000E+00  0.45301245937E+01  0.45301245937E+01  0.00000000000E+00 0. -1.
         13   -1    0    0    0    0 -0.00000000000E+00 -0.00000000000E+00 -0.10000000000E+04  0.10000000000E+04  0.00000000000E+00 0.  1.
    9000005    2    1    2  501    0 -0.32399770019E+02 -0.32314857004E+02 -0.86574168401E+03  0.86696777974E+03  0.55201977110E+01 0.  0.
         13    1    3    3    0    0 -0.28016628162E+02 -0.30271594121E+02 -0.78004235672E+03  0.78113211376E+03  0.00000000000E+00 0.  1.
          3    1    3    3  501    0 -0.43831418569E+01 -0.20432628827E+01 -0.85699327295E+02  0.85835665982E+02  0.00000000000E+00 0.  1.
         -1    1    1    2    0  502  0.32399770019E+02  0.32314857004E+02 -0.12972819139E+03  0.13756234486E+03  0.00000000000E+00 0. -1.
<mgrwt>
<rscale>  1 0.30000000E+03</rscale>
<asrwt>0</asrwt>
<pdfrwt beam="1">  1       21 0.16473215E-01 0.30000000E+03</pdfrwt>
<pdfrwt beam="2">0</pdfrwt>
<totfact> 0.34593150E+03</totfact>
</mgrwt>
</event>
<event>
 6    1  0.6377696E-002  0.3000000E+03  0.7818608E-02  0.1093470E+00
         21   -1    0    0  501  502  0.00000000000E+00  0.00000000000E+00  0.26367784495E+01  0.26367784495E+01  0.00000000000E+00 0. -1.
         13   -1    0    0    0    0 -0.00000000000E+00 -0.00000000000E+00 -0.10000000000E+04  0.10000000000E+04  0.00000000000E+00 0.  1.
    9000005    2    1    2  501    0 -0.44834141781E+01 -0.43163641540E+02 -0.23611860398E+03  0.24015624182E+03  0.63106566641E+01 0.  0.
         13    1    3    3    0    0  0.45821016185E+00 -0.16942474709E+02 -0.80248314488E+02  0.82018591697E+02  0.00000000000E+00 0.  1.
          1    1    3    3  501    0 -0.49416243400E+01 -0.26221166831E+02 -0.15587028949E+03  0.15813765013E+03  0.00000000000E+00 0.  1.
         -3    1    1    2    0  502  0.44834141781E+01  0.43163641540E+02 -0.76124461757E+03  0.76248053663E+03  0.00000000000E+00 0. -1.
<mgrwt>
<rscale>  1 0.30000000E+03</rscale>
<asrwt>0</asrwt>
<pdfrwt beam="1">  1       21 0.95883055E-02 0.30000000E+03</pdfrwt>
<pdfrwt beam="2">0</pdfrwt>
<totfact> 0.92735417E+03</totfact>
</mgrwt>
</event>
<event>
 6    1  0.6377696E-002  0.3000000E+03  0.7818608E-02  0.1093470E+00
         21   -1    0    0  501  502  0.00000000000E+00  0.00000000000E+00  0.20919823995E+01  0.20919823995E+01  0.00000000000E+00 0. -1.
         13   -1    0    0    0    0 -0.00000000000E+00 -0.00000000000E+00 -0.10000000000E+04  0.10000000000E+04  0.00000000000E+00 0.  1.
    9000005    2    1    2  501    0  0.99690446287E+01  0.39136268037E+02 -0.26561479536E+03  0.26868596070E+03  0.31458919435E+01 0.  0.
         13    1    3    3    0    0  0.55440060083E+00  0.49188821380E+01 -0.27692990978E+02  0.28131912676E+02  0.00000000000E+00 0.  1.
          3    1    3    3  501    0  0.94146440279E+01  0.34217385899E+02 -0.23792180438E+03  0.24055404802E+03  0.00000000000E+00 0.  1.
         -1    1    1    2    0  502 -0.99690446287E+01 -0.39136268037E+02 -0.73229322224E+03  0.73340602170E+03  0.00000000000E+00 0. -1.
<mgrwt>
<rscale>  1 0.30000000E+03</rscale>
<asrwt>0</asrwt>
<pdfrwt beam="1">  1       21 0.76072248E-02 0.30000000E+03</pdfrwt>
<pdfrwt beam="2">0</pdfrwt>
<totfact> 0.13953211E+04</totfact>
</mgrwt>
</event>
<event>
 6    1  0.6377696E-002  0.3000000E+03  0.7818608E-02  0.1093470E+00
         21   -1    0    0  501  502  0.00000000000E+00  0.00000000000E+00  0.22563052665E+01  0.22563052665E+01  0.00000000000E+00 0. -1.
         13   -1    0    0    0    0 -0.00000000000E+00 -0.00000000000E+00 -0.10000000000E+04  0.10000000000E+04  0.00000000000E+00 0.  1.
    9000005    2    1    2  501    0  0.41035598850E+02  0.14993970479E+02 -0.69379413304E+03  0.69518290105E+03  0.44974823382E+01 0.  0.
         13    1    3    3    0    0  0.39349085426E+02  0.15130344971E+02 -0.65836289010E+03  0.65971127997E+03  0.00000000000E+00 0.  1.
          1    1    3    3  501    0  0.16865134235E+01 -0.13637449189E+00 -0.35431242939E+02  0.35471621076E+02  0.00000000000E+00 0.  1.
         -1    1    1    2    0  502 -0.41035598850E+02 -0.14993970479E+02 -0.30394956169E+03  0.30707340422E+03  0.00000000000E+00 0. -1.
<mgrwt>
<rscale>  1 0.30000000E+03</rscale>
<asrwt>0</asrwt>
<pdfrwt beam="1">  1       21 0.82047637E-02 0.30000000E+03</pdfrwt>
<pdfrwt beam="2">0</pdfrwt>
<totfact> 0.12218813E+04</totfact>
</mgrwt>
</event>
<event>
 6    1  0.6377696E-002  0.3000000E+03  0.7818608E-02  0.1093470E+00
         21   -1    0    0  501  502  0.00000000000E+00  0.00000000000E+00  0.30337835174E+01  0.30337835174E+01  0.00000000000E+00 0. -1.
         13   -1    0    0    0    0 -0.00000000000E+00 -0.00000000000E+00 -0.10000000000E+04  0.10000000000E+04  0.00000000000E+00 0.  1.
    9000005    2    1    2  501    0  0.16528709284E+02 -0.47478037460E+02 -0.70249857672E+03  0.70430555730E+03  0.38347722407E+01 0.  0.
         13    1    3    3    0    0  0.27360080258E+01 -0.10730238858E+02 -0.13745550605E+03  0.13790083361E+03  0.00000000000E+00 0.  1.
          1    1    3    3  501    0  0.13792701258E+02 -0.36747798602E+02 -0.56504307067E+03  0.56640472369E+03  0.00000000000E+00 0.  1.
         -1    1    1    2    0  502 -0.16528709284E+02  0.47478037460E+02 -0.29446763976E+03  0.29872822621E+03  0.00000000000E+00 0. -1.
<mgrwt>
<rscale>  1 0.30000000E+03</rscale>
<asrwt>0</asrwt>
<pdfrwt beam="1">  1       21 0.11031963E-01 0.30000000E+03</pdfrwt>
<pdfrwt beam="2">0</pdfrwt>
<totfact> 0.72142593E+03</totfact>
</mgrwt>
</event>
<event>
 6    1  0.6377696E-002  0.3000000E+03  0.7818608E-02  0.1093470E+00
         21   -1    0    0  501  502  0.00000000000E+00  0.00000000000E+00  0.52792596574E+01  0.52792596574E+01  0.00000000000E+00 0. -1.
         13   -1    0    0    0    0 -0.00000000000E+00 -0.00000000000E+00 -0.10000000000E+04  0.10000000000E+04  0.00000000000E+00 0.  1.
    9000005    2    1    2  501    0 -0.64630128978E+02  0.12654604405E+02 -0.28572253448E+03  0.29322894648E+03  0.29420669329E+01 0.  0.
         13    1    3    3    0    0 -0.63896992820E+02  0.12208200425E+02 -0.28131748167E+03  0.28874104547E+03  0.00000000000E+00 0.  1.
          3    1    3    3  501    0 -0.73313615738E+00  0.44640397930E+00 -0.44050528095E+01  0.44879010007E+01  0.00000000000E+00 0.  1.
         -3    1    1    2    0  502  0.64630128978E+02 -0.12654604405E+02 -0.70899820586E+03  0.71205031318E+03  0.00000000000E+00 0. -1.
<mgrwt>
<rscale>  1 0.30000000E+03</rscale>
<asrwt>0</asrwt>
<pdfrwt beam="1">  1       21 0.19197348E-01 0.30000000E+03</pdfrwt>
<pdfrwt beam="2">0</pdfrwt>
<totfact> 0.25937534E+03</totfact>
</mgrwt>
</event>
<event>
 6    1  0.6377696E-002  0.3000000E+03  0.7818608E-02  0.1093470E+00
         21   -1    0    0  501  502  0.00000000000E+00  0.00000000000E+00  0.13051700260E+01  0.13051700260E+01  0.00000000000E+00 0. -1.
         13   -1    0    0    0    0 -0.00000000000E+00 -0.00000000000E+00 -0.10000000000E+04  0.10000000000E+04  0.00000000000E+00 0.  1.
    9000005    2    1    2  501    0  0.25398730182E+02  0.19900023080E+02 -0.72356329194E+03  0.72428807735E+03  0.28766535552E+01 0.  0.
         13    1    3    3    0    0  0.37191329240E+01  0.36083488158E+01 -0.13773449055E+03  0.13783193396E+03  0.00000000000E+00 0.  1.
          1    1    3    3  501    0  0.21679597258E+02  0.16291674264E+02 -0.58582880138E+03  0.58645614339E+03  0.00000000000E+00 0.  1.
         -3    1    1    2    0  502 -0.25398730182E+02 -0.19900023080E+02 -0.27513153804E+03  0.27701709268E+03  0.00000000000E+00 0. -1.
<mgrwt>
<rscale>  1 0.30000000E+03</rscale>
<asrwt>0</asrwt>
<pdfrwt beam="1">  1       21 0.47460828E-02 0.30000000E+03</pdfrwt>
<pdfrwt beam="2">0</pdfrwt>
<totfact> 0.31477690E+04</totfact>
</mgrwt>
</event>
<event>
 6    1  0.6377696E-002  0.3000000E+03  0.7818608E-02  0.1093470E+00
         21   -1    0    0  501  502  0.00000000000E+00  0.00000000000E+00  0.10461197209E+01  0.10461197209E+01  0.00000000000E+00 0. -1.
         13   -1    0    0    0    0 -0.00000000000E+00 -0.00000000000E+00 -0.10000000000E+04  0.10000000000E+04  0.00000000000E+00 0.  1.
    9000005    2    1    2  501    0  0.12125690428E+02  0.29821894837E+02 -0.52025858760E+03  0.52126954567E+03  0.40698262677E+01 0.  0.
         13    1    3    3    0    0  0.16909049940E+01  0.15543555257E+01 -0.41859328383E+02  0.41922291844E+02  0.00000000000E+00 0.  1.
          3    1    3    3  501    0  0.10434785434E+02  0.28267539312E+02 -0.47839925922E+03  0.47934725382E+03  0.00000000000E+00 0.  1.
         -3    1    1    2    0  502 -0.12125690428E+02 -0.29821894837E+02 -0.47869529268E+03  0.47977657405E+03  0.00000000000E+00 0. -1.
<mgrwt>
<rscale>  1 0.30000000E+03</rscale>
<asrwt>0</asrwt>
<pdfrwt beam="1">  1       21 0.38040797E-02 0.30000000E+03</pdfrwt>
<pdfrwt beam="2">0</pdfrwt>
<totfact> 0.45753518E+04</totfact>
</mgrwt>
</event>
<event>
 6    1  0.6377696E-002  0.3000000E+03  0.7818608E-02  0.1093470E+00
         21   -1    0    0  501  502  0.00000000000E+00  0.00000000000E+00  0.13666221034E+01  0.13666221034E+01  0.00000000000E+00 0. -1.
         13   -1    0    0    0    0 -0.00000000000E+00 -0.00000000000E+00 -0.10000000000E+04  0.10000000000E+04  0.00000000000E+00 0.  1.
    9000005    2    1    2  501    0 -0.35334905610E+02  0.10361872368E+02 -0.48938678278E+03  0.49079045874E+03  0.44639982624E+01 0.  0.
         13    1    3    3    0    0 -0.20764011056E+02  0.46450325503E+01 -0.25892434860E+03  0.25979711080E+03  0.00000000000E+00 0.  1.
          3    1    3    3  501    0 -0.14570894554E+02  0.57168398182E+01 -0.23046243418E+03  0.23099334794E+03  0.00000000000E+00 0.  1.
         -1    1    1    2    0  502  0.35334905610E+02 -0.10361872368E+02 -0.50924659512E+03  0.51057616336E+03  0.00000000000E+00 0. -1.
<mgrwt>
<rscale>  1 0.30000000E+03</rscale>
<asrwt>0</asrwt>
<pdfrwt beam="1">  1       21 0.49695454E-02 0.30000000E+03</pdfrwt>
<pdfrwt beam="2">0</pdfrwt>
<totfact> 0.29106181E+04</totfact>
</mgrwt>
</event>
<event>
 6    1  0.6377696E-002  0.3000000E+03  0.7818608E-02  0.1093470E+00
         21   -1    0    0  501  502  0.00000000000E+00  0.00000000000E+00  0.23248000544E+01  0.23248000544E+01  0.00000000000E+00 0. -1.
         13   -1    0    0    0    0 -0.00000000000E+00 -0.00000000000E+00 -0.10000000000E+04  0.10000000000E+04  0.00000000000E+00 0.  1.
    9000005    2    1    2  501    0  0.35562872011E+02 -0.27553544788E+02 -0.33032786813E+03  0.33346279861E+03  0.75512844504E+01 0.  0.
         13    1    3    3    0    0  0.46946714295E+01 -0.26242499968E+01 -0.59697406719E+02  0.59939194163E+02  0.00000000000E+00 0.  1.
          3    1    3    3  501    0  0.30868200581E+02 -0.24929294792E+02 -0.27063046141E+03  0.27352360444E+03  0.00000000000E+00 0.  1.
         -1    1    1    2    0  502 -0.35562872011E+02  0.27553544788E+02 -0.66734733182E+03  0.66886200145E+03  0.00000000000E+00 0. -1.
<mgrwt>
<rscale>  1 0.30000000E+03</rscale>
<asrwt>0</asrwt>
<pdfrwt beam="1">  1       21 0.84538362E-02 0.30000000E+03</pdfrwt>
<pdfrwt beam="2">0</pdfrwt>
<totfact> 0.11592026E+04</totfact>
</mgrwt>
</event>
<event>
 6    1  0.6377696E-002  0.3000000E+03  0.7818608E-02  0.1093470E+00
         21   -1    0    0  501  502  0.00000000000E+00  0.00000000000E+00  0.66219244068E+01  0.66219244068E+01  0.00000000000E+00 0. -1.
         13   -1    0    0    0    0 -0.00000000000E+00 -0.00000000000E+00 -0.10000000000E+04  0.10000000000E+04  0.00000000000E+00 0.  1.
    9000005    2    1    2  501    0 -0.43402467036E+02 -0.68153993942E+02 -0.43878789621E+03  0.44617655856E+03  0.31563443697E+01 0.  0.
         13    1    3    3    0    0 -0.23432968820E+02 -0.39042658649E+02 -0.25265167641E+03  0.25672222891E+03  0.00000000000E+00 0.  1.
          1    1    3    3  501    0 -0.19969498216E+02 -0.29111335293E+02 -0.18613621980E+03  0.18945432965E+03  0.00000000000E+00 0.  1.
         -3    1    1    2    0  502  0.43402467036E+02  0.68153993942E+02 -0.55459017938E+03  0.56044536585E+03  0.00000000000E+00 0. -1.
<mgrwt>
<rscale>  1 0.30000000E+03</rscale>
<asrwt>0</asrwt>
<pdfrwt beam="1">  1       21 0.24079776E-01 0.30000000E+03</pdfrwt>
<pdfrwt beam="2">0</pdfrwt>
<totfact> 0.16780364E+03</totfact>
</mgrwt>
</event>
<event>
 6    1  0.6377696E-002  0.3000000E+03  0.7818608E-02  0.1093470E+00
         21   -1    0    0  501  502  0.00000000000E+00  0.00000000000E+00  0.18553867973E+01  0.18553867973E+01  0.00000000000E+00 0. -1.
         13   -1    0    0    0    0 -0.00000000000E+00 -0.00000000000E+00 -0.10000000000E+04  0.10000000000E+04  0.00000000000E+00 0.  1.
    9000005    2    1    2  501    0  0.10567525041E+02  0.35846007398E+02 -0.25109778308E+03  0.25387438756E+03  0.23450280566E+01 0.  0.
         13    1    3    3    0    0  0.55506397887E+01  0.14835850286E+02 -0.10799889032E+03  0.10915435111E+03  0.00000000000E+00 0.  1.
          3    1    3    3  501    0  0.50168852528E+01  0.21010157112E+02 -0.14309889276E+03  0.14472003644E+03  0.00000000000E+00 0.  1.
         -3    1    1    2    0  502 -0.10567525041E+02 -0.35846007398E+02 -0.74704683012E+03  0.74798099924E+03  0.00000000000E+00 0. -1.
<mgrwt>
<rscale>  1 0.30000000E+03</rscale>
<asrwt>0</asrwt>
<pdfrwt beam="1">  1       21 0.67468753E-02 0.30000000E+03</pdfrwt>
<pdfrwt beam="2">0</pdfrwt>
<totfact> 0.17201824E+04</totfact>
</mgrwt>
</event>
<event>
 6    1  0.6377696E-002  0.3000000E+03  0.7818608E-02  0.1093470E+00
         21   -1    0    0  501  502  0.00000000000E+00  0.00000000000E+00  0.15871399485E+01  0.15871399485E+01  0.00000000000E+00 0. -1.
         13   -1    0    0    0    0 -0.00000000000E+00 -0.00000000000E+00 -0.10000000000E+04  0.10000000000E+04  0.00000000000E+00 0.  1.
    9000005    2    1    2  501    0 -0.22406752137E+02  0.29628141285E+02 -0.67719989323E+03  0.67823337184E+03  0.45740557371E+01 0.  0.
         13    1    3    3    0    0 -0.19525553633E+02  0.23829302382E+02 -0.53521093507E+03  0.53609684565E+03  0.00000000000E+00 0.  1.
          1    1    3    3  501    0 -0.28811985037E+01  0.57988389030E+01 -0.14198895816E+03  0.14213652619E+03  0.00000000000E+00 0.  1.
         -1    1    1    2    0  502  0.22406752137E+02 -0.29628141285E+02 -0.32121296682E+03  0.32335376811E+03  0.00000000000E+00 0. -1.
<mgrwt>
<rscale>  1 0.30000000E+03</rscale>
<asrwt>0</asrwt>
<pdfrwt beam="1">  1       21 0.57714302E-02 0.30000000E+03</pdfrwt>
<pdfrwt beam="2">0</pdfrwt>
<totfact> 0.22530316E+04</totfact>
</mgrwt>
</event>
<event>
 6    1  0.6377696E-002  0.3000000E+03  0.7818608E-02  0.1093470E+00
         21   -1    0    0  501  502  0.00000000000E+00  0.00000000000E+00  0.16200515015E+01  0.16200515015E+01  0.00000000000E+00 0. -1.
         13   -1    0    0    0    0 -0.00000000000E+00 -0.00000000000E+00 -0.10000000000E+04  0.10000000000E+04  0.00000000000E+00 0.  1.
    9000005    2    1    2  501    0 -0.28921988274E+02 -0.26873330341E+02 -0.40702557318E+03  0.40894927063E+03  0.33213608215E+01 0.  0.
         13    1    3    3    0    0 -0.56001165113E+01 -0.69273180627E+01 -0.97581927100E+02  0.97987660126E+02  0.00000000000E+00 0.  1.
          3    1    3    3  501    0 -0.23321871762E+02 -0.19946012278E+02 -0.30944364608E+03  0.31096161050E+03  0.00000000000E+00 0.  1.
         -3    1    1    2    0  502  0.28921988274E+02  0.26873330341E+02 -0.59135437532E+03  0.59267078087E+03  0.00000000000E+00 0. -1.
<mgrwt>
<rscale>  1 0.30000000E+03</rscale>
<asrwt>0</asrwt>
<pdfrwt beam="1">  1       21 0.58911088E-02 0.30000000E+03</pdfrwt>
<pdfrwt beam="2">0</pdfrwt>
<totfact> 0.21747643E+04</totfact>
</mgrwt>
</event>
<event>
 6    1  0.6377696E-002  0.3000000E+03  0.7818608E-02  0.1093470E+00
         21   -1    0    0  501  502  0.00000000000E+00  0.00000000000E+00  0.98327933343E+00  0.98327933343E+00  0.00000000000E+00 0. -1.
         13   -1    0    0    0    0 -0.00000000000E+00 -0.00000000000E+00 -0.10000000000E+04  0.10000000000E+04  0.00000000000E+00 0.  1.
    9000005    2    1    2  501    0  0.29767485990E+02  0.91799123102E+01 -0.46381983281E+03  0.46488060001E+03  0.38419969423E+01 0.  0.
         13    1    3    3    0    0  0.19050258118E+02  0.39255410589E+01 -0.28854650637E+03  0.28920132874E+03  0.00000000000E+00 0.  1.
          3    1    3    3  501    0  0.10717227872E+02  0.52543712512E+01 -0.17527332645E+03  0.17567927127E+03  0.00000000000E+00 0.  1.
         -1    1    1    2    0  502 -0.29767485990E+02 -0.91799123102E+01 -0.53519688785E+03  0.53610267932E+03  0.00000000000E+00 0. -1.
<mgrwt>
<rscale>  1 0.30000000E+03</rscale>
<asrwt>0</asrwt>
<pdfrwt beam="1">  1       21 0.35755688E-02 0.30000000E+03</pdfrwt>
<pdfrwt beam="2">0</pdfrwt>
<totfact> 0.50766678E+04</totfact>
</mgrwt>
</event>
<event>
 6    1  0.6377696E-002  0.3000000E+03  0.7818608E-02  0.1093470E+00
         21   -1    0    0  501  502  0.00000000000E+00  0.00000000000E+00  0.32980879876E+01  0.32980879876E+01  0.00000000000E+00 0. -1.
         13   -1    0    0    0    0 -0.00000000000E+00 -0.00000000000E+00 -0.10000000000E+04  0.10000000000E+04  0.00000000000E+00 0.  1.
    9000005    2    1    2  501    0 -0.56682139390E+01 -0.57084336896E+02 -0.50483798926E+03  0.50810028036E+03  0.37080101856E+01 0.  0.
         13    1    3    3    0    0 -0.46637018766E+01 -0.51756774311E+02 -0.44780475576E+03  0.45080995229E+03  0.00000000000E+00 0.  1.
          1    1    3    3  501    0 -0.10045120624E+01 -0.53275625854E+01 -0.57033233501E+02  0.57290328077E+02  0.00000000000E+00 0.  1.
         -1    1    1    2    0  502  0.56682139390E+01  0.57084336896E+02 -0.49186392275E+03  0.49519780762E+03  0.00000000000E+00 0. -1.
<mgrwt>
<rscale>  1 0.30000000E+03</rscale>
<asrwt>0</asrwt>
<pdfrwt beam="1">  1       21 0.11993073E-01 0.30000000E+03</pdfrwt>
<pdfrwt beam="2">0</pdfrwt>
<totfact> 0.62036179E+03</totfact>
</mgrwt>
</event>
<event>
 6    1  0.6377696E-002  0.3000000E+03  0.7818608E-02  0.1093470E+00
         21   -1    0    0  501  502  0.00000000000E+00  0.00000000000E+00  0.14630339306E+01  0.14630339306E+01  0.00000000000E+00 0. -1.
         13   -1    0    0    0    0 -0.00000000000E+00 -0.00000000000E+00 -0.10000000000E+04  0.10000000000E+04  0.00000000000E+00 0.  1.
    9000005    2    1    2  501    0 -0.30567950822E+02  0.21817813261E+02 -0.47647921337E+03  0.47805620006E+03  0.97402795407E+01 0.  0.
         13    1    3    3    0    0  0.53391280743E+00  0.85870608590E-02 -0.24560087944E+01  0.25133873202E+01  0.00000000000E+00 0.  1.
          1    1    3    3  501    0 -0.31101863629E+02  0.21809226200E+02 -0.47402320457E+03  0.47554281274E+03  0.00000000000E+00 0.  1.
         -3    1    1    2    0  502  0.30567950822E+02 -0.21817813261E+02 -0.52205775270E+03  0.52340683388E+03  0.00000000000E+00 0. -1.
<mgrwt>
<rscale>  1 0.30000000E+03</rscale>
<asrwt>0</asrwt>
<pdfrwt beam="1">  1       21 0.53201346E-02 0.30000000E+03</pdfrwt>
<pdfrwt beam="2">0</pdfrwt>
<totfact> 0.25908278E+04</totfact>
</mgrwt>
</event>
<event>
 6    1  0.6377696E-002  0.3000000E+03  0.7818608E-02  0.1093470E+00
         21   -1    0    0  501  502  0.00000000000E+00  0.00000000000E+00  0.43061445919E+01  0.43061445919E+01  0.00000000000E+00 0. -1.
         13   -1    0    0    0    0 -0.00000000000E+00 -0.00000000000E+00 -0.10000000000E+04  0.10000000000E+04  0.00000000000E+00 0.  1.
    9000005    2    1    2  501    0 -0.51607608676E-01 -0.43839226751E+02 -0.87132086184E+03  0.87243301619E+03  0.41764811552E+01 0.  0.
         13    1    3    3    0    0 -0.19306883342E+01 -0.19462678628E+02 -0.40349041524E+03  0.40396415511E+03  0.00000000000E+00 0.  1.
          1    1    3    3  501    0  0.18790807255E+01 -0.24376548124E+02 -0.46783044659E+03  0.46846886108E+03  0.00000000000E+00 0.  1.
         -3    1    1    2    0  502  0.51607608676E-01  0.43839226751E+02 -0.12437299357E+03  0.13187312840E+03  0.00000000000E+00 0. -1.
<mgrwt>
<rscale>  1 0.30000000E+03</rscale>
<asrwt>0</asrwt>
<pdfrwt beam="1">  1       21 0.15658741E-01 0.30000000E+03</pdfrwt>
<pdfrwt beam="2">0</pdfrwt>
<totfact> 0.38023202E+03</totfact>
</mgrwt>
</event>
<event>
 6    1  0.6377696E-002  0.3000000E+03  0.7818608E-02  0.1093470E+00
         21   -1    0    0  501  502  0.00000000000E+00  0.00000000000E+00  0.15441117769E+01  0.15441117769E+01  0.00000000000E+00 0. -1.
         13   -1    0    0    0    0 -0.00000000000E+00 -0.00000000000E+00 -0.10000000000E+04  0.10000000000E+04  0.00000000000E+00 0.  1.
    9000005    2    1    2  501    0 -0.18915873026E+02 -0.28123153516E+02 -0.75191986259E+03  0.75268926663E+03  0.29883662502E+01 0.  0.
         13    1    3    3    0    0 -0.15009865572E+02 -0.24267661102E+02 -0.62799902645E+03  0.62864695391E+03  0.00000000000E+00 0.  1.
          1    1    3    3  501    0 -0.39060074540E+01 -0.38554924146E+01 -0.12392083614E+03  0.12404231272E+03  0.00000000000E+00 0.  1.
         -3    1    1    2    0  502  0.18915873026E+02  0.28123153516E+02 -0.24653602563E+03  0.24885484514E+03  0.00000000000E+00 0. -1.
<mgrwt>
<rscale>  1 0.30000000E+03</rscale>
<asrwt>0</asrwt>
<pdfrwt beam="1">  1       21 0.56149638E-02 0.30000000E+03</pdfrwt>
<pdfrwt beam="2">0</pdfrwt>
<totfact> 0.23620572E+04</totfact>
</mgrwt>
</event>
<event>
 6    1  0.6377696E-002  0.3000000E+03  0.7818608E-02  0.1093470E+00
         21   -1    0    0  501  502  0.00000000000E+00  0.00000000000E+00  0.27692725620E+01  0.27692725620E+01  0.00000000000E+00 0. -1.
         13   -1    0    0    0    0 -0.00000000000E+00 -0.00000000000E+00 -0.10000000000E+04  0.10000000000E+04  0.00000000000E+00 0.  1.
    9000005    2    1    2  501    0  0.35342283597E+02 -0.24509516689E+01 -0.86917887472E+03  0.86990708397E+03  0.33666454090E+01 0.  0.
         13    1    3    3    0    0  0.28158137308E+02 -0.61717571825E+00 -0.69513986934E+03  0.69571021233E+03  0.00000000000E+00 0.  1.
          1    1    3    3  501    0  0.71841462890E+01 -0.18337759507E+01 -0.17403900539E+03  0.17419687164E+03  0.00000000000E+00 0.  1.
         -1    1    1    2    0  502 -0.35342283597E+02  0.24509516689E+01 -0.12805185272E+03  0.13286218860E+03  0.00000000000E+00 0. -1.
<mgrwt>
<rscale>  1 0.30000000E+03</rscale>
<asrwt>0</asrwt>
<pdfrwt beam="1">  1       21 0.10070103E-01 0.30000000E+03</pdfrwt>
<pdfrwt beam="2">0</pdfrwt>
<totfact> 0.84964526E+03</totfact>
</mgrwt>
</event>
<event>
 6    1  0.6377696E-002  0.3000000E+03  0.7818608E-02  0.1093470E+00
         21   -1    0    0  501  502  0.00000000000E+00  0.00000000000E+00  0.22553495109E+01  0.22553495109E+01  0.00000000000E+00 0. -1.
         13   -1    0    0    0    0 -0.00000000000E+00 -0.00000000000E+00 -0.10000000000E+04  0.10000000000E+04  0.00000000000E+00 0.  1.
    9000005    2    1    2  501    0 -0.20285735529E+02  0.34470341124E+02 -0.23264806094E+03  0.23611403955E+03  0.50003931928E+01 0.  0.
         13    1    3    3    0    0 -0.92665082592E+01  0.13935937880E+02 -0.11090506542E+03  0.11216065297E+03  0.00000000000E+00 0.  1.
          3    1    3    3  501    0 -0.11019227270E+02  0.20534403244E+02 -0.12174299552E+03  0.12395338658E+03  0.00000000000E+00 0.  1.
         -3    1    1    2    0  502  0.20285735529E+02 -0.34470341124E+02 -0.76509658955E+03  0.76614130996E+03  0.00000000000E+00 0. -1.
<mgrwt>
<rscale>  1 0.30000000E+03</rscale>
<asrwt>0</asrwt>
<pdfrwt beam="1">  1       21 0.82012882E-02 0.30000000E+03</pdfrwt>
<pdfrwt beam="2">0</pdfrwt>
<totfact> 0.12227923E+04</totfact>
</mgrwt>
</event>
<event>
 6    1  0.6377696E-002  0.3000000E+03  0.7818608E-02  0.1093470E+00
         21   -1    0    0  501  502  0.00000000000E+00  0.00000000000E+00  0.11670331765E+01  0.11670331765E+01  0.00000000000E+00 0. -1.
         13   -1    0    0    0    0 -0.00000000000E+00 -0.00000000000E+00 -0.10000000000E+04  0.10000000000E+04  0.00000000000E+00 0.  1.
    9000005    2    1    2  501    0  0.31066233383E+02 -0.14194534669E+01 -0.70492051234E+03  0.70561389649E+03  0.33040123000E+01 0.  0.
         13    1    3    3    0    0  0.71156210472E+00  0.47851106261E+00 -0.20752004760E+02  0.20769713408E+02  0.00000000000E+00 0.  1.
          3    1    3    3  501    0  0.30354671278E+02 -0.18979645295E+01 -0.68416850758E+03  0.68484418308E+03  0.00000000000E+00 0.  1.
         -3    1    1    2    0  502 -0.31066233383E+02  0.14194534669E+01 -0.29391245449E+03  0.29555313669E+03  0.00000000000E+00 0. -1.
<mgrwt>
<rscale>  1 0.30000000E+03</rscale>
<asrwt>0</asrwt>
<pdfrwt beam="1">  1       21 0.42437660E-02 0.30000000E+03</pdfrwt>
<pdfrwt beam="2">0</pdfrwt>
<totfact> 0.38054221E+04</totfact>
</mgrwt>
</event>
<event>
 6    1  0.6377696E-002  0.3000000E+03  0.7818608E-02  0.1093470E+00
         21   -1    0    0  501  502  0.00000000000E+00  0.00000000000E+00  0.32827305868E+01  0.32827305868E+01  0.00000000000E+00 0. -1.
         13   -1    0    0    0    0 -0.00000000000E+00 -0.00000000000E+00 -0.10000000000E+04  0.10000000000E+04  0.00000000000E+00 0.  1.
    9000005    2    1    2  501    0 -0.10925632554E+02 -0.37618886687E+02 -0.86426639901E+03  0.86516038209E+03  0.33953213654E+01 0.  0.
         13    1    3    3    0    0 -0.53659373967E+01 -0.23356823993E+02 -0.50643008263E+03  0.50699680779E+03  0.00000000000E+00 0.  1.
          1    1    3    3  501    0 -0.55596951569E+01 -0.14262062694E+02 -0.35783631638E+03  0.35816357431E+03  0.00000000000E+00 0.  1.
         -1    1    1    2    0  502  0.10925632554E+02  0.37618886687E+02 -0.13245087040E+03  0.13812234849E+03  0.00000000000E+00 0. -1.
<mgrwt>
<rscale>  1 0.30000000E+03</rscale>
<asrwt>0</asrwt>
<pdfrwt beam="1">  1       21 0.11937227E-01 0.30000000E+03</pdfrwt>
<pdfrwt beam="2">0</pdfrwt>
<totfact> 0.62563731E+03</totfact>
</mgrwt>
</event>
<event>
 6    1  0.6377696E-002  0.3000000E+03  0.7818608E-02  0.1093470E+00
         21   -1    0    0  501  502  0.00000000000E+00  0.00000000000E+00  0.10611088289E+01  0.10611088289E+01  0.00000000000E+00 0. -1.
         13   -1    0    0    0    0 -0.00000000000E+00 -0.00000000000E+00 -0.10000000000E+04  0.10000000000E+04  0.00000000000E+00 0.  1.
    9000005    2    1    2  501    0 -0.16503854836E+02  0.26335781671E+02 -0.63610257143E+03  0.63689611114E+03  0.66501414135E+01 0.  0.
         13    1    3    3    0    0 -0.82547426611E+01  0.11056984020E+02 -0.22081075899E+03  0.22124147206E+03  0.00000000000E+00 0.  1.
          1    1    3    3  501    0 -0.82491121753E+01  0.15278797651E+02 -0.41529181244E+03  0.41565463908E+03  0.00000000000E+00 0.  1.
         -1    1    1    2    0  502  0.16503854836E+02 -0.26335781671E+02 -0.36283631974E+03  0.36416499769E+03  0.00000000000E+00 0. -1.
<mgrwt>
<rscale>  1 0.30000000E+03</rscale>
<asrwt>0</asrwt>
<pdfrwt beam="1">  1       21 0.38585857E-02 0.30000000E+03</pdfrwt>
<pdfrwt beam="2">0</pdfrwt>
<totfact> 0.44672494E+04</totfact>
</mgrwt>
</event>
<event>
 6    1  0.6377696E-002  0.3000000E+03  0.7818608E-02  0.1093470E+00
         21   -1    0    0  501  502  0.00000000000E+00  0.00000000000E+00  0.14998993022E+01  0.14998993022E+01  0.00000000000E+00 0. -1.
         13   -1    0    0    0    0 -0.00000000000E+00 -0.00000000000E+00 -0.10000000000E+04  0.10000000000E+04  0.00000000000E+00 0.  1.
    9000005    2    1    2  501    0  0.26741884133E+02 -0.26544662568E+02 -0.61196307199E+03  0.61313071664E+03  0.32751691226E+01 0.  0.
         13    1    3    3    0    0  0.97885513197E+01 -0.11300884776E+02 -0.22411874285E+03  0.22461686631E+03  0.00000000000E+00 0.  1.
          3    1    3    3  501    0  0.16953332813E+02 -0.15243777791E+02 -0.38784432914E+03  0.38851385033E+03  0.00000000000E+00 0.  1.
         -1    1    1    2    0  502 -0.26741884133E+02  0.26544662568E+02 -0.38653702871E+03  0.38836918266E+03  0.00000000000E+00 0. -1.
<mgrwt>
<rscale>  1 0.30000000E+03</rscale>
<asrwt>0</asrwt>
<pdfrwt beam="1">  1       21 0.54541908E-02 0.30000000E+03</pdfrwt>
<pdfrwt beam="2">0</pdfrwt>
<totfact> 0.24827559E+04</totfact>
</mgrwt>
</event>
<event>
 6    1  0.6377696E-002  0.3000000E+03  0.7818608E-02  0.1093470E+00
         21   -1    0    0  501  502  0.00000000000E+00  0.00000000000E+00  0.37587399761E+01  0.37587399761E+01  0.00000000000E+00 0. -1.
         13   -1    0    0    0    0 -0.00000000000E+00 -0.00000000000E+00 -0.10000000000E+04  0.10000000000E+04  0.00000000000E+00 0.  1.
    9000005    2    1    2  501    0  0.30211326226E+01  0.61115672954E+02 -0.47322561867E+03  0.47717577992E+03  0.31600714512E+01 0.  0.
         13    1    3    3    0    0  0.28770916696E+01  0.51040217359E+02 -0.38621284127E+03  0.38958149367E+03  0.00000000000E+00 0.  1.
          1    1    3    3  501    0  0.14404095307E+00  0.10075455596E+02 -0.87012777403E+02  0.87594286255E+02  0.00000000000E+00 0.  1.
         -3    1    1    2    0  502 -0.30211326226E+01 -0.61115672954E+02 -0.52301564135E+03  0.52658296005E+03  0.00000000000E+00 0. -1.
<mgrwt>
<rscale>  1 0.30000000E+03</rscale>
<asrwt>0</asrwt>
<pdfrwt beam="1">  1       21 0.13668174E-01 0.30000000E+03</pdfrwt>
<pdfrwt beam="2">0</pdfrwt>
<totfact> 0.48871643E+03</totfact>
</mgrwt>
</event>
<event>
 6    1  0.6377696E-002  0.3000000E+03  0.7818608E-02  0.1093470E+00
         21   -1    0    0  501  502  0.00000000000E+00  0.00000000000E+00  0.21526028820E+01  0.21526028820E+01  0.00000000000E+00 0. -1.
         13   -1    0    0    0    0 -0.00000000000E+00 -0.00000000000E+00 -0.10000000000E+04  0.10000000000E+04  0.00000000000E+00 0.  1.
    9000005    2    1    2  501    0 -0.36682725988E+02  0.28401410525E+02 -0.49646213405E+03  0.49862559812E+03  0.75765859205E+00 0.  0.
         13    1    3    3    0    0 -0.21163715675E+02  0.16857462414E+02 -0.28975010759E+03  0.29101065573E+03  0.00000000000E+00 0.  1.
          1    1    3    3  501    0 -0.15519010313E+02  0.11543948111E+02 -0.20671202646E+03  0.20761494238E+03  0.00000000000E+00 0.  1.
         -3    1    1    2    0  502  0.36682725988E+02 -0.28401410525E+02 -0.50138526307E+03  0.50352700476E+03  0.00000000000E+00 0. -1.
<mgrwt>
<rscale>  1 0.30000000E+03</rscale>
<asrwt>0</asrwt>
<pdfrwt beam="1">  1       21 0.78276634E-02 0.30000000E+03</pdfrwt>
<pdfrwt beam="2">0</pdfrwt>
<totfact> 0.13271647E+04</totfact>
</mgrwt>
</event>
<event>
 6    1  0.6377696E-002  0.3000000E+03  0.7818608E-02  0.1093470E+00
         21   -1    0    0  501  502  0.00000000000E+00  0.00000000000E+00  0.42856215313E+01  0.42856215313E+01  0.00000000000E+00 0. -1.
         13   -1    0    0    0    0 -0.00000000000E+00 -0.00000000000E+00 -0.10000000000E+04  0.10000000000E+04  0.00000000000E+00 0.  1.
    9000005    2    1    2  501    0  0.38915432114E+01  0.47983259122E+02 -0.15907715498E+03  0.16626451142E+03  0.45617164368E+01 0.  0.
         13    1    3    3    0    0 -0.13519580599E+00  0.15633069630E+02 -0.57250948434E+02  0.59347133381E+02  0.00000000000E+00 0.  1.
          3    1    3    3  501    0  0.40267390174E+01  0.32350189492E+02 -0.10182620654E+03  0.10691737804E+03  0.00000000000E+00 0.  1.
         -3    1    1    2    0  502 -0.38915432114E+01 -0.47983259122E+02 -0.83663722349E+03  0.83802111011E+03  0.00000000000E+00 0. -1.
<mgrwt>
<rscale>  1 0.30000000E+03</rscale>
<asrwt>0</asrwt>
<pdfrwt beam="1">  1       21 0.15584111E-01 0.30000000E+03</pdfrwt>
<pdfrwt beam="2">0</pdfrwt>
<totfact> 0.38362682E+03</totfact>
</mgrwt>
</event>
<event>
 6    1  0.6377696E-002  0.3000000E+03  0.7818608E-02  0.1093470E+00
         21   -1    0    0  501  502  0.00000000000E+00  0.00000000000E+00  0.14814984141E+01  0.14814984141E+01  0.00000000000E+00 0. -1.
         13   -1    0    0    0    0 -0.00000000000E+00 -0.00000000000E+00 -0.10000000000E+04  0.10000000000E+04  0.00000000000E+00 0.  1.
    9000005    2    1    2  501    0 -0.31025430264E+02  0.16199916162E+02 -0.29730132893E+03  0.29939137753E+03  0.47012926658E+01 0.  0.
         13    1    3    3    0    0 -0.69356704109E+01  0.21579769901E+01 -0.74083021001E+02  0.74438258909E+02  0.00000000000E+00 0.  1.
          3    1    3    3  501    0 -0.24089759853E+02  0.14041939172E+02 -0.22321830793E+03  0.22495311863E+03  0.00000000000E+00 0.  1.
         -1    1    1    2    0  502  0.31025430264E+02 -0.16199916162E+02 -0.70121717266E+03  0.70209012088E+03  0.00000000000E+00 0. -1.
<mgrwt>
<rscale>  1 0.30000000E+03</rscale>
<asrwt>0</asrwt>
<pdfrwt beam="1">  1       21 0.53872783E-02 0.30000000E+03</pdfrwt>
<pdfrwt beam="2">0</pdfrwt>
<totfact> 0.25358098E+04</totfact>
</mgrwt>
</event>
<event>
 6    1  0.6377696E-002  0.3000000E+03  0.7818608E-02  0.1093470E+00
         21   -1    0    0  501  502  0.00000000000E+00  0.00000000000E+00  0.28058047805E+01  0.28058047805E+01  0.00000000000E+00 0. -1.
         13   -1    0    0    0    0 -0.00000000000E+00 -0.00000000000E+00 -0.10000000000E+04  0.10000000000E+04  0.00000000000E+00 0.  1.
    9000005    2    1    2  501    0  0.34041229168E+02 -0.17274748673E+02 -0.15218301136E+03  0.15693281014E+03  0.33189945638E+01 0.  0.
         13    1    3    3    0    0  0.18767753663E+02 -0.85399526970E+01 -0.87825253769E+02  0.90213272689E+02  0.00000000000E+00 0.  1.
          3    1    3    3  501    0  0.15273475505E+02 -0.87347959762E+01 -0.64357757593E+02  0.66719537447E+02  0.00000000000E+00 0.  1.
         -1    1    1    2    0  502 -0.34041229168E+02  0.17274748673E+02 -0.84501118386E+03  0.84587299464E+03  0.00000000000E+00 0. -1.
<mgrwt>
<rscale>  1 0.30000000E+03</rscale>
<asrwt>0</asrwt>
<pdfrwt beam="1">  1       21 0.10202948E-01 0.30000000E+03</pdfrwt>
<pdfrwt beam="2">0</pdfrwt>
<totfact> 0.82996347E+03</totfact>
</mgrwt>
</event>
<event>
 6    1  0.6377696E-002  0.3000000E+03  0.7818608E-02  0.1093470E+00
         21   -1    0    0  501  502  0.00000000000E+00  0.00000000000E+00  0.12820950201E+01  0.12820950201E+01  0.00000000000E+00 0. -1.
         13   -1    0    0    0    0 -0.00000000000E+00 -0.00000000000E+00 -0.10000000000E+04  0.10000000000E+04  0.00000000000E+00 0.  1.
    9000005    2    1    2  501    0 -0.15973290143E+02 -0.28582954535E+02 -0.68746343819E+03  0.68831009246E+03  0.96266946811E+01 0.  0.
         13    1    3    3    0    0  0.13370926428E+01 -0.20525416680E+01 -0.50937286773E+02  0.50996156010E+02  0.00000000000E+00 0.  1.
          3    1    3    3  501    0 -0.17310382786E+02 -0.26530412867E+02 -0.63652615142E+03  0.63731393645E+03  0.00000000000E+00 0.  1.
         -3    1    1    2    0  502  0.15973290143E+02  0.28582954535E+02 -0.31125446679E+03  0.31297200256E+03  0.00000000000E+00 0. -1.
<mgrwt>
<rscale>  1 0.30000000E+03</rscale>
<asrwt>0</asrwt>
<pdfrwt beam="1">  1       21 0.46621735E-02 0.30000000E+03</pdfrwt>
<pdfrwt beam="2">0</pdfrwt>
<totfact> 0.32447013E+04</totfact>
</mgrwt>
</event>
<event>
 6    1  0.6377696E-002  0.3000000E+03  0.7818608E-02  0.1093470E+00
         21   -1    0    0  501  502  0.00000000000E+00  0.00000000000E+00  0.37967679192E+01  0.37967679192E+01  0.00000000000E+00 0. -1.
         13   -1    0    0    0    0 -0.00000000000E+00 -0.00000000000E+00 -0.10000000000E+04  0.10000000000E+04  0.00000000000E+00 0.  1.
    9000005    2    1    2  501    0  0.60756170047E+02  0.98395641658E+01 -0.51436347355E+03  0.51804201280E+03  0.31007869537E+01 0.  0.
         13    1    3    3    0    0  0.21637130973E+02  0.21685888096E+01 -0.18727289910E+03  0.18853118297E+03  0.00000000000E+00 0.  1.
          3    1    3    3  501    0  0.39119039074E+02  0.76709753562E+01 -0.32709057445E+03  0.32951082983E+03  0.00000000000E+00 0.  1.
         -1    1    1    2    0  502 -0.60756170047E+02 -0.98395641658E+01 -0.48183975853E+03  0.48575475512E+03  0.00000000000E+00 0. -1.
<mgrwt>
<rscale>  1 0.30000000E+03</rscale>
<asrwt>0</asrwt>
<pdfrwt beam="1">  1       21 0.13806458E-01 0.30000000E+03</pdfrwt>
<pdfrwt beam="2">0</pdfrwt>
<totfact> 0.47977580E+03</totfact>
</mgrwt>
</event>
<event>
 6    1  0.6377696E-002  0.3000000E+03  0.7818608E-02  0.1093470E+00
         21   -1    0    0  501  502  0.00000000000E+00  0.00000000000E+00  0.10366682320E+01  0.10366682320E+01  0.00000000000E+00 0. -1.
         13   -1    0    0    0    0 -0.00000000000E+00 -0.00000000000E+00 -0.10000000000E+04  0.10000000000E+04  0.00000000000E+00 0.  1.
    9000005    2    1    2  501    0 -0.29012155272E+02 -0.11086604445E+02 -0.62747067858E+03  0.62824797564E+03  0.33835582776E+01 0.  0.
         13    1    3    3    0    0 -0.49661499042E+01 -0.58898208069E+00 -0.10396296556E+03  0.10408317709E+03  0.00000000000E+00 0.  1.
          1    1    3    3  501    0 -0.24046005368E+02 -0.10497622364E+02 -0.52350771301E+03  0.52416479854E+03  0.00000000000E+00 0.  1.
         -3    1    1    2    0  502  0.29012155272E+02  0.11086604445E+02 -0.37149265319E+03  0.37278869259E+03  0.00000000000E+00 0. -1.
<mgrwt>
<rscale>  1 0.30000000E+03</rscale>
<asrwt>0</asrwt>
<pdfrwt beam="1">  1       21 0.37697106E-02 0.30000000E+03</pdfrwt>
<pdfrwt beam="2">0</pdfrwt>
<totfact> 0.46456451E+04</totfact>
</mgrwt>
</event>
<event>
 6    1  0.6377696E-002  0.3000000E+03  0.7818608E-02  0.1093470E+00
         21   -1    0    0  501  502  0.00000000000E+00  0.00000000000E+00  0.32050227335E+01  0.32050227335E+01  0.00000000000E+00 0. -1.
         13   -1    0    0    0    0 -0.00000000000E+00 -0.00000000000E+00 -0.10000000000E+04  0.10000000000E+04  0.00000000000E+00 0.  1.
    9000005    2    1    2  501    0 -0.25642967665E+02 -0.40129972662E+02 -0.76930357578E+03  0.77078231677E+03  0.30678401295E+01 0.  0.
         13    1    3    3    0    0 -0.11305198701E+02 -0.19610877997E+02 -0.34709181568E+03  0.34782915715E+03  0.00000000000E+00 0.  1.
          3    1    3    3  501    0 -0.14337768964E+02 -0.20519094664E+02 -0.42221176010E+03  0.42295315961E+03  0.00000000000E+00 0.  1.
         -1    1    1    2    0  502  0.25642967665E+02  0.40129972662E+02 -0.22749140149E+03  0.23242270597E+03  0.00000000000E+00 0. -1.
<mgrwt>
<rscale>  1 0.30000000E+03</rscale>
<asrwt>0</asrwt>
<pdfrwt beam="1">  1       21 0.11654653E-01 0.30000000E+03</pdfrwt>
<pdfrwt beam="2">0</pdfrwt>
<totfact> 0.65338439E+03</totfact>
</mgrwt>
</event>
<event>
 6    1  0.6377696E-002  0.3000000E+03  0.7818608E-02  0.1093470E+00
         21   -1    0    0  501  502  0.00000000000E+00  0.00000000000E+00  0.13511953802E+01  0.13511953802E+01  0.00000000000E+00 0. -1.
         13   -1    0    0    0    0 -0.00000000000E+00 -0.00000000000E+00 -0.10000000000E+04  0.10000000000E+04  0.00000000000E+00 0.  1.
    9000005    2    1    2  501    0  0.91507361387E+01  0.32959031293E+02 -0.67857901509E+03  0.67945881603E+03  0.49768706446E+01 0.  0.
         13    1    3    3    0    0  0.75687090889E+01  0.18297513508E+02 -0.39977494091E+03  0.40026502188E+03  0.00000000000E+00 0.  1.
          3    1    3    3  501    0  0.15820270498E+01  0.14661517785E+02 -0.27880407418E+03  0.27919379415E+03  0.00000000000E+00 0.  1.
         -3    1    1    2    0  502 -0.91507361387E+01 -0.32959031293E+02 -0.32006978953E+03  0.32189237935E+03  0.00000000000E+00 0. -1.
<mgrwt>
<rscale>  1 0.30000000E+03</rscale>
<asrwt>0</asrwt>
<pdfrwt beam="1">  1       21 0.49134481E-02 0.30000000E+03</pdfrwt>
<pdfrwt beam="2">0</pdfrwt>
<totfact> 0.29674627E+04</totfact>
</mgrwt>
</event>
<event>
 6    1  0.6377696E-002  0.3000000E+03  0.7818608E-02  0.1093470E+00
         21   -1    0    0  501  502  0.00000000000E+00  0.00000000000E+00  0.13903071603E+01  0.13903071603E+01  0.00000000000E+00 0. -1.
         13   -1    0    0    0    0 -0.00000000000E+00 -0.00000000000E+00 -0.10000000000E+04  0.10000000000E+04  0.00000000000E+00 0.  1.
    9000005    2    1    2  501    0 -0.12283618651E+02  0.33674746435E+02 -0.36675181272E+03  0.36851649944E+03  0.35556136199E+01 0.  0.
         13    1    3    3    0    0 -0.54674940244E+01  0.17984388584E+02 -0.20677722491E+03  0.20762984483E+03  0.00000000000E+00 0.  1.
          3    1    3    3  501    0 -0.68161246269E+01  0.15690357851E+02 -0.15997458782E+03  0.16088665461E+03  0.00000000000E+00 0.  1.
         -3    1    1    2    0  502  0.12283618651E+02 -0.33674746435E+02 -0.63185788011E+03  0.63287380772E+03  0.00000000000E+00 0. -1.
<mgrwt>
<rscale>  1 0.30000000E+03</rscale>
<asrwt>0</asrwt>
<pdfrwt beam="1">  1       21 0.50556731E-02 0.30000000E+03</pdfrwt>
<pdfrwt beam="2">0</pdfrwt>
<totfact> 0.28265874E+04</totfact>
</mgrwt>
</event>
<event>
 6    1  0.6377696E-002  0.3000000E+03  0.7818608E-02  0.1093470E+00
         21   -1    0    0  501  502  0.00000000000E+00  0.00000000000E+00  0.16123841331E+01  0.16123841331E+01  0.00000000000E+00 0. -1.
         13   -1    0    0    0    0 -0.00000000000E+00 -0.00000000000E+00 -0.10000000000E+04  0.10000000000E+04  0.00000000000E+00 0.  1.
    9000005    2    1    2  501    0  0.15845756110E+02 -0.34608892143E+02 -0.34355750132E+03  0.34567691298E+03  0.34508043336E+01 0.  0.
         13    1    3    3    0    0  0.10103385142E+02 -0.20204440644E+02 -0.18987274450E+03  0.19121181166E+03  0.00000000000E+00 0.  1.
          1    1    3    3  501    0  0.57423709679E+01 -0.14404451499E+02 -0.15368475682E+03  0.15446510132E+03  0.00000000000E+00 0.  1.
         -1    1    1    2    0  502 -0.15845756110E+02  0.34608892143E+02 -0.65483011455E+03  0.65593547116E+03  0.00000000000E+00 0. -1.
<mgrwt>
<rscale>  1 0.30000000E+03</rscale>
<asrwt>0</asrwt>
<pdfrwt beam="1">  1       21 0.58632274E-02 0.30000000E+03</pdfrwt>
<pdfrwt beam="2">0</pdfrwt>
<totfact> 0.21926168E+04</totfact>
</mgrwt>
</event>
<event>
 6    1  0.6377696E-002  0.3000000E+03  0.7818608E-02  0.1093470E+00
         21   -1    0    0  501  502  0.00000000000E+00  0.00000000000E+00  0.12719013334E+01  0.12719013334E+01  0.00000000000E+00 0. -1.
         13   -1    0    0    0    0 -0.00000000000E+00 -0.00000000000E+00 -0.10000000000E+04  0.10000000000E+04  0.00000000000E+00 0.  1.
    9000005    2    1    2  501    0  0.20038006351E+02  0.28371876886E+02 -0.60868938942E+03  0.60968962414E+03  0.34899716671E+01 0.  0.
         13    1    3    3    0    0  0.12843445327E+02  0.20818831708E+02 -0.43516459002E+03  0.43585157823E+03  0.00000000000E+00 0.  1.
          3    1    3    3  501    0  0.71945610236E+01  0.75530451784E+01 -0.17352479940E+03  0.17383804591E+03  0.00000000000E+00 0.  1.
         -1    1    1    2    0  502 -0.20038006351E+02 -0.28371876886E+02 -0.39003870925E+03  0.39158227719E+03  0.00000000000E+00 0. -1.
<mgrwt>
<rscale>  1 0.30000000E+03</rscale>
<asrwt>0</asrwt>
<pdfrwt beam="1">  1       21 0.46251055E-02 0.30000000E+03</pdfrwt>
<pdfrwt beam="2">0</pdfrwt>
<totfact> 0.32890202E+04</totfact>
</mgrwt>
</event>
<event>
 6    1  0.6377696E-002  0.3000000E+03  0.7818608E-02  0.1093470E+00
         21   -1    0    0  501  502  0.00000000000E+00  0.00000000000E+00  0.20744316440E+01  0.20744316440E+01  0.00000000000E+00 0. -1.
         13   -1    0    0    0    0 -0.00000000000E+00 -0.00000000000E+00 -0.10000000000E+04  0.10000000000E+04  0.00000000000E+00 0.  1.
    9000005    2    1    2  501    0  0.41764467237E+02 -0.66863755325E+01 -0.68398080772E+03  0.68529329099E+03  0.28584977673E+01 0.  0.
         13    1    3    3    0    0  0.14646231113E+02 -0.17178412914E+01 -0.25834696110E+03  0.25876749289E+03  0.00000000000E+00 0.  1.
          3    1    3    3  501    0  0.27118236124E+02 -0.49685342412E+01 -0.42563384661E+03  0.42652579810E+03  0.00000000000E+00 0.  1.
         -1    1    1    2    0  502 -0.41764467237E+02  0.66863755325E+01 -0.31394476064E+03  0.31678114066E+03  0.00000000000E+00 0. -1.
<mgrwt>
<rscale>  1 0.30000000E+03</rscale>
<asrwt>0</asrwt>
<pdfrwt beam="1">  1       21 0.75434037E-02 0.30000000E+03</pdfrwt>
<pdfrwt beam="2">0</pdfrwt>
<totfact> 0.14160650E+04</totfact>
</mgrwt>
</event>
<event>
 6    1  0.6377696E-002  0.3000000E+03  0.7818608E-02  0.1093470E+00
         21   -1    0    0  501  502  0.00000000000E+00  0.00000000000E+00  0.92203061604E+00  0.92203061604E+00  0.00000000000E+00 0. -1.
         13   -1    0    0    0    0 -0.00000000000E+00 -0.00000000000E+00 -0.10000000000E+04  0.10000000000E+04  0.00000000000E+00 0.  1.
    9000005    2    1    2  501    0  0.18664373204E+02  0.23792584382E+02 -0.51707841813E+03  0.51797481475E+03  0.36568191429E+01 0.  0.
         13    1    3    3    0    0  0.14495308855E+02  0.16657203815E+02 -0.35534348645E+03  0.35602888896E+03  0.00000000000E+00 0.  1.
          3    1    3    3  501    0  0.41690643498E+01  0.71353805667E+01 -0.16173493168E+03  0.16194592579E+03  0.00000000000E+00 0.  1.
         -3    1    1    2    0  502 -0.18664373204E+02 -0.23792584382E+02 -0.48199955126E+03  0.48294721587E+03  0.00000000000E+00 0. -1.
<mgrwt>
<rscale>  1 0.30000000E+03</rscale>
<asrwt>0</asrwt>
<pdfrwt beam="1">  1       21 0.33528457E-02 0.30000000E+03</pdfrwt>
<pdfrwt beam="2">0</pdfrwt>
<totfact> 0.56534607E+04</totfact>
</mgrwt>
</event>
<event>
 6    1  0.6377696E-002  0.3000000E+03  0.7818608E-02  0.1093470E+00
         21   -1    0    0  501  502  0.00000000000E+00  0.00000000000E+00  0.10837362014E+01  0.10837362014E+01  0.00000000000E+00 0. -1.
         13   -1    0    0    0    0 -0.00000000000E+00 -0.00000000000E+00 -0.10000000000E+04  0.10000000000E+04  0.00000000000E+00 0.  1.
    9000005    2    1    2  501    0 -0.30523945972E+02 -0.12118513726E+02 -0.51402882594E+03  0.51508538533E+03  0.29581472128E+01 0.  0.
         13    1    3    3    0    0 -0.24422989194E+02 -0.91933102088E+01 -0.38993621449E+03  0.39080845785E+03  0.00000000000E+00 0.  1.
          1    1    3    3  501    0 -0.61009567779E+01 -0.29252035176E+01 -0.12409261145E+03  0.12427692749E+03  0.00000000000E+00 0.  1.
         -3    1    1    2    0  502  0.30523945972E+02  0.12118513726E+02 -0.48488743786E+03  0.48599835087E+03  0.00000000000E+00 0. -1.
<mgrwt>
<rscale>  1 0.30000000E+03</rscale>
<asrwt>0</asrwt>
<pdfrwt beam="1">  1       21 0.39408672E-02 0.30000000E+03</pdfrwt>
<pdfrwt beam="2">0</pdfrwt>
<totfact> 0.43114861E+04</totfact>
</mgrwt>
</event>
<event>
 6    1  0.6377696E-002  0.3000000E+03  0.7818608E-02  0.1093470E+00
         21   -1    0    0  501  502  0.00000000000E+00  0.00000000000E+00  0.64339785267E+01  0.64339785267E+01  0.00000000000E+00 0. -1.
         13   -1    0    0    0    0 -0.00000000000E+00 -0.00000000000E+00 -0.10000000000E+04  0.10000000000E+04  0.00000000000E+00 0.  1.
    9000005    2    1    2  501    0  0.59128090381E+02 -0.25513170184E+02 -0.79663304449E+03  0.79923926250E+03  0.34839958211E+01 0.  0.
         13    1    3    3    0    0  0.30296914225E+02 -0.11181807212E+02 -0.39717144555E+03  0.39848223672E+03  0.00000000000E+00 0.  1.
          1    1    3    3  501    0  0.28831176156E+02 -0.14331362972E+02 -0.39946159894E+03  0.40075702578E+03  0.00000000000E+00 0.  1.
         -3    1    1    2    0  502 -0.59128090381E+02  0.25513170184E+02 -0.19693297698E+03  0.20719471603E+03  0.00000000000E+00 0. -1.
<mgrwt>
<rscale>  1 0.30000000E+03</rscale>
<asrwt>0</asrwt>
<pdfrwt beam="1">  1       21 0.23396335E-01 0.30000000E+03</pdfrwt>
<pdfrwt beam="2">0</pdfrwt>
<totfact> 0.17745702E+03</totfact>
</mgrwt>
</event>
<event>
 6    1  0.6377696E-002  0.3000000E+03  0.7818608E-02  0.1093470E+00
         21   -1    0    0  501  502  0.00000000000E+00  0.00000000000E+00  0.10216998041E+01  0.10216998041E+01  0.00000000000E+00 0. -1.
         13   -1    0    0    0    0 -0.00000000000E+00 -0.00000000000E+00 -0.10000000000E+04  0.10000000000E+04  0.00000000000E+00 0.  1.
    9000005    2    1    2  501    0  0.15273282544E+02 -0.26421323535E+02 -0.35573679429E+03  0.35705664298E+03  0.30691992015E+01 0.  0.
         13    1    3    3    0    0  0.76107765581E+01 -0.11611160779E+02 -0.17705031355E+03  0.17759379635E+03  0.00000000000E+00 0.  1.
          1    1    3    3  501    0  0.76625059864E+01 -0.14810162756E+02 -0.17868648075E+03  0.17946284663E+03  0.00000000000E+00 0.  1.
         -1    1    1    2    0  502 -0.15273282544E+02  0.26421323535E+02 -0.64324150590E+03  0.64396505683E+03  0.00000000000E+00 0. -1.
<mgrwt>
<rscale>  1 0.30000000E+03</rscale>
<asrwt>0</asrwt>
<pdfrwt beam="1">  1       21 0.37152798E-02 0.30000000E+03</pdfrwt>
<pdfrwt beam="2">0</pdfrwt>
<totfact> 0.47604977E+04</totfact>
</mgrwt>
</event>
<event>
 6    1  0.6377696E-002  0.3000000E+03  0.7818608E-02  0.1093470E+00
         21   -1    0    0  501  502  0.00000000000E+00  0.00000000000E+00  0.97801986695E+00  0.97801986695E+00  0.00000000000E+00 0. -1.
         13   -1    0    0    0    0 -0.00000000000E+00 -0.00000000000E+00 -0.10000000000E+04  0.10000000000E+04  0.00000000000E+00 0.  1.
    9000005    2    1    2  501    0  0.28783970148E+02 -0.10076224619E+02 -0.60521653205E+03  0.60599349083E+03  0.33185869822E+01 0.  0.
         13    1    3    3    0    0  0.12500803916E+02 -0.59617367320E+01 -0.28738156378E+03  0.28771509450E+03  0.00000000000E+00 0.  1.
          3    1    3    3  501    0  0.16283166231E+02 -0.41144878870E+01 -0.31783496827E+03  0.31827839632E+03  0.00000000000E+00 0.  1.
         -3    1    1    2    0  502 -0.28783970148E+02  0.10076224619E+02 -0.39380544808E+03  0.39498452904E+03  0.00000000000E+00 0. -1.
<mgrwt>
<rscale>  1 0.30000000E+03</rscale>
<asrwt>0</asrwt>
<pdfrwt beam="1">  1       21 0.35564434E-02 0.30000000E+03</pdfrwt>
<pdfrwt beam="2">0</pdfrwt>
<totfact> 0.51225200E+04</totfact>
</mgrwt>
</event>
<event>
 6    1  0.6377696E-002  0.3000000E+03  0.7818608E-02  0.1093470E+00
         21   -1    0    0  501  502  0.00000000000E+00  0.00000000000E+00  0.26927094410E+01  0.26927094410E+01  0.00000000000E+00 0. -1.
         13   -1    0    0    0    0 -0.00000000000E+00 -0.00000000000E+00 -0.10000000000E+04  0.10000000000E+04  0.00000000000E+00 0.  1.
    9000005    2    1    2  501    0 -0.47042434980E+02 -0.91536761447E+01 -0.68843588757E+03  0.69012539819E+03  0.56844931433E+01 0.  0.
         13    1    3    3    0    0 -0.28665387174E+02 -0.83889602858E+01 -0.42650659180E+03  0.42755111031E+03  0.00000000000E+00 0.  1.
          3    1    3    3  501    0 -0.18377047806E+02 -0.76471585888E+00 -0.26192929577E+03  0.26257428789E+03  0.00000000000E+00 0.  1.
         -1    1    1    2    0  502  0.47042434980E+02  0.91536761447E+01 -0.30887140299E+03  0.31256731125E+03  0.00000000000E+00 0. -1.
<mgrwt>
<rscale>  1 0.30000000E+03</rscale>
<asrwt>0</asrwt>
<pdfrwt beam="1">  1       21 0.97916913E-02 0.30000000E+03</pdfrwt>
<pdfrwt beam="2">0</pdfrwt>
<totfact> 0.89327611E+03</totfact>
</mgrwt>
</event>
<event>
 6    1  0.6377696E-002  0.3000000E+03  0.7818608E-02  0.1093470E+00
         21   -1    0    0  501  502  0.00000000000E+00  0.00000000000E+00  0.49138974728E+01  0.49138974728E+01  0.00000000000E+00 0. -1.
         13   -1    0    0    0    0 -0.00000000000E+00 -0.00000000000E+00 -0.10000000000E+04  0.10000000000E+04  0.00000000000E+00 0.  1.
    9000005    2    1    2  501    0  0.15750997848E+01 -0.68769633125E+02 -0.40250989475E+03  0.40835853089E+03  0.32758199769E+01 0.  0.
         13    1    3    3    0    0  0.19301144071E+01 -0.23518532128E+02 -0.13386795196E+03  0.13593187727E+03  0.00000000000E+00 0.  1.
          1    1    3    3  501    0 -0.35501462226E+00 -0.45251100997E+02 -0.26864194279E+03  0.27242665362E+03  0.00000000000E+00 0.  1.
         -1    1    1    2    0  502 -0.15750997848E+01  0.68769633125E+02 -0.59257620778E+03  0.59655536658E+03  0.00000000000E+00 0. -1.
<mgrwt>
<rscale>  1 0.30000000E+03</rscale>
<asrwt>0</asrwt>
<pdfrwt beam="1">  1       21 0.17868756E-01 0.30000000E+03</pdfrwt>
<pdfrwt beam="2">0</pdfrwt>
<totfact> 0.29701936E+03</totfact>
</mgrwt>
</event>
<event>
 6    1  0.6377696E-002  0.3000000E+03  0.7818608E-02  0.1093470E+00
         21   -1    0    0  501  502  0.00000000000E+00  0.00000000000E+00  0.11359298081E+01  0.11359298081E+01  0.00000000000E+00 0. -1.
         13   -1    0    0    0    0 -0.00000000000E+00 -0.00000000000E+00 -0.10000000000E+04  0.10000000000E+04  0.00000000000E+00 0.  1.
    9000005    2    1    2  501    0 -0.13590518692E+02  0.29542360601E+02 -0.62659904357E+03  0.62745330603E+03  0.37197549028E+01 0.  0.
         13    1    3    3    0    0 -0.24738473864E+01  0.38465933041E+01 -0.68553924309E+02  0.68706307855E+02  0.00000000000E+00 0.  1.
          3    1    3    3  501    0 -0.11116671305E+02  0.25695767297E+02 -0.55804511926E+03  0.55874699817E+03  0.00000000000E+00 0.  1.
         -1    1    1    2    0  502  0.13590518692E+02 -0.29542360601E+02 -0.37226502662E+03  0.37368262378E+03  0.00000000000E+00 0. -1.
<mgrwt>
<rscale>  1 0.30000000E+03</rscale>
<asrwt>0</asrwt>
<pdfrwt beam="1">  1       21 0.41306626E-02 0.30000000E+03</pdfrwt>
<pdfrwt beam="2">0</pdfrwt>
<totfact> 0.39829951E+04</totfact>
</mgrwt>
</event>
<event>
 6    1  0.6377696E-002  0.3000000E+03  0.7818608E-02  0.1093470E+00
         21   -1    0    0  501  502  0.00000000000E+00  0.00000000000E+00  0.10610424319E+01  0.10610424319E+01  0.00000000000E+00 0. -1.
         13   -1    0    0    0    0 -0.00000000000E+00 -0.00000000000E+00 -0.10000000000E+04  0.10000000000E+04  0.00000000000E+00 0.  1.
    9000005    2    1    2  501    0  0.30509207575E+02  0.60909191246E+01 -0.35641756489E+03  0.35778687764E+03  0.31714673217E+01 0.  0.
         13    1    3    3    0    0  0.26714541888E+02  0.43315320069E+01 -0.30347841424E+03  0.30468274783E+03  0.00000000000E+00 0.  1.
          1    1    3    3  501    0  0.37946656875E+01  0.17593871177E+01 -0.52939150650E+02  0.53104129804E+02  0.00000000000E+00 0.  1.
         -3    1    1    2    0  502 -0.30509207575E+02 -0.60909191246E+01 -0.64252139268E+03  0.64327416479E+03  0.00000000000E+00 0. -1.
<mgrwt>
<rscale>  1 0.30000000E+03</rscale>
<asrwt>0</asrwt>
<pdfrwt beam="1">  1       21 0.38583443E-02 0.30000000E+03</pdfrwt>
<pdfrwt beam="2">0</pdfrwt>
<totfact> 0.44677194E+04</totfact>
</mgrwt>
</event>
<event>
 6    1  0.6377696E-002  0.3000000E+03  0.7818608E-02  0.1093470E+00
         21   -1    0    0  501  502  0.00000000000E+00  0.00000000000E+00  0.33188791390E+01  0.33188791390E+01  0.00000000000E+00 0. -1.
         13   -1    0    0    0    0 -0.00000000000E+00 -0.00000000000E+00 -0.10000000000E+04  0.10000000000E+04  0.00000000000E+00 0.  1.
    9000005    2    1    2  501    0 -0.39277435717E+02 -0.30833114285E+02 -0.24939490501E+03  0.25436621956E+03  0.33101531907E+01 0.  0.
         13    1    3    3    0    0 -0.23440600451E+02 -0.16583966196E+02 -0.13909888227E+03  0.14203164694E+03  0.00000000000E+00 0.  1.
          1    1    3    3  501    0 -0.15836835266E+02 -0.14249148088E+02 -0.11029602275E+03  0.11233457262E+03  0.00000000000E+00 0.  1.
         -1    1    1    2    0  502  0.39277435717E+02  0.30833114285E+02 -0.74728621585E+03  0.74895265958E+03  0.00000000000E+00 0. -1.
<mgrwt>
<rscale>  1 0.30000000E+03</rscale>
<asrwt>0</asrwt>
<pdfrwt beam="1">  1       21 0.12068677E-01 0.30000000E+03</pdfrwt>
<pdfrwt beam="2">0</pdfrwt>
<totfact> 0.61332443E+03</totfact>
</mgrwt>
</event>
<event>
 6    1  0.6377696E-002  0.3000000E+03  0.7818608E-02  0.1093470E+00
         21   -1    0    0  501  502  0.00000000000E+00  0.00000000000E+00  0.16514265140E+01  0.16514265140E+01  0.00000000000E+00 0. -1.
         13   -1    0    0    0    0 -0.00000000000E+00 -0.00000000000E+00 -0.10000000000E+04  0.10000000000E+04  0.00000000000E+00 0.  1.
    9000005    2    1    2  501    0  0.21960068201E+02  0.30861371858E+02 -0.67887267606E+03  0.67993801693E+03  0.35955112558E+01 0.  0.
         13    1    3    3    0    0  0.13785734908E+02  0.16329272653E+02 -0.37671572000E+03  0.37732138202E+03  0.00000000000E+00 0.  1.
          1    1    3    3  501    0  0.81743332930E+01  0.14532099205E+02 -0.30215695605E+03  0.30261663491E+03  0.00000000000E+00 0.  1.
         -3    1    1    2    0  502 -0.21960068201E+02 -0.30861371858E+02 -0.31947589743E+03  0.32171340959E+03  0.00000000000E+00 0. -1.
<mgrwt>
<rscale>  1 0.30000000E+03</rscale>
<asrwt>0</asrwt>
<pdfrwt beam="1">  1       21 0.60052000E-02 0.30000000E+03</pdfrwt>
<pdfrwt beam="2">0</pdfrwt>
<totfact> 0.21040206E+04</totfact>
</mgrwt>
</event>
<event>
 6    1  0.6377696E-002  0.3000000E+03  0.7818608E-02  0.1093470E+00
         21   -1    0    0  501  502  0.00000000000E+00  0.00000000000E+00  0.15024018399E+01  0.15024018399E+01  0.00000000000E+00 0. -1.
         13   -1    0    0    0    0 -0.00000000000E+00 -0.00000000000E+00 -0.10000000000E+04  0.10000000000E+04  0.00000000000E+00 0.  1.
    9000005    2    1    2  501    0 -0.34154295323E+02  0.52427823204E+01 -0.27527577827E+03  0.27745557778E+03  0.32925503299E+01 0.  0.
         13    1    3    3    0    0 -0.59232481193E+00  0.50873902386E+00 -0.83600244697E+01  0.83964083519E+01  0.00000000000E+00 0.  1.
          1    1    3    3  501    0 -0.33561970511E+02  0.47340432965E+01 -0.26691575380E+03  0.26905916943E+03  0.00000000000E+00 0.  1.
         -1    1    1    2    0  502  0.34154295323E+02 -0.52427823204E+01 -0.72322181989E+03  0.72404682406E+03  0.00000000000E+00 0. -1.
<mgrwt>
<rscale>  1 0.30000000E+03</rscale>
<asrwt>0</asrwt>
<pdfrwt beam="1">  1       21 0.54632909E-02 0.30000000E+03</pdfrwt>
<pdfrwt beam="2">0</pdfrwt>
<totfact> 0.24756730E+04</totfact>
</mgrwt>
</event>
<event>
 6    1  0.6377696E-002  0.3000000E+03  0.7818608E-02  0.1093470E+00
         21   -1    0    0  501  502  0.00000000000E+00  0.00000000000E+00  0.10669078315E+01  0.10669078315E+01  0.00000000000E+00 0. -1.
         13   -1    0    0    0    0 -0.00000000000E+00 -0.00000000000E+00 -0.10000000000E+04  0.10000000000E+04  0.00000000000E+00 0.  1.
    9000005    2    1    2  501    0 -0.28626801977E+02  0.13950601591E+02 -0.39342462327E+03  0.39472161100E+03  0.28465633280E+01 0.  0.
         13    1    3    3    0    0  0.51096758971E-01  0.85683355259E-01 -0.22425916667E+01  0.22448095465E+01  0.00000000000E+00 0.  1.
          3    1    3    3  501    0 -0.28677898736E+02  0.13864918236E+02 -0.39118203160E+03  0.39247680145E+03  0.00000000000E+00 0.  1.
         -3    1    1    2    0  502  0.28626801977E+02 -0.13950601591E+02 -0.60550846890E+03  0.60634529683E+03  0.00000000000E+00 0. -1.
<mgrwt>
<rscale>  1 0.30000000E+03</rscale>
<asrwt>0</asrwt>
<pdfrwt beam="1">  1       21 0.38796730E-02 0.30000000E+03</pdfrwt>
<pdfrwt beam="2">0</pdfrwt>
<totfact> 0.44264988E+04</totfact>
</mgrwt>
</event>
<event>
 6    1  0.6377696E-002  0.3000000E+03  0.7818608E-02  0.1093470E+00
         21   -1    0    0  501  502  0.00000000000E+00  0.00000000000E+00  0.31363811915E+01  0.31363811915E+01  0.00000000000E+00 0. -1.
         13   -1    0    0    0    0 -0.00000000000E+00 -0.00000000000E+00 -0.10000000000E+04  0.10000000000E+04  0.00000000000E+00 0.  1.
    9000005    2    1    2  501    0 -0.15612158571E+02  0.39963758101E+02 -0.18277992970E+03  0.18792285436E+03  0.81027793296E+01 0.  0.
         13    1    3    3    0    0 -0.96215669364E+01  0.32762519927E+02 -0.14948463455E+03  0.15333497067E+03  0.00000000000E+00 0.  1.
          3    1    3    3  501    0 -0.59905916344E+01  0.72012381737E+01 -0.33295295145E+02  0.34587883690E+02  0.00000000000E+00 0.  1.
         -1    1    1    2    0  502  0.15612158571E+02 -0.39963758101E+02 -0.81408368911E+03  0.81521352683E+03  0.00000000000E+00 0. -1.
<mgrwt>
<rscale>  1 0.30000000E+03</rscale>
<asrwt>0</asrwt>
<pdfrwt beam="1">  1       21 0.11405047E-01 0.30000000E+03</pdfrwt>
<pdfrwt beam="2">0</pdfrwt>
<totfact> 0.67945256E+03</totfact>
</mgrwt>
</event>
<event>
 6    1  0.6377696E-002  0.3000000E+03  0.7818608E-02  0.1093470E+00
         21   -1    0    0  501  502  0.00000000000E+00  0.00000000000E+00  0.10329388174E+01  0.10329388174E+01  0.00000000000E+00 0. -1.
         13   -1    0    0    0    0 -0.00000000000E+00 -0.00000000000E+00 -0.10000000000E+04  0.10000000000E+04  0.00000000000E+00 0.  1.
    9000005    2    1    2  501    0 -0.31669330343E+02  0.11064139762E+01 -0.42389579014E+03  0.42508924590E+03  0.30092262540E+01 0.  0.
         13    1    3    3    0    0 -0.30339332663E+02  0.10303166183E+01 -0.41258460755E+03  0.41369988524E+03  0.00000000000E+00 0.  1.
          1    1    3    3  501    0 -0.13299976800E+01  0.76097357883E-01 -0.11311182587E+02  0.11389360656E+02  0.00000000000E+00 0.  1.
         -1    1    1    2    0  502  0.31669330343E+02 -0.11064139762E+01 -0.57507127104E+03  0.57594369292E+03  0.00000000000E+00 0. -1.
<mgrwt>
<rscale>  1 0.30000000E+03</rscale>
<asrwt>0</asrwt>
<pdfrwt beam="1">  1       21 0.37561491E-02 0.30000000E+03</pdfrwt>
<pdfrwt beam="2">0</pdfrwt>
<totfact> 0.46738499E+04</totfact>
</mgrwt>
</event>
<event>
 6    1  0.6377696E-002  0.3000000E+03  0.7818608E-02  0.1093470E+00
         21   -1    0    0  501  502  0.00000000000E+00  0.00000000000E+00  0.29465326515E+01  0.29465326515E+01  0.00000000000E+00 0. -1.
         13   -1    0    0    0    0 -0.00000000000E+00 -0.00000000000E+00 -0.10000000000E+04  0.10000000000E+04  0.00000000000E+00 0.  1.
    9000005    2    1    2  501    0 -0.53899331993E+02 -0.58090228307E+01 -0.51069263923E+03  0.51357373216E+03  0.34819337470E+01 0.  0.
         13    1    3    3    0    0 -0.21017313926E+01  0.13342506173E-01 -0.14640079760E+02  0.14790178777E+02  0.00000000000E+00 0.  1.
          3    1    3    3  501    0 -0.51797600600E+02 -0.58223653368E+01 -0.49605255947E+03  0.49878355338E+03  0.00000000000E+00 0.  1.
         -3    1    1    2    0  502  0.53899331993E+02  0.58090228307E+01 -0.48636082812E+03  0.48937280049E+03  0.00000000000E+00 0. -1.
<mgrwt>
<rscale>  1 0.30000000E+03</rscale>
<asrwt>0</asrwt>
<pdfrwt beam="1">  1       21 0.10714687E-01 0.30000000E+03</pdfrwt>
<pdfrwt beam="2">0</pdfrwt>
<totfact> 0.76027491E+03</totfact>
</mgrwt>
</event>
<event>
 6    1  0.6377696E-002  0.3000000E+03  0.7818608E-02  0.1093470E+00
         21   -1    0    0  501  502  0.00000000000E+00  0.00000000000E+00  0.43556420111E+01  0.43556420111E+01  0.00000000000E+00 0. -1.
         13   -1    0    0    0    0 -0.00000000000E+00 -0.00000000000E+00 -0.10000000000E+04  0.10000000000E+04  0.00000000000E+00 0.  1.
    9000005    2    1    2  501    0 -0.49857254445E+02  0.39790493651E+02 -0.62546204296E+03  0.62871755080E+03  0.37366160182E+01 0.  0.
         13    1    3    3    0    0 -0.30746325273E+02  0.22367254973E+02 -0.36538331777E+03  0.36735622973E+03  0.00000000000E+00 0.  1.
          1    1    3    3  501    0 -0.19110929172E+02  0.17423238678E+02 -0.26007872519E+03  0.26136132107E+03  0.00000000000E+00 0.  1.
         -3    1    1    2    0  502  0.49857254445E+02 -0.39790493651E+02 -0.37018231503E+03  0.37563809121E+03  0.00000000000E+00 0. -1.
<mgrwt>
<rscale>  1 0.30000000E+03</rscale>
<asrwt>0</asrwt>
<pdfrwt beam="1">  1       21 0.15838732E-01 0.30000000E+03</pdfrwt>
<pdfrwt beam="2">0</pdfrwt>
<totfact> 0.37222648E+03</totfact>
</mgrwt>
</event>
<event>
 6    1  0.6377696E-002  0.3000000E+03  0.7818608E-02  0.1093470E+00
         21   -1    0    0  501  502  0.00000000000E+00  0.00000000000E+00  0.19599887072E+01  0.19599887072E+01  0.00000000000E+00 0. -1.
         13   -1    0    0    0    0 -0.00000000000E+00 -0.00000000000E+00 -0.10000000000E+04  0.10000000000E+04  0.00000000000E+00 0.  1.
    9000005    2    1    2  501    0 -0.15153297294E+02 -0.28791440980E+02 -0.16262868116E+03  0.16591533678E+03  0.46088558492E+01 0.  0.
         13    1    3    3    0    0 -0.31290782706E+01 -0.53557029325E+01 -0.22876387319E+02  0.23702400332E+02  0.00000000000E+00 0.  1.
          3    1    3    3  501    0 -0.12024219024E+02 -0.23435738047E+02 -0.13975229384E+03  0.14221293645E+03  0.00000000000E+00 0.  1.
         -3    1    1    2    0  502  0.15153297294E+02  0.28791440980E+02 -0.83541133013E+03  0.83604465192E+03  0.00000000000E+00 0. -1.
<mgrwt>
<rscale>  1 0.30000000E+03</rscale>
<asrwt>0</asrwt>
<pdfrwt beam="1">  1       21 0.71272467E-02 0.30000000E+03</pdfrwt>
<pdfrwt beam="2">0</pdfrwt>
<totfact> 0.15636898E+04</totfact>
</mgrwt>
</event>
<event>
 6    1  0.6377696E-002  0.3000000E+03  0.7818608E-02  0.1093470E+00
         21   -1    0    0  501  502  0.00000000000E+00  0.00000000000E+00  0.97894159611E+00  0.97894159611E+00  0.00000000000E+00 0. -1.
         13   -1    0    0    0    0 -0.00000000000E+00 -0.00000000000E+00 -0.10000000000E+04  0.10000000000E+04  0.00000000000E+00 0.  1.
    9000005    2    1    2  501    0  0.31135510594E+02 -0.19119489487E+01 -0.50379744105E+03  0.50477383607E+03  0.34188301927E+01 0.  0.
         13    1    3    3    0    0  0.28668395103E+02 -0.82005259370E+00 -0.45852261771E+03  0.45941869827E+03  0.00000000000E+00 0.  1.
          3    1    3    3  501    0  0.24671154912E+01 -0.10918963550E+01 -0.45274823342E+02  0.45355137804E+02  0.00000000000E+00 0.  1.
         -1    1    1    2    0  502 -0.31135510594E+02  0.19119489487E+01 -0.49522361735E+03  0.49620510553E+03  0.00000000000E+00 0. -1.
<mgrwt>
<rscale>  1 0.30000000E+03</rscale>
<asrwt>0</asrwt>
<pdfrwt beam="1">  1       21 0.35597951E-02 0.30000000E+03</pdfrwt>
<pdfrwt beam="2">0</pdfrwt>
<totfact> 0.51144372E+04</totfact>
</mgrwt>
</event>
<event>
 6    1  0.6377696E-002  0.3000000E+03  0.7818608E-02  0.1093470E+00
         21   -1    0    0  501  502  0.00000000000E+00  0.00000000000E+00  0.18992401946E+01  0.18992401946E+01  0.00000000000E+00 0. -1.
         13   -1    0    0    0    0 -0.00000000000E+00 -0.00000000000E+00 -0.10000000000E+04  0.10000000000E+04  0.00000000000E+00 0.  1.
    9000005    2    1    2  501    0 -0.31868124460E+02 -0.76010776407E+01 -0.17080686590E+03  0.17395688675E+03  0.35579868601E+01 0.  0.
         13    1    3    3    0    0 -0.28250005281E+02 -0.78610995518E+01 -0.15115008440E+03  0.15396820353E+03  0.00000000000E+00 0.  1.
          1    1    3    3  501    0 -0.36181191788E+01  0.26002191111E+00 -0.19656781505E+02  0.19988683221E+02  0.00000000000E+00 0.  1.
         -3    1    1    2    0  502  0.31868124460E+02  0.76010776407E+01 -0.82729389390E+03  0.82794235344E+03  0.00000000000E+00 0. -1.
<mgrwt>
<rscale>  1 0.30000000E+03</rscale>
<asrwt>0</asrwt>
<pdfrwt beam="1">  1       21 0.69063425E-02 0.30000000E+03</pdfrwt>
<pdfrwt beam="2">0</pdfrwt>
<totfact> 0.16517794E+04</totfact>
</mgrwt>
</event>
<event>
 6    1  0.6377696E-002  0.3000000E+03  0.7818608E-02  0.1093470E+00
         21   -1    0    0  501  502  0.00000000000E+00  0.00000000000E+00  0.21956529520E+01  0.21956529520E+01  0.00000000000E+00 0. -1.
         13   -1    0    0    0    0 -0.00000000000E+00 -0.00000000000E+00 -0.10000000000E+04  0.10000000000E+04  0.00000000000E+00 0.  1.
    9000005    2    1    2  501    0  0.41889278445E+01 -0.41478438064E+02 -0.72689210172E+03  0.72809448074E+03  0.33819220641E+01 0.  0.
         13    1    3    3    0    0  0.16091298148E+01 -0.79256276679E+01 -0.16036490049E+03  0.16056869615E+03  0.00000000000E+00 0.  1.
          1    1    3    3  501    0  0.25797980297E+01 -0.33552810396E+02 -0.56652720123E+03  0.56752578459E+03  0.00000000000E+00 0.  1.
         -3    1    1    2    0  502 -0.41889278445E+01  0.41478438064E+02 -0.27091224533E+03  0.27410117221E+03  0.00000000000E+00 0. -1.
<mgrwt>
<rscale>  1 0.30000000E+03</rscale>
<asrwt>0</asrwt>
<pdfrwt beam="1">  1       21 0.79842094E-02 0.30000000E+03</pdfrwt>
<pdfrwt beam="2">0</pdfrwt>
<totfact> 0.12818273E+04</totfact>
</mgrwt>
</event>
<event>
 6    1  0.6377696E-002  0.3000000E+03  0.7818608E-02  0.1093470E+00
         21   -1    0    0  501  502  0.00000000000E+00  0.00000000000E+00  0.18203588497E+01  0.18203588497E+01  0.00000000000E+00 0. -1.
         13   -1    0    0    0    0 -0.00000000000E+00 -0.00000000000E+00 -0.10000000000E+04  0.10000000000E+04  0.00000000000E+00 0.  1.
    9000005    2    1    2  501    0  0.42905176104E+01  0.40825138293E+02 -0.36727114891E+03  0.36957782149E+03  0.38169179111E+01 0.  0.
         13    1    3    3    0    0  0.44961205526E+01  0.26571116150E+02 -0.24597884289E+03  0.24745066269E+03  0.00000000000E+00 0.  1.
          1    1    3    3  501    0 -0.20560294218E+00  0.14254022143E+02 -0.12129230601E+03  0.12212715881E+03  0.00000000000E+00 0.  1.
         -3    1    1    2    0  502 -0.42905176104E+01 -0.40825138293E+02 -0.63090849224E+03  0.63224253736E+03  0.00000000000E+00 0. -1.
<mgrwt>
<rscale>  1 0.30000000E+03</rscale>
<asrwt>0</asrwt>
<pdfrwt beam="1">  1       21 0.66195007E-02 0.30000000E+03</pdfrwt>
<pdfrwt beam="2">0</pdfrwt>
<totfact> 0.17779970E+04</totfact>
</mgrwt>
</event>
<event>
 6    1  0.6377696E-002  0.3000000E+03  0.7818608E-02  0.1093470E+00
         21   -1    0    0  501  502  0.00000000000E+00  0.00000000000E+00  0.10521324358E+01  0.10521324358E+01  0.00000000000E+00 0. -1.
         13   -1    0    0    0    0 -0.00000000000E+00 -0.00000000000E+00 -0.10000000000E+04  0.10000000000E+04  0.00000000000E+00 0.  1.
    9000005    2    1    2  501    0 -0.23184755154E+02  0.19342677060E+02 -0.67952637909E+03  0.68020675017E+03  0.36675685887E+01 0.  0.
         13    1    3    3    0    0 -0.60920774944E+01  0.31452199811E+01 -0.16121355015E+03  0.16135927171E+03  0.00000000000E+00 0.  1.
          1    1    3    3  501    0 -0.17092677660E+02  0.16197457079E+02 -0.51831282895E+03  0.51884747845E+03  0.00000000000E+00 0.  1.
         -3    1    1    2    0  502  0.23184755154E+02 -0.19342677060E+02 -0.31942148847E+03  0.32084538227E+03  0.00000000000E+00 0. -1.
<mgrwt>
<rscale>  1 0.30000000E+03</rscale>
<asrwt>0</asrwt>
<pdfrwt beam="1">  1       21 0.38259442E-02 0.30000000E+03</pdfrwt>
<pdfrwt beam="2">0</pdfrwt>
<totfact> 0.45314994E+04</totfact>
</mgrwt>
</event>
<event>
 6    1  0.6377696E-002  0.3000000E+03  0.7818608E-02  0.1093470E+00
         21   -1    0    0  501  502  0.00000000000E+00  0.00000000000E+00  0.47812056427E+01  0.47812056427E+01  0.00000000000E+00 0. -1.
         13   -1    0    0    0    0 -0.00000000000E+00 -0.00000000000E+00 -0.10000000000E+04  0.10000000000E+04  0.00000000000E+00 0.  1.
    9000005    2    1    2  501    0  0.58872529767E+02  0.32264400041E+02 -0.37864932029E+03  0.38456762741E+03  0.31600672896E+01 0.  0.
         13    1    3    3    0    0  0.45623294621E+02  0.25494069882E+02 -0.28743386985E+03  0.29214664493E+03  0.00000000000E+00 0.  1.
          3    1    3    3  501    0  0.13249235147E+02  0.67703301584E+01 -0.91215450440E+02  0.92420982474E+02  0.00000000000E+00 0.  1.
         -1    1    1    2    0  502 -0.58872529767E+02 -0.32264400041E+02 -0.61656947407E+03  0.62021357823E+03  0.00000000000E+00 0. -1.
<mgrwt>
<rscale>  1 0.30000000E+03</rscale>
<asrwt>0</asrwt>
<pdfrwt beam="1">  1       21 0.17386239E-01 0.30000000E+03</pdfrwt>
<pdfrwt beam="2">0</pdfrwt>
<totfact> 0.31269986E+03</totfact>
</mgrwt>
</event>
<event>
 6    1  0.6377696E-002  0.3000000E+03  0.7818608E-02  0.1093470E+00
         21   -1    0    0  501  502  0.00000000000E+00  0.00000000000E+00  0.40999918888E+01  0.40999918888E+01  0.00000000000E+00 0. -1.
         13   -1    0    0    0    0 -0.00000000000E+00 -0.00000000000E+00 -0.10000000000E+04  0.10000000000E+04  0.00000000000E+00 0.  1.
    9000005    2    1    2  501    0 -0.53236631180E+02 -0.34305075275E+02 -0.42703352046E+03  0.43171894935E+03  0.35561973362E+01 0.  0.
         13    1    3    3    0    0 -0.29325049906E+02 -0.17219336650E+02 -0.22173326639E+03  0.22432589135E+03  0.00000000000E+00 0.  1.
          1    1    3    3  501    0 -0.23911581275E+02 -0.17085738625E+02 -0.20530025407E+03  0.20739305799E+03  0.00000000000E+00 0.  1.
         -1    1    1    2    0  502  0.53236631180E+02  0.34305075275E+02 -0.56886648765E+03  0.57238104254E+03  0.00000000000E+00 0. -1.
<mgrwt>
<rscale>  1 0.30000000E+03</rscale>
<asrwt>0</asrwt>
<pdfrwt beam="1">  1       21 0.14909093E-01 0.30000000E+03</pdfrwt>
<pdfrwt beam="2">0</pdfrwt>
<totfact> 0.41646144E+03</totfact>
</mgrwt>
</event>
<event>
 6    1  0.6377696E-002  0.3000000E+03  0.7818608E-02  0.1093470E+00
         21   -1    0    0  501  502  0.00000000000E+00  0.00000000000E+00  0.21127799549E+01  0.21127799549E+01  0.00000000000E+00 0. -1.
         13   -1    0    0    0    0 -0.00000000000E+00 -0.00000000000E+00 -0.10000000000E+04  0.10000000000E+04  0.00000000000E+00 0.  1.
    9000005    2    1    2  501    0 -0.36542235733E+02  0.27548249018E+02 -0.54215170062E+03  0.54408537392E+03  0.24872894054E+01 0.  0.
         13    1    3    3    0    0 -0.35489996414E+02  0.27169141226E+02 -0.53098038149E+03  0.53285820591E+03  0.00000000000E+00 0.  1.
          3    1    3    3  501    0 -0.10522393193E+01  0.37910779187E+00 -0.11171319128E+02  0.11227168003E+02  0.00000000000E+00 0.  1.
         -1    1    1    2    0  502  0.36542235733E+02 -0.27548249018E+02 -0.45573551943E+03  0.45802740604E+03  0.00000000000E+00 0. -1.
<mgrwt>
<rscale>  1 0.30000000E+03</rscale>
<asrwt>0</asrwt>
<pdfrwt beam="1">  1       21 0.76828524E-02 0.30000000E+03</pdfrwt>
<pdfrwt beam="2">0</pdfrwt>
<totfact> 0.13713414E+04</totfact>
</mgrwt>
</event>
<event>
 6    1  0.6377696E-002  0.3000000E+03  0.7818608E-02  0.1093470E+00
         21   -1    0    0  501  502  0.00000000000E+00  0.00000000000E+00  0.13768238918E+01  0.13768238918E+01  0.00000000000E+00 0. -1.
         13   -1    0    0    0    0 -0.00000000000E+00 -0.00000000000E+00 -0.10000000000E+04  0.10000000000E+04  0.00000000000E+00 0.  1.
    9000005    2    1    2  501    0 -0.13523229459E+02 -0.33981094173E+02 -0.42303826873E+03  0.42463114502E+03  0.35552798024E+01 0.  0.
         13    1    3    3    0    0 -0.11844248909E+02 -0.30876932539E+02 -0.36966399816E+03  0.37114032754E+03  0.00000000000E+00 0.  1.
          1    1    3    3  501    0 -0.16789805502E+01 -0.31041616344E+01 -0.53374270574E+02  0.53490817478E+02  0.00000000000E+00 0.  1.
         -3    1    1    2    0  502  0.13523229459E+02  0.33981094173E+02 -0.57558490738E+03  0.57674567887E+03  0.00000000000E+00 0. -1.
<mgrwt>
<rscale>  1 0.30000000E+03</rscale>
<asrwt>0</asrwt>
<pdfrwt beam="1">  1       21 0.50066429E-02 0.30000000E+03</pdfrwt>
<pdfrwt beam="2">0</pdfrwt>
<totfact> 0.28739532E+04</totfact>
</mgrwt>
</event>
<event>
 6    1  0.6377696E-002  0.3000000E+03  0.7818608E-02  0.1093470E+00
         21   -1    0    0  501  502  0.00000000000E+00  0.00000000000E+00  0.58122824189E+01  0.58122824189E+01  0.00000000000E+00 0. -1.
         13   -1    0    0    0    0 -0.00000000000E+00 -0.00000000000E+00 -0.10000000000E+04  0.10000000000E+04  0.00000000000E+00 0.  1.
    9000005    2    1    2  501    0 -0.31305447474E+02  0.61022631018E+02 -0.27803843056E+03  0.28638640448E+03  0.28304184466E+01 0.  0.
         13    1    3    3    0    0 -0.73847557668E+01  0.12035700547E+02 -0.58825618310E+02  0.60496661684E+02  0.00000000000E+00 0.  1.
          1    1    3    3  501    0 -0.23920691707E+02  0.48986930471E+02 -0.21921281225E+03  0.22588974280E+03  0.00000000000E+00 0.  1.
         -1    1    1    2    0  502  0.31305447474E+02 -0.61022631018E+02 -0.71614928702E+03  0.71942587793E+03  0.00000000000E+00 0. -1.
<mgrwt>
<rscale>  1 0.30000000E+03</rscale>
<asrwt>0</asrwt>
<pdfrwt beam="1">  1       21 0.21135617E-01 0.30000000E+03</pdfrwt>
<pdfrwt beam="2">0</pdfrwt>
<totfact> 0.21586142E+03</totfact>
</mgrwt>
</event>
<event>
 6    1  0.6377696E-002  0.3000000E+03  0.7818608E-02  0.1093470E+00
         21   -1    0    0  501  502  0.00000000000E+00  0.00000000000E+00  0.15439190996E+01  0.15439190996E+01  0.00000000000E+00 0. -1.
         13   -1    0    0    0    0 -0.00000000000E+00 -0.00000000000E+00 -0.10000000000E+04  0.10000000000E+04  0.00000000000E+00 0.  1.
    9000005    2    1    2  501    0 -0.35153409257E+02 -0.10047410658E+02 -0.31901302284E+03  0.32111788948E+03  0.32676530594E+01 0.  0.
         13    1    3    3    0    0 -0.51624603271E+01 -0.25187985452E+01 -0.55756895645E+02  0.56052000453E+02  0.00000000000E+00 0.  1.
          1    1    3    3  501    0 -0.29990948930E+02 -0.75286121129E+01 -0.26325612720E+03  0.26506588902E+03  0.00000000000E+00 0.  1.
         -3    1    1    2    0  502  0.35153409257E+02  0.10047410658E+02 -0.67944305806E+03  0.68042602962E+03  0.00000000000E+00 0. -1.
<mgrwt>
<rscale>  1 0.30000000E+03</rscale>
<asrwt>0</asrwt>
<pdfrwt beam="1">  1       21 0.56142631E-02 0.30000000E+03</pdfrwt>
<pdfrwt beam="2">0</pdfrwt>
<totfact> 0.23625635E+04</totfact>
</mgrwt>
</event>
<event>
 6    1  0.6377696E-002  0.3000000E+03  0.7818608E-02  0.1093470E+00
         21   -1    0    0  501  502  0.00000000000E+00  0.00000000000E+00  0.69454631170E+01  0.69454631170E+01  0.00000000000E+00 0. -1.
         13   -1    0    0    0    0 -0.00000000000E+00 -0.00000000000E+00 -0.10000000000E+04  0.10000000000E+04  0.00000000000E+00 0.  1.
    9000005    2    1    2  501    0  0.46786071222E+02  0.67715162236E+02 -0.42522735344E+03  0.43318419751E+03  0.74811228924E+01 0.  0.
         13    1    3    3    0    0  0.35910467271E+02  0.46202996896E+02 -0.30575896749E+03  0.31130824721E+03  0.00000000000E+00 0.  1.
          1    1    3    3  501    0  0.10875603951E+02  0.21512165340E+02 -0.11946838595E+03  0.12187595029E+03  0.00000000000E+00 0.  1.
         -1    1    1    2    0  502 -0.46786071222E+02 -0.67715162236E+02 -0.56782718344E+03  0.57376126561E+03  0.00000000000E+00 0. -1.
<mgrwt>
<rscale>  1 0.30000000E+03</rscale>
<asrwt>0</asrwt>
<pdfrwt beam="1">  1       21 0.25256283E-01 0.30000000E+03</pdfrwt>
<pdfrwt beam="2">0</pdfrwt>
<totfact> 0.15287484E+03</totfact>
</mgrwt>
</event>
<event>
 6    1  0.6377696E-002  0.3000000E+03  0.7818608E-02  0.1093470E+00
         21   -1    0    0  501  502  0.00000000000E+00  0.00000000000E+00  0.19706915081E+01  0.19706915081E+01  0.00000000000E+00 0. -1.
         13   -1    0    0    0    0 -0.00000000000E+00 -0.00000000000E+00 -0.10000000000E+04  0.10000000000E+04  0.00000000000E+00 0.  1.
    9000005    2    1    2  501    0  0.31103402628E+02 -0.19779550589E+02 -0.22209738320E+03  0.22516376249E+03  0.35805083058E+01 0.  0.
         13    1    3    3    0    0  0.28910061056E+02 -0.18285670235E+02 -0.21090128892E+03  0.21365746193E+03  0.00000000000E+00 0.  1.
          3    1    3    3  501    0  0.21933415717E+01 -0.14938803546E+01 -0.11196094274E+02  0.11506300568E+02  0.00000000000E+00 0.  1.
         -1    1    1    2    0  502 -0.31103402628E+02  0.19779550589E+02 -0.77593192529E+03  0.77680692902E+03  0.00000000000E+00 0. -1.
<mgrwt>
<rscale>  1 0.30000000E+03</rscale>
<asrwt>0</asrwt>
<pdfrwt beam="1">  1       21 0.71661660E-02 0.30000000E+03</pdfrwt>
<pdfrwt beam="2">0</pdfrwt>
<totfact> 0.15489142E+04</totfact>
</mgrwt>
</event>
<event>
 6    1  0.6377696E-002  0.3000000E+03  0.7818608E-02  0.1093470E+00
         21   -1    0    0  501  502  0.00000000000E+00  0.00000000000E+00  0.14883985943E+01  0.14883985943E+01  0.00000000000E+00 0. -1.
         13   -1    0    0    0    0 -0.00000000000E+00 -0.00000000000E+00 -0.10000000000E+04  0.10000000000E+04  0.00000000000E+00 0.  1.
    9000005    2    1    2  501    0  0.35484742686E+02  0.29287948670E+01 -0.31005454592E+03  0.31211124344E+03  0.34441300892E+01 0.  0.
         13    1    3    3    0    0  0.14179327473E+02  0.27230490649E+01 -0.13120697593E+03  0.13199901082E+03  0.00000000000E+00 0.  1.
          3    1    3    3  501    0  0.21305415213E+02  0.20574580214E+00 -0.17884756999E+03  0.18011223262E+03  0.00000000000E+00 0.  1.
         -3    1    1    2    0  502 -0.35484742686E+02 -0.29287948670E+01 -0.68845705548E+03  0.68937715515E+03  0.00000000000E+00 0. -1.
<mgrwt>
<rscale>  1 0.30000000E+03</rscale>
<asrwt>0</asrwt>
<pdfrwt beam="1">  1       21 0.54123699E-02 0.30000000E+03</pdfrwt>
<pdfrwt beam="2">0</pdfrwt>
<totfact> 0.25157118E+04</totfact>
</mgrwt>
</event>
<event>
 6    1  0.6377696E-002  0.3000000E+03  0.7818608E-02  0.1093470E+00
         21   -1    0    0  501  502  0.00000000000E+00  0.00000000000E+00  0.13334607978E+01  0.13334607978E+01  0.00000000000E+00 0. -1.
         13   -1    0    0    0    0 -0.00000000000E+00 -0.00000000000E+00 -0.10000000000E+04  0.10000000000E+04  0.00000000000E+00 0.  1.
    9000005    2    1    2  501    0 -0.15317748993E+02  0.32662131868E+02 -0.46502836675E+03  0.46647726761E+03  0.69434158113E+01 0.  0.
         13    1    3    3    0    0 -0.13141384327E+02  0.28133590850E+02 -0.42537796346E+03  0.42650979673E+03  0.00000000000E+00 0.  1.
          1    1    3    3  501    0 -0.21763646661E+01  0.45285410180E+01 -0.39650403296E+02  0.39967470879E+02  0.00000000000E+00 0.  1.
         -3    1    1    2    0  502  0.15317748993E+02 -0.32662131868E+02 -0.53363817245E+03  0.53485619318E+03  0.00000000000E+00 0. -1.
<mgrwt>
<rscale>  1 0.30000000E+03</rscale>
<asrwt>0</asrwt>
<pdfrwt beam="1">  1       21 0.48489586E-02 0.30000000E+03</pdfrwt>
<pdfrwt beam="2">0</pdfrwt>
<totfact> 0.30349800E+04</totfact>
</mgrwt>
</event>
<event>
 6    1  0.6377696E-002  0.3000000E+03  0.7818608E-02  0.1093470E+00
         21   -1    0    0  501  502  0.00000000000E+00  0.00000000000E+00  0.19531292249E+01  0.19531292249E+01  0.00000000000E+00 0. -1.
         13   -1    0    0    0    0 -0.00000000000E+00 -0.00000000000E+00 -0.10000000000E+04  0.10000000000E+04  0.00000000000E+00 0.  1.
    9000005    2    1    2  501    0  0.11349058293E+02 -0.42327344689E+02 -0.44148923683E+03  0.44367290825E+03  0.35352571469E+01 0.  0.
         13    1    3    3    0    0  0.59431250891E+01 -0.27349757281E+02 -0.29176181770E+03  0.29310115698E+03  0.00000000000E+00 0.  1.
          3    1    3    3  501    0  0.54059332037E+01 -0.14977587408E+02 -0.14972741913E+03  0.15057175126E+03  0.00000000000E+00 0.  1.
         -1    1    1    2    0  502 -0.11349058293E+02  0.42327344689E+02 -0.55655763395E+03  0.55828022098E+03  0.00000000000E+00 0. -1.
<mgrwt>
<rscale>  1 0.30000000E+03</rscale>
<asrwt>0</asrwt>
<pdfrwt beam="1">  1       21 0.71023031E-02 0.30000000E+03</pdfrwt>
<pdfrwt beam="2">0</pdfrwt>
<totfact> 0.15732727E+04</totfact>
</mgrwt>
</event>
<event>
 6    1  0.6377696E-002  0.3000000E+03  0.7818608E-02  0.1093470E+00
         21   -1    0    0  501  502  0.00000000000E+00  0.00000000000E+00  0.92008798749E+00  0.92008798749E+00  0.00000000000E+00 0. -1.
         13   -1    0    0    0    0 -0.00000000000E+00 -0.00000000000E+00 -0.10000000000E+04  0.10000000000E+04  0.00000000000E+00 0.  1.
    9000005    2    1    2  501    0 -0.10924191021E+02  0.28054422309E+02 -0.54401083288E+03  0.54485621599E+03  0.37578251103E+01 0.  0.
         13    1    3    3    0    0 -0.25607689196E+01  0.82774638347E+01 -0.12944277472E+03  0.12973243955E+03  0.00000000000E+00 0.  1.
          3    1    3    3  501    0 -0.83634221013E+01  0.19776958474E+02 -0.41456805816E+03  0.41512377644E+03  0.00000000000E+00 0.  1.
         -1    1    1    2    0  502  0.10924191021E+02 -0.28054422309E+02 -0.45506907913E+03  0.45606387200E+03  0.00000000000E+00 0. -1.
<mgrwt>
<rscale>  1 0.30000000E+03</rscale>
<asrwt>0</asrwt>
<pdfrwt beam="1">  1       21 0.33457816E-02 0.30000000E+03</pdfrwt>
<pdfrwt beam="2">0</pdfrwt>
<totfact> 0.56734028E+04</totfact>
</mgrwt>
</event>
<event>
 6    1  0.6377696E-002  0.3000000E+03  0.7818608E-02  0.1093470E+00
         21   -1    0    0  501  502  0.00000000000E+00  0.00000000000E+00  0.14634929844E+01  0.14634929844E+01  0.00000000000E+00 0. -1.
         13   -1    0    0    0    0 -0.00000000000E+00 -0.00000000000E+00 -0.10000000000E+04  0.10000000000E+04  0.00000000000E+00 0.  1.
    9000005    2    1    2  501    0 -0.37020851813E+02 -0.72098767442E+01 -0.42179795484E+03  0.42349300641E+03  0.32071755195E+01 0.  0.
         13    1    3    3    0    0 -0.26029127591E+02 -0.39839218584E+01 -0.28224667461E+03  0.28347234864E+03  0.00000000000E+00 0.  1.
          3    1    3    3  501    0 -0.10991724223E+02 -0.32259548858E+01 -0.13955128023E+03  0.14002065777E+03  0.00000000000E+00 0.  1.
         -1    1    1    2    0  502  0.37020851813E+02  0.72098767442E+01 -0.57673855217E+03  0.57797048658E+03  0.00000000000E+00 0. -1.
<mgrwt>
<rscale>  1 0.30000000E+03</rscale>
<asrwt>0</asrwt>
<pdfrwt beam="1">  1       21 0.53218039E-02 0.30000000E+03</pdfrwt>
<pdfrwt beam="2">0</pdfrwt>
<totfact> 0.25894377E+04</totfact>
</mgrwt>
</event>
<event>
 6    1  0.6377696E-002  0.3000000E+03  0.7818608E-02  0.1093470E+00
         21   -1    0    0  501  502  0.00000000000E+00  0.00000000000E+00  0.10208241793E+01  0.10208241793E+01  0.00000000000E+00 0. -1.
         13   -1    0    0    0    0 -0.00000000000E+00 -0.00000000000E+00 -0.10000000000E+04  0.10000000000E+04  0.00000000000E+00 0.  1.
    9000005    2    1    2  501    0  0.28834886397E+02  0.10793947984E+02 -0.62900692681E+03  0.62976966254E+03  0.34862420672E+01 0.  0.
         13    1    3    3    0    0  0.11712782551E+02  0.55296207631E+01 -0.29169290285E+03  0.29198033419E+03  0.00000000000E+00 0.  1.
          1    1    3    3  501    0  0.17122103847E+02  0.52643272211E+01 -0.33731402397E+03  0.33778932835E+03  0.00000000000E+00 0.  1.
         -3    1    1    2    0  502 -0.28834886397E+02 -0.10793947984E+02 -0.36997224901E+03  0.37125116164E+03  0.00000000000E+00 0. -1.
<mgrwt>
<rscale>  1 0.30000000E+03</rscale>
<asrwt>0</asrwt>
<pdfrwt beam="1">  1       21 0.37120958E-02 0.30000000E+03</pdfrwt>
<pdfrwt beam="2">0</pdfrwt>
<totfact> 0.47673544E+04</totfact>
</mgrwt>
</event>
<event>
 6    1  0.6377696E-002  0.3000000E+03  0.7818608E-02  0.1093470E+00
         21   -1    0    0  501  502  0.00000000000E+00  0.00000000000E+00  0.17272459814E+01  0.17272459814E+01  0.00000000000E+00 0. -1.
         13   -1    0    0    0    0 -0.00000000000E+00 -0.00000000000E+00 -0.10000000000E+04  0.10000000000E+04  0.00000000000E+00 0.  1.
    9000005    2    1    2  501    0  0.34445761793E+02  0.14424485174E+02 -0.28293152872E+03  0.28541192094E+03  0.38908087336E+01 0.  0.
         13    1    3    3    0    0  0.98567078899E+00  0.36560163883E+00 -0.43030826474E+01  0.44296423934E+01  0.00000000000E+00 0.  1.
          1    1    3    3  501    0  0.33460091004E+02  0.14058883535E+02 -0.27862844607E+03  0.28098227854E+03  0.00000000000E+00 0.  1.
         -1    1    1    2    0  502 -0.34445761793E+02 -0.14424485174E+02 -0.71534122530E+03  0.71631532504E+03  0.00000000000E+00 0. -1.
<mgrwt>
<rscale>  1 0.30000000E+03</rscale>
<asrwt>0</asrwt>
<pdfrwt beam="1">  1       21 0.62809077E-02 0.30000000E+03</pdfrwt>
<pdfrwt beam="2">0</pdfrwt>
<totfact> 0.19471283E+04</totfact>
</mgrwt>
</event>
<event>
 6    1  0.6377696E-002  0.3000000E+03  0.7818608E-02  0.1093470E+00
         21   -1    0    0  501  502  0.00000000000E+00  0.00000000000E+00  0.10361233655E+01  0.10361233655E+01  0.00000000000E+00 0. -1.
         13   -1    0    0    0    0 -0.00000000000E+00 -0.00000000000E+00 -0.10000000000E+04  0.10000000000E+04  0.00000000000E+00 0.  1.
    9000005    2    1    2  501    0 -0.20791379138E+02  0.24378918444E+02 -0.47535427133E+03  0.47644711102E+03  0.36814688128E+01 0.  0.
         13    1    3    3    0    0 -0.15316333517E+01  0.34527272135E+01 -0.63188892344E+02  0.63301685140E+02  0.00000000000E+00 0.  1.
          3    1    3    3  501    0 -0.19259745786E+02  0.20926191231E+02 -0.41216537899E+03  0.41314542588E+03  0.00000000000E+00 0.  1.
         -1    1    1    2    0  502  0.20791379138E+02 -0.24378918444E+02 -0.52360960530E+03  0.52458901235E+03  0.00000000000E+00 0. -1.
<mgrwt>
<rscale>  1 0.30000000E+03</rscale>
<asrwt>0</asrwt>
<pdfrwt beam="1">  1       21 0.37677293E-02 0.30000000E+03</pdfrwt>
<pdfrwt beam="2">0</pdfrwt>
<totfact> 0.46497491E+04</totfact>
</mgrwt>
</event>
<event>
 6    1  0.6377696E-002  0.3000000E+03  0.7818608E-02  0.1093470E+00
         21   -1    0    0  501  502  0.00000000000E+00  0.00000000000E+00  0.97302018004E+00  0.97302018004E+00  0.00000000000E+00 0. -1.
         13   -1    0    0    0    0 -0.00000000000E+00 -0.00000000000E+00 -0.10000000000E+04  0.10000000000E+04  0.00000000000E+00 0.  1.
    9000005    2    1    2  501    0  0.19375153844E+02  0.23735891249E+02 -0.58749796041E+03  0.58830496600E+03  0.31765422586E+01 0.  0.
         13    1    3    3    0    0  0.13104036667E+02  0.17277464017E+02 -0.39088426418E+03  0.39148529285E+03  0.00000000000E+00 0.  1.
          3    1    3    3  501    0  0.62711171769E+01  0.64584272316E+01 -0.19661369623E+03  0.19681967315E+03  0.00000000000E+00 0.  1.
         -1    1    1    2    0  502 -0.19375153844E+02 -0.23735891249E+02 -0.41152901941E+03  0.41266805418E+03  0.00000000000E+00 0. -1.
<mgrwt>
<rscale>  1 0.30000000E+03</rscale>
<asrwt>0</asrwt>
<pdfrwt beam="1">  1       21 0.35382627E-02 0.30000000E+03</pdfrwt>
<pdfrwt beam="2">0</pdfrwt>
<totfact> 0.51667142E+04</totfact>
</mgrwt>
</event>
<event>
 6    1  0.6377696E-002  0.3000000E+03  0.7818608E-02  0.1093470E+00
         21   -1    0    0  501  502  0.00000000000E+00  0.00000000000E+00  0.41028698299E+01  0.41028698299E+01  0.00000000000E+00 0. -1.
         13   -1    0    0    0    0 -0.00000000000E+00 -0.00000000000E+00 -0.10000000000E+04  0.10000000000E+04  0.00000000000E+00 0.  1.
    9000005    2    1    2  501    0  0.28775798310E+02 -0.46617586074E+02 -0.23867879863E+03  0.24490536752E+03  0.31343616276E+01 0.  0.
         13    1    3    3    0    0  0.14590658554E+02 -0.20921049655E+02 -0.11383082871E+03  0.11665348345E+03  0.00000000000E+00 0.  1.
          3    1    3    3  501    0  0.14185139757E+02 -0.25696536419E+02 -0.12484796993E+03  0.12825188407E+03  0.00000000000E+00 0.  1.
         -1    1    1    2    0  502 -0.28775798310E+02  0.46617586074E+02 -0.75721833154E+03  0.75919750231E+03  0.00000000000E+00 0. -1.
<mgrwt>
<rscale>  1 0.30000000E+03</rscale>
<asrwt>0</asrwt>
<pdfrwt beam="1">  1       21 0.14919558E-01 0.30000000E+03</pdfrwt>
<pdfrwt beam="2">0</pdfrwt>
<totfact> 0.41592128E+03</totfact>
</mgrwt>
</event>
<event>
 6    1  0.6377696E-002  0.3000000E+03  0.7818608E-02  0.1093470E+00
         21   -1    0    0  501  502  0.00000000000E+00  0.00000000000E+00  0.37456930376E+01  0.37456930376E+01  0.00000000000E+00 0. -1.
         13   -1    0    0    0    0 -0.00000000000E+00 -0.00000000000E+00 -0.10000000000E+04  0.10000000000E+04  0.00000000000E+00 0.  1.
    9000005    2    1    2  501    0  0.29298021609E+02 -0.41945561153E+02 -0.22360329833E+03  0.22940249696E+03  0.30440789874E+01 0.  0.
         13    1    3    3    0    0  0.19769603373E+01 -0.27223274384E+01 -0.18427127130E+02  0.18731749868E+02  0.00000000000E+00 0.  1.
          3    1    3    3  501    0  0.27321061272E+02 -0.39223233714E+02 -0.20517617120E+03  0.21067074709E+03  0.00000000000E+00 0.  1.
         -3    1    1    2    0  502 -0.29298021609E+02  0.41945561153E+02 -0.77265100863E+03  0.77434319608E+03  0.00000000000E+00 0. -1.
<mgrwt>
<rscale>  1 0.30000000E+03</rscale>
<asrwt>0</asrwt>
<pdfrwt beam="1">  1       21 0.13620731E-01 0.30000000E+03</pdfrwt>
<pdfrwt beam="2">0</pdfrwt>
<totfact> 0.49184142E+03</totfact>
</mgrwt>
</event>
<event>
 6    1  0.6377696E-002  0.3000000E+03  0.7818608E-02  0.1093470E+00
         21   -1    0    0  501  502  0.00000000000E+00  0.00000000000E+00  0.22811537791E+01  0.22811537791E+01  0.00000000000E+00 0. -1.
         13   -1    0    0    0    0 -0.00000000000E+00 -0.00000000000E+00 -0.10000000000E+04  0.10000000000E+04  0.00000000000E+00 0.  1.
    9000005    2    1    2  501    0 -0.41738508327E+02 -0.20608840319E+02 -0.59697727497E+03  0.59884511882E+03  0.81720330766E+01 0.  0.
         13    1    3    3    0    0 -0.21497705354E+02 -0.13986966253E+02 -0.29129422138E+03  0.29242111752E+03  0.00000000000E+00 0.  1.
          3    1    3    3  501    0 -0.20240802972E+02 -0.66218740663E+01 -0.30568305359E+03  0.30642400130E+03  0.00000000000E+00 0.  1.
         -3    1    1    2    0  502  0.41738508327E+02  0.20608840319E+02 -0.40074157125E+03  0.40343603496E+03  0.00000000000E+00 0. -1.
<mgrwt>
<rscale>  1 0.30000000E+03</rscale>
<asrwt>0</asrwt>
<pdfrwt beam="1">  1       21 0.82951221E-02 0.30000000E+03</pdfrwt>
<pdfrwt beam="2">0</pdfrwt>
<totfact> 0.11985562E+04</totfact>
</mgrwt>
</event>
<event>
 6    1  0.6377696E-002  0.3000000E+03  0.7818608E-02  0.1093470E+00
         21   -1    0    0  501  502  0.00000000000E+00  0.00000000000E+00  0.13061489251E+01  0.13061489251E+01  0.00000000000E+00 0. -1.
         13   -1    0    0    0    0 -0.00000000000E+00 -0.00000000000E+00 -0.10000000000E+04  0.10000000000E+04  0.00000000000E+00 0.  1.
    9000005    2    1    2  501    0 -0.26059967574E+02 -0.15544168159E+02 -0.76970728512E+03  0.77031785818E+03  0.44220798116E+01 0.  0.
         13    1    3    3    0    0 -0.20636553450E+02 -0.11410549829E+02 -0.63565045034E+03  0.63608770072E+03  0.00000000000E+00 0.  1.
          3    1    3    3  501    0 -0.54234141243E+01 -0.41336183301E+01 -0.13405683478E+03  0.13423015746E+03  0.00000000000E+00 0.  1.
         -1    1    1    2    0  502  0.26059967574E+02  0.15544168159E+02 -0.22898656595E+03  0.23098829074E+03  0.00000000000E+00 0. -1.
<mgrwt>
<rscale>  1 0.30000000E+03</rscale>
<asrwt>0</asrwt>
<pdfrwt beam="1">  1       21 0.47496425E-02 0.30000000E+03</pdfrwt>
<pdfrwt beam="2">0</pdfrwt>
<totfact> 0.31437575E+04</totfact>
</mgrwt>
</event>
<event>
 6    1  0.6377696E-002  0.3000000E+03  0.7818608E-02  0.1093470E+00
         21   -1    0    0  501  502  0.00000000000E+00  0.00000000000E+00  0.69752395970E+01  0.69752395970E+01  0.00000000000E+00 0. -1.
         13   -1    0    0    0    0 -0.00000000000E+00 -0.00000000000E+00 -0.10000000000E+04  0.10000000000E+04  0.00000000000E+00 0.  1.
    9000005    2    1    2  501    0  0.56107605140E+02 -0.60540875790E+02 -0.57211665520E+03  0.57804996169E+03  0.33211541520E+01 0.  0.
         13    1    3    3    0    0  0.37519850127E+02 -0.42488886332E+02 -0.39763496065E+03  0.40165483508E+03  0.00000000000E+00 0.  1.
          1    1    3    3  501    0  0.18587755013E+02 -0.18051989458E+02 -0.17448169455E+03  0.17639512661E+03  0.00000000000E+00 0.  1.
         -1    1    1    2    0  502 -0.56107605140E+02  0.60540875790E+02 -0.42090810521E+03  0.42892527790E+03  0.00000000000E+00 0. -1.
<mgrwt>
<rscale>  1 0.30000000E+03</rscale>
<asrwt>0</asrwt>
<pdfrwt beam="1">  1       21 0.25364561E-01 0.30000000E+03</pdfrwt>
<pdfrwt beam="2">0</pdfrwt>
<totfact> 0.15159761E+03</totfact>
</mgrwt>
</event>
<event>
 6    1  0.6377696E-002  0.3000000E+03  0.7818608E-02  0.1093470E+00
         21   -1    0    0  501  502  0.00000000000E+00  0.00000000000E+00  0.54355083875E+01  0.54355083875E+01  0.00000000000E+00 0. -1.
         13   -1    0    0    0    0 -0.00000000000E+00 -0.00000000000E+00 -0.10000000000E+04  0.10000000000E+04  0.00000000000E+00 0.  1.
    9000005    2    1    2  501    0 -0.26481302628E+02  0.62959135830E+02 -0.30889556348E+03  0.31637310833E+03  0.32190620470E+01 0.  0.
         13    1    3    3    0    0 -0.57238829934E+01  0.17111329532E+02 -0.83425288039E+02  0.85354198018E+02  0.00000000000E+00 0.  1.
          3    1    3    3  501    0 -0.20757419635E+02  0.45847806298E+02 -0.22547027544E+03  0.23101891031E+03  0.00000000000E+00 0.  1.
         -1    1    1    2    0  502  0.26481302628E+02 -0.62959135830E+02 -0.68566892813E+03  0.68906240006E+03  0.00000000000E+00 0. -1.
<mgrwt>
<rscale>  1 0.30000000E+03</rscale>
<asrwt>0</asrwt>
<pdfrwt beam="1">  1       21 0.19765527E-01 0.30000000E+03</pdfrwt>
<pdfrwt beam="2">0</pdfrwt>
<totfact> 0.24537992E+03</totfact>
</mgrwt>
</event>
<event>
 6    1  0.6377696E-002  0.3000000E+03  0.7818608E-02  0.1093470E+00
         21   -1    0    0  501  502  0.00000000000E+00  0.00000000000E+00  0.42245901824E+01  0.42245901824E+01  0.00000000000E+00 0. -1.
         13   -1    0    0    0    0 -0.00000000000E+00 -0.00000000000E+00 -0.10000000000E+04  0.10000000000E+04  0.00000000000E+00 0.  1.
    9000005    2    1    2  501    0  0.36020701114E+02 -0.50742675411E+01 -0.82537246858E+02  0.90262237902E+02  0.34110661710E+01 0.  0.
         13    1    3    3    0    0  0.17199368028E+02 -0.10882776758E+01 -0.41661172498E+02  0.45084985336E+02  0.00000000000E+00 0.  1.
          3    1    3    3  501    0  0.18821333085E+02 -0.39859898653E+01 -0.40876074360E+02  0.45177252566E+02  0.00000000000E+00 0.  1.
         -3    1    1    2    0  502 -0.36020701114E+02  0.50742675411E+01 -0.91323816296E+03  0.91396235228E+03  0.00000000000E+00 0. -1.
<mgrwt>
<rscale>  1 0.30000000E+03</rscale>
<asrwt>0</asrwt>
<pdfrwt beam="1">  1       21 0.15362179E-01 0.30000000E+03</pdfrwt>
<pdfrwt beam="2">0</pdfrwt>
<totfact> 0.39398881E+03</totfact>
</mgrwt>
</event>
<event>
 6    1  0.6377696E-002  0.3000000E+03  0.7818608E-02  0.1093470E+00
         21   -1    0    0  501  502  0.00000000000E+00  0.00000000000E+00  0.12390148747E+01  0.12390148747E+01  0.00000000000E+00 0. -1.
         13   -1    0    0    0    0 -0.00000000000E+00 -0.00000000000E+00 -0.10000000000E+04  0.10000000000E+04  0.00000000000E+00 0.  1.
    9000005    2    1    2  501    0  0.11626991760E+02  0.32213155675E+02 -0.60990664002E+03  0.61087946773E+03  0.38392998803E+01 0.  0.
         13    1    3    3    0    0  0.89176002416E+01  0.25746916525E+02 -0.50978858946E+03  0.51051624191E+03  0.00000000000E+00 0.  1.
          3    1    3    3  501    0  0.27093915181E+01  0.64662391506E+01 -0.10011805055E+03  0.10036322583E+03  0.00000000000E+00 0.  1.
         -3    1    1    2    0  502 -0.11626991760E+02 -0.32213155675E+02 -0.38885434511E+03  0.39035954714E+03  0.00000000000E+00 0. -1.
<mgrwt>
<rscale>  1 0.30000000E+03</rscale>
<asrwt>0</asrwt>
<pdfrwt beam="1">  1       21 0.45055181E-02 0.30000000E+03</pdfrwt>
<pdfrwt beam="2">0</pdfrwt>
<totfact> 0.34386602E+04</totfact>
</mgrwt>
</event>
<event>
 6    1  0.6377696E-002  0.3000000E+03  0.7818608E-02  0.1093470E+00
         21   -1    0    0  501  502  0.00000000000E+00  0.00000000000E+00  0.13973926616E+01  0.13973926616E+01  0.00000000000E+00 0. -1.
         13   -1    0    0    0    0 -0.00000000000E+00 -0.00000000000E+00 -0.10000000000E+04  0.10000000000E+04  0.00000000000E+00 0.  1.
    9000005    2    1    2  501    0  0.35938592143E+02  0.87425604008E+01 -0.56479195338E+03  0.56601285199E+03  0.35472874309E+01 0.  0.
         13    1    3    3    0    0  0.14646021826E+02  0.38253369032E+01 -0.25787170739E+03  0.25831561438E+03  0.00000000000E+00 0.  1.
          1    1    3    3  501    0  0.21292570316E+02  0.49172234976E+01 -0.30692024598E+03  0.30769723761E+03  0.00000000000E+00 0.  1.
         -1    1    1    2    0  502 -0.35938592143E+02 -0.87425604008E+01 -0.43381065396E+03  0.43538454067E+03  0.00000000000E+00 0. -1.
<mgrwt>
<rscale>  1 0.30000000E+03</rscale>
<asrwt>0</asrwt>
<pdfrwt beam="1">  1       21 0.50814386E-02 0.30000000E+03</pdfrwt>
<pdfrwt beam="2">0</pdfrwt>
<totfact> 0.28021817E+04</totfact>
</mgrwt>
</event>
<event>
 6    1  0.6377696E-002  0.3000000E+03  0.7818608E-02  0.1093470E+00
         21   -1    0    0  501  502  0.00000000000E+00  0.00000000000E+00  0.10239319894E+01  0.10239319894E+01  0.00000000000E+00 0. -1.
         13   -1    0    0    0    0 -0.00000000000E+00 -0.00000000000E+00 -0.10000000000E+04  0.10000000000E+04  0.00000000000E+00 0.  1.
    9000005    2    1    2  501    0  0.26823023390E+02  0.13446771655E+02 -0.67023488175E+03  0.67091628622E+03  0.36845825082E+01 0.  0.
         13    1    3    3    0    0  0.11737292719E+02  0.40717430674E+01 -0.25797331977E+03  0.25827229206E+03  0.00000000000E+00 0.  1.
          3    1    3    3  501    0  0.15085730672E+02  0.93750285878E+01 -0.41226156198E+03  0.41264399416E+03  0.00000000000E+00 0.  1.
         -1    1    1    2    0  502 -0.26823023390E+02 -0.13446771655E+02 -0.32874118626E+03  0.33010764577E+03  0.00000000000E+00 0. -1.
<mgrwt>
<rscale>  1 0.30000000E+03</rscale>
<asrwt>0</asrwt>
<pdfrwt beam="1">  1       21 0.37233969E-02 0.30000000E+03</pdfrwt>
<pdfrwt beam="2">0</pdfrwt>
<totfact> 0.47430884E+04</totfact>
</mgrwt>
</event>
<event>
 6    1  0.6377696E-002  0.3000000E+03  0.7818608E-02  0.1093470E+00
         21   -1    0    0  501  502  0.00000000000E+00  0.00000000000E+00  0.12200393212E+01  0.12200393212E+01  0.00000000000E+00 0. -1.
         13   -1    0    0    0    0 -0.00000000000E+00 -0.00000000000E+00 -0.10000000000E+04  0.10000000000E+04  0.00000000000E+00 0.  1.
    9000005    2    1    2  501    0 -0.21309231442E+02 -0.26821704148E+02 -0.42570567504E+03  0.42712281409E+03  0.59236303678E+01 0.  0.
         13    1    3    3    0    0 -0.34082603889E+01 -0.75333119697E+01 -0.84331348965E+02  0.84735727095E+02  0.00000000000E+00 0.  1.
          3    1    3    3  501    0 -0.17900971053E+02 -0.19288392178E+02 -0.34137432608E+03  0.34238708699E+03  0.00000000000E+00 0.  1.
         -3    1    1    2    0  502  0.21309231442E+02  0.26821704148E+02 -0.57307428564E+03  0.57409722523E+03  0.00000000000E+00 0. -1.
<mgrwt>
<rscale>  1 0.30000000E+03</rscale>
<asrwt>0</asrwt>
<pdfrwt beam="1">  1       21 0.44365160E-02 0.30000000E+03</pdfrwt>
<pdfrwt beam="2">0</pdfrwt>
<totfact> 0.35298581E+04</totfact>
</mgrwt>
</event>
<event>
 6    1  0.6377696E-002  0.3000000E+03  0.7818608E-02  0.1093470E+00
         21   -1    0    0  501  502  0.00000000000E+00  0.00000000000E+00  0.21117527758E+01  0.21117527758E+01  0.00000000000E+00 0. -1.
         13   -1    0    0    0    0 -0.00000000000E+00 -0.00000000000E+00 -0.10000000000E+04  0.10000000000E+04  0.00000000000E+00 0.  1.
    9000005    2    1    2  501    0 -0.32905169084E+02  0.29396869206E+02 -0.63631909137E+03  0.63786021807E+03  0.40921486759E+01 0.  0.
         13    1    3    3    0    0 -0.63657189237E+01  0.50062364626E+01 -0.96628813471E+02  0.96967584139E+02  0.00000000000E+00 0.  1.
          3    1    3    3  501    0 -0.26539450160E+02  0.24390632743E+02 -0.53969027790E+03  0.54089263393E+03  0.00000000000E+00 0.  1.
         -1    1    1    2    0  502  0.32905169084E+02 -0.29396869206E+02 -0.36156915586E+03  0.36425153471E+03  0.00000000000E+00 0. -1.
<mgrwt>
<rscale>  1 0.30000000E+03</rscale>
<asrwt>0</asrwt>
<pdfrwt beam="1">  1       21 0.76791172E-02 0.30000000E+03</pdfrwt>
<pdfrwt beam="2">0</pdfrwt>
<totfact> 0.13725108E+04</totfact>
</mgrwt>
</event>
<event>
 6    1  0.6377696E-002  0.3000000E+03  0.7818608E-02  0.1093470E+00
         21   -1    0    0  501  502  0.00000000000E+00  0.00000000000E+00  0.20736385635E+01  0.20736385635E+01  0.00000000000E+00 0. -1.
         13   -1    0    0    0    0 -0.00000000000E+00 -0.00000000000E+00 -0.10000000000E+04  0.10000000000E+04  0.00000000000E+00 0.  1.
    9000005    2    1    2  501    0  0.12838977813E+02  0.33828681670E+02 -0.80276879569E+03  0.80359015179E+03  0.31896176226E+01 0.  0.
         13    1    3    3    0    0  0.52966956313E+01  0.14357630723E+02 -0.30526861466E+03  0.30565196489E+03  0.00000000000E+00 0.  1.
          3    1    3    3  501    0  0.75422821822E+01  0.19471050947E+02 -0.49750018103E+03  0.49793818690E+03  0.00000000000E+00 0.  1.
         -3    1    1    2    0  502 -0.12838977813E+02 -0.33828681670E+02 -0.19515756574E+03  0.19848348677E+03  0.00000000000E+00 0. -1.
<mgrwt>
<rscale>  1 0.30000000E+03</rscale>
<asrwt>0</asrwt>
<pdfrwt beam="1">  1       21 0.75405198E-02 0.30000000E+03</pdfrwt>
<pdfrwt beam="2">0</pdfrwt>
<totfact> 0.14170136E+04</totfact>
</mgrwt>
</event>
<event>
 6    1  0.6377696E-002  0.3000000E+03  0.7818608E-02  0.1093470E+00
         21   -1    0    0  501  502  0.00000000000E+00  0.00000000000E+00  0.10102430319E+01  0.10102430319E+01  0.00000000000E+00 0. -1.
         13   -1    0    0    0    0 -0.00000000000E+00 -0.00000000000E+00 -0.10000000000E+04  0.10000000000E+04  0.00000000000E+00 0.  1.
    9000005    2    1    2  501    0  0.13161127568E+02 -0.28235147212E+02 -0.40804832814E+03  0.40924828825E+03  0.32069493469E+01 0.  0.
         13    1    3    3    0    0  0.99934597501E+01 -0.17949939199E+02 -0.27270005236E+03  0.27347282884E+03  0.00000000000E+00 0.  1.
          3    1    3    3  501    0  0.31676678181E+01 -0.10285208013E+02 -0.13534827577E+03  0.13577545941E+03  0.00000000000E+00 0.  1.
         -3    1    1    2    0  502 -0.13161127568E+02  0.28235147212E+02 -0.59094142883E+03  0.59176195478E+03  0.00000000000E+00 0. -1.
<mgrwt>
<rscale>  1 0.30000000E+03</rscale>
<asrwt>0</asrwt>
<pdfrwt beam="1">  1       21 0.36736188E-02 0.30000000E+03</pdfrwt>
<pdfrwt beam="2">0</pdfrwt>
<totfact> 0.48514560E+04</totfact>
</mgrwt>
</event>
<event>
 6    1  0.6377696E-002  0.3000000E+03  0.7818608E-02  0.1093470E+00
         21   -1    0    0  501  502  0.00000000000E+00  0.00000000000E+00  0.11954612201E+01  0.11954612201E+01  0.00000000000E+00 0. -1.
         13   -1    0    0    0    0 -0.00000000000E+00 -0.00000000000E+00 -0.10000000000E+04  0.10000000000E+04  0.00000000000E+00 0.  1.
    9000005    2    1    2  501    0 -0.22766778743E+02 -0.23693201625E+02 -0.34972072948E+03  0.35128047793E+03  0.37002060603E+01 0.  0.
         13    1    3    3    0    0 -0.22428580178E+02 -0.23404360382E+02 -0.34786917355E+03  0.34937625448E+03  0.00000000000E+00 0.  1.
          1    1    3    3  501    0 -0.33819856518E+00 -0.28884124222E+00 -0.18515559371E+01  0.19042234430E+01  0.00000000000E+00 0.  1.
         -1    1    1    2    0  502  0.22766778743E+02  0.23693201625E+02 -0.64908380930E+03  0.64991498329E+03  0.00000000000E+00 0. -1.
<mgrwt>
<rscale>  1 0.30000000E+03</rscale>
<asrwt>0</asrwt>
<pdfrwt beam="1">  1       21 0.43471409E-02 0.30000000E+03</pdfrwt>
<pdfrwt beam="2">0</pdfrwt>
<totfact> 0.36536509E+04</totfact>
</mgrwt>
</event>
<event>
 6    1  0.6377696E-002  0.3000000E+03  0.7818608E-02  0.1093470E+00
         21   -1    0    0  501  502  0.00000000000E+00  0.00000000000E+00  0.16201390174E+01  0.16201390174E+01  0.00000000000E+00 0. -1.
         13   -1    0    0    0    0 -0.00000000000E+00 -0.00000000000E+00 -0.10000000000E+04  0.10000000000E+04  0.00000000000E+00 0.  1.
    9000005    2    1    2  501    0  0.27038378427E+02  0.28800147825E+02 -0.59013890797E+03  0.59147236304E+03  0.38862729395E+01 0.  0.
         13    1    3    3    0    0  0.81912435767E+01  0.65907775007E+01 -0.17025058299E+03  0.17057489800E+03  0.00000000000E+00 0.  1.
          1    1    3    3  501    0  0.18847134850E+02  0.22209370324E+02 -0.41988832498E+03  0.42089746504E+03  0.00000000000E+00 0.  1.
         -3    1    1    2    0  502 -0.27038378427E+02 -0.28800147825E+02 -0.40824095301E+03  0.41014777598E+03  0.00000000000E+00 0. -1.
<mgrwt>
<rscale>  1 0.30000000E+03</rscale>
<asrwt>0</asrwt>
<pdfrwt beam="1">  1       21 0.58914270E-02 0.30000000E+03</pdfrwt>
<pdfrwt beam="2">0</pdfrwt>
<totfact> 0.21745619E+04</totfact>
</mgrwt>
</event>
<event>
 6    1  0.6377696E-002  0.3000000E+03  0.7818608E-02  0.1093470E+00
         21   -1    0    0  501  502  0.00000000000E+00  0.00000000000E+00  0.15631539739E+01  0.15631539739E+01  0.00000000000E+00 0. -1.
         13   -1    0    0    0    0 -0.00000000000E+00 -0.00000000000E+00 -0.10000000000E+04  0.10000000000E+04  0.00000000000E+00 0.  1.
    9000005    2    1    2  501    0 -0.13656695418E+02 -0.32171473483E+02 -0.26695514355E+03  0.26924697220E+03  0.27155723899E+01 0.  0.
         13    1    3    3    0    0 -0.81013282886E+01 -0.20400814315E+02 -0.15813317564E+03  0.15964938453E+03  0.00000000000E+00 0.  1.
          1    1    3    3  501    0 -0.55553671295E+01 -0.11770659168E+02 -0.10882196792E+03  0.10959758767E+03  0.00000000000E+00 0.  1.
         -3    1    1    2    0  502  0.13656695418E+02  0.32171473483E+02 -0.73148170247E+03  0.73231618178E+03  0.00000000000E+00 0. -1.
<mgrwt>
<rscale>  1 0.30000000E+03</rscale>
<asrwt>0</asrwt>
<pdfrwt beam="1">  1       21 0.56842083E-02 0.30000000E+03</pdfrwt>
<pdfrwt beam="2">0</pdfrwt>
<totfact> 0.23128319E+04</totfact>
</mgrwt>
</event>
<event>
 6    1  0.6377696E-002  0.3000000E+03  0.7818608E-02  0.1093470E+00
         21   -1    0    0  501  502  0.00000000000E+00  0.00000000000E+00  0.54933083968E+01  0.54933083968E+01  0.00000000000E+00 0. -1.
         13   -1    0    0    0    0 -0.00000000000E+00 -0.00000000000E+00 -0.10000000000E+04  0.10000000000E+04  0.00000000000E+00 0.  1.
    9000005    2    1    2  501    0  0.57265925422E+02  0.89401695512E+01 -0.18455657057E+03  0.19347205781E+03  0.33161070411E+01 0.  0.
         13    1    3    3    0    0  0.52130701614E+02  0.76661158495E+01 -0.16474579473E+03  0.17296692246E+03  0.00000000000E+00 0.  1.
          1    1    3    3  501    0  0.51352238081E+01  0.12740537017E+01 -0.19810775835E+02  0.20505135346E+02  0.00000000000E+00 0.  1.
         -1    1    1    2    0  502 -0.57265925422E+02 -0.89401695512E+01 -0.80995012103E+03  0.81202125059E+03  0.00000000000E+00 0. -1.
<mgrwt>
<rscale>  1 0.30000000E+03</rscale>
<asrwt>0</asrwt>
<pdfrwt beam="1">  1       21 0.19975709E-01 0.30000000E+03</pdfrwt>
<pdfrwt beam="2">0</pdfrwt>
<totfact> 0.24047943E+03</totfact>
</mgrwt>
</event>
<event>
 6    1  0.6377696E-002  0.3000000E+03  0.7818608E-02  0.1093470E+00
         21   -1    0    0  501  502  0.00000000000E+00  0.00000000000E+00  0.15334569428E+01  0.15334569428E+01  0.00000000000E+00 0. -1.
         13   -1    0    0    0    0 -0.00000000000E+00 -0.00000000000E+00 -0.10000000000E+04  0.10000000000E+04  0.00000000000E+00 0.  1.
    9000005    2    1    2  501    0  0.29518974798E+02  0.14868753479E+02 -0.23272397942E+03  0.23507789824E+03  0.29526157834E+01 0.  0.
         13    1    3    3    0    0  0.24717648017E+02  0.13363092792E+02 -0.20190573382E+03  0.20385156296E+03  0.00000000000E+00 0.  1.
          1    1    3    3  501    0  0.48013267807E+01  0.15056606864E+01 -0.30818245596E+02  0.31226335273E+02  0.00000000000E+00 0.  1.
         -3    1    1    2    0  502 -0.29518974798E+02 -0.14868753479E+02 -0.76574256364E+03  0.76645555871E+03  0.00000000000E+00 0. -1.
<mgrwt>
<rscale>  1 0.30000000E+03</rscale>
<asrwt>0</asrwt>
<pdfrwt beam="1">  1       21 0.55762188E-02 0.30000000E+03</pdfrwt>
<pdfrwt beam="2">0</pdfrwt>
<totfact> 0.23903059E+04</totfact>
</mgrwt>
</event>
<event>
 6    1  0.6377696E-002  0.3000000E+03  0.7818608E-02  0.1093470E+00
         21   -1    0    0  501  502  0.00000000000E+00  0.00000000000E+00  0.25150741970E+01  0.25150741970E+01  0.00000000000E+00 0. -1.
         13   -1    0    0    0    0 -0.00000000000E+00 -0.00000000000E+00 -0.10000000000E+04  0.10000000000E+04  0.00000000000E+00 0.  1.
    9000005    2    1    2  501    0 -0.21498816959E+02  0.45153913834E+02 -0.53022286042E+03  0.53258432099E+03  0.29499467325E+01 0.  0.
         13    1    3    3    0    0 -0.14909281712E+00  0.23477060846E+00 -0.13652194973E+01  0.13932588355E+01  0.00000000000E+00 0.  1.
          1    1    3    3  501    0 -0.21349724142E+02  0.44919143225E+02 -0.52885764093E+03  0.53119106216E+03  0.00000000000E+00 0.  1.
         -3    1    1    2    0  502  0.21498816959E+02 -0.45153913834E+02 -0.46726206538E+03  0.46993075321E+03  0.00000000000E+00 0. -1.
<mgrwt>
<rscale>  1 0.30000000E+03</rscale>
<asrwt>0</asrwt>
<pdfrwt beam="1">  1       21 0.91457436E-02 0.30000000E+03</pdfrwt>
<pdfrwt beam="2">0</pdfrwt>
<totfact> 0.10086678E+04</totfact>
</mgrwt>
</event>
<event>
 6    1  0.6377696E-002  0.3000000E+03  0.7818608E-02  0.1093470E+00
         21   -1    0    0  501  502  0.00000000000E+00  0.00000000000E+00  0.39675705107E+01  0.39675705107E+01  0.00000000000E+00 0. -1.
         13   -1    0    0    0    0 -0.00000000000E+00 -0.00000000000E+00 -0.10000000000E+04  0.10000000000E+04  0.00000000000E+00 0.  1.
    9000005    2    1    2  501    0 -0.44839150570E+01 -0.62352408689E+02 -0.55672502207E+03  0.56023462540E+03  0.34866795430E+01 0.  0.
         13    1    3    3    0    0 -0.14012145343E+00 -0.22868799819E+01 -0.27116439460E+02  0.27213061993E+02  0.00000000000E+00 0.  1.
          3    1    3    3  501    0 -0.43437936036E+01 -0.60065528707E+02 -0.52960858261E+03  0.53302156341E+03  0.00000000000E+00 0.  1.
         -1    1    1    2    0  502  0.44839150570E+01  0.62352408689E+02 -0.43930740742E+03  0.44373294511E+03  0.00000000000E+00 0. -1.
<mgrwt>
<rscale>  1 0.30000000E+03</rscale>
<asrwt>0</asrwt>
<pdfrwt beam="1">  1       21 0.14427560E-01 0.30000000E+03</pdfrwt>
<pdfrwt beam="2">0</pdfrwt>
<totfact> 0.44248399E+03</totfact>
</mgrwt>
</event>
<event>
 6    1  0.6377696E-002  0.3000000E+03  0.7818608E-02  0.1093470E+00
         21   -1    0    0  501  502  0.00000000000E+00  0.00000000000E+00  0.10633668643E+01  0.10633668643E+01  0.00000000000E+00 0. -1.
         13   -1    0    0    0    0 -0.00000000000E+00 -0.00000000000E+00 -0.10000000000E+04  0.10000000000E+04  0.00000000000E+00 0.  1.
    9000005    2    1    2  501    0  0.32407702238E+02 -0.20899946644E+01 -0.52804265634E+03  0.52905090451E+03  0.33444578956E+01 0.  0.
         13    1    3    3    0    0  0.30116755617E+01 -0.50357891086E-01 -0.35473897271E+02  0.35601546500E+02  0.00000000000E+00 0.  1.
          3    1    3    3  501    0  0.29396026676E+02 -0.20396367733E+01 -0.49256875907E+03  0.49344935801E+03  0.00000000000E+00 0.  1.
         -3    1    1    2    0  502 -0.32407702238E+02  0.20899946644E+01 -0.47089397679E+03  0.47201246236E+03  0.00000000000E+00 0. -1.
<mgrwt>
<rscale>  1 0.30000000E+03</rscale>
<asrwt>0</asrwt>
<pdfrwt beam="1">  1       21 0.38667968E-02 0.30000000E+03</pdfrwt>
<pdfrwt beam="2">0</pdfrwt>
<totfact> 0.44513121E+04</totfact>
</mgrwt>
</event>
<event>
 6    1  0.6377696E-002  0.3000000E+03  0.7818608E-02  0.1093470E+00
         21   -1    0    0  501  502  0.00000000000E+00  0.00000000000E+00  0.16609300613E+01  0.16609300613E+01  0.00000000000E+00 0. -1.
         13   -1    0    0    0    0 -0.00000000000E+00 -0.00000000000E+00 -0.10000000000E+04  0.10000000000E+04  0.00000000000E+00 0.  1.
    9000005    2    1    2  501    0 -0.32143528549E+02 -0.17143599433E+02 -0.27822435450E+03  0.28062534646E+03  0.38319980879E+01 0.  0.
         13    1    3    3    0    0 -0.20491542998E+02 -0.94691312593E+01 -0.18205890115E+03  0.18345302197E+03  0.00000000000E+00 0.  1.
          3    1    3    3  501    0 -0.11651985551E+02 -0.76744681736E+01 -0.96165453357E+02  0.97172324498E+02  0.00000000000E+00 0.  1.
         -3    1    1    2    0  502  0.32143528549E+02  0.17143599433E+02 -0.72011471543E+03  0.72103558360E+03  0.00000000000E+00 0. -1.
<mgrwt>
<rscale>  1 0.30000000E+03</rscale>
<asrwt>0</asrwt>
<pdfrwt beam="1">  1       21 0.60397584E-02 0.30000000E+03</pdfrwt>
<pdfrwt beam="2">0</pdfrwt>
<totfact> 0.20832980E+04</totfact>
</mgrwt>
</event>
<event>
 6    1  0.6377696E-002  0.3000000E+03  0.7818608E-02  0.1093470E+00
         21   -1    0    0  501  502  0.00000000000E+00  0.00000000000E+00  0.36510690813E+01  0.36510690813E+01  0.00000000000E+00 0. -1.
         13   -1    0    0    0    0 -0.00000000000E+00 -0.00000000000E+00 -0.10000000000E+04  0.10000000000E+04  0.00000000000E+00 0.  1.
    9000005    2    1    2  501    0  0.11980058423E+02 -0.35170962652E+02 -0.10386533932E+03  0.11039439842E+03  0.42890647159E+01 0.  0.
         13    1    3    3    0    0  0.91807817260E+00 -0.79246642793E+01 -0.20784832849E+02  0.22263253312E+02  0.00000000000E+00 0.  1.
          3    1    3    3  501    0  0.11061980251E+02 -0.27246298373E+02 -0.83080506476E+02  0.88131145110E+02  0.00000000000E+00 0.  1.
         -1    1    1    2    0  502 -0.11980058423E+02  0.35170962652E+02 -0.89248359159E+03  0.89325667066E+03  0.00000000000E+00 0. -1.
<mgrwt>
<rscale>  1 0.30000000E+03</rscale>
<asrwt>0</asrwt>
<pdfrwt beam="1">  1       21 0.13276643E-01 0.30000000E+03</pdfrwt>
<pdfrwt beam="2">0</pdfrwt>
<totfact> 0.51543059E+03</totfact>
</mgrwt>
</event>
<event>
 6    1  0.6377696E-002  0.3000000E+03  0.7818608E-02  0.1093470E+00
         21   -1    0    0  501  502  0.00000000000E+00  0.00000000000E+00  0.10836461408E+01  0.10836461408E+01  0.00000000000E+00 0. -1.
         13   -1    0    0    0    0 -0.00000000000E+00 -0.00000000000E+00 -0.10000000000E+04  0.10000000000E+04  0.00000000000E+00 0.  1.
    9000005    2    1    2  501    0  0.25557984286E+02  0.17703745108E+02 -0.33828023526E+03  0.33971633946E+03  0.26534082472E+01 0.  0.
         13    1    3    3    0    0  0.14699211385E+02  0.10929575039E+02 -0.21151310341E+03  0.21230476994E+03  0.00000000000E+00 0.  1.
          3    1    3    3  501    0  0.10858772901E+02  0.67741700683E+01 -0.12676713185E+03  0.12741156952E+03  0.00000000000E+00 0.  1.
         -3    1    1    2    0  502 -0.25557984286E+02 -0.17703745108E+02 -0.66063611860E+03  0.66136730668E+03  0.00000000000E+00 0. -1.
<mgrwt>
<rscale>  1 0.30000000E+03</rscale>
<asrwt>0</asrwt>
<pdfrwt beam="1">  1       21 0.39405397E-02 0.30000000E+03</pdfrwt>
<pdfrwt beam="2">0</pdfrwt>
<totfact> 0.43120891E+04</totfact>
</mgrwt>
</event>
<event>
 6    1  0.6377696E-002  0.3000000E+03  0.7818608E-02  0.1093470E+00
         21   -1    0    0  501  502  0.00000000000E+00  0.00000000000E+00  0.18846417400E+01  0.18846417400E+01  0.00000000000E+00 0. -1.
         13   -1    0    0    0    0 -0.00000000000E+00 -0.00000000000E+00 -0.10000000000E+04  0.10000000000E+04  0.00000000000E+00 0.  1.
    9000005    2    1    2  501    0 -0.72506903913E+01 -0.37671299685E+02 -0.26747269692E+03  0.27023554695E+03  0.37293308837E+01 0.  0.
         13    1    3    3    0    0 -0.47930571678E+01 -0.17748267120E+02 -0.11890185188E+03  0.12031469055E+03  0.00000000000E+00 0.  1.
          1    1    3    3  501    0 -0.24576332235E+01 -0.19923032565E+02 -0.14857084504E+03  0.14992085640E+03  0.00000000000E+00 0.  1.
         -1    1    1    2    0  502  0.72506903913E+01  0.37671299685E+02 -0.73064266134E+03  0.73164909479E+03  0.00000000000E+00 0. -1.
<mgrwt>
<rscale>  1 0.30000000E+03</rscale>
<asrwt>0</asrwt>
<pdfrwt beam="1">  1       21 0.68532571E-02 0.30000000E+03</pdfrwt>
<pdfrwt beam="2">0</pdfrwt>
<totfact> 0.16740799E+04</totfact>
</mgrwt>
</event>
<event>
 6    1  0.6377696E-002  0.3000000E+03  0.7818608E-02  0.1093470E+00
         21   -1    0    0  501  502  0.00000000000E+00  0.00000000000E+00  0.14180014004E+01  0.14180014004E+01  0.00000000000E+00 0. -1.
         13   -1    0    0    0    0 -0.00000000000E+00 -0.00000000000E+00 -0.10000000000E+04  0.10000000000E+04  0.00000000000E+00 0.  1.
    9000005    2    1    2  501    0 -0.33018418167E+02 -0.13211777902E+02 -0.66216275102E+03  0.66312422795E+03  0.30766608076E+01 0.  0.
         13    1    3    3    0    0 -0.31323115507E+02 -0.12879991047E+02 -0.63918562097E+03  0.64008225237E+03  0.00000000000E+00 0.  1.
          1    1    3    3  501    0 -0.16953026605E+01 -0.33178685454E+00 -0.22977130047E+02  0.23041975585E+02  0.00000000000E+00 0.  1.
         -1    1    1    2    0  502  0.33018418167E+02  0.13211777902E+02 -0.33641924758E+03  0.33829377345E+03  0.00000000000E+00 0. -1.
<mgrwt>
<rscale>  1 0.30000000E+03</rscale>
<asrwt>0</asrwt>
<pdfrwt beam="1">  1       21 0.51563796E-02 0.30000000E+03</pdfrwt>
<pdfrwt beam="2">0</pdfrwt>
<totfact> 0.27330278E+04</totfact>
</mgrwt>
</event>
<event>
 6    1  0.6377696E-002  0.3000000E+03  0.7818608E-02  0.1093470E+00
         21   -1    0    0  501  502  0.00000000000E+00  0.00000000000E+00  0.26347587085E+01  0.26347587085E+01  0.00000000000E+00 0. -1.
         13   -1    0    0    0    0 -0.00000000000E+00 -0.00000000000E+00 -0.10000000000E+04  0.10000000000E+04  0.00000000000E+00 0.  1.
    9000005    2    1    2  501    0 -0.45820301584E+02  0.87538822495E+01 -0.29221581863E+03  0.29594399269E+03  0.40781934567E+01 0.  0.
         13    1    3    3    0    0 -0.93220544706E+01  0.26023943602E+01 -0.70197585896E+02  0.70861655510E+02  0.00000000000E+00 0.  1.
          3    1    3    3  501    0 -0.36498247113E+02  0.61514878893E+01 -0.22201823274E+03  0.22508233718E+03  0.00000000000E+00 0.  1.
         -1    1    1    2    0  502  0.45820301584E+02 -0.87538822495E+01 -0.70514942266E+03  0.70669076601E+03  0.00000000000E+00 0. -1.
<mgrwt>
<rscale>  1 0.30000000E+03</rscale>
<asrwt>0</asrwt>
<pdfrwt beam="1">  1       21 0.95809610E-02 0.30000000E+03</pdfrwt>
<pdfrwt beam="2">0</pdfrwt>
<totfact> 0.92862184E+03</totfact>
</mgrwt>
</event>
<event>
 6    1  0.7175916E-002  0.3000000E+03  0.7818608E-02  0.1093470E+00
         21   -1    0    0  501  502  0.00000000000E+00  0.00000000000E+00  0.83431925932E+01  0.83431925932E+01  0.00000000000E+00 0. -1.
         13   -1    0    0    0    0 -0.00000000000E+00 -0.00000000000E+00 -0.10000000000E+04  0.10000000000E+04  0.00000000000E+00 0.  1.
    9000005    2    1    2  501    0  0.71738213828E+02  0.40889983258E+02 -0.71109294418E+03  0.71588047120E+03  0.36485248419E+01 0.  0.
         13    1    3    3    0    0  0.53210709989E+02  0.30373892565E+02 -0.54112251098E+03  0.54458013634E+03  0.00000000000E+00 0.  1.
          1    1    3    3  501    0  0.18527503840E+02  0.10516090693E+02 -0.16997043320E+03  0.17130033486E+03  0.00000000000E+00 0.  1.
         -3    1    1    2    0  502 -0.71738213828E+02 -0.40889983258E+02 -0.28056386323E+03  0.29246272139E+03  0.00000000000E+00 0. -1.
<mgrwt>
<rscale>  1 0.30000000E+03</rscale>
<asrwt>0</asrwt>
<pdfrwt beam="1">  1       21 0.30338946E-01 0.30000000E+03</pdfrwt>
<pdfrwt beam="2">0</pdfrwt>
<totfact> 0.10630960E+03</totfact>
</mgrwt>
</event>
<event>
 6    1  0.6377696E-002  0.3000000E+03  0.7818608E-02  0.1093470E+00
         21   -1    0    0  501  502  0.00000000000E+00  0.00000000000E+00  0.15933158998E+01  0.15933158998E+01  0.00000000000E+00 0. -1.
         13   -1    0    0    0    0 -0.00000000000E+00 -0.00000000000E+00 -0.10000000000E+04  0.10000000000E+04  0.00000000000E+00 0.  1.
    9000005    2    1    2  501    0  0.30935026490E+02  0.21193322667E+02 -0.66914271940E+03  0.67020096348E+03  0.33495879309E+01 0.  0.
         13    1    3    3    0    0  0.15920217310E+02  0.12367391779E+02 -0.37949267336E+03  0.38002775534E+03  0.00000000000E+00 0.  1.
          1    1    3    3  501    0  0.15014809180E+02  0.88259308879E+01 -0.28965004604E+03  0.29017320814E+03  0.00000000000E+00 0.  1.
         -3    1    1    2    0  502 -0.30935026490E+02 -0.21193322667E+02 -0.32926396470E+03  0.33139235242E+03  0.00000000000E+00 0. -1.
<mgrwt>
<rscale>  1 0.30000000E+03</rscale>
<asrwt>0</asrwt>
<pdfrwt beam="1">  1       21 0.57938882E-02 0.30000000E+03</pdfrwt>
<pdfrwt beam="2">0</pdfrwt>
<totfact> 0.22380169E+04</totfact>
</mgrwt>
</event>
<event>
 6    1  0.6377696E-002  0.3000000E+03  0.7818608E-02  0.1093470E+00
         21   -1    0    0  501  502  0.00000000000E+00  0.00000000000E+00  0.35537571154E+01  0.35537571154E+01  0.00000000000E+00 0. -1.
         13   -1    0    0    0    0 -0.00000000000E+00 -0.00000000000E+00 -0.10000000000E+04  0.10000000000E+04  0.00000000000E+00 0.  1.
    9000005    2    1    2  501    0  0.55895719644E+01  0.53641784809E+02 -0.28600702194E+03  0.29107037412E+03  0.36416613561E+01 0.  0.
         13    1    3    3    0    0  0.20729495711E+01  0.23465184713E+02 -0.11546940417E+03  0.11784776329E+03  0.00000000000E+00 0.  1.
          1    1    3    3  501    0  0.35166223933E+01  0.30176600097E+02 -0.17053761778E+03  0.17322261083E+03  0.00000000000E+00 0.  1.
         -1    1    1    2    0  502 -0.55895719644E+01 -0.53641784809E+02 -0.71043922094E+03  0.71248338299E+03  0.00000000000E+00 0. -1.
<mgrwt>
<rscale>  1 0.30000000E+03</rscale>
<asrwt>0</asrwt>
<pdfrwt beam="1">  1       21 0.12922780E-01 0.30000000E+03</pdfrwt>
<pdfrwt beam="2">0</pdfrwt>
<totfact> 0.54151067E+03</totfact>
</mgrwt>
</event>
<event>
 6    1  0.6377696E-002  0.3000000E+03  0.7818608E-02  0.1093470E+00
         21   -1    0    0  501  502  0.00000000000E+00  0.00000000000E+00  0.14100589342E+01  0.14100589342E+01  0.00000000000E+00 0. -1.
         13   -1    0    0    0    0 -0.00000000000E+00 -0.00000000000E+00 -0.10000000000E+04  0.10000000000E+04  0.00000000000E+00 0.  1.
    9000005    2    1    2  501    0 -0.29157852203E+02 -0.15258265622E+02 -0.73941727291E+03  0.74015641411E+03  0.32586586198E+01 0.  0.
         13    1    3    3    0    0 -0.16505510948E+02 -0.10353732593E+02 -0.42446757508E+03  0.42491452548E+03  0.00000000000E+00 0.  1.
          1    1    3    3  501    0 -0.12652341254E+02 -0.49045330285E+01 -0.31494969782E+03  0.31524188862E+03  0.00000000000E+00 0.  1.
         -3    1    1    2    0  502  0.29157852203E+02  0.15258265622E+02 -0.25917266816E+03  0.26125364483E+03  0.00000000000E+00 0. -1.
<mgrwt>
<rscale>  1 0.30000000E+03</rscale>
<asrwt>0</asrwt>
<pdfrwt beam="1">  1       21 0.51274978E-02 0.30000000E+03</pdfrwt>
<pdfrwt beam="2">0</pdfrwt>
<totfact> 0.27593619E+04</totfact>
</mgrwt>
</event>
<event>
 6    1  0.6377696E-002  0.3000000E+03  0.7818608E-02  0.1093470E+00
         21   -1    0    0  501  502  0.00000000000E+00  0.00000000000E+00  0.18390125470E+01  0.18390125470E+01  0.00000000000E+00 0. -1.
         13   -1    0    0    0    0 -0.00000000000E+00 -0.00000000000E+00 -0.10000000000E+04  0.10000000000E+04  0.00000000000E+00 0.  1.
    9000005    2    1    2  501    0 -0.20084168234E+02 -0.33238392609E+02 -0.71065952653E+03  0.71172652645E+03  0.30856518032E+01 0.  0.
         13    1    3    3    0    0 -0.84618974681E+00 -0.15405876895E+01 -0.22350368928E+02  0.22419376413E+02  0.00000000000E+00 0.  1.
          1    1    3    3  501    0 -0.19237978487E+02 -0.31697804920E+02 -0.68830915760E+03  0.68930715003E+03  0.00000000000E+00 0.  1.
         -1    1    1    2    0  502  0.20084168234E+02  0.33238392609E+02 -0.28750146092E+03  0.29011248610E+03  0.00000000000E+00 0. -1.
<mgrwt>
<rscale>  1 0.30000000E+03</rscale>
<asrwt>0</asrwt>
<pdfrwt beam="1">  1       21 0.66873325E-02 0.30000000E+03</pdfrwt>
<pdfrwt beam="2">0</pdfrwt>
<totfact> 0.17468429E+04</totfact>
</mgrwt>
</event>
<event>
 6    1  0.6377696E-002  0.3000000E+03  0.7818608E-02  0.1093470E+00
         21   -1    0    0  501  502  0.00000000000E+00  0.00000000000E+00  0.28544733072E+01  0.28544733072E+01  0.00000000000E+00 0. -1.
         13   -1    0    0    0    0 -0.00000000000E+00 -0.00000000000E+00 -0.10000000000E+04  0.10000000000E+04  0.00000000000E+00 0.  1.
    9000005    2    1    2  501    0  0.41269508033E+02 -0.10873742414E+02 -0.19889002173E+03  0.20345891304E+03  0.41082825205E+01 0.  0.
         13    1    3    3    0    0  0.34135976153E+02 -0.74947373436E+01 -0.16523958369E+03  0.16889510346E+03  0.00000000000E+00 0.  1.
          1    1    3    3  501    0  0.71335318797E+01 -0.33790050709E+01 -0.33650438037E+02  0.34563809576E+02  0.00000000000E+00 0.  1.
         -3    1    1    2    0  502 -0.41269508033E+02  0.10873742414E+02 -0.79825550497E+03  0.79939556027E+03  0.00000000000E+00 0. -1.
<mgrwt>
<rscale>  1 0.30000000E+03</rscale>
<asrwt>0</asrwt>
<pdfrwt beam="1">  1       21 0.10379925E-01 0.30000000E+03</pdfrwt>
<pdfrwt beam="2">0</pdfrwt>
<totfact> 0.80480330E+03</totfact>
</mgrwt>
</event>
<event>
 6    1  0.6377696E-002  0.3000000E+03  0.7818608E-02  0.1093470E+00
         21   -1    0    0  501  502  0.00000000000E+00  0.00000000000E+00  0.17946666462E+01  0.17946666462E+01  0.00000000000E+00 0. -1.
         13   -1    0    0    0    0 -0.00000000000E+00 -0.00000000000E+00 -0.10000000000E+04  0.10000000000E+04  0.00000000000E+00 0.  1.
    9000005    2    1    2  501    0  0.35739528107E+00  0.32970163529E+02 -0.18741692573E+03  0.19033610249E+03  0.39456867980E+01 0.  0.
         13    1    3    3    0    0 -0.66849266425E+00  0.37890664901E+01 -0.16475813083E+02  0.16919111208E+02  0.00000000000E+00 0.  1.
          1    1    3    3  501    0  0.10258879453E+01  0.29181097039E+02 -0.17094111265E+03  0.17341699128E+03  0.00000000000E+00 0.  1.
         -1    1    1    2    0  502 -0.35739528107E+00 -0.32970163529E+02 -0.81078840762E+03  0.81145856416E+03  0.00000000000E+00 0. -1.
<mgrwt>
<rscale>  1 0.30000000E+03</rscale>
<asrwt>0</asrwt>
<pdfrwt beam="1">  1       21 0.65260743E-02 0.30000000E+03</pdfrwt>
<pdfrwt beam="2">0</pdfrwt>
<totfact> 0.18223277E+04</totfact>
</mgrwt>
</event>
<event>
 6    1  0.6377696E-002  0.3000000E+03  0.7818608E-02  0.1093470E+00
         21   -1    0    0  501  502  0.00000000000E+00  0.00000000000E+00  0.20630494569E+01  0.20630494569E+01  0.00000000000E+00 0. -1.
         13   -1    0    0    0    0 -0.00000000000E+00 -0.00000000000E+00 -0.10000000000E+04  0.10000000000E+04  0.00000000000E+00 0.  1.
    9000005    2    1    2  501    0  0.29804564494E+02  0.25576383803E+02 -0.74995338603E+03  0.75098873428E+03  0.33962220329E+01 0.  0.
         13    1    3    3    0    0  0.12417086298E+01  0.20500386885E+01 -0.40276584162E+02  0.40347834275E+02  0.00000000000E+00 0.  1.
          1    1    3    3  501    0  0.28562855864E+02  0.23526345114E+02 -0.70967680186E+03  0.71064090000E+03  0.00000000000E+00 0.  1.
         -3    1    1    2    0  502 -0.29804564494E+02 -0.25576383803E+02 -0.24798356452E+03  0.25107431518E+03  0.00000000000E+00 0. -1.
<mgrwt>
<rscale>  1 0.30000000E+03</rscale>
<asrwt>0</asrwt>
<pdfrwt beam="1">  1       21 0.75020138E-02 0.30000000E+03</pdfrwt>
<pdfrwt beam="2">0</pdfrwt>
<totfact> 0.14297741E+04</totfact>
</mgrwt>
</event>
<event>
 6    1  0.6377696E-002  0.3000000E+03  0.7818608E-02  0.1093470E+00
         21   -1    0    0  501  502  0.00000000000E+00  0.00000000000E+00  0.27893310870E+01  0.27893310870E+01  0.00000000000E+00 0. -1.
         13   -1    0    0    0    0 -0.00000000000E+00 -0.00000000000E+00 -0.10000000000E+04  0.10000000000E+04  0.00000000000E+00 0.  1.
    9000005    2    1    2  501    0  0.10178195930E+02  0.47481580129E+02 -0.30341881029E+03  0.30730012253E+03  0.35063865827E+01 0.  0.
         13    1    3    3    0    0  0.80341830204E+01  0.29688776561E+02 -0.19446596075E+03  0.19688316698E+03  0.00000000000E+00 0.  1.
          3    1    3    3  501    0  0.21440129096E+01  0.17792803568E+02 -0.10895284954E+03  0.11041695555E+03  0.00000000000E+00 0.  1.
         -1    1    1    2    0  502 -0.10178195930E+02 -0.47481580129E+02 -0.69379185863E+03  0.69548920856E+03  0.00000000000E+00 0. -1.
<mgrwt>
<rscale>  1 0.30000000E+03</rscale>
<asrwt>0</asrwt>
<pdfrwt beam="1">  1       21 0.10143044E-01 0.30000000E+03</pdfrwt>
<pdfrwt beam="2">0</pdfrwt>
<totfact> 0.83875174E+03</totfact>
</mgrwt>
</event>
<event>
 6    1  0.6377696E-002  0.3000000E+03  0.7818608E-02  0.1093470E+00
         21   -1    0    0  501  502  0.00000000000E+00  0.00000000000E+00  0.13249457525E+01  0.13249457525E+01  0.00000000000E+00 0. -1.
         13   -1    0    0    0    0 -0.00000000000E+00 -0.00000000000E+00 -0.10000000000E+04  0.10000000000E+04  0.00000000000E+00 0.  1.
    9000005    2    1    2  501    0  0.33367418303E+02  0.11220607071E+02 -0.38427352818E+03  0.38591571454E+03  0.50505090784E+01 0.  0.
         13    1    3    3    0    0  0.11355804243E+02  0.28307380511E+01 -0.15239574816E+03  0.15284446809E+03  0.00000000000E+00 0.  1.
          1    1    3    3  501    0  0.22011614060E+02  0.83898690199E+01 -0.23187778001E+03  0.23307124645E+03  0.00000000000E+00 0.  1.
         -3    1    1    2    0  502 -0.33367418303E+02 -0.11220607071E+02 -0.61440152607E+03  0.61540923121E+03  0.00000000000E+00 0. -1.
<mgrwt>
<rscale>  1 0.30000000E+03</rscale>
<asrwt>0</asrwt>
<pdfrwt beam="1">  1       21 0.48179947E-02 0.30000000E+03</pdfrwt>
<pdfrwt beam="2">0</pdfrwt>
<totfact> 0.30682541E+04</totfact>
</mgrwt>
</event>
<event>
 6    1  0.6377696E-002  0.3000000E+03  0.7818608E-02  0.1093470E+00
         21   -1    0    0  501  502  0.00000000000E+00  0.00000000000E+00  0.14265298414E+01  0.14265298414E+01  0.00000000000E+00 0. -1.
         13   -1    0    0    0    0 -0.00000000000E+00 -0.00000000000E+00 -0.10000000000E+04  0.10000000000E+04  0.00000000000E+00 0.  1.
    9000005    2    1    2  501    0  0.99756472522E+01  0.31783792023E+02 -0.26555147194E+03  0.26764797139E+03  0.28512041640E+01 0.  0.
         13    1    3    3    0    0  0.36995881681E+01  0.14042395818E+02 -0.12570139928E+03  0.12653741587E+03  0.00000000000E+00 0.  1.
          3    1    3    3  501    0  0.62760590841E+01  0.17741396205E+02 -0.13985007266E+03  0.14111055552E+03  0.00000000000E+00 0.  1.
         -1    1    1    2    0  502 -0.99756472522E+01 -0.31783792023E+02 -0.73302199821E+03  0.73377855845E+03  0.00000000000E+00 0. -1.
<mgrwt>
<rscale>  1 0.30000000E+03</rscale>
<asrwt>0</asrwt>
<pdfrwt beam="1">  1       21 0.51873922E-02 0.30000000E+03</pdfrwt>
<pdfrwt beam="2">0</pdfrwt>
<totfact> 0.27051827E+04</totfact>
</mgrwt>
</event>
<event>
 6    1  0.6377696E-002  0.3000000E+03  0.7818608E-02  0.1093470E+00
         21   -1    0    0  501  502  0.00000000000E+00  0.00000000000E+00  0.46820384184E+01  0.46820384184E+01  0.00000000000E+00 0. -1.
         13   -1    0    0    0    0 -0.00000000000E+00 -0.00000000000E+00 -0.10000000000E+04  0.10000000000E+04  0.00000000000E+00 0.  1.
    9000005    2    1    2  501    0 -0.44543984194E+02 -0.15198492256E+02 -0.13406404831E+03  0.14214307477E+03  0.40402920277E+01 0.  0.
         13    1    3    3    0    0 -0.38149621335E+02 -0.12738570809E+02 -0.10998683492E+03  0.11711007066E+03  0.00000000000E+00 0.  1.
          3    1    3    3  501    0 -0.63943628598E+01 -0.24599214468E+01 -0.24077213393E+02  0.25033004108E+02  0.00000000000E+00 0.  1.
         -1    1    1    2    0  502  0.44543984194E+02  0.15198492256E+02 -0.86125391327E+03  0.86253896365E+03  0.00000000000E+00 0. -1.
<mgrwt>
<rscale>  1 0.30000000E+03</rscale>
<asrwt>0</asrwt>
<pdfrwt beam="1">  1       21 0.17025630E-01 0.30000000E+03</pdfrwt>
<pdfrwt beam="2">0</pdfrwt>
<totfact> 0.32523304E+03</totfact>
</mgrwt>
</event>
<event>
 6    1  0.6377696E-002  0.3000000E+03  0.7818608E-02  0.1093470E+00
         21   -1    0    0  501  502  0.00000000000E+00  0.00000000000E+00  0.40770469413E+01  0.40770469413E+01  0.00000000000E+00 0. -1.
         13   -1    0    0    0    0 -0.00000000000E+00 -0.00000000000E+00 -0.10000000000E+04  0.10000000000E+04  0.00000000000E+00 0.  1.
    9000005    2    1    2  501    0  0.37867053400E+02  0.46639420964E+02 -0.32938409008E+03  0.33483627921E+03  0.35079569743E+01 0.  0.
         13    1    3    3    0    0  0.43658774150E+00  0.83731612721E+00 -0.33842922607E+01  0.35135653201E+01  0.00000000000E+00 0.  1.
          1    1    3    3  501    0  0.37430465658E+02  0.45802104837E+02 -0.32599979782E+03  0.33132271389E+03  0.00000000000E+00 0.  1.
         -3    1    1    2    0  502 -0.37867053400E+02 -0.46639420964E+02 -0.66653886298E+03  0.66924076773E+03  0.00000000000E+00 0. -1.
<mgrwt>
<rscale>  1 0.30000000E+03</rscale>
<asrwt>0</asrwt>
<pdfrwt beam="1">  1       21 0.14825657E-01 0.30000000E+03</pdfrwt>
<pdfrwt beam="2">0</pdfrwt>
<totfact> 0.42080532E+03</totfact>
</mgrwt>
</event>
<event>
 6    1  0.6377696E-002  0.3000000E+03  0.7818608E-02  0.1093470E+00
         21   -1    0    0  501  502  0.00000000000E+00  0.00000000000E+00  0.11643749840E+01  0.11643749840E+01  0.00000000000E+00 0. -1.
         13   -1    0    0    0    0 -0.00000000000E+00 -0.00000000000E+00 -0.10000000000E+04  0.10000000000E+04  0.00000000000E+00 0.  1.
    9000005    2    1    2  501    0 -0.29424323720E+02 -0.16998497775E+02 -0.47337926055E+03  0.47461035998E+03  0.35113720841E+01 0.  0.
         13    1    3    3    0    0 -0.28831952230E+01 -0.54275692742E+00 -0.40704349107E+02  0.40809942857E+02  0.00000000000E+00 0.  1.
          3    1    3    3  501    0 -0.26541128497E+02 -0.16455740848E+02 -0.43267491144E+03  0.43380041713E+03  0.00000000000E+00 0.  1.
         -3    1    1    2    0  502  0.29424323720E+02  0.16998497775E+02 -0.52545636447E+03  0.52655401500E+03  0.00000000000E+00 0. -1.
<mgrwt>
<rscale>  1 0.30000000E+03</rscale>
<asrwt>0</asrwt>
<pdfrwt beam="1">  1       21 0.42340998E-02 0.30000000E+03</pdfrwt>
<pdfrwt beam="2">0</pdfrwt>
<totfact> 0.38201123E+04</totfact>
</mgrwt>
</event>
<event>
 6    1  0.6377696E-002  0.3000000E+03  0.7818608E-02  0.1093470E+00
         21   -1    0    0  501  502  0.00000000000E+00  0.00000000000E+00  0.21665683064E+01  0.21665683064E+01  0.00000000000E+00 0. -1.
         13   -1    0    0    0    0 -0.00000000000E+00 -0.00000000000E+00 -0.10000000000E+04  0.10000000000E+04  0.00000000000E+00 0.  1.
    9000005    2    1    2  501    0  0.44180611358E+02  0.38864011177E+00 -0.65544933267E+03  0.65694352631E+03  0.29818789329E+01 0.  0.
         13    1    3    3    0    0  0.23202897860E+02  0.16274869363E+01 -0.35082948556E+03  0.35159970296E+03  0.00000000000E+00 0.  1.
          3    1    3    3  501    0  0.20977713497E+02 -0.12388468245E+01 -0.30461984712E+03  0.30534382336E+03  0.00000000000E+00 0.  1.
         -3    1    1    2    0  502 -0.44180611358E+02 -0.38864011177E+00 -0.34238409902E+03  0.34522304199E+03  0.00000000000E+00 0. -1.
<mgrwt>
<rscale>  1 0.30000000E+03</rscale>
<asrwt>0</asrwt>
<pdfrwt beam="1">  1       21 0.78784468E-02 0.30000000E+03</pdfrwt>
<pdfrwt beam="2">0</pdfrwt>
<totfact> 0.13121904E+04</totfact>
</mgrwt>
</event>
<event>
 6    1  0.6377696E-002  0.3000000E+03  0.7818608E-02  0.1093470E+00
         21   -1    0    0  501  502  0.00000000000E+00  0.00000000000E+00  0.15623205261E+01  0.15623205261E+01  0.00000000000E+00 0. -1.
         13   -1    0    0    0    0 -0.00000000000E+00 -0.00000000000E+00 -0.10000000000E+04  0.10000000000E+04  0.00000000000E+00 0.  1.
    9000005    2    1    2  501    0  0.26969782951E+01 -0.31112672644E+02 -0.80571985597E+03  0.80633058236E+03  0.30413245338E+01 0.  0.
         13    1    3    3    0    0  0.22872769428E+01 -0.17735032097E+02 -0.42683541003E+03  0.42720981995E+03  0.00000000000E+00 0.  1.
          1    1    3    3  501    0  0.40970135226E+00 -0.13377640548E+02 -0.37888444594E+03  0.37912076242E+03  0.00000000000E+00 0.  1.
         -1    1    1    2    0  502 -0.26969782951E+01  0.31112672644E+02 -0.19271782350E+03  0.19523173816E+03  0.00000000000E+00 0. -1.
<mgrwt>
<rscale>  1 0.30000000E+03</rscale>
<asrwt>0</asrwt>
<pdfrwt beam="1">  1       21 0.56811775E-02 0.30000000E+03</pdfrwt>
<pdfrwt beam="2">0</pdfrwt>
<totfact> 0.23149534E+04</totfact>
</mgrwt>
</event>
<event>
 6    1  0.6377696E-002  0.3000000E+03  0.7818608E-02  0.1093470E+00
         21   -1    0    0  501  502  0.00000000000E+00  0.00000000000E+00  0.17855586070E+01  0.17855586070E+01  0.00000000000E+00 0. -1.
         13   -1    0    0    0    0 -0.00000000000E+00 -0.00000000000E+00 -0.10000000000E+04  0.10000000000E+04  0.00000000000E+00 0.  1.
    9000005    2    1    2  501    0  0.38479562161E+02 -0.17273684095E+02 -0.48476745371E+03  0.48660901990E+03  0.31300498358E+01 0.  0.
         13    1    3    3    0    0  0.11650545205E+02 -0.38495816516E+01 -0.14838995911E+03  0.14889638830E+03  0.00000000000E+00 0.  1.
          1    1    3    3  501    0  0.26829016956E+02 -0.13424102444E+02 -0.33637749459E+03  0.33771263161E+03  0.00000000000E+00 0.  1.
         -3    1    1    2    0  502 -0.38479562161E+02  0.17273684095E+02 -0.51344698769E+03  0.51517653870E+03  0.00000000000E+00 0. -1.
<mgrwt>
<rscale>  1 0.30000000E+03</rscale>
<asrwt>0</asrwt>
<pdfrwt beam="1">  1       21 0.64929541E-02 0.30000000E+03</pdfrwt>
<pdfrwt beam="2">0</pdfrwt>
<totfact> 0.18384535E+04</totfact>
</mgrwt>
</event>
<event>
 6    1  0.6377696E-002  0.3000000E+03  0.7818608E-02  0.1093470E+00
         21   -1    0    0  501  502  0.00000000000E+00  0.00000000000E+00  0.18753842726E+01  0.18753842726E+01  0.00000000000E+00 0. -1.
         13   -1    0    0    0    0 -0.00000000000E+00 -0.00000000000E+00 -0.10000000000E+04  0.10000000000E+04  0.00000000000E+00 0.  1.
    9000005    2    1    2  501    0  0.42975692745E+02  0.47533316241E+01 -0.48893993015E+03  0.49085821396E+03  0.31664787671E+01 0.  0.
         13    1    3    3    0    0  0.29758595954E+02  0.27392511728E+01 -0.35274656503E+03  0.35401019289E+03  0.00000000000E+00 0.  1.
          1    1    3    3  501    0  0.13217096790E+02  0.20140804513E+01 -0.13619336512E+03  0.13684802107E+03  0.00000000000E+00 0.  1.
         -3    1    1    2    0  502 -0.42975692745E+02 -0.47533316241E+01 -0.50918468557E+03  0.51101717031E+03  0.00000000000E+00 0. -1.
<mgrwt>
<rscale>  1 0.30000000E+03</rscale>
<asrwt>0</asrwt>
<pdfrwt beam="1">  1       21 0.68195936E-02 0.30000000E+03</pdfrwt>
<pdfrwt beam="2">0</pdfrwt>
<totfact> 0.16884615E+04</totfact>
</mgrwt>
</event>
<event>
 6    1  0.6377696E-002  0.3000000E+03  0.7818608E-02  0.1093470E+00
         21   -1    0    0  501  502  0.00000000000E+00  0.00000000000E+00  0.12099378836E+01  0.12099378836E+01  0.00000000000E+00 0. -1.
         13   -1    0    0    0    0 -0.00000000000E+00 -0.00000000000E+00 -0.10000000000E+04  0.10000000000E+04  0.00000000000E+00 0.  1.
    9000005    2    1    2  501    0 -0.34211586434E+02  0.55267084638E+01 -0.52104686679E+03  0.52221146415E+03  0.37414905175E+01 0.  0.
         13    1    3    3    0    0 -0.32867808917E+02  0.59595669748E+01 -0.50438169837E+03  0.50548660413E+03  0.00000000000E+00 0.  1.
          1    1    3    3  501    0 -0.13437775178E+01 -0.43285851097E+00 -0.16665168416E+02  0.16724860024E+02  0.00000000000E+00 0.  1.
         -1    1    1    2    0  502  0.34211586434E+02 -0.55267084638E+01 -0.47774319533E+03  0.47899847373E+03  0.00000000000E+00 0. -1.
<mgrwt>
<rscale>  1 0.30000000E+03</rscale>
<asrwt>0</asrwt>
<pdfrwt beam="1">  1       21 0.43997834E-02 0.30000000E+03</pdfrwt>
<pdfrwt beam="2">0</pdfrwt>
<totfact> 0.35799390E+04</totfact>
</mgrwt>
</event>
<event>
 6    1  0.6377696E-002  0.3000000E+03  0.7818608E-02  0.1093470E+00
         21   -1    0    0  501  502  0.00000000000E+00  0.00000000000E+00  0.12804233867E+01  0.12804233867E+01  0.00000000000E+00 0. -1.
         13   -1    0    0    0    0 -0.00000000000E+00 -0.00000000000E+00 -0.10000000000E+04  0.10000000000E+04  0.00000000000E+00 0.  1.
    9000005    2    1    2  501    0  0.25798046327E+02 -0.23488186127E+02 -0.39576452609E+03  0.39731682595E+03  0.37237060605E+01 0.  0.
         13    1    3    3    0    0  0.20648563481E+02 -0.20612326160E+02 -0.33316885872E+03  0.33444389602E+03  0.00000000000E+00 0.  1.
          3    1    3    3  501    0  0.51494828458E+01 -0.28758599679E+01 -0.62595667373E+02  0.62872929930E+02  0.00000000000E+00 0.  1.
         -1    1    1    2    0  502 -0.25798046327E+02  0.23488186127E+02 -0.60295505052E+03  0.60396359744E+03  0.00000000000E+00 0. -1.
<mgrwt>
<rscale>  1 0.30000000E+03</rscale>
<asrwt>0</asrwt>
<pdfrwt beam="1">  1       21 0.46560949E-02 0.30000000E+03</pdfrwt>
<pdfrwt beam="2">0</pdfrwt>
<totfact> 0.32519046E+04</totfact>
</mgrwt>
</event>
<event>
 6    1  0.6377696E-002  0.3000000E+03  0.7818608E-02  0.1093470E+00
         21   -1    0    0  501  502  0.00000000000E+00  0.00000000000E+00  0.18024325809E+01  0.18024325809E+01  0.00000000000E+00 0. -1.
         13   -1    0    0    0    0 -0.00000000000E+00 -0.00000000000E+00 -0.10000000000E+04  0.10000000000E+04  0.00000000000E+00 0.  1.
    9000005    2    1    2  501    0  0.31436068249E+02 -0.28396752883E+02 -0.50745600242E+03  0.50923580198E+03  0.38607858505E+01 0.  0.
         13    1    3    3    0    0  0.31556477929E+01 -0.21141537994E+01 -0.35217670318E+02  0.35421914995E+02  0.00000000000E+00 0.  1.
          3    1    3    3  501    0  0.28280420456E+02 -0.26282599084E+02 -0.47223833210E+03  0.47381388699E+03  0.00000000000E+00 0.  1.
         -3    1    1    2    0  502 -0.31436068249E+02  0.28396752883E+02 -0.49074156500E+03  0.49256663060E+03  0.00000000000E+00 0. -1.
<mgrwt>
<rscale>  1 0.30000000E+03</rscale>
<asrwt>0</asrwt>
<pdfrwt beam="1">  1       21 0.65543141E-02 0.30000000E+03</pdfrwt>
<pdfrwt beam="2">0</pdfrwt>
<totfact> 0.18087499E+04</totfact>
</mgrwt>
</event>
<event>
 6    1  0.6377696E-002  0.3000000E+03  0.7818608E-02  0.1093470E+00
         21   -1    0    0  501  502  0.00000000000E+00  0.00000000000E+00  0.13785651081E+01  0.13785651081E+01  0.00000000000E+00 0. -1.
         13   -1    0    0    0    0 -0.00000000000E+00 -0.00000000000E+00 -0.10000000000E+04  0.10000000000E+04  0.00000000000E+00 0.  1.
    9000005    2    1    2  501    0 -0.10785670939E+02 -0.32631645441E+02 -0.34493333735E+03  0.34678763648E+03  0.10074850579E+02 0.  0.
         13    1    3    3    0    0 -0.74960975685E+01 -0.31315297757E+02 -0.31674014271E+03  0.31837267055E+03  0.00000000000E+00 0.  1.
          1    1    3    3  501    0 -0.32895733706E+01 -0.13163476844E+01 -0.28193194646E+02  0.28414965926E+02  0.00000000000E+00 0.  1.
         -3    1    1    2    0  502  0.10785670939E+02  0.32631645441E+02 -0.65368809754E+03  0.65459092863E+03  0.00000000000E+00 0. -1.
<mgrwt>
<rscale>  1 0.30000000E+03</rscale>
<asrwt>0</asrwt>
<pdfrwt beam="1">  1       21 0.50129746E-02 0.30000000E+03</pdfrwt>
<pdfrwt beam="2">0</pdfrwt>
<totfact> 0.28677672E+04</totfact>
</mgrwt>
</event>
<event>
 6    1  0.6377696E-002  0.3000000E+03  0.7818608E-02  0.1093470E+00
         21   -1    0    0  501  502  0.00000000000E+00  0.00000000000E+00  0.11703745595E+01  0.11703745595E+01  0.00000000000E+00 0. -1.
         13   -1    0    0    0    0 -0.00000000000E+00 -0.00000000000E+00 -0.10000000000E+04  0.10000000000E+04  0.00000000000E+00 0.  1.
    9000005    2    1    2  501    0  0.20683723448E+02  0.25487776217E+02 -0.63768211961E+03  0.63853424272E+03  0.31702201832E+01 0.  0.
         13    1    3    3    0    0  0.78786561798E+01  0.12003330163E+02 -0.26596455777E+03  0.26635183339E+03  0.00000000000E+00 0.  1.
          3    1    3    3  501    0  0.12805067268E+02  0.13484446054E+02 -0.37171756184E+03  0.37218240933E+03  0.00000000000E+00 0.  1.
         -3    1    1    2    0  502 -0.20683723448E+02 -0.25487776217E+02 -0.36114750583E+03  0.36263613184E+03  0.00000000000E+00 0. -1.
<mgrwt>
<rscale>  1 0.30000000E+03</rscale>
<asrwt>0</asrwt>
<pdfrwt beam="1">  1       21 0.42559165E-02 0.30000000E+03</pdfrwt>
<pdfrwt beam="2">0</pdfrwt>
<totfact> 0.37870806E+04</totfact>
</mgrwt>
</event>
<event>
 6    1  0.6377696E-002  0.3000000E+03  0.7818608E-02  0.1093470E+00
         21   -1    0    0  501  502  0.00000000000E+00  0.00000000000E+00  0.12029616111E+01  0.12029616111E+01  0.00000000000E+00 0. -1.
         13   -1    0    0    0    0 -0.00000000000E+00 -0.00000000000E+00 -0.10000000000E+04  0.10000000000E+04  0.00000000000E+00 0.  1.
    9000005    2    1    2  501    0 -0.19579246485E+02 -0.22966330228E+02 -0.25730255009E+03  0.25909456293E+03  0.38198219030E+01 0.  0.
         13    1    3    3    0    0 -0.10867226775E+02 -0.15181901005E+02 -0.14979996270E+03  0.15095898636E+03  0.00000000000E+00 0.  1.
          3    1    3    3  501    0 -0.87120197107E+01 -0.77844292226E+01 -0.10750258739E+03  0.10813557657E+03  0.00000000000E+00 0.  1.
         -1    1    1    2    0  502  0.19579246485E+02  0.22966330228E+02 -0.74149448830E+03  0.74210839868E+03  0.00000000000E+00 0. -1.
<mgrwt>
<rscale>  1 0.30000000E+03</rscale>
<asrwt>0</asrwt>
<pdfrwt beam="1">  1       21 0.43744151E-02 0.30000000E+03</pdfrwt>
<pdfrwt beam="2">0</pdfrwt>
<totfact> 0.36151704E+04</totfact>
</mgrwt>
</event>
<event>
 6    1  0.6377696E-002  0.3000000E+03  0.7818608E-02  0.1093470E+00
         21   -1    0    0  501  502  0.00000000000E+00  0.00000000000E+00  0.21427245700E+01  0.21427245700E+01  0.00000000000E+00 0. -1.
         13   -1    0    0    0    0 -0.00000000000E+00 -0.00000000000E+00 -0.10000000000E+04  0.10000000000E+04  0.00000000000E+00 0.  1.
    9000005    2    1    2  501    0  0.41804201855E+02 -0.19745121096E+02 -0.48847964446E+03  0.49067128643E+03  0.29132758060E+01 0.  0.
         13    1    3    3    0    0  0.27993120771E+02 -0.12213103551E+02 -0.31126651873E+03  0.31276128339E+03  0.00000000000E+00 0.  1.
          1    1    3    3  501    0  0.13811081084E+02 -0.75320175450E+01 -0.17721312573E+03  0.17791000304E+03  0.00000000000E+00 0.  1.
         -3    1    1    2    0  502 -0.41804201855E+02  0.19745121096E+02 -0.50937763097E+03  0.51147143814E+03  0.00000000000E+00 0. -1.
<mgrwt>
<rscale>  1 0.30000000E+03</rscale>
<asrwt>0</asrwt>
<pdfrwt beam="1">  1       21 0.77917421E-02 0.30000000E+03</pdfrwt>
<pdfrwt beam="2">0</pdfrwt>
<totfact> 0.13379162E+04</totfact>
</mgrwt>
</event>
<event>
 6    1  0.6377696E-002  0.3000000E+03  0.7818608E-02  0.1093470E+00
         21   -1    0    0  501  502  0.00000000000E+00  0.00000000000E+00  0.11120003719E+01  0.11120003719E+01  0.00000000000E+00 0. -1.
         13   -1    0    0    0    0 -0.00000000000E+00 -0.00000000000E+00 -0.10000000000E+04  0.10000000000E+04  0.00000000000E+00 0.  1.
    9000005    2    1    2  501    0 -0.25656278654E+02  0.20966315641E+02 -0.44887675582E+03  0.45010365258E+03  0.22638728733E+01 0.  0.
         13    1    3    3    0    0 -0.24961047368E+02  0.20283588488E+02 -0.43987599188E+03  0.44105029881E+03  0.00000000000E+00 0.  1.
          1    1    3    3  501    0 -0.69523128567E+00  0.68272715288E+00 -0.90007639421E+01  0.90533537679E+01  0.00000000000E+00 0.  1.
         -1    1    1    2    0  502  0.25656278654E+02 -0.20966315641E+02 -0.55001124381E+03  0.55100834780E+03  0.00000000000E+00 0. -1.
<mgrwt>
<rscale>  1 0.30000000E+03</rscale>
<asrwt>0</asrwt>
<pdfrwt beam="1">  1       21 0.40436462E-02 0.30000000E+03</pdfrwt>
<pdfrwt beam="2">0</pdfrwt>
<totfact> 0.41285641E+04</totfact>
</mgrwt>
</event>
<event>
 6    1  0.6377696E-002  0.3000000E+03  0.7818608E-02  0.1093470E+00
         21   -1    0    0  501  502  0.00000000000E+00  0.00000000000E+00  0.11372959852E+01  0.11372959852E+01  0.00000000000E+00 0. -1.
         13   -1    0    0    0    0 -0.00000000000E+00 -0.00000000000E+00 -0.10000000000E+04  0.10000000000E+04  0.00000000000E+00 0.  1.
    9000005    2    1    2  501    0  0.56611382578E+01  0.33057534365E+02 -0.46539810660E+03  0.46661945180E+03  0.36696185469E+01 0.  0.
         13    1    3    3    0    0  0.62076100248E+00  0.14058322121E+02 -0.19992682697E+03  0.20042145071E+03  0.00000000000E+00 0.  1.
          3    1    3    3  501    0  0.50403772553E+01  0.18999212244E+02 -0.26547127964E+03  0.26619800108E+03  0.00000000000E+00 0.  1.
         -1    1    1    2    0  502 -0.56611382578E+01 -0.33057534365E+02 -0.53346459741E+03  0.53451784419E+03  0.00000000000E+00 0. -1.
<mgrwt>
<rscale>  1 0.30000000E+03</rscale>
<asrwt>0</asrwt>
<pdfrwt beam="1">  1       21 0.41356305E-02 0.30000000E+03</pdfrwt>
<pdfrwt beam="2">0</pdfrwt>
<totfact> 0.39749267E+04</totfact>
</mgrwt>
</event>
<event>
 6    1  0.6377696E-002  0.3000000E+03  0.7818608E-02  0.1093470E+00
         21   -1    0    0  501  502  0.00000000000E+00  0.00000000000E+00  0.18765681852E+01  0.18765681852E+01  0.00000000000E+00 0. -1.
         13   -1    0    0    0    0 -0.00000000000E+00 -0.00000000000E+00 -0.10000000000E+04  0.10000000000E+04  0.00000000000E+00 0.  1.
    9000005    2    1    2  501    0  0.40650556261E+02  0.23579525708E+01 -0.34355637595E+03  0.34604422811E+03  0.75892481824E+01 0.  0.
         13    1    3    3    0    0  0.39136107733E+02  0.34333554172E+01 -0.31742501801E+03  0.31984693982E+03  0.00000000000E+00 0.  1.
          3    1    3    3  501    0  0.15144485279E+01 -0.10754028463E+01 -0.26131357943E+02  0.26197288287E+02  0.00000000000E+00 0.  1.
         -3    1    1    2    0  502 -0.40650556261E+02 -0.23579525708E+01 -0.65456705586E+03  0.65583234007E+03  0.00000000000E+00 0. -1.
<mgrwt>
<rscale>  1 0.30000000E+03</rscale>
<asrwt>0</asrwt>
<pdfrwt beam="1">  1       21 0.68238987E-02 0.30000000E+03</pdfrwt>
<pdfrwt beam="2">0</pdfrwt>
<totfact> 0.16866117E+04</totfact>
</mgrwt>
</event>
<event>
 6    1  0.6377696E-002  0.3000000E+03  0.7818608E-02  0.1093470E+00
         21   -1    0    0  501  502  0.00000000000E+00  0.00000000000E+00  0.17234958775E+01  0.17234958775E+01  0.00000000000E+00 0. -1.
         13   -1    0    0    0    0 -0.00000000000E+00 -0.00000000000E+00 -0.10000000000E+04  0.10000000000E+04  0.00000000000E+00 0.  1.
    9000005    2    1    2  501    0 -0.29523809855E+02  0.28815433623E+02 -0.55009144683E+03  0.55164369168E+03  0.28597439151E+01 0.  0.
         13    1    3    3    0    0 -0.14399985060E+02  0.13679965038E+02 -0.28358567783E+03  0.28428038568E+03  0.00000000000E+00 0.  1.
          1    1    3    3  501    0 -0.15123824795E+02  0.15135468584E+02 -0.26650576900E+03  0.26736330600E+03  0.00000000000E+00 0.  1.
         -3    1    1    2    0  502  0.29523809855E+02 -0.28815433623E+02 -0.44818505729E+03  0.45007980420E+03  0.00000000000E+00 0. -1.
<mgrwt>
<rscale>  1 0.30000000E+03</rscale>
<asrwt>0</asrwt>
<pdfrwt beam="1">  1       21 0.62672710E-02 0.30000000E+03</pdfrwt>
<pdfrwt beam="2">0</pdfrwt>
<totfact> 0.19544554E+04</totfact>
</mgrwt>
</event>
<event>
 6    1  0.6377696E-002  0.3000000E+03  0.7818608E-02  0.1093470E+00
         21   -1    0    0  501  502  0.00000000000E+00  0.00000000000E+00  0.11367568830E+01  0.11367568830E+01  0.00000000000E+00 0. -1.
         13   -1    0    0    0    0 -0.00000000000E+00 -0.00000000000E+00 -0.10000000000E+04  0.10000000000E+04  0.00000000000E+00 0.  1.
    9000005    2    1    2  501    0 -0.30416170238E+02  0.23487469793E+01 -0.29517023249E+03  0.29678278818E+03  0.48884748659E+01 0.  0.
         13    1    3    3    0    0 -0.27416302286E+01  0.11926329292E+01 -0.20041310153E+02  0.20263095081E+02  0.00000000000E+00 0.  1.
          3    1    3    3  501    0 -0.27674540009E+02  0.11561140501E+01 -0.27512892234E+03  0.27651969310E+03  0.00000000000E+00 0.  1.
         -3    1    1    2    0  502  0.30416170238E+02 -0.23487469793E+01 -0.70369301062E+03  0.70435396870E+03  0.00000000000E+00 0. -1.
<mgrwt>
<rscale>  1 0.30000000E+03</rscale>
<asrwt>0</asrwt>
<pdfrwt beam="1">  1       21 0.41336701E-02 0.30000000E+03</pdfrwt>
<pdfrwt beam="2">0</pdfrwt>
<totfact> 0.39781075E+04</totfact>
</mgrwt>
</event>
<event>
 6    1  0.6377696E-002  0.3000000E+03  0.7818608E-02  0.1093470E+00
         21   -1    0    0  501  502  0.00000000000E+00  0.00000000000E+00  0.25166932531E+01  0.25166932531E+01  0.00000000000E+00 0. -1.
         13   -1    0    0    0    0 -0.00000000000E+00 -0.00000000000E+00 -0.10000000000E+04  0.10000000000E+04  0.00000000000E+00 0.  1.
    9000005    2    1    2  501    0 -0.24648380572E+02 -0.40314471143E+02 -0.33223616476E+03  0.33559348990E+03  0.30532017134E+01 0.  0.
         13    1    3    3    0    0 -0.23966048982E+02 -0.38739126708E+02 -0.32335412019E+03  0.32654705402E+03  0.00000000000E+00 0.  1.
          1    1    3    3  501    0 -0.68233159013E+00 -0.15753444351E+01 -0.88820445699E+01  0.90464358855E+01  0.00000000000E+00 0.  1.
         -3    1    1    2    0  502  0.24648380572E+02  0.40314471143E+02 -0.66524714199E+03  0.66692320335E+03  0.00000000000E+00 0. -1.
<mgrwt>
<rscale>  1 0.30000000E+03</rscale>
<asrwt>0</asrwt>
<pdfrwt beam="1">  1       21 0.91516311E-02 0.30000000E+03</pdfrwt>
<pdfrwt beam="2">0</pdfrwt>
<totfact> 0.10075167E+04</totfact>
</mgrwt>
</event>
<event>
 6    1  0.6377696E-002  0.3000000E+03  0.7818608E-02  0.1093470E+00
         21   -1    0    0  501  502  0.00000000000E+00  0.00000000000E+00  0.35582452392E+01  0.35582452392E+01  0.00000000000E+00 0. -1.
         13   -1    0    0    0    0 -0.00000000000E+00 -0.00000000000E+00 -0.10000000000E+04  0.10000000000E+04  0.00000000000E+00 0.  1.
    9000005    2    1    2  501    0  0.40289375477E+02  0.41214582312E+02 -0.38925087771E+03  0.39363805641E+03  0.10620644154E+02 0.  0.
         13    1    3    3    0    0  0.29138099644E+02  0.25033362407E+02 -0.23111531008E+03  0.23428611704E+03  0.00000000000E+00 0.  1.
          3    1    3    3  501    0  0.11151275833E+02  0.16181219906E+02 -0.15813556763E+03  0.15935193937E+03  0.00000000000E+00 0.  1.
         -1    1    1    2    0  502 -0.40289375477E+02 -0.41214582312E+02 -0.60719087705E+03  0.60992018883E+03  0.00000000000E+00 0. -1.
<mgrwt>
<rscale>  1 0.30000000E+03</rscale>
<asrwt>0</asrwt>
<pdfrwt beam="1">  1       21 0.12939101E-01 0.30000000E+03</pdfrwt>
<pdfrwt beam="2">0</pdfrwt>
<totfact> 0.54026449E+03</totfact>
</mgrwt>
</event>
<event>
 6    1  0.6377696E-002  0.3000000E+03  0.7818608E-02  0.1093470E+00
         21   -1    0    0  501  502  0.00000000000E+00  0.00000000000E+00  0.34224720666E+01  0.34224720666E+01  0.00000000000E+00 0. -1.
         13   -1    0    0    0    0 -0.00000000000E+00 -0.00000000000E+00 -0.10000000000E+04  0.10000000000E+04  0.00000000000E+00 0.  1.
    9000005    2    1    2  501    0  0.15575585030E+02  0.47600190767E+02 -0.75727324574E+03  0.75893337929E+03  0.29543998302E+01 0.  0.
         13    1    3    3    0    0  0.16812379436E+01  0.35787383212E+01 -0.70014332304E+02  0.70125891488E+02  0.00000000000E+00 0.  1.
          3    1    3    3  501    0  0.13894347086E+02  0.44021452446E+02 -0.68725891343E+03  0.68880748780E+03  0.00000000000E+00 0.  1.
         -3    1    1    2    0  502 -0.15575585030E+02 -0.47600190767E+02 -0.23930428219E+03  0.24448909278E+03  0.00000000000E+00 0. -1.
<mgrwt>
<rscale>  1 0.30000000E+03</rscale>
<asrwt>0</asrwt>
<pdfrwt beam="1">  1       21 0.12445379E-01 0.30000000E+03</pdfrwt>
<pdfrwt beam="2">0</pdfrwt>
<totfact> 0.57997643E+03</totfact>
</mgrwt>
</event>
<event>
 6    1  0.6377696E-002  0.3000000E+03  0.7818608E-02  0.1093470E+00
         21   -1    0    0  501  502  0.00000000000E+00  0.00000000000E+00  0.97614753224E+00  0.97614753224E+00  0.00000000000E+00 0. -1.
         13   -1    0    0    0    0 -0.00000000000E+00 -0.00000000000E+00 -0.10000000000E+04  0.10000000000E+04  0.00000000000E+00 0.  1.
    9000005    2    1    2  501    0  0.30181898498E+02  0.87455611526E+00 -0.38619052233E+03  0.38739941853E+03  0.48454199588E+01 0.  0.
         13    1    3    3    0    0  0.96228230766E+01  0.25242443015E+01 -0.12966852266E+03  0.13004959170E+03  0.00000000000E+00 0.  1.
          3    1    3    3  501    0  0.20559075421E+02 -0.16496881863E+01 -0.25652199968E+03  0.25734982683E+03  0.00000000000E+00 0.  1.
         -1    1    1    2    0  502 -0.30181898498E+02 -0.87455611526E+00 -0.61283333013E+03  0.61357672900E+03  0.00000000000E+00 0. -1.
<mgrwt>
<rscale>  1 0.30000000E+03</rscale>
<asrwt>0</asrwt>
<pdfrwt beam="1">  1       21 0.35496349E-02 0.30000000E+03</pdfrwt>
<pdfrwt beam="2">0</pdfrwt>
<totfact> 0.51390011E+04</totfact>
</mgrwt>
</event>
<event>
 6    1  0.6377696E-002  0.3000000E+03  0.7818608E-02  0.1093470E+00
         21   -1    0    0  501  502  0.00000000000E+00  0.00000000000E+00  0.59056528226E+01  0.59056528226E+01  0.00000000000E+00 0. -1.
         13   -1    0    0    0    0 -0.00000000000E+00 -0.00000000000E+00 -0.10000000000E+04  0.10000000000E+04  0.00000000000E+00 0.  1.
    9000005    2    1    2  501    0  0.60154978780E+02 -0.25612108609E+02 -0.23335303359E+03  0.24236001058E+03  0.31835304650E+01 0.  0.
         13    1    3    3    0    0  0.31650514217E+02 -0.15153246314E+02 -0.12648164089E+03  0.13125921456E+03  0.00000000000E+00 0.  1.
          3    1    3    3  501    0  0.28504464563E+02 -0.10458862295E+02 -0.10687139270E+03  0.11110079603E+03  0.00000000000E+00 0.  1.
         -3    1    1    2    0  502 -0.60154978780E+02  0.25612108609E+02 -0.76074131359E+03  0.76354564224E+03  0.00000000000E+00 0. -1.
<mgrwt>
<rscale>  1 0.30000000E+03</rscale>
<asrwt>0</asrwt>
<pdfrwt beam="1">  1       21 0.21475146E-01 0.30000000E+03</pdfrwt>
<pdfrwt beam="2">0</pdfrwt>
<totfact> 0.20935852E+03</totfact>
</mgrwt>
</event>
<event>
 6    1  0.6377696E-002  0.3000000E+03  0.7818608E-02  0.1093470E+00
         21   -1    0    0  501  502  0.00000000000E+00  0.00000000000E+00  0.12479218340E+01  0.12479218340E+01  0.00000000000E+00 0. -1.
         13   -1    0    0    0    0 -0.00000000000E+00 -0.00000000000E+00 -0.10000000000E+04  0.10000000000E+04  0.00000000000E+00 0.  1.
    9000005    2    1    2  501    0 -0.32799449890E+02  0.10293227534E+02 -0.60700189488E+03  0.60799232995E+03  0.46495634039E+01 0.  0.
         13    1    3    3    0    0 -0.24753310228E+02  0.95472451815E+01 -0.48184876884E+03  0.48257860737E+03  0.00000000000E+00 0.  1.
          3    1    3    3  501    0 -0.80461396624E+01  0.74598235201E+00 -0.12515312604E+03  0.12541372258E+03  0.00000000000E+00 0.  1.
         -1    1    1    2    0  502  0.32799449890E+02 -0.10293227534E+02 -0.39175018328E+03  0.39325559188E+03  0.00000000000E+00 0. -1.
<mgrwt>
<rscale>  1 0.30000000E+03</rscale>
<asrwt>0</asrwt>
<pdfrwt beam="1">  1       21 0.45379071E-02 0.30000000E+03</pdfrwt>
<pdfrwt beam="2">0</pdfrwt>
<totfact> 0.33971003E+04</totfact>
</mgrwt>
</event>
<event>
 6    1  0.6377696E-002  0.3000000E+03  0.7818608E-02  0.1093470E+00
         21   -1    0    0  501  502  0.00000000000E+00  0.00000000000E+00  0.12014645111E+01  0.12014645111E+01  0.00000000000E+00 0. -1.
         13   -1    0    0    0    0 -0.00000000000E+00 -0.00000000000E+00 -0.10000000000E+04  0.10000000000E+04  0.00000000000E+00 0.  1.
    9000005    2    1    2  501    0 -0.21249875639E+02 -0.27076083635E+02 -0.45841057801E+03  0.45971848592E+03  0.40195450058E+01 0.  0.
         13    1    3    3    0    0  0.42926270494E-02  0.10972614700E+00 -0.66365886059E+00  0.67268219630E+00  0.00000000000E+00 0.  1.
          1    1    3    3  501    0 -0.21254168266E+02 -0.27185809782E+02 -0.45774691915E+03  0.45904580372E+03  0.00000000000E+00 0.  1.
         -3    1    1    2    0  502  0.21249875639E+02  0.27076083635E+02 -0.54038795748E+03  0.54148297859E+03  0.00000000000E+00 0. -1.
<mgrwt>
<rscale>  1 0.30000000E+03</rscale>
<asrwt>0</asrwt>
<pdfrwt beam="1">  1       21 0.43689711E-02 0.30000000E+03</pdfrwt>
<pdfrwt beam="2">0</pdfrwt>
<totfact> 0.36228009E+04</totfact>
</mgrwt>
</event>
<event>
 6    1  0.6377696E-002  0.3000000E+03  0.7818608E-02  0.1093470E+00
         21   -1    0    0  501  502  0.00000000000E+00  0.00000000000E+00  0.20475096415E+01  0.20475096415E+01  0.00000000000E+00 0. -1.
         13   -1    0    0    0    0 -0.00000000000E+00 -0.00000000000E+00 -0.10000000000E+04  0.10000000000E+04  0.00000000000E+00 0.  1.
    9000005    2    1    2  501    0 -0.82766884955E+01 -0.42957280883E+02 -0.62505644629E+03  0.62659406215E+03  0.32750749969E+01 0.  0.
         13    1    3    3    0    0 -0.70939776606E+01 -0.28872008406E+02 -0.42767113784E+03  0.42870330012E+03  0.00000000000E+00 0.  1.
          1    1    3    3  501    0 -0.11827108349E+01 -0.14085272477E+02 -0.19738530844E+03  0.19789076203E+03  0.00000000000E+00 0.  1.
         -3    1    1    2    0  502  0.82766884955E+01  0.42957280883E+02 -0.37289604407E+03  0.37545344750E+03  0.00000000000E+00 0. -1.
<mgrwt>
<rscale>  1 0.30000000E+03</rscale>
<asrwt>0</asrwt>
<pdfrwt beam="1">  1       21 0.74455053E-02 0.30000000E+03</pdfrwt>
<pdfrwt beam="2">0</pdfrwt>
<totfact> 0.14488246E+04</totfact>
</mgrwt>
</event>
<event>
 6    1  0.6377696E-002  0.3000000E+03  0.7818608E-02  0.1093470E+00
         21   -1    0    0  501  502  0.00000000000E+00  0.00000000000E+00  0.11454835847E+01  0.11454835847E+01  0.00000000000E+00 0. -1.
         13   -1    0    0    0    0 -0.00000000000E+00 -0.00000000000E+00 -0.10000000000E+04  0.10000000000E+04  0.00000000000E+00 0.  1.
    9000005    2    1    2  501    0 -0.19707654171E+02  0.24056193094E+02 -0.30467325238E+03  0.30626799842E+03  0.26840413275E+01 0.  0.
         13    1    3    3    0    0 -0.10103626558E+02  0.13416820796E+02 -0.15305822704E+03  0.15397699573E+03  0.00000000000E+00 0.  1.
          3    1    3    3  501    0 -0.96040276131E+01  0.10639372299E+02 -0.15161502534E+03  0.15229100269E+03  0.00000000000E+00 0.  1.
         -1    1    1    2    0  502  0.19707654171E+02 -0.24056193094E+02 -0.69418126403E+03  0.69487748517E+03  0.00000000000E+00 0. -1.
<mgrwt>
<rscale>  1 0.30000000E+03</rscale>
<asrwt>0</asrwt>
<pdfrwt beam="1">  1       21 0.41654036E-02 0.30000000E+03</pdfrwt>
<pdfrwt beam="2">0</pdfrwt>
<totfact> 0.39271019E+04</totfact>
</mgrwt>
</event>
<event>
 6    1  0.6377696E-002  0.3000000E+03  0.7818608E-02  0.1093470E+00
         21   -1    0    0  501  502  0.00000000000E+00  0.00000000000E+00  0.22358416260E+01  0.22358416260E+01  0.00000000000E+00 0. -1.
         13   -1    0    0    0    0 -0.00000000000E+00 -0.00000000000E+00 -0.10000000000E+04  0.10000000000E+04  0.00000000000E+00 0.  1.
    9000005    2    1    2  501    0  0.18969759683E+02  0.35558890641E+02 -0.23851911289E+03  0.24192187649E+03  0.32466329377E+01 0.  0.
         13    1    3    3    0    0  0.11427483305E+02  0.18265801738E+02 -0.13102840875E+03  0.13278806718E+03  0.00000000000E+00 0.  1.
          1    1    3    3  501    0  0.75422763779E+01  0.17293088903E+02 -0.10749070414E+03  0.10913380931E+03  0.00000000000E+00 0.  1.
         -1    1    1    2    0  502 -0.18969759683E+02 -0.35558890641E+02 -0.75924504548E+03  0.76031396513E+03  0.00000000000E+00 0. -1.
<mgrwt>
<rscale>  1 0.30000000E+03</rscale>
<asrwt>0</asrwt>
<pdfrwt beam="1">  1       21 0.81303503E-02 0.30000000E+03</pdfrwt>
<pdfrwt beam="2">0</pdfrwt>
<totfact> 0.12416168E+04</totfact>
</mgrwt>
</event>
<event>
 6    1  0.6377696E-002  0.3000000E+03  0.7818608E-02  0.1093470E+00
         21   -1    0    0  501  502  0.00000000000E+00  0.00000000000E+00  0.10971305551E+01  0.10971305551E+01  0.00000000000E+00 0. -1.
         13   -1    0    0    0    0 -0.00000000000E+00 -0.00000000000E+00 -0.10000000000E+04  0.10000000000E+04  0.00000000000E+00 0.  1.
    9000005    2    1    2  501    0  0.31560428820E+02  0.70415424803E+01 -0.39479197313E+03  0.39612141284E+03  0.24140564725E+01 0.  0.
         13    1    3    3    0    0  0.47787971858E+01  0.75009201122E+00 -0.69545862726E+02  0.69713890746E+02  0.00000000000E+00 0.  1.
          3    1    3    3  501    0  0.26781631634E+02  0.62914504690E+01 -0.32524611041E+03  0.32640752209E+03  0.00000000000E+00 0.  1.
         -1    1    1    2    0  502 -0.31560428820E+02 -0.70415424803E+01 -0.60411089631E+03  0.60497571772E+03  0.00000000000E+00 0. -1.
<mgrwt>
<rscale>  1 0.30000000E+03</rscale>
<asrwt>0</asrwt>
<pdfrwt beam="1">  1       21 0.39895741E-02 0.30000000E+03</pdfrwt>
<pdfrwt beam="2">0</pdfrwt>
<totfact> 0.42232521E+04</totfact>
</mgrwt>
</event>
<event>
 6    1  0.6377696E-002  0.3000000E+03  0.7818608E-02  0.1093470E+00
         21   -1    0    0  501  502  0.00000000000E+00  0.00000000000E+00  0.73390242605E+01  0.73390242605E+01  0.00000000000E+00 0. -1.
         13   -1    0    0    0    0 -0.00000000000E+00 -0.00000000000E+00 -0.10000000000E+04  0.10000000000E+04  0.00000000000E+00 0.  1.
    9000005    2    1    2  501    0  0.55858163312E+02 -0.64758133731E+02 -0.52285447540E+03  0.52981216841E+03  0.32219654429E+01 0.  0.
         13    1    3    3    0    0  0.31607365089E+02 -0.34734920958E+02 -0.29322752335E+03  0.29696451086E+03  0.00000000000E+00 0.  1.
          3    1    3    3  501    0  0.24250798223E+02 -0.30023212773E+02 -0.22962695205E+03  0.23284765755E+03  0.00000000000E+00 0.  1.
         -3    1    1    2    0  502 -0.55858163312E+02  0.64758133731E+02 -0.46980650034E+03  0.47752685585E+03  0.00000000000E+00 0. -1.
<mgrwt>
<rscale>  1 0.30000000E+03</rscale>
<asrwt>0</asrwt>
<pdfrwt beam="1">  1       21 0.26687417E-01 0.30000000E+03</pdfrwt>
<pdfrwt beam="2">0</pdfrwt>
<totfact> 0.13716456E+03</totfact>
</mgrwt>
</event>
<event>
 6    1  0.6377696E-002  0.3000000E+03  0.7818608E-02  0.1093470E+00
         21   -1    0    0  501  502  0.00000000000E+00  0.00000000000E+00  0.91889265677E+00  0.91889265677E+00  0.00000000000E+00 0. -1.
         13   -1    0    0    0    0 -0.00000000000E+00 -0.00000000000E+00 -0.10000000000E+04  0.10000000000E+04  0.00000000000E+00 0.  1.
    9000005    2    1    2  501    0  0.92388321873E+00 -0.30158205340E+02 -0.48748019784E+03  0.48842902787E+03  0.39498184421E+01 0.  0.
         13    1    3    3    0    0  0.15207528684E+01 -0.25152143386E+02 -0.42460667550E+03  0.42535370210E+03  0.00000000000E+00 0.  1.
          3    1    3    3  501    0 -0.59686964964E+00 -0.50060619541E+01 -0.62873522337E+02  0.63075325768E+02  0.00000000000E+00 0.  1.
         -3    1    1    2    0  502 -0.92388321873E+00  0.30158205340E+02 -0.51160090950E+03  0.51248986479E+03  0.00000000000E+00 0. -1.
<mgrwt>
<rscale>  1 0.30000000E+03</rscale>
<asrwt>0</asrwt>
<pdfrwt beam="1">  1       21 0.33414349E-02 0.30000000E+03</pdfrwt>
<pdfrwt beam="2">0</pdfrwt>
<totfact> 0.56857281E+04</totfact>
</mgrwt>
</event>
<event>
 6    1  0.6377696E-002  0.3000000E+03  0.7818608E-02  0.1093470E+00
         21   -1    0    0  501  502  0.00000000000E+00  0.00000000000E+00  0.13172289787E+01  0.13172289787E+01  0.00000000000E+00 0. -1.
         13   -1    0    0    0    0 -0.00000000000E+00 -0.00000000000E+00 -0.10000000000E+04  0.10000000000E+04  0.00000000000E+00 0.  1.
    9000005    2    1    2  501    0  0.27669114903E+02  0.21389700567E+02 -0.63023665557E+03  0.63121502796E+03  0.33272037497E+01 0.  0.
         13    1    3    3    0    0  0.61210160166E+01  0.65511459744E+01 -0.16380860702E+03  0.16405378412E+03  0.00000000000E+00 0.  1.
          3    1    3    3  501    0  0.21548098887E+02  0.14838554593E+02 -0.46642804856E+03  0.46716124384E+03  0.00000000000E+00 0.  1.
         -3    1    1    2    0  502 -0.27669114903E+02 -0.21389700567E+02 -0.36844611545E+03  0.37010220102E+03  0.00000000000E+00 0. -1.
<mgrwt>
<rscale>  1 0.30000000E+03</rscale>
<asrwt>0</asrwt>
<pdfrwt beam="1">  1       21 0.47899337E-02 0.30000000E+03</pdfrwt>
<pdfrwt beam="2">0</pdfrwt>
<totfact> 0.30989041E+04</totfact>
</mgrwt>
</event>
<event>
 6    1  0.6377696E-002  0.3000000E+03  0.7818608E-02  0.1093470E+00
         21   -1    0    0  501  502  0.00000000000E+00  0.00000000000E+00  0.22680747462E+01  0.22680747462E+01  0.00000000000E+00 0. -1.
         13   -1    0    0    0    0 -0.00000000000E+00 -0.00000000000E+00 -0.10000000000E+04  0.10000000000E+04  0.00000000000E+00 0.  1.
    9000005    2    1    2  501    0  0.45275828175E+02  0.66245982813E+01 -0.36124501744E+03  0.36413848780E+03  0.22560478286E+01 0.  0.
         13    1    3    3    0    0  0.15674152891E+02  0.31043542401E+01 -0.12043009207E+03  0.12148548539E+03  0.00000000000E+00 0.  1.
          3    1    3    3  501    0  0.29601675285E+02  0.35202440412E+01 -0.24081492537E+03  0.24265300241E+03  0.00000000000E+00 0.  1.
         -3    1    1    2    0  502 -0.45275828175E+02 -0.66245982813E+01 -0.63648690781E+03  0.63812958695E+03  0.00000000000E+00 0. -1.
<mgrwt>
<rscale>  1 0.30000000E+03</rscale>
<asrwt>0</asrwt>
<pdfrwt beam="1">  1       21 0.82475619E-02 0.30000000E+03</pdfrwt>
<pdfrwt beam="2">0</pdfrwt>
<totfact> 0.12107475E+04</totfact>
</mgrwt>
</event>
<event>
 6    1  0.6377696E-002  0.3000000E+03  0.7818608E-02  0.1093470E+00
         21   -1    0    0  501  502  0.00000000000E+00  0.00000000000E+00  0.21473495048E+01  0.21473495048E+01  0.00000000000E+00 0. -1.
         13   -1    0    0    0    0 -0.00000000000E+00 -0.00000000000E+00 -0.10000000000E+04  0.10000000000E+04  0.00000000000E+00 0.  1.
    9000005    2    1    2  501    0 -0.39832307905E+02 -0.23487904140E+02 -0.48130723586E+03  0.48353626230E+03  0.35167131305E+01 0.  0.
         13    1    3    3    0    0 -0.89213295872E+01 -0.53776591405E+01 -0.93877680779E+02  0.94453842102E+02  0.00000000000E+00 0.  1.
          3    1    3    3  501    0 -0.30910978317E+02 -0.18110245000E+02 -0.38742955508E+03  0.38908242019E+03  0.00000000000E+00 0.  1.
         -1    1    1    2    0  502  0.39832307905E+02  0.23487904140E+02 -0.51654541464E+03  0.51861108721E+03  0.00000000000E+00 0. -1.
<mgrwt>
<rscale>  1 0.30000000E+03</rscale>
<asrwt>0</asrwt>
<pdfrwt beam="1">  1       21 0.78085601E-02 0.30000000E+03</pdfrwt>
<pdfrwt beam="2">0</pdfrwt>
<totfact> 0.13328658E+04</totfact>
</mgrwt>
</event>
<event>
 6    1  0.6377696E-002  0.3000000E+03  0.7818608E-02  0.1093470E+00
         21   -1    0    0  501  502  0.00000000000E+00  0.00000000000E+00  0.26911922724E+01  0.26911922724E+01  0.00000000000E+00 0. -1.
         13   -1    0    0    0    0 -0.00000000000E+00 -0.00000000000E+00 -0.10000000000E+04  0.10000000000E+04  0.00000000000E+00 0.  1.
    9000005    2    1    2  501    0 -0.24609558024E+02  0.34053081125E+02 -0.20632824155E+03  0.21059555489E+03  0.37285118408E+01 0.  0.
         13    1    3    3    0    0 -0.22984647318E+02  0.32639825336E+02 -0.19198424671E+03  0.19609080344E+03  0.00000000000E+00 0.  1.
          1    1    3    3  501    0 -0.16249107062E+01  0.14132557896E+01 -0.14343994840E+02  0.14504751452E+02  0.00000000000E+00 0.  1.
         -1    1    1    2    0  502  0.24609558024E+02 -0.34053081125E+02 -0.79098056618E+03  0.79209563738E+03  0.00000000000E+00 0. -1.
<mgrwt>
<rscale>  1 0.30000000E+03</rscale>
<asrwt>0</asrwt>
<pdfrwt beam="1">  1       21 0.97861744E-02 0.30000000E+03</pdfrwt>
<pdfrwt beam="2">0</pdfrwt>
<totfact> 0.89417504E+03</totfact>
</mgrwt>
</event>
<event>
 6    1  0.6377696E-002  0.3000000E+03  0.7818608E-02  0.1093470E+00
         21   -1    0    0  501  502  0.00000000000E+00  0.00000000000E+00  0.94571371474E+01  0.94571371474E+01  0.00000000000E+00 0. -1.
         13   -1    0    0    0    0 -0.00000000000E+00 -0.00000000000E+00 -0.10000000000E+04  0.10000000000E+04  0.00000000000E+00 0.  1.
    9000005    2    1    2  501    0 -0.67697554092E+02 -0.52034659288E+02 -0.73671158310E+03  0.74164958837E+03  0.30968806786E+01 0.  0.
         13    1    3    3    0    0 -0.66711160930E+02 -0.51527115418E+02 -0.72934713967E+03  0.73420206535E+03  0.00000000000E+00 0.  1.
          3    1    3    3  501    0 -0.98639316233E+00 -0.50754386960E+00 -0.73644434254E+01  0.74475230256E+01  0.00000000000E+00 0.  1.
         -1    1    1    2    0  502  0.67697554092E+02  0.52034659288E+02 -0.25383127976E+03  0.26780754877E+03  0.00000000000E+00 0. -1.
<mgrwt>
<rscale>  1 0.30000000E+03</rscale>
<asrwt>0</asrwt>
<pdfrwt beam="1">  1       21 0.34389662E-01 0.30000000E+03</pdfrwt>
<pdfrwt beam="2">0</pdfrwt>
<totfact> 0.82492093E+02</totfact>
</mgrwt>
</event>
<event>
 6    1  0.6377696E-002  0.3000000E+03  0.7818608E-02  0.1093470E+00
         21   -1    0    0  501  502  0.00000000000E+00  0.00000000000E+00  0.15141616012E+01  0.15141616012E+01  0.00000000000E+00 0. -1.
         13   -1    0    0    0    0 -0.00000000000E+00 -0.00000000000E+00 -0.10000000000E+04  0.10000000000E+04  0.00000000000E+00 0.  1.
    9000005    2    1    2  501    0  0.23847594456E+02  0.19439952408E+02 -0.20303935816E+03  0.20547287973E+03  0.68923024836E+01 0.  0.
         13    1    3    3    0    0  0.11605617394E+02  0.71138257437E+01 -0.70739517340E+02  0.72037324945E+02  0.00000000000E+00 0.  1.
          1    1    3    3  501    0  0.12241977062E+02  0.12326126664E+02 -0.13229984082E+03  0.13343555479E+03  0.00000000000E+00 0.  1.
         -3    1    1    2    0  502 -0.23847594456E+02 -0.19439952408E+02 -0.79544648024E+03  0.79604128187E+03  0.00000000000E+00 0. -1.
<mgrwt>
<rscale>  1 0.30000000E+03</rscale>
<asrwt>0</asrwt>
<pdfrwt beam="1">  1       21 0.55060538E-02 0.30000000E+03</pdfrwt>
<pdfrwt beam="2">0</pdfrwt>
<totfact> 0.24428026E+04</totfact>
</mgrwt>
</event>
<event>
 6    1  0.6377696E-002  0.3000000E+03  0.7818608E-02  0.1093470E+00
         21   -1    0    0  501  502  0.00000000000E+00  0.00000000000E+00  0.12311484508E+01  0.12311484508E+01  0.00000000000E+00 0. -1.
         13   -1    0    0    0    0 -0.00000000000E+00 -0.00000000000E+00 -0.10000000000E+04  0.10000000000E+04  0.00000000000E+00 0.  1.
    9000005    2    1    2  501    0 -0.17502425554E+02 -0.28436265555E+02 -0.64211466244E+03  0.64301729234E+03  0.67113658712E+01 0.  0.
         13    1    3    3    0    0 -0.87343292355E+01 -0.19008941431E+02 -0.43517424333E+03  0.43567677288E+03  0.00000000000E+00 0.  1.
          1    1    3    3  501    0 -0.87680963184E+01 -0.94273241244E+01 -0.20694041910E+03  0.20734051946E+03  0.00000000000E+00 0.  1.
         -3    1    1    2    0  502  0.17502425554E+02  0.28436265555E+02 -0.35665418911E+03  0.35821385611E+03  0.00000000000E+00 0. -1.
<mgrwt>
<rscale>  1 0.30000000E+03</rscale>
<asrwt>0</asrwt>
<pdfrwt beam="1">  1       21 0.44769129E-02 0.30000000E+03</pdfrwt>
<pdfrwt beam="2">0</pdfrwt>
<totfact> 0.34760205E+04</totfact>
</mgrwt>
</event>
<event>
 6    1  0.6377696E-002  0.3000000E+03  0.7818608E-02  0.1093470E+00
         21   -1    0    0  501  502  0.00000000000E+00  0.00000000000E+00  0.97341028946E+00  0.97341028946E+00  0.00000000000E+00 0. -1.
         13   -1    0    0    0    0 -0.00000000000E+00 -0.00000000000E+00 -0.10000000000E+04  0.10000000000E+04  0.00000000000E+00 0.  1.
    9000005    2    1    2  501    0 -0.17426876098E+02 -0.24930120207E+02 -0.60614441386E+03  0.60691553255E+03  0.31947297114E+01 0.  0.
         13    1    3    3    0    0 -0.11163746714E+01 -0.16215992612E+01 -0.57969131446E+02  0.58002552334E+02  0.00000000000E+00 0.  1.
          1    1    3    3  501    0 -0.16310501427E+02 -0.23308520946E+02 -0.54817528241E+03  0.54891298022E+03  0.00000000000E+00 0.  1.
         -3    1    1    2    0  502  0.17426876098E+02  0.24930120207E+02 -0.39288217585E+03  0.39405787774E+03  0.00000000000E+00 0. -1.
<mgrwt>
<rscale>  1 0.30000000E+03</rscale>
<asrwt>0</asrwt>
<pdfrwt beam="1">  1       21 0.35396812E-02 0.30000000E+03</pdfrwt>
<pdfrwt beam="2">0</pdfrwt>
<totfact> 0.51632446E+04</totfact>
</mgrwt>
</event>
<event>
 6    1  0.6377696E-002  0.3000000E+03  0.7818608E-02  0.1093470E+00
         21   -1    0    0  501  502  0.00000000000E+00  0.00000000000E+00  0.13733959533E+01  0.13733959533E+01  0.00000000000E+00 0. -1.
         13   -1    0    0    0    0 -0.00000000000E+00 -0.00000000000E+00 -0.10000000000E+04  0.10000000000E+04  0.00000000000E+00 0.  1.
    9000005    2    1    2  501    0 -0.28258477270E+02 -0.18400214116E+02 -0.70556640826E+03  0.70637951844E+03  0.33103150966E+01 0.  0.
         13    1    3    3    0    0 -0.17154809099E+02 -0.93745066964E+01 -0.39396512755E+03  0.39444985813E+03  0.00000000000E+00 0.  1.
          3    1    3    3  501    0 -0.11103668172E+02 -0.90257074199E+01 -0.31160128071E+03  0.31192966031E+03  0.00000000000E+00 0.  1.
         -3    1    1    2    0  502  0.28258477270E+02  0.18400214116E+02 -0.29306019578E+03  0.29499387751E+03  0.00000000000E+00 0. -1.
<mgrwt>
<rscale>  1 0.30000000E+03</rscale>
<asrwt>0</asrwt>
<pdfrwt beam="1">  1       21 0.49941776E-02 0.30000000E+03</pdfrwt>
<pdfrwt beam="2">0</pdfrwt>
<totfact> 0.28861924E+04</totfact>
</mgrwt>
</event>
<event>
 6    1  0.6377696E-002  0.3000000E+03  0.7818608E-02  0.1093470E+00
         21   -1    0    0  501  502  0.00000000000E+00  0.00000000000E+00  0.16076039536E+01  0.16076039536E+01  0.00000000000E+00 0. -1.
         13   -1    0    0    0    0 -0.00000000000E+00 -0.00000000000E+00 -0.10000000000E+04  0.10000000000E+04  0.00000000000E+00 0.  1.
    9000005    2    1    2  501    0  0.22417932239E+02 -0.25406406432E+02 -0.23350816452E+03  0.23597326772E+03  0.30448333090E+01 0.  0.
         13    1    3    3    0    0  0.17947475686E+02 -0.18617370834E+02 -0.17324551986E+03  0.17516486101E+03  0.00000000000E+00 0.  1.
          1    1    3    3  501    0  0.44704565531E+01 -0.67890355973E+01 -0.60262644659E+02  0.60808406716E+02  0.00000000000E+00 0.  1.
         -1    1    1    2    0  502 -0.22417932239E+02  0.25406406432E+02 -0.76488423153E+03  0.76563433623E+03  0.00000000000E+00 0. -1.
<mgrwt>
<rscale>  1 0.30000000E+03</rscale>
<asrwt>0</asrwt>
<pdfrwt beam="1">  1       21 0.58458449E-02 0.30000000E+03</pdfrwt>
<pdfrwt beam="2">0</pdfrwt>
<totfact> 0.22038628E+04</totfact>
</mgrwt>
</event>
<event>
 6    1  0.6377696E-002  0.3000000E+03  0.7818608E-02  0.1093470E+00
         21   -1    0    0  501  502  0.00000000000E+00  0.00000000000E+00  0.22312273537E+01  0.22312273537E+01  0.00000000000E+00 0. -1.
         13   -1    0    0    0    0 -0.00000000000E+00 -0.00000000000E+00 -0.10000000000E+04  0.10000000000E+04  0.00000000000E+00 0.  1.
    9000005    2    1    2  501    0  0.22072371806E+02 -0.40643929698E+02 -0.40500468202E+03  0.40766551547E+03  0.48230096789E+01 0.  0.
         13    1    3    3    0    0  0.12895836167E+02 -0.26438032950E+02 -0.27371012310E+03  0.27528622135E+03  0.00000000000E+00 0.  1.
          1    1    3    3  501    0  0.91765356389E+01 -0.14205896748E+02 -0.13129455892E+03  0.13237929412E+03  0.00000000000E+00 0.  1.
         -3    1    1    2    0  502 -0.22072371806E+02  0.40643929698E+02 -0.59276409062E+03  0.59456571189E+03  0.00000000000E+00 0. -1.
<mgrwt>
<rscale>  1 0.30000000E+03</rscale>
<asrwt>0</asrwt>
<pdfrwt beam="1">  1       21 0.81135711E-02 0.30000000E+03</pdfrwt>
<pdfrwt beam="2">0</pdfrwt>
<totfact> 0.12461344E+04</totfact>
</mgrwt>
</event>
<event>
 6    1  0.6377696E-002  0.3000000E+03  0.7818608E-02  0.1093470E+00
         21   -1    0    0  501  502  0.00000000000E+00  0.00000000000E+00  0.28532889929E+01  0.28532889929E+01  0.00000000000E+00 0. -1.
         13   -1    0    0    0    0 -0.00000000000E+00 -0.00000000000E+00 -0.10000000000E+04  0.10000000000E+04  0.00000000000E+00 0.  1.
    9000005    2    1    2  501    0  0.37585830730E+02  0.12804643183E+01 -0.14382717319E+03  0.14870542832E+03  0.35657264882E+01 0.  0.
         13    1    3    3    0    0  0.36730478245E+02  0.77618173487E+00 -0.14105047810E+03  0.14575653626E+03  0.00000000000E+00 0.  1.
          1    1    3    3  501    0  0.85535248455E+00  0.50428258343E+00 -0.27766950842E+01  0.29488920610E+01  0.00000000000E+00 0.  1.
         -1    1    1    2    0  502 -0.37585830730E+02 -0.12804643183E+01 -0.85331953782E+03  0.85414786067E+03  0.00000000000E+00 0. -1.
<mgrwt>
<rscale>  1 0.30000000E+03</rscale>
<asrwt>0</asrwt>
<pdfrwt beam="1">  1       21 0.10375618E-01 0.30000000E+03</pdfrwt>
<pdfrwt beam="2">0</pdfrwt>
<totfact> 0.80540171E+03</totfact>
</mgrwt>
</event>
<event>
 6    1  0.6377696E-002  0.3000000E+03  0.7818608E-02  0.1093470E+00
         21   -1    0    0  501  502  0.00000000000E+00  0.00000000000E+00  0.10304386730E+01  0.10304386730E+01  0.00000000000E+00 0. -1.
         13   -1    0    0    0    0 -0.00000000000E+00 -0.00000000000E+00 -0.10000000000E+04  0.10000000000E+04  0.00000000000E+00 0.  1.
    9000005    2    1    2  501    0 -0.13343691535E+01 -0.32012741747E+02 -0.48102477051E+03  0.48209556558E+03  0.21698697555E+01 0.  0.
         13    1    3    3    0    0 -0.13368115826E+01 -0.11997108203E+02 -0.17150042703E+03  0.17192473394E+03  0.00000000000E+00 0.  1.
          1    1    3    3  501    0  0.24424291225E-02 -0.20015633544E+02 -0.30952434348E+03  0.31017083163E+03  0.00000000000E+00 0.  1.
         -3    1    1    2    0  502  0.13343691535E+01  0.32012741747E+02 -0.51794479082E+03  0.51893487309E+03  0.00000000000E+00 0. -1.
<mgrwt>
<rscale>  1 0.30000000E+03</rscale>
<asrwt>0</asrwt>
<pdfrwt beam="1">  1       21 0.37470576E-02 0.30000000E+03</pdfrwt>
<pdfrwt beam="2">0</pdfrwt>
<totfact> 0.46929091E+04</totfact>
</mgrwt>
</event>
<event>
 6    1  0.6377696E-002  0.3000000E+03  0.7818608E-02  0.1093470E+00
         21   -1    0    0  501  502  0.00000000000E+00  0.00000000000E+00  0.13667374391E+01  0.13667374391E+01  0.00000000000E+00 0. -1.
         13   -1    0    0    0    0 -0.00000000000E+00 -0.00000000000E+00 -0.10000000000E+04  0.10000000000E+04  0.00000000000E+00 0.  1.
    9000005    2    1    2  501    0 -0.30260788895E+02 -0.15081314850E+02 -0.29931928705E+03  0.30123589413E+03  0.28048016724E+01 0.  0.
         13    1    3    3    0    0 -0.20966331047E+02 -0.11171407908E+02 -0.21966547852E+03  0.22094639586E+03  0.00000000000E+00 0.  1.
          1    1    3    3  501    0 -0.92944578481E+01 -0.39099069414E+01 -0.79653808530E+02  0.80289498269E+02  0.00000000000E+00 0.  1.
         -1    1    1    2    0  502  0.30260788895E+02  0.15081314850E+02 -0.69931397551E+03  0.70013084331E+03  0.00000000000E+00 0. -1.
<mgrwt>
<rscale>  1 0.30000000E+03</rscale>
<asrwt>0</asrwt>
<pdfrwt beam="1">  1       21 0.49699648E-02 0.30000000E+03</pdfrwt>
<pdfrwt beam="2">0</pdfrwt>
<totfact> 0.29101995E+04</totfact>
</mgrwt>
</event>
<event>
 6    1  0.6377696E-002  0.3000000E+03  0.7818608E-02  0.1093470E+00
         21   -1    0    0  501  502  0.00000000000E+00  0.00000000000E+00  0.12159363585E+01  0.12159363585E+01  0.00000000000E+00 0. -1.
         13   -1    0    0    0    0 -0.00000000000E+00 -0.00000000000E+00 -0.10000000000E+04  0.10000000000E+04  0.00000000000E+00 0.  1.
    9000005    2    1    2  501    0  0.17883309427E+02  0.29648612653E+02 -0.45015562743E+03  0.45149599493E+03  0.31131237402E+01 0.  0.
         13    1    3    3    0    0  0.34112200016E+01  0.79807604989E+01 -0.10475013183E+03  0.10510908181E+03  0.00000000000E+00 0.  1.
          3    1    3    3  501    0  0.14472089425E+02  0.21667852154E+02 -0.34540549560E+03  0.34638691312E+03  0.00000000000E+00 0.  1.
         -3    1    1    2    0  502 -0.17883309427E+02 -0.29648612653E+02 -0.54862843621E+03  0.54971994143E+03  0.00000000000E+00 0. -1.
<mgrwt>
<rscale>  1 0.30000000E+03</rscale>
<asrwt>0</asrwt>
<pdfrwt beam="1">  1       21 0.44215961E-02 0.30000000E+03</pdfrwt>
<pdfrwt beam="2">0</pdfrwt>
<totfact> 0.35500684E+04</totfact>
</mgrwt>
</event>
<event>
 6    1  0.6377696E-002  0.3000000E+03  0.7818608E-02  0.1093470E+00
         21   -1    0    0  501  502  0.00000000000E+00  0.00000000000E+00  0.17557573287E+01  0.17557573287E+01  0.00000000000E+00 0. -1.
         13   -1    0    0    0    0 -0.00000000000E+00 -0.00000000000E+00 -0.10000000000E+04  0.10000000000E+04  0.00000000000E+00 0.  1.
    9000005    2    1    2  501    0 -0.14256291184E+02  0.39008212380E+02 -0.44556753286E+03  0.44752076381E+03  0.44187364664E+01 0.  0.
         13    1    3    3    0    0 -0.12670262784E+02  0.36543707539E+02 -0.42278256579E+03  0.42454808450E+03  0.00000000000E+00 0.  1.
          1    1    3    3  501    0 -0.15860284001E+01  0.24645048403E+01 -0.22784967072E+02  0.22972679310E+02  0.00000000000E+00 0.  1.
         -3    1    1    2    0  502  0.14256291184E+02 -0.39008212380E+02 -0.55267670981E+03  0.55423499352E+03  0.00000000000E+00 0. -1.
<mgrwt>
<rscale>  1 0.30000000E+03</rscale>
<asrwt>0</asrwt>
<pdfrwt beam="1">  1       21 0.63845856E-02 0.30000000E+03</pdfrwt>
<pdfrwt beam="2">0</pdfrwt>
<totfact> 0.18927863E+04</totfact>
</mgrwt>
</event>
<event>
 6    1  0.6377696E-002  0.3000000E+03  0.7818608E-02  0.1093470E+00
         21   -1    0    0  501  502  0.00000000000E+00  0.00000000000E+00  0.10415719189E+01  0.10415719189E+01  0.00000000000E+00 0. -1.
         13   -1    0    0    0    0 -0.00000000000E+00 -0.00000000000E+00 -0.10000000000E+04  0.10000000000E+04  0.00000000000E+00 0.  1.
    9000005    2    1    2  501    0  0.31556403155E+02 -0.17505039012E+01 -0.59430831474E+03  0.59515909500E+03  0.36200202145E+01 0.  0.
         13    1    3    3    0    0  0.19682540733E+02 -0.19599347882E+00 -0.39708096937E+03  0.39756853127E+03  0.00000000000E+00 0.  1.
          3    1    3    3  501    0  0.11873862422E+02 -0.15545104223E+01 -0.19722734537E+03  0.19759056373E+03  0.00000000000E+00 0.  1.
         -3    1    1    2    0  502 -0.31556403155E+02  0.17505039012E+01 -0.40465011334E+03  0.40588247692E+03  0.00000000000E+00 0. -1.
<mgrwt>
<rscale>  1 0.30000000E+03</rscale>
<asrwt>0</asrwt>
<pdfrwt beam="1">  1       21 0.37875422E-02 0.30000000E+03</pdfrwt>
<pdfrwt beam="2">0</pdfrwt>
<totfact> 0.46089648E+04</totfact>
</mgrwt>
</event>
<event>
 6    1  0.6377696E-002  0.3000000E+03  0.7818608E-02  0.1093470E+00
         21   -1    0    0  501  502  0.00000000000E+00  0.00000000000E+00  0.49184686376E+01  0.49184686376E+01  0.00000000000E+00 0. -1.
         13   -1    0    0    0    0 -0.00000000000E+00 -0.00000000000E+00 -0.10000000000E+04  0.10000000000E+04  0.00000000000E+00 0.  1.
    9000005    2    1    2  501    0  0.59392147755E+02 -0.89429033921E+01 -0.24197788093E+03  0.24942359041E+03  0.71714612762E+01 0.  0.
         13    1    3    3    0    0  0.46014504774E+02 -0.54706578282E+01 -0.19662687927E+03  0.20201334708E+03  0.00000000000E+00 0.  1.
          1    1    3    3  501    0  0.13377642981E+02 -0.34722455639E+01 -0.45351001665E+02  0.47410243335E+02  0.00000000000E+00 0.  1.
         -1    1    1    2    0  502 -0.59392147755E+02  0.89429033921E+01 -0.75310365043E+03  0.75549487822E+03  0.00000000000E+00 0. -1.
<mgrwt>
<rscale>  1 0.30000000E+03</rscale>
<asrwt>0</asrwt>
<pdfrwt beam="1">  1       21 0.17885378E-01 0.30000000E+03</pdfrwt>
<pdfrwt beam="2">0</pdfrwt>
<totfact> 0.29650005E+03</totfact>
</mgrwt>
</event>
<event>
 6    1  0.6377696E-002  0.3000000E+03  0.7818608E-02  0.1093470E+00
         21   -1    0    0  501  502  0.00000000000E+00  0.00000000000E+00  0.46988054871E+01  0.46988054871E+01  0.00000000000E+00 0. -1.
         13   -1    0    0    0    0 -0.00000000000E+00 -0.00000000000E+00 -0.10000000000E+04  0.10000000000E+04  0.00000000000E+00 0.  1.
    9000005    2    1    2  501    0 -0.43142623995E+02 -0.46453996646E+02 -0.68822753742E+03  0.69114898378E+03  0.32426398345E+01 0.  0.
         13    1    3    3    0    0 -0.15285232943E+02 -0.16624766761E+02 -0.26228076274E+03  0.26325124827E+03  0.00000000000E+00 0.  1.
          3    1    3    3  501    0 -0.27857391052E+02 -0.29829229885E+02 -0.42594677468E+03  0.42789773551E+03  0.00000000000E+00 0.  1.
         -1    1    1    2    0  502  0.43142623995E+02  0.46453996646E+02 -0.30707365710E+03  0.31354982171E+03  0.00000000000E+00 0. -1.
<mgrwt>
<rscale>  1 0.30000000E+03</rscale>
<asrwt>0</asrwt>
<pdfrwt beam="1">  1       21 0.17086601E-01 0.30000000E+03</pdfrwt>
<pdfrwt beam="2">0</pdfrwt>
<totfact> 0.32306214E+03</totfact>
</mgrwt>
</event>
<event>
 6    1  0.6377696E-002  0.3000000E+03  0.7818608E-02  0.1093470E+00
         21   -1    0    0  501  502  0.00000000000E+00  0.00000000000E+00  0.12409284849E+01  0.12409284849E+01  0.00000000000E+00 0. -1.
         13   -1    0    0    0    0 -0.00000000000E+00 -0.00000000000E+00 -0.10000000000E+04  0.10000000000E+04  0.00000000000E+00 0.  1.
    9000005    2    1    2  501    0 -0.34336108642E+01  0.34974730851E+02 -0.51196413967E+03  0.51317912179E+03  0.32417979809E+01 0.  0.
         13    1    3    3    0    0 -0.39325826206E+01  0.25278548206E+02 -0.36995925731E+03  0.37084271905E+03  0.00000000000E+00 0.  1.
          3    1    3    3  501    0  0.49897175647E+00  0.96961826449E+01 -0.14200488236E+03  0.14233640274E+03  0.00000000000E+00 0.  1.
         -1    1    1    2    0  502  0.34336108642E+01 -0.34974730851E+02 -0.48679493185E+03  0.48806180669E+03  0.00000000000E+00 0. -1.
<mgrwt>
<rscale>  1 0.30000000E+03</rscale>
<asrwt>0</asrwt>
<pdfrwt beam="1">  1       21 0.45124767E-02 0.30000000E+03</pdfrwt>
<pdfrwt beam="2">0</pdfrwt>
<totfact> 0.34296654E+04</totfact>
</mgrwt>
</event>
<event>
 6    1  0.6377696E-002  0.3000000E+03  0.7818608E-02  0.1093470E+00
         21   -1    0    0  501  502  0.00000000000E+00  0.00000000000E+00  0.20456903788E+01  0.20456903788E+01  0.00000000000E+00 0. -1.
         13   -1    0    0    0    0 -0.00000000000E+00 -0.00000000000E+00 -0.10000000000E+04  0.10000000000E+04  0.00000000000E+00 0.  1.
    9000005    2    1    2  501    0  0.39109057764E+02  0.77205328590E+01 -0.26543100290E+03  0.26843849308E+03  0.40598330099E+01 0.  0.
         13    1    3    3    0    0  0.29128874938E+02  0.40458976671E+01 -0.19055489765E+03  0.19281086499E+03  0.00000000000E+00 0.  1.
          3    1    3    3  501    0  0.99801828258E+01  0.36746351919E+01 -0.74876105250E+02  0.75627628090E+02  0.00000000000E+00 0.  1.
         -1    1    1    2    0  502 -0.39109057764E+02 -0.77205328590E+01 -0.73252330672E+03  0.73360719729E+03  0.00000000000E+00 0. -1.
<mgrwt>
<rscale>  1 0.30000000E+03</rscale>
<asrwt>0</asrwt>
<pdfrwt beam="1">  1       21 0.74388898E-02 0.30000000E+03</pdfrwt>
<pdfrwt beam="2">0</pdfrwt>
<totfact> 0.14510803E+04</totfact>
</mgrwt>
</event>
<event>
 6    1  0.6377696E-002  0.3000000E+03  0.7818608E-02  0.1093470E+00
         21   -1    0    0  501  502  0.00000000000E+00  0.00000000000E+00  0.18776174363E+01  0.18776174363E+01  0.00000000000E+00 0. -1.
         13   -1    0    0    0    0 -0.00000000000E+00 -0.00000000000E+00 -0.10000000000E+04  0.10000000000E+04  0.00000000000E+00 0.  1.
    9000005    2    1    2  501    0  0.11158132940E+02  0.31695773190E+02 -0.81500118854E+03  0.81569894608E+03  0.29508200666E+01 0.  0.
         13    1    3    3    0    0  0.93449546065E+01  0.23272476284E+02 -0.58950198375E+03  0.59003518978E+03  0.00000000000E+00 0.  1.
          3    1    3    3  501    0  0.18131783330E+01  0.84232969053E+01 -0.22549920479E+03  0.22566375630E+03  0.00000000000E+00 0.  1.
         -1    1    1    2    0  502 -0.11158132940E+02 -0.31695773190E+02 -0.18312119402E+03  0.18617867136E+03  0.00000000000E+00 0. -1.
<mgrwt>
<rscale>  1 0.30000000E+03</rscale>
<asrwt>0</asrwt>
<pdfrwt beam="1">  1       21 0.68277142E-02 0.30000000E+03</pdfrwt>
<pdfrwt beam="2">0</pdfrwt>
<totfact> 0.16849750E+04</totfact>
</mgrwt>
</event>
<event>
 6    1  0.6377696E-002  0.3000000E+03  0.7818608E-02  0.1093470E+00
         21   -1    0    0  501  502  0.00000000000E+00  0.00000000000E+00  0.18693078903E+01  0.18693078903E+01  0.00000000000E+00 0. -1.
         13   -1    0    0    0    0 -0.00000000000E+00 -0.00000000000E+00 -0.10000000000E+04  0.10000000000E+04  0.00000000000E+00 0.  1.
    9000005    2    1    2  501    0  0.12640052135E+02 -0.29554910508E+02 -0.83372080905E+03  0.83434655332E+03  0.32434443098E+01 0.  0.
         13    1    3    3    0    0  0.63599941764E+01 -0.18862921441E+02 -0.50984329535E+03  0.51023175631E+03  0.00000000000E+00 0.  1.
          3    1    3    3  501    0  0.62800579584E+01 -0.10691989067E+02 -0.32387751370E+03  0.32411479701E+03  0.00000000000E+00 0.  1.
         -3    1    1    2    0  502 -0.12640052135E+02  0.29554910508E+02 -0.16440988306E+03  0.16752275457E+03  0.00000000000E+00 0. -1.
<mgrwt>
<rscale>  1 0.30000000E+03</rscale>
<asrwt>0</asrwt>
<pdfrwt beam="1">  1       21 0.67974976E-02 0.30000000E+03</pdfrwt>
<pdfrwt beam="2">0</pdfrwt>
<totfact> 0.16980045E+04</totfact>
</mgrwt>
</event>
<event>
 6    1  0.6377696E-002  0.3000000E+03  0.7818608E-02  0.1093470E+00
         21   -1    0    0  501  502  0.00000000000E+00  0.00000000000E+00  0.96841266548E+00  0.96841266548E+00  0.00000000000E+00 0. -1.
         13   -1    0    0    0    0 -0.00000000000E+00 -0.00000000000E+00 -0.10000000000E+04  0.10000000000E+04  0.00000000000E+00 0.  1.
    9000005    2    1    2  501    0 -0.30422302091E+02  0.16300127944E+00 -0.40411993402E+03  0.40527938449E+03  0.35937988127E+01 0.  0.
         13    1    3    3    0    0 -0.74038672450E+01  0.15660868740E+01 -0.96595318672E+02  0.96891307493E+02  0.00000000000E+00 0.  1.
          3    1    3    3  501    0 -0.23018434846E+02 -0.14030855946E+01 -0.30752461534E+03  0.30838807700E+03  0.00000000000E+00 0.  1.
         -1    1    1    2    0  502  0.30422302091E+02 -0.16300127944E+00 -0.59491165332E+03  0.59568902817E+03  0.00000000000E+00 0. -1.
<mgrwt>
<rscale>  1 0.30000000E+03</rscale>
<asrwt>0</asrwt>
<pdfrwt beam="1">  1       21 0.35215080E-02 0.30000000E+03</pdfrwt>
<pdfrwt beam="2">0</pdfrwt>
<totfact> 0.52079684E+04</totfact>
</mgrwt>
</event>
<event>
 6    1  0.6377696E-002  0.3000000E+03  0.7818608E-02  0.1093470E+00
         21   -1    0    0  501  502  0.00000000000E+00  0.00000000000E+00  0.10113068108E+01  0.10113068108E+01  0.00000000000E+00 0. -1.
         13   -1    0    0    0    0 -0.00000000000E+00 -0.00000000000E+00 -0.10000000000E+04  0.10000000000E+04  0.00000000000E+00 0.  1.
    9000005    2    1    2  501    0 -0.29376013301E+02  0.11190785436E+02 -0.44073945266E+03  0.44187769273E+03  0.40554125811E+01 0.  0.
         13    1    3    3    0    0 -0.20615590218E+02  0.96991263670E+01 -0.30884248084E+03  0.30968169721E+03  0.00000000000E+00 0.  1.
          1    1    3    3  501    0 -0.87604230822E+01  0.14916590694E+01 -0.13189697182E+03  0.13219599553E+03  0.00000000000E+00 0.  1.
         -3    1    1    2    0  502  0.29376013301E+02 -0.11190785436E+02 -0.55824924053E+03  0.55913361408E+03  0.00000000000E+00 0. -1.
<mgrwt>
<rscale>  1 0.30000000E+03</rscale>
<asrwt>0</asrwt>
<pdfrwt beam="1">  1       21 0.36774871E-02 0.30000000E+03</pdfrwt>
<pdfrwt beam="2">0</pdfrwt>
<totfact> 0.48428956E+04</totfact>
</mgrwt>
</event>
<event>
 6    1  0.6377696E-002  0.3000000E+03  0.7818608E-02  0.1093470E+00
         21   -1    0    0  501  502  0.00000000000E+00  0.00000000000E+00  0.37691394728E+01  0.37691394728E+01  0.00000000000E+00 0. -1.
         13   -1    0    0    0    0 -0.00000000000E+00 -0.00000000000E+00 -0.10000000000E+04  0.10000000000E+04  0.00000000000E+00 0.  1.
    9000005    2    1    2  501    0 -0.31578803539E+02  0.47858790422E+02 -0.67652527219E+03  0.67896250797E+03  0.39948297645E+01 0.  0.
         13    1    3    3    0    0 -0.39975627638E+01  0.40724129967E+01 -0.72971282054E+02  0.73194078041E+02  0.00000000000E+00 0.  1.
          3    1    3    3  501    0 -0.27581240775E+02  0.43786377425E+02 -0.60355399014E+03  0.60576842993E+03  0.00000000000E+00 0.  1.
         -3    1    1    2    0  502  0.31578803539E+02 -0.47858790422E+02 -0.31970558834E+03  0.32480663150E+03  0.00000000000E+00 0. -1.
<mgrwt>
<rscale>  1 0.30000000E+03</rscale>
<asrwt>0</asrwt>
<pdfrwt beam="1">  1       21 0.13705991E-01 0.30000000E+03</pdfrwt>
<pdfrwt beam="2">0</pdfrwt>
<totfact> 0.48624681E+03</totfact>
</mgrwt>
</event>
<event>
 6    1  0.6377696E-002  0.3000000E+03  0.7818608E-02  0.1093470E+00
         21   -1    0    0  501  502  0.00000000000E+00  0.00000000000E+00  0.18879764176E+01  0.18879764176E+01  0.00000000000E+00 0. -1.
         13   -1    0    0    0    0 -0.00000000000E+00 -0.00000000000E+00 -0.10000000000E+04  0.10000000000E+04  0.00000000000E+00 0.  1.
    9000005    2    1    2  501    0 -0.16709912955E+02  0.32279428845E+02 -0.77232961358E+03  0.77319849396E+03  0.46579331340E+01 0.  0.
         13    1    3    3    0    0 -0.16542984630E+02  0.31327251124E+02 -0.76219504447E+03  0.76301792431E+03  0.00000000000E+00 0.  1.
          1    1    3    3  501    0 -0.16692832498E+00  0.95217772091E+00 -0.10134569108E+02  0.10180569655E+02  0.00000000000E+00 0.  1.
         -3    1    1    2    0  502  0.16709912955E+02 -0.32279428845E+02 -0.22578241000E+03  0.22868948245E+03  0.00000000000E+00 0. -1.
<mgrwt>
<rscale>  1 0.30000000E+03</rscale>
<asrwt>0</asrwt>
<pdfrwt beam="1">  1       21 0.68653833E-02 0.30000000E+03</pdfrwt>
<pdfrwt beam="2">0</pdfrwt>
<totfact> 0.16689454E+04</totfact>
</mgrwt>
</event>
<event>
 6    1  0.6377696E-002  0.3000000E+03  0.7818608E-02  0.1093470E+00
         21   -1    0    0  501  502  0.00000000000E+00  0.00000000000E+00  0.44551300156E+01  0.44551300156E+01  0.00000000000E+00 0. -1.
         13   -1    0    0    0    0 -0.00000000000E+00 -0.00000000000E+00 -0.10000000000E+04  0.10000000000E+04  0.00000000000E+00 0.  1.
    9000005    2    1    2  501    0  0.37534313330E+02  0.34862193407E+02 -0.17679307256E+03  0.18410233823E+03  0.36990850216E+01 0.  0.
         13    1    3    3    0    0  0.13876796679E+01  0.13230947949E+01 -0.95943249583E+01  0.97840332227E+01  0.00000000000E+00 0.  1.
          1    1    3    3  501    0  0.36146633662E+02  0.33539098612E+02 -0.16719874761E+03  0.17431830501E+03  0.00000000000E+00 0.  1.
         -3    1    1    2    0  502 -0.37534313330E+02 -0.34862193407E+02 -0.81875179742E+03  0.82035279178E+03  0.00000000000E+00 0. -1.
<mgrwt>
<rscale>  1 0.30000000E+03</rscale>
<asrwt>0</asrwt>
<pdfrwt beam="1">  1       21 0.16200507E-01 0.30000000E+03</pdfrwt>
<pdfrwt beam="2">0</pdfrwt>
<totfact> 0.35688148E+03</totfact>
</mgrwt>
</event>
<event>
 6    1  0.6377696E-002  0.3000000E+03  0.7818608E-02  0.1093470E+00
         21   -1    0    0  501  502  0.00000000000E+00  0.00000000000E+00  0.92566130824E+00  0.92566130824E+00  0.00000000000E+00 0. -1.
         13   -1    0    0    0    0 -0.00000000000E+00 -0.00000000000E+00 -0.10000000000E+04  0.10000000000E+04  0.00000000000E+00 0.  1.
    9000005    2    1    2  501    0 -0.14207603565E+02 -0.26557163114E+02 -0.45877546061E+03  0.45978795557E+03  0.47855951156E+01 0.  0.
         13    1    3    3    0    0 -0.84912276431E+01 -0.19547711486E+02 -0.30113579752E+03  0.30188902351E+03  0.00000000000E+00 0.  1.
          1    1    3    3  501    0 -0.57163759221E+01 -0.70094516273E+01 -0.15763966309E+03  0.15789893206E+03  0.00000000000E+00 0.  1.
         -1    1    1    2    0  502  0.14207603565E+02  0.26557163114E+02 -0.54029887809E+03  0.54113770574E+03  0.00000000000E+00 0. -1.
<mgrwt>
<rscale>  1 0.30000000E+03</rscale>
<asrwt>0</asrwt>
<pdfrwt beam="1">  1       21 0.33660482E-02 0.30000000E+03</pdfrwt>
<pdfrwt beam="2">0</pdfrwt>
<totfact> 0.56164820E+04</totfact>
</mgrwt>
</event>
<event>
 6    1  0.6377696E-002  0.3000000E+03  0.7818608E-02  0.1093470E+00
         21   -1    0    0  501  502  0.00000000000E+00  0.00000000000E+00  0.31098022257E+01  0.31098022257E+01  0.00000000000E+00 0. -1.
         13   -1    0    0    0    0 -0.00000000000E+00 -0.00000000000E+00 -0.10000000000E+04  0.10000000000E+04  0.00000000000E+00 0.  1.
    9000005    2    1    2  501    0  0.50669373765E+01 -0.55481216769E+02 -0.49078230432E+03  0.49394476112E+03  0.32120919397E+01 0.  0.
         13    1    3    3    0    0  0.24807415136E+01 -0.36660573061E+02 -0.33444063256E+03  0.33645309986E+03  0.00000000000E+00 0.  1.
          1    1    3    3  501    0  0.25861958629E+01 -0.18820643707E+02 -0.15634167176E+03  0.15749166126E+03  0.00000000000E+00 0.  1.
         -3    1    1    2    0  502 -0.50669373765E+01  0.55481216769E+02 -0.50610789346E+03  0.50916504111E+03  0.00000000000E+00 0. -1.
<mgrwt>
<rscale>  1 0.30000000E+03</rscale>
<asrwt>0</asrwt>
<pdfrwt beam="1">  1       21 0.11308396E-01 0.30000000E+03</pdfrwt>
<pdfrwt beam="2">0</pdfrwt>
<totfact> 0.68996674E+03</totfact>
</mgrwt>
</event>
<event>
 6    1  0.6377696E-002  0.3000000E+03  0.7818608E-02  0.1093470E+00
         21   -1    0    0  501  502  0.00000000000E+00  0.00000000000E+00  0.16121742178E+01  0.16121742178E+01  0.00000000000E+00 0. -1.
         13   -1    0    0    0    0 -0.00000000000E+00 -0.00000000000E+00 -0.10000000000E+04  0.10000000000E+04  0.00000000000E+00 0.  1.
    9000005    2    1    2  501    0 -0.12433933032E+02 -0.37120576637E+02 -0.60651484729E+03  0.60778864626E+03  0.37734121385E+01 0.  0.
         13    1    3    3    0    0 -0.16838522334E+01 -0.31059507538E+01 -0.70058783332E+02  0.70147811159E+02  0.00000000000E+00 0.  1.
          3    1    3    3  501    0 -0.10750080798E+02 -0.34014625883E+02 -0.53645606396E+03  0.53764083510E+03  0.00000000000E+00 0.  1.
         -3    1    1    2    0  502  0.12433933032E+02  0.37120576637E+02 -0.39187297849E+03  0.39382352795E+03  0.00000000000E+00 0. -1.
<mgrwt>
<rscale>  1 0.30000000E+03</rscale>
<asrwt>0</asrwt>
<pdfrwt beam="1">  1       21 0.58624641E-02 0.30000000E+03</pdfrwt>
<pdfrwt beam="2">0</pdfrwt>
<totfact> 0.21931088E+04</totfact>
</mgrwt>
</event>
<event>
 6    1  0.6377696E-002  0.3000000E+03  0.7818608E-02  0.1093470E+00
         21   -1    0    0  501  502  0.00000000000E+00  0.00000000000E+00  0.74421431815E+01  0.74421431815E+01  0.00000000000E+00 0. -1.
         13   -1    0    0    0    0 -0.00000000000E+00 -0.00000000000E+00 -0.10000000000E+04  0.10000000000E+04  0.00000000000E+00 0.  1.
    9000005    2    1    2  501    0  0.14608736430E+02  0.71846090331E+02 -0.23157017417E+03  0.24293084240E+03  0.39208097948E+01 0.  0.
         13    1    3    3    0    0  0.71112140721E+00  0.72722302401E+01 -0.26206573947E+02  0.27206167395E+02  0.00000000000E+00 0.  1.
          1    1    3    3  501    0  0.13897615023E+02  0.64573860091E+02 -0.20536360022E+03  0.21572467501E+03  0.00000000000E+00 0.  1.
         -1    1    1    2    0  502 -0.14608736430E+02 -0.71846090331E+02 -0.76098768265E+03  0.76451130078E+03  0.00000000000E+00 0. -1.
<mgrwt>
<rscale>  1 0.30000000E+03</rscale>
<asrwt>0</asrwt>
<pdfrwt beam="1">  1       21 0.27062396E-01 0.30000000E+03</pdfrwt>
<pdfrwt beam="2">0</pdfrwt>
<totfact> 0.13343795E+03</totfact>
</mgrwt>
</event>
<event>
 6    1  0.6377696E-002  0.3000000E+03  0.7818608E-02  0.1093470E+00
         21   -1    0    0  501  502  0.00000000000E+00  0.00000000000E+00  0.12524658794E+01  0.12524658794E+01  0.00000000000E+00 0. -1.
         13   -1    0    0    0    0 -0.00000000000E+00 -0.00000000000E+00 -0.10000000000E+04  0.10000000000E+04  0.00000000000E+00 0.  1.
    9000005    2    1    2  501    0 -0.16686776243E+02 -0.28219619709E+02 -0.35291299873E+03  0.35458636769E+03  0.10445671097E+02 0.  0.
         13    1    3    3    0    0 -0.16665146181E+00 -0.68233215272E+01 -0.10006418378E+03  0.10029669170E+03  0.00000000000E+00 0.  1.
          3    1    3    3  501    0 -0.16520124781E+02 -0.21396298181E+02 -0.25284881494E+03  0.25428967599E+03  0.00000000000E+00 0.  1.
         -1    1    1    2    0  502  0.16686776243E+02  0.28219619709E+02 -0.64583453540E+03  0.64666609819E+03  0.00000000000E+00 0. -1.
<mgrwt>
<rscale>  1 0.30000000E+03</rscale>
<asrwt>0</asrwt>
<pdfrwt beam="1">  1       21 0.45544310E-02 0.30000000E+03</pdfrwt>
<pdfrwt beam="2">0</pdfrwt>
<totfact> 0.33761955E+04</totfact>
</mgrwt>
</event>
<event>
 6    1  0.6377696E-002  0.3000000E+03  0.7818608E-02  0.1093470E+00
         21   -1    0    0  501  502  0.00000000000E+00  0.00000000000E+00  0.20876943372E+01  0.20876943372E+01  0.00000000000E+00 0. -1.
         13   -1    0    0    0    0 -0.00000000000E+00 -0.00000000000E+00 -0.10000000000E+04  0.10000000000E+04  0.00000000000E+00 0.  1.
    9000005    2    1    2  501    0 -0.22797720290E+02  0.38971162832E+02 -0.43651079053E+03  0.43887357096E+03  0.54638312149E+01 0.  0.
         13    1    3    3    0    0 -0.14156097370E+02  0.18849319457E+02 -0.23010749588E+03  0.23131180600E+03  0.00000000000E+00 0.  1.
          1    1    3    3  501    0 -0.86416229200E+01  0.20121843375E+02 -0.20640329465E+03  0.20756176495E+03  0.00000000000E+00 0.  1.
         -1    1    1    2    0  502  0.22797720290E+02 -0.38971162832E+02 -0.56140151513E+03  0.56321412338E+03  0.00000000000E+00 0. -1.
<mgrwt>
<rscale>  1 0.30000000E+03</rscale>
<asrwt>0</asrwt>
<pdfrwt beam="1">  1       21 0.75916318E-02 0.30000000E+03</pdfrwt>
<pdfrwt beam="2">0</pdfrwt>
<totfact> 0.14003457E+04</totfact>
</mgrwt>
</event>
<event>
 6    1  0.6377696E-002  0.3000000E+03  0.7818608E-02  0.1093470E+00
         21   -1    0    0  501  502  0.00000000000E+00  0.00000000000E+00  0.99752951418E+00  0.99752951418E+00  0.00000000000E+00 0. -1.
         13   -1    0    0    0    0 -0.00000000000E+00 -0.00000000000E+00 -0.10000000000E+04  0.10000000000E+04  0.00000000000E+00 0.  1.
    9000005    2    1    2  501    0 -0.95280903848E+01 -0.28549822156E+02 -0.64724587818E+03  0.64795563812E+03  0.36613240252E+01 0.  0.
         13    1    3    3    0    0 -0.97786260040E+01 -0.27002147184E+02 -0.60630984043E+03  0.60698958812E+03  0.00000000000E+00 0.  1.
          3    1    3    3  501    0  0.25053561916E+00 -0.15476749716E+01 -0.40936037753E+02  0.40966050003E+02  0.00000000000E+00 0.  1.
         -1    1    1    2    0  502  0.95280903848E+01  0.28549822156E+02 -0.35175659230E+03  0.35304189139E+03  0.00000000000E+00 0. -1.
<mgrwt>
<rscale>  1 0.30000000E+03</rscale>
<asrwt>0</asrwt>
<pdfrwt beam="1">  1       21 0.36273877E-02 0.30000000E+03</pdfrwt>
<pdfrwt beam="2">0</pdfrwt>
<totfact> 0.49556382E+04</totfact>
</mgrwt>
</event>
<event>
 6    1  0.6377696E-002  0.3000000E+03  0.7818608E-02  0.1093470E+00
         21   -1    0    0  501  502  0.00000000000E+00  0.00000000000E+00  0.10159956188E+01  0.10159956188E+01  0.00000000000E+00 0. -1.
         13   -1    0    0    0    0 -0.00000000000E+00 -0.00000000000E+00 -0.10000000000E+04  0.10000000000E+04  0.00000000000E+00 0.  1.
    9000005    2    1    2  501    0  0.30336154281E+02  0.72772213293E+01 -0.59633044743E+03  0.59715571392E+03  0.34211008051E+01 0.  0.
         13    1    3    3    0    0  0.27863107586E+02  0.75874942274E+01 -0.54396231625E+03  0.54472830323E+03  0.00000000000E+00 0.  1.
          1    1    3    3  501    0  0.24730466944E+01 -0.31027289813E+00 -0.52368131171E+02  0.52427410689E+02  0.00000000000E+00 0.  1.
         -3    1    1    2    0  502 -0.30336154281E+02 -0.72772213293E+01 -0.40265355696E+03  0.40386028170E+03  0.00000000000E+00 0. -1.
<mgrwt>
<rscale>  1 0.30000000E+03</rscale>
<asrwt>0</asrwt>
<pdfrwt beam="1">  1       21 0.36945373E-02 0.30000000E+03</pdfrwt>
<pdfrwt beam="2">0</pdfrwt>
<totfact> 0.48054458E+04</totfact>
</mgrwt>
</event>
<event>
 6    1  0.6377696E-002  0.3000000E+03  0.7818608E-02  0.1093470E+00
         21   -1    0    0  501  502  0.00000000000E+00  0.00000000000E+00  0.22568969535E+01  0.22568969535E+01  0.00000000000E+00 0. -1.
         13   -1    0    0    0    0 -0.00000000000E+00 -0.00000000000E+00 -0.10000000000E+04  0.10000000000E+04  0.00000000000E+00 0.  1.
    9000005    2    1    2  501    0 -0.66822645847E+00  0.43842442553E+02 -0.30782903733E+03  0.31095086894E+03  0.30199958418E+01 0.  0.
         13    1    3    3    0    0 -0.11638416375E+01  0.37334183403E+02 -0.25534470567E+03  0.25806222988E+03  0.00000000000E+00 0.  1.
          3    1    3    3  501    0  0.49561517899E+00  0.65082591492E+01 -0.52484331660E+02  0.52888639058E+02  0.00000000000E+00 0.  1.
         -3    1    1    2    0  502  0.66822645847E+00 -0.43842442553E+02 -0.68991406571E+03  0.69130602801E+03  0.00000000000E+00 0. -1.
<mgrwt>
<rscale>  1 0.30000000E+03</rscale>
<asrwt>0</asrwt>
<pdfrwt beam="1">  1       21 0.82069153E-02 0.30000000E+03</pdfrwt>
<pdfrwt beam="2">0</pdfrwt>
<totfact> 0.12213178E+04</totfact>
</mgrwt>
</event>
<event>
 6    1  0.6377696E-002  0.3000000E+03  0.7818608E-02  0.1093470E+00
         21   -1    0    0  501  502  0.00000000000E+00  0.00000000000E+00  0.11188641266E+01  0.11188641266E+01  0.00000000000E+00 0. -1.
         13   -1    0    0    0    0 -0.00000000000E+00 -0.00000000000E+00 -0.10000000000E+04  0.10000000000E+04  0.00000000000E+00 0.  1.
    9000005    2    1    2  501    0 -0.57661650810E+01 -0.30682840232E+02 -0.66478868215E+03  0.66557087504E+03  0.81186478977E+01 0.  0.
         13    1    3    3    0    0 -0.24688897029E+01 -0.19063205519E+02 -0.32534294795E+03  0.32591031742E+03  0.00000000000E+00 0.  1.
          1    1    3    3  501    0 -0.32972753782E+01 -0.11619634713E+02 -0.33944573420E+03  0.33966055762E+03  0.00000000000E+00 0.  1.
         -1    1    1    2    0  502  0.57661650810E+01  0.30682840232E+02 -0.33409245373E+03  0.33554798909E+03  0.00000000000E+00 0. -1.
<mgrwt>
<rscale>  1 0.30000000E+03</rscale>
<asrwt>0</asrwt>
<pdfrwt beam="1">  1       21 0.40686054E-02 0.30000000E+03</pdfrwt>
<pdfrwt beam="2">0</pdfrwt>
<totfact> 0.40859716E+04</totfact>
</mgrwt>
</event>
<event>
 6    1  0.6377696E-002  0.3000000E+03  0.7818608E-02  0.1093470E+00
         21   -1    0    0  501  502  0.00000000000E+00  0.00000000000E+00  0.23070314778E+01  0.23070314778E+01  0.00000000000E+00 0. -1.
         13   -1    0    0    0    0 -0.00000000000E+00 -0.00000000000E+00 -0.10000000000E+04  0.10000000000E+04  0.00000000000E+00 0.  1.
    9000005    2    1    2  501    0 -0.39533047303E+02  0.24695666135E+02 -0.61579830259E+03  0.61757820019E+03  0.47482760023E+01 0.  0.
         13    1    3    3    0    0 -0.10085135224E+02  0.79126661041E+01 -0.19115139615E+03  0.19158073099E+03  0.00000000000E+00 0.  1.
          1    1    3    3  501    0 -0.29447912079E+02  0.16783000031E+02 -0.42464690644E+03  0.42599746920E+03  0.00000000000E+00 0.  1.
         -3    1    1    2    0  502  0.39533047303E+02 -0.24695666135E+02 -0.38189466593E+03  0.38472883129E+03  0.00000000000E+00 0. -1.
<mgrwt>
<rscale>  1 0.30000000E+03</rscale>
<asrwt>0</asrwt>
<pdfrwt beam="1">  1       21 0.83892231E-02 0.30000000E+03</pdfrwt>
<pdfrwt beam="2">0</pdfrwt>
<totfact> 0.11749818E+04</totfact>
</mgrwt>
</event>
<event>
 6    1  0.6377696E-002  0.3000000E+03  0.7818608E-02  0.1093470E+00
         21   -1    0    0  501  502  0.00000000000E+00  0.00000000000E+00  0.14319577215E+01  0.14319577215E+01  0.00000000000E+00 0. -1.
         13   -1    0    0    0    0 -0.00000000000E+00 -0.00000000000E+00 -0.10000000000E+04  0.10000000000E+04  0.00000000000E+00 0.  1.
    9000005    2    1    2  501    0 -0.12709069398E+02  0.35452949506E+02 -0.46297798458E+03  0.46451935591E+03  0.33445088920E+01 0.  0.
         13    1    3    3    0    0 -0.12246244933E+02  0.35140412935E+02 -0.45309729424E+03  0.45462289558E+03  0.00000000000E+00 0.  1.
          1    1    3    3  501    0 -0.46282446517E+00  0.31253657150E+00 -0.98806903344E+01  0.98964603307E+01  0.00000000000E+00 0.  1.
         -3    1    1    2    0  502  0.12709069398E+02 -0.35452949506E+02 -0.53559005770E+03  0.53691260181E+03  0.00000000000E+00 0. -1.
<mgrwt>
<rscale>  1 0.30000000E+03</rscale>
<asrwt>0</asrwt>
<pdfrwt beam="1">  1       21 0.52071300E-02 0.30000000E+03</pdfrwt>
<pdfrwt beam="2">0</pdfrwt>
<totfact> 0.26876894E+04</totfact>
</mgrwt>
</event>
<event>
 6    1  0.6377696E-002  0.3000000E+03  0.7818608E-02  0.1093470E+00
         21   -1    0    0  501  502  0.00000000000E+00  0.00000000000E+00  0.15116407849E+01  0.15116407849E+01  0.00000000000E+00 0. -1.
         13   -1    0    0    0    0 -0.00000000000E+00 -0.00000000000E+00 -0.10000000000E+04  0.10000000000E+04  0.00000000000E+00 0.  1.
    9000005    2    1    2  501    0 -0.37062018978E+02  0.93631024536E+01 -0.58597362357E+03  0.58722952910E+03  0.34887516724E+01 0.  0.
         13    1    3    3    0    0 -0.28286061747E+02  0.63015760278E+01 -0.42363108149E+03  0.42462113036E+03  0.00000000000E+00 0.  1.
          1    1    3    3  501    0 -0.87759572314E+01  0.30615264258E+01 -0.16234254208E+03  0.16260839874E+03  0.00000000000E+00 0.  1.
         -3    1    1    2    0  502  0.37062018978E+02 -0.93631024536E+01 -0.41251473564E+03  0.41428211168E+03  0.00000000000E+00 0. -1.
<mgrwt>
<rscale>  1 0.30000000E+03</rscale>
<asrwt>0</asrwt>
<pdfrwt beam="1">  1       21 0.54968872E-02 0.30000000E+03</pdfrwt>
<pdfrwt beam="2">0</pdfrwt>
<totfact> 0.24497918E+04</totfact>
</mgrwt>
</event>
<event>
 6    1  0.6377696E-002  0.3000000E+03  0.7818608E-02  0.1093470E+00
         21   -1    0    0  501  502  0.00000000000E+00  0.00000000000E+00  0.15157602647E+01  0.15157602647E+01  0.00000000000E+00 0. -1.
         13   -1    0    0    0    0 -0.00000000000E+00 -0.00000000000E+00 -0.10000000000E+04  0.10000000000E+04  0.00000000000E+00 0.  1.
    9000005    2    1    2  501    0  0.15868857093E+02  0.33366727896E+02 -0.65405958411E+03  0.65511497713E+03  0.40662677890E+01 0.  0.
         13    1    3    3    0    0  0.74726468024E+00  0.47053122280E+01 -0.85459434511E+02  0.85592133486E+02  0.00000000000E+00 0.  1.
          3    1    3    3  501    0  0.15121592412E+02  0.28661415668E+02 -0.56860014960E+03  0.56952284364E+03  0.00000000000E+00 0.  1.
         -3    1    1    2    0  502 -0.15868857093E+02 -0.33366727896E+02 -0.34442465562E+03  0.34640078314E+03  0.00000000000E+00 0. -1.
<mgrwt>
<rscale>  1 0.30000000E+03</rscale>
<asrwt>0</asrwt>
<pdfrwt beam="1">  1       21 0.55118671E-02 0.30000000E+03</pdfrwt>
<pdfrwt beam="2">0</pdfrwt>
<totfact> 0.24383860E+04</totfact>
</mgrwt>
</event>
<event>
 6    1  0.6377696E-002  0.3000000E+03  0.7818608E-02  0.1093470E+00
         21   -1    0    0  501  502  0.00000000000E+00  0.00000000000E+00  0.22500187814E+01  0.22500187814E+01  0.00000000000E+00 0. -1.
         13   -1    0    0    0    0 -0.00000000000E+00 -0.00000000000E+00 -0.10000000000E+04  0.10000000000E+04  0.00000000000E+00 0.  1.
    9000005    2    1    2  501    0 -0.36910691137E+02 -0.12871528659E+02 -0.21663953152E+03  0.22016203779E+03  0.32497538223E+01 0.  0.
         13    1    3    3    0    0 -0.13374112796E+02 -0.60382543014E+01 -0.76205742525E+02  0.77605686659E+02  0.00000000000E+00 0.  1.
          1    1    3    3  501    0 -0.23536578341E+02 -0.68332743580E+01 -0.14043378899E+03  0.14255635113E+03  0.00000000000E+00 0.  1.
         -3    1    1    2    0  502  0.36910691137E+02  0.12871528659E+02 -0.78111044970E+03  0.78208798099E+03  0.00000000000E+00 0. -1.
<mgrwt>
<rscale>  1 0.30000000E+03</rscale>
<asrwt>0</asrwt>
<pdfrwt beam="1">  1       21 0.81819037E-02 0.30000000E+03</pdfrwt>
<pdfrwt beam="2">0</pdfrwt>
<totfact> 0.12278926E+04</totfact>
</mgrwt>
</event>
<event>
 6    1  0.6377696E-002  0.3000000E+03  0.7818608E-02  0.1093470E+00
         21   -1    0    0  501  502  0.00000000000E+00  0.00000000000E+00  0.19811364170E+01  0.19811364170E+01  0.00000000000E+00 0. -1.
         13   -1    0    0    0    0 -0.00000000000E+00 -0.00000000000E+00 -0.10000000000E+04  0.10000000000E+04  0.00000000000E+00 0.  1.
    9000005    2    1    2  501    0 -0.31993476574E+02  0.26374346038E+02 -0.68008662271E+03  0.68135659204E+03  0.31308866461E+01 0.  0.
         13    1    3    3    0    0 -0.17061661883E+01  0.63811638971E+00 -0.26338909362E+02  0.26401824595E+02  0.00000000000E+00 0.  1.
          3    1    3    3  501    0 -0.30287310386E+02  0.25736229648E+02 -0.65374771335E+03  0.65495476744E+03  0.00000000000E+00 0.  1.
         -3    1    1    2    0  502  0.31993476574E+02 -0.26374346038E+02 -0.31793224087E+03  0.32062454438E+03  0.00000000000E+00 0. -1.
<mgrwt>
<rscale>  1 0.30000000E+03</rscale>
<asrwt>0</asrwt>
<pdfrwt beam="1">  1       21 0.72041476E-02 0.30000000E+03</pdfrwt>
<pdfrwt beam="2">0</pdfrwt>
<totfact> 0.15346987E+04</totfact>
</mgrwt>
</event>
<event>
 6    1  0.6377696E-002  0.3000000E+03  0.7818608E-02  0.1093470E+00
         21   -1    0    0  501  502  0.00000000000E+00  0.00000000000E+00  0.11111193261E+01  0.11111193261E+01  0.00000000000E+00 0. -1.
         13   -1    0    0    0    0 -0.00000000000E+00 -0.00000000000E+00 -0.10000000000E+04  0.10000000000E+04  0.00000000000E+00 0.  1.
    9000005    2    1    2  501    0 -0.31827781063E+02  0.88989418784E+01 -0.55584572488E+03  0.55683706346E+03  0.32934129540E+01 0.  0.
         13    1    3    3    0    0 -0.25966468640E+01  0.21040178954E+00 -0.32924542124E+02  0.33027447948E+02  0.00000000000E+00 0.  1.
          3    1    3    3  501    0 -0.29231134199E+02  0.86885400888E+01 -0.52292118275E+03  0.52380961552E+03  0.00000000000E+00 0.  1.
         -1    1    1    2    0  502  0.31827781063E+02 -0.88989418784E+01 -0.44304315580E+03  0.44427405586E+03  0.00000000000E+00 0. -1.
<mgrwt>
<rscale>  1 0.30000000E+03</rscale>
<asrwt>0</asrwt>
<pdfrwt beam="1">  1       21 0.40404424E-02 0.30000000E+03</pdfrwt>
<pdfrwt beam="2">0</pdfrwt>
<totfact> 0.41340816E+04</totfact>
</mgrwt>
</event>
<event>
 6    1  0.6377696E-002  0.3000000E+03  0.7818608E-02  0.1093470E+00
         21   -1    0    0  501  502  0.00000000000E+00  0.00000000000E+00  0.17652431660E+01  0.17652431660E+01  0.00000000000E+00 0. -1.
         13   -1    0    0    0    0 -0.00000000000E+00 -0.00000000000E+00 -0.10000000000E+04  0.10000000000E+04  0.00000000000E+00 0.  1.
    9000005    2    1    2  501    0 -0.30066775605E+01  0.40453631940E+02 -0.37488731927E+03  0.37709928093E+03  0.42224505111E+01 0.  0.
         13    1    3    3    0    0 -0.62670339332E+00  0.14467720027E+02 -0.15259096162E+03  0.15327657762E+03  0.00000000000E+00 0.  1.
          3    1    3    3  501    0 -0.23799741672E+01  0.25985911913E+02 -0.22229635765E+03  0.22382270331E+03  0.00000000000E+00 0.  1.
         -3    1    1    2    0  502  0.30066775605E+01 -0.40453631940E+02 -0.62334743757E+03  0.62466596223E+03  0.00000000000E+00 0. -1.
<mgrwt>
<rscale>  1 0.30000000E+03</rscale>
<asrwt>0</asrwt>
<pdfrwt beam="1">  1       21 0.64190796E-02 0.30000000E+03</pdfrwt>
<pdfrwt beam="2">0</pdfrwt>
<totfact> 0.18752257E+04</totfact>
</mgrwt>
</event>
<event>
 6    1  0.6377696E-002  0.3000000E+03  0.7818608E-02  0.1093470E+00
         21   -1    0    0  501  502  0.00000000000E+00  0.00000000000E+00  0.10694389199E+01  0.10694389199E+01  0.00000000000E+00 0. -1.
         13   -1    0    0    0    0 -0.00000000000E+00 -0.00000000000E+00 -0.10000000000E+04  0.10000000000E+04  0.00000000000E+00 0.  1.
    9000005    2    1    2  501    0  0.24328531737E+02  0.20254708024E+02 -0.62018003141E+03  0.62099826877E+03  0.36671245031E+01 0.  0.
         13    1    3    3    0    0  0.22049106134E+02  0.18872880098E+02 -0.58360666465E+03  0.58432789400E+03  0.00000000000E+00 0.  1.
          1    1    3    3  501    0  0.22794256029E+01  0.13818279260E+01 -0.36573366761E+02  0.36670374770E+02  0.00000000000E+00 0.  1.
         -3    1    1    2    0  502 -0.24328531737E+02 -0.20254708024E+02 -0.37875052967E+03  0.38007117015E+03  0.00000000000E+00 0. -1.
<mgrwt>
<rscale>  1 0.30000000E+03</rscale>
<asrwt>0</asrwt>
<pdfrwt beam="1">  1       21 0.38888770E-02 0.30000000E+03</pdfrwt>
<pdfrwt beam="2">0</pdfrwt>
<totfact> 0.44088949E+04</totfact>
</mgrwt>
</event>
<event>
 6    1  0.6377696E-002  0.3000000E+03  0.7818608E-02  0.1093470E+00
         21   -1    0    0  501  502  0.00000000000E+00  0.00000000000E+00  0.16793353267E+01  0.16793353267E+01  0.00000000000E+00 0. -1.
         13   -1    0    0    0    0 -0.00000000000E+00 -0.00000000000E+00 -0.10000000000E+04  0.10000000000E+04  0.00000000000E+00 0.  1.
    9000005    2    1    2  501    0 -0.31075223110E+02 -0.12998850813E+02 -0.22511419029E+03  0.22773948518E+03  0.73644298610E+01 0.  0.
         13    1    3    3    0    0 -0.15460161663E+02 -0.55848394750E+01 -0.13356210665E+03  0.13456984567E+03  0.00000000000E+00 0.  1.
          3    1    3    3  501    0 -0.15615061447E+02 -0.74140113383E+01 -0.91552083638E+02  0.93169639511E+02  0.00000000000E+00 0.  1.
         -3    1    1    2    0  502  0.31075223110E+02  0.12998850813E+02 -0.77320647438E+03  0.77393985014E+03  0.00000000000E+00 0. -1.
<mgrwt>
<rscale>  1 0.30000000E+03</rscale>
<asrwt>0</asrwt>
<pdfrwt beam="1">  1       21 0.61066868E-02 0.30000000E+03</pdfrwt>
<pdfrwt beam="2">0</pdfrwt>
<totfact> 0.20440571E+04</totfact>
</mgrwt>
</event>
<event>
 6    1  0.6377696E-002  0.3000000E+03  0.7818608E-02  0.1093470E+00
         21   -1    0    0  501  502  0.00000000000E+00  0.00000000000E+00  0.25389136937E+01  0.25389136937E+01  0.00000000000E+00 0. -1.
         13   -1    0    0    0    0 -0.00000000000E+00 -0.00000000000E+00 -0.10000000000E+04  0.10000000000E+04  0.00000000000E+00 0.  1.
    9000005    2    1    2  501    0  0.39917807817E+02 -0.23252848370E+02 -0.69768190467E+03  0.69922111982E+03  0.40009947883E+01 0.  0.
         13    1    3    3    0    0  0.26019816949E+02 -0.17321117676E+02 -0.46838748691E+03  0.46942932363E+03  0.00000000000E+00 0.  1.
          1    1    3    3  501    0  0.13897990868E+02 -0.59317306942E+01 -0.22929441776E+03  0.22979179619E+03  0.00000000000E+00 0.  1.
         -3    1    1    2    0  502 -0.39917807817E+02  0.23252848370E+02 -0.29977918163E+03  0.30331779387E+03  0.00000000000E+00 0. -1.
<mgrwt>
<rscale>  1 0.30000000E+03</rscale>
<asrwt>0</asrwt>
<pdfrwt beam="1">  1       21 0.92324329E-02 0.30000000E+03</pdfrwt>
<pdfrwt beam="2">0</pdfrwt>
<totfact> 0.99191644E+03</totfact>
</mgrwt>
</event>
<event>
 6    1  0.6377696E-002  0.3000000E+03  0.7818608E-02  0.1093470E+00
         21   -1    0    0  501  502  0.00000000000E+00  0.00000000000E+00  0.11852801425E+01  0.11852801425E+01  0.00000000000E+00 0. -1.
         13   -1    0    0    0    0 -0.00000000000E+00 -0.00000000000E+00 -0.10000000000E+04  0.10000000000E+04  0.00000000000E+00 0.  1.
    9000005    2    1    2  501    0 -0.33668154019E+02  0.12462335680E+01 -0.40164306392E+03  0.40306398446E+03  0.28856681985E+01 0.  0.
         13    1    3    3    0    0 -0.15079829928E+02  0.17948047316E+01 -0.17188296274E+03  0.17255252961E+03  0.00000000000E+00 0.  1.
          1    1    3    3  501    0 -0.18588324091E+02 -0.54857116364E+00 -0.22976010118E+03  0.23051145485E+03  0.00000000000E+00 0.  1.
         -3    1    1    2    0  502  0.33668154019E+02 -0.12462335680E+01 -0.59717165594E+03  0.59812129568E+03  0.00000000000E+00 0. -1.
<mgrwt>
<rscale>  1 0.30000000E+03</rscale>
<asrwt>0</asrwt>
<pdfrwt beam="1">  1       21 0.43101187E-02 0.30000000E+03</pdfrwt>
<pdfrwt beam="2">0</pdfrwt>
<totfact> 0.37069087E+04</totfact>
</mgrwt>
</event>
<event>
 6    1  0.6377696E-002  0.3000000E+03  0.7818608E-02  0.1093470E+00
         21   -1    0    0  501  502  0.00000000000E+00  0.00000000000E+00  0.16230720891E+01  0.16230720891E+01  0.00000000000E+00 0. -1.
         13   -1    0    0    0    0 -0.00000000000E+00 -0.00000000000E+00 -0.10000000000E+04  0.10000000000E+04  0.00000000000E+00 0.  1.
    9000005    2    1    2  501    0  0.22880559280E+02  0.26536983809E+02 -0.25949547740E+03  0.26191128402E+03  0.56468045981E+01 0.  0.
         13    1    3    3    0    0  0.67295433956E+01  0.42222958752E+01 -0.57643330938E+02  0.58188213054E+02  0.00000000000E+00 0.  1.
          1    1    3    3  501    0  0.16151015884E+02  0.22314687934E+02 -0.20185214646E+03  0.20372307097E+03  0.00000000000E+00 0.  1.
         -1    1    1    2    0  502 -0.22880559280E+02 -0.26536983809E+02 -0.73888145051E+03  0.73971178807E+03  0.00000000000E+00 0. -1.
<mgrwt>
<rscale>  1 0.30000000E+03</rscale>
<asrwt>0</asrwt>
<pdfrwt beam="1">  1       21 0.59020928E-02 0.30000000E+03</pdfrwt>
<pdfrwt beam="2">0</pdfrwt>
<totfact> 0.21677935E+04</totfact>
</mgrwt>
</event>
<event>
 6    1  0.6377696E-002  0.3000000E+03  0.7818608E-02  0.1093470E+00
         21   -1    0    0  501  502  0.00000000000E+00  0.00000000000E+00  0.20766494337E+01  0.20766494337E+01  0.00000000000E+00 0. -1.
         13   -1    0    0    0    0 -0.00000000000E+00 -0.00000000000E+00 -0.10000000000E+04  0.10000000000E+04  0.00000000000E+00 0.  1.
    9000005    2    1    2  501    0  0.28258444968E+02 -0.34186802106E+02 -0.38905280917E+03  0.39159273209E+03  0.39373030781E+01 0.  0.
         13    1    3    3    0    0  0.12397804635E+02 -0.17511903654E+02 -0.17767908894E+03  0.17896991640E+03  0.00000000000E+00 0.  1.
          1    1    3    3  501    0  0.15860640333E+02 -0.16674898452E+02 -0.21137372023E+03  0.21262281569E+03  0.00000000000E+00 0.  1.
         -1    1    1    2    0  502 -0.28258444968E+02  0.34186802106E+02 -0.60887054140E+03  0.61048391734E+03  0.00000000000E+00 0. -1.
<mgrwt>
<rscale>  1 0.30000000E+03</rscale>
<asrwt>0</asrwt>
<pdfrwt beam="1">  1       21 0.75514684E-02 0.30000000E+03</pdfrwt>
<pdfrwt beam="2">0</pdfrwt>
<totfact> 0.14134175E+04</totfact>
</mgrwt>
</event>
<event>
 6    1  0.6377696E-002  0.3000000E+03  0.7818608E-02  0.1093470E+00
         21   -1    0    0  501  502  0.00000000000E+00  0.00000000000E+00  0.18569967646E+02  0.18569967646E+02  0.00000000000E+00 0. -1.
         13   -1    0    0    0    0 -0.00000000000E+00 -0.00000000000E+00 -0.10000000000E+04  0.10000000000E+04  0.00000000000E+00 0.  1.
    9000005    2    1    2  501    0 -0.10544800346E+03 -0.86222546383E+02 -0.50293004414E+03  0.52106032185E+03  0.34089251251E+01 0.  0.
         13    1    3    3    0    0 -0.17250029896E+02 -0.14654875497E+02 -0.79091375670E+02  0.82266485355E+02  0.00000000000E+00 0.  1.
          3    1    3    3  501    0 -0.88197973565E+02 -0.71567670886E+02 -0.42383866847E+03  0.43879383650E+03  0.00000000000E+00 0.  1.
         -3    1    1    2    0  502  0.10544800346E+03  0.86222546383E+02 -0.47849998821E+03  0.49750964579E+03  0.00000000000E+00 0. -1.
<mgrwt>
<rscale>  1 0.30000000E+03</rscale>
<asrwt>0</asrwt>
<pdfrwt beam="1">  1       21 0.67527297E-01 0.30000000E+03</pdfrwt>
<pdfrwt beam="2">0</pdfrwt>
<totfact> 0.19181333E+02</totfact>
</mgrwt>
</event>
<event>
 6    1  0.6377696E-002  0.3000000E+03  0.7818608E-02  0.1093470E+00
         21   -1    0    0  501  502  0.00000000000E+00  0.00000000000E+00  0.22910962888E+01  0.22910962888E+01  0.00000000000E+00 0. -1.
         13   -1    0    0    0    0 -0.00000000000E+00 -0.00000000000E+00 -0.10000000000E+04  0.10000000000E+04  0.00000000000E+00 0.  1.
    9000005    2    1    2  501    0  0.74833488941E+01 -0.36606559802E+02 -0.18810290989E+03  0.19182338814E+03  0.41793294621E+01 0.  0.
         13    1    3    3    0    0  0.31756979717E+01 -0.12317152616E+02 -0.73885421123E+02  0.74972346640E+02  0.00000000000E+00 0.  1.
          1    1    3    3  501    0  0.43076509224E+01 -0.24289407186E+02 -0.11421748877E+03  0.11685104150E+03  0.00000000000E+00 0.  1.
         -1    1    1    2    0  502 -0.74833488941E+01  0.36606559802E+02 -0.80960599382E+03  0.81046770815E+03  0.00000000000E+00 0. -1.
<mgrwt>
<rscale>  1 0.30000000E+03</rscale>
<asrwt>0</asrwt>
<pdfrwt beam="1">  1       21 0.83312768E-02 0.30000000E+03</pdfrwt>
<pdfrwt beam="2">0</pdfrwt>
<totfact> 0.11894138E+04</totfact>
</mgrwt>
</event>
<event>
 6    1  0.6377696E-002  0.3000000E+03  0.7818608E-02  0.1093470E+00
         21   -1    0    0  501  502  0.00000000000E+00  0.00000000000E+00  0.11745912512E+01  0.11745912512E+01  0.00000000000E+00 0. -1.
         13   -1    0    0    0    0 -0.00000000000E+00 -0.00000000000E+00 -0.10000000000E+04  0.10000000000E+04  0.00000000000E+00 0.  1.
    9000005    2    1    2  501    0 -0.30192236696E+02 -0.15697013129E+02 -0.54792773404E+03  0.54899467082E+03  0.35184495681E+01 0.  0.
         13    1    3    3    0    0 -0.59602811407E+01 -0.21085583667E+01 -0.11947325334E+03  0.11964041639E+03  0.00000000000E+00 0.  1.
          1    1    3    3  501    0 -0.24231955555E+02 -0.13588454762E+02 -0.42845448070E+03  0.42935425444E+03  0.00000000000E+00 0.  1.
         -1    1    1    2    0  502  0.30192236696E+02  0.15697013129E+02 -0.45089767471E+03  0.45217992043E+03  0.00000000000E+00 0. -1.
<mgrwt>
<rscale>  1 0.30000000E+03</rscale>
<asrwt>0</asrwt>
<pdfrwt beam="1">  1       21 0.42712499E-02 0.30000000E+03</pdfrwt>
<pdfrwt beam="2">0</pdfrwt>
<totfact> 0.37641295E+04</totfact>
</mgrwt>
</event>
<event>
 6    1  0.6377696E-002  0.3000000E+03  0.7818608E-02  0.1093470E+00
         21   -1    0    0  501  502  0.00000000000E+00  0.00000000000E+00  0.20291324138E+01  0.20291324138E+01  0.00000000000E+00 0. -1.
         13   -1    0    0    0    0 -0.00000000000E+00 -0.00000000000E+00 -0.10000000000E+04  0.10000000000E+04  0.00000000000E+00 0.  1.
    9000005    2    1    2  501    0 -0.23262804494E+02  0.31967008632E+02 -0.26119747333E+03  0.26419576220E+03  0.34975674203E+01 0.  0.
         13    1    3    3    0    0 -0.25023661541E+01  0.50753778854E+01 -0.32556663803E+02  0.33044782569E+02  0.00000000000E+00 0.  1.
          1    1    3    3  501    0 -0.20760438340E+02  0.26891630746E+02 -0.22864080952E+03  0.23115097963E+03  0.00000000000E+00 0.  1.
         -1    1    1    2    0  502  0.23262804494E+02 -0.31967008632E+02 -0.73677339426E+03  0.73783337021E+03  0.00000000000E+00 0. -1.
<mgrwt>
<rscale>  1 0.30000000E+03</rscale>
<asrwt>0</asrwt>
<pdfrwt beam="1">  1       21 0.73786789E-02 0.30000000E+03</pdfrwt>
<pdfrwt beam="2">0</pdfrwt>
<totfact> 0.14718572E+04</totfact>
</mgrwt>
</event>
<event>
 6    1  0.6377696E-002  0.3000000E+03  0.7818608E-02  0.1093470E+00
         21   -1    0    0  501  502  0.00000000000E+00  0.00000000000E+00  0.13089418367E+01  0.13089418367E+01  0.00000000000E+00 0. -1.
         13   -1    0    0    0    0 -0.00000000000E+00 -0.00000000000E+00 -0.10000000000E+04  0.10000000000E+04  0.00000000000E+00 0.  1.
    9000005    2    1    2  501    0 -0.18302039200E+02 -0.27712838790E+02 -0.69626889980E+03  0.69706869476E+03  0.33790992814E+01 0.  0.
         13    1    3    3    0    0 -0.60584165586E+01 -0.85866026668E+01 -0.18938721662E+03  0.18967854906E+03  0.00000000000E+00 0.  1.
          3    1    3    3  501    0 -0.12243622641E+02 -0.19126236123E+02 -0.50688168318E+03  0.50739014569E+03  0.00000000000E+00 0.  1.
         -1    1    1    2    0  502  0.18302039200E+02  0.27712838790E+02 -0.30242215837E+03  0.30424024708E+03  0.00000000000E+00 0. -1.
<mgrwt>
<rscale>  1 0.30000000E+03</rscale>
<asrwt>0</asrwt>
<pdfrwt beam="1">  1       21 0.47597985E-02 0.30000000E+03</pdfrwt>
<pdfrwt beam="2">0</pdfrwt>
<totfact> 0.31323561E+04</totfact>
</mgrwt>
</event>
<event>
 6    1  0.6377696E-002  0.3000000E+03  0.7818608E-02  0.1093470E+00
         21   -1    0    0  501  502  0.00000000000E+00  0.00000000000E+00  0.13194912430E+01  0.13194912430E+01  0.00000000000E+00 0. -1.
         13   -1    0    0    0    0 -0.00000000000E+00 -0.00000000000E+00 -0.10000000000E+04  0.10000000000E+04  0.00000000000E+00 0.  1.
    9000005    2    1    2  501    0 -0.28557576686E+02  0.20886446005E+02 -0.39236161389E+03  0.39396919604E+03  0.35089256922E+01 0.  0.
         13    1    3    3    0    0 -0.76558042049E+01  0.38392249745E+01 -0.89376300553E+02  0.89785712042E+02  0.00000000000E+00 0.  1.
          1    1    3    3  501    0 -0.20901772481E+02  0.17047221030E+02 -0.30298531334E+03  0.30418348400E+03  0.00000000000E+00 0.  1.
         -3    1    1    2    0  502  0.28557576686E+02 -0.20886446005E+02 -0.60631889487E+03  0.60735029521E+03  0.00000000000E+00 0. -1.
<mgrwt>
<rscale>  1 0.30000000E+03</rscale>
<asrwt>0</asrwt>
<pdfrwt beam="1">  1       21 0.47981601E-02 0.30000000E+03</pdfrwt>
<pdfrwt beam="2">0</pdfrwt>
<totfact> 0.30898693E+04</totfact>
</mgrwt>
</event>
<event>
 6    1  0.6377696E-002  0.3000000E+03  0.7818608E-02  0.1093470E+00
         21   -1    0    0  501  502  0.00000000000E+00  0.00000000000E+00  0.19436993747E+01  0.19436993747E+01  0.00000000000E+00 0. -1.
         13   -1    0    0    0    0 -0.00000000000E+00 -0.00000000000E+00 -0.10000000000E+04  0.10000000000E+04  0.00000000000E+00 0.  1.
    9000005    2    1    2  501    0  0.27193921001E+02  0.29036527348E+02 -0.71401012167E+03  0.71512518352E+03  0.33083217729E+01 0.  0.
         13    1    3    3    0    0  0.17506564187E+02  0.16440154071E+02 -0.42066758968E+03  0.42135255958E+03  0.00000000000E+00 0.  1.
          3    1    3    3  501    0  0.96873568136E+01  0.12596373277E+02 -0.29334253199E+03  0.29377262394E+03  0.00000000000E+00 0.  1.
         -3    1    1    2    0  502 -0.27193921001E+02 -0.29036527348E+02 -0.28404617895E+03  0.28681851586E+03  0.00000000000E+00 0. -1.
<mgrwt>
<rscale>  1 0.30000000E+03</rscale>
<asrwt>0</asrwt>
<pdfrwt beam="1">  1       21 0.70680126E-02 0.30000000E+03</pdfrwt>
<pdfrwt beam="2">0</pdfrwt>
<totfact> 0.15865935E+04</totfact>
</mgrwt>
</event>
<event>
 6    1  0.6377696E-002  0.3000000E+03  0.7818608E-02  0.1093470E+00
         21   -1    0    0  501  502  0.00000000000E+00  0.00000000000E+00  0.13555443347E+01  0.13555443347E+01  0.00000000000E+00 0. -1.
         13   -1    0    0    0    0 -0.00000000000E+00 -0.00000000000E+00 -0.10000000000E+04  0.10000000000E+04  0.00000000000E+00 0.  1.
    9000005    2    1    2  501    0  0.15902495302E+02 -0.32082549541E+02 -0.39450950506E+03  0.39616035443E+03  0.48059855206E+01 0.  0.
         13    1    3    3    0    0  0.78516419522E+01 -0.11607685818E+02 -0.13845149366E+03  0.13915891185E+03  0.00000000000E+00 0.  1.
          3    1    3    3  501    0  0.80508533503E+01 -0.20474863723E+02 -0.25605801140E+03  0.25700144258E+03  0.00000000000E+00 0.  1.
         -1    1    1    2    0  502 -0.15902495302E+02  0.32082549541E+02 -0.60413495060E+03  0.60519518990E+03  0.00000000000E+00 0. -1.
<mgrwt>
<rscale>  1 0.30000000E+03</rscale>
<asrwt>0</asrwt>
<pdfrwt beam="1">  1       21 0.49292625E-02 0.30000000E+03</pdfrwt>
<pdfrwt beam="2">0</pdfrwt>
<totfact> 0.29512635E+04</totfact>
</mgrwt>
</event>
<event>
 6    1  0.6377696E-002  0.3000000E+03  0.7818608E-02  0.1093470E+00
         21   -1    0    0  501  502  0.00000000000E+00  0.00000000000E+00  0.95052098193E+00  0.95052098193E+00  0.00000000000E+00 0. -1.
         13   -1    0    0    0    0 -0.00000000000E+00 -0.00000000000E+00 -0.10000000000E+04  0.10000000000E+04  0.00000000000E+00 0.  1.
    9000005    2    1    2  501    0  0.10677266349E+02  0.28643808487E+02 -0.45351341773E+03  0.45455865981E+03  0.38318888716E+01 0.  0.
         13    1    3    3    0    0  0.81740889280E+01  0.20278539469E+02 -0.34685755589E+03  0.34754596671E+03  0.00000000000E+00 0.  1.
          1    1    3    3  501    0  0.25031774213E+01  0.83652690180E+01 -0.10665586183E+03  0.10701269311E+03  0.00000000000E+00 0.  1.
         -3    1    1    2    0  502 -0.10677266349E+02 -0.28643808487E+02 -0.54553606129E+03  0.54639186117E+03  0.00000000000E+00 0. -1.
<mgrwt>
<rscale>  1 0.30000000E+03</rscale>
<asrwt>0</asrwt>
<pdfrwt beam="1">  1       21 0.34564472E-02 0.30000000E+03</pdfrwt>
<pdfrwt beam="2">0</pdfrwt>
<totfact> 0.53731176E+04</totfact>
</mgrwt>
</event>
<event>
 6    1  0.6377696E-002  0.3000000E+03  0.7818608E-02  0.1093470E+00
         21   -1    0    0  501  502  0.00000000000E+00  0.00000000000E+00  0.11879643342E+01  0.11879643342E+01  0.00000000000E+00 0. -1.
         13   -1    0    0    0    0 -0.00000000000E+00 -0.00000000000E+00 -0.10000000000E+04  0.10000000000E+04  0.00000000000E+00 0.  1.
    9000005    2    1    2  501    0 -0.29272941762E+02  0.14269952862E+02 -0.66151273615E+03  0.66232021118E+03  0.29026495642E+01 0.  0.
         13    1    3    3    0    0 -0.10689325783E+02  0.61812236220E+01 -0.22844179966E+03  0.22877527192E+03  0.00000000000E+00 0.  1.
          3    1    3    3  501    0 -0.18583615980E+02  0.80887292398E+01 -0.43307093648E+03  0.43354493925E+03  0.00000000000E+00 0.  1.
         -3    1    1    2    0  502  0.29272941762E+02 -0.14269952862E+02 -0.33729929952E+03  0.33886775316E+03  0.00000000000E+00 0. -1.
<mgrwt>
<rscale>  1 0.30000000E+03</rscale>
<asrwt>0</asrwt>
<pdfrwt beam="1">  1       21 0.43198794E-02 0.30000000E+03</pdfrwt>
<pdfrwt beam="2">0</pdfrwt>
<totfact> 0.36927513E+04</totfact>
</mgrwt>
</event>
<event>
 6    1  0.6377696E-002  0.3000000E+03  0.7818608E-02  0.1093470E+00
         21   -1    0    0  501  502  0.00000000000E+00  0.00000000000E+00  0.14751406601E+01  0.14751406601E+01  0.00000000000E+00 0. -1.
         13   -1    0    0    0    0 -0.00000000000E+00 -0.00000000000E+00 -0.10000000000E+04  0.10000000000E+04  0.00000000000E+00 0.  1.
    9000005    2    1    2  501    0 -0.39050070685E+01  0.37728401719E+02 -0.57361315860E+03  0.57487388093E+03  0.30400462973E+01 0.  0.
         13    1    3    3    0    0 -0.25112678340E+01  0.32271315488E+02 -0.49859026490E+03  0.49963986683E+03  0.00000000000E+00 0.  1.
          1    1    3    3  501    0 -0.13937392345E+01  0.54570862306E+01 -0.75022893703E+02  0.75234014107E+02  0.00000000000E+00 0.  1.
         -3    1    1    2    0  502  0.39050070685E+01 -0.37728401719E+02 -0.42491170074E+03  0.42660125973E+03  0.00000000000E+00 0. -1.
<mgrwt>
<rscale>  1 0.30000000E+03</rscale>
<asrwt>0</asrwt>
<pdfrwt beam="1">  1       21 0.53641592E-02 0.30000000E+03</pdfrwt>
<pdfrwt beam="2">0</pdfrwt>
<totfact> 0.25545483E+04</totfact>
</mgrwt>
</event>
<event>
 6    1  0.6377696E-002  0.3000000E+03  0.7818608E-02  0.1093470E+00
         21   -1    0    0  501  502  0.00000000000E+00  0.00000000000E+00  0.11750700635E+01  0.11750700635E+01  0.00000000000E+00 0. -1.
         13   -1    0    0    0    0 -0.00000000000E+00 -0.00000000000E+00 -0.10000000000E+04  0.10000000000E+04  0.00000000000E+00 0.  1.
    9000005    2    1    2  501    0  0.31110447911E+02  0.12769746696E+02 -0.58898176799E+03  0.58995451635E+03  0.39852152362E+01 0.  0.
         13    1    3    3    0    0  0.27946810385E+02  0.12301415623E+02 -0.51592313206E+03  0.51682591579E+03  0.00000000000E+00 0.  1.
          1    1    3    3  501    0  0.31636375261E+01  0.46833107223E+00 -0.73058635929E+02  0.73128600562E+02  0.00000000000E+00 0.  1.
         -1    1    1    2    0  502 -0.31110447911E+02 -0.12769746696E+02 -0.40984316195E+03  0.41122055371E+03  0.00000000000E+00 0. -1.
<mgrwt>
<rscale>  1 0.30000000E+03</rscale>
<asrwt>0</asrwt>
<pdfrwt beam="1">  1       21 0.42729911E-02 0.30000000E+03</pdfrwt>
<pdfrwt beam="2">0</pdfrwt>
<totfact> 0.37615370E+04</totfact>
</mgrwt>
</event>
<event>
 6    1  0.6377696E-002  0.3000000E+03  0.7818608E-02  0.1093470E+00
         21   -1    0    0  501  502  0.00000000000E+00  0.00000000000E+00  0.46128779891E+01  0.46128779891E+01  0.00000000000E+00 0. -1.
         13   -1    0    0    0    0 -0.00000000000E+00 -0.00000000000E+00 -0.10000000000E+04  0.10000000000E+04  0.00000000000E+00 0.  1.
    9000005    2    1    2  501    0 -0.39003552172E+02 -0.54017963743E+02 -0.40239628335E+03  0.40789070459E+03  0.35833711870E+01 0.  0.
         13    1    3    3    0    0 -0.12548380086E+02 -0.14698754665E+02 -0.11916953346E+03  0.12072652126E+03  0.00000000000E+00 0.  1.
          3    1    3    3  501    0 -0.26455172086E+02 -0.39319209078E+02 -0.28322674989E+03  0.28716418333E+03  0.00000000000E+00 0.  1.
         -1    1    1    2    0  502  0.39003552172E+02  0.54017963743E+02 -0.59299083866E+03  0.59672217340E+03  0.00000000000E+00 0. -1.
<mgrwt>
<rscale>  1 0.30000000E+03</rscale>
<asrwt>0</asrwt>
<pdfrwt beam="1">  1       21 0.16774137E-01 0.30000000E+03</pdfrwt>
<pdfrwt beam="2">0</pdfrwt>
<totfact> 0.33442082E+03</totfact>
</mgrwt>
</event>
<event>
 6    1  0.6377696E-002  0.3000000E+03  0.7818608E-02  0.1093470E+00
         21   -1    0    0  501  502  0.00000000000E+00  0.00000000000E+00  0.13403025646E+01  0.13403025646E+01  0.00000000000E+00 0. -1.
         13   -1    0    0    0    0 -0.00000000000E+00 -0.00000000000E+00 -0.10000000000E+04  0.10000000000E+04  0.00000000000E+00 0.  1.
    9000005    2    1    2  501    0  0.74712900088E+01  0.33739795663E+02 -0.65712589176E+03  0.65806266798E+03  0.61516976450E+01 0.  0.
         13    1    3    3    0    0  0.85708979822E+01  0.29776795939E+02 -0.57789863354E+03  0.57872873483E+03  0.00000000000E+00 0.  1.
          3    1    3    3  501    0 -0.10996079734E+01  0.39629997240E+01 -0.79227258215E+02  0.79333933148E+02  0.00000000000E+00 0.  1.
         -1    1    1    2    0  502 -0.74712900088E+01 -0.33739795663E+02 -0.34153380568E+03  0.34327763458E+03  0.00000000000E+00 0. -1.
<mgrwt>
<rscale>  1 0.30000000E+03</rscale>
<asrwt>0</asrwt>
<pdfrwt beam="1">  1       21 0.48738378E-02 0.30000000E+03</pdfrwt>
<pdfrwt beam="2">0</pdfrwt>
<totfact> 0.30086512E+04</totfact>
</mgrwt>
</event>
<event>
 6    1  0.6377696E-002  0.3000000E+03  0.7818608E-02  0.1093470E+00
         21   -1    0    0  501  502  0.00000000000E+00  0.00000000000E+00  0.26424946728E+01  0.26424946728E+01  0.00000000000E+00 0. -1.
         13   -1    0    0    0    0 -0.00000000000E+00 -0.00000000000E+00 -0.10000000000E+04  0.10000000000E+04  0.00000000000E+00 0.  1.
    9000005    2    1    2  501    0 -0.38221175545E+02 -0.18350165176E+02 -0.21671586921E+03  0.22085035423E+03  0.33947272270E+01 0.  0.
         13    1    3    3    0    0 -0.31482323554E+02 -0.16488040710E+02 -0.18000608376E+03  0.18348074115E+03  0.00000000000E+00 0.  1.
          3    1    3    3  501    0 -0.67388519913E+01 -0.18621244667E+01 -0.36709785455E+02  0.37369613082E+02  0.00000000000E+00 0.  1.
         -3    1    1    2    0  502  0.38221175545E+02  0.18350165176E+02 -0.78064163611E+03  0.78179214044E+03  0.00000000000E+00 0. -1.
<mgrwt>
<rscale>  1 0.30000000E+03</rscale>
<asrwt>0</asrwt>
<pdfrwt beam="1">  1       21 0.96090918E-02 0.30000000E+03</pdfrwt>
<pdfrwt beam="2">0</pdfrwt>
<totfact> 0.92378077E+03</totfact>
</mgrwt>
</event>
<event>
 6    1  0.6377696E-002  0.3000000E+03  0.7818608E-02  0.1093470E+00
         21   -1    0    0  501  502  0.00000000000E+00  0.00000000000E+00  0.12833081688E+01  0.12833081688E+01  0.00000000000E+00 0. -1.
         13   -1    0    0    0    0 -0.00000000000E+00 -0.00000000000E+00 -0.10000000000E+04  0.10000000000E+04  0.00000000000E+00 0.  1.
    9000005    2    1    2  501    0 -0.26397272125E+02  0.23026722775E+02 -0.40105397340E+03  0.40259493269E+03  0.33681309145E+01 0.  0.
         13    1    3    3    0    0 -0.17360601497E+01  0.26147938343E+01 -0.30741498299E+02  0.30901306919E+02  0.00000000000E+00 0.  1.
          3    1    3    3  501    0 -0.24661211975E+02  0.20411928941E+02 -0.37031247510E+03  0.37169362577E+03  0.00000000000E+00 0.  1.
         -3    1    1    2    0  502  0.26397272125E+02 -0.23026722775E+02 -0.59766271843E+03  0.59868837548E+03  0.00000000000E+00 0. -1.
<mgrwt>
<rscale>  1 0.30000000E+03</rscale>
<asrwt>0</asrwt>
<pdfrwt beam="1">  1       21 0.46665850E-02 0.30000000E+03</pdfrwt>
<pdfrwt beam="2">0</pdfrwt>
<totfact> 0.32394893E+04</totfact>
</mgrwt>
</event>
<event>
 6    1  0.6377696E-002  0.3000000E+03  0.7818608E-02  0.1093470E+00
         21   -1    0    0  501  502  0.00000000000E+00  0.00000000000E+00  0.12189201514E+01  0.12189201514E+01  0.00000000000E+00 0. -1.
         13   -1    0    0    0    0 -0.00000000000E+00 -0.00000000000E+00 -0.10000000000E+04  0.10000000000E+04  0.00000000000E+00 0.  1.
    9000005    2    1    2  501    0  0.28128372004E+02  0.12836006230E+02 -0.73095214914E+03  0.73161123389E+03  0.28257480081E+01 0.  0.
         13    1    3    3    0    0  0.17178256898E+02  0.78809363507E+01 -0.41368351850E+03  0.41411502647E+03  0.00000000000E+00 0.  1.
          1    1    3    3  501    0  0.10950115106E+02  0.49550698789E+01 -0.31726863064E+03  0.31749620742E+03  0.00000000000E+00 0.  1.
         -1    1    1    2    0  502 -0.28128372004E+02 -0.12836006230E+02 -0.26782893071E+03  0.26960768626E+03  0.00000000000E+00 0. -1.
<mgrwt>
<rscale>  1 0.30000000E+03</rscale>
<asrwt>0</asrwt>
<pdfrwt beam="1">  1       21 0.44324463E-02 0.30000000E+03</pdfrwt>
<pdfrwt beam="2">0</pdfrwt>
<totfact> 0.35353532E+04</totfact>
</mgrwt>
</event>
<event>
 6    1  0.6377696E-002  0.3000000E+03  0.7818608E-02  0.1093470E+00
         21   -1    0    0  501  502  0.00000000000E+00  0.00000000000E+00  0.12347951738E+02  0.12347951738E+02  0.00000000000E+00 0. -1.
         13   -1    0    0    0    0 -0.00000000000E+00 -0.00000000000E+00 -0.10000000000E+04  0.10000000000E+04  0.00000000000E+00 0.  1.
    9000005    2    1    2  501    0 -0.69317802710E+02 -0.84762312057E+02 -0.57956502597E+03  0.58982620664E+03  0.31188770238E+01 0.  0.
         13    1    3    3    0    0 -0.31939263593E+02 -0.39004455344E+02 -0.27522149973E+03  0.27980053254E+03  0.00000000000E+00 0.  1.
          3    1    3    3  501    0 -0.37378539117E+02 -0.45757856713E+02 -0.30434352624E+03  0.31002567411E+03  0.00000000000E+00 0.  1.
         -1    1    1    2    0  502  0.69317802710E+02  0.84762312057E+02 -0.40808702229E+03  0.42252174510E+03  0.00000000000E+00 0. -1.
<mgrwt>
<rscale>  1 0.30000000E+03</rscale>
<asrwt>0</asrwt>
<pdfrwt beam="1">  1       21 0.44901737E-01 0.30000000E+03</pdfrwt>
<pdfrwt beam="2">0</pdfrwt>
<totfact> 0.47328944E+02</totfact>
</mgrwt>
</event>
<event>
 6    1  0.6377696E-002  0.3000000E+03  0.7818608E-02  0.1093470E+00
         21   -1    0    0  501  502  0.00000000000E+00  0.00000000000E+00  0.14578001581E+01  0.14578001581E+01  0.00000000000E+00 0. -1.
         13   -1    0    0    0    0 -0.00000000000E+00 -0.00000000000E+00 -0.10000000000E+04  0.10000000000E+04  0.00000000000E+00 0.  1.
    9000005    2    1    2  501    0  0.32143892876E+02 -0.11499938739E+02 -0.72207619758E+03  0.72289195722E+03  0.36425642331E+01 0.  0.
         13    1    3    3    0    0  0.19618967685E+02 -0.61020168763E+01 -0.46623114600E+03  0.46668364017E+03  0.00000000000E+00 0.  1.
          1    1    3    3  501    0  0.12524925191E+02 -0.53979218631E+01 -0.25584505157E+03  0.25620831705E+03  0.00000000000E+00 0.  1.
         -3    1    1    2    0  502 -0.32143892876E+02  0.11499938739E+02 -0.27646600227E+03  0.27856584293E+03  0.00000000000E+00 0. -1.
<mgrwt>
<rscale>  1 0.30000000E+03</rscale>
<asrwt>0</asrwt>
<pdfrwt beam="1">  1       21 0.53011027E-02 0.30000000E+03</pdfrwt>
<pdfrwt beam="2">0</pdfrwt>
<totfact> 0.26067588E+04</totfact>
</mgrwt>
</event>
<event>
 6    1  0.6377696E-002  0.3000000E+03  0.7818608E-02  0.1093470E+00
         21   -1    0    0  501  502  0.00000000000E+00  0.00000000000E+00  0.18046851456E+01  0.18046851456E+01  0.00000000000E+00 0. -1.
         13   -1    0    0    0    0 -0.00000000000E+00 -0.00000000000E+00 -0.10000000000E+04  0.10000000000E+04  0.00000000000E+00 0.  1.
    9000005    2    1    2  501    0  0.39554188728E+02 -0.33552772677E+01 -0.67553799553E+03  0.67671464001E+03  0.39152101212E+01 0.  0.
         13    1    3    3    0    0  0.18444011667E+02 -0.14558441857E+01 -0.28198207827E+03  0.28258838177E+03  0.00000000000E+00 0.  1.
          1    1    3    3  501    0  0.21110177061E+02 -0.18994330820E+01 -0.39355591726E+03  0.39412625824E+03  0.00000000000E+00 0.  1.
         -1    1    1    2    0  502 -0.39554188728E+02  0.33552772677E+01 -0.32265731932E+03  0.32509004513E+03  0.00000000000E+00 0. -1.
<mgrwt>
<rscale>  1 0.30000000E+03</rscale>
<asrwt>0</asrwt>
<pdfrwt beam="1">  1       21 0.65625053E-02 0.30000000E+03</pdfrwt>
<pdfrwt beam="2">0</pdfrwt>
<totfact> 0.18048407E+04</totfact>
</mgrwt>
</event>
<event>
 6    1  0.6377696E-002  0.3000000E+03  0.7818608E-02  0.1093470E+00
         21   -1    0    0  501  502  0.00000000000E+00  0.00000000000E+00  0.22677456657E+01  0.22677456657E+01  0.00000000000E+00 0. -1.
         13   -1    0    0    0    0 -0.00000000000E+00 -0.00000000000E+00 -0.10000000000E+04  0.10000000000E+04  0.00000000000E+00 0.  1.
    9000005    2    1    2  501    0  0.16078270194E+02 -0.33000626437E+02 -0.81744740350E+03  0.81828356276E+03  0.44921579629E+01 0.  0.
         13    1    3    3    0    0  0.12198299019E+02 -0.26737038014E+02 -0.61425501630E+03  0.61495763492E+03  0.00000000000E+00 0.  1.
          3    1    3    3  501    0  0.38799711750E+01 -0.62635884235E+01 -0.20319238720E+03  0.20332592784E+03  0.00000000000E+00 0.  1.
         -1    1    1    2    0  502 -0.16078270194E+02  0.33000626437E+02 -0.18028485083E+03  0.18398418290E+03  0.00000000000E+00 0. -1.
<mgrwt>
<rscale>  1 0.30000000E+03</rscale>
<asrwt>0</asrwt>
<pdfrwt beam="1">  1       21 0.82463653E-02 0.30000000E+03</pdfrwt>
<pdfrwt beam="2">0</pdfrwt>
<totfact> 0.12110567E+04</totfact>
</mgrwt>
</event>
<event>
 6    1  0.6377696E-002  0.3000000E+03  0.7818608E-02  0.1093470E+00
         21   -1    0    0  501  502  0.00000000000E+00  0.00000000000E+00  0.12405324894E+01  0.12405324894E+01  0.00000000000E+00 0. -1.
         13   -1    0    0    0    0 -0.00000000000E+00 -0.00000000000E+00 -0.10000000000E+04  0.10000000000E+04  0.00000000000E+00 0.  1.
    9000005    2    1    2  501    0  0.15376956184E+02 -0.30913936904E+02 -0.59155142125E+03  0.59257133226E+03  0.39468414875E+01 0.  0.
         13    1    3    3    0    0  0.26427082104E+01 -0.79028274221E+01 -0.12238606961E+03  0.12266942823E+03  0.00000000000E+00 0.  1.
          1    1    3    3  501    0  0.12734247974E+02 -0.23011109482E+02 -0.46916535164E+03  0.46990190403E+03  0.00000000000E+00 0.  1.
         -1    1    1    2    0  502 -0.15376956184E+02  0.30913936904E+02 -0.40720804626E+03  0.40866920023E+03  0.00000000000E+00 0. -1.
<mgrwt>
<rscale>  1 0.30000000E+03</rscale>
<asrwt>0</asrwt>
<pdfrwt beam="1">  1       21 0.45110367E-02 0.30000000E+03</pdfrwt>
<pdfrwt beam="2">0</pdfrwt>
<totfact> 0.34315238E+04</totfact>
</mgrwt>
</event>
<event>
 6    1  0.6377696E-002  0.3000000E+03  0.7818608E-02  0.1093470E+00
         21   -1    0    0  501  502  0.00000000000E+00  0.00000000000E+00  0.25077367378E+01  0.25077367378E+01  0.00000000000E+00 0. -1.
         13   -1    0    0    0    0 -0.00000000000E+00 -0.00000000000E+00 -0.10000000000E+04  0.10000000000E+04  0.00000000000E+00 0.  1.
    9000005    2    1    2  501    0  0.17216113549E+02  0.41721455700E+02 -0.29854799311E+03  0.30210773159E+03  0.10054992065E+02 0.  0.
         13    1    3    3    0    0  0.13962393637E+02  0.36195280695E+02 -0.22881515333E+03  0.23208063507E+03  0.00000000000E+00 0.  1.
          3    1    3    3  501    0  0.32537199113E+01  0.55261750045E+01 -0.69732839781E+02  0.70027096522E+02  0.00000000000E+00 0.  1.
         -1    1    1    2    0  502 -0.17216113549E+02 -0.41721455700E+02 -0.69894427015E+03  0.70040000515E+03  0.00000000000E+00 0. -1.
<mgrwt>
<rscale>  1 0.30000000E+03</rscale>
<asrwt>0</asrwt>
<pdfrwt beam="1">  1       21 0.91190619E-02 0.30000000E+03</pdfrwt>
<pdfrwt beam="2">0</pdfrwt>
<totfact> 0.10139096E+04</totfact>
</mgrwt>
</event>
<event>
 6    1  0.6377696E-002  0.3000000E+03  0.7818608E-02  0.1093470E+00
         21   -1    0    0  501  502  0.00000000000E+00  0.00000000000E+00  0.10577024946E+01  0.10577024946E+01  0.00000000000E+00 0. -1.
         13   -1    0    0    0    0 -0.00000000000E+00 -0.00000000000E+00 -0.10000000000E+04  0.10000000000E+04  0.00000000000E+00 0.  1.
    9000005    2    1    2  501    0  0.21570923868E+02 -0.22970072539E+02 -0.38170545013E+03  0.38301704465E+03  0.31744048112E+01 0.  0.
         13    1    3    3    0    0  0.60714184552E+01 -0.65165555465E+01 -0.91420759250E+02  0.91853594595E+02  0.00000000000E+00 0.  1.
          1    1    3    3  501    0  0.15499505413E+02 -0.16453516992E+02 -0.29028469088E+03  0.29116345006E+03  0.00000000000E+00 0.  1.
         -3    1    1    2    0  502 -0.21570923868E+02  0.22970072539E+02 -0.61723684738E+03  0.61804065784E+03  0.00000000000E+00 0. -1.
<mgrwt>
<rscale>  1 0.30000000E+03</rscale>
<asrwt>0</asrwt>
<pdfrwt beam="1">  1       21 0.38461990E-02 0.30000000E+03</pdfrwt>
<pdfrwt beam="2">0</pdfrwt>
<totfact> 0.44914614E+04</totfact>
</mgrwt>
</event>
<event>
 6    1  0.6377696E-002  0.3000000E+03  0.7818608E-02  0.1093470E+00
         21   -1    0    0  501  502  0.00000000000E+00  0.00000000000E+00  0.23577343433E+01  0.23577343433E+01  0.00000000000E+00 0. -1.
         13   -1    0    0    0    0 -0.00000000000E+00 -0.00000000000E+00 -0.10000000000E+04  0.10000000000E+04  0.00000000000E+00 0.  1.
    9000005    2    1    2  501    0  0.93207829070E+01 -0.47532851878E+02 -0.50786969834E+03  0.51019575217E+03  0.46718345121E+01 0.  0.
         13    1    3    3    0    0  0.32326211049E+01 -0.23819016382E+02 -0.23210215865E+03  0.23334353951E+03  0.00000000000E+00 0.  1.
          3    1    3    3  501    0  0.60881618021E+01 -0.23713835496E+02 -0.27576753969E+03  0.27685221266E+03  0.00000000000E+00 0.  1.
         -3    1    1    2    0  502 -0.93207829070E+01  0.47532851878E+02 -0.48977256732E+03  0.49216198217E+03  0.00000000000E+00 0. -1.
<mgrwt>
<rscale>  1 0.30000000E+03</rscale>
<asrwt>0</asrwt>
<pdfrwt beam="1">  1       21 0.85735975E-02 0.30000000E+03</pdfrwt>
<pdfrwt beam="2">0</pdfrwt>
<totfact> 0.11307983E+04</totfact>
</mgrwt>
</event>
<event>
 6    1  0.6377696E-002  0.3000000E+03  0.7818608E-02  0.1093470E+00
         21   -1    0    0  501  502  0.00000000000E+00  0.00000000000E+00  0.11670870501E+01  0.11670870501E+01  0.00000000000E+00 0. -1.
         13   -1    0    0    0    0 -0.00000000000E+00 -0.00000000000E+00 -0.10000000000E+04  0.10000000000E+04  0.00000000000E+00 0.  1.
    9000005    2    1    2  501    0  0.26124198976E+02 -0.21811583700E+02 -0.47885672353E+03  0.48007836474E+03  0.36408330712E+01 0.  0.
         13    1    3    3    0    0  0.84846434689E+01 -0.53912700150E+01 -0.15584572899E+03  0.15616960720E+03  0.00000000000E+00 0.  1.
          3    1    3    3  501    0  0.17639555507E+02 -0.16420313685E+02 -0.32301099454E+03  0.32390875754E+03  0.00000000000E+00 0.  1.
         -3    1    1    2    0  502 -0.26124198976E+02  0.21811583700E+02 -0.51997618942E+03  0.52108872231E+03  0.00000000000E+00 0. -1.
<mgrwt>
<rscale>  1 0.30000000E+03</rscale>
<asrwt>0</asrwt>
<pdfrwt beam="1">  1       21 0.42439619E-02 0.30000000E+03</pdfrwt>
<pdfrwt beam="2">0</pdfrwt>
<totfact> 0.38051253E+04</totfact>
</mgrwt>
</event>
<event>
 6    1  0.6377696E-002  0.3000000E+03  0.7818608E-02  0.1093470E+00
         21   -1    0    0  501  502  0.00000000000E+00  0.00000000000E+00  0.74586013039E+01  0.74586013039E+01  0.00000000000E+00 0. -1.
         13   -1    0    0    0    0 -0.00000000000E+00 -0.00000000000E+00 -0.10000000000E+04  0.10000000000E+04  0.00000000000E+00 0.  1.
    9000005    2    1    2  501    0 -0.84245254703E+02  0.11928925847E+02 -0.58166017102E+03  0.58786004855E+03  0.33645095911E+01 0.  0.
         13    1    3    3    0    0 -0.63539069897E+02  0.75929242787E+01 -0.43419221733E+03  0.43888238458E+03  0.00000000000E+00 0.  1.
          1    1    3    3  501    0 -0.20706184806E+02  0.43360015687E+01 -0.14746795369E+03  0.14897766398E+03  0.00000000000E+00 0.  1.
         -1    1    1    2    0  502  0.84245254703E+02 -0.11928925847E+02 -0.41088122768E+03  0.41959855275E+03  0.00000000000E+00 0. -1.
<mgrwt>
<rscale>  1 0.30000000E+03</rscale>
<asrwt>0</asrwt>
<pdfrwt beam="1">  1       21 0.27122244E-01 0.30000000E+03</pdfrwt>
<pdfrwt beam="2">0</pdfrwt>
<totfact> 0.13285684E+03</totfact>
</mgrwt>
</event>
<event>
 6    1  0.6377696E-002  0.3000000E+03  0.7818608E-02  0.1093470E+00
         21   -1    0    0  501  502  0.00000000000E+00  0.00000000000E+00  0.11906221852E+01  0.11906221852E+01  0.00000000000E+00 0. -1.
         13   -1    0    0    0    0 -0.00000000000E+00 -0.00000000000E+00 -0.10000000000E+04  0.10000000000E+04  0.00000000000E+00 0.  1.
    9000005    2    1    2  501    0  0.12160291229E+02  0.30253271662E+02 -0.65555318894E+03  0.65638931081E+03  0.58146951572E+01 0.  0.
         13    1    3    3    0    0  0.39098354209E+01  0.15714887583E+02 -0.28575575075E+03  0.28621424422E+03  0.00000000000E+00 0.  1.
          3    1    3    3  501    0  0.82504558081E+01  0.14538384079E+02 -0.36979743819E+03  0.37017506659E+03  0.00000000000E+00 0.  1.
         -1    1    1    2    0  502 -0.12160291229E+02 -0.30253271662E+02 -0.34325618887E+03  0.34480131138E+03  0.00000000000E+00 0. -1.
<mgrwt>
<rscale>  1 0.30000000E+03</rscale>
<asrwt>0</asrwt>
<pdfrwt beam="1">  1       21 0.43295443E-02 0.30000000E+03</pdfrwt>
<pdfrwt beam="2">0</pdfrwt>
<totfact> 0.36788153E+04</totfact>
</mgrwt>
</event>
<event>
 6    1  0.6377696E-002  0.3000000E+03  0.7818608E-02  0.1093470E+00
         21   -1    0    0  501  502  0.00000000000E+00  0.00000000000E+00  0.62160230974E+01  0.62160230974E+01  0.00000000000E+00 0. -1.
         13   -1    0    0    0    0 -0.00000000000E+00 -0.00000000000E+00 -0.10000000000E+04  0.10000000000E+04  0.00000000000E+00 0.  1.
    9000005    2    1    2  501    0 -0.19906415862E+02 -0.69035426251E+02 -0.70376877272E+03  0.70743353679E+03  0.30932251112E+01 0.  0.
         13    1    3    3    0    0 -0.40419600210E+01 -0.10730377028E+02 -0.11902310785E+03  0.11957415538E+03  0.00000000000E+00 0.  1.
          1    1    3    3  501    0 -0.15864455841E+02 -0.58305049223E+02 -0.58474566487E+03  0.58785938140E+03  0.00000000000E+00 0.  1.
         -3    1    1    2    0  502  0.19906415862E+02  0.69035426251E+02 -0.29001520418E+03  0.29878248631E+03  0.00000000000E+00 0. -1.
<mgrwt>
<rscale>  1 0.30000000E+03</rscale>
<asrwt>0</asrwt>
<pdfrwt beam="1">  1       21 0.22603768E-01 0.30000000E+03</pdfrwt>
<pdfrwt beam="2">0</pdfrwt>
<totfact> 0.18969371E+03</totfact>
</mgrwt>
</event>
<event>
 6    1  0.6377696E-002  0.3000000E+03  0.7818608E-02  0.1093470E+00
         21   -1    0    0  501  502  0.00000000000E+00  0.00000000000E+00  0.31882774166E+01  0.31882774166E+01  0.00000000000E+00 0. -1.
         13   -1    0    0    0    0 -0.00000000000E+00 -0.00000000000E+00 -0.10000000000E+04  0.10000000000E+04  0.00000000000E+00 0.  1.
    9000005    2    1    2  501    0 -0.45023912829E+02 -0.22393290708E+02 -0.72576011990E+03  0.72751168517E+03  0.41095288432E+01 0.  0.
         13    1    3    3    0    0 -0.39139201651E+02 -0.18190654019E+02 -0.63360749274E+03  0.63507576860E+03  0.00000000000E+00 0.  1.
          1    1    3    3  501    0 -0.58847111776E+01 -0.42026366885E+01 -0.92152627161E+02  0.92435916578E+02  0.00000000000E+00 0.  1.
         -3    1    1    2    0  502  0.45023912829E+02  0.22393290708E+02 -0.27105160268E+03  0.27567659224E+03  0.00000000000E+00 0. -1.
<mgrwt>
<rscale>  1 0.30000000E+03</rscale>
<asrwt>0</asrwt>
<pdfrwt beam="1">  1       21 0.11593761E-01 0.30000000E+03</pdfrwt>
<pdfrwt beam="2">0</pdfrwt>
<totfact> 0.65960397E+03</totfact>
</mgrwt>
</event>
<event>
 6    1  0.6377696E-002  0.3000000E+03  0.7818608E-02  0.1093470E+00
         21   -1    0    0  501  502  0.00000000000E+00  0.00000000000E+00  0.49793329472E+01  0.49793329472E+01  0.00000000000E+00 0. -1.
         13   -1    0    0    0    0 -0.00000000000E+00 -0.00000000000E+00 -0.10000000000E+04  0.10000000000E+04  0.00000000000E+00 0.  1.
    9000005    2    1    2  501    0  0.50296789747E+02 -0.29179144931E+02 -0.78200869383E+03  0.78417333146E+03  0.30044941353E+01 0.  0.
         13    1    3    3    0    0  0.46690363668E+02 -0.26146606970E+02 -0.71973368786E+03  0.72172031741E+03  0.00000000000E+00 0.  1.
          1    1    3    3  501    0  0.36064260798E+01 -0.30325379612E+01 -0.62275005968E+02  0.62453014049E+02  0.00000000000E+00 0.  1.
         -3    1    1    2    0  502 -0.50296789747E+02  0.29179144931E+02 -0.21301197322E+03  0.22080600149E+03  0.00000000000E+00 0. -1.
<mgrwt>
<rscale>  1 0.30000000E+03</rscale>
<asrwt>0</asrwt>
<pdfrwt beam="1">  1       21 0.18106703E-01 0.30000000E+03</pdfrwt>
<pdfrwt beam="2">0</pdfrwt>
<totfact> 0.28971114E+03</totfact>
</mgrwt>
</event>
<event>
 6    1  0.6377696E-002  0.3000000E+03  0.7818608E-02  0.1093470E+00
         21   -1    0    0  501  502  0.00000000000E+00  0.00000000000E+00  0.94041512888E+00  0.94041512888E+00  0.00000000000E+00 0. -1.
         13   -1    0    0    0    0 -0.00000000000E+00 -0.00000000000E+00 -0.10000000000E+04  0.10000000000E+04  0.00000000000E+00 0.  1.
    9000005    2    1    2  501    0  0.12147558907E+02 -0.28024487610E+02 -0.52752568413E+03  0.52841829433E+03  0.31002057862E+01 0.  0.
         13    1    3    3    0    0  0.66273823607E+01 -0.18608035772E+02 -0.35128553694E+03  0.35184046052E+03  0.00000000000E+00 0.  1.
          1    1    3    3  501    0  0.55201765467E+01 -0.94164518373E+01 -0.17624014718E+03  0.17657783381E+03  0.00000000000E+00 0.  1.
         -3    1    1    2    0  502 -0.12147558907E+02  0.28024487610E+02 -0.47153390074E+03  0.47252212080E+03  0.00000000000E+00 0. -1.
<mgrwt>
<rscale>  1 0.30000000E+03</rscale>
<asrwt>0</asrwt>
<pdfrwt beam="1">  1       21 0.34196986E-02 0.30000000E+03</pdfrwt>
<pdfrwt beam="2">0</pdfrwt>
<totfact> 0.54700286E+04</totfact>
</mgrwt>
</event>
<event>
 6    1  0.6377696E-002  0.3000000E+03  0.7818608E-02  0.1093470E+00
         21   -1    0    0  501  502  0.00000000000E+00  0.00000000000E+00  0.21273536396E+01  0.21273536396E+01  0.00000000000E+00 0. -1.
         13   -1    0    0    0    0 -0.00000000000E+00 -0.00000000000E+00 -0.10000000000E+04  0.10000000000E+04  0.00000000000E+00 0.  1.
    9000005    2    1    2  501    0 -0.29693742411E+02 -0.34205640990E+02 -0.58904223633E+03  0.59079531212E+03  0.40743625444E+01 0.  0.
         13    1    3    3    0    0 -0.29701216070E+02 -0.34276946216E+02 -0.58875045527E+03  0.59049485168E+03  0.00000000000E+00 0.  1.
          1    1    3    3  501    0  0.74736599480E-02  0.71305225913E-01 -0.29178105502E+00  0.30046043817E+00  0.00000000000E+00 0.  1.
         -1    1    1    2    0  502  0.29693742411E+02  0.34205640990E+02 -0.40883041003E+03  0.41133204152E+03  0.00000000000E+00 0. -1.
<mgrwt>
<rscale>  1 0.30000000E+03</rscale>
<asrwt>0</asrwt>
<pdfrwt beam="1">  1       21 0.77358477E-02 0.30000000E+03</pdfrwt>
<pdfrwt beam="2">0</pdfrwt>
<totfact> 0.13549148E+04</totfact>
</mgrwt>
</event>
<event>
 6    1  0.6377696E-002  0.3000000E+03  0.7818608E-02  0.1093470E+00
         21   -1    0    0  501  502  0.00000000000E+00  0.00000000000E+00  0.18739170494E+01  0.18739170494E+01  0.00000000000E+00 0. -1.
         13   -1    0    0    0    0 -0.00000000000E+00 -0.00000000000E+00 -0.10000000000E+04  0.10000000000E+04  0.00000000000E+00 0.  1.
    9000005    2    1    2  501    0  0.67719031888E+01  0.37863153273E+02 -0.27121240285E+03  0.27394330541E+03  0.30479614619E+01 0.  0.
         13    1    3    3    0    0  0.49807757846E+01  0.22330520541E+02 -0.15293375634E+03  0.15463568186E+03  0.00000000000E+00 0.  1.
          3    1    3    3  501    0  0.17911274042E+01  0.15532632732E+02 -0.11827864651E+03  0.11930762355E+03  0.00000000000E+00 0.  1.
         -3    1    1    2    0  502 -0.67719031888E+01 -0.37863153273E+02 -0.72691368010E+03  0.72793061164E+03  0.00000000000E+00 0. -1.
<mgrwt>
<rscale>  1 0.30000000E+03</rscale>
<asrwt>0</asrwt>
<pdfrwt beam="1">  1       21 0.68142582E-02 0.30000000E+03</pdfrwt>
<pdfrwt beam="2">0</pdfrwt>
<totfact> 0.16907582E+04</totfact>
</mgrwt>
</event>
<event>
 6    1  0.6377696E-002  0.3000000E+03  0.7818608E-02  0.1093470E+00
         21   -1    0    0  501  502  0.00000000000E+00  0.00000000000E+00  0.58957950618E+01  0.58957950618E+01  0.00000000000E+00 0. -1.
         13   -1    0    0    0    0 -0.00000000000E+00 -0.00000000000E+00 -0.10000000000E+04  0.10000000000E+04  0.00000000000E+00 0.  1.
    9000005    2    1    2  501    0  0.20608853780E+02 -0.54137662054E+02 -0.82706816842E+03  0.82910029511E+03  0.31516399543E+01 0.  0.
         13    1    3    3    0    0  0.90565502825E+01 -0.21192279015E+02 -0.31138556364E+03  0.31223725440E+03  0.00000000000E+00 0.  1.
          3    1    3    3  501    0  0.11552303497E+02 -0.32945383039E+02 -0.51568260478E+03  0.51686304071E+03  0.00000000000E+00 0.  1.
         -3    1    1    2    0  502 -0.20608853780E+02  0.54137662054E+02 -0.16703603652E+03  0.17679549995E+03  0.00000000000E+00 0. -1.
<mgrwt>
<rscale>  1 0.30000000E+03</rscale>
<asrwt>0</asrwt>
<pdfrwt beam="1">  1       21 0.21439300E-01 0.30000000E+03</pdfrwt>
<pdfrwt beam="2">0</pdfrwt>
<totfact> 0.21003136E+03</totfact>
</mgrwt>
</event>
<event>
 6    1  0.6377696E-002  0.3000000E+03  0.7818608E-02  0.1093470E+00
         21   -1    0    0  501  502  0.00000000000E+00  0.00000000000E+00  0.19175465743E+01  0.19175465743E+01  0.00000000000E+00 0. -1.
         13   -1    0    0    0    0 -0.00000000000E+00 -0.00000000000E+00 -0.10000000000E+04  0.10000000000E+04  0.00000000000E+00 0.  1.
    9000005    2    1    2  501    0  0.34959454770E+02  0.26124387499E+02 -0.53384312235E+03  0.53563136448E+03  0.27986117744E+01 0.  0.
         13    1    3    3    0    0  0.15601706531E+02  0.11375021325E+02 -0.21949571490E+03  0.22034330763E+03  0.00000000000E+00 0.  1.
          1    1    3    3  501    0  0.19357748240E+02  0.14749366173E+02 -0.31434740745E+03  0.31528805685E+03  0.00000000000E+00 0.  1.
         -1    1    1    2    0  502 -0.34959454770E+02 -0.26124387499E+02 -0.46423933107E+03  0.46628618210E+03  0.00000000000E+00 0. -1.
<mgrwt>
<rscale>  1 0.30000000E+03</rscale>
<asrwt>0</asrwt>
<pdfrwt beam="1">  1       21 0.69729113E-02 0.30000000E+03</pdfrwt>
<pdfrwt beam="2">0</pdfrwt>
<totfact> 0.16244516E+04</totfact>
</mgrwt>
</event>
<event>
 6    1  0.6377696E-002  0.3000000E+03  0.7818608E-02  0.1093470E+00
         21   -1    0    0  501  502  0.00000000000E+00  0.00000000000E+00  0.19968544559E+01  0.19968544559E+01  0.00000000000E+00 0. -1.
         13   -1    0    0    0    0 -0.00000000000E+00 -0.00000000000E+00 -0.10000000000E+04  0.10000000000E+04  0.00000000000E+00 0.  1.
    9000005    2    1    2  501    0  0.30890560949E+02  0.32186900844E+02 -0.48306405766E+03  0.48512889494E+03  0.29895756343E+01 0.  0.
         13    1    3    3    0    0  0.41334398573E+01  0.52355739848E+01 -0.81881650500E+02  0.82152913816E+02  0.00000000000E+00 0.  1.
          1    1    3    3  501    0  0.26757121092E+02  0.26951326859E+02 -0.40118240716E+03  0.40297598113E+03  0.00000000000E+00 0.  1.
         -1    1    1    2    0  502 -0.30890560949E+02 -0.32186900844E+02 -0.51493908788E+03  0.51686795951E+03  0.00000000000E+00 0. -1.
<mgrwt>
<rscale>  1 0.30000000E+03</rscale>
<asrwt>0</asrwt>
<pdfrwt beam="1">  1       21 0.72613042E-02 0.30000000E+03</pdfrwt>
<pdfrwt beam="2">0</pdfrwt>
<totfact> 0.15136775E+04</totfact>
</mgrwt>
</event>
<event>
 6    1  0.6377696E-002  0.3000000E+03  0.7818608E-02  0.1093470E+00
         21   -1    0    0  501  502  0.00000000000E+00  0.00000000000E+00  0.32333755470E+01  0.32333755470E+01  0.00000000000E+00 0. -1.
         13   -1    0    0    0    0 -0.00000000000E+00 -0.00000000000E+00 -0.10000000000E+04  0.10000000000E+04  0.00000000000E+00 0.  1.
    9000005    2    1    2  501    0  0.36186377541E+02  0.43151448564E+02 -0.43375377730E+03  0.43741099398E+03  0.38127276597E+01 0.  0.
         13    1    3    3    0    0  0.26867744349E+02  0.33677537920E+02 -0.32167218228E+03  0.32454436538E+03  0.00000000000E+00 0.  1.
          3    1    3    3  501    0  0.93186331918E+01  0.94739106432E+01 -0.11208159503E+03  0.11286662860E+03  0.00000000000E+00 0.  1.
         -3    1    1    2    0  502 -0.36186377541E+02 -0.43151448564E+02 -0.56301284715E+03  0.56582238157E+03  0.00000000000E+00 0. -1.
<mgrwt>
<rscale>  1 0.30000000E+03</rscale>
<asrwt>0</asrwt>
<pdfrwt beam="1">  1       21 0.11757754E-01 0.30000000E+03</pdfrwt>
<pdfrwt beam="2">0</pdfrwt>
<totfact> 0.64305156E+03</totfact>
</mgrwt>
</event>
<event>
 6    1  0.6377696E-002  0.3000000E+03  0.7818608E-02  0.1093470E+00
         21   -1    0    0  501  502  0.00000000000E+00  0.00000000000E+00  0.31302042302E+01  0.31302042302E+01  0.00000000000E+00 0. -1.
         13   -1    0    0    0    0 -0.00000000000E+00 -0.00000000000E+00 -0.10000000000E+04  0.10000000000E+04  0.00000000000E+00 0.  1.
    9000005    2    1    2  501    0  0.60710867393E+01 -0.54633017249E+02 -0.58996501779E+03  0.59252927509E+03  0.32549892516E+01 0.  0.
         13    1    3    3    0    0  0.54244944760E+01 -0.49327259500E+02 -0.52137942061E+03  0.52373571952E+03  0.00000000000E+00 0.  1.
          3    1    3    3  501    0  0.64659226329E+00 -0.53057577482E+01 -0.68585597188E+02  0.68793555574E+02  0.00000000000E+00 0.  1.
         -3    1    1    2    0  502 -0.60710867393E+01  0.54633017249E+02 -0.40690477798E+03  0.41060092914E+03  0.00000000000E+00 0. -1.
<mgrwt>
<rscale>  1 0.30000000E+03</rscale>
<asrwt>0</asrwt>
<pdfrwt beam="1">  1       21 0.11382585E-01 0.30000000E+03</pdfrwt>
<pdfrwt beam="2">0</pdfrwt>
<totfact> 0.68187451E+03</totfact>
</mgrwt>
</event>
<event>
 6    1  0.6377696E-002  0.3000000E+03  0.7818608E-02  0.1093470E+00
         21   -1    0    0  501  502  0.00000000000E+00  0.00000000000E+00  0.27726315765E+01  0.27726315765E+01  0.00000000000E+00 0. -1.
         13   -1    0    0    0    0 -0.00000000000E+00 -0.00000000000E+00 -0.10000000000E+04  0.10000000000E+04  0.00000000000E+00 0.  1.
    9000005    2    1    2  501    0 -0.21186327350E+02  0.29057673108E+02 -0.13346051821E+03  0.13825751872E+03  0.31973001299E+01 0.  0.
         13    1    3    3    0    0 -0.19045710152E+02  0.25936246392E+02 -0.11524863835E+03  0.11965649416E+03  0.00000000000E+00 0.  1.
          1    1    3    3  501    0 -0.21406171979E+01  0.31214267164E+01 -0.18211879857E+02  0.18601024560E+02  0.00000000000E+00 0.  1.
         -3    1    1    2    0  502  0.21186327350E+02 -0.29057673108E+02 -0.86376685022E+03  0.86451511286E+03  0.00000000000E+00 0. -1.
<mgrwt>
<rscale>  1 0.30000000E+03</rscale>
<asrwt>0</asrwt>
<pdfrwt beam="1">  1       21 0.10082318E-01 0.30000000E+03</pdfrwt>
<pdfrwt beam="2">0</pdfrwt>
<totfact> 0.84780604E+03</totfact>
</mgrwt>
</event>
<event>
 6    1  0.6377696E-002  0.3000000E+03  0.7818608E-02  0.1093470E+00
         21   -1    0    0  501  502  0.00000000000E+00  0.00000000000E+00  0.19012100188E+01  0.19012100188E+01  0.00000000000E+00 0. -1.
         13   -1    0    0    0    0 -0.00000000000E+00 -0.00000000000E+00 -0.10000000000E+04  0.10000000000E+04  0.00000000000E+00 0.  1.
    9000005    2    1    2  501    0 -0.38432452445E+02  0.19795995182E+02 -0.43983051132E+03  0.44196156525E+03  0.31955660830E+01 0.  0.
         13    1    3    3    0    0 -0.23859262635E+02  0.13303350139E+02 -0.26470590626E+03  0.26611174409E+03  0.00000000000E+00 0.  1.
          1    1    3    3  501    0 -0.14573189811E+02  0.64926450431E+01 -0.17512460507E+03  0.17584982116E+03  0.00000000000E+00 0.  1.
         -1    1    1    2    0  502  0.38432452445E+02 -0.19795995182E+02 -0.55826827866E+03  0.55993964477E+03  0.00000000000E+00 0. -1.
<mgrwt>
<rscale>  1 0.30000000E+03</rscale>
<asrwt>0</asrwt>
<pdfrwt beam="1">  1       21 0.69135056E-02 0.30000000E+03</pdfrwt>
<pdfrwt beam="2">0</pdfrwt>
<totfact> 0.16488052E+04</totfact>
</mgrwt>
</event>
<event>
 6    1  0.6377696E-002  0.3000000E+03  0.7818608E-02  0.1093470E+00
         21   -1    0    0  501  502  0.00000000000E+00  0.00000000000E+00  0.28596249879E+01  0.28596249879E+01  0.00000000000E+00 0. -1.
         13   -1    0    0    0    0 -0.00000000000E+00 -0.00000000000E+00 -0.10000000000E+04  0.10000000000E+04  0.00000000000E+00 0.  1.
    9000005    2    1    2  501    0 -0.51950424507E+02 -0.78312995934E+01 -0.40930085416E+03  0.41267704465E+03  0.38701555918E+01 0.  0.
         13    1    3    3    0    0 -0.51600194509E+02 -0.80542827651E+01 -0.40432396453E+03  0.40768286674E+03  0.00000000000E+00 0.  1.
          3    1    3    3  501    0 -0.35022999847E+00  0.22298317164E+00 -0.49768896354E+01  0.49941779093E+01  0.00000000000E+00 0.  1.
         -1    1    1    2    0  502  0.51950424507E+02  0.78312995934E+01 -0.58783952085E+03  0.59018258033E+03  0.00000000000E+00 0. -1.
<mgrwt>
<rscale>  1 0.30000000E+03</rscale>
<asrwt>0</asrwt>
<pdfrwt beam="1">  1       21 0.10398658E-01 0.30000000E+03</pdfrwt>
<pdfrwt beam="2">0</pdfrwt>
<totfact> 0.80220810E+03</totfact>
</mgrwt>
</event>
<event>
 6    1  0.6377696E-002  0.3000000E+03  0.7818608E-02  0.1093470E+00
         21   -1    0    0  501  502  0.00000000000E+00  0.00000000000E+00  0.18387015229E+01  0.18387015229E+01  0.00000000000E+00 0. -1.
         13   -1    0    0    0    0 -0.00000000000E+00 -0.00000000000E+00 -0.10000000000E+04  0.10000000000E+04  0.00000000000E+00 0.  1.
    9000005    2    1    2  501    0  0.54153279351E+01 -0.37659398254E+02 -0.72936458697E+03  0.73036268385E+03  0.30648301634E+01 0.  0.
         13    1    3    3    0    0  0.12316989856E+01 -0.82507010647E+01 -0.13695393087E+03  0.13720776338E+03  0.00000000000E+00 0.  1.
          3    1    3    3  501    0  0.41836289496E+01 -0.29408697189E+02 -0.59241065610E+03  0.59315492047E+03  0.00000000000E+00 0.  1.
         -3    1    1    2    0  502 -0.54153279351E+01  0.37659398254E+02 -0.26879671151E+03  0.27147601767E+03  0.00000000000E+00 0. -1.
<mgrwt>
<rscale>  1 0.30000000E+03</rscale>
<asrwt>0</asrwt>
<pdfrwt beam="1">  1       21 0.66862015E-02 0.30000000E+03</pdfrwt>
<pdfrwt beam="2">0</pdfrwt>
<totfact> 0.17473555E+04</totfact>
</mgrwt>
</event>
<event>
 6    1  0.6377696E-002  0.3000000E+03  0.7818608E-02  0.1093470E+00
         21   -1    0    0  501  502  0.00000000000E+00  0.00000000000E+00  0.19206325017E+01  0.19206325017E+01  0.00000000000E+00 0. -1.
         13   -1    0    0    0    0 -0.00000000000E+00 -0.00000000000E+00 -0.10000000000E+04  0.10000000000E+04  0.00000000000E+00 0.  1.
    9000005    2    1    2  501    0  0.41210479136E+02  0.27132786630E+01 -0.33347058029E+03  0.33602987157E+03  0.27894785563E+01 0.  0.
         13    1    3    3    0    0  0.76746589750E+01 -0.13745751726E+00 -0.69344891167E+02  0.69768425638E+02  0.00000000000E+00 0.  1.
          3    1    3    3  501    0  0.33535820161E+02  0.28507361802E+01 -0.26412568913E+03  0.26626144593E+03  0.00000000000E+00 0.  1.
         -3    1    1    2    0  502 -0.41210479136E+02 -0.27132786630E+01 -0.66460878720E+03  0.66589076094E+03  0.00000000000E+00 0. -1.
<mgrwt>
<rscale>  1 0.30000000E+03</rscale>
<asrwt>0</asrwt>
<pdfrwt beam="1">  1       21 0.69841329E-02 0.30000000E+03</pdfrwt>
<pdfrwt beam="2">0</pdfrwt>
<totfact> 0.16199131E+04</totfact>
</mgrwt>
</event>
<event>
 6    1  0.6377696E-002  0.3000000E+03  0.7818608E-02  0.1093470E+00
         21   -1    0    0  501  502  0.00000000000E+00  0.00000000000E+00  0.32287280256E+01  0.32287280256E+01  0.00000000000E+00 0. -1.
         13   -1    0    0    0    0 -0.00000000000E+00 -0.00000000000E+00 -0.10000000000E+04  0.10000000000E+04  0.00000000000E+00 0.  1.
    9000005    2    1    2  501    0 -0.22666956236E+02  0.50947140271E+02 -0.40552962893E+03  0.40936335399E+03  0.38306193210E+01 0.  0.
         13    1    3    3    0    0 -0.13022764541E+02  0.31285359635E+02 -0.23385261876E+03  0.23629518282E+03  0.00000000000E+00 0.  1.
          3    1    3    3  501    0 -0.96441916957E+01  0.19661780635E+02 -0.17167701017E+03  0.17306817117E+03  0.00000000000E+00 0.  1.
         -3    1    1    2    0  502  0.22666956236E+02 -0.50947140271E+02 -0.59124164305E+03  0.59386537404E+03  0.00000000000E+00 0. -1.
<mgrwt>
<rscale>  1 0.30000000E+03</rscale>
<asrwt>0</asrwt>
<pdfrwt beam="1">  1       21 0.11740854E-01 0.30000000E+03</pdfrwt>
<pdfrwt beam="2">0</pdfrwt>
<totfact> 0.64472850E+03</totfact>
</mgrwt>
</event>
<event>
 6    1  0.6377696E-002  0.3000000E+03  0.7818608E-02  0.1093470E+00
         21   -1    0    0  501  502  0.00000000000E+00  0.00000000000E+00  0.20619501370E+01  0.20619501370E+01  0.00000000000E+00 0. -1.
         13   -1    0    0    0    0 -0.00000000000E+00 -0.00000000000E+00 -0.10000000000E+04  0.10000000000E+04  0.00000000000E+00 0.  1.
    9000005    2    1    2  501    0 -0.34623516551E+02 -0.19070738893E+02 -0.74483676293E+03  0.74589258736E+03  0.33863669387E+01 0.  0.
         13    1    3    3    0    0 -0.31700053401E+02 -0.17062623308E+02 -0.65902152586E+03  0.66000408941E+03  0.00000000000E+00 0.  1.
          1    1    3    3  501    0 -0.29234631497E+01 -0.20081155846E+01 -0.85815237072E+02  0.85888497942E+02  0.00000000000E+00 0.  1.
         -1    1    1    2    0  502  0.34623516551E+02  0.19070738893E+02 -0.25310128693E+03  0.25616936278E+03  0.00000000000E+00 0. -1.
<mgrwt>
<rscale>  1 0.30000000E+03</rscale>
<asrwt>0</asrwt>
<pdfrwt beam="1">  1       21 0.74980163E-02 0.30000000E+03</pdfrwt>
<pdfrwt beam="2">0</pdfrwt>
<totfact> 0.14311090E+04</totfact>
</mgrwt>
</event>
<event>
 6    1  0.6377696E-002  0.3000000E+03  0.7818608E-02  0.1093470E+00
         21   -1    0    0  501  502  0.00000000000E+00  0.00000000000E+00  0.99564779224E+00  0.99564779224E+00  0.00000000000E+00 0. -1.
         13   -1    0    0    0    0 -0.00000000000E+00 -0.00000000000E+00 -0.10000000000E+04  0.10000000000E+04  0.00000000000E+00 0.  1.
    9000005    2    1    2  501    0  0.93880425843E+01 -0.29226059414E+02 -0.61382417608E+03  0.61459421667E+03  0.19063394187E+01 0.  0.
         13    1    3    3    0    0  0.16951345351E+01 -0.80328791175E+01 -0.16367652846E+03  0.16388229494E+03  0.00000000000E+00 0.  1.
          1    1    3    3  501    0  0.76929080491E+01 -0.21193180297E+02 -0.45014764762E+03  0.45071192173E+03  0.00000000000E+00 0.  1.
         -1    1    1    2    0  502 -0.93880425843E+01  0.29226059414E+02 -0.38518017613E+03  0.38640143113E+03  0.00000000000E+00 0. -1.
<mgrwt>
<rscale>  1 0.30000000E+03</rscale>
<asrwt>0</asrwt>
<pdfrwt beam="1">  1       21 0.36205451E-02 0.30000000E+03</pdfrwt>
<pdfrwt beam="2">0</pdfrwt>
<totfact> 0.49713577E+04</totfact>
</mgrwt>
</event>
<event>
 6    1  0.6377696E-002  0.3000000E+03  0.7818608E-02  0.1093470E+00
         21   -1    0    0  501  502  0.00000000000E+00  0.00000000000E+00  0.79647833722E+01  0.79647833722E+01  0.00000000000E+00 0. -1.
         13   -1    0    0    0    0 -0.00000000000E+00 -0.00000000000E+00 -0.10000000000E+04  0.10000000000E+04  0.00000000000E+00 0.  1.
    9000005    2    1    2  501    0  0.44087443353E+02 -0.44473616335E+02 -0.13723224760E+03  0.15087101892E+03  0.27873564648E+01 0.  0.
         13    1    3    3    0    0  0.52465944454E+01 -0.44171988916E+01 -0.16553936253E+02  0.17918459889E+02  0.00000000000E+00 0.  1.
          3    1    3    3  501    0  0.38840848908E+02 -0.40056417443E+02 -0.12067831135E+03  0.13295255903E+03  0.00000000000E+00 0.  1.
         -1    1    1    2    0  502 -0.44087443353E+02  0.44473616335E+02 -0.85480296903E+03  0.85709376446E+03  0.00000000000E+00 0. -1.
<mgrwt>
<rscale>  1 0.30000000E+03</rscale>
<asrwt>0</asrwt>
<pdfrwt beam="1">  1       21 0.28962910E-01 0.30000000E+03</pdfrwt>
<pdfrwt beam="2">0</pdfrwt>
<totfact> 0.11663577E+03</totfact>
</mgrwt>
</event>
<event>
 6    1  0.6377696E-002  0.3000000E+03  0.7818608E-02  0.1093470E+00
         21   -1    0    0  501  502  0.00000000000E+00  0.00000000000E+00  0.18304331882E+01  0.18304331882E+01  0.00000000000E+00 0. -1.
         13   -1    0    0    0    0 -0.00000000000E+00 -0.00000000000E+00 -0.10000000000E+04  0.10000000000E+04  0.00000000000E+00 0.  1.
    9000005    2    1    2  501    0 -0.39695862067E+02 -0.15125283244E+02 -0.44521003848E+03  0.44724159844E+03  0.29211898524E+01 0.  0.
         13    1    3    3    0    0 -0.24977849699E+02 -0.10477887556E+02 -0.29478592426E+03  0.29602773560E+03  0.00000000000E+00 0.  1.
          1    1    3    3  501    0 -0.14718012368E+02 -0.46473956875E+01 -0.15042411423E+03  0.15121386284E+03  0.00000000000E+00 0.  1.
         -3    1    1    2    0  502  0.39695862067E+02  0.15125283244E+02 -0.55295952833E+03  0.55458883475E+03  0.00000000000E+00 0. -1.
<mgrwt>
<rscale>  1 0.30000000E+03</rscale>
<asrwt>0</asrwt>
<pdfrwt beam="1">  1       21 0.66561347E-02 0.30000000E+03</pdfrwt>
<pdfrwt beam="2">0</pdfrwt>
<totfact> 0.17610664E+04</totfact>
</mgrwt>
</event>
<event>
 6    1  0.6377696E-002  0.3000000E+03  0.7818608E-02  0.1093470E+00
         21   -1    0    0  501  502  0.00000000000E+00  0.00000000000E+00  0.39925964495E+01  0.39925964495E+01  0.00000000000E+00 0. -1.
         13   -1    0    0    0    0 -0.00000000000E+00 -0.00000000000E+00 -0.10000000000E+04  0.10000000000E+04  0.00000000000E+00 0.  1.
    9000005    2    1    2  501    0  0.49722953021E+02 -0.27181289912E+02 -0.71966481705E+03  0.72189966904E+03  0.32386243925E+01 0.  0.
         13    1    3    3    0    0  0.38432950454E+02 -0.22393655118E+02 -0.57099061081E+03  0.57272056458E+03  0.00000000000E+00 0.  1.
          1    1    3    3  501    0  0.11290002567E+02 -0.47876347937E+01 -0.14867420624E+03  0.14917910446E+03  0.00000000000E+00 0.  1.
         -3    1    1    2    0  502 -0.49722953021E+02  0.27181289912E+02 -0.27634258650E+03  0.28209292741E+03  0.00000000000E+00 0. -1.
<mgrwt>
<rscale>  1 0.30000000E+03</rscale>
<asrwt>0</asrwt>
<pdfrwt beam="1">  1       21 0.14518563E-01 0.30000000E+03</pdfrwt>
<pdfrwt beam="2">0</pdfrwt>
<totfact> 0.43738466E+03</totfact>
</mgrwt>
</event>
<event>
 6    1  0.6377696E-002  0.3000000E+03  0.7818608E-02  0.1093470E+00
         21   -1    0    0  501  502  0.00000000000E+00  0.00000000000E+00  0.13079787948E+01  0.13079787948E+01  0.00000000000E+00 0. -1.
         13   -1    0    0    0    0 -0.00000000000E+00 -0.00000000000E+00 -0.10000000000E+04  0.10000000000E+04  0.00000000000E+00 0.  1.
    9000005    2    1    2  501    0 -0.28598714625E+02  0.18935597003E+02 -0.65622238565E+03  0.65712504112E+03  0.30094719114E+01 0.  0.
         13    1    3    3    0    0 -0.26677053622E+02  0.17373763909E+02 -0.59266209518E+03  0.59351653046E+03  0.00000000000E+00 0.  1.
          1    1    3    3  501    0 -0.19216610025E+01  0.15618330934E+01 -0.63560290468E+02  0.63608510657E+02  0.00000000000E+00 0.  1.
         -3    1    1    2    0  502  0.28598714625E+02 -0.18935597003E+02 -0.34246963555E+03  0.34418293768E+03  0.00000000000E+00 0. -1.
<mgrwt>
<rscale>  1 0.30000000E+03</rscale>
<asrwt>0</asrwt>
<pdfrwt beam="1">  1       21 0.47562966E-02 0.30000000E+03</pdfrwt>
<pdfrwt beam="2">0</pdfrwt>
<totfact> 0.31362802E+04</totfact>
</mgrwt>
</event>
<event>
 6    1  0.6377696E-002  0.3000000E+03  0.7818608E-02  0.1093470E+00
         21   -1    0    0  501  502  0.00000000000E+00  0.00000000000E+00  0.15732440707E+01  0.15732440707E+01  0.00000000000E+00 0. -1.
         13   -1    0    0    0    0 -0.00000000000E+00 -0.00000000000E+00 -0.10000000000E+04  0.10000000000E+04  0.00000000000E+00 0.  1.
    9000005    2    1    2  501    0 -0.39046449376E+02  0.16177976827E+01 -0.41805004344E+03  0.41988228585E+03  0.28377227547E+01 0.  0.
         13    1    3    3    0    0 -0.10432648559E+02 -0.98816046574E-01 -0.12416961919E+03  0.12460715970E+03  0.00000000000E+00 0.  1.
          1    1    3    3  501    0 -0.28613800817E+02  0.17166137293E+01 -0.29388042425E+03  0.29527512614E+03  0.00000000000E+00 0.  1.
         -1    1    1    2    0  502  0.39046449376E+02 -0.16177976827E+01 -0.58037671249E+03  0.58169095822E+03  0.00000000000E+00 0. -1.
<mgrwt>
<rscale>  1 0.30000000E+03</rscale>
<asrwt>0</asrwt>
<pdfrwt beam="1">  1       21 0.57208996E-02 0.30000000E+03</pdfrwt>
<pdfrwt beam="2">0</pdfrwt>
<totfact> 0.22873832E+04</totfact>
</mgrwt>
</event>
<event>
 6    1  0.6377696E-002  0.3000000E+03  0.7818608E-02  0.1093470E+00
         21   -1    0    0  501  502  0.00000000000E+00  0.00000000000E+00  0.95554682961E+01  0.95554682961E+01  0.00000000000E+00 0. -1.
         13   -1    0    0    0    0 -0.00000000000E+00 -0.00000000000E+00 -0.10000000000E+04  0.10000000000E+04  0.00000000000E+00 0.  1.
    9000005    2    1    2  501    0  0.51293110315E+02 -0.81346295236E+02 -0.58497597187E+03  0.59283859088E+03  0.35361348970E+01 0.  0.
         13    1    3    3    0    0  0.29078407359E+02 -0.42811806155E+02 -0.31491685549E+03  0.31914108227E+03  0.00000000000E+00 0.  1.
          3    1    3    3  501    0  0.22214702956E+02 -0.38534489081E+02 -0.27005911638E+03  0.27369750861E+03  0.00000000000E+00 0.  1.
         -1    1    1    2    0  502 -0.51293110315E+02  0.81346295236E+02 -0.40546855983E+03  0.41671687742E+03  0.00000000000E+00 0. -1.
<mgrwt>
<rscale>  1 0.30000000E+03</rscale>
<asrwt>0</asrwt>
<pdfrwt beam="1">  1       21 0.34747231E-01 0.30000000E+03</pdfrwt>
<pdfrwt beam="2">0</pdfrwt>
<totfact> 0.80767551E+02</totfact>
</mgrwt>
</event>
<event>
 6    1  0.6377696E-002  0.3000000E+03  0.7818608E-02  0.1093470E+00
         21   -1    0    0  501  502  0.00000000000E+00  0.00000000000E+00  0.55267598579E+01  0.55267598579E+01  0.00000000000E+00 0. -1.
         13   -1    0    0    0    0 -0.00000000000E+00 -0.00000000000E+00 -0.10000000000E+04  0.10000000000E+04  0.00000000000E+00 0.  1.
    9000005    2    1    2  501    0 -0.25904927207E+00 -0.69463704596E+02 -0.67556004536E+03  0.67913604435E+03  0.43724692973E+01 0.  0.
         13    1    3    3    0    0  0.18316518319E+01 -0.19019653291E+02 -0.18131430667E+03  0.18231834785E+03  0.00000000000E+00 0.  1.
          3    1    3    3  501    0 -0.20907011040E+01 -0.50444051304E+02 -0.49424573869E+03  0.49681769650E+03  0.00000000000E+00 0.  1.
         -1    1    1    2    0  502  0.25904927207E+00  0.69463704596E+02 -0.31891319478E+03  0.32639071550E+03  0.00000000000E+00 0. -1.
<mgrwt>
<rscale>  1 0.30000000E+03</rscale>
<asrwt>0</asrwt>
<pdfrwt beam="1">  1       21 0.20097351E-01 0.30000000E+03</pdfrwt>
<pdfrwt beam="2">0</pdfrwt>
<totfact> 0.23770781E+03</totfact>
</mgrwt>
</event>
<event>
 6    1  0.6377696E-002  0.3000000E+03  0.7818608E-02  0.1093470E+00
         21   -1    0    0  501  502  0.00000000000E+00  0.00000000000E+00  0.12119758770E+01  0.12119758770E+01  0.00000000000E+00 0. -1.
         13   -1    0    0    0    0 -0.00000000000E+00 -0.00000000000E+00 -0.10000000000E+04  0.10000000000E+04  0.00000000000E+00 0.  1.
    9000005    2    1    2  501    0 -0.26209082040E+02 -0.22761090391E+02 -0.48069566397E+03  0.48195801406E+03  0.31973014892E+01 0.  0.
         13    1    3    3    0    0 -0.33339019204E+01 -0.43432475019E+01 -0.70320254034E+02  0.70533090307E+02  0.00000000000E+00 0.  1.
          3    1    3    3  501    0 -0.22875180120E+02 -0.18417842889E+02 -0.41037540993E+03  0.41142492375E+03  0.00000000000E+00 0.  1.
         -3    1    1    2    0  502  0.26209082040E+02  0.22761090391E+02 -0.51809236015E+03  0.51925396182E+03  0.00000000000E+00 0. -1.
<mgrwt>
<rscale>  1 0.30000000E+03</rscale>
<asrwt>0</asrwt>
<pdfrwt beam="1">  1       21 0.44071943E-02 0.30000000E+03</pdfrwt>
<pdfrwt beam="2">0</pdfrwt>
<totfact> 0.35697469E+04</totfact>
</mgrwt>
</event>
<event>
 6    1  0.6377696E-002  0.3000000E+03  0.7818608E-02  0.1093470E+00
         21   -1    0    0  501  502  0.00000000000E+00  0.00000000000E+00  0.13489937494E+01  0.13489937494E+01  0.00000000000E+00 0. -1.
         13   -1    0    0    0    0 -0.00000000000E+00 -0.00000000000E+00 -0.10000000000E+04  0.10000000000E+04  0.00000000000E+00 0.  1.
    9000005    2    1    2  501    0 -0.25336473881E+02 -0.26482555904E+02 -0.49618200629E+03  0.49754510473E+03  0.33593440827E+01 0.  0.
         13    1    3    3    0    0 -0.19303469580E+02 -0.21396205926E+02 -0.37399971340E+03  0.37510826062E+03  0.00000000000E+00 0.  1.
          3    1    3    3  501    0 -0.60330043014E+01 -0.50863499778E+01 -0.12218229289E+03  0.12243684410E+03  0.00000000000E+00 0.  1.
         -1    1    1    2    0  502  0.25336473881E+02  0.26482555904E+02 -0.50246899996E+03  0.50380388902E+03  0.00000000000E+00 0. -1.
<mgrwt>
<rscale>  1 0.30000000E+03</rscale>
<asrwt>0</asrwt>
<pdfrwt beam="1">  1       21 0.49054422E-02 0.30000000E+03</pdfrwt>
<pdfrwt beam="2">0</pdfrwt>
<totfact> 0.29757163E+04</totfact>
</mgrwt>
</event>
<event>
 6    1  0.6377696E-002  0.3000000E+03  0.7818608E-02  0.1093470E+00
         21   -1    0    0  501  502  0.00000000000E+00  0.00000000000E+00  0.15004152818E+01  0.15004152818E+01  0.00000000000E+00 0. -1.
         13   -1    0    0    0    0 -0.00000000000E+00 -0.00000000000E+00 -0.10000000000E+04  0.10000000000E+04  0.00000000000E+00 0.  1.
    9000005    2    1    2  501    0 -0.38686841592E+02 -0.56915880927E+00 -0.49721714619E+03  0.49872702813E+03  0.26004740274E+01 0.  0.
         13    1    3    3    0    0 -0.34934212999E+02 -0.12848427986E+01 -0.44772738185E+03  0.44909003387E+03  0.00000000000E+00 0.  1.
          1    1    3    3  501    0 -0.37526285927E+01  0.71568398935E+00 -0.49489764341E+02  0.49636994263E+02  0.00000000000E+00 0.  1.
         -3    1    1    2    0  502  0.38686841592E+02  0.56915880927E+00 -0.50128243852E+03  0.50277338715E+03  0.00000000000E+00 0. -1.
<mgrwt>
<rscale>  1 0.30000000E+03</rscale>
<asrwt>0</asrwt>
<pdfrwt beam="1">  1       21 0.54560671E-02 0.30000000E+03</pdfrwt>
<pdfrwt beam="2">0</pdfrwt>
<totfact> 0.24812930E+04</totfact>
</mgrwt>
</event>
<event>
 6    1  0.6377696E-002  0.3000000E+03  0.7818608E-02  0.1093470E+00
         21   -1    0    0  501  502  0.00000000000E+00  0.00000000000E+00  0.28988372980E+01  0.28988372980E+01  0.00000000000E+00 0. -1.
         13   -1    0    0    0    0 -0.00000000000E+00 -0.00000000000E+00 -0.10000000000E+04  0.10000000000E+04  0.00000000000E+00 0.  1.
    9000005    2    1    2  501    0  0.27808987609E+02 -0.45797347368E+02 -0.54311120156E+03  0.54575813507E+03  0.33805199019E+01 0.  0.
         13    1    3    3    0    0  0.98675530398E+01 -0.13307725399E+02 -0.16435061464E+03  0.16518350006E+03  0.00000000000E+00 0.  1.
          1    1    3    3  501    0  0.17941434569E+02 -0.32489621969E+02 -0.37876058692E+03  0.38057463501E+03  0.00000000000E+00 0.  1.
         -1    1    1    2    0  502 -0.27808987609E+02  0.45797347368E+02 -0.45398996114E+03  0.45714070223E+03  0.00000000000E+00 0. -1.
<mgrwt>
<rscale>  1 0.30000000E+03</rscale>
<asrwt>0</asrwt>
<pdfrwt beam="1">  1       21 0.10541249E-01 0.30000000E+03</pdfrwt>
<pdfrwt beam="2">0</pdfrwt>
<totfact> 0.78286458E+03</totfact>
</mgrwt>
</event>
<event>
 6    1  0.6377696E-002  0.3000000E+03  0.7818608E-02  0.1093470E+00
         21   -1    0    0  501  502  0.00000000000E+00  0.00000000000E+00  0.10821295090E+01  0.10821295090E+01  0.00000000000E+00 0. -1.
         13   -1    0    0    0    0 -0.00000000000E+00 -0.00000000000E+00 -0.10000000000E+04  0.10000000000E+04  0.00000000000E+00 0.  1.
    9000005    2    1    2  501    0  0.23387378292E+02  0.22619090378E+02 -0.51675018502E+03  0.51781794749E+03  0.67882478187E+01 0.  0.
         13    1    3    3    0    0  0.76567600064E+00  0.34470615071E+01 -0.46640494940E+02  0.46773969909E+02  0.00000000000E+00 0.  1.
          1    1    3    3  501    0  0.22621702292E+02  0.19172028871E+02 -0.47010969008E+03  0.47104397758E+03  0.00000000000E+00 0.  1.
         -3    1    1    2    0  502 -0.23387378292E+02 -0.22619090378E+02 -0.48216768547E+03  0.48326418202E+03  0.00000000000E+00 0. -1.
<mgrwt>
<rscale>  1 0.30000000E+03</rscale>
<asrwt>0</asrwt>
<pdfrwt beam="1">  1       21 0.39350247E-02 0.30000000E+03</pdfrwt>
<pdfrwt beam="2">0</pdfrwt>
<totfact> 0.43222636E+04</totfact>
</mgrwt>
</event>
<event>
 6    1  0.6377696E-002  0.3000000E+03  0.7818608E-02  0.1093470E+00
         21   -1    0    0  501  502  0.00000000000E+00  0.00000000000E+00  0.16055615050E+01  0.16055615050E+01  0.00000000000E+00 0. -1.
         13   -1    0    0    0    0 -0.00000000000E+00 -0.00000000000E+00 -0.10000000000E+04  0.10000000000E+04  0.00000000000E+00 0.  1.
    9000005    2    1    2  501    0 -0.25518834110E+02 -0.30135965614E+02 -0.41888869561E+03  0.42075593092E+03  0.29028905963E+01 0.  0.
         13    1    3    3    0    0 -0.13643048638E+02 -0.14784447768E+02 -0.20074562160E+03  0.20175112705E+03  0.00000000000E+00 0.  1.
          1    1    3    3  501    0 -0.11875785473E+02 -0.15351517847E+02 -0.21814307401E+03  0.21900480387E+03  0.00000000000E+00 0.  1.
         -1    1    1    2    0  502  0.25518834110E+02  0.30135965614E+02 -0.57950574289E+03  0.58084963059E+03  0.00000000000E+00 0. -1.
<mgrwt>
<rscale>  1 0.30000000E+03</rscale>
<asrwt>0</asrwt>
<pdfrwt beam="1">  1       21 0.58384178E-02 0.30000000E+03</pdfrwt>
<pdfrwt beam="2">0</pdfrwt>
<totfact> 0.22086954E+04</totfact>
</mgrwt>
</event>
<event>
 6    1  0.6377696E-002  0.3000000E+03  0.7818608E-02  0.1093470E+00
         21   -1    0    0  501  502  0.00000000000E+00  0.00000000000E+00  0.14001861813E+01  0.14001861813E+01  0.00000000000E+00 0. -1.
         13   -1    0    0    0    0 -0.00000000000E+00 -0.00000000000E+00 -0.10000000000E+04  0.10000000000E+04  0.00000000000E+00 0.  1.
    9000005    2    1    2  501    0 -0.11126541069E+02  0.35290487580E+02 -0.56747421687E+03  0.56868954526E+03  0.34049428874E+01 0.  0.
         13    1    3    3    0    0 -0.16843294224E+01  0.31867272805E+01 -0.68159824995E+02  0.68255065304E+02  0.00000000000E+00 0.  1.
          1    1    3    3  501    0 -0.94422116469E+01  0.32103760299E+02 -0.49931439188E+03  0.50043447995E+03  0.00000000000E+00 0.  1.
         -3    1    1    2    0  502  0.11126541069E+02 -0.35290487580E+02 -0.43112559694E+03  0.43271064093E+03  0.00000000000E+00 0. -1.
<mgrwt>
<rscale>  1 0.30000000E+03</rscale>
<asrwt>0</asrwt>
<pdfrwt beam="1">  1       21 0.50915969E-02 0.30000000E+03</pdfrwt>
<pdfrwt beam="2">0</pdfrwt>
<totfact> 0.27926496E+04</totfact>
</mgrwt>
</event>
<event>
 6    1  0.6377696E-002  0.3000000E+03  0.7818608E-02  0.1093470E+00
         21   -1    0    0  501  502  0.00000000000E+00  0.00000000000E+00  0.23742282789E+01  0.23742282789E+01  0.00000000000E+00 0. -1.
         13   -1    0    0    0    0 -0.00000000000E+00 -0.00000000000E+00 -0.10000000000E+04  0.10000000000E+04  0.00000000000E+00 0.  1.
    9000005    2    1    2  501    0 -0.31334884725E+02  0.36801638450E+02 -0.44117666185E+03  0.44382982765E+03  0.34399652371E+01 0.  0.
         13    1    3    3    0    0 -0.21753136502E+02  0.27818694051E+02 -0.31777262324E+03  0.31972882067E+03  0.00000000000E+00 0.  1.
          1    1    3    3  501    0 -0.95817482227E+01  0.89829443985E+01 -0.12340403861E+03  0.12410100698E+03  0.00000000000E+00 0.  1.
         -3    1    1    2    0  502  0.31334884725E+02 -0.36801638450E+02 -0.55644910987E+03  0.55854440063E+03  0.00000000000E+00 0. -1.
<mgrwt>
<rscale>  1 0.30000000E+03</rscale>
<asrwt>0</asrwt>
<pdfrwt beam="1">  1       21 0.86335756E-02 0.30000000E+03</pdfrwt>
<pdfrwt beam="2">0</pdfrwt>
<totfact> 0.11169700E+04</totfact>
</mgrwt>
</event>
<event>
 6    1  0.6377696E-002  0.3000000E+03  0.7818608E-02  0.1093470E+00
         21   -1    0    0  501  502  0.00000000000E+00  0.00000000000E+00  0.22196099540E+01  0.22196099540E+01  0.00000000000E+00 0. -1.
         13   -1    0    0    0    0 -0.00000000000E+00 -0.00000000000E+00 -0.10000000000E+04  0.10000000000E+04  0.00000000000E+00 0.  1.
    9000005    2    1    2  501    0  0.26266273942E+02 -0.30682693748E+02 -0.24272162551E+03  0.24608134036E+03  0.33005667123E+01 0.  0.
         13    1    3    3    0    0  0.18664372757E+02 -0.22541621456E+02 -0.16701275982E+03  0.16955749896E+03  0.00000000000E+00 0.  1.
          1    1    3    3  501    0  0.76019011846E+01 -0.81410722921E+01 -0.75708865684E+02  0.76523841402E+02  0.00000000000E+00 0.  1.
         -1    1    1    2    0  502 -0.26266273942E+02  0.30682693748E+02 -0.75505876454E+03  0.75613826960E+03  0.00000000000E+00 0. -1.
<mgrwt>
<rscale>  1 0.30000000E+03</rscale>
<asrwt>0</asrwt>
<pdfrwt beam="1">  1       21 0.80713259E-02 0.30000000E+03</pdfrwt>
<pdfrwt beam="2">0</pdfrwt>
<totfact> 0.12576209E+04</totfact>
</mgrwt>
</event>
<event>
 6    1  0.6377696E-002  0.3000000E+03  0.7818608E-02  0.1093470E+00
         21   -1    0    0  501  502  0.00000000000E+00  0.00000000000E+00  0.15091731729E+01  0.15091731729E+01  0.00000000000E+00 0. -1.
         13   -1    0    0    0    0 -0.00000000000E+00 -0.00000000000E+00 -0.10000000000E+04  0.10000000000E+04  0.00000000000E+00 0.  1.
    9000005    2    1    2  501    0 -0.48599724627E+00 -0.38054601371E+02 -0.59589165111E+03  0.59711520046E+03  0.33636109072E+01 0.  0.
         13    1    3    3    0    0 -0.17771910835E+01 -0.17742206952E+02 -0.26825369738E+03  0.26884566292E+03  0.00000000000E+00 0.  1.
          1    1    3    3  501    0  0.12911938373E+01 -0.20312394419E+02 -0.32763795373E+03  0.32826953754E+03  0.00000000000E+00 0.  1.
         -1    1    1    2    0  502  0.48599724627E+00  0.38054601371E+02 -0.40259917572E+03  0.40439397271E+03  0.00000000000E+00 0. -1.
<mgrwt>
<rscale>  1 0.30000000E+03</rscale>
<asrwt>0</asrwt>
<pdfrwt beam="1">  1       21 0.54879140E-02 0.30000000E+03</pdfrwt>
<pdfrwt beam="2">0</pdfrwt>
<totfact> 0.24566634E+04</totfact>
</mgrwt>
</event>
<event>
 6    1  0.6377696E-002  0.3000000E+03  0.7818608E-02  0.1093470E+00
         21   -1    0    0  501  502  0.00000000000E+00  0.00000000000E+00  0.10565505334E+01  0.10565505334E+01  0.00000000000E+00 0. -1.
         13   -1    0    0    0    0 -0.00000000000E+00 -0.00000000000E+00 -0.10000000000E+04  0.10000000000E+04  0.00000000000E+00 0.  1.
    9000005    2    1    2  501    0  0.18180896603E+02  0.23972238166E+02 -0.68642335671E+03  0.68709154997E+03  0.35440365856E+01 0.  0.
         13    1    3    3    0    0  0.45920260556E+00  0.20360839962E+01 -0.51274130088E+02  0.51316594990E+02  0.00000000000E+00 0.  1.
          3    1    3    3  501    0  0.17721693998E+02  0.21936154170E+02 -0.63514922663E+03  0.63577495498E+03  0.00000000000E+00 0.  1.
         -1    1    1    2    0  502 -0.18180896603E+02 -0.23972238166E+02 -0.31252009275E+03  0.31396500056E+03  0.00000000000E+00 0. -1.
<mgrwt>
<rscale>  1 0.30000000E+03</rscale>
<asrwt>0</asrwt>
<pdfrwt beam="1">  1       21 0.38420100E-02 0.30000000E+03</pdfrwt>
<pdfrwt beam="2">0</pdfrwt>
<totfact> 0.44996961E+04</totfact>
</mgrwt>
</event>
<event>
 6    1  0.6377696E-002  0.3000000E+03  0.7818608E-02  0.1093470E+00
         21   -1    0    0  501  502  0.00000000000E+00  0.00000000000E+00  0.11572593289E+01  0.11572593289E+01  0.00000000000E+00 0. -1.
         13   -1    0    0    0    0 -0.00000000000E+00 -0.00000000000E+00 -0.10000000000E+04  0.10000000000E+04  0.00000000000E+00 0.  1.
    9000005    2    1    2  501    0  0.33504294246E+02  0.29634820499E+01 -0.43546043972E+03  0.43677180861E+03  0.35352900900E+01 0.  0.
         13    1    3    3    0    0  0.34634775241E+01  0.57139532269E+00 -0.60850781035E+02  0.60951946005E+02  0.00000000000E+00 0.  1.
          3    1    3    3  501    0  0.30040816722E+02  0.23920867272E+01 -0.37460965869E+03  0.37581986261E+03  0.00000000000E+00 0.  1.
         -1    1    1    2    0  502 -0.33504294246E+02 -0.29634820499E+01 -0.56338230095E+03  0.56438545072E+03  0.00000000000E+00 0. -1.
<mgrwt>
<rscale>  1 0.30000000E+03</rscale>
<asrwt>0</asrwt>
<pdfrwt beam="1">  1       21 0.42082246E-02 0.30000000E+03</pdfrwt>
<pdfrwt beam="2">0</pdfrwt>
<totfact> 0.38598728E+04</totfact>
</mgrwt>
</event>
<event>
 6    1  0.6377696E-002  0.3000000E+03  0.7818608E-02  0.1093470E+00
         21   -1    0    0  501  502  0.00000000000E+00  0.00000000000E+00  0.25498977154E+01  0.25498977154E+01  0.00000000000E+00 0. -1.
         13   -1    0    0    0    0 -0.00000000000E+00 -0.00000000000E+00 -0.10000000000E+04  0.10000000000E+04  0.00000000000E+00 0.  1.
    9000005    2    1    2  501    0 -0.44126606988E+02  0.31556202773E+01 -0.25818522209E+03  0.26196251025E+03  0.27626956537E+01 0.  0.
         13    1    3    3    0    0 -0.23924349144E+02  0.20239546360E+01 -0.14799106613E+03  0.14992607021E+03  0.00000000000E+00 0.  1.
          3    1    3    3  501    0 -0.20202257843E+02  0.11316656413E+01 -0.11019415596E+03  0.11203644004E+03  0.00000000000E+00 0.  1.
         -1    1    1    2    0  502  0.44126606988E+02 -0.31556202773E+01 -0.73926488019E+03  0.74058738746E+03  0.00000000000E+00 0. -1.
<mgrwt>
<rscale>  1 0.30000000E+03</rscale>
<asrwt>0</asrwt>
<pdfrwt beam="1">  1       21 0.92723749E-02 0.30000000E+03</pdfrwt>
<pdfrwt beam="2">0</pdfrwt>
<totfact> 0.98433902E+03</totfact>
</mgrwt>
</event>
<event>
 6    1  0.6377696E-002  0.3000000E+03  0.7818608E-02  0.1093470E+00
         21   -1    0    0  501  502  0.00000000000E+00  0.00000000000E+00  0.49496274319E+01  0.49496274319E+01  0.00000000000E+00 0. -1.
         13   -1    0    0    0    0 -0.00000000000E+00 -0.00000000000E+00 -0.10000000000E+04  0.10000000000E+04  0.00000000000E+00 0.  1.
    9000005    2    1    2  501    0 -0.24988155137E+01  0.67587611507E+02 -0.63523424055E+03  0.63883218976E+03  0.31140000025E+01 0.  0.
         13    1    3    3    0    0 -0.15325224505E+01  0.53377881620E+02 -0.51237920127E+03  0.51515433878E+03  0.00000000000E+00 0.  1.
          1    1    3    3  501    0 -0.96629306317E+00  0.14209729887E+02 -0.12285503928E+03  0.12367785097E+03  0.00000000000E+00 0.  1.
         -3    1    1    2    0  502  0.24988155137E+01 -0.67587611507E+02 -0.35981613202E+03  0.36611743768E+03  0.00000000000E+00 0. -1.
<mgrwt>
<rscale>  1 0.30000000E+03</rscale>
<asrwt>0</asrwt>
<pdfrwt beam="1">  1       21 0.17998683E-01 0.30000000E+03</pdfrwt>
<pdfrwt beam="2">0</pdfrwt>
<totfact> 0.29299559E+03</totfact>
</mgrwt>
</event>
<event>
 6    1  0.6377696E-002  0.3000000E+03  0.7818608E-02  0.1093470E+00
         21   -1    0    0  501  502  0.00000000000E+00  0.00000000000E+00  0.10705846818E+01  0.10705846818E+01  0.00000000000E+00 0. -1.
         13   -1    0    0    0    0 -0.00000000000E+00 -0.00000000000E+00 -0.10000000000E+04  0.10000000000E+04  0.00000000000E+00 0.  1.
    9000005    2    1    2  501    0  0.19069225151E+02 -0.24870595096E+02 -0.64021328953E+03  0.64098803755E+03  0.32289849029E+01 0.  0.
         13    1    3    3    0    0  0.14421641979E+02 -0.20271960083E+02 -0.48633701165E+03  0.48697292022E+03  0.00000000000E+00 0.  1.
          3    1    3    3  501    0  0.46475831715E+01 -0.45986350125E+01 -0.15387627788E+03  0.15401511733E+03  0.00000000000E+00 0.  1.
         -3    1    1    2    0  502 -0.19069225151E+02  0.24870595096E+02 -0.35871612578E+03  0.36008254713E+03  0.00000000000E+00 0. -1.
<mgrwt>
<rscale>  1 0.30000000E+03</rscale>
<asrwt>0</asrwt>
<pdfrwt beam="1">  1       21 0.38930434E-02 0.30000000E+03</pdfrwt>
<pdfrwt beam="2">0</pdfrwt>
<totfact> 0.44009622E+04</totfact>
</mgrwt>
</event>
<event>
 6    1  0.6377696E-002  0.3000000E+03  0.7818608E-02  0.1093470E+00
         21   -1    0    0  501  502  0.00000000000E+00  0.00000000000E+00  0.15752997279E+01  0.15752997279E+01  0.00000000000E+00 0. -1.
         13   -1    0    0    0    0 -0.00000000000E+00 -0.00000000000E+00 -0.10000000000E+04  0.10000000000E+04  0.00000000000E+00 0.  1.
    9000005    2    1    2  501    0 -0.77961967976E+01 -0.37714569166E+02 -0.38431111611E+03  0.38625533121E+03  0.38700782802E+01 0.  0.
         13    1    3    3    0    0 -0.77395398516E+01 -0.31846341534E+02 -0.31751686029E+03  0.31920376959E+03  0.00000000000E+00 0.  1.
          1    1    3    3  501    0 -0.56656946058E-01 -0.58682276321E+01 -0.66794255820E+02  0.67051561623E+02  0.00000000000E+00 0.  1.
         -1    1    1    2    0  502  0.77961967976E+01  0.37714569166E+02 -0.61411358416E+03  0.61531996852E+03  0.00000000000E+00 0. -1.
<mgrwt>
<rscale>  1 0.30000000E+03</rscale>
<asrwt>0</asrwt>
<pdfrwt beam="1">  1       21 0.57283747E-02 0.30000000E+03</pdfrwt>
<pdfrwt beam="2">0</pdfrwt>
<totfact> 0.22822511E+04</totfact>
</mgrwt>
</event>
<event>
 6    1  0.6377696E-002  0.3000000E+03  0.7818608E-02  0.1093470E+00
         21   -1    0    0  501  502  0.00000000000E+00  0.00000000000E+00  0.14008603593E+01  0.14008603593E+01  0.00000000000E+00 0. -1.
         13   -1    0    0    0    0 -0.00000000000E+00 -0.00000000000E+00 -0.10000000000E+04  0.10000000000E+04  0.00000000000E+00 0.  1.
    9000005    2    1    2  501    0  0.38498122640E+01 -0.36923032032E+02 -0.47727386163E+03  0.47875549604E+03  0.61931128548E+01 0.  0.
         13    1    3    3    0    0  0.52491469567E+01 -0.20787117835E+02 -0.27248957741E+03  0.27333171717E+03  0.00000000000E+00 0.  1.
          1    1    3    3  501    0 -0.13993346927E+01 -0.16135914197E+02 -0.20478428422E+03  0.20542377888E+03  0.00000000000E+00 0.  1.
         -3    1    1    2    0  502 -0.38498122640E+01  0.36923032032E+02 -0.52132527801E+03  0.52264536431E+03  0.00000000000E+00 0. -1.
<mgrwt>
<rscale>  1 0.30000000E+03</rscale>
<asrwt>0</asrwt>
<pdfrwt beam="1">  1       21 0.50940484E-02 0.30000000E+03</pdfrwt>
<pdfrwt beam="2">0</pdfrwt>
<totfact> 0.27903567E+04</totfact>
</mgrwt>
</event>
<event>
 6    1  0.6377696E-002  0.3000000E+03  0.7818608E-02  0.1093470E+00
         21   -1    0    0  501  502  0.00000000000E+00  0.00000000000E+00  0.41955022129E+01  0.41955022129E+01  0.00000000000E+00 0. -1.
         13   -1    0    0    0    0 -0.00000000000E+00 -0.00000000000E+00 -0.10000000000E+04  0.10000000000E+04  0.00000000000E+00 0.  1.
    9000005    2    1    2  501    0 -0.44777172598E+02  0.25909025470E+02 -0.79974828675E+03  0.80142886129E+03  0.38242326446E+01 0.  0.
         13    1    3    3    0    0 -0.40276675007E+02  0.24492380562E+02 -0.72093149718E+03  0.72247097581E+03  0.00000000000E+00 0.  1.
          1    1    3    3  501    0 -0.45004975908E+01  0.14166449075E+01 -0.78816789567E+02  0.78957885477E+02  0.00000000000E+00 0.  1.
         -1    1    1    2    0  502  0.44777172598E+02 -0.25909025470E+02 -0.19605621104E+03  0.20276664093E+03  0.00000000000E+00 0. -1.
<mgrwt>
<rscale>  1 0.30000000E+03</rscale>
<asrwt>0</asrwt>
<pdfrwt beam="1">  1       21 0.15256404E-01 0.30000000E+03</pdfrwt>
<pdfrwt beam="2">0</pdfrwt>
<totfact> 0.39907249E+03</totfact>
</mgrwt>
</event>
<event>
 6    1  0.6377696E-002  0.3000000E+03  0.7818608E-02  0.1093470E+00
         21   -1    0    0  501  502  0.00000000000E+00  0.00000000000E+00  0.20491097614E+01  0.20491097614E+01  0.00000000000E+00 0. -1.
         13   -1    0    0    0    0 -0.00000000000E+00 -0.00000000000E+00 -0.10000000000E+04  0.10000000000E+04  0.00000000000E+00 0.  1.
    9000005    2    1    2  501    0 -0.44774733550E+02  0.62648673126E+01 -0.49776235037E+03  0.49982147139E+03  0.31812719366E+01 0.  0.
         13    1    3    3    0    0 -0.16331386795E+02  0.34691016885E+01 -0.19460671837E+03  0.19532159045E+03  0.00000000000E+00 0.  1.
          3    1    3    3  501    0 -0.28443346754E+02  0.27957656242E+01 -0.30315563200E+03  0.30449988094E+03  0.00000000000E+00 0.  1.
         -1    1    1    2    0  502  0.44774733550E+02 -0.62648673126E+01 -0.50018853987E+03  0.50222763837E+03  0.00000000000E+00 0. -1.
<mgrwt>
<rscale>  1 0.30000000E+03</rscale>
<asrwt>0</asrwt>
<pdfrwt beam="1">  1       21 0.74513239E-02 0.30000000E+03</pdfrwt>
<pdfrwt beam="2">0</pdfrwt>
<totfact> 0.14468450E+04</totfact>
</mgrwt>
</event>
<event>
 6    1  0.6377696E-002  0.3000000E+03  0.7818608E-02  0.1093470E+00
         21   -1    0    0  501  502  0.00000000000E+00  0.00000000000E+00  0.10932785727E+01  0.10932785727E+01  0.00000000000E+00 0. -1.
         13   -1    0    0    0    0 -0.00000000000E+00 -0.00000000000E+00 -0.10000000000E+04  0.10000000000E+04  0.00000000000E+00 0.  1.
    9000005    2    1    2  501    0 -0.20415000575E+02 -0.25880724671E+02 -0.49486792966E+03  0.49597775935E+03  0.36174302179E+01 0.  0.
         13    1    3    3    0    0 -0.14397925537E+02 -0.16730971118E+02 -0.35130482131E+03  0.35199758967E+03  0.00000000000E+00 0.  1.
          3    1    3    3  501    0 -0.60170750377E+01 -0.91497535535E+01 -0.14356310835E+03  0.14398016968E+03  0.00000000000E+00 0.  1.
         -1    1    1    2    0  502  0.20415000575E+02  0.25880724671E+02 -0.50403879177E+03  0.50511551923E+03  0.00000000000E+00 0. -1.
<mgrwt>
<rscale>  1 0.30000000E+03</rscale>
<asrwt>0</asrwt>
<pdfrwt beam="1">  1       21 0.39755668E-02 0.30000000E+03</pdfrwt>
<pdfrwt beam="2">0</pdfrwt>
<totfact> 0.42483351E+04</totfact>
</mgrwt>
</event>
<event>
 6    1  0.6377696E-002  0.3000000E+03  0.7818608E-02  0.1093470E+00
         21   -1    0    0  501  502  0.00000000000E+00  0.00000000000E+00  0.13442270598E+01  0.13442270598E+01  0.00000000000E+00 0. -1.
         13   -1    0    0    0    0 -0.00000000000E+00 -0.00000000000E+00 -0.10000000000E+04  0.10000000000E+04  0.00000000000E+00 0.  1.
    9000005    2    1    2  501    0  0.28235150413E+02 -0.23031351339E+02 -0.53997609309E+03  0.54121955312E+03  0.40934953624E+01 0.  0.
         13    1    3    3    0    0  0.32487745057E+01 -0.15804131675E+01 -0.68095877367E+02  0.68191647259E+02  0.00000000000E+00 0.  1.
          1    1    3    3  501    0  0.24986375907E+02 -0.21450938171E+02 -0.47188021573E+03  0.47302790586E+03  0.00000000000E+00 0.  1.
         -3    1    1    2    0  502 -0.28235150413E+02  0.23031351339E+02 -0.45867967985E+03  0.46012467394E+03  0.00000000000E+00 0. -1.
<mgrwt>
<rscale>  1 0.30000000E+03</rscale>
<asrwt>0</asrwt>
<pdfrwt beam="1">  1       21 0.48881087E-02 0.30000000E+03</pdfrwt>
<pdfrwt beam="2">0</pdfrwt>
<totfact> 0.29937094E+04</totfact>
</mgrwt>
</event>
<event>
 6    1  0.6377696E-002  0.3000000E+03  0.7818608E-02  0.1093470E+00
         21   -1    0    0  501  502  0.00000000000E+00  0.00000000000E+00  0.12166886932E+01  0.12166886932E+01  0.00000000000E+00 0. -1.
         13   -1    0    0    0    0 -0.00000000000E+00 -0.00000000000E+00 -0.10000000000E+04  0.10000000000E+04  0.00000000000E+00 0.  1.
    9000005    2    1    2  501    0 -0.21253540231E+02  0.25039801197E+02 -0.66570989153E+03  0.66652786669E+03  0.33215611576E+01 0.  0.
         13    1    3    3    0    0 -0.78766459905E+00  0.22282682015E+01 -0.49096432178E+02  0.49153283179E+02  0.00000000000E+00 0.  1.
          1    1    3    3  501    0 -0.20465875632E+02  0.22811532996E+02 -0.61661345935E+03  0.61737458351E+03  0.00000000000E+00 0.  1.
         -3    1    1    2    0  502  0.21253540231E+02 -0.25039801197E+02 -0.33307341977E+03  0.33468882201E+03  0.00000000000E+00 0. -1.
<mgrwt>
<rscale>  1 0.30000000E+03</rscale>
<asrwt>0</asrwt>
<pdfrwt beam="1">  1       21 0.44243319E-02 0.30000000E+03</pdfrwt>
<pdfrwt beam="2">0</pdfrwt>
<totfact> 0.35463492E+04</totfact>
</mgrwt>
</event>
<event>
 6    1  0.6377696E-002  0.3000000E+03  0.7818608E-02  0.1093470E+00
         21   -1    0    0  501  502  0.00000000000E+00  0.00000000000E+00  0.28483393458E+01  0.28483393458E+01  0.00000000000E+00 0. -1.
         13   -1    0    0    0    0 -0.00000000000E+00 -0.00000000000E+00 -0.10000000000E+04  0.10000000000E+04  0.00000000000E+00 0.  1.
    9000005    2    1    2  501    0 -0.19929618022E+02  0.46457848800E+02 -0.35865485486E+03  0.36235345849E+03  0.10545263270E+02 0.  0.
         13    1    3    3    0    0  0.11401988550E+01  0.15251994937E+01 -0.18439036472E+02  0.18537107459E+02  0.00000000000E+00 0.  1.
          1    1    3    3  501    0 -0.21069816877E+02  0.44932649306E+02 -0.34021581839E+03  0.34381635104E+03  0.00000000000E+00 0.  1.
         -3    1    1    2    0  502  0.19929618022E+02 -0.46457848800E+02 -0.63849680579E+03  0.64049488085E+03  0.00000000000E+00 0. -1.
<mgrwt>
<rscale>  1 0.30000000E+03</rscale>
<asrwt>0</asrwt>
<pdfrwt beam="1">  1       21 0.10357619E-01 0.30000000E+03</pdfrwt>
<pdfrwt beam="2">0</pdfrwt>
<totfact> 0.80791000E+03</totfact>
</mgrwt>
</event>
<event>
 6    1  0.6377696E-002  0.3000000E+03  0.7818608E-02  0.1093470E+00
         21   -1    0    0  501  502  0.00000000000E+00  0.00000000000E+00  0.10071799145E+01  0.10071799145E+01  0.00000000000E+00 0. -1.
         13   -1    0    0    0    0 -0.00000000000E+00 -0.00000000000E+00 -0.10000000000E+04  0.10000000000E+04  0.00000000000E+00 0.  1.
    9000005    2    1    2  501    0 -0.73165943268E+01 -0.29522694038E+02 -0.36348150507E+03  0.36476842478E+03  0.34752232344E+01 0.  0.
         13    1    3    3    0    0 -0.47732072274E+01 -0.16666119110E+02 -0.22582383773E+03  0.22648829710E+03  0.00000000000E+00 0.  1.
          3    1    3    3  501    0 -0.25433870994E+01 -0.12856574927E+02 -0.13765766734E+03  0.13828012769E+03  0.00000000000E+00 0.  1.
         -1    1    1    2    0  502  0.73165943268E+01  0.29522694038E+02 -0.63551131502E+03  0.63623875513E+03  0.00000000000E+00 0. -1.
<mgrwt>
<rscale>  1 0.30000000E+03</rscale>
<asrwt>0</asrwt>
<pdfrwt beam="1">  1       21 0.36624801E-02 0.30000000E+03</pdfrwt>
<pdfrwt beam="2">0</pdfrwt>
<totfact> 0.48762392E+04</totfact>
</mgrwt>
</event>
<event>
 6    1  0.6377696E-002  0.3000000E+03  0.7818608E-02  0.1093470E+00
         21   -1    0    0  501  502  0.00000000000E+00  0.00000000000E+00  0.65786501310E+01  0.65786501310E+01  0.00000000000E+00 0. -1.
         13   -1    0    0    0    0 -0.00000000000E+00 -0.00000000000E+00 -0.10000000000E+04  0.10000000000E+04  0.00000000000E+00 0.  1.
    9000005    2    1    2  501    0  0.58572001515E+02  0.56031728406E+02 -0.50880494803E+03  0.51523020872E+03  0.30755298954E+01 0.  0.
         13    1    3    3    0    0  0.37807273421E+02  0.34117510702E+02 -0.31864567198E+03  0.32268941528E+03  0.00000000000E+00 0.  1.
          3    1    3    3  501    0  0.20764728094E+02  0.21914217704E+02 -0.19015927605E+03  0.19254079344E+03  0.00000000000E+00 0.  1.
         -1    1    1    2    0  502 -0.58572001515E+02 -0.56031728406E+02 -0.48461640184E+03  0.49134844141E+03  0.00000000000E+00 0. -1.
<mgrwt>
<rscale>  1 0.30000000E+03</rscale>
<asrwt>0</asrwt>
<pdfrwt beam="1">  1       21 0.23922415E-01 0.30000000E+03</pdfrwt>
<pdfrwt beam="2">0</pdfrwt>
<totfact> 0.16995781E+03</totfact>
</mgrwt>
</event>
<event>
 6    1  0.6377696E-002  0.3000000E+03  0.7818608E-02  0.1093470E+00
         21   -1    0    0  501  502  0.00000000000E+00  0.00000000000E+00  0.30011932155E+01  0.30011932155E+01  0.00000000000E+00 0. -1.
         13   -1    0    0    0    0 -0.00000000000E+00 -0.00000000000E+00 -0.10000000000E+04  0.10000000000E+04  0.00000000000E+00 0.  1.
    9000005    2    1    2  501    0 -0.63713412961E+01 -0.35521942145E+02 -0.12217713290E+03  0.12743545413E+03  0.31844625499E+01 0.  0.
         13    1    3    3    0    0  0.27176981983E+00 -0.24231422267E+01 -0.96651427122E+01  0.99679717462E+01  0.00000000000E+00 0.  1.
          3    1    3    3  501    0 -0.66431111160E+01 -0.33098799918E+02 -0.11251199019E+03  0.11746748238E+03  0.00000000000E+00 0.  1.
         -3    1    1    2    0  502  0.63713412961E+01  0.35521942145E+02 -0.87482167389E+03  0.87556573909E+03  0.00000000000E+00 0. -1.
<mgrwt>
<rscale>  1 0.30000000E+03</rscale>
<asrwt>0</asrwt>
<pdfrwt beam="1">  1       21 0.10913453E-01 0.30000000E+03</pdfrwt>
<pdfrwt beam="2">0</pdfrwt>
<totfact> 0.73557850E+03</totfact>
</mgrwt>
</event>
<event>
 6    1  0.6377696E-002  0.3000000E+03  0.7818608E-02  0.1093470E+00
         21   -1    0    0  501  502  0.00000000000E+00  0.00000000000E+00  0.14179790981E+01  0.14179790981E+01  0.00000000000E+00 0. -1.
         13   -1    0    0    0    0 -0.00000000000E+00 -0.00000000000E+00 -0.10000000000E+04  0.10000000000E+04  0.00000000000E+00 0.  1.
    9000005    2    1    2  501    0  0.20292244721E+02 -0.27009756617E+02 -0.29338016361E+03  0.29540738309E+03  0.72318348761E+01 0.  0.
         13    1    3    3    0    0  0.20028636591E+02 -0.26959805002E+02 -0.27750703616E+03  0.27953198831E+03  0.00000000000E+00 0.  1.
          3    1    3    3  501    0  0.26360812951E+00 -0.49951615798E-01 -0.15873127450E+02  0.15875394781E+02  0.00000000000E+00 0.  1.
         -3    1    1    2    0  502 -0.20292244721E+02  0.27009756617E+02 -0.70520185729E+03  0.70601059600E+03  0.00000000000E+00 0. -1.
<mgrwt>
<rscale>  1 0.30000000E+03</rscale>
<asrwt>0</asrwt>
<pdfrwt beam="1">  1       21 0.51562985E-02 0.30000000E+03</pdfrwt>
<pdfrwt beam="2">0</pdfrwt>
<totfact> 0.27331012E+04</totfact>
</mgrwt>
</event>
<event>
 6    1  0.6377696E-002  0.3000000E+03  0.7818608E-02  0.1093470E+00
         21   -1    0    0  501  502  0.00000000000E+00  0.00000000000E+00  0.22079876022E+01  0.22079876022E+01  0.00000000000E+00 0. -1.
         13   -1    0    0    0    0 -0.00000000000E+00 -0.00000000000E+00 -0.10000000000E+04  0.10000000000E+04  0.00000000000E+00 0.  1.
    9000005    2    1    2  501    0  0.32388943011E+02 -0.20075342667E+02 -0.79174905791E+03  0.79267096914E+03  0.29379586786E+01 0.  0.
         13    1    3    3    0    0  0.31952855197E+02 -0.19370375460E+02 -0.76992975208E+03  0.77083592258E+03  0.00000000000E+00 0.  1.
          1    1    3    3  501    0  0.43608781421E+00 -0.70496720658E+00 -0.21819305835E+02  0.21835046564E+02  0.00000000000E+00 0.  1.
         -1    1    1    2    0  502 -0.32388943011E+02  0.20075342667E+02 -0.20604295449E+03  0.20953701846E+03  0.00000000000E+00 0. -1.
<mgrwt>
<rscale>  1 0.30000000E+03</rscale>
<asrwt>0</asrwt>
<pdfrwt beam="1">  1       21 0.80290628E-02 0.30000000E+03</pdfrwt>
<pdfrwt beam="2">0</pdfrwt>
<totfact> 0.12692757E+04</totfact>
</mgrwt>
</event>
<event>
 6    1  0.6377696E-002  0.3000000E+03  0.7818608E-02  0.1093470E+00
         21   -1    0    0  501  502  0.00000000000E+00  0.00000000000E+00  0.12720920792E+01  0.12720920792E+01  0.00000000000E+00 0. -1.
         13   -1    0    0    0    0 -0.00000000000E+00 -0.00000000000E+00 -0.10000000000E+04  0.10000000000E+04  0.00000000000E+00 0.  1.
    9000005    2    1    2  501    0 -0.32843022124E+01  0.34580818775E+02 -0.60952299227E+03  0.61052014258E+03  0.31538430302E+01 0.  0.
         13    1    3    3    0    0 -0.32663328663E+01  0.34611826220E+02 -0.60565315816E+03  0.60665014253E+03  0.00000000000E+00 0.  1.
          3    1    3    3  501    0 -0.17969346148E-01 -0.31007444634E-01 -0.38698341088E+01  0.38700000503E+01  0.00000000000E+00 0.  1.
         -1    1    1    2    0  502  0.32843022124E+01 -0.34580818775E+02 -0.38920491565E+03  0.39075194950E+03  0.00000000000E+00 0. -1.
<mgrwt>
<rscale>  1 0.30000000E+03</rscale>
<asrwt>0</asrwt>
<pdfrwt beam="1">  1       21 0.46257991E-02 0.30000000E+03</pdfrwt>
<pdfrwt beam="2">0</pdfrwt>
<totfact> 0.32881822E+04</totfact>
</mgrwt>
</event>
<event>
 6    1  0.6377696E-002  0.3000000E+03  0.7818608E-02  0.1093470E+00
         21   -1    0    0  501  502  0.00000000000E+00  0.00000000000E+00  0.99449000679E+00  0.99449000679E+00  0.00000000000E+00 0. -1.
         13   -1    0    0    0    0 -0.00000000000E+00 -0.00000000000E+00 -0.10000000000E+04  0.10000000000E+04  0.00000000000E+00 0.  1.
    9000005    2    1    2  501    0 -0.95789789324E+01  0.29434135575E+02 -0.41194667434E+03  0.41312018227E+03  0.31776292224E+01 0.  0.
         13    1    3    3    0    0 -0.98106917963E+01  0.28942732783E+02 -0.40303509113E+03  0.40419205353E+03  0.00000000000E+00 0.  1.
          1    1    3    3  501    0  0.23171286398E+00  0.49140279158E+00 -0.89115832084E+01  0.89281287421E+01  0.00000000000E+00 0.  1.
         -1    1    1    2    0  502  0.95789789324E+01 -0.29434135575E+02 -0.58705883566E+03  0.58787430774E+03  0.00000000000E+00 0. -1.
<mgrwt>
<rscale>  1 0.30000000E+03</rscale>
<asrwt>0</asrwt>
<pdfrwt beam="1">  1       21 0.36163349E-02 0.30000000E+03</pdfrwt>
<pdfrwt beam="2">0</pdfrwt>
<totfact> 0.49810687E+04</totfact>
</mgrwt>
</event>
<event>
 6    1  0.6377696E-002  0.3000000E+03  0.7818608E-02  0.1093470E+00
         21   -1    0    0  501  502  0.00000000000E+00  0.00000000000E+00  0.13597312800E+01  0.13597312800E+01  0.00000000000E+00 0. -1.
         13   -1    0    0    0    0 -0.00000000000E+00 -0.00000000000E+00 -0.10000000000E+04  0.10000000000E+04  0.00000000000E+00 0.  1.
    9000005    2    1    2  501    0  0.55159031714E+01 -0.33286877706E+02 -0.30065146711E+03  0.30255589000E+03  0.32125508365E+01 0.  0.
         13    1    3    3    0    0  0.17782978972E+01 -0.42390548847E+01 -0.43254869978E+02  0.43498456369E+02  0.00000000000E+00 0.  1.
          1    1    3    3  501    0  0.37376052743E+01 -0.29047822822E+02 -0.25739659713E+03  0.25905743363E+03  0.00000000000E+00 0.  1.
         -1    1    1    2    0  502 -0.55159031714E+01  0.33286877706E+02 -0.69798880161E+03  0.69880384128E+03  0.00000000000E+00 0. -1.
<mgrwt>
<rscale>  1 0.30000000E+03</rscale>
<asrwt>0</asrwt>
<pdfrwt beam="1">  1       21 0.49444878E-02 0.30000000E+03</pdfrwt>
<pdfrwt beam="2">0</pdfrwt>
<totfact> 0.29357977E+04</totfact>
</mgrwt>
</event>
<event>
 6    1  0.6377696E-002  0.3000000E+03  0.7818608E-02  0.1093470E+00
         21   -1    0    0  501  502  0.00000000000E+00  0.00000000000E+00  0.12178591666E+01  0.12178591666E+01  0.00000000000E+00 0. -1.
         13   -1    0    0    0    0 -0.00000000000E+00 -0.00000000000E+00 -0.10000000000E+04  0.10000000000E+04  0.00000000000E+00 0.  1.
    9000005    2    1    2  501    0 -0.47446128090E+01 -0.34462244509E+02 -0.50594607768E+03  0.50715557282E+03  0.38966490113E+01 0.  0.
         13    1    3    3    0    0 -0.63533412497E+00 -0.11980172232E+02 -0.15231215261E+03  0.15278389971E+03  0.00000000000E+00 0.  1.
          1    1    3    3  501    0 -0.41092786840E+01 -0.22482072277E+02 -0.35363392507E+03  0.35437167311E+03  0.00000000000E+00 0.  1.
         -3    1    1    2    0  502  0.47446128090E+01  0.34462244509E+02 -0.49283606316E+03  0.49406228635E+03  0.00000000000E+00 0. -1.
<mgrwt>
<rscale>  1 0.30000000E+03</rscale>
<asrwt>0</asrwt>
<pdfrwt beam="1">  1       21 0.44285881E-02 0.30000000E+03</pdfrwt>
<pdfrwt beam="2">0</pdfrwt>
<totfact> 0.35405749E+04</totfact>
</mgrwt>
</event>
<event>
 6    1  0.6377696E-002  0.3000000E+03  0.7818608E-02  0.1093470E+00
         21   -1    0    0  501  502  0.00000000000E+00  0.00000000000E+00  0.10935613882E+01  0.10935613882E+01  0.00000000000E+00 0. -1.
         13   -1    0    0    0    0 -0.00000000000E+00 -0.00000000000E+00 -0.10000000000E+04  0.10000000000E+04  0.00000000000E+00 0.  1.
    9000005    2    1    2  501    0  0.32660597308E+02 -0.22623981548E+01 -0.43889539926E+03  0.44012636337E+03  0.31954930078E+01 0.  0.
         13    1    3    3    0    0  0.44024342794E+00  0.21772681372E+00 -0.36424593836E+01  0.36754223706E+01  0.00000000000E+00 0.  1.
          1    1    3    3  501    0  0.32220353880E+02 -0.24801249685E+01 -0.43525293988E+03  0.43645094100E+03  0.00000000000E+00 0.  1.
         -3    1    1    2    0  502 -0.32660597308E+02  0.22623981548E+01 -0.56001103935E+03  0.56096719802E+03  0.00000000000E+00 0. -1.
<mgrwt>
<rscale>  1 0.30000000E+03</rscale>
<asrwt>0</asrwt>
<pdfrwt beam="1">  1       21 0.39765953E-02 0.30000000E+03</pdfrwt>
<pdfrwt beam="2">0</pdfrwt>
<totfact> 0.42464856E+04</totfact>
</mgrwt>
</event>
<event>
 6    1  0.6377696E-002  0.3000000E+03  0.7818608E-02  0.1093470E+00
         21   -1    0    0  501  502  0.00000000000E+00  0.00000000000E+00  0.25475915609E+01  0.25475915609E+01  0.00000000000E+00 0. -1.
         13   -1    0    0    0    0 -0.00000000000E+00 -0.00000000000E+00 -0.10000000000E+04  0.10000000000E+04  0.00000000000E+00 0.  1.
    9000005    2    1    2  501    0 -0.32836019099E+02  0.14367047142E+02 -0.14742157801E+03  0.15176146751E+03  0.37155301913E+01 0.  0.
         13    1    3    3    0    0 -0.27156347369E+02  0.10895856014E+02 -0.11505216170E+03  0.11871472862E+03  0.00000000000E+00 0.  1.
          3    1    3    3  501    0 -0.56796717293E+01  0.34711911278E+01 -0.32369416306E+02  0.33046738883E+02  0.00000000000E+00 0.  1.
         -3    1    1    2    0  502  0.32836019099E+02 -0.14367047142E+02 -0.85003083043E+03  0.85078612405E+03  0.00000000000E+00 0. -1.
<mgrwt>
<rscale>  1 0.30000000E+03</rscale>
<asrwt>0</asrwt>
<pdfrwt beam="1">  1       21 0.92639888E-02 0.30000000E+03</pdfrwt>
<pdfrwt beam="2">0</pdfrwt>
<totfact> 0.98592269E+03</totfact>
</mgrwt>
</event>
<event>
 6    1  0.6377696E-002  0.3000000E+03  0.7818608E-02  0.1093470E+00
         21   -1    0    0  501  502  0.00000000000E+00  0.00000000000E+00  0.18713193397E+01  0.18713193397E+01  0.00000000000E+00 0. -1.
         13   -1    0    0    0    0 -0.00000000000E+00 -0.00000000000E+00 -0.10000000000E+04  0.10000000000E+04  0.00000000000E+00 0.  1.
    9000005    2    1    2  501    0 -0.32237159648E+02 -0.55921593342E+01 -0.17333407826E+03  0.17642801853E+03  0.34112060665E+01 0.  0.
         13    1    3    3    0    0 -0.26546717389E+02 -0.38142984397E+01 -0.14712263449E+03  0.14954713858E+03  0.00000000000E+00 0.  1.
          3    1    3    3  501    0 -0.56904422596E+01 -0.17778608946E+01 -0.26211443767E+02  0.26880879949E+02  0.00000000000E+00 0.  1.
         -1    1    1    2    0  502  0.32237159648E+02  0.55921593342E+01 -0.82479460240E+03  0.82544330081E+03  0.00000000000E+00 0. -1.
<mgrwt>
<rscale>  1 0.30000000E+03</rscale>
<asrwt>0</asrwt>
<pdfrwt beam="1">  1       21 0.68048119E-02 0.30000000E+03</pdfrwt>
<pdfrwt beam="2">0</pdfrwt>
<totfact> 0.16948364E+04</totfact>
</mgrwt>
</event>
<event>
 6    1  0.6377696E-002  0.3000000E+03  0.7818608E-02  0.1093470E+00
         21   -1    0    0  501  502  0.00000000000E+00  0.00000000000E+00  0.22305662651E+01  0.22305662651E+01  0.00000000000E+00 0. -1.
         13   -1    0    0    0    0 -0.00000000000E+00 -0.00000000000E+00 -0.10000000000E+04  0.10000000000E+04  0.00000000000E+00 0.  1.
    9000005    2    1    2  501    0  0.20030327928E+02 -0.42444292787E+02 -0.46062454939E+03  0.46303917278E+03  0.52505241487E+01 0.  0.
         13    1    3    3    0    0  0.12884592764E+02 -0.24021434199E+02 -0.28810558578E+03  0.28939224348E+03  0.00000000000E+00 0.  1.
          1    1    3    3  501    0  0.71457351641E+01 -0.18422858587E+02 -0.17251896362E+03  0.17364692930E+03  0.00000000000E+00 0.  1.
         -1    1    1    2    0  502 -0.20030327928E+02  0.42444292787E+02 -0.53714488434E+03  0.53919139348E+03  0.00000000000E+00 0. -1.
<mgrwt>
<rscale>  1 0.30000000E+03</rscale>
<asrwt>0</asrwt>
<pdfrwt beam="1">  1       21 0.81111672E-02 0.30000000E+03</pdfrwt>
<pdfrwt beam="2">0</pdfrwt>
<totfact> 0.12467837E+04</totfact>
</mgrwt>
</event>
<event>
 6    1  0.6377696E-002  0.3000000E+03  0.7818608E-02  0.1093470E+00
         21   -1    0    0  501  502  0.00000000000E+00  0.00000000000E+00  0.15079742977E+01  0.15079742977E+01  0.00000000000E+00 0. -1.
         13   -1    0    0    0    0 -0.00000000000E+00 -0.00000000000E+00 -0.10000000000E+04  0.10000000000E+04  0.00000000000E+00 0.  1.
    9000005    2    1    2  501    0  0.95929610811E+01 -0.33320623763E+02 -0.72357028038E+03  0.72440825412E+03  0.33285313256E+01 0.  0.
         13    1    3    3    0    0  0.47375867430E+01 -0.12606717552E+02 -0.25546555289E+03  0.25582029389E+03  0.00000000000E+00 0.  1.
          1    1    3    3  501    0  0.48553743381E+01 -0.20713906211E+02 -0.46810472749E+03  0.46858796023E+03  0.00000000000E+00 0.  1.
         -3    1    1    2    0  502 -0.95929610811E+01  0.33320623763E+02 -0.27492174532E+03  0.27709972017E+03  0.00000000000E+00 0. -1.
<mgrwt>
<rscale>  1 0.30000000E+03</rscale>
<asrwt>0</asrwt>
<pdfrwt beam="1">  1       21 0.54835545E-02 0.30000000E+03</pdfrwt>
<pdfrwt beam="2">0</pdfrwt>
<totfact> 0.24600127E+04</totfact>
</mgrwt>
</event>
<event>
 6    1  0.6377696E-002  0.3000000E+03  0.7818608E-02  0.1093470E+00
         21   -1    0    0  501  502  0.00000000000E+00  0.00000000000E+00  0.32092928744E+01  0.32092928744E+01  0.00000000000E+00 0. -1.
         13   -1    0    0    0    0 -0.00000000000E+00 -0.00000000000E+00 -0.10000000000E+04  0.10000000000E+04  0.00000000000E+00 0.  1.
    9000005    2    1    2  501    0 -0.38062541806E+02 -0.41901338125E+01 -0.86793618296E+03  0.86878532660E+03  0.29002966506E+01 0.  0.
         13    1    3    3    0    0 -0.27273751656E+02 -0.41634612997E+01 -0.63741298464E+03  0.63800980002E+03  0.00000000000E+00 0.  1.
          1    1    3    3  501    0 -0.10788790149E+02 -0.26672512890E-01 -0.23052319832E+03  0.23077552658E+03  0.00000000000E+00 0.  1.
         -3    1    1    2    0  502  0.38062541806E+02  0.41901338125E+01 -0.12885452417E+03  0.13442396627E+03  0.00000000000E+00 0. -1.
<mgrwt>
<rscale>  1 0.30000000E+03</rscale>
<asrwt>0</asrwt>
<pdfrwt beam="1">  1       21 0.11670181E-01 0.30000000E+03</pdfrwt>
<pdfrwt beam="2">0</pdfrwt>
<totfact> 0.65181240E+03</totfact>
</mgrwt>
</event>
<event>
 6    1  0.6377696E-002  0.3000000E+03  0.7818608E-02  0.1093470E+00
         21   -1    0    0  501  502  0.00000000000E+00  0.00000000000E+00  0.86364598515E+01  0.86364598515E+01  0.00000000000E+00 0. -1.
         13   -1    0    0    0    0 -0.00000000000E+00 -0.00000000000E+00 -0.10000000000E+04  0.10000000000E+04  0.00000000000E+00 0.  1.
    9000005    2    1    2  501    0 -0.49437107364E+02  0.73346815816E+02 -0.64977104789E+03  0.65577782847E+03  0.42851672438E+01 0.  0.
         13    1    3    3    0    0 -0.31507421997E+02  0.43121208932E+02 -0.38788148078E+03  0.39154080175E+03  0.00000000000E+00 0.  1.
          1    1    3    3  501    0 -0.17929685367E+02  0.30225606884E+02 -0.26188956711E+03  0.26423702672E+03  0.00000000000E+00 0.  1.
         -3    1    1    2    0  502  0.49437107364E+02 -0.73346815816E+02 -0.34159249226E+03  0.35285863139E+03  0.00000000000E+00 0. -1.
<mgrwt>
<rscale>  1 0.30000000E+03</rscale>
<asrwt>0</asrwt>
<pdfrwt beam="1">  1       21 0.31405375E-01 0.30000000E+03</pdfrwt>
<pdfrwt beam="2">0</pdfrwt>
<totfact> 0.99180840E+02</totfact>
</mgrwt>
</event>
<event>
 6    1  0.6377696E-002  0.3000000E+03  0.7818608E-02  0.1093470E+00
         21   -1    0    0  501  502  0.00000000000E+00  0.00000000000E+00  0.27233226601E+01  0.27233226601E+01  0.00000000000E+00 0. -1.
         13   -1    0    0    0    0 -0.00000000000E+00 -0.00000000000E+00 -0.10000000000E+04  0.10000000000E+04  0.00000000000E+00 0.  1.
    9000005    2    1    2  501    0 -0.44542131301E+02  0.20775854473E+02 -0.33236073422E+03  0.33599335558E+03  0.34985356286E+01 0.  0.
         13    1    3    3    0    0 -0.30065188043E+02  0.12991720550E+02 -0.23038497253E+03  0.23270138784E+03  0.00000000000E+00 0.  1.
          1    1    3    3  501    0 -0.14476943257E+02  0.77841339229E+01 -0.10197576169E+03  0.10329196774E+03  0.00000000000E+00 0.  1.
         -3    1    1    2    0  502  0.44542131301E+02 -0.20775854473E+02 -0.66491594312E+03  0.66672996708E+03  0.00000000000E+00 0. -1.
<mgrwt>
<rscale>  1 0.30000000E+03</rscale>
<asrwt>0</asrwt>
<pdfrwt beam="1">  1       21 0.99030124E-02 0.30000000E+03</pdfrwt>
<pdfrwt beam="2">0</pdfrwt>
<totfact> 0.87542882E+03</totfact>
</mgrwt>
</event>
<event>
 6    1  0.6377696E-002  0.3000000E+03  0.7818608E-02  0.1093470E+00
         21   -1    0    0  501  502  0.00000000000E+00  0.00000000000E+00  0.18613878649E+01  0.18613878649E+01  0.00000000000E+00 0. -1.
         13   -1    0    0    0    0 -0.00000000000E+00 -0.00000000000E+00 -0.10000000000E+04  0.10000000000E+04  0.00000000000E+00 0.  1.
    9000005    2    1    2  501    0 -0.39531174173E+02  0.16109672673E+02 -0.52095535875E+03  0.52277257293E+03  0.86279726226E+01 0.  0.
         13    1    3    3    0    0 -0.20764375039E+02  0.58398469337E+01 -0.30432344541E+03  0.30508690976E+03  0.00000000000E+00 0.  1.
          1    1    3    3  501    0 -0.18766799134E+02  0.10269825739E+02 -0.21663191334E+03  0.21768566317E+03  0.00000000000E+00 0.  1.
         -3    1    1    2    0  502  0.39531174173E+02 -0.16109672673E+02 -0.47718325339E+03  0.47908881494E+03  0.00000000000E+00 0. -1.
<mgrwt>
<rscale>  1 0.30000000E+03</rscale>
<asrwt>0</asrwt>
<pdfrwt beam="1">  1       21 0.67686974E-02 0.30000000E+03</pdfrwt>
<pdfrwt beam="2">0</pdfrwt>
<totfact> 0.17105678E+04</totfact>
</mgrwt>
</event>
<event>
 6    1  0.6377696E-002  0.3000000E+03  0.7818608E-02  0.1093470E+00
         21   -1    0    0  501  502  0.00000000000E+00  0.00000000000E+00  0.36476570603E+01  0.36476570603E+01  0.00000000000E+00 0. -1.
         13   -1    0    0    0    0 -0.00000000000E+00 -0.00000000000E+00 -0.10000000000E+04  0.10000000000E+04  0.00000000000E+00 0.  1.
    9000005    2    1    2  501    0  0.19819690067E+02 -0.46776839634E+02 -0.76925854460E+03  0.77094078977E+03  0.31780572860E+01 0.  0.
         13    1    3    3    0    0  0.10683332618E+02 -0.22958747227E+02 -0.40325441957E+03  0.40404871560E+03  0.00000000000E+00 0.  1.
          1    1    3    3  501    0  0.91363574490E+01 -0.23818092407E+02 -0.36600412502E+03  0.36689207417E+03  0.00000000000E+00 0.  1.
         -3    1    1    2    0  502 -0.19819690067E+02  0.46776839634E+02 -0.22709379834E+03  0.23270686729E+03  0.00000000000E+00 0. -1.
<mgrwt>
<rscale>  1 0.30000000E+03</rscale>
<asrwt>0</asrwt>
<pdfrwt beam="1">  1       21 0.13264235E-01 0.30000000E+03</pdfrwt>
<pdfrwt beam="2">0</pdfrwt>
<totfact> 0.51631273E+03</totfact>
</mgrwt>
</event>
<event>
 6    1  0.6377696E-002  0.3000000E+03  0.7818608E-02  0.1093470E+00
         21   -1    0    0  501  502  0.00000000000E+00  0.00000000000E+00  0.18208890389E+01  0.18208890389E+01  0.00000000000E+00 0. -1.
         13   -1    0    0    0    0 -0.00000000000E+00 -0.00000000000E+00 -0.10000000000E+04  0.10000000000E+04  0.00000000000E+00 0.  1.
    9000005    2    1    2  501    0 -0.31998629272E+02  0.16737790114E+02 -0.76464039280E+03  0.76550669401E+03  0.46370653558E+01 0.  0.
         13    1    3    3    0    0 -0.64096557992E+01  0.19188643865E+01 -0.11627000376E+03  0.11646235230E+03  0.00000000000E+00 0.  1.
          3    1    3    3  501    0 -0.25588973473E+02  0.14818925728E+02 -0.64837038904E+03  0.64904434171E+03  0.00000000000E+00 0.  1.
         -3    1    1    2    0  502  0.31998629272E+02 -0.16737790114E+02 -0.23353871816E+03  0.23631419503E+03  0.00000000000E+00 0. -1.
<mgrwt>
<rscale>  1 0.30000000E+03</rscale>
<asrwt>0</asrwt>
<pdfrwt beam="1">  1       21 0.66214286E-02 0.30000000E+03</pdfrwt>
<pdfrwt beam="2">0</pdfrwt>
<totfact> 0.17770997E+04</totfact>
</mgrwt>
</event>
<event>
 6    1  0.6377696E-002  0.3000000E+03  0.7818608E-02  0.1093470E+00
         21   -1    0    0  501  502  0.00000000000E+00  0.00000000000E+00  0.15515271129E+01  0.15515271129E+01  0.00000000000E+00 0. -1.
         13   -1    0    0    0    0 -0.00000000000E+00 -0.00000000000E+00 -0.10000000000E+04  0.10000000000E+04  0.00000000000E+00 0.  1.
    9000005    2    1    2  501    0  0.27394412781E+01 -0.38433758566E+02 -0.40057316849E+03  0.40243589725E+03  0.33361274946E+01 0.  0.
         13    1    3    3    0    0  0.27472485273E+01 -0.33421212925E+02 -0.33640885338E+03  0.33807608830E+03  0.00000000000E+00 0.  1.
          1    1    3    3  501    0 -0.78072491896E-02 -0.50125456410E+01 -0.64164315105E+02  0.64359808947E+02  0.00000000000E+00 0.  1.
         -1    1    1    2    0  502 -0.27394412781E+01  0.38433758566E+02 -0.59787530440E+03  0.59911562986E+03  0.00000000000E+00 0. -1.
<mgrwt>
<rscale>  1 0.30000000E+03</rscale>
<asrwt>0</asrwt>
<pdfrwt beam="1">  1       21 0.56419287E-02 0.30000000E+03</pdfrwt>
<pdfrwt beam="2">0</pdfrwt>
<totfact> 0.23426987E+04</totfact>
</mgrwt>
</event>
<event>
 6    1  0.6377696E-002  0.3000000E+03  0.7818608E-02  0.1093470E+00
         21   -1    0    0  501  502  0.00000000000E+00  0.00000000000E+00  0.13072669146E+01  0.13072669146E+01  0.00000000000E+00 0. -1.
         13   -1    0    0    0    0 -0.00000000000E+00 -0.00000000000E+00 -0.10000000000E+04  0.10000000000E+04  0.00000000000E+00 0.  1.
    9000005    2    1    2  501    0 -0.18081793786E+02  0.30205650557E+02 -0.38958486903E+03  0.39118291676E+03  0.28933715790E+01 0.  0.
         13    1    3    3    0    0 -0.17156783844E+02  0.29541573302E+02 -0.37434834814E+03  0.37590390466E+03  0.00000000000E+00 0.  1.
          3    1    3    3  501    0 -0.92500994129E+00  0.66407725527E+00 -0.15236520885E+02  0.15279012097E+02  0.00000000000E+00 0.  1.
         -1    1    1    2    0  502  0.18081793786E+02 -0.30205650557E+02 -0.60910786406E+03  0.61012435015E+03  0.00000000000E+00 0. -1.
<mgrwt>
<rscale>  1 0.30000000E+03</rscale>
<asrwt>0</asrwt>
<pdfrwt beam="1">  1       21 0.47537079E-02 0.30000000E+03</pdfrwt>
<pdfrwt beam="2">0</pdfrwt>
<totfact> 0.31391858E+04</totfact>
</mgrwt>
</event>
<event>
 6    1  0.6377696E-002  0.3000000E+03  0.7818608E-02  0.1093470E+00
         21   -1    0    0  501  502  0.00000000000E+00  0.00000000000E+00  0.11064198975E+01  0.11064198975E+01  0.00000000000E+00 0. -1.
         13   -1    0    0    0    0 -0.00000000000E+00 -0.00000000000E+00 -0.10000000000E+04  0.10000000000E+04  0.00000000000E+00 0.  1.
    9000005    2    1    2  501    0 -0.86419676989E+01 -0.31670275261E+02 -0.57626216417E+03  0.57720194520E+03  0.25127157767E+01 0.  0.
         13    1    3    3    0    0 -0.64099406581E+01 -0.26833440158E+02 -0.47798235643E+03  0.47877787533E+03  0.00000000000E+00 0.  1.
          1    1    3    3  501    0 -0.22320270408E+01 -0.48368351028E+01 -0.98279807747E+02  0.98424069868E+02  0.00000000000E+00 0.  1.
         -3    1    1    2    0  502  0.86419676989E+01  0.31670275261E+02 -0.42263141593E+03  0.42390447470E+03  0.00000000000E+00 0. -1.
<mgrwt>
<rscale>  1 0.30000000E+03</rscale>
<asrwt>0</asrwt>
<pdfrwt beam="1">  1       21 0.40233536E-02 0.30000000E+03</pdfrwt>
<pdfrwt beam="2">0</pdfrwt>
<totfact> 0.41637068E+04</totfact>
</mgrwt>
</event>
<event>
 6    1  0.6377696E-002  0.3000000E+03  0.7818608E-02  0.1093470E+00
         21   -1    0    0  501  502  0.00000000000E+00  0.00000000000E+00  0.25046174450E+01  0.25046174450E+01  0.00000000000E+00 0. -1.
         13   -1    0    0    0    0 -0.00000000000E+00 -0.00000000000E+00 -0.10000000000E+04  0.10000000000E+04  0.00000000000E+00 0.  1.
    9000005    2    1    2  501    0  0.24941163613E+02 -0.29026923393E+02 -0.82152862036E+03  0.82242428726E+03  0.27946863243E+01 0.  0.
         13    1    3    3    0    0  0.24421033415E+02 -0.27623162211E+02 -0.79192229929E+03  0.79278014233E+03  0.00000000000E+00 0.  1.
          3    1    3    3  501    0  0.52013019801E+00 -0.14037611820E+01 -0.29606321073E+02  0.29644144925E+02  0.00000000000E+00 0.  1.
         -1    1    1    2    0  502 -0.24941163613E+02  0.29026923393E+02 -0.17596676219E+03  0.18008033019E+03  0.00000000000E+00 0. -1.
<mgrwt>
<rscale>  1 0.30000000E+03</rscale>
<asrwt>0</asrwt>
<pdfrwt beam="1">  1       21 0.91077190E-02 0.30000000E+03</pdfrwt>
<pdfrwt beam="2">0</pdfrwt>
<totfact> 0.10161504E+04</totfact>
</mgrwt>
</event>
<event>
 6    1  0.6377696E-002  0.3000000E+03  0.7818608E-02  0.1093470E+00
         21   -1    0    0  501  502  0.00000000000E+00  0.00000000000E+00  0.96905928582E+00  0.96905928582E+00  0.00000000000E+00 0. -1.
         13   -1    0    0    0    0 -0.00000000000E+00 -0.00000000000E+00 -0.10000000000E+04  0.10000000000E+04  0.00000000000E+00 0.  1.
    9000005    2    1    2  501    0  0.29565517096E+02  0.82960195016E+01 -0.57677556657E+03  0.57759860125E+03  0.26732447059E+01 0.  0.
         13    1    3    3    0    0  0.47732410306E+01  0.34452594313E+00 -0.91761299918E+02  0.91886009222E+02  0.00000000000E+00 0.  1.
          1    1    3    3  501    0  0.24792276066E+02  0.79514935585E+01 -0.48501426665E+03  0.48571259203E+03  0.00000000000E+00 0.  1.
         -1    1    1    2    0  502 -0.29565517096E+02 -0.82960195016E+01 -0.42225537415E+03  0.42337045804E+03  0.00000000000E+00 0. -1.
<mgrwt>
<rscale>  1 0.30000000E+03</rscale>
<asrwt>0</asrwt>
<pdfrwt beam="1">  1       21 0.35238594E-02 0.30000000E+03</pdfrwt>
<pdfrwt beam="2">0</pdfrwt>
<totfact> 0.52021480E+04</totfact>
</mgrwt>
</event>
<event>
 6    1  0.6377696E-002  0.3000000E+03  0.7818608E-02  0.1093470E+00
         21   -1    0    0  501  502  0.00000000000E+00  0.00000000000E+00  0.18447615952E+01  0.18447615952E+01  0.00000000000E+00 0. -1.
         13   -1    0    0    0    0 -0.00000000000E+00 -0.00000000000E+00 -0.10000000000E+04  0.10000000000E+04  0.00000000000E+00 0.  1.
    9000005    2    1    2  501    0 -0.39783937933E+02 -0.15683646603E+02 -0.53696699284E+03  0.53867812168E+03  0.34393143077E+01 0.  0.
         13    1    3    3    0    0 -0.17265105654E+02 -0.49824753883E+01 -0.22498510413E+03  0.22570158620E+03  0.00000000000E+00 0.  1.
          1    1    3    3  501    0 -0.22518832279E+02 -0.10701171215E+02 -0.31198188871E+03  0.31297653547E+03  0.00000000000E+00 0.  1.
         -1    1    1    2    0  502  0.39783937933E+02  0.15683646603E+02 -0.46118824556E+03  0.46316663992E+03  0.00000000000E+00 0. -1.
<mgrwt>
<rscale>  1 0.30000000E+03</rscale>
<asrwt>0</asrwt>
<pdfrwt beam="1">  1       21 0.67082381E-02 0.30000000E+03</pdfrwt>
<pdfrwt beam="2">0</pdfrwt>
<totfact> 0.17374104E+04</totfact>
</mgrwt>
</event>
<event>
 6    1  0.6377696E-002  0.3000000E+03  0.7818608E-02  0.1093470E+00
         21   -1    0    0  501  502  0.00000000000E+00  0.00000000000E+00  0.85202541382E+01  0.85202541382E+01  0.00000000000E+00 0. -1.
         13   -1    0    0    0    0 -0.00000000000E+00 -0.00000000000E+00 -0.10000000000E+04  0.10000000000E+04  0.00000000000E+00 0.  1.
    9000005    2    1    2  501    0 -0.97172227450E+01  0.91083383577E+02 -0.55641218820E+03  0.56391437596E+03  0.37806155272E+01 0.  0.
         13    1    3    3    0    0 -0.56479727820E+01  0.35959249080E+02 -0.21835032679E+03  0.22136357514E+03  0.00000000000E+00 0.  1.
          1    1    3    3  501    0 -0.40692499630E+01  0.55124134497E+02 -0.33806186141E+03  0.34255080082E+03  0.00000000000E+00 0.  1.
         -1    1    1    2    0  502  0.97172227450E+01 -0.91083383577E+02 -0.43506755766E+03  0.44460587818E+03  0.00000000000E+00 0. -1.
<mgrwt>
<rscale>  1 0.30000000E+03</rscale>
<asrwt>0</asrwt>
<pdfrwt beam="1">  1       21 0.30982808E-01 0.30000000E+03</pdfrwt>
<pdfrwt beam="2">0</pdfrwt>
<totfact> 0.10192202E+03</totfact>
</mgrwt>
</event>
<event>
 6    1  0.6377696E-002  0.3000000E+03  0.7818608E-02  0.1093470E+00
         21   -1    0    0  501  502  0.00000000000E+00  0.00000000000E+00  0.13281854781E+01  0.13281854781E+01  0.00000000000E+00 0. -1.
         13   -1    0    0    0    0 -0.00000000000E+00 -0.00000000000E+00 -0.10000000000E+04  0.10000000000E+04  0.00000000000E+00 0.  1.
    9000005    2    1    2  501    0  0.29907638421E+02  0.52027358197E+01 -0.23226938553E+03  0.23432478363E+03  0.61238442638E+01 0.  0.
         13    1    3    3    0    0  0.14013483571E+02  0.15068968754E+01 -0.85902716855E+02  0.87051279273E+02  0.00000000000E+00 0.  1.
          1    1    3    3  501    0  0.15894154849E+02  0.36958389443E+01 -0.14636666868E+03  0.14727350435E+03  0.00000000000E+00 0.  1.
         -1    1    1    2    0  502 -0.29907638421E+02 -0.52027358197E+01 -0.76640242899E+03  0.76700340185E+03  0.00000000000E+00 0. -1.
<mgrwt>
<rscale>  1 0.30000000E+03</rscale>
<asrwt>0</asrwt>
<pdfrwt beam="1">  1       21 0.48297756E-02 0.30000000E+03</pdfrwt>
<pdfrwt beam="2">0</pdfrwt>
<totfact> 0.30555274E+04</totfact>
</mgrwt>
</event>
<event>
 6    1  0.6377696E-002  0.3000000E+03  0.7818608E-02  0.1093470E+00
         21   -1    0    0  501  502  0.00000000000E+00  0.00000000000E+00  0.20807911666E+01  0.20807911666E+01  0.00000000000E+00 0. -1.
         13   -1    0    0    0    0 -0.00000000000E+00 -0.00000000000E+00 -0.10000000000E+04  0.10000000000E+04  0.00000000000E+00 0.  1.
    9000005    2    1    2  501    0 -0.23089681951E+02  0.38609245968E+02 -0.57227378578E+03  0.57406463089E+03  0.53951151516E+01 0.  0.
         13    1    3    3    0    0 -0.77097244776E+01  0.10627268813E+02 -0.19543672971E+03  0.19587724220E+03  0.00000000000E+00 0.  1.
          1    1    3    3  501    0 -0.15379957474E+02  0.27981977156E+02 -0.37683705607E+03  0.37818738869E+03  0.00000000000E+00 0.  1.
         -1    1    1    2    0  502  0.23089681951E+02 -0.38609245968E+02 -0.42564542306E+03  0.42801616027E+03  0.00000000000E+00 0. -1.
<mgrwt>
<rscale>  1 0.30000000E+03</rscale>
<asrwt>0</asrwt>
<pdfrwt beam="1">  1       21 0.75665293E-02 0.30000000E+03</pdfrwt>
<pdfrwt beam="2">0</pdfrwt>
<totfact> 0.14084937E+04</totfact>
</mgrwt>
</event>
<event>
 6    1  0.6377696E-002  0.3000000E+03  0.7818608E-02  0.1093470E+00
         21   -1    0    0  501  502  0.00000000000E+00  0.00000000000E+00  0.28799814317E+01  0.28799814317E+01  0.00000000000E+00 0. -1.
         13   -1    0    0    0    0 -0.00000000000E+00 -0.00000000000E+00 -0.10000000000E+04  0.10000000000E+04  0.00000000000E+00 0.  1.
    9000005    2    1    2  501    0 -0.39214006934E+02  0.34092802285E+02 -0.62273995371E+03  0.62491107997E+03  0.29581104053E+01 0.  0.
         13    1    3    3    0    0 -0.27022440362E+02  0.22778151354E+02 -0.40789359413E+03  0.40942183697E+03  0.00000000000E+00 0.  1.
          1    1    3    3  501    0 -0.12191566572E+02  0.11314650931E+02 -0.21484635959E+03  0.21548924300E+03  0.00000000000E+00 0.  1.
         -1    1    1    2    0  502  0.39214006934E+02 -0.34092802285E+02 -0.37438006486E+03  0.37796890146E+03  0.00000000000E+00 0. -1.
<mgrwt>
<rscale>  1 0.30000000E+03</rscale>
<asrwt>0</asrwt>
<pdfrwt beam="1">  1       21 0.10472682E-01 0.30000000E+03</pdfrwt>
<pdfrwt beam="2">0</pdfrwt>
<totfact> 0.79207678E+03</totfact>
</mgrwt>
</event>
<event>
 6    1  0.6377696E-002  0.3000000E+03  0.7818608E-02  0.1093470E+00
         21   -1    0    0  501  502  0.00000000000E+00  0.00000000000E+00  0.11408276873E+01  0.11408276873E+01  0.00000000000E+00 0. -1.
         13   -1    0    0    0    0 -0.00000000000E+00 -0.00000000000E+00 -0.10000000000E+04  0.10000000000E+04  0.00000000000E+00 0.  1.
    9000005    2    1    2  501    0 -0.54426664273E+01  0.30142485635E+02 -0.29262785957E+03  0.29424560266E+03  0.33493931251E+01 0.  0.
         13    1    3    3    0    0 -0.54303912267E+01  0.21836872880E+02 -0.21604923991E+03  0.21721789114E+03  0.00000000000E+00 0.  1.
          1    1    3    3  501    0 -0.12275200605E-01  0.83056127551E+01 -0.76578619655E+02  0.77027711521E+02  0.00000000000E+00 0.  1.
         -3    1    1    2    0  502  0.54426664273E+01 -0.30142485635E+02 -0.70623131275E+03  0.70689522503E+03  0.00000000000E+00 0. -1.
<mgrwt>
<rscale>  1 0.30000000E+03</rscale>
<asrwt>0</asrwt>
<pdfrwt beam="1">  1       21 0.41484731E-02 0.30000000E+03</pdfrwt>
<pdfrwt beam="2">0</pdfrwt>
<totfact> 0.39541869E+04</totfact>
</mgrwt>
</event>
<event>
 6    1  0.6377696E-002  0.3000000E+03  0.7818608E-02  0.1093470E+00
         21   -1    0    0  501  502  0.00000000000E+00  0.00000000000E+00  0.14167815168E+01  0.14167815168E+01  0.00000000000E+00 0. -1.
         13   -1    0    0    0    0 -0.00000000000E+00 -0.00000000000E+00 -0.10000000000E+04  0.10000000000E+04  0.00000000000E+00 0.  1.
    9000005    2    1    2  501    0 -0.29489093778E+02 -0.22400449147E+02 -0.43675795968E+03  0.43837237101E+03  0.64368895496E+01 0.  0.
         13    1    3    3    0    0 -0.23968002166E+02 -0.19926810734E+02 -0.38565308033E+03  0.38691063733E+03  0.00000000000E+00 0.  1.
          1    1    3    3  501    0 -0.55210916115E+01 -0.24736384131E+01 -0.51104879351E+02  0.51461733677E+02  0.00000000000E+00 0.  1.
         -1    1    1    2    0  502  0.29489093778E+02  0.22400449147E+02 -0.56182525881E+03  0.56304441051E+03  0.00000000000E+00 0. -1.
<mgrwt>
<rscale>  1 0.30000000E+03</rscale>
<asrwt>0</asrwt>
<pdfrwt beam="1">  1       21 0.51519437E-02 0.30000000E+03</pdfrwt>
<pdfrwt beam="2">0</pdfrwt>
<totfact> 0.27370470E+04</totfact>
</mgrwt>
</event>
<event>
 6    1  0.6377696E-002  0.3000000E+03  0.7818608E-02  0.1093470E+00
         21   -1    0    0  501  502  0.00000000000E+00  0.00000000000E+00  0.11235587567E+01  0.11235587567E+01  0.00000000000E+00 0. -1.
         13   -1    0    0    0    0 -0.00000000000E+00 -0.00000000000E+00 -0.10000000000E+04  0.10000000000E+04  0.00000000000E+00 0.  1.
    9000005    2    1    2  501    0  0.18292481292E+02 -0.27973907629E+02 -0.48933819300E+03  0.49049024531E+03  0.34145621699E+01 0.  0.
         13    1    3    3    0    0  0.45958742634E+00 -0.17056697409E+01 -0.34572542512E+02  0.34617643271E+02  0.00000000000E+00 0.  1.
          3    1    3    3  501    0  0.17832893866E+02 -0.26268237888E+02 -0.45476565049E+03  0.45587260204E+03  0.00000000000E+00 0.  1.
         -1    1    1    2    0  502 -0.18292481292E+02  0.27973907629E+02 -0.50953824824E+03  0.51063331345E+03  0.00000000000E+00 0. -1.
<mgrwt>
<rscale>  1 0.30000000E+03</rscale>
<asrwt>0</asrwt>
<pdfrwt beam="1">  1       21 0.40856768E-02 0.30000000E+03</pdfrwt>
<pdfrwt beam="2">0</pdfrwt>
<totfact> 0.40572330E+04</totfact>
</mgrwt>
</event>
<event>
 6    1  0.6377696E-002  0.3000000E+03  0.7818608E-02  0.1093470E+00
         21   -1    0    0  501  502  0.00000000000E+00  0.00000000000E+00  0.12229881780E+01  0.12229881780E+01  0.00000000000E+00 0. -1.
         13   -1    0    0    0    0 -0.00000000000E+00 -0.00000000000E+00 -0.10000000000E+04  0.10000000000E+04  0.00000000000E+00 0.  1.
    9000005    2    1    2  501    0  0.17841734084E+02 -0.25700646744E+02 -0.27907590592E+03  0.28084216350E+03  0.31794369958E+01 0.  0.
         13    1    3    3    0    0  0.17688969466E+02 -0.25627127313E+02 -0.27405645127E+03  0.27581984659E+03  0.00000000000E+00 0.  1.
          3    1    3    3  501    0  0.15276461788E+00 -0.73519431199E-01 -0.50194546508E+01  0.50223169083E+01  0.00000000000E+00 0.  1.
         -1    1    1    2    0  502 -0.17841734084E+02  0.25700646744E+02 -0.71970110591E+03  0.72038082467E+03  0.00000000000E+00 0. -1.
<mgrwt>
<rscale>  1 0.30000000E+03</rscale>
<asrwt>0</asrwt>
<pdfrwt beam="1">  1       21 0.44472391E-02 0.30000000E+03</pdfrwt>
<pdfrwt beam="2">0</pdfrwt>
<totfact> 0.35154424E+04</totfact>
</mgrwt>
</event>
<event>
 6    1  0.6377696E-002  0.3000000E+03  0.7818608E-02  0.1093470E+00
         21   -1    0    0  501  502  0.00000000000E+00  0.00000000000E+00  0.12953329120E+01  0.12953329120E+01  0.00000000000E+00 0. -1.
         13   -1    0    0    0    0 -0.00000000000E+00 -0.00000000000E+00 -0.10000000000E+04  0.10000000000E+04  0.00000000000E+00 0.  1.
    9000005    2    1    2  501    0  0.12221021515E+02 -0.33724126592E+02 -0.52233012566E+03  0.52357221876E+03  0.35267543743E+01 0.  0.
         13    1    3    3    0    0  0.10867313234E+02 -0.32128901587E+02 -0.49687810141E+03  0.49803434869E+03  0.00000000000E+00 0.  1.
          1    1    3    3  501    0  0.13537082811E+01 -0.15952250049E+01 -0.25452024249E+02  0.25537870062E+02  0.00000000000E+00 0.  1.
         -1    1    1    2    0  502 -0.12221021515E+02  0.33724126592E+02 -0.47637454142E+03  0.47772311416E+03  0.00000000000E+00 0. -1.
<mgrwt>
<rscale>  1 0.30000000E+03</rscale>
<asrwt>0</asrwt>
<pdfrwt beam="1">  1       21 0.47103114E-02 0.30000000E+03</pdfrwt>
<pdfrwt beam="2">0</pdfrwt>
<totfact> 0.31885300E+04</totfact>
</mgrwt>
</event>
<event>
 6    1  0.6377696E-002  0.3000000E+03  0.7818608E-02  0.1093470E+00
         21   -1    0    0  501  502  0.00000000000E+00  0.00000000000E+00  0.52592437839E+01  0.52592437839E+01  0.00000000000E+00 0. -1.
         13   -1    0    0    0    0 -0.00000000000E+00 -0.00000000000E+00 -0.10000000000E+04  0.10000000000E+04  0.00000000000E+00 0.  1.
    9000005    2    1    2  501    0  0.89277358168E+01  0.70523839605E+02 -0.59544158625E+03  0.59968170058E+03  0.37607113391E+01 0.  0.
         13    1    3    3    0    0  0.39979527207E+01  0.38812337979E+02 -0.31286884440E+03  0.31529239604E+03  0.00000000000E+00 0.  1.
          1    1    3    3  501    0  0.49297830961E+01  0.31711501626E+02 -0.28257274185E+03  0.28438930454E+03  0.00000000000E+00 0.  1.
         -3    1    1    2    0  502 -0.89277358168E+01 -0.70523839605E+02 -0.39929916996E+03  0.40557754321E+03  0.00000000000E+00 0. -1.
<mgrwt>
<rscale>  1 0.30000000E+03</rscale>
<asrwt>0</asrwt>
<pdfrwt beam="1">  1       21 0.19124563E-01 0.30000000E+03</pdfrwt>
<pdfrwt beam="2">0</pdfrwt>
<totfact> 0.26125162E+03</totfact>
</mgrwt>
</event>
<event>
 6    1  0.6377696E-002  0.3000000E+03  0.7818608E-02  0.1093470E+00
         21   -1    0    0  501  502  0.00000000000E+00  0.00000000000E+00  0.18026145307E+01  0.18026145307E+01  0.00000000000E+00 0. -1.
         13   -1    0    0    0    0 -0.00000000000E+00 -0.00000000000E+00 -0.10000000000E+04  0.10000000000E+04  0.00000000000E+00 0.  1.
    9000005    2    1    2  501    0 -0.38551780082E+02  0.17636011044E+02 -0.50775948468E+03  0.50953581373E+03  0.31277092144E+01 0.  0.
         13    1    3    3    0    0 -0.74050215249E+01  0.31230480118E+01 -0.82634250697E+02  0.83024136015E+02  0.00000000000E+00 0.  1.
          1    1    3    3  501    0 -0.31146758557E+02  0.14512963033E+02 -0.42512523398E+03  0.42651167772E+03  0.00000000000E+00 0.  1.
         -3    1    1    2    0  502  0.38551780082E+02 -0.17636011044E+02 -0.49043790079E+03  0.49226680080E+03  0.00000000000E+00 0. -1.
<mgrwt>
<rscale>  1 0.30000000E+03</rscale>
<asrwt>0</asrwt>
<pdfrwt beam="1">  1       21 0.65549758E-02 0.30000000E+03</pdfrwt>
<pdfrwt beam="2">0</pdfrwt>
<totfact> 0.18084336E+04</totfact>
</mgrwt>
</event>
<event>
 6    1  0.6377696E-002  0.3000000E+03  0.7818608E-02  0.1093470E+00
         21   -1    0    0  501  502  0.00000000000E+00  0.00000000000E+00  0.14483857797E+01  0.14483857797E+01  0.00000000000E+00 0. -1.
         13   -1    0    0    0    0 -0.00000000000E+00 -0.00000000000E+00 -0.10000000000E+04  0.10000000000E+04  0.00000000000E+00 0.  1.
    9000005    2    1    2  501    0 -0.14693214541E+02 -0.33532684070E+02 -0.38041344069E+03  0.38222699320E+03  0.65388850579E+01 0.  0.
         13    1    3    3    0    0 -0.30323596229E+01 -0.14917650077E+02 -0.15409093238E+03  0.15484103762E+03  0.00000000000E+00 0.  1.
          3    1    3    3  501    0 -0.11660854918E+02 -0.18615033992E+02 -0.22632250831E+03  0.22738595558E+03  0.00000000000E+00 0.  1.
         -3    1    1    2    0  502  0.14693214541E+02  0.33532684070E+02 -0.61813817353E+03  0.61922139258E+03  0.00000000000E+00 0. -1.
<mgrwt>
<rscale>  1 0.30000000E+03</rscale>
<asrwt>0</asrwt>
<pdfrwt beam="1">  1       21 0.52668685E-02 0.30000000E+03</pdfrwt>
<pdfrwt beam="2">0</pdfrwt>
<totfact> 0.26357992E+04</totfact>
</mgrwt>
</event>
<event>
 6    1  0.6377696E-002  0.3000000E+03  0.7818608E-02  0.1093470E+00
         21   -1    0    0  501  502  0.00000000000E+00  0.00000000000E+00  0.17617570874E+01  0.17617570874E+01  0.00000000000E+00 0. -1.
         13   -1    0    0    0    0 -0.00000000000E+00 -0.00000000000E+00 -0.10000000000E+04  0.10000000000E+04  0.00000000000E+00 0.  1.
    9000005    2    1    2  501    0  0.32553565066E+02 -0.65969607073E+01 -0.80466585915E+03  0.80536032572E+03  0.38542012267E+01 0.  0.
         13    1    3    3    0    0  0.16680591886E+02 -0.43730008521E+01 -0.45692394830E+03  0.45724923161E+03  0.00000000000E+00 0.  1.
          1    1    3    3  501    0  0.15872973180E+02 -0.22239598553E+01 -0.34774191086E+03  0.34811109411E+03  0.00000000000E+00 0.  1.
         -3    1    1    2    0  502 -0.32553565066E+02  0.65969607073E+01 -0.19357238376E+03  0.19640143137E+03  0.00000000000E+00 0. -1.
<mgrwt>
<rscale>  1 0.30000000E+03</rscale>
<asrwt>0</asrwt>
<pdfrwt beam="1">  1       21 0.64064029E-02 0.30000000E+03</pdfrwt>
<pdfrwt beam="2">0</pdfrwt>
<totfact> 0.18816499E+04</totfact>
</mgrwt>
</event>
<event>
 6    1  0.6377696E-002  0.3000000E+03  0.7818608E-02  0.1093470E+00
         21   -1    0    0  501  502  0.00000000000E+00  0.00000000000E+00  0.15316366832E+01  0.15316366832E+01  0.00000000000E+00 0. -1.
         13   -1    0    0    0    0 -0.00000000000E+00 -0.00000000000E+00 -0.10000000000E+04  0.10000000000E+04  0.00000000000E+00 0.  1.
    9000005    2    1    2  501    0 -0.60782415070E+01  0.30870207490E+02 -0.79580797181E+03  0.79644348730E+03  0.46888955680E+01 0.  0.
         13    1    3    3    0    0 -0.47141312472E+01  0.18190399342E+02 -0.52326868258E+03  0.52360598529E+03  0.00000000000E+00 0.  1.
          3    1    3    3  501    0 -0.13641102598E+01  0.12679808147E+02 -0.27253928923E+03  0.27283750201E+03  0.00000000000E+00 0.  1.
         -3    1    1    2    0  502  0.60782415070E+01 -0.30870207490E+02 -0.20266039151E+03  0.20508814938E+03  0.00000000000E+00 0. -1.
<mgrwt>
<rscale>  1 0.30000000E+03</rscale>
<asrwt>0</asrwt>
<pdfrwt beam="1">  1       21 0.55695997E-02 0.30000000E+03</pdfrwt>
<pdfrwt beam="2">0</pdfrwt>
<totfact> 0.23951838E+04</totfact>
</mgrwt>
</event>
<event>
 6    1  0.6377696E-002  0.3000000E+03  0.7818608E-02  0.1093470E+00
         21   -1    0    0  501  502  0.00000000000E+00  0.00000000000E+00  0.17891629939E+01  0.17891629939E+01  0.00000000000E+00 0. -1.
         13   -1    0    0    0    0 -0.00000000000E+00 -0.00000000000E+00 -0.10000000000E+04  0.10000000000E+04  0.00000000000E+00 0.  1.
    9000005    2    1    2  501    0  0.31099994717E+02  0.28564713333E+02 -0.50204997002E+03  0.50383458831E+03  0.34594020218E+01 0.  0.
         13    1    3    3    0    0  0.17739989849E+02  0.15133849950E+02 -0.25911740075E+03  0.26016450185E+03  0.00000000000E+00 0.  1.
          1    1    3    3  501    0  0.13360004868E+02  0.13430863383E+02 -0.24293256927E+03  0.24367008646E+03  0.00000000000E+00 0.  1.
         -3    1    1    2    0  502 -0.31099994717E+02 -0.28564713333E+02 -0.49616086699E+03  0.49795457468E+03  0.00000000000E+00 0. -1.
<mgrwt>
<rscale>  1 0.30000000E+03</rscale>
<asrwt>0</asrwt>
<pdfrwt beam="1">  1       21 0.65060610E-02 0.30000000E+03</pdfrwt>
<pdfrwt beam="2">0</pdfrwt>
<totfact> 0.18320457E+04</totfact>
</mgrwt>
</event>
<event>
 6    1  0.6377696E-002  0.3000000E+03  0.7818608E-02  0.1093470E+00
         21   -1    0    0  501  502  0.00000000000E+00  0.00000000000E+00  0.12632915028E+01  0.12632915028E+01  0.00000000000E+00 0. -1.
         13   -1    0    0    0    0 -0.00000000000E+00 -0.00000000000E+00 -0.10000000000E+04  0.10000000000E+04  0.00000000000E+00 0.  1.
    9000005    2    1    2  501    0 -0.29443969485E+02 -0.11811950415E+02 -0.72399479272E+03  0.72469577751E+03  0.30067494929E+01 0.  0.
         13    1    3    3    0    0 -0.14411918673E+02 -0.43135331504E+01 -0.32775297218E+03  0.32809803526E+03  0.00000000000E+00 0.  1.
          1    1    3    3  501    0 -0.15032050812E+02 -0.74984172642E+01 -0.39624182055E+03  0.39659774226E+03  0.00000000000E+00 0.  1.
         -1    1    1    2    0  502  0.29443969485E+02  0.11811950415E+02 -0.27474191578E+03  0.27656751399E+03  0.00000000000E+00 0. -1.
<mgrwt>
<rscale>  1 0.30000000E+03</rscale>
<asrwt>0</asrwt>
<pdfrwt beam="1">  1       21 0.45937970E-02 0.30000000E+03</pdfrwt>
<pdfrwt beam="2">0</pdfrwt>
<totfact> 0.33271974E+04</totfact>
</mgrwt>
</event>
<event>
 6    1  0.6377696E-002  0.3000000E+03  0.7818608E-02  0.1093470E+00
         21   -1    0    0  501  502  0.00000000000E+00  0.00000000000E+00  0.11724898909E+01  0.11724898909E+01  0.00000000000E+00 0. -1.
         13   -1    0    0    0    0 -0.00000000000E+00 -0.00000000000E+00 -0.10000000000E+04  0.10000000000E+04  0.00000000000E+00 0.  1.
    9000005    2    1    2  501    0  0.30173058742E+02 -0.46156745685E+00 -0.73440192179E+03  0.73503057610E+03  0.36247144392E+01 0.  0.
         13    1    3    3    0    0  0.21996144688E+02 -0.19138561163E+01 -0.54170094711E+03  0.54215072566E+03  0.00000000000E+00 0.  1.
          1    1    3    3  501    0  0.81769140539E+01  0.14522886594E+01 -0.19270097468E+03  0.19287985045E+03  0.00000000000E+00 0.  1.
         -1    1    1    2    0  502 -0.30173058742E+02  0.46156745685E+00 -0.26442558831E+03  0.26614191379E+03  0.00000000000E+00 0. -1.
<mgrwt>
<rscale>  1 0.30000000E+03</rscale>
<asrwt>0</asrwt>
<pdfrwt beam="1">  1       21 0.42636086E-02 0.30000000E+03</pdfrwt>
<pdfrwt beam="2">0</pdfrwt>
<totfact> 0.37755399E+04</totfact>
</mgrwt>
</event>
<event>
 6    1  0.6377696E-002  0.3000000E+03  0.7818608E-02  0.1093470E+00
         21   -1    0    0  501  502  0.00000000000E+00  0.00000000000E+00  0.11859936930E+01  0.11859936930E+01  0.00000000000E+00 0. -1.
         13   -1    0    0    0    0 -0.00000000000E+00 -0.00000000000E+00 -0.10000000000E+04  0.10000000000E+04  0.00000000000E+00 0.  1.
    9000005    2    1    2  501    0  0.20475088801E+02  0.22630614623E+02 -0.73018092437E+03  0.73082492643E+03  0.30849312275E+01 0.  0.
         13    1    3    3    0    0  0.12869944640E+02  0.12485997524E+02 -0.40428043812E+03  0.40467790680E+03  0.00000000000E+00 0.  1.
          1    1    3    3  501    0  0.76051441613E+01  0.10144617098E+02 -0.32590048626E+03  0.32614701963E+03  0.00000000000E+00 0.  1.
         -3    1    1    2    0  502 -0.20475088801E+02 -0.22630614623E+02 -0.26863308194E+03  0.27036106726E+03  0.00000000000E+00 0. -1.
<mgrwt>
<rscale>  1 0.30000000E+03</rscale>
<asrwt>0</asrwt>
<pdfrwt beam="1">  1       21 0.43127134E-02 0.30000000E+03</pdfrwt>
<pdfrwt beam="2">0</pdfrwt>
<totfact> 0.37031370E+04</totfact>
</mgrwt>
</event>
<event>
 6    1  0.6377696E-002  0.3000000E+03  0.7818608E-02  0.1093470E+00
         21   -1    0    0  501  502  0.00000000000E+00  0.00000000000E+00  0.11460872855E+01  0.11460872855E+01  0.00000000000E+00 0. -1.
         13   -1    0    0    0    0 -0.00000000000E+00 -0.00000000000E+00 -0.10000000000E+04  0.10000000000E+04  0.00000000000E+00 0.  1.
    9000005    2    1    2  501    0  0.84024528744E+01 -0.31825010365E+02 -0.38570988435E+03  0.38711918884E+03  0.23914392326E+01 0.  0.
         13    1    3    3    0    0  0.58074063448E+00 -0.78060071018E+00 -0.95728154436E+01  0.96221303603E+01  0.00000000000E+00 0.  1.
          3    1    3    3  501    0  0.78217122399E+01 -0.31044409655E+02 -0.37613706891E+03  0.37749705848E+03  0.00000000000E+00 0.  1.
         -3    1    1    2    0  502 -0.84024528744E+01  0.31825010365E+02 -0.61314402836E+03  0.61402689845E+03  0.00000000000E+00 0. -1.
<mgrwt>
<rscale>  1 0.30000000E+03</rscale>
<asrwt>0</asrwt>
<pdfrwt beam="1">  1       21 0.41675989E-02 0.30000000E+03</pdfrwt>
<pdfrwt beam="2">0</pdfrwt>
<totfact> 0.39236111E+04</totfact>
</mgrwt>
</event>
<event>
 6    1  0.6377696E-002  0.3000000E+03  0.7818608E-02  0.1093470E+00
         21   -1    0    0  501  502  0.00000000000E+00  0.00000000000E+00  0.12567560795E+01  0.12567560795E+01  0.00000000000E+00 0. -1.
         13   -1    0    0    0    0 -0.00000000000E+00 -0.00000000000E+00 -0.10000000000E+04  0.10000000000E+04  0.00000000000E+00 0.  1.
    9000005    2    1    2  501    0  0.48241327171E+01  0.34559268585E+02 -0.56983278194E+03  0.57092920676E+03  0.57571228727E+01 0.  0.
         13    1    3    3    0    0  0.22331935455E+01  0.51994642544E+01 -0.70116348532E+02  0.70344323960E+02  0.00000000000E+00 0.  1.
          3    1    3    3  501    0  0.25909391716E+01  0.29359804331E+02 -0.49971643341E+03  0.50058488280E+03  0.00000000000E+00 0.  1.
         -3    1    1    2    0  502 -0.48241327171E+01 -0.34559268585E+02 -0.42891046198E+03  0.43032754931E+03  0.00000000000E+00 0. -1.
<mgrwt>
<rscale>  1 0.30000000E+03</rscale>
<asrwt>0</asrwt>
<pdfrwt beam="1">  1       21 0.45700317E-02 0.30000000E+03</pdfrwt>
<pdfrwt beam="2">0</pdfrwt>
<totfact> 0.33566428E+04</totfact>
</mgrwt>
</event>
<event>
 6    1  0.6377696E-002  0.3000000E+03  0.7818608E-02  0.1093470E+00
         21   -1    0    0  501  502  0.00000000000E+00  0.00000000000E+00  0.15085489474E+01  0.15085489474E+01  0.00000000000E+00 0. -1.
         13   -1    0    0    0    0 -0.00000000000E+00 -0.00000000000E+00 -0.10000000000E+04  0.10000000000E+04  0.00000000000E+00 0.  1.
    9000005    2    1    2  501    0 -0.11801668221E+02 -0.32766153726E+02 -0.28084284940E+03  0.28301539264E+03  0.34793980550E+01 0.  0.
         13    1    3    3    0    0 -0.10591438375E+02 -0.26137839773E+02 -0.23293018064E+03  0.23463127304E+03  0.00000000000E+00 0.  1.
          3    1    3    3  501    0 -0.12102298459E+01 -0.66283139526E+01 -0.47912668760E+02  0.48384119604E+02  0.00000000000E+00 0.  1.
         -3    1    1    2    0  502  0.11801668221E+02  0.32766153726E+02 -0.71764860166E+03  0.71849315631E+03  0.00000000000E+00 0. -1.
<mgrwt>
<rscale>  1 0.30000000E+03</rscale>
<asrwt>0</asrwt>
<pdfrwt beam="1">  1       21 0.54856441E-02 0.30000000E+03</pdfrwt>
<pdfrwt beam="2">0</pdfrwt>
<totfact> 0.24584064E+04</totfact>
</mgrwt>
</event>
<event>
 6    1  0.6377696E-002  0.3000000E+03  0.7818608E-02  0.1093470E+00
         21   -1    0    0  501  502  0.00000000000E+00  0.00000000000E+00  0.16089663743E+01  0.16089663743E+01  0.00000000000E+00 0. -1.
         13   -1    0    0    0    0 -0.00000000000E+00 -0.00000000000E+00 -0.10000000000E+04  0.10000000000E+04  0.00000000000E+00 0.  1.
    9000005    2    1    2  501    0  0.33247156703E+02  0.18290291804E+02 -0.65848805560E+03  0.65959443061E+03  0.42878107627E+01 0.  0.
         13    1    3    3    0    0  0.55272999837E+00  0.39895106099E+00 -0.52523290772E+01  0.52963792477E+01  0.00000000000E+00 0.  1.
          3    1    3    3  501    0  0.32694426705E+02  0.17891340743E+02 -0.65323572652E+03  0.65429805136E+03  0.00000000000E+00 0.  1.
         -1    1    1    2    0  502 -0.33247156703E+02 -0.18290291804E+02 -0.33990297803E+03  0.34201453577E+03  0.00000000000E+00 0. -1.
<mgrwt>
<rscale>  1 0.30000000E+03</rscale>
<asrwt>0</asrwt>
<pdfrwt beam="1">  1       21 0.58507992E-02 0.30000000E+03</pdfrwt>
<pdfrwt beam="2">0</pdfrwt>
<totfact> 0.22006484E+04</totfact>
</mgrwt>
</event>
<event>
 6    1  0.6377696E-002  0.3000000E+03  0.7818608E-02  0.1093470E+00
         21   -1    0    0  501  502  0.00000000000E+00  0.00000000000E+00  0.11350564474E+01  0.11350564474E+01  0.00000000000E+00 0. -1.
         13   -1    0    0    0    0 -0.00000000000E+00 -0.00000000000E+00 -0.10000000000E+04  0.10000000000E+04  0.00000000000E+00 0.  1.
    9000005    2    1    2  501    0 -0.19288404384E+02  0.27492248778E+02 -0.51849458428E+03  0.51959217326E+03  0.33950394072E+01 0.  0.
         13    1    3    3    0    0 -0.10816305467E+02  0.13961796469E+02 -0.24952687985E+03  0.25015113031E+03  0.00000000000E+00 0.  1.
          3    1    3    3  501    0 -0.84720989167E+01  0.13530452310E+02 -0.26896770443E+03  0.26944104295E+03  0.00000000000E+00 0.  1.
         -1    1    1    2    0  502  0.19288404384E+02 -0.27492248778E+02 -0.48037035927E+03  0.48154288319E+03  0.00000000000E+00 0. -1.
<mgrwt>
<rscale>  1 0.30000000E+03</rscale>
<asrwt>0</asrwt>
<pdfrwt beam="1">  1       21 0.41274867E-02 0.30000000E+03</pdfrwt>
<pdfrwt beam="2">0</pdfrwt>
<totfact> 0.39881663E+04</totfact>
</mgrwt>
</event>
<event>
 6    1  0.6377696E-002  0.3000000E+03  0.7818608E-02  0.1093470E+00
         21   -1    0    0  501  502  0.00000000000E+00  0.00000000000E+00  0.21013734714E+01  0.21013734714E+01  0.00000000000E+00 0. -1.
         13   -1    0    0    0    0 -0.00000000000E+00 -0.00000000000E+00 -0.10000000000E+04  0.10000000000E+04  0.00000000000E+00 0.  1.
    9000005    2    1    2  501    0 -0.17605444463E+02  0.34358074717E+02 -0.23219420334E+03  0.23542432760E+03  0.44762695381E+01 0.  0.
         13    1    3    3    0    0 -0.15517646426E+02  0.31576339647E+02 -0.20335602695E+03  0.20637716995E+03  0.00000000000E+00 0.  1.
          1    1    3    3  501    0 -0.20877980370E+01  0.27817350699E+01 -0.28838176384E+02  0.29047157654E+02  0.00000000000E+00 0.  1.
         -1    1    1    2    0  502  0.17605444463E+02 -0.34358074717E+02 -0.76570442319E+03  0.76667704587E+03  0.00000000000E+00 0. -1.
<mgrwt>
<rscale>  1 0.30000000E+03</rscale>
<asrwt>0</asrwt>
<pdfrwt beam="1">  1       21 0.76413742E-02 0.30000000E+03</pdfrwt>
<pdfrwt beam="2">0</pdfrwt>
<totfact> 0.13844136E+04</totfact>
</mgrwt>
</event>
<event>
 6    1  0.6377696E-002  0.3000000E+03  0.7818608E-02  0.1093470E+00
         21   -1    0    0  501  502  0.00000000000E+00  0.00000000000E+00  0.17211108842E+01  0.17211108842E+01  0.00000000000E+00 0. -1.
         13   -1    0    0    0    0 -0.00000000000E+00 -0.00000000000E+00 -0.10000000000E+04  0.10000000000E+04  0.00000000000E+00 0.  1.
    9000005    2    1    2  501    0  0.13163646322E+02  0.37683706665E+02 -0.36661087319E+03  0.36879313261E+03  0.33910161062E+01 0.  0.
         13    1    3    3    0    0  0.88716763587E+01  0.22246253051E+02 -0.23143810568E+03  0.23267401913E+03  0.00000000000E+00 0.  1.
          1    1    3    3  501    0  0.42919699635E+01  0.15437453614E+02 -0.13517276750E+03  0.13611911348E+03  0.00000000000E+00 0.  1.
         -3    1    1    2    0  502 -0.13163646322E+02 -0.37683706665E+02 -0.63166801593E+03  0.63292797827E+03  0.00000000000E+00 0. -1.
<mgrwt>
<rscale>  1 0.30000000E+03</rscale>
<asrwt>0</asrwt>
<pdfrwt beam="1">  1       21 0.62585982E-02 0.30000000E+03</pdfrwt>
<pdfrwt beam="2">0</pdfrwt>
<totfact> 0.19591376E+04</totfact>
</mgrwt>
</event>
<event>
 6    1  0.6377696E-002  0.3000000E+03  0.7818608E-02  0.1093470E+00
         21   -1    0    0  501  502  0.00000000000E+00  0.00000000000E+00  0.12136829818E+01  0.12136829818E+01  0.00000000000E+00 0. -1.
         13   -1    0    0    0    0 -0.00000000000E+00 -0.00000000000E+00 -0.10000000000E+04  0.10000000000E+04  0.00000000000E+00 0.  1.
    9000005    2    1    2  501    0  0.22528503196E+02 -0.25409516676E+02 -0.60275025382E+03  0.60372438709E+03  0.47000100944E+01 0.  0.
         13    1    3    3    0    0  0.12379433810E+02 -0.16458771405E+02 -0.39126588884E+03  0.39180752585E+03  0.00000000000E+00 0.  1.
          3    1    3    3  501    0  0.10149069385E+02 -0.89507452707E+01 -0.21148436498E+03  0.21191686124E+03  0.00000000000E+00 0.  1.
         -3    1    1    2    0  502 -0.22528503196E+02  0.25409516676E+02 -0.39603606320E+03  0.39748929589E+03  0.00000000000E+00 0. -1.
<mgrwt>
<rscale>  1 0.30000000E+03</rscale>
<asrwt>0</asrwt>
<pdfrwt beam="1">  1       21 0.44134020E-02 0.30000000E+03</pdfrwt>
<pdfrwt beam="2">0</pdfrwt>
<totfact> 0.35612442E+04</totfact>
</mgrwt>
</event>
<event>
 6    1  0.6377696E-002  0.3000000E+03  0.7818608E-02  0.1093470E+00
         21   -1    0    0  501  502  0.00000000000E+00  0.00000000000E+00  0.11326202415E+01  0.11326202415E+01  0.00000000000E+00 0. -1.
         13   -1    0    0    0    0 -0.00000000000E+00 -0.00000000000E+00 -0.10000000000E+04  0.10000000000E+04  0.00000000000E+00 0.  1.
    9000005    2    1    2  501    0  0.29618163582E+02 -0.12087259147E+02 -0.65270011946E+03  0.65349040538E+03  0.29877315302E+01 0.  0.
         13    1    3    3    0    0  0.33843854970E+01 -0.18774867492E+01 -0.63014359392E+02  0.63133101549E+02  0.00000000000E+00 0.  1.
          3    1    3    3  501    0  0.26233778085E+02 -0.10209772398E+02 -0.58968576006E+03  0.59035730383E+03  0.00000000000E+00 0.  1.
         -1    1    1    2    0  502 -0.29618163582E+02  0.12087259147E+02 -0.34616726030E+03  0.34764221486E+03  0.00000000000E+00 0. -1.
<mgrwt>
<rscale>  1 0.30000000E+03</rscale>
<asrwt>0</asrwt>
<pdfrwt beam="1">  1       21 0.41186277E-02 0.30000000E+03</pdfrwt>
<pdfrwt beam="2">0</pdfrwt>
<totfact> 0.40026468E+04</totfact>
</mgrwt>
</event>
<event>
 6    1  0.6377696E-002  0.3000000E+03  0.7818608E-02  0.1093470E+00
         21   -1    0    0  501  502  0.00000000000E+00  0.00000000000E+00  0.19870807082E+01  0.19870807082E+01  0.00000000000E+00 0. -1.
         13   -1    0    0    0    0 -0.00000000000E+00 -0.00000000000E+00 -0.10000000000E+04  0.10000000000E+04  0.00000000000E+00 0.  1.
    9000005    2    1    2  501    0 -0.44429390480E+02 -0.90976360574E+00 -0.52800768257E+03  0.52988569229E+03  0.34547972001E+01 0.  0.
         13    1    3    3    0    0 -0.32010697731E+02  0.84230860445E+00 -0.37448204514E+03  0.37584863494E+03  0.00000000000E+00 0.  1.
          3    1    3    3  501    0 -0.12418692749E+02 -0.17520722102E+01 -0.15352563743E+03  0.15403705735E+03  0.00000000000E+00 0.  1.
         -3    1    1    2    0  502  0.44429390480E+02  0.90976360574E+00 -0.47000523672E+03  0.47210138842E+03  0.00000000000E+00 0. -1.
<mgrwt>
<rscale>  1 0.30000000E+03</rscale>
<asrwt>0</asrwt>
<pdfrwt beam="1">  1       21 0.72257633E-02 0.30000000E+03</pdfrwt>
<pdfrwt beam="2">0</pdfrwt>
<totfact> 0.15266970E+04</totfact>
</mgrwt>
</event>
<event>
 6    1  0.6377696E-002  0.3000000E+03  0.7818608E-02  0.1093470E+00
         21   -1    0    0  501  502  0.00000000000E+00  0.00000000000E+00  0.40367586953E+01  0.40367586953E+01  0.00000000000E+00 0. -1.
         13   -1    0    0    0    0 -0.00000000000E+00 -0.00000000000E+00 -0.10000000000E+04  0.10000000000E+04  0.00000000000E+00 0.  1.
    9000005    2    1    2  501    0 -0.25339658437E+02  0.51061850986E+02 -0.71920084912E+03  0.72146494014E+03  0.35195959279E+01 0.  0.
         13    1    3    3    0    0 -0.12058008721E+02  0.25683855242E+02 -0.33708016957E+03  0.33827222279E+03  0.00000000000E+00 0.  1.
          1    1    3    3  501    0 -0.13281649716E+02  0.25377995744E+02 -0.38212067955E+03  0.38319271735E+03  0.00000000000E+00 0.  1.
         -3    1    1    2    0  502  0.25339658437E+02 -0.51061850986E+02 -0.27676239218E+03  0.28257181856E+03  0.00000000000E+00 0. -1.
<mgrwt>
<rscale>  1 0.30000000E+03</rscale>
<asrwt>0</asrwt>
<pdfrwt beam="1">  1       21 0.14679153E-01 0.30000000E+03</pdfrwt>
<pdfrwt beam="2">0</pdfrwt>
<totfact> 0.42859640E+03</totfact>
</mgrwt>
</event>
<event>
 6    1  0.6377696E-002  0.3000000E+03  0.7818608E-02  0.1093470E+00
         21   -1    0    0  501  502  0.00000000000E+00  0.00000000000E+00  0.31508633407E+01  0.31508633407E+01  0.00000000000E+00 0. -1.
         13   -1    0    0    0    0 -0.00000000000E+00 -0.00000000000E+00 -0.10000000000E+04  0.10000000000E+04  0.00000000000E+00 0.  1.
    9000005    2    1    2  501    0 -0.36056531126E+02  0.28917561612E+02 -0.21542352406E+03  0.22035952025E+03  0.38372693216E+01 0.  0.
         13    1    3    3    0    0 -0.13800893394E+02  0.88395648704E+01 -0.78944169624E+02  0.80627442494E+02  0.00000000000E+00 0.  1.
          1    1    3    3  501    0 -0.22255637731E+02  0.20077996741E+02 -0.13647935444E+03  0.13973207775E+03  0.00000000000E+00 0.  1.
         -3    1    1    2    0  502  0.36056531126E+02 -0.28917561612E+02 -0.78142561259E+03  0.78279134310E+03  0.00000000000E+00 0. -1.
<mgrwt>
<rscale>  1 0.30000000E+03</rscale>
<asrwt>0</asrwt>
<pdfrwt beam="1">  1       21 0.11457709E-01 0.30000000E+03</pdfrwt>
<pdfrwt beam="2">0</pdfrwt>
<totfact> 0.67382455E+03</totfact>
</mgrwt>
</event>
<event>
 6    1  0.6377696E-002  0.3000000E+03  0.7818608E-02  0.1093470E+00
         21   -1    0    0  501  502  0.00000000000E+00  0.00000000000E+00  0.10369201478E+01  0.10369201478E+01  0.00000000000E+00 0. -1.
         13   -1    0    0    0    0 -0.00000000000E+00 -0.00000000000E+00 -0.10000000000E+04  0.10000000000E+04  0.00000000000E+00 0.  1.
    9000005    2    1    2  501    0  0.22575618344E+02  0.22104039976E+02 -0.40769030247E+03  0.40892059340E+03  0.25341374273E+01 0.  0.
         13    1    3    3    0    0  0.13759509655E+02  0.11769024032E+02 -0.23682807006E+03  0.23751919670E+03  0.00000000000E+00 0.  1.
          3    1    3    3  501    0  0.88161086890E+01  0.10335015944E+02 -0.17086223241E+03  0.17140139670E+03  0.00000000000E+00 0.  1.
         -3    1    1    2    0  502 -0.22575618344E+02 -0.22104039976E+02 -0.59127277738E+03  0.59211632675E+03  0.00000000000E+00 0. -1.
<mgrwt>
<rscale>  1 0.30000000E+03</rscale>
<asrwt>0</asrwt>
<pdfrwt beam="1">  1       21 0.37706267E-02 0.30000000E+03</pdfrwt>
<pdfrwt beam="2">0</pdfrwt>
<totfact> 0.46437495E+04</totfact>
</mgrwt>
</event>
<event>
 6    1  0.6377696E-002  0.3000000E+03  0.7818608E-02  0.1093470E+00
         21   -1    0    0  501  502  0.00000000000E+00  0.00000000000E+00  0.12136061657E+01  0.12136061657E+01  0.00000000000E+00 0. -1.
         13   -1    0    0    0    0 -0.00000000000E+00 -0.00000000000E+00 -0.10000000000E+04  0.10000000000E+04  0.00000000000E+00 0.  1.
    9000005    2    1    2  501    0 -0.22943051017E+01 -0.33283435859E+02 -0.63613603042E+03  0.63703186991E+03  0.52443438720E+01 0.  0.
         13    1    3    3    0    0 -0.18646422199E+01 -0.12014072976E+02 -0.18964075974E+03  0.19003008339E+03  0.00000000000E+00 0.  1.
          3    1    3    3  501    0 -0.42966288183E+00 -0.21269362883E+02 -0.44649527068E+03  0.44700178651E+03  0.00000000000E+00 0.  1.
         -1    1    1    2    0  502  0.22943051017E+01  0.33283435859E+02 -0.36265036342E+03  0.36418173626E+03  0.00000000000E+00 0. -1.
<mgrwt>
<rscale>  1 0.30000000E+03</rscale>
<asrwt>0</asrwt>
<pdfrwt beam="1">  1       21 0.44131226E-02 0.30000000E+03</pdfrwt>
<pdfrwt beam="2">0</pdfrwt>
<totfact> 0.35616261E+04</totfact>
</mgrwt>
</event>
<event>
 6    1  0.6377696E-002  0.3000000E+03  0.7818608E-02  0.1093470E+00
         21   -1    0    0  501  502  0.00000000000E+00  0.00000000000E+00  0.11362618999E+01  0.11362618999E+01  0.00000000000E+00 0. -1.
         13   -1    0    0    0    0 -0.00000000000E+00 -0.00000000000E+00 -0.10000000000E+04  0.10000000000E+04  0.00000000000E+00 0.  1.
    9000005    2    1    2  501    0  0.10588899971E+02 -0.31679882484E+02 -0.43792140073E+03  0.43920028190E+03  0.24483980023E+01 0.  0.
         13    1    3    3    0    0  0.44145707788E+01 -0.99155736657E+01 -0.13584966279E+03  0.13628256645E+03  0.00000000000E+00 0.  1.
          3    1    3    3  501    0  0.61743291925E+01 -0.21764308818E+02 -0.30207173793E+03  0.30291771546E+03  0.00000000000E+00 0.  1.
         -3    1    1    2    0  502 -0.10588899971E+02  0.31679882484E+02 -0.56094233737E+03  0.56193598000E+03  0.00000000000E+00 0. -1.
<mgrwt>
<rscale>  1 0.30000000E+03</rscale>
<asrwt>0</asrwt>
<pdfrwt beam="1">  1       21 0.41318702E-02 0.30000000E+03</pdfrwt>
<pdfrwt beam="2">0</pdfrwt>
<totfact> 0.39810315E+04</totfact>
</mgrwt>
</event>
<event>
 6    1  0.6377696E-002  0.3000000E+03  0.7818608E-02  0.1093470E+00
         21   -1    0    0  501  502  0.00000000000E+00  0.00000000000E+00  0.11730332228E+01  0.11730332228E+01  0.00000000000E+00 0. -1.
         13   -1    0    0    0    0 -0.00000000000E+00 -0.00000000000E+00 -0.10000000000E+04  0.10000000000E+04  0.00000000000E+00 0.  1.
    9000005    2    1    2  501    0  0.33261749727E+02  0.60209443744E+01 -0.43194127251E+03  0.43328044996E+03  0.40111905062E+01 0.  0.
         13    1    3    3    0    0  0.25719698445E+02  0.42733242115E+01 -0.35247001617E+03  0.35343298727E+03  0.00000000000E+00 0.  1.
          1    1    3    3  501    0  0.75420512823E+01  0.17476201629E+01 -0.79471256340E+02  0.79847462690E+02  0.00000000000E+00 0.  1.
         -1    1    1    2    0  502 -0.33261749727E+02 -0.60209443744E+01 -0.56688569427E+03  0.56789258327E+03  0.00000000000E+00 0. -1.
<mgrwt>
<rscale>  1 0.30000000E+03</rscale>
<asrwt>0</asrwt>
<pdfrwt beam="1">  1       21 0.42655844E-02 0.30000000E+03</pdfrwt>
<pdfrwt beam="2">0</pdfrwt>
<totfact> 0.37725845E+04</totfact>
</mgrwt>
</event>
<event>
 6    1  0.6377696E-002  0.3000000E+03  0.7818608E-02  0.1093470E+00
         21   -1    0    0  501  502  0.00000000000E+00  0.00000000000E+00  0.16824338276E+01  0.16824338276E+01  0.00000000000E+00 0. -1.
         13   -1    0    0    0    0 -0.00000000000E+00 -0.00000000000E+00 -0.10000000000E+04  0.10000000000E+04  0.00000000000E+00 0.  1.
    9000005    2    1    2  501    0  0.23208996055E+02  0.26066129991E+02 -0.76124095361E+03  0.76205058942E+03  0.39000962030E+01 0.  0.
         13    1    3    3    0    0  0.15039956689E+02  0.14540293771E+02 -0.43016814323E+03  0.43067650492E+03  0.00000000000E+00 0.  1.
          1    1    3    3  501    0  0.81690393663E+01  0.11525836220E+02 -0.33107281038E+03  0.33137408449E+03  0.00000000000E+00 0.  1.
         -3    1    1    2    0  502 -0.23208996055E+02 -0.26066129991E+02 -0.23707661256E+03  0.23963184441E+03  0.00000000000E+00 0. -1.
<mgrwt>
<rscale>  1 0.30000000E+03</rscale>
<asrwt>0</asrwt>
<pdfrwt beam="1">  1       21 0.61179541E-02 0.30000000E+03</pdfrwt>
<pdfrwt beam="2">0</pdfrwt>
<totfact> 0.20375640E+04</totfact>
</mgrwt>
</event>
<event>
 6    1  0.6377696E-002  0.3000000E+03  0.7818608E-02  0.1093470E+00
         21   -1    0    0  501  502  0.00000000000E+00  0.00000000000E+00  0.16324357223E+01  0.16324357223E+01  0.00000000000E+00 0. -1.
         13   -1    0    0    0    0 -0.00000000000E+00 -0.00000000000E+00 -0.10000000000E+04  0.10000000000E+04  0.00000000000E+00 0.  1.
    9000005    2    1    2  501    0  0.74472173007E+01  0.39643401482E+02 -0.48138791795E+03  0.48308155582E+03  0.25301585279E+01 0.  0.
         13    1    3    3    0    0  0.49750392912E+01  0.27544829705E+02 -0.34741479607E+03  0.34854054167E+03  0.00000000000E+00 0.  1.
          3    1    3    3  501    0  0.24721780095E+01  0.12098571777E+02 -0.13397312188E+03  0.13454101415E+03  0.00000000000E+00 0.  1.
         -3    1    1    2    0  502 -0.74472173007E+01 -0.39643401482E+02 -0.51697964633E+03  0.51855087990E+03  0.00000000000E+00 0. -1.
<mgrwt>
<rscale>  1 0.30000000E+03</rscale>
<asrwt>0</asrwt>
<pdfrwt beam="1">  1       21 0.59361424E-02 0.30000000E+03</pdfrwt>
<pdfrwt beam="2">0</pdfrwt>
<totfact> 0.21464041E+04</totfact>
</mgrwt>
</event>
<event>
 6    1  0.6377696E-002  0.3000000E+03  0.7818608E-02  0.1093470E+00
         21   -1    0    0  501  502  0.00000000000E+00  0.00000000000E+00  0.30380163725E+01  0.30380163725E+01  0.00000000000E+00 0. -1.
         13   -1    0    0    0    0 -0.00000000000E+00 -0.00000000000E+00 -0.10000000000E+04  0.10000000000E+04  0.00000000000E+00 0.  1.
    9000005    2    1    2  501    0 -0.55033082595E+02 -0.83837703151E+00 -0.51657400998E+03  0.51950730558E+03  0.31288506843E+01 0.  0.
         13    1    3    3    0    0 -0.12678091350E+02  0.11207838233E+01 -0.12021318813E+03  0.12088507251E+03  0.00000000000E+00 0.  1.
          1    1    3    3  501    0 -0.42354991244E+02 -0.19591608549E+01 -0.39636082185E+03  0.39862223306E+03  0.00000000000E+00 0.  1.
         -1    1    1    2    0  502  0.55033082595E+02  0.83837703151E+00 -0.48038797365E+03  0.48353071079E+03  0.00000000000E+00 0. -1.
<mgrwt>
<rscale>  1 0.30000000E+03</rscale>
<asrwt>0</asrwt>
<pdfrwt beam="1">  1       21 0.11047356E-01 0.30000000E+03</pdfrwt>
<pdfrwt beam="2">0</pdfrwt>
<totfact> 0.71961796E+03</totfact>
</mgrwt>
</event>
<event>
 6    1  0.6377696E-002  0.3000000E+03  0.7818608E-02  0.1093470E+00
         21   -1    0    0  501  502  0.00000000000E+00  0.00000000000E+00  0.12499121502E+01  0.12499121502E+01  0.00000000000E+00 0. -1.
         13   -1    0    0    0    0 -0.00000000000E+00 -0.00000000000E+00 -0.10000000000E+04  0.10000000000E+04  0.00000000000E+00 0.  1.
    9000005    2    1    2  501    0 -0.30891042693E+02  0.15599525137E+02 -0.58396412586E+03  0.58502281552E+03  0.63239771937E+01 0.  0.
         13    1    3    3    0    0 -0.21514477450E+01  0.31982978741E+01 -0.57601608694E+02  0.57730435308E+02  0.00000000000E+00 0.  1.
          1    1    3    3  501    0 -0.28739594948E+02  0.12401227263E+02 -0.52636251716E+03  0.52729238021E+03  0.00000000000E+00 0.  1.
         -1    1    1    2    0  502  0.30891042693E+02 -0.15599525137E+02 -0.41478596199E+03  0.41622709663E+03  0.00000000000E+00 0. -1.
<mgrwt>
<rscale>  1 0.30000000E+03</rscale>
<asrwt>0</asrwt>
<pdfrwt beam="1">  1       21 0.45451447E-02 0.30000000E+03</pdfrwt>
<pdfrwt beam="2">0</pdfrwt>
<totfact> 0.33879193E+04</totfact>
</mgrwt>
</event>
<event>
 6    1  0.6377696E-002  0.3000000E+03  0.7818608E-02  0.1093470E+00
         21   -1    0    0  501  502  0.00000000000E+00  0.00000000000E+00  0.38554876120E+01  0.38554876120E+01  0.00000000000E+00 0. -1.
         13   -1    0    0    0    0 -0.00000000000E+00 -0.00000000000E+00 -0.10000000000E+04  0.10000000000E+04  0.00000000000E+00 0.  1.
    9000005    2    1    2  501    0 -0.18033597929E+02 -0.59218815775E+02 -0.48285158506E+03  0.48684319758E+03  0.62102368588E+01 0.  0.
         13    1    3    3    0    0 -0.16610081488E+02 -0.49592343661E+02 -0.39251210735E+03  0.39598112300E+03  0.00000000000E+00 0.  1.
          1    1    3    3  501    0 -0.14235164406E+01 -0.96264721134E+01 -0.90339477712E+02  0.90862074584E+02  0.00000000000E+00 0.  1.
         -3    1    1    2    0  502  0.18033597929E+02  0.59218815775E+02 -0.51329292733E+03  0.51701229003E+03  0.00000000000E+00 0. -1.
<mgrwt>
<rscale>  1 0.30000000E+03</rscale>
<asrwt>0</asrwt>
<pdfrwt beam="1">  1       21 0.14019985E-01 0.30000000E+03</pdfrwt>
<pdfrwt beam="2">0</pdfrwt>
<totfact> 0.46644352E+03</totfact>
</mgrwt>
</event>
<event>
 6    1  0.6377696E-002  0.3000000E+03  0.7818608E-02  0.1093470E+00
         21   -1    0    0  501  502  0.00000000000E+00  0.00000000000E+00  0.19924588961E+01  0.19924588961E+01  0.00000000000E+00 0. -1.
         13   -1    0    0    0    0 -0.00000000000E+00 -0.00000000000E+00 -0.10000000000E+04  0.10000000000E+04  0.00000000000E+00 0.  1.
    9000005    2    1    2  501    0  0.28969336507E+02 -0.33112941848E+02 -0.55934094773E+03  0.56112505308E+03  0.79586432600E+01 0.  0.
         13    1    3    3    0    0  0.14415380168E+02 -0.21430836990E+02 -0.35171155191E+03  0.35265861638E+03  0.00000000000E+00 0.  1.
          1    1    3    3  501    0  0.14553956339E+02 -0.11682104859E+02 -0.20762939582E+03  0.20846643670E+03  0.00000000000E+00 0.  1.
         -1    1    1    2    0  502 -0.28969336507E+02  0.33112941848E+02 -0.43866659337E+03  0.44086740582E+03  0.00000000000E+00 0. -1.
<mgrwt>
<rscale>  1 0.30000000E+03</rscale>
<asrwt>0</asrwt>
<pdfrwt beam="1">  1       21 0.72453204E-02 0.30000000E+03</pdfrwt>
<pdfrwt beam="2">0</pdfrwt>
<totfact> 0.15195118E+04</totfact>
</mgrwt>
</event>
<event>
 6    1  0.6377696E-002  0.3000000E+03  0.7818608E-02  0.1093470E+00
         21   -1    0    0  501  502  0.00000000000E+00  0.00000000000E+00  0.14970551648E+01  0.14970551648E+01  0.00000000000E+00 0. -1.
         13   -1    0    0    0    0 -0.00000000000E+00 -0.00000000000E+00 -0.10000000000E+04  0.10000000000E+04  0.00000000000E+00 0.  1.
    9000005    2    1    2  501    0  0.13516974213E+02  0.34940475139E+02 -0.61307758526E+03  0.61425520154E+03  0.64638747151E+01 0.  0.
         13    1    3    3    0    0  0.10785475833E+02  0.32670070907E+02 -0.54472479625E+03  0.54581019015E+03  0.00000000000E+00 0.  1.
          3    1    3    3  501    0  0.27314983798E+01  0.22704042322E+01 -0.68352789009E+02  0.68445011389E+02  0.00000000000E+00 0.  1.
         -1    1    1    2    0  502 -0.13516974213E+02 -0.34940475139E+02 -0.38542535957E+03  0.38724185362E+03  0.00000000000E+00 0. -1.
<mgrwt>
<rscale>  1 0.30000000E+03</rscale>
<asrwt>0</asrwt>
<pdfrwt beam="1">  1       21 0.54438484E-02 0.30000000E+03</pdfrwt>
<pdfrwt beam="2">0</pdfrwt>
<totfact> 0.24908437E+04</totfact>
</mgrwt>
</event>
<event>
 6    1  0.6377696E-002  0.3000000E+03  0.7818608E-02  0.1093470E+00
         21   -1    0    0  501  502  0.00000000000E+00  0.00000000000E+00  0.17031856112E+01  0.17031856112E+01  0.00000000000E+00 0. -1.
         13   -1    0    0    0    0 -0.00000000000E+00 -0.00000000000E+00 -0.10000000000E+04  0.10000000000E+04  0.00000000000E+00 0.  1.
    9000005    2    1    2  501    0 -0.38788336706E+02  0.83153323859E+01 -0.63549004939E+03  0.63673410672E+03  0.30066544514E+01 0.  0.
         13    1    3    3    0    0 -0.24574766989E+02  0.64666117959E+01 -0.41963480567E+03  0.42040350424E+03  0.00000000000E+00 0.  1.
          3    1    3    3  501    0 -0.14213569717E+02  0.18487205900E+01 -0.21585524372E+03  0.21633060249E+03  0.00000000000E+00 0.  1.
         -3    1    1    2    0  502  0.38788336706E+02 -0.83153323859E+01 -0.36280676500E+03  0.36496907889E+03  0.00000000000E+00 0. -1.
<mgrwt>
<rscale>  1 0.30000000E+03</rscale>
<asrwt>0</asrwt>
<pdfrwt beam="1">  1       21 0.61934153E-02 0.30000000E+03</pdfrwt>
<pdfrwt beam="2">0</pdfrwt>
<totfact> 0.19948917E+04</totfact>
</mgrwt>
</event>
<event>
 6    1  0.6377696E-002  0.3000000E+03  0.7818608E-02  0.1093470E+00
         21   -1    0    0  501  502  0.00000000000E+00  0.00000000000E+00  0.13312025207E+01  0.13312025207E+01  0.00000000000E+00 0. -1.
         13   -1    0    0    0    0 -0.00000000000E+00 -0.00000000000E+00 -0.10000000000E+04  0.10000000000E+04  0.00000000000E+00 0.  1.
    9000005    2    1    2  501    0  0.28114147266E+02  0.20883264264E+02 -0.36305599579E+03  0.36475430247E+03  0.30869225311E+01 0.  0.
         13    1    3    3    0    0  0.16509682461E+02  0.14131057261E+02 -0.22417782914E+03  0.22522867374E+03  0.00000000000E+00 0.  1.
          1    1    3    3  501    0  0.11604464805E+02  0.67522070033E+01 -0.13887816665E+03  0.13952562874E+03  0.00000000000E+00 0.  1.
         -3    1    1    2    0  502 -0.28114147266E+02 -0.20883264264E+02 -0.63561280169E+03  0.63657690005E+03  0.00000000000E+00 0. -1.
<mgrwt>
<rscale>  1 0.30000000E+03</rscale>
<asrwt>0</asrwt>
<pdfrwt beam="1">  1       21 0.48407466E-02 0.30000000E+03</pdfrwt>
<pdfrwt beam="2">0</pdfrwt>
<totfact> 0.30437495E+04</totfact>
</mgrwt>
</event>
<event>
 6    1  0.6377696E-002  0.3000000E+03  0.7818608E-02  0.1093470E+00
         21   -1    0    0  501  502  0.00000000000E+00  0.00000000000E+00  0.10184227763E+01  0.10184227763E+01  0.00000000000E+00 0. -1.
         13   -1    0    0    0    0 -0.00000000000E+00 -0.00000000000E+00 -0.10000000000E+04  0.10000000000E+04  0.00000000000E+00 0.  1.
    9000005    2    1    2  501    0  0.30641587990E+02 -0.48108557421E+01 -0.58488120123E+03  0.58575805548E+03  0.80267528801E+01 0.  0.
         13    1    3    3    0    0  0.23047697045E+02 -0.25019058389E+01 -0.36637528413E+03  0.36710802865E+03  0.00000000000E+00 0.  1.
          3    1    3    3  501    0  0.75938909447E+01 -0.23089499033E+01 -0.21850591710E+03  0.21865002684E+03  0.00000000000E+00 0.  1.
         -3    1    1    2    0  502 -0.30641587990E+02  0.48108557421E+01 -0.41410037599E+03  0.41526036729E+03  0.00000000000E+00 0. -1.
<mgrwt>
<rscale>  1 0.30000000E+03</rscale>
<asrwt>0</asrwt>
<pdfrwt beam="1">  1       21 0.37033634E-02 0.30000000E+03</pdfrwt>
<pdfrwt beam="2">0</pdfrwt>
<totfact> 0.47862389E+04</totfact>
</mgrwt>
</event>
<event>
 6    1  0.6377696E-002  0.3000000E+03  0.7818608E-02  0.1093470E+00
         21   -1    0    0  501  502  0.00000000000E+00  0.00000000000E+00  0.15921123542E+01  0.15921123542E+01  0.00000000000E+00 0. -1.
         13   -1    0    0    0    0 -0.00000000000E+00 -0.00000000000E+00 -0.10000000000E+04  0.10000000000E+04  0.00000000000E+00 0.  1.
    9000005    2    1    2  501    0 -0.17702831553E+02  0.35364649377E+02 -0.55917500056E+03  0.56058238710E+03  0.34471445497E+01 0.  0.
         13    1    3    3    0    0 -0.17294442481E+02  0.35095052135E+02 -0.55529964353E+03  0.55667625648E+03  0.00000000000E+00 0.  1.
          3    1    3    3  501    0 -0.40838907283E+00  0.26959724204E+00 -0.38753570263E+01  0.39061306160E+01  0.00000000000E+00 0.  1.
         -1    1    1    2    0  502  0.17702831553E+02 -0.35364649377E+02 -0.43923288709E+03  0.44100972526E+03  0.00000000000E+00 0. -1.
<mgrwt>
<rscale>  1 0.30000000E+03</rscale>
<asrwt>0</asrwt>
<pdfrwt beam="1">  1       21 0.57895117E-02 0.30000000E+03</pdfrwt>
<pdfrwt beam="2">0</pdfrwt>
<totfact> 0.22409309E+04</totfact>
</mgrwt>
</event>
<event>
 6    1  0.6377696E-002  0.3000000E+03  0.7818608E-02  0.1093470E+00
         21   -1    0    0  501  502  0.00000000000E+00  0.00000000000E+00  0.13506218136E+01  0.13506218136E+01  0.00000000000E+00 0. -1.
         13   -1    0    0    0    0 -0.00000000000E+00 -0.00000000000E+00 -0.10000000000E+04  0.10000000000E+04  0.00000000000E+00 0.  1.
    9000005    2    1    2  501    0  0.15394156169E+02 -0.33289728444E+02 -0.49236468852E+03  0.49373918277E+03  0.31950008516E+01 0.  0.
         13    1    3    3    0    0  0.10125786098E+02 -0.18806145541E+02 -0.29791159351E+03  0.29867627995E+03  0.00000000000E+00 0.  1.
          3    1    3    3  501    0  0.52683700714E+01 -0.14483582902E+02 -0.19445309501E+03  0.19506290282E+03  0.00000000000E+00 0.  1.
         -3    1    1    2    0  502 -0.15394156169E+02  0.33289728444E+02 -0.50628468966E+03  0.50761143905E+03  0.00000000000E+00 0. -1.
<mgrwt>
<rscale>  1 0.30000000E+03</rscale>
<asrwt>0</asrwt>
<pdfrwt beam="1">  1       21 0.49113624E-02 0.30000000E+03</pdfrwt>
<pdfrwt beam="2">0</pdfrwt>
<totfact> 0.29696095E+04</totfact>
</mgrwt>
</event>
<event>
 6    1  0.6377696E-002  0.3000000E+03  0.7818608E-02  0.1093470E+00
         21   -1    0    0  501  502  0.00000000000E+00  0.00000000000E+00  0.13561810502E+01  0.13561810502E+01  0.00000000000E+00 0. -1.
         13   -1    0    0    0    0 -0.00000000000E+00 -0.00000000000E+00 -0.10000000000E+04  0.10000000000E+04  0.00000000000E+00 0.  1.
    9000005    2    1    2  501    0 -0.22606565775E+00  0.36502600060E+02 -0.55993696390E+03  0.56113328798E+03  0.29448971329E+01 0.  0.
         13    1    3    3    0    0  0.62173025218E+00  0.22078042849E+01 -0.30574685870E+02  0.30660599543E+02  0.00000000000E+00 0.  1.
          1    1    3    3  501    0 -0.84779590993E+00  0.34294795775E+02 -0.52936227803E+03  0.53047268844E+03  0.00000000000E+00 0.  1.
         -3    1    1    2    0  502  0.22606565775E+00 -0.36502600060E+02 -0.43870685505E+03  0.44022289307E+03  0.00000000000E+00 0. -1.
<mgrwt>
<rscale>  1 0.30000000E+03</rscale>
<asrwt>0</asrwt>
<pdfrwt beam="1">  1       21 0.49315779E-02 0.30000000E+03</pdfrwt>
<pdfrwt beam="2">0</pdfrwt>
<totfact> 0.29489034E+04</totfact>
</mgrwt>
</event>
<event>
 6    1  0.6377696E-002  0.3000000E+03  0.7818608E-02  0.1093470E+00
         21   -1    0    0  501  502  0.00000000000E+00  0.00000000000E+00  0.10283404579E+01  0.10283404579E+01  0.00000000000E+00 0. -1.
         13   -1    0    0    0    0 -0.00000000000E+00 -0.00000000000E+00 -0.10000000000E+04  0.10000000000E+04  0.00000000000E+00 0.  1.
    9000005    2    1    2  501    0 -0.28757479249E+02  0.88137049342E+01 -0.33154187391E+03  0.33292116885E+03  0.34375142330E+01 0.  0.
         13    1    3    3    0    0 -0.27068851902E+02  0.90692369534E+01 -0.31530703214E+03  0.31659674401E+03  0.00000000000E+00 0.  1.
          1    1    3    3  501    0 -0.16886273470E+01 -0.25553201911E+00 -0.16234841770E+02  0.16324424836E+02  0.00000000000E+00 0.  1.
         -3    1    1    2    0  502  0.28757479249E+02 -0.88137049342E+01 -0.66742978563E+03  0.66810717161E+03  0.00000000000E+00 0. -1.
<mgrwt>
<rscale>  1 0.30000000E+03</rscale>
<asrwt>0</asrwt>
<pdfrwt beam="1">  1       21 0.37394277E-02 0.30000000E+03</pdfrwt>
<pdfrwt beam="2">0</pdfrwt>
<totfact> 0.47089989E+04</totfact>
</mgrwt>
</event>
<event>
 6    1  0.6377696E-002  0.3000000E+03  0.7818608E-02  0.1093470E+00
         21   -1    0    0  501  502  0.00000000000E+00  0.00000000000E+00  0.15847036740E+01  0.15847036740E+01  0.00000000000E+00 0. -1.
         13   -1    0    0    0    0 -0.00000000000E+00 -0.00000000000E+00 -0.10000000000E+04  0.10000000000E+04  0.00000000000E+00 0.  1.
    9000005    2    1    2  501    0  0.28859092531E+02 -0.23251924992E+02 -0.68055497722E+03  0.68157113881E+03  0.32620540075E+01 0.  0.
         13    1    3    3    0    0  0.86756253673E+01 -0.69414790733E+01 -0.23246868748E+03  0.23273405696E+03  0.00000000000E+00 0.  1.
          3    1    3    3  501    0  0.20183467164E+02 -0.16310445918E+02 -0.44808628974E+03  0.44883708185E+03  0.00000000000E+00 0.  1.
         -1    1    1    2    0  502 -0.28859092531E+02  0.23251924992E+02 -0.31786031910E+03  0.32001356487E+03  0.00000000000E+00 0. -1.
<mgrwt>
<rscale>  1 0.30000000E+03</rscale>
<asrwt>0</asrwt>
<pdfrwt beam="1">  1       21 0.57625710E-02 0.30000000E+03</pdfrwt>
<pdfrwt beam="2">0</pdfrwt>
<totfact> 0.22589969E+04</totfact>
</mgrwt>
</event>
<event>
 6    1  0.6377696E-002  0.3000000E+03  0.7818608E-02  0.1093470E+00
         21   -1    0    0  501  502  0.00000000000E+00  0.00000000000E+00  0.13139362265E+01  0.13139362265E+01  0.00000000000E+00 0. -1.
         13   -1    0    0    0    0 -0.00000000000E+00 -0.00000000000E+00 -0.10000000000E+04  0.10000000000E+04  0.00000000000E+00 0.  1.
    9000005    2    1    2  501    0 -0.36014510185E+02  0.35135196755E+01 -0.48399313085E+03  0.48535056062E+03  0.25349992486E+01 0.  0.
         13    1    3    3    0    0 -0.18603405544E+02  0.18308764169E+01 -0.26693821545E+03  0.26759194620E+03  0.00000000000E+00 0.  1.
          1    1    3    3  501    0 -0.17411104641E+02  0.16826432586E+01 -0.21705491540E+03  0.21775861442E+03  0.00000000000E+00 0.  1.
         -3    1    1    2    0  502  0.36014510185E+02 -0.35135196755E+01 -0.51469293292E+03  0.51596337560E+03  0.00000000000E+00 0. -1.
<mgrwt>
<rscale>  1 0.30000000E+03</rscale>
<asrwt>0</asrwt>
<pdfrwt beam="1">  1       21 0.47779600E-02 0.30000000E+03</pdfrwt>
<pdfrwt beam="2">0</pdfrwt>
<totfact> 0.31121284E+04</totfact>
</mgrwt>
</event>
<event>
 6    1  0.6377696E-002  0.3000000E+03  0.7818608E-02  0.1093470E+00
         21   -1    0    0  501  502  0.00000000000E+00  0.00000000000E+00  0.22178496919E+01  0.22178496919E+01  0.00000000000E+00 0. -1.
         13   -1    0    0    0    0 -0.00000000000E+00 -0.00000000000E+00 -0.10000000000E+04  0.10000000000E+04  0.00000000000E+00 0.  1.
    9000005    2    1    2  501    0  0.50735190631E+01 -0.37598696506E+02 -0.79529554412E+03  0.79620758718E+03  0.34809210454E+01 0.  0.
         13    1    3    3    0    0  0.15555118159E+00 -0.31565092040E+01 -0.49307144674E+02  0.49408321793E+02  0.00000000000E+00 0.  1.
          3    1    3    3  501    0  0.49179678815E+01 -0.34442187302E+02 -0.74598839945E+03  0.74679926539E+03  0.00000000000E+00 0.  1.
         -3    1    1    2    0  502 -0.50735190631E+01  0.37598696506E+02 -0.20248660619E+03  0.20601026251E+03  0.00000000000E+00 0. -1.
<mgrwt>
<rscale>  1 0.30000000E+03</rscale>
<asrwt>0</asrwt>
<pdfrwt beam="1">  1       21 0.80649250E-02 0.30000000E+03</pdfrwt>
<pdfrwt beam="2">0</pdfrwt>
<totfact> 0.12593755E+04</totfact>
</mgrwt>
</event>
<event>
 6    1  0.6377696E-002  0.3000000E+03  0.7818608E-02  0.1093470E+00
         21   -1    0    0  501  502  0.00000000000E+00  0.00000000000E+00  0.20371923437E+01  0.20371923437E+01  0.00000000000E+00 0. -1.
         13   -1    0    0    0    0 -0.00000000000E+00 -0.00000000000E+00 -0.10000000000E+04  0.10000000000E+04  0.00000000000E+00 0.  1.
    9000005    2    1    2  501    0  0.32362782969E+02  0.31210512835E+02 -0.53108342917E+03  0.53299796169E+03  0.39714729952E+01 0.  0.
         13    1    3    3    0    0  0.18998661851E+02  0.15649165455E+02 -0.29505656870E+03  0.29608144870E+03  0.00000000000E+00 0.  1.
          1    1    3    3  501    0  0.13364121119E+02  0.15561347380E+02 -0.23602686047E+03  0.23691651299E+03  0.00000000000E+00 0.  1.
         -1    1    1    2    0  502 -0.32362782969E+02 -0.31210512835E+02 -0.46687937849E+03  0.46903923065E+03  0.00000000000E+00 0. -1.
<mgrwt>
<rscale>  1 0.30000000E+03</rscale>
<asrwt>0</asrwt>
<pdfrwt beam="1">  1       21 0.74079878E-02 0.30000000E+03</pdfrwt>
<pdfrwt beam="2">0</pdfrwt>
<totfact> 0.14616878E+04</totfact>
</mgrwt>
</event>
<event>
 6    1  0.6377696E-002  0.3000000E+03  0.7818608E-02  0.1093470E+00
         21   -1    0    0  501  502  0.00000000000E+00  0.00000000000E+00  0.20175234783E+01  0.20175234783E+01  0.00000000000E+00 0. -1.
         13   -1    0    0    0    0 -0.00000000000E+00 -0.00000000000E+00 -0.10000000000E+04  0.10000000000E+04  0.00000000000E+00 0.  1.
    9000005    2    1    2  501    0 -0.51398710516E+01  0.43943163876E+02 -0.58365520042E+03  0.58533477648E+03  0.24469677831E+01 0.  0.
         13    1    3    3    0    0 -0.52265221028E+01  0.43889453335E+02 -0.58276860173E+03  0.58444233575E+03  0.00000000000E+00 0.  1.
          1    1    3    3  501    0  0.86651051160E-01  0.53710541752E-01 -0.88659868927E+00  0.89244073348E+00  0.00000000000E+00 0.  1.
         -1    1    1    2    0  502  0.51398710516E+01 -0.43943163876E+02 -0.41432727610E+03  0.41668274700E+03  0.00000000000E+00 0. -1.
<mgrwt>
<rscale>  1 0.30000000E+03</rscale>
<asrwt>0</asrwt>
<pdfrwt beam="1">  1       21 0.73364645E-02 0.30000000E+03</pdfrwt>
<pdfrwt beam="2">0</pdfrwt>
<totfact> 0.14866940E+04</totfact>
</mgrwt>
</event>
<event>
 6    1  0.6377696E-002  0.3000000E+03  0.7818608E-02  0.1093470E+00
         21   -1    0    0  501  502  0.00000000000E+00  0.00000000000E+00  0.24001394948E+01  0.24001394948E+01  0.00000000000E+00 0. -1.
         13   -1    0    0    0    0 -0.00000000000E+00 -0.00000000000E+00 -0.10000000000E+04  0.10000000000E+04  0.00000000000E+00 0.  1.
    9000005    2    1    2  501    0  0.14047436571E+02  0.44869054240E+02 -0.36165989358E+03  0.36472451347E+03  0.39407605509E+01 0.  0.
         13    1    3    3    0    0  0.92343520753E+01  0.31323102689E+02 -0.23727772129E+03  0.23951435665E+03  0.00000000000E+00 0.  1.
          1    1    3    3  501    0  0.48130844955E+01  0.13545951550E+02 -0.12438217229E+03  0.12521015682E+03  0.00000000000E+00 0.  1.
         -3    1    1    2    0  502 -0.14047436571E+02 -0.44869054240E+02 -0.63593996692E+03  0.63767562603E+03  0.00000000000E+00 0. -1.
<mgrwt>
<rscale>  1 0.30000000E+03</rscale>
<asrwt>0</asrwt>
<pdfrwt beam="1">  1       21 0.87277984E-02 0.30000000E+03</pdfrwt>
<pdfrwt beam="2">0</pdfrwt>
<totfact> 0.10957604E+04</totfact>
</mgrwt>
</event>
<event>
 6    1  0.6377696E-002  0.3000000E+03  0.7818608E-02  0.1093470E+00
         21   -1    0    0  501  502  0.00000000000E+00  0.00000000000E+00  0.20786390411E+01  0.20786390411E+01  0.00000000000E+00 0. -1.
         13   -1    0    0    0    0 -0.00000000000E+00 -0.00000000000E+00 -0.10000000000E+04  0.10000000000E+04  0.00000000000E+00 0.  1.
    9000005    2    1    2  501    0  0.24613537072E+02  0.33193848367E+02 -0.70885947354E+03  0.71007789840E+03  0.46055176288E+01 0.  0.
         13    1    3    3    0    0  0.98850123637E+01  0.12610120694E+02 -0.23810597843E+03  0.23864447527E+03  0.00000000000E+00 0.  1.
          3    1    3    3  501    0  0.14728524708E+02  0.20583727674E+02 -0.47075349511E+03  0.47143342313E+03  0.00000000000E+00 0.  1.
         -1    1    1    2    0  502 -0.24613537072E+02 -0.33193848367E+02 -0.28906188742E+03  0.29200074064E+03  0.00000000000E+00 0. -1.
<mgrwt>
<rscale>  1 0.30000000E+03</rscale>
<asrwt>0</asrwt>
<pdfrwt beam="1">  1       21 0.75587034E-02 0.30000000E+03</pdfrwt>
<pdfrwt beam="2">0</pdfrwt>
<totfact> 0.14110489E+04</totfact>
</mgrwt>
</event>
<event>
 6    1  0.6377696E-002  0.3000000E+03  0.7818608E-02  0.1093470E+00
         21   -1    0    0  501  502  0.00000000000E+00  0.00000000000E+00  0.16364347458E+01  0.16364347458E+01  0.00000000000E+00 0. -1.
         13   -1    0    0    0    0 -0.00000000000E+00 -0.00000000000E+00 -0.10000000000E+04  0.10000000000E+04  0.00000000000E+00 0.  1.
    9000005    2    1    2  501    0 -0.16028085711E+02  0.26560504133E+02 -0.18081323204E+03  0.18349775014E+03  0.39546825392E+01 0.  0.
         13    1    3    3    0    0 -0.10862509097E+02  0.14325889051E+02 -0.10670741806E+03  0.10821135925E+03  0.00000000000E+00 0.  1.
          3    1    3    3  501    0 -0.51655766136E+01  0.12234615082E+02 -0.74105813978E+02  0.75286390890E+02  0.00000000000E+00 0.  1.
         -3    1    1    2    0  502  0.16028085711E+02 -0.26560504133E+02 -0.81755033322E+03  0.81813868461E+03  0.00000000000E+00 0. -1.
<mgrwt>
<rscale>  1 0.30000000E+03</rscale>
<asrwt>0</asrwt>
<pdfrwt beam="1">  1       21 0.59506844E-02 0.30000000E+03</pdfrwt>
<pdfrwt beam="2">0</pdfrwt>
<totfact> 0.21373693E+04</totfact>
</mgrwt>
</event>
<event>
 6    1  0.6377696E-002  0.3000000E+03  0.7818608E-02  0.1093470E+00
         21   -1    0    0  501  502  0.00000000000E+00  0.00000000000E+00  0.20260707956E+01  0.20260707956E+01  0.00000000000E+00 0. -1.
         13   -1    0    0    0    0 -0.00000000000E+00 -0.00000000000E+00 -0.10000000000E+04  0.10000000000E+04  0.00000000000E+00 0.  1.
    9000005    2    1    2  501    0  0.13381384167E+02  0.33245746755E+02 -0.19695958264E+03  0.20021042832E+03  0.26071620822E+01 0.  0.
         13    1    3    3    0    0  0.57123214254E+01  0.14897797194E+02 -0.94802774432E+02  0.96136054721E+02  0.00000000000E+00 0.  1.
          1    1    3    3  501    0  0.76690627413E+01  0.18347949560E+02 -0.10215680821E+03  0.10407437360E+03  0.00000000000E+00 0.  1.
         -1    1    1    2    0  502 -0.13381384167E+02 -0.33245746755E+02 -0.80101434656E+03  0.80181564248E+03  0.00000000000E+00 0. -1.
<mgrwt>
<rscale>  1 0.30000000E+03</rscale>
<asrwt>0</asrwt>
<pdfrwt beam="1">  1       21 0.73675457E-02 0.30000000E+03</pdfrwt>
<pdfrwt beam="2">0</pdfrwt>
<totfact> 0.14757482E+04</totfact>
</mgrwt>
</event>
<event>
 6    1  0.6377696E-002  0.3000000E+03  0.7818608E-02  0.1093470E+00
         21   -1    0    0  501  502  0.00000000000E+00  0.00000000000E+00  0.56974901435E+01  0.56974901435E+01  0.00000000000E+00 0. -1.
         13   -1    0    0    0    0 -0.00000000000E+00 -0.00000000000E+00 -0.10000000000E+04  0.10000000000E+04  0.00000000000E+00 0.  1.
    9000005    2    1    2  501    0 -0.36061220419E+02  0.52218338501E+02 -0.22961069342E+03  0.23837699607E+03  0.86807390585E+01 0.  0.
         13    1    3    3    0    0 -0.10887929469E+02  0.11832558220E+02 -0.69985985706E+02  0.71809432788E+02  0.00000000000E+00 0.  1.
          1    1    3    3  501    0 -0.25173290950E+02  0.40385780281E+02 -0.15962470771E+03  0.16656756328E+03  0.00000000000E+00 0.  1.
         -1    1    1    2    0  502  0.36061220419E+02 -0.52218338501E+02 -0.76469181644E+03  0.76732049407E+03  0.00000000000E+00 0. -1.
<mgrwt>
<rscale>  1 0.30000000E+03</rscale>
<asrwt>0</asrwt>
<pdfrwt beam="1">  1       21 0.20718190E-01 0.30000000E+03</pdfrwt>
<pdfrwt beam="2">0</pdfrwt>
<totfact> 0.22427258E+03</totfact>
</mgrwt>
</event>
<event>
 6    1  0.6377696E-002  0.3000000E+03  0.7818608E-02  0.1093470E+00
         21   -1    0    0  501  502  0.00000000000E+00  0.00000000000E+00  0.13817650152E+01  0.13817650152E+01  0.00000000000E+00 0. -1.
         13   -1    0    0    0    0 -0.00000000000E+00 -0.00000000000E+00 -0.10000000000E+04  0.10000000000E+04  0.00000000000E+00 0.  1.
    9000005    2    1    2  501    0  0.29672644220E+02  0.21131902282E+02 -0.44600945101E+03  0.44757359314E+03  0.84064128711E+01 0.  0.
         13    1    3    3    0    0  0.41089347166E+01  0.37878572908E+01 -0.39692885137E+02  0.40084365255E+02  0.00000000000E+00 0.  1.
          3    1    3    3  501    0  0.25563709504E+02  0.17344044991E+02 -0.40631656587E+03  0.40748922788E+03  0.00000000000E+00 0.  1.
         -3    1    1    2    0  502 -0.29672644220E+02 -0.21131902282E+02 -0.55260878398E+03  0.55380817188E+03  0.00000000000E+00 0. -1.
<mgrwt>
<rscale>  1 0.30000000E+03</rscale>
<asrwt>0</asrwt>
<pdfrwt beam="1">  1       21 0.50246107E-02 0.30000000E+03</pdfrwt>
<pdfrwt beam="2">0</pdfrwt>
<totfact> 0.28564529E+04</totfact>
</mgrwt>
</event>
<event>
 6    1  0.6377696E-002  0.3000000E+03  0.7818608E-02  0.1093470E+00
         21   -1    0    0  501  502  0.00000000000E+00  0.00000000000E+00  0.17770088613E+01  0.17770088613E+01  0.00000000000E+00 0. -1.
         13   -1    0    0    0    0 -0.00000000000E+00 -0.00000000000E+00 -0.10000000000E+04  0.10000000000E+04  0.00000000000E+00 0.  1.
    9000005    2    1    2  501    0 -0.33263421952E+02 -0.22191166307E+02 -0.65618878422E+03  0.65741339028E+03  0.31212300927E+01 0.  0.
         13    1    3    3    0    0 -0.18331111933E+01 -0.69788937074E+00 -0.41613388323E+02  0.41659589940E+02  0.00000000000E+00 0.  1.
          1    1    3    3  501    0 -0.31430310759E+02 -0.21493276936E+02 -0.61457539590E+03  0.61575380034E+03  0.00000000000E+00 0.  1.
         -1    1    1    2    0  502  0.33263421952E+02  0.22191166307E+02 -0.34203420692E+03  0.34436361859E+03  0.00000000000E+00 0. -1.
<mgrwt>
<rscale>  1 0.30000000E+03</rscale>
<asrwt>0</asrwt>
<pdfrwt beam="1">  1       21 0.64618640E-02 0.30000000E+03</pdfrwt>
<pdfrwt beam="2">0</pdfrwt>
<totfact> 0.18537921E+04</totfact>
</mgrwt>
</event>
<event>
 6    1  0.6377696E-002  0.3000000E+03  0.7818608E-02  0.1093470E+00
         21   -1    0    0  501  502  0.00000000000E+00  0.00000000000E+00  0.92576818092E+00  0.92576818092E+00  0.00000000000E+00 0. -1.
         13   -1    0    0    0    0 -0.00000000000E+00 -0.00000000000E+00 -0.10000000000E+04  0.10000000000E+04  0.00000000000E+00 0.  1.
    9000005    2    1    2  501    0 -0.24537346558E+02  0.17821130366E+02 -0.51164071440E+03  0.51254977781E+03  0.33734317162E+01 0.  0.
         13    1    3    3    0    0 -0.12179795097E+02  0.74659190883E+01 -0.21930832556E+03  0.21977313079E+03  0.00000000000E+00 0.  1.
          1    1    3    3  501    0 -0.12357551460E+02  0.10355211278E+02 -0.29233238884E+03  0.29277664702E+03  0.00000000000E+00 0.  1.
         -1    1    1    2    0  502  0.24537346558E+02 -0.17821130366E+02 -0.48743351742E+03  0.48837599037E+03  0.00000000000E+00 0. -1.
<mgrwt>
<rscale>  1 0.30000000E+03</rscale>
<asrwt>0</asrwt>
<pdfrwt beam="1">  1       21 0.33664368E-02 0.30000000E+03</pdfrwt>
<pdfrwt beam="2">0</pdfrwt>
<totfact> 0.56153993E+04</totfact>
</mgrwt>
</event>
<event>
 6    1  0.6377696E-002  0.3000000E+03  0.7818608E-02  0.1093470E+00
         21   -1    0    0  501  502  0.00000000000E+00  0.00000000000E+00  0.43825436486E+01  0.43825436486E+01  0.00000000000E+00 0. -1.
         13   -1    0    0    0    0 -0.00000000000E+00 -0.00000000000E+00 -0.10000000000E+04  0.10000000000E+04  0.00000000000E+00 0.  1.
    9000005    2    1    2  501    0  0.27819178273E-02 -0.36987549659E+02 -0.81862358161E+02  0.89879149283E+02  0.29558340064E+01 0.  0.
         13    1    3    3    0    0 -0.70430571980E+00 -0.32875243566E+02 -0.71080878662E+02  0.78318382245E+02  0.00000000000E+00 0.  1.
          3    1    3    3  501    0  0.70708763763E+00 -0.41123060930E+01 -0.10781479499E+02  0.11560767039E+02  0.00000000000E+00 0.  1.
         -1    1    1    2    0  502 -0.27819178273E-02  0.36987549659E+02 -0.91375509819E+03  0.91450339437E+03  0.00000000000E+00 0. -1.
<mgrwt>
<rscale>  1 0.30000000E+03</rscale>
<asrwt>0</asrwt>
<pdfrwt beam="1">  1       21 0.15936556E-01 0.30000000E+03</pdfrwt>
<pdfrwt beam="2">0</pdfrwt>
<totfact> 0.36798110E+03</totfact>
</mgrwt>
</event>
<event>
 6    1  0.6377696E-002  0.3000000E+03  0.7818608E-02  0.1093470E+00
         21   -1    0    0  501  502  0.00000000000E+00  0.00000000000E+00  0.10437509616E+01  0.10437509616E+01  0.00000000000E+00 0. -1.
         13   -1    0    0    0    0 -0.00000000000E+00 -0.00000000000E+00 -0.10000000000E+04  0.10000000000E+04  0.00000000000E+00 0.  1.
    9000005    2    1    2  501    0  0.29166784399E+02  0.10105863315E+02 -0.38377674435E+03  0.38509030080E+03  0.75578089155E+01 0.  0.
         13    1    3    3    0    0  0.10537193474E+02  0.38155450429E+00 -0.10771337172E+03  0.10822822404E+03  0.00000000000E+00 0.  1.
          3    1    3    3  501    0  0.18629590926E+02  0.97243088111E+01 -0.27606337263E+03  0.27686207676E+03  0.00000000000E+00 0.  1.
         -1    1    1    2    0  502 -0.29166784399E+02 -0.10105863315E+02 -0.61517950469E+03  0.61595345017E+03  0.00000000000E+00 0. -1.
<mgrwt>
<rscale>  1 0.30000000E+03</rscale>
<asrwt>0</asrwt>
<pdfrwt beam="1">  1       21 0.37954660E-02 0.30000000E+03</pdfrwt>
<pdfrwt beam="2">0</pdfrwt>
<totfact> 0.45928111E+04</totfact>
</mgrwt>
</event>
<event>
 6    1  0.6377696E-002  0.3000000E+03  0.7818608E-02  0.1093470E+00
         21   -1    0    0  501  502  0.00000000000E+00  0.00000000000E+00  0.96595242482E+00  0.96595242482E+00  0.00000000000E+00 0. -1.
         13   -1    0    0    0    0 -0.00000000000E+00 -0.00000000000E+00 -0.10000000000E+04  0.10000000000E+04  0.00000000000E+00 0.  1.
    9000005    2    1    2  501    0 -0.27461763618E+02  0.12580254533E+02 -0.60946211646E+03  0.61022473272E+03  0.42120963612E+01 0.  0.
         13    1    3    3    0    0 -0.22254780224E+02  0.83110426884E+01 -0.48090675508E+03  0.48149315234E+03  0.00000000000E+00 0.  1.
          1    1    3    3  501    0 -0.52069833948E+01  0.42692118445E+01 -0.12855536139E+03  0.12873158038E+03  0.00000000000E+00 0.  1.
         -3    1    1    2    0  502  0.27461763618E+02 -0.12580254533E+02 -0.38957193111E+03  0.39074121970E+03  0.00000000000E+00 0. -1.
<mgrwt>
<rscale>  1 0.30000000E+03</rscale>
<asrwt>0</asrwt>
<pdfrwt beam="1">  1       21 0.35125617E-02 0.30000000E+03</pdfrwt>
<pdfrwt beam="2">0</pdfrwt>
<totfact> 0.52302063E+04</totfact>
</mgrwt>
</event>
<event>
 6    1  0.6377696E-002  0.3000000E+03  0.7818608E-02  0.1093470E+00
         21   -1    0    0  501  502  0.00000000000E+00  0.00000000000E+00  0.23942571704E+01  0.23942571704E+01  0.00000000000E+00 0. -1.
         13   -1    0    0    0    0 -0.00000000000E+00 -0.00000000000E+00 -0.10000000000E+04  0.10000000000E+04  0.00000000000E+00 0.  1.
    9000005    2    1    2  501    0 -0.79145043285E+01  0.34054339882E+02 -0.15080616113E+03  0.15487324327E+03  0.45700986124E+01 0.  0.
         13    1    3    3    0    0  0.14812082954E+00  0.40623588355E+00 -0.49653162296E+01  0.49841080078E+01  0.00000000000E+00 0.  1.
          1    1    3    3  501    0 -0.80626251580E+01  0.33648103998E+02 -0.14584084490E+03  0.14988913526E+03  0.00000000000E+00 0.  1.
         -1    1    1    2    0  502  0.79145043285E+01 -0.34054339882E+02 -0.84679958170E+03  0.84752101390E+03  0.00000000000E+00 0. -1.
<mgrwt>
<rscale>  1 0.30000000E+03</rscale>
<asrwt>0</asrwt>
<pdfrwt beam="1">  1       21 0.87064081E-02 0.30000000E+03</pdfrwt>
<pdfrwt beam="2">0</pdfrwt>
<totfact> 0.11005213E+04</totfact>
</mgrwt>
</event>
<event>
 6    1  0.6377696E-002  0.3000000E+03  0.7818608E-02  0.1093470E+00
         21   -1    0    0  501  502  0.00000000000E+00  0.00000000000E+00  0.28275837166E+01  0.28275837166E+01  0.00000000000E+00 0. -1.
         13   -1    0    0    0    0 -0.00000000000E+00 -0.00000000000E+00 -0.10000000000E+04  0.10000000000E+04  0.00000000000E+00 0.  1.
    9000005    2    1    2  501    0 -0.48108915215E+02  0.44712472960E+01 -0.29093495113E+03  0.29493930372E+03  0.34040141146E+01 0.  0.
         13    1    3    3    0    0 -0.21536865861E+02  0.19869384829E+01 -0.14061645299E+03  0.14227006491E+03  0.00000000000E+00 0.  1.
          1    1    3    3  501    0 -0.26572049355E+02  0.24843088132E+01 -0.15031849814E+03  0.15266923881E+03  0.00000000000E+00 0.  1.
         -1    1    1    2    0  502  0.48108915215E+02 -0.44712472960E+01 -0.70623746515E+03  0.70788828000E+03  0.00000000000E+00 0. -1.
<mgrwt>
<rscale>  1 0.30000000E+03</rscale>
<asrwt>0</asrwt>
<pdfrwt beam="1">  1       21 0.10282144E-01 0.30000000E+03</pdfrwt>
<pdfrwt beam="2">0</pdfrwt>
<totfact> 0.81855858E+03</totfact>
</mgrwt>
</event>
<event>
 6    1  0.6377696E-002  0.3000000E+03  0.7818608E-02  0.1093470E+00
         21   -1    0    0  501  502  0.00000000000E+00  0.00000000000E+00  0.30600233251E+01  0.30600233251E+01  0.00000000000E+00 0. -1.
         13   -1    0    0    0    0 -0.00000000000E+00 -0.00000000000E+00 -0.10000000000E+04  0.10000000000E+04  0.00000000000E+00 0.  1.
    9000005    2    1    2  501    0 -0.42175586769E+02  0.33823932310E+02 -0.60336403566E+03  0.60578825254E+03  0.28998055949E+01 0.  0.
         13    1    3    3    0    0 -0.61222400453E+01  0.39489611535E+01 -0.74280533954E+02  0.74636946896E+02  0.00000000000E+00 0.  1.
          1    1    3    3  501    0 -0.36053346723E+02  0.29874971156E+02 -0.52908350170E+03  0.53115130564E+03  0.00000000000E+00 0.  1.
         -1    1    1    2    0  502  0.42175586769E+02 -0.33823932310E+02 -0.39357594102E+03  0.39727177079E+03  0.00000000000E+00 0. -1.
<mgrwt>
<rscale>  1 0.30000000E+03</rscale>
<asrwt>0</asrwt>
<pdfrwt beam="1">  1       21 0.11127381E-01 0.30000000E+03</pdfrwt>
<pdfrwt beam="2">0</pdfrwt>
<totfact> 0.71032730E+03</totfact>
</mgrwt>
</event>
<event>
 6    1  0.6377696E-002  0.3000000E+03  0.7818608E-02  0.1093470E+00
         21   -1    0    0  501  502  0.00000000000E+00  0.00000000000E+00  0.14040485914E+01  0.14040485914E+01  0.00000000000E+00 0. -1.
         13   -1    0    0    0    0 -0.00000000000E+00 -0.00000000000E+00 -0.10000000000E+04  0.10000000000E+04  0.00000000000E+00 0.  1.
    9000005    2    1    2  501    0  0.27741024563E+02  0.22724977801E+02 -0.36697263023E+03  0.36876354332E+03  0.56258759607E+01 0.  0.
         13    1    3    3    0    0  0.11681850317E+02  0.64279325304E+01 -0.12312007902E+03  0.12383996851E+03  0.00000000000E+00 0.  1.
          1    1    3    3  501    0  0.16059174246E+02  0.16297045270E+02 -0.24385255121E+03  0.24492357480E+03  0.00000000000E+00 0.  1.
         -3    1    1    2    0  502 -0.27741024563E+02 -0.22724977801E+02 -0.63162332118E+03  0.63264050528E+03  0.00000000000E+00 0. -1.
<mgrwt>
<rscale>  1 0.30000000E+03</rscale>
<asrwt>0</asrwt>
<pdfrwt beam="1">  1       21 0.51056420E-02 0.30000000E+03</pdfrwt>
<pdfrwt beam="2">0</pdfrwt>
<totfact> 0.27795529E+04</totfact>
</mgrwt>
</event>
<event>
 6    1  0.6377696E-002  0.3000000E+03  0.7818608E-02  0.1093470E+00
         21   -1    0    0  501  502  0.00000000000E+00  0.00000000000E+00  0.12963820650E+01  0.12963820650E+01  0.00000000000E+00 0. -1.
         13   -1    0    0    0    0 -0.00000000000E+00 -0.00000000000E+00 -0.10000000000E+04  0.10000000000E+04  0.00000000000E+00 0.  1.
    9000005    2    1    2  501    0  0.23128499210E+02  0.23755920148E+02 -0.69055105441E+03  0.69136530323E+03  0.50943647923E+01 0.  0.
         13    1    3    3    0    0  0.17882949820E+02  0.19732260488E+02 -0.58668273121E+03  0.58728680310E+03  0.00000000000E+00 0.  1.
          3    1    3    3  501    0  0.52455493904E+01  0.40236596592E+01 -0.10386832320E+03  0.10407850013E+03  0.00000000000E+00 0.  1.
         -1    1    1    2    0  502 -0.23128499210E+02 -0.23755920148E+02 -0.30815256353E+03  0.30993107883E+03  0.00000000000E+00 0. -1.
<mgrwt>
<rscale>  1 0.30000000E+03</rscale>
<asrwt>0</asrwt>
<pdfrwt beam="1">  1       21 0.47141265E-02 0.30000000E+03</pdfrwt>
<pdfrwt beam="2">0</pdfrwt>
<totfact> 0.31841434E+04</totfact>
</mgrwt>
</event>
<event>
 6    1  0.6377696E-002  0.3000000E+03  0.7818608E-02  0.1093470E+00
         21   -1    0    0  501  502  0.00000000000E+00  0.00000000000E+00  0.16648166122E+01  0.16648166122E+01  0.00000000000E+00 0. -1.
         13   -1    0    0    0    0 -0.00000000000E+00 -0.00000000000E+00 -0.10000000000E+04  0.10000000000E+04  0.00000000000E+00 0.  1.
    9000005    2    1    2  501    0  0.77039163903E+01  0.31846413072E+02 -0.20295224537E+03  0.20560730459E+03  0.33474539094E+01 0.  0.
         13    1    3    3    0    0  0.48636354321E+01  0.13089641647E+02 -0.86813186048E+02  0.87929079035E+02  0.00000000000E+00 0.  1.
          1    1    3    3  501    0  0.28402809582E+01  0.18756771425E+02 -0.11613905932E+03  0.11767822556E+03  0.00000000000E+00 0.  1.
         -1    1    1    2    0  502 -0.77039163903E+01 -0.31846413072E+02 -0.79538293802E+03  0.79605751202E+03  0.00000000000E+00 0. -1.
<mgrwt>
<rscale>  1 0.30000000E+03</rscale>
<asrwt>0</asrwt>
<pdfrwt beam="1">  1       21 0.60538914E-02 0.30000000E+03</pdfrwt>
<pdfrwt beam="2">0</pdfrwt>
<totfact> 0.20749146E+04</totfact>
</mgrwt>
</event>
<event>
 6    1  0.6377696E-002  0.3000000E+03  0.7818608E-02  0.1093470E+00
         21   -1    0    0  501  502  0.00000000000E+00  0.00000000000E+00  0.27247688403E+01  0.27247688403E+01  0.00000000000E+00 0. -1.
         13   -1    0    0    0    0 -0.00000000000E+00 -0.00000000000E+00 -0.10000000000E+04  0.10000000000E+04  0.00000000000E+00 0.  1.
    9000005    2    1    2  501    0  0.50489737260E+02 -0.37047065345E+01 -0.61463040399E+03  0.61674549196E+03  0.64443718442E+01 0.  0.
         13    1    3    3    0    0  0.39300785814E+02 -0.29918619841E+01 -0.44336188421E+03  0.44511039459E+03  0.00000000000E+00 0.  1.
          3    1    3    3  501    0  0.11188951446E+02 -0.71284455033E+00 -0.17126851978E+03  0.17163509737E+03  0.00000000000E+00 0.  1.
         -3    1    1    2    0  502 -0.50489737260E+02  0.37047065345E+01 -0.38264482717E+03  0.38597927688E+03  0.00000000000E+00 0. -1.
<mgrwt>
<rscale>  1 0.30000000E+03</rscale>
<asrwt>0</asrwt>
<pdfrwt beam="1">  1       21 0.99082712E-02 0.30000000E+03</pdfrwt>
<pdfrwt beam="2">0</pdfrwt>
<totfact> 0.87459922E+03</totfact>
</mgrwt>
</event>
<event>
 6    1  0.6377696E-002  0.3000000E+03  0.7818608E-02  0.1093470E+00
         21   -1    0    0  501  502  0.00000000000E+00  0.00000000000E+00  0.14817840747E+01  0.14817840747E+01  0.00000000000E+00 0. -1.
         13   -1    0    0    0    0 -0.00000000000E+00 -0.00000000000E+00 -0.10000000000E+04  0.10000000000E+04  0.00000000000E+00 0.  1.
    9000005    2    1    2  501    0  0.23821281831E+02 -0.21794632192E+02 -0.77116474366E+03  0.77184715948E+03  0.32428809183E+01 0.  0.
         13    1    3    3    0    0  0.22501367736E+02 -0.19730819475E+02 -0.69758778292E+03  0.69822942624E+03  0.00000000000E+00 0.  1.
          1    1    3    3  501    0  0.13199140951E+01 -0.20638127175E+01 -0.73576960734E+02  0.73617733237E+02  0.00000000000E+00 0.  1.
         -3    1    1    2    0  502 -0.23821281831E+02  0.21794632192E+02 -0.22735347227E+03  0.22963462459E+03  0.00000000000E+00 0. -1.
<mgrwt>
<rscale>  1 0.30000000E+03</rscale>
<asrwt>0</asrwt>
<pdfrwt beam="1">  1       21 0.53883171E-02 0.30000000E+03</pdfrwt>
<pdfrwt beam="2">0</pdfrwt>
<totfact> 0.25349729E+04</totfact>
</mgrwt>
</event>
<event>
 6    1  0.6377696E-002  0.3000000E+03  0.7818608E-02  0.1093470E+00
         21   -1    0    0  501  502  0.00000000000E+00  0.00000000000E+00  0.10525627939E+01  0.10525627939E+01  0.00000000000E+00 0. -1.
         13   -1    0    0    0    0 -0.00000000000E+00 -0.00000000000E+00 -0.10000000000E+04  0.10000000000E+04  0.00000000000E+00 0.  1.
    9000005    2    1    2  501    0 -0.17414131218E+02  0.25292482797E+02 -0.34263849273E+03  0.34402562860E+03  0.30878445024E+01 0.  0.
         13    1    3    3    0    0 -0.27014114016E+01  0.24622505966E+01 -0.34888177688E+02  0.35079128323E+02  0.00000000000E+00 0.  1.
          1    1    3    3  501    0 -0.14712719816E+02  0.22830232200E+02 -0.30775031504E+03  0.30894650028E+03  0.00000000000E+00 0.  1.
         -3    1    1    2    0  502  0.17414131218E+02 -0.25292482797E+02 -0.65630894448E+03  0.65702693419E+03  0.00000000000E+00 0. -1.
<mgrwt>
<rscale>  1 0.30000000E+03</rscale>
<asrwt>0</asrwt>
<pdfrwt beam="1">  1       21 0.38275091E-02 0.30000000E+03</pdfrwt>
<pdfrwt beam="2">0</pdfrwt>
<totfact> 0.45283860E+04</totfact>
</mgrwt>
</event>
<event>
 6    1  0.6377696E-002  0.3000000E+03  0.7818608E-02  0.1093470E+00
         21   -1    0    0  501  502  0.00000000000E+00  0.00000000000E+00  0.13924719122E+01  0.13924719122E+01  0.00000000000E+00 0. -1.
         13   -1    0    0    0    0 -0.00000000000E+00 -0.00000000000E+00 -0.10000000000E+04  0.10000000000E+04  0.00000000000E+00 0.  1.
    9000005    2    1    2  501    0 -0.84246589970E+00  0.34003998469E+02 -0.29666756736E+03  0.29862886292E+03  0.32512433816E+01 0.  0.
         13    1    3    3    0    0 -0.15083678733E+00  0.32386232132E+02 -0.27874529727E+03  0.28062044033E+03  0.00000000000E+00 0.  1.
          3    1    3    3  501    0 -0.69162911237E+00  0.16177663360E+01 -0.17922270095E+02  0.18008422588E+02  0.00000000000E+00 0.  1.
         -1    1    1    2    0  502  0.84246589970E+00 -0.34003998469E+02 -0.70193996073E+03  0.70276360899E+03  0.00000000000E+00 0. -1.
<mgrwt>
<rscale>  1 0.30000000E+03</rscale>
<asrwt>0</asrwt>
<pdfrwt beam="1">  1       21 0.50635449E-02 0.30000000E+03</pdfrwt>
<pdfrwt beam="2">0</pdfrwt>
<totfact> 0.28190961E+04</totfact>
</mgrwt>
</event>
<event>
 6    1  0.6377696E-002  0.3000000E+03  0.7818608E-02  0.1093470E+00
         21   -1    0    0  501  502  0.00000000000E+00  0.00000000000E+00  0.29456109183E+01  0.29456109183E+01  0.00000000000E+00 0. -1.
         13   -1    0    0    0    0 -0.00000000000E+00 -0.00000000000E+00 -0.10000000000E+04  0.10000000000E+04  0.00000000000E+00 0.  1.
    9000005    2    1    2  501    0  0.53806874322E+02  0.58416365775E+01 -0.47297062696E+03  0.47607456961E+03  0.40592397020E+01 0.  0.
         13    1    3    3    0    0  0.14626814467E+02  0.20918264891E+01 -0.14489890560E+03  0.14565030822E+03  0.00000000000E+00 0.  1.
          1    1    3    3  501    0  0.39180059855E+02  0.37498100885E+01 -0.32807172135E+03  0.33042426139E+03  0.00000000000E+00 0.  1.
         -1    1    1    2    0  502 -0.53806874322E+02 -0.58416365775E+01 -0.52408376213E+03  0.52687104130E+03  0.00000000000E+00 0. -1.
<mgrwt>
<rscale>  1 0.30000000E+03</rscale>
<asrwt>0</asrwt>
<pdfrwt beam="1">  1       21 0.10711335E-01 0.30000000E+03</pdfrwt>
<pdfrwt beam="2">0</pdfrwt>
<totfact> 0.76070206E+03</totfact>
</mgrwt>
</event>
<event>
 6    1  0.6377696E-002  0.3000000E+03  0.7818608E-02  0.1093470E+00
         21   -1    0    0  501  502  0.00000000000E+00  0.00000000000E+00  0.11821260775E+01  0.11821260775E+01  0.00000000000E+00 0. -1.
         13   -1    0    0    0    0 -0.00000000000E+00 -0.00000000000E+00 -0.10000000000E+04  0.10000000000E+04  0.00000000000E+00 0.  1.
    9000005    2    1    2  501    0  0.20310812513E+02  0.25208736822E+02 -0.33721208593E+03  0.33878479198E+03  0.38903548906E+01 0.  0.
         13    1    3    3    0    0  0.27429639681E+01  0.35930131749E+01 -0.34737881296E+02  0.35030757799E+02  0.00000000000E+00 0.  1.
          3    1    3    3  501    0  0.17567848545E+02  0.21615723647E+02 -0.30247420464E+03  0.30375403418E+03  0.00000000000E+00 0.  1.
         -1    1    1    2    0  502 -0.20310812513E+02 -0.25208736822E+02 -0.66160578799E+03  0.66239733409E+03  0.00000000000E+00 0. -1.
<mgrwt>
<rscale>  1 0.30000000E+03</rscale>
<asrwt>0</asrwt>
<pdfrwt beam="1">  1       21 0.42986493E-02 0.30000000E+03</pdfrwt>
<pdfrwt beam="2">0</pdfrwt>
<totfact> 0.37236522E+04</totfact>
</mgrwt>
</event>
<event>
 6    1  0.6377696E-002  0.3000000E+03  0.7818608E-02  0.1093470E+00
         21   -1    0    0  501  502  0.00000000000E+00  0.00000000000E+00  0.11789882953E+01  0.11789882953E+01  0.00000000000E+00 0. -1.
         13   -1    0    0    0    0 -0.00000000000E+00 -0.00000000000E+00 -0.10000000000E+04  0.10000000000E+04  0.00000000000E+00 0.  1.
    9000005    2    1    2  501    0 -0.17159924740E+02  0.26674984770E+02 -0.68970191536E+03  0.69043691912E+03  0.28964469503E+01 0.  0.
         13    1    3    3    0    0 -0.91000028109E+01  0.11637022017E+02 -0.30936860220E+03  0.30972110415E+03  0.00000000000E+00 0.  1.
          3    1    3    3  501    0 -0.80599219293E+01  0.15037962753E+02 -0.38033331316E+03  0.38071581497E+03  0.00000000000E+00 0.  1.
         -3    1    1    2    0  502  0.17159924740E+02 -0.26674984770E+02 -0.30911909635E+03  0.31074206918E+03  0.00000000000E+00 0. -1.
<mgrwt>
<rscale>  1 0.30000000E+03</rscale>
<asrwt>0</asrwt>
<pdfrwt beam="1">  1       21 0.42872392E-02 0.30000000E+03</pdfrwt>
<pdfrwt beam="2">0</pdfrwt>
<totfact> 0.37404260E+04</totfact>
</mgrwt>
</event>
<event>
 6    1  0.6377696E-002  0.3000000E+03  0.7818608E-02  0.1093470E+00
         21   -1    0    0  501  502  0.00000000000E+00  0.00000000000E+00  0.94935201069E+00  0.94935201069E+00  0.00000000000E+00 0. -1.
         13   -1    0    0    0    0 -0.00000000000E+00 -0.00000000000E+00 -0.10000000000E+04  0.10000000000E+04  0.00000000000E+00 0.  1.
    9000005    2    1    2  501    0 -0.28020124096E+02  0.12435256410E+02 -0.51402006565E+03  0.51495096852E+03  0.42554819914E+01 0.  0.
         13    1    3    3    0    0 -0.25350661465E+02  0.12039299225E+02 -0.48255585163E+03  0.48337123488E+03  0.00000000000E+00 0.  1.
          3    1    3    3  501    0 -0.26694626317E+01  0.39595718463E+00 -0.31464214018E+02  0.31579733637E+02  0.00000000000E+00 0.  1.
         -3    1    1    2    0  502  0.28020124096E+02 -0.12435256410E+02 -0.48503058234E+03  0.48599838349E+03  0.00000000000E+00 0. -1.
<mgrwt>
<rscale>  1 0.30000000E+03</rscale>
<asrwt>0</asrwt>
<pdfrwt beam="1">  1       21 0.34521964E-02 0.30000000E+03</pdfrwt>
<pdfrwt beam="2">0</pdfrwt>
<totfact> 0.53841903E+04</totfact>
</mgrwt>
</event>
<event>
 6    1  0.6377696E-002  0.3000000E+03  0.7818608E-02  0.1093470E+00
         21   -1    0    0  501  502  0.00000000000E+00  0.00000000000E+00  0.23126932679E+01  0.23126932679E+01  0.00000000000E+00 0. -1.
         13   -1    0    0    0    0 -0.00000000000E+00 -0.00000000000E+00 -0.10000000000E+04  0.10000000000E+04  0.00000000000E+00 0.  1.
    9000005    2    1    2  501    0 -0.12675270592E+02  0.46329857394E+02 -0.50202485616E+03  0.50432837316E+03  0.33216857841E+01 0.  0.
         13    1    3    3    0    0 -0.87620899212E+01  0.36941781799E+02 -0.39998805783E+03  0.40178590800E+03  0.00000000000E+00 0.  1.
          1    1    3    3  501    0 -0.39131806712E+01  0.93880755950E+01 -0.10203679833E+03  0.10254246516E+03  0.00000000000E+00 0.  1.
         -1    1    1    2    0  502  0.12675270592E+02 -0.46329857394E+02 -0.49566245057E+03  0.49798432011E+03  0.00000000000E+00 0. -1.
<mgrwt>
<rscale>  1 0.30000000E+03</rscale>
<asrwt>0</asrwt>
<pdfrwt beam="1">  1       21 0.84098114E-02 0.30000000E+03</pdfrwt>
<pdfrwt beam="2">0</pdfrwt>
<totfact> 0.11699184E+04</totfact>
</mgrwt>
</event>
<event>
 6    1  0.6377696E-002  0.3000000E+03  0.7818608E-02  0.1093470E+00
         21   -1    0    0  501  502  0.00000000000E+00  0.00000000000E+00  0.10034724634E+01  0.10034724634E+01  0.00000000000E+00 0. -1.
         13   -1    0    0    0    0 -0.00000000000E+00 -0.00000000000E+00 -0.10000000000E+04  0.10000000000E+04  0.00000000000E+00 0.  1.
    9000005    2    1    2  501    0 -0.18577216320E+02  0.24558531754E+02 -0.38862641810E+03  0.38985708661E+03  0.31337974702E+01 0.  0.
         13    1    3    3    0    0 -0.10034763441E+02  0.11632999538E+02 -0.17814926420E+03  0.17881046806E+03  0.00000000000E+00 0.  1.
          3    1    3    3  501    0 -0.85424528785E+01  0.12925532216E+02 -0.21047715391E+03  0.21104661855E+03  0.00000000000E+00 0.  1.
         -3    1    1    2    0  502  0.18577216320E+02 -0.24558531754E+02 -0.61037010943E+03  0.61114638585E+03  0.00000000000E+00 0. -1.
<mgrwt>
<rscale>  1 0.30000000E+03</rscale>
<asrwt>0</asrwt>
<pdfrwt beam="1">  1       21 0.36489985E-02 0.30000000E+03</pdfrwt>
<pdfrwt beam="2">0</pdfrwt>
<totfact> 0.49065036E+04</totfact>
</mgrwt>
</event>
<event>
 6    1  0.6377696E-002  0.3000000E+03  0.7818608E-02  0.1093470E+00
         21   -1    0    0  501  502  0.00000000000E+00  0.00000000000E+00  0.95566024421E+00  0.95566024421E+00  0.00000000000E+00 0. -1.
         13   -1    0    0    0    0 -0.00000000000E+00 -0.00000000000E+00 -0.10000000000E+04  0.10000000000E+04  0.00000000000E+00 0.  1.
    9000005    2    1    2  501    0 -0.23630392819E+02 -0.19771480875E+02 -0.47869024711E+03  0.47969019174E+03  0.30034069744E+01 0.  0.
         13    1    3    3    0    0 -0.19566629314E+02 -0.17621983853E+02 -0.41442452507E+03  0.41526024886E+03  0.00000000000E+00 0.  1.
          3    1    3    3  501    0 -0.40637635048E+01 -0.21494970221E+01 -0.64265722034E+02  0.64429942883E+02  0.00000000000E+00 0.  1.
         -1    1    1    2    0  502  0.23630392819E+02  0.19771480875E+02 -0.52035409265E+03  0.52126546851E+03  0.00000000000E+00 0. -1.
<mgrwt>
<rscale>  1 0.30000000E+03</rscale>
<asrwt>0</asrwt>
<pdfrwt beam="1">  1       21 0.34751355E-02 0.30000000E+03</pdfrwt>
<pdfrwt beam="2">0</pdfrwt>
<totfact> 0.53248553E+04</totfact>
</mgrwt>
</event>
<event>
 6    1  0.6377696E-002  0.3000000E+03  0.7818608E-02  0.1093470E+00
         21   -1    0    0  501  502  0.00000000000E+00  0.00000000000E+00  0.12178080913E+01  0.12178080913E+01  0.00000000000E+00 0. -1.
         13   -1    0    0    0    0 -0.00000000000E+00 -0.00000000000E+00 -0.10000000000E+04  0.10000000000E+04  0.00000000000E+00 0.  1.
    9000005    2    1    2  501    0 -0.29362170052E+02 -0.17962098789E+02 -0.57339814884E+03  0.57444344368E+03  0.38805757650E+01 0.  0.
         13    1    3    3    0    0 -0.12022660788E+02 -0.90147803687E+01 -0.22808815859E+03  0.22858262998E+03  0.00000000000E+00 0.  1.
          1    1    3    3  501    0 -0.17339509263E+02 -0.89473184199E+01 -0.34530999025E+03  0.34586081370E+03  0.00000000000E+00 0.  1.
         -3    1    1    2    0  502  0.29362170052E+02  0.17962098789E+02 -0.42538404307E+03  0.42677436441E+03  0.00000000000E+00 0. -1.
<mgrwt>
<rscale>  1 0.30000000E+03</rscale>
<asrwt>0</asrwt>
<pdfrwt beam="1">  1       21 0.44284024E-02 0.30000000E+03</pdfrwt>
<pdfrwt beam="2">0</pdfrwt>
<totfact> 0.35408265E+04</totfact>
</mgrwt>
</event>
<event>
 6    1  0.6377696E-002  0.3000000E+03  0.7818608E-02  0.1093470E+00
         21   -1    0    0  501  502  0.00000000000E+00  0.00000000000E+00  0.11447876526E+01  0.11447876526E+01  0.00000000000E+00 0. -1.
         13   -1    0    0    0    0 -0.00000000000E+00 -0.00000000000E+00 -0.10000000000E+04  0.10000000000E+04  0.00000000000E+00 0.  1.
    9000005    2    1    2  501    0 -0.32373742230E+02  0.18700682773E+01 -0.36727012386E+03  0.36872777307E+03  0.46119851910E+01 0.  0.
         13    1    3    3    0    0 -0.10845005772E+02  0.17362993011E+01 -0.14611355816E+03  0.14652576826E+03  0.00000000000E+00 0.  1.
          3    1    3    3  501    0 -0.21528736458E+02  0.13376897616E+00 -0.22115656570E+03  0.22220200481E+03  0.00000000000E+00 0.  1.
         -3    1    1    2    0  502  0.32373742230E+02 -0.18700682773E+01 -0.63158508848E+03  0.63241701459E+03  0.00000000000E+00 0. -1.
<mgrwt>
<rscale>  1 0.30000000E+03</rscale>
<asrwt>0</asrwt>
<pdfrwt beam="1">  1       21 0.41628730E-02 0.30000000E+03</pdfrwt>
<pdfrwt beam="2">0</pdfrwt>
<totfact> 0.39311320E+04</totfact>
</mgrwt>
</event>
<event>
 6    1  0.6377696E-002  0.3000000E+03  0.7818608E-02  0.1093470E+00
         21   -1    0    0  501  502  0.00000000000E+00  0.00000000000E+00  0.13664258375E+01  0.13664258375E+01  0.00000000000E+00 0. -1.
         13   -1    0    0    0    0 -0.00000000000E+00 -0.00000000000E+00 -0.10000000000E+04  0.10000000000E+04  0.00000000000E+00 0.  1.
    9000005    2    1    2  501    0  0.13937196950E+02  0.33051850898E+02 -0.61713703790E+03  0.61818725431E+03  0.32691812175E+01 0.  0.
         13    1    3    3    0    0  0.11301814058E+02  0.27404320221E+02 -0.52926675191E+03  0.53009623885E+03  0.00000000000E+00 0.  1.
          3    1    3    3  501    0  0.26353828922E+01  0.56475306769E+01 -0.87870285987E+02  0.88091015462E+02  0.00000000000E+00 0.  1.
         -3    1    1    2    0  502 -0.13937196950E+02 -0.33051850898E+02 -0.38149653627E+03  0.38317917152E+03  0.00000000000E+00 0. -1.
<mgrwt>
<rscale>  1 0.30000000E+03</rscale>
<asrwt>0</asrwt>
<pdfrwt beam="1">  1       21 0.49688317E-02 0.30000000E+03</pdfrwt>
<pdfrwt beam="2">0</pdfrwt>
<totfact> 0.29113306E+04</totfact>
</mgrwt>
</event>
<event>
 6    1  0.6377696E-002  0.3000000E+03  0.7818608E-02  0.1093470E+00
         21   -1    0    0  501  502  0.00000000000E+00  0.00000000000E+00  0.26402918616E+01  0.26402918616E+01  0.00000000000E+00 0. -1.
         13   -1    0    0    0    0 -0.00000000000E+00 -0.00000000000E+00 -0.10000000000E+04  0.10000000000E+04  0.00000000000E+00 0.  1.
    9000005    2    1    2  501    0 -0.83972772186E+01  0.36144845162E+02 -0.15360160715E+03  0.15806661415E+03  0.38257932423E+01 0.  0.
         13    1    3    3    0    0 -0.74456767793E+01  0.27435324003E+02 -0.11189299675E+03  0.11544772768E+03  0.00000000000E+00 0.  1.
          3    1    3    3  501    0 -0.95160043927E+00  0.87095211590E+01 -0.41708610400E+02  0.42618886467E+02  0.00000000000E+00 0.  1.
         -1    1    1    2    0  502  0.83972772186E+01 -0.36144845162E+02 -0.84375810099E+03  0.84457367771E+03  0.00000000000E+00 0. -1.
<mgrwt>
<rscale>  1 0.30000000E+03</rscale>
<asrwt>0</asrwt>
<pdfrwt beam="1">  1       21 0.96010816E-02 0.30000000E+03</pdfrwt>
<pdfrwt beam="2">0</pdfrwt>
<totfact> 0.92515531E+03</totfact>
</mgrwt>
</event>
<event>
 6    1  0.6377696E-002  0.3000000E+03  0.7818608E-02  0.1093470E+00
         21   -1    0    0  501  502  0.00000000000E+00  0.00000000000E+00  0.98368516665E+00  0.98368516665E+00  0.00000000000E+00 0. -1.
         13   -1    0    0    0    0 -0.00000000000E+00 -0.00000000000E+00 -0.10000000000E+04  0.10000000000E+04  0.00000000000E+00 0.  1.
    9000005    2    1    2  501    0  0.12672150620E+02 -0.27965188148E+02 -0.59668690506E+03  0.59748450411E+03  0.31360524770E+01 0.  0.
         13    1    3    3    0    0  0.77707282940E+00 -0.35397651458E+01 -0.58245747539E+02  0.58358383167E+02  0.00000000000E+00 0.  1.
          1    1    3    3  501    0  0.11895077791E+02 -0.24425423002E+02 -0.53844115752E+03  0.53912612094E+03  0.00000000000E+00 0.  1.
         -3    1    1    2    0  502 -0.12672150620E+02  0.27965188148E+02 -0.40232940977E+03  0.40349918106E+03  0.00000000000E+00 0. -1.
<mgrwt>
<rscale>  1 0.30000000E+03</rscale>
<asrwt>0</asrwt>
<pdfrwt beam="1">  1       21 0.35770445E-02 0.30000000E+03</pdfrwt>
<pdfrwt beam="2">0</pdfrwt>
<totfact> 0.50731567E+04</totfact>
</mgrwt>
</event>
<event>
 6    1  0.6377696E-002  0.3000000E+03  0.7818608E-02  0.1093470E+00
         21   -1    0    0  501  502  0.00000000000E+00  0.00000000000E+00  0.24323489992E+01  0.24323489992E+01  0.00000000000E+00 0. -1.
         13   -1    0    0    0    0 -0.00000000000E+00 -0.00000000000E+00 -0.10000000000E+04  0.10000000000E+04  0.00000000000E+00 0.  1.
    9000005    2    1    2  501    0 -0.16815475534E+02 -0.32831224080E+02 -0.16701366128E+03  0.17105964117E+03  0.26810984600E+01 0.  0.
         13    1    3    3    0    0 -0.17289169950E+01 -0.49831768741E+01 -0.26667878355E+02  0.27184498187E+02  0.00000000000E+00 0.  1.
          3    1    3    3  501    0 -0.15086558539E+02 -0.27848047206E+02 -0.14034578293E+03  0.14387514298E+03  0.00000000000E+00 0.  1.
         -3    1    1    2    0  502  0.16815475534E+02  0.32831224080E+02 -0.83055398972E+03  0.83137270783E+03  0.00000000000E+00 0. -1.
<mgrwt>
<rscale>  1 0.30000000E+03</rscale>
<asrwt>0</asrwt>
<pdfrwt beam="1">  1       21 0.88449241E-02 0.30000000E+03</pdfrwt>
<pdfrwt beam="2">0</pdfrwt>
<totfact> 0.10702376E+04</totfact>
</mgrwt>
</event>
<event>
 6    1  0.6377696E-002  0.3000000E+03  0.7818608E-02  0.1093470E+00
         21   -1    0    0  501  502  0.00000000000E+00  0.00000000000E+00  0.16832116295E+01  0.16832116295E+01  0.00000000000E+00 0. -1.
         13   -1    0    0    0    0 -0.00000000000E+00 -0.00000000000E+00 -0.10000000000E+04  0.10000000000E+04  0.00000000000E+00 0.  1.
    9000005    2    1    2  501    0  0.34656460634E+02 -0.64694515836E+01 -0.24837174213E+03  0.25090994596E+03  0.49350404325E+01 0.  0.
         13    1    3    3    0    0  0.24574709440E+02 -0.25286599670E+01 -0.16527891512E+03  0.16711502101E+03  0.00000000000E+00 0.  1.
          1    1    3    3  501    0  0.10081751194E+02 -0.39407916166E+01 -0.83092827011E+02  0.83794924944E+02  0.00000000000E+00 0.  1.
         -1    1    1    2    0  502 -0.34656460634E+02  0.64694515836E+01 -0.74994504624E+03  0.75077326567E+03  0.00000000000E+00 0. -1.
<mgrwt>
<rscale>  1 0.30000000E+03</rscale>
<asrwt>0</asrwt>
<pdfrwt beam="1">  1       21 0.61207825E-02 0.30000000E+03</pdfrwt>
<pdfrwt beam="2">0</pdfrwt>
<totfact> 0.20359391E+04</totfact>
</mgrwt>
</event>
<event>
 6    1  0.6377696E-002  0.3000000E+03  0.7818608E-02  0.1093470E+00
         21   -1    0    0  501  502  0.00000000000E+00  0.00000000000E+00  0.13740136730E+01  0.13740136730E+01  0.00000000000E+00 0. -1.
         13   -1    0    0    0    0 -0.00000000000E+00 -0.00000000000E+00 -0.10000000000E+04  0.10000000000E+04  0.00000000000E+00 0.  1.
    9000005    2    1    2  501    0  0.28608019645E+02 -0.23427450791E+02 -0.49072281729E+03  0.49212663434E+03  0.35322202920E+01 0.  0.
         13    1    3    3    0    0  0.12395626231E+02 -0.10493866258E+02 -0.23873888257E+03  0.23929067434E+03  0.00000000000E+00 0.  1.
          3    1    3    3  501    0  0.16212393414E+02 -0.12933584533E+02 -0.25198393472E+03  0.25283595999E+03  0.00000000000E+00 0.  1.
         -1    1    1    2    0  502 -0.28608019645E+02  0.23427450791E+02 -0.50790316904E+03  0.50924737934E+03  0.00000000000E+00 0. -1.
<mgrwt>
<rscale>  1 0.30000000E+03</rscale>
<asrwt>0</asrwt>
<pdfrwt beam="1">  1       21 0.49964239E-02 0.30000000E+03</pdfrwt>
<pdfrwt beam="2">0</pdfrwt>
<totfact> 0.28839809E+04</totfact>
</mgrwt>
</event>
<event>
 6    1  0.6377696E-002  0.3000000E+03  0.7818608E-02  0.1093470E+00
         21   -1    0    0  501  502  0.00000000000E+00  0.00000000000E+00  0.10362157415E+01  0.10362157415E+01  0.00000000000E+00 0. -1.
         13   -1    0    0    0    0 -0.00000000000E+00 -0.00000000000E+00 -0.10000000000E+04  0.10000000000E+04  0.00000000000E+00 0.  1.
    9000005    2    1    2  501    0 -0.66771083817E+01  0.30352623581E+02 -0.62535150821E+03  0.62613356392E+03  0.35868512863E+01 0.  0.
         13    1    3    3    0    0 -0.59985518139E+01  0.27598650481E+02 -0.54404271972E+03  0.54477531976E+03  0.00000000000E+00 0.  1.
          1    1    3    3  501    0 -0.67855656776E+00  0.27539730999E+01 -0.81308788493E+02  0.81358244161E+02  0.00000000000E+00 0.  1.
         -3    1    1    2    0  502  0.66771083817E+01 -0.30352623581E+02 -0.37361227604E+03  0.37490265182E+03  0.00000000000E+00 0. -1.
<mgrwt>
<rscale>  1 0.30000000E+03</rscale>
<asrwt>0</asrwt>
<pdfrwt beam="1">  1       21 0.37680652E-02 0.30000000E+03</pdfrwt>
<pdfrwt beam="2">0</pdfrwt>
<totfact> 0.46490529E+04</totfact>
</mgrwt>
</event>
<event>
 6    1  0.6377696E-002  0.3000000E+03  0.7818608E-02  0.1093470E+00
         21   -1    0    0  501  502  0.00000000000E+00  0.00000000000E+00  0.13745735463E+01  0.13745735463E+01  0.00000000000E+00 0. -1.
         13   -1    0    0    0    0 -0.00000000000E+00 -0.00000000000E+00 -0.10000000000E+04  0.10000000000E+04  0.00000000000E+00 0.  1.
    9000005    2    1    2  501    0 -0.31240863377E+02 -0.16106047907E+02 -0.34425366345E+03  0.34605953439E+03  0.33496599616E+01 0.  0.
         13    1    3    3    0    0 -0.12084644279E+02 -0.67757963160E+01 -0.15126735439E+03  0.15190050213E+03  0.00000000000E+00 0.  1.
          1    1    3    3  501    0 -0.19156219099E+02 -0.93302515911E+01 -0.19298630906E+03  0.19415903226E+03  0.00000000000E+00 0.  1.
         -1    1    1    2    0  502  0.31240863377E+02  0.16106047907E+02 -0.65437176301E+03  0.65531503916E+03  0.00000000000E+00 0. -1.
<mgrwt>
<rscale>  1 0.30000000E+03</rscale>
<asrwt>0</asrwt>
<pdfrwt beam="1">  1       21 0.49984598E-02 0.30000000E+03</pdfrwt>
<pdfrwt beam="2">0</pdfrwt>
<totfact> 0.28819787E+04</totfact>
</mgrwt>
</event>
<event>
 6    1  0.6377696E-002  0.3000000E+03  0.7818608E-02  0.1093470E+00
         21   -1    0    0  501  502  0.00000000000E+00  0.00000000000E+00  0.13892575244E+01  0.13892575244E+01  0.00000000000E+00 0. -1.
         13   -1    0    0    0    0 -0.00000000000E+00 -0.00000000000E+00 -0.10000000000E+04  0.10000000000E+04  0.00000000000E+00 0.  1.
    9000005    2    1    2  501    0 -0.34693627266E+02  0.64291858809E+01 -0.34196086767E+03  0.34379208578E+03  0.32834468936E+01 0.  0.
         13    1    3    3    0    0 -0.15890461281E+02  0.21600581221E+01 -0.14139231628E+03  0.14229883946E+03  0.00000000000E+00 0.  1.
          3    1    3    3  501    0 -0.18803165985E+02  0.42691277588E+01 -0.20056855139E+03  0.20149324632E+03  0.00000000000E+00 0.  1.
         -3    1    1    2    0  502  0.34693627266E+02 -0.64291858809E+01 -0.65664987481E+03  0.65759717174E+03  0.00000000000E+00 0. -1.
<mgrwt>
<rscale>  1 0.30000000E+03</rscale>
<asrwt>0</asrwt>
<pdfrwt beam="1">  1       21 0.50518562E-02 0.30000000E+03</pdfrwt>
<pdfrwt beam="2">0</pdfrwt>
<totfact> 0.28302310E+04</totfact>
</mgrwt>
</event>
<event>
 6    1  0.6377696E-002  0.3000000E+03  0.7818608E-02  0.1093470E+00
         21   -1    0    0  501  502  0.00000000000E+00  0.00000000000E+00  0.13308631469E+01  0.13308631469E+01  0.00000000000E+00 0. -1.
         13   -1    0    0    0    0 -0.00000000000E+00 -0.00000000000E+00 -0.10000000000E+04  0.10000000000E+04  0.00000000000E+00 0.  1.
    9000005    2    1    2  501    0 -0.27691708277E+02 -0.13600814332E+02 -0.76574726290E+03  0.76637467101E+03  0.30745517914E+01 0.  0.
         13    1    3    3    0    0 -0.80500877463E+01 -0.25218010470E+01 -0.22018148222E+03  0.22034302463E+03  0.00000000000E+00 0.  1.
          1    1    3    3  501    0 -0.19641620531E+02 -0.11079013285E+02 -0.54556578069E+03  0.54603164638E+03  0.00000000000E+00 0.  1.
         -3    1    1    2    0  502  0.27691708277E+02  0.13600814332E+02 -0.23292187395E+03  0.23495619213E+03  0.00000000000E+00 0. -1.
<mgrwt>
<rscale>  1 0.30000000E+03</rscale>
<asrwt>0</asrwt>
<pdfrwt beam="1">  1       21 0.48395126E-02 0.30000000E+03</pdfrwt>
<pdfrwt beam="2">0</pdfrwt>
<totfact> 0.30450708E+04</totfact>
</mgrwt>
</event>
<event>
 6    1  0.6377696E-002  0.3000000E+03  0.7818608E-02  0.1093470E+00
         21   -1    0    0  501  502  0.00000000000E+00  0.00000000000E+00  0.11868486553E+01  0.11868486553E+01  0.00000000000E+00 0. -1.
         13   -1    0    0    0    0 -0.00000000000E+00 -0.00000000000E+00 -0.10000000000E+04  0.10000000000E+04  0.00000000000E+00 0.  1.
    9000005    2    1    2  501    0 -0.15135515243E+02  0.26187954847E+02 -0.26999255024E+03  0.27173886464E+03  0.55803732609E+01 0.  0.
         13    1    3    3    0    0 -0.12622943308E+02  0.24533754540E+02 -0.25061932028E+03  0.25213347161E+03  0.00000000000E+00 0.  1.
          1    1    3    3  501    0 -0.25125719359E+01  0.16542003071E+01 -0.19373229966E+02  0.19605393026E+02  0.00000000000E+00 0.  1.
         -1    1    1    2    0  502  0.15135515243E+02 -0.26187954847E+02 -0.72882060110E+03  0.72944798402E+03  0.00000000000E+00 0. -1.
<mgrwt>
<rscale>  1 0.30000000E+03</rscale>
<asrwt>0</asrwt>
<pdfrwt beam="1">  1       21 0.43158224E-02 0.30000000E+03</pdfrwt>
<pdfrwt beam="2">0</pdfrwt>
<totfact> 0.36986256E+04</totfact>
</mgrwt>
</event>
<event>
 6    1  0.6377696E-002  0.3000000E+03  0.7818608E-02  0.1093470E+00
         21   -1    0    0  501  502  0.00000000000E+00  0.00000000000E+00  0.38030803192E+01  0.38030803192E+01  0.00000000000E+00 0. -1.
         13   -1    0    0    0    0 -0.00000000000E+00 -0.00000000000E+00 -0.10000000000E+04  0.10000000000E+04  0.00000000000E+00 0.  1.
    9000005    2    1    2  501    0  0.49091686947E+02  0.13891448537E+02 -0.77971965910E+03  0.78139496352E+03  0.35179762561E+01 0.  0.
         13    1    3    3    0    0  0.24678131924E+02  0.82617336608E+01 -0.41644825857E+03  0.41726061222E+03  0.00000000000E+00 0.  1.
          1    1    3    3  501    0  0.24413555023E+02  0.56297148764E+01 -0.36327140052E+03  0.36413435130E+03  0.00000000000E+00 0.  1.
         -3    1    1    2    0  502 -0.49091686947E+02 -0.13891448537E+02 -0.21647726058E+03  0.22240811680E+03  0.00000000000E+00 0. -1.
<mgrwt>
<rscale>  1 0.30000000E+03</rscale>
<asrwt>0</asrwt>
<pdfrwt beam="1">  1       21 0.13829412E-01 0.30000000E+03</pdfrwt>
<pdfrwt beam="2">0</pdfrwt>
<totfact> 0.47831543E+03</totfact>
</mgrwt>
</event>
<event>
 6    1  0.6377696E-002  0.3000000E+03  0.7818608E-02  0.1093470E+00
         21   -1    0    0  501  502  0.00000000000E+00  0.00000000000E+00  0.24607767786E+01  0.24607767786E+01  0.00000000000E+00 0. -1.
         13   -1    0    0    0    0 -0.00000000000E+00 -0.00000000000E+00 -0.10000000000E+04  0.10000000000E+04  0.00000000000E+00 0.  1.
    9000005    2    1    2  501    0  0.35935651226E+01 -0.47582797451E+02 -0.36455497296E+03  0.36768042311E+03  0.33954242108E+01 0.  0.
         13    1    3    3    0    0  0.38749097373E+01 -0.35114003689E+02 -0.27587707490E+03  0.27812976941E+03  0.00000000000E+00 0.  1.
          1    1    3    3  501    0 -0.28134461471E+00 -0.12468793762E+02 -0.88677898068E+02  0.89550653702E+02  0.00000000000E+00 0.  1.
         -3    1    1    2    0  502 -0.35935651226E+01  0.47582797451E+02 -0.63298425026E+03  0.63478035366E+03  0.00000000000E+00 0. -1.
<mgrwt>
<rscale>  1 0.30000000E+03</rscale>
<asrwt>0</asrwt>
<pdfrwt beam="1">  1       21 0.89482981E-02 0.30000000E+03</pdfrwt>
<pdfrwt beam="2">0</pdfrwt>
<totfact> 0.10484532E+04</totfact>
</mgrwt>
</event>
<event>
 6    1  0.6377696E-002  0.3000000E+03  0.7818608E-02  0.1093470E+00
         21   -1    0    0  501  502  0.00000000000E+00  0.00000000000E+00  0.15116338304E+01  0.15116338304E+01  0.00000000000E+00 0. -1.
         13   -1    0    0    0    0 -0.00000000000E+00 -0.00000000000E+00 -0.10000000000E+04  0.10000000000E+04  0.00000000000E+00 0.  1.
    9000005    2    1    2  501    0 -0.82450888236E+01 -0.37497722764E+02 -0.56970189594E+03  0.57100972007E+03  0.42177566253E+01 0.  0.
         13    1    3    3    0    0 -0.26928384834E+01 -0.70892124848E+01 -0.94749088215E+02  0.95052080620E+02  0.00000000000E+00 0.  1.
          3    1    3    3  501    0 -0.55522503402E+01 -0.30408510279E+02 -0.47495280773E+03  0.47595763945E+03  0.00000000000E+00 0.  1.
         -3    1    1    2    0  502  0.82450888236E+01  0.37497722764E+02 -0.42878647023E+03  0.43050191376E+03  0.00000000000E+00 0. -1.
<mgrwt>
<rscale>  1 0.30000000E+03</rscale>
<asrwt>0</asrwt>
<pdfrwt beam="1">  1       21 0.54968619E-02 0.30000000E+03</pdfrwt>
<pdfrwt beam="2">0</pdfrwt>
<totfact> 0.24498111E+04</totfact>
</mgrwt>
</event>
<event>
 6    1  0.6377696E-002  0.3000000E+03  0.7818608E-02  0.1093470E+00
         21   -1    0    0  501  502  0.00000000000E+00  0.00000000000E+00  0.10614838304E+01  0.10614838304E+01  0.00000000000E+00 0. -1.
         13   -1    0    0    0    0 -0.00000000000E+00 -0.00000000000E+00 -0.10000000000E+04  0.10000000000E+04  0.00000000000E+00 0.  1.
    9000005    2    1    2  501    0  0.18143772460E+02 -0.26906491626E+02 -0.52948028338E+03  0.53048291643E+03  0.30981213993E+01 0.  0.
         13    1    3    3    0    0  0.10582784520E+02 -0.13292300898E+02 -0.26371762943E+03  0.26426439159E+03  0.00000000000E+00 0.  1.
          1    1    3    3  501    0  0.75609879407E+01 -0.13614190727E+02 -0.26576265395E+03  0.26621852483E+03  0.00000000000E+00 0.  1.
         -3    1    1    2    0  502 -0.18143772460E+02  0.26906491626E+02 -0.46945823278E+03  0.47057856740E+03  0.00000000000E+00 0. -1.
<mgrwt>
<rscale>  1 0.30000000E+03</rscale>
<asrwt>0</asrwt>
<pdfrwt beam="1">  1       21 0.38599493E-02 0.30000000E+03</pdfrwt>
<pdfrwt beam="2">0</pdfrwt>
<totfact> 0.44645964E+04</totfact>
</mgrwt>
</event>
<event>
 6    1  0.6377696E-002  0.3000000E+03  0.7818608E-02  0.1093470E+00
         21   -1    0    0  501  502  0.00000000000E+00  0.00000000000E+00  0.14243209623E+01  0.14243209623E+01  0.00000000000E+00 0. -1.
         13   -1    0    0    0    0 -0.00000000000E+00 -0.00000000000E+00 -0.10000000000E+04  0.10000000000E+04  0.00000000000E+00 0.  1.
    9000005    2    1    2  501    0  0.27522141239E+02 -0.23129887375E+02 -0.35255850312E+03  0.35440758893E+03  0.38446093405E+01 0.  0.
         13    1    3    3    0    0  0.77492601047E+01 -0.44878051746E+01 -0.81752493573E+02  0.82241483649E+02  0.00000000000E+00 0.  1.
          1    1    3    3  501    0  0.19772881134E+02 -0.18642082200E+02 -0.27080600955E+03  0.27216610528E+03  0.00000000000E+00 0.  1.
         -3    1    1    2    0  502 -0.27522141239E+02  0.23129887375E+02 -0.64601717592E+03  0.64701673203E+03  0.00000000000E+00 0. -1.
<mgrwt>
<rscale>  1 0.30000000E+03</rscale>
<asrwt>0</asrwt>
<pdfrwt beam="1">  1       21 0.51793599E-02 0.30000000E+03</pdfrwt>
<pdfrwt beam="2">0</pdfrwt>
<totfact> 0.27123523E+04</totfact>
</mgrwt>
</event>
<event>
 6    1  0.6377696E-002  0.3000000E+03  0.7818608E-02  0.1093470E+00
         21   -1    0    0  501  502  0.00000000000E+00  0.00000000000E+00  0.37791290598E+02  0.37791290598E+02  0.00000000000E+00 0. -1.
         13   -1    0    0    0    0 -0.00000000000E+00 -0.00000000000E+00 -0.10000000000E+04  0.10000000000E+04  0.00000000000E+00 0.  1.
    9000005    2    1    2  501    0 -0.15296008373E+02 -0.19174028664E+03 -0.55604935581E+03  0.58838754573E+03  0.32729923369E+01 0.  0.
         13    1    3    3    0    0 -0.95142344576E+01 -0.11459894296E+03 -0.33718383438E+03  0.35625324778E+03  0.00000000000E+00 0.  1.
          3    1    3    3  501    0 -0.57817739152E+01 -0.77141343684E+02 -0.21886552143E+03  0.23213429796E+03  0.00000000000E+00 0.  1.
         -1    1    1    2    0  502  0.15296008373E+02  0.19174028664E+03 -0.40615935359E+03  0.44940374487E+03  0.00000000000E+00 0. -1.
<mgrwt>
<rscale>  1 0.30000000E+03</rscale>
<asrwt>0</asrwt>
<pdfrwt beam="1">  1       21 0.13742316E+00 0.30000000E+03</pdfrwt>
<pdfrwt beam="2">0</pdfrwt>
<totfact> 0.30983464E+01</totfact>
</mgrwt>
</event>
<event>
 6    1  0.6377696E-002  0.3000000E+03  0.7818608E-02  0.1093470E+00
         21   -1    0    0  501  502  0.00000000000E+00  0.00000000000E+00  0.98365860458E+00  0.98365860458E+00  0.00000000000E+00 0. -1.
         13   -1    0    0    0    0 -0.00000000000E+00 -0.00000000000E+00 -0.10000000000E+04  0.10000000000E+04  0.00000000000E+00 0.  1.
    9000005    2    1    2  501    0  0.13945751918E+02  0.26977248337E+02 -0.38201244677E+03  0.38323284969E+03  0.34134549187E+01 0.  0.
         13    1    3    3    0    0  0.10259091813E+02  0.18353522162E+02 -0.28125639832E+03  0.28204124226E+03  0.00000000000E+00 0.  1.
          1    1    3    3  501    0  0.36866601054E+01  0.86237261749E+01 -0.10075604845E+03  0.10119160744E+03  0.00000000000E+00 0.  1.
         -3    1    1    2    0  502 -0.13945751918E+02 -0.26977248337E+02 -0.61700389463E+03  0.61775080891E+03  0.00000000000E+00 0. -1.
<mgrwt>
<rscale>  1 0.30000000E+03</rscale>
<asrwt>0</asrwt>
<pdfrwt beam="1">  1       21 0.35769479E-02 0.30000000E+03</pdfrwt>
<pdfrwt beam="2">0</pdfrwt>
<totfact> 0.50733864E+04</totfact>
</mgrwt>
</event>
<event>
 6    1  0.6377696E-002  0.3000000E+03  0.7818608E-02  0.1093470E+00
         21   -1    0    0  501  502  0.00000000000E+00  0.00000000000E+00  0.13510791958E+01  0.13510791958E+01  0.00000000000E+00 0. -1.
         13   -1    0    0    0    0 -0.00000000000E+00 -0.00000000000E+00 -0.10000000000E+04  0.10000000000E+04  0.00000000000E+00 0.  1.
    9000005    2    1    2  501    0  0.29277053691E+02 -0.11108437509E+02 -0.24331495190E+03  0.24536830966E+03  0.47852178510E+01 0.  0.
         13    1    3    3    0    0  0.59703850054E+01 -0.36616652383E+01 -0.43371991024E+02  0.43933846802E+02  0.00000000000E+00 0.  1.
          1    1    3    3  501    0  0.23306668685E+02 -0.74467722704E+01 -0.19994296088E+03  0.20143446286E+03  0.00000000000E+00 0.  1.
         -1    1    1    2    0  502 -0.29277053691E+02  0.11108437509E+02 -0.75533396890E+03  0.75598276953E+03  0.00000000000E+00 0. -1.
<mgrwt>
<rscale>  1 0.30000000E+03</rscale>
<asrwt>0</asrwt>
<pdfrwt beam="1">  1       21 0.49130256E-02 0.30000000E+03</pdfrwt>
<pdfrwt beam="2">0</pdfrwt>
<totfact> 0.29678973E+04</totfact>
</mgrwt>
</event>
<event>
 6    1  0.6377696E-002  0.3000000E+03  0.7818608E-02  0.1093470E+00
         21   -1    0    0  501  502  0.00000000000E+00  0.00000000000E+00  0.14974574081E+01  0.14974574081E+01  0.00000000000E+00 0. -1.
         13   -1    0    0    0    0 -0.00000000000E+00 -0.00000000000E+00 -0.10000000000E+04  0.10000000000E+04  0.00000000000E+00 0.  1.
    9000005    2    1    2  501    0 -0.23082374612E+02 -0.28995941032E+02 -0.64178572216E+03  0.64286052318E+03  0.26792685251E+01 0.  0.
         13    1    3    3    0    0 -0.19756125976E+01 -0.20526570817E+01 -0.39019884690E+02  0.39123750427E+02  0.00000000000E+00 0.  1.
          1    1    3    3  501    0 -0.21106762014E+02 -0.26943283950E+02 -0.60276583747E+03  0.60373677275E+03  0.00000000000E+00 0.  1.
         -3    1    1    2    0  502  0.23082374612E+02  0.28995941032E+02 -0.35671682043E+03  0.35863693423E+03  0.00000000000E+00 0. -1.
<mgrwt>
<rscale>  1 0.30000000E+03</rscale>
<asrwt>0</asrwt>
<pdfrwt beam="1">  1       21 0.54453111E-02 0.30000000E+03</pdfrwt>
<pdfrwt beam="2">0</pdfrwt>
<totfact> 0.24896974E+04</totfact>
</mgrwt>
</event>
<event>
 6    1  0.6377696E-002  0.3000000E+03  0.7818608E-02  0.1093470E+00
         21   -1    0    0  501  502  0.00000000000E+00  0.00000000000E+00  0.15728939510E+01  0.15728939510E+01  0.00000000000E+00 0. -1.
         13   -1    0    0    0    0 -0.00000000000E+00 -0.00000000000E+00 -0.10000000000E+04  0.10000000000E+04  0.00000000000E+00 0.  1.
    9000005    2    1    2  501    0 -0.25922218673E+02 -0.29748840308E+02 -0.47779413891E+03  0.47944681589E+03  0.50055138170E+01 0.  0.
         13    1    3    3    0    0 -0.93678192454E+01 -0.86271609212E+01 -0.17727012116E+03  0.17772698106E+03  0.00000000000E+00 0.  1.
          3    1    3    3  501    0 -0.16554399428E+02 -0.21121679387E+02 -0.30052401775E+03  0.30171983482E+03  0.00000000000E+00 0.  1.
         -1    1    1    2    0  502  0.25922218673E+02  0.29748840308E+02 -0.52063296714E+03  0.52212607807E+03  0.00000000000E+00 0. -1.
<mgrwt>
<rscale>  1 0.30000000E+03</rscale>
<asrwt>0</asrwt>
<pdfrwt beam="1">  1       21 0.57196264E-02 0.30000000E+03</pdfrwt>
<pdfrwt beam="2">0</pdfrwt>
<totfact> 0.22882591E+04</totfact>
</mgrwt>
</event>
<event>
 6    1  0.6377696E-002  0.3000000E+03  0.7818608E-02  0.1093470E+00
         21   -1    0    0  501  502  0.00000000000E+00  0.00000000000E+00  0.20031445857E+01  0.20031445857E+01  0.00000000000E+00 0. -1.
         13   -1    0    0    0    0 -0.00000000000E+00 -0.00000000000E+00 -0.10000000000E+04  0.10000000000E+04  0.00000000000E+00 0.  1.
    9000005    2    1    2  501    0  0.12992916545E+02 -0.41778039031E+02 -0.40964812691E+03  0.41202988523E+03  0.65435474921E+01 0.  0.
         13    1    3    3    0    0  0.32631706387E+01 -0.20767821271E+02 -0.18407731640E+03  0.18527387591E+03  0.00000000000E+00 0.  1.
          3    1    3    3  501    0  0.97297459068E+01 -0.21010217760E+02 -0.22557081051E+03  0.22675600932E+03  0.00000000000E+00 0.  1.
         -3    1    1    2    0  502 -0.12992916545E+02  0.41778039031E+02 -0.58834872850E+03  0.58997325936E+03  0.00000000000E+00 0. -1.
<mgrwt>
<rscale>  1 0.30000000E+03</rscale>
<asrwt>0</asrwt>
<pdfrwt beam="1">  1       21 0.72841775E-02 0.30000000E+03</pdfrwt>
<pdfrwt beam="2">0</pdfrwt>
<totfact> 0.15053875E+04</totfact>
</mgrwt>
</event>
<event>
 6    1  0.6377696E-002  0.3000000E+03  0.7818608E-02  0.1093470E+00
         21   -1    0    0  501  502  0.00000000000E+00  0.00000000000E+00  0.13402314159E+01  0.13402314159E+01  0.00000000000E+00 0. -1.
         13   -1    0    0    0    0 -0.00000000000E+00 -0.00000000000E+00 -0.10000000000E+04  0.10000000000E+04  0.00000000000E+00 0.  1.
    9000005    2    1    2  501    0 -0.13637409859E+02  0.33082415887E+02 -0.60075779232E+03  0.60183252447E+03  0.34694807479E+01 0.  0.
         13    1    3    3    0    0 -0.83924225451E+01  0.17462720701E+02 -0.30224407931E+03  0.30286442982E+03  0.00000000000E+00 0.  1.
          3    1    3    3  501    0 -0.52449873136E+01  0.15619695186E+02 -0.29851371300E+03  0.29896809465E+03  0.00000000000E+00 0.  1.
         -1    1    1    2    0  502  0.13637409859E+02 -0.33082415887E+02 -0.39790197627E+03  0.39950770694E+03  0.00000000000E+00 0. -1.
<mgrwt>
<rscale>  1 0.30000000E+03</rscale>
<asrwt>0</asrwt>
<pdfrwt beam="1">  1       21 0.48735791E-02 0.30000000E+03</pdfrwt>
<pdfrwt beam="2">0</pdfrwt>
<totfact> 0.30089232E+04</totfact>
</mgrwt>
</event>
<event>
 6    1  0.6377696E-002  0.3000000E+03  0.7818608E-02  0.1093470E+00
         21   -1    0    0  501  502  0.00000000000E+00  0.00000000000E+00  0.19974457740E+01  0.19974457740E+01  0.00000000000E+00 0. -1.
         13   -1    0    0    0    0 -0.00000000000E+00 -0.00000000000E+00 -0.10000000000E+04  0.10000000000E+04  0.00000000000E+00 0.  1.
    9000005    2    1    2  501    0 -0.23975037424E+02 -0.37362188999E+02 -0.55237806443E+03  0.55416720842E+03  0.30055338603E+01 0.  0.
         13    1    3    3    0    0 -0.17846215469E+02 -0.27417989902E+02 -0.42273682402E+03  0.42400077353E+03  0.00000000000E+00 0.  1.
          1    1    3    3  501    0 -0.61288219553E+01 -0.99441990976E+01 -0.12964124041E+03  0.13016643488E+03  0.00000000000E+00 0.  1.
         -1    1    1    2    0  502  0.23975037424E+02  0.37362188999E+02 -0.44562448979E+03  0.44783023736E+03  0.00000000000E+00 0. -1.
<mgrwt>
<rscale>  1 0.30000000E+03</rscale>
<asrwt>0</asrwt>
<pdfrwt beam="1">  1       21 0.72634545E-02 0.30000000E+03</pdfrwt>
<pdfrwt beam="2">0</pdfrwt>
<totfact> 0.15128952E+04</totfact>
</mgrwt>
</event>
<event>
 6    1  0.6377696E-002  0.3000000E+03  0.7818608E-02  0.1093470E+00
         21   -1    0    0  501  502  0.00000000000E+00  0.00000000000E+00  0.16552536544E+01  0.16552536544E+01  0.00000000000E+00 0. -1.
         13   -1    0    0    0    0 -0.00000000000E+00 -0.00000000000E+00 -0.10000000000E+04  0.10000000000E+04  0.00000000000E+00 0.  1.
    9000005    2    1    2  501    0 -0.38097708992E+02 -0.79633268853E+01 -0.36107503489E+03  0.36319810149E+03  0.47780856858E+01 0.  0.
         13    1    3    3    0    0 -0.12224896439E+02 -0.48054868241E+01 -0.11662073654E+03  0.11735815688E+03  0.00000000000E+00 0.  1.
          1    1    3    3  501    0 -0.25872812554E+02 -0.31578400612E+01 -0.24445429835E+03  0.24583994461E+03  0.00000000000E+00 0.  1.
         -1    1    1    2    0  502  0.38097708992E+02  0.79633268853E+01 -0.63726971146E+03  0.63845715216E+03  0.00000000000E+00 0. -1.
<mgrwt>
<rscale>  1 0.30000000E+03</rscale>
<asrwt>0</asrwt>
<pdfrwt beam="1">  1       21 0.60191169E-02 0.30000000E+03</pdfrwt>
<pdfrwt beam="2">0</pdfrwt>
<totfact> 0.20956371E+04</totfact>
</mgrwt>
</event>
<event>
 6    1  0.6377696E-002  0.3000000E+03  0.7818608E-02  0.1093470E+00
         21   -1    0    0  501  502  0.00000000000E+00  0.00000000000E+00  0.93603467268E+00  0.93603467268E+00  0.00000000000E+00 0. -1.
         13   -1    0    0    0    0 -0.00000000000E+00 -0.00000000000E+00 -0.10000000000E+04  0.10000000000E+04  0.00000000000E+00 0.  1.
    9000005    2    1    2  501    0 -0.13394056808E+02  0.27335998256E+02 -0.53063215537E+03  0.53151616064E+03  0.35053029521E+01 0.  0.
         13    1    3    3    0    0 -0.39239202997E+00  0.19882591572E+01 -0.24928486393E+02  0.25010729294E+02  0.00000000000E+00 0.  1.
          1    1    3    3  501    0 -0.13001664778E+02  0.25347739099E+02 -0.50570366898E+03  0.50650543134E+03  0.00000000000E+00 0.  1.
         -3    1    1    2    0  502  0.13394056808E+02 -0.27335998256E+02 -0.46843180996E+03  0.46941987403E+03  0.00000000000E+00 0. -1.
<mgrwt>
<rscale>  1 0.30000000E+03</rscale>
<asrwt>0</asrwt>
<pdfrwt beam="1">  1       21 0.34037696E-02 0.30000000E+03</pdfrwt>
<pdfrwt beam="2">0</pdfrwt>
<totfact> 0.55128837E+04</totfact>
</mgrwt>
</event>
<event>
 6    1  0.6377696E-002  0.3000000E+03  0.7818608E-02  0.1093470E+00
         21   -1    0    0  501  502  0.00000000000E+00  0.00000000000E+00  0.14711993477E+01  0.14711993477E+01  0.00000000000E+00 0. -1.
         13   -1    0    0    0    0 -0.00000000000E+00 -0.00000000000E+00 -0.10000000000E+04  0.10000000000E+04  0.00000000000E+00 0.  1.
    9000005    2    1    2  501    0 -0.32754116623E+01  0.35971731333E+02 -0.66522433849E+03  0.66621524001E+03  0.38251431675E+01 0.  0.
         13    1    3    3    0    0 -0.29847004128E+01  0.35641056648E+02 -0.66125852957E+03  0.66222506468E+03  0.00000000000E+00 0.  1.
          3    1    3    3  501    0 -0.29071124949E+00  0.33067468522E+00 -0.39658089199E+01  0.39901753304E+01  0.00000000000E+00 0.  1.
         -1    1    1    2    0  502  0.32754116623E+01 -0.35971731333E+02 -0.33330446216E+03  0.33525595934E+03  0.00000000000E+00 0. -1.
<mgrwt>
<rscale>  1 0.30000000E+03</rscale>
<asrwt>0</asrwt>
<pdfrwt beam="1">  1       21 0.53498271E-02 0.30000000E+03</pdfrwt>
<pdfrwt beam="2">0</pdfrwt>
<totfact> 0.25662723E+04</totfact>
</mgrwt>
</event>
<event>
 6    1  0.6377696E-002  0.3000000E+03  0.7818608E-02  0.1093470E+00
         21   -1    0    0  501  502  0.00000000000E+00  0.00000000000E+00  0.97804491502E+00  0.97804491502E+00  0.00000000000E+00 0. -1.
         13   -1    0    0    0    0 -0.00000000000E+00 -0.00000000000E+00 -0.10000000000E+04  0.10000000000E+04  0.00000000000E+00 0.  1.
    9000005    2    1    2  501    0  0.10262517540E+02 -0.29432733867E+02 -0.48291185718E+03  0.48392752684E+03  0.32224730791E+01 0.  0.
         13    1    3    3    0    0  0.59490221627E+01 -0.20243479354E+02 -0.34235951474E+03  0.34300907664E+03  0.00000000000E+00 0.  1.
          1    1    3    3  501    0  0.43134953769E+01 -0.91892545137E+01 -0.14055234244E+03  0.14091845020E+03  0.00000000000E+00 0.  1.
         -3    1    1    2    0  502 -0.10262517540E+02  0.29432733867E+02 -0.51611009790E+03  0.51705051808E+03  0.00000000000E+00 0. -1.
<mgrwt>
<rscale>  1 0.30000000E+03</rscale>
<asrwt>0</asrwt>
<pdfrwt beam="1">  1       21 0.35565345E-02 0.30000000E+03</pdfrwt>
<pdfrwt beam="2">0</pdfrwt>
<totfact> 0.51223001E+04</totfact>
</mgrwt>
</event>
<event>
 6    1  0.6377696E-002  0.3000000E+03  0.7818608E-02  0.1093470E+00
         21   -1    0    0  501  502  0.00000000000E+00  0.00000000000E+00  0.13389156543E+01  0.13389156543E+01  0.00000000000E+00 0. -1.
         13   -1    0    0    0    0 -0.00000000000E+00 -0.00000000000E+00 -0.10000000000E+04  0.10000000000E+04  0.00000000000E+00 0.  1.
    9000005    2    1    2  501    0 -0.67990565622E+01 -0.31360572838E+02 -0.26359396698E+03  0.26557171081E+03  0.41038339359E+01 0.  0.
         13    1    3    3    0    0 -0.65679076604E+01 -0.22863198584E+02 -0.20120565800E+03  0.20260695958E+03  0.00000000000E+00 0.  1.
          3    1    3    3  501    0 -0.23114890171E+00 -0.84973742539E+01 -0.62388308986E+02  0.62964751227E+02  0.00000000000E+00 0.  1.
         -3    1    1    2    0  502  0.67990565622E+01  0.31360572838E+02 -0.73506711736E+03  0.73576720485E+03  0.00000000000E+00 0. -1.
<mgrwt>
<rscale>  1 0.30000000E+03</rscale>
<asrwt>0</asrwt>
<pdfrwt beam="1">  1       21 0.48687945E-02 0.30000000E+03</pdfrwt>
<pdfrwt beam="2">0</pdfrwt>
<totfact> 0.30139595E+04</totfact>
</mgrwt>
</event>
<event>
 6    1  0.6377696E-002  0.3000000E+03  0.7818608E-02  0.1093470E+00
         21   -1    0    0  501  502  0.00000000000E+00  0.00000000000E+00  0.44426599954E+01  0.44426599954E+01  0.00000000000E+00 0. -1.
         13   -1    0    0    0    0 -0.00000000000E+00 -0.00000000000E+00 -0.10000000000E+04  0.10000000000E+04  0.00000000000E+00 0.  1.
    9000005    2    1    2  501    0  0.78833931208E+01 -0.50700023081E+02 -0.81817679646E+03  0.81979029079E+03  0.31953668144E+01 0.  0.
         13    1    3    3    0    0  0.79986394529E+01 -0.44956822678E+02 -0.72869019231E+03  0.73011950426E+03  0.00000000000E+00 0.  1.
          3    1    3    3  501    0 -0.11524633208E+00 -0.57432004026E+01 -0.89486604156E+02  0.89670786525E+02  0.00000000000E+00 0.  1.
         -1    1    1    2    0  502 -0.78833931208E+01  0.50700023081E+02 -0.17738054354E+03  0.18465236921E+03  0.00000000000E+00 0. -1.
<mgrwt>
<rscale>  1 0.30000000E+03</rscale>
<asrwt>0</asrwt>
<pdfrwt beam="1">  1       21 0.16155161E-01 0.30000000E+03</pdfrwt>
<pdfrwt beam="2">0</pdfrwt>
<totfact> 0.35875238E+03</totfact>
</mgrwt>
</event>
<event>
 6    1  0.6377696E-002  0.3000000E+03  0.7818608E-02  0.1093470E+00
         21   -1    0    0  501  502  0.00000000000E+00  0.00000000000E+00  0.29731117110E+01  0.29731117110E+01  0.00000000000E+00 0. -1.
         13   -1    0    0    0    0 -0.00000000000E+00 -0.00000000000E+00 -0.10000000000E+04  0.10000000000E+04  0.00000000000E+00 0.  1.
    9000005    2    1    2  501    0 -0.47284154879E+02 -0.25423762442E+02 -0.41341745760E+03  0.41689962947E+03  0.30245334966E+01 0.  0.
         13    1    3    3    0    0 -0.10314822745E+02 -0.45784988960E+01 -0.93935253690E+02  0.94610729340E+02  0.00000000000E+00 0.  1.
          3    1    3    3  501    0 -0.36969332134E+02 -0.20845263546E+02 -0.31948220391E+03  0.32228890013E+03  0.00000000000E+00 0.  1.
         -3    1    1    2    0  502  0.47284154879E+02  0.25423762442E+02 -0.58360943068E+03  0.58607348224E+03  0.00000000000E+00 0. -1.
<mgrwt>
<rscale>  1 0.30000000E+03</rscale>
<asrwt>0</asrwt>
<pdfrwt beam="1">  1       21 0.10811338E-01 0.30000000E+03</pdfrwt>
<pdfrwt beam="2">0</pdfrwt>
<totfact> 0.74811207E+03</totfact>
</mgrwt>
</event>
<event>
 6    1  0.6377696E-002  0.3000000E+03  0.7818608E-02  0.1093470E+00
         21   -1    0    0  501  502  0.00000000000E+00  0.00000000000E+00  0.20399938049E+01  0.20399938049E+01  0.00000000000E+00 0. -1.
         13   -1    0    0    0    0 -0.00000000000E+00 -0.00000000000E+00 -0.10000000000E+04  0.10000000000E+04  0.00000000000E+00 0.  1.
    9000005    2    1    2  501    0  0.31415380928E+02  0.32254257454E+02 -0.52990031668E+03  0.53181968774E+03  0.32513646293E+01 0.  0.
         13    1    3    3    0    0 -0.83508338145E-01  0.80125883728E-01 -0.12383479236E+01  0.12437440974E+01  0.00000000000E+00 0.  1.
          3    1    3    3  501    0  0.31498889267E+02  0.32174131571E+02 -0.52866196876E+03  0.53057594365E+03  0.00000000000E+00 0.  1.
         -1    1    1    2    0  502 -0.31415380928E+02 -0.32254257454E+02 -0.46805968952E+03  0.47022030606E+03  0.00000000000E+00 0. -1.
<mgrwt>
<rscale>  1 0.30000000E+03</rscale>
<asrwt>0</asrwt>
<pdfrwt beam="1">  1       21 0.74181749E-02 0.30000000E+03</pdfrwt>
<pdfrwt beam="2">0</pdfrwt>
<totfact> 0.14581780E+04</totfact>
</mgrwt>
</event>
<event>
 6    1  0.6377696E-002  0.3000000E+03  0.7818608E-02  0.1093470E+00
         21   -1    0    0  501  502  0.00000000000E+00  0.00000000000E+00  0.11937703809E+01  0.11937703809E+01  0.00000000000E+00 0. -1.
         13   -1    0    0    0    0 -0.00000000000E+00 -0.00000000000E+00 -0.10000000000E+04  0.10000000000E+04  0.00000000000E+00 0.  1.
    9000005    2    1    2  501    0  0.32991261052E+02 -0.60577973652E+01 -0.61531920178E+03  0.61624257771E+03  0.34748084382E+01 0.  0.
         13    1    3    3    0    0  0.21849268707E+02 -0.53124853257E+01 -0.42934863588E+03  0.42993704676E+03  0.00000000000E+00 0.  1.
          3    1    3    3  501    0  0.11141992346E+02 -0.74531203946E+00 -0.18597056589E+03  0.18630553095E+03  0.00000000000E+00 0.  1.
         -3    1    1    2    0  502 -0.32991261052E+02  0.60577973652E+01 -0.38348702784E+03  0.38495119267E+03  0.00000000000E+00 0. -1.
<mgrwt>
<rscale>  1 0.30000000E+03</rscale>
<asrwt>0</asrwt>
<pdfrwt beam="1">  1       21 0.43409924E-02 0.30000000E+03</pdfrwt>
<pdfrwt beam="2">0</pdfrwt>
<totfact> 0.36624134E+04</totfact>
</mgrwt>
</event>
<event>
 6    1  0.6377696E-002  0.3000000E+03  0.7818608E-02  0.1093470E+00
         21   -1    0    0  501  502  0.00000000000E+00  0.00000000000E+00  0.14019670881E+01  0.14019670881E+01  0.00000000000E+00 0. -1.
         13   -1    0    0    0    0 -0.00000000000E+00 -0.00000000000E+00 -0.10000000000E+04  0.10000000000E+04  0.00000000000E+00 0.  1.
    9000005    2    1    2  501    0  0.24235761535E+01 -0.30246480187E+02 -0.20728901935E+03  0.20951139496E+03  0.23587685043E+01 0.  0.
         13    1    3    3    0    0  0.15141653485E+00 -0.10414090942E+02 -0.65075206886E+02  0.65903404832E+02  0.00000000000E+00 0.  1.
          3    1    3    3  501    0  0.22721596187E+01 -0.19832389245E+02 -0.14221381247E+03  0.14360799013E+03  0.00000000000E+00 0.  1.
         -1    1    1    2    0  502 -0.24235761535E+01  0.30246480187E+02 -0.79130901356E+03  0.79189057213E+03  0.00000000000E+00 0. -1.
<mgrwt>
<rscale>  1 0.30000000E+03</rscale>
<asrwt>0</asrwt>
<pdfrwt beam="1">  1       21 0.50980729E-02 0.30000000E+03</pdfrwt>
<pdfrwt beam="2">0</pdfrwt>
<totfact> 0.27865990E+04</totfact>
</mgrwt>
</event>
<event>
 6    1  0.6377696E-002  0.3000000E+03  0.7818608E-02  0.1093470E+00
         21   -1    0    0  501  502  0.00000000000E+00  0.00000000000E+00  0.30770827103E+01  0.30770827103E+01  0.00000000000E+00 0. -1.
         13   -1    0    0    0    0 -0.00000000000E+00 -0.00000000000E+00 -0.10000000000E+04  0.10000000000E+04  0.00000000000E+00 0.  1.
    9000005    2    1    2  501    0 -0.67701574538E+01 -0.30026274542E+02 -0.91559894432E+03  0.91612306743E+03  0.35546632892E+01 0.  0.
         13    1    3    3    0    0 -0.45490052574E+01 -0.25550953007E+02 -0.75088498351E+03  0.75133335020E+03  0.00000000000E+00 0.  1.
          3    1    3    3  501    0 -0.22211521964E+01 -0.44753215350E+01 -0.16471396081E+03  0.16478971723E+03  0.00000000000E+00 0.  1.
         -3    1    1    2    0  502  0.67701574538E+01  0.30026274542E+02 -0.81323972968E+02  0.86954015285E+02  0.00000000000E+00 0. -1.
<mgrwt>
<rscale>  1 0.30000000E+03</rscale>
<asrwt>0</asrwt>
<pdfrwt beam="1">  1       21 0.11189415E-01 0.30000000E+03</pdfrwt>
<pdfrwt beam="2">0</pdfrwt>
<totfact> 0.70324906E+03</totfact>
</mgrwt>
</event>
<event>
 6    1  0.6377696E-002  0.3000000E+03  0.7818608E-02  0.1093470E+00
         21   -1    0    0  501  502  0.00000000000E+00  0.00000000000E+00  0.25290478475E+01  0.25290478475E+01  0.00000000000E+00 0. -1.
         13   -1    0    0    0    0 -0.00000000000E+00 -0.00000000000E+00 -0.10000000000E+04  0.10000000000E+04  0.00000000000E+00 0.  1.
    9000005    2    1    2  501    0  0.43175181933E+02  0.99863875879E+01 -0.26356402732E+03  0.26728541571E+03  0.34165312127E+01 0.  0.
         13    1    3    3    0    0  0.27585685522E+02  0.74030139940E+01 -0.17734914993E+03  0.17963433871E+03  0.00000000000E+00 0.  1.
          1    1    3    3  501    0  0.15589496411E+02  0.25833735939E+01 -0.86214877386E+02  0.87651077005E+02  0.00000000000E+00 0.  1.
         -1    1    1    2    0  502 -0.43175181933E+02 -0.99863875879E+01 -0.73390692483E+03  0.73524363213E+03  0.00000000000E+00 0. -1.
<mgrwt>
<rscale>  1 0.30000000E+03</rscale>
<asrwt>0</asrwt>
<pdfrwt beam="1">  1       21 0.91965570E-02 0.30000000E+03</pdfrwt>
<pdfrwt beam="2">0</pdfrwt>
<totfact> 0.99879765E+03</totfact>
</mgrwt>
</event>
<event>
 6    1  0.6377696E-002  0.3000000E+03  0.7818608E-02  0.1093470E+00
         21   -1    0    0  501  502  0.00000000000E+00  0.00000000000E+00  0.28156877374E+01  0.28156877374E+01  0.00000000000E+00 0. -1.
         13   -1    0    0    0    0 -0.00000000000E+00 -0.00000000000E+00 -0.10000000000E+04  0.10000000000E+04  0.00000000000E+00 0.  1.
    9000005    2    1    2  501    0  0.10048410507E+02 -0.35070722692E+02 -0.13531969685E+03  0.14017929768E+03  0.28087363201E+01 0.  0.
         13    1    3    3    0    0  0.28890378180E+01 -0.75784834145E+01 -0.33806973545E+02  0.34766239524E+02  0.00000000000E+00 0.  1.
          3    1    3    3  501    0  0.71593726894E+01 -0.27492239278E+02 -0.10151272330E+03  0.10541305816E+03  0.00000000000E+00 0.  1.
         -1    1    1    2    0  502 -0.10048410507E+02  0.35070722692E+02 -0.86186461542E+03  0.86263639006E+03  0.00000000000E+00 0. -1.
<mgrwt>
<rscale>  1 0.30000000E+03</rscale>
<asrwt>0</asrwt>
<pdfrwt beam="1">  1       21 0.10238886E-01 0.30000000E+03</pdfrwt>
<pdfrwt beam="2">0</pdfrwt>
<totfact> 0.82475832E+03</totfact>
</mgrwt>
</event>
<event>
 6    1  0.6377696E-002  0.3000000E+03  0.7818608E-02  0.1093470E+00
         21   -1    0    0  501  502  0.00000000000E+00  0.00000000000E+00  0.14933057589E+01  0.14933057589E+01  0.00000000000E+00 0. -1.
         13   -1    0    0    0    0 -0.00000000000E+00 -0.00000000000E+00 -0.10000000000E+04  0.10000000000E+04  0.00000000000E+00 0.  1.
    9000005    2    1    2  501    0  0.35847958669E+02  0.13359261403E+02 -0.56526475264E+03  0.56656558077E+03  0.29615408956E+01 0.  0.
         13    1    3    3    0    0  0.34249010172E+02  0.12093949903E+02 -0.53215813611E+03  0.53339623185E+03  0.00000000000E+00 0.  1.
          3    1    3    3  501    0  0.15989484975E+01  0.12653114995E+01 -0.33106616532E+02  0.33169348919E+02  0.00000000000E+00 0.  1.
         -1    1    1    2    0  502 -0.35847958669E+02 -0.13359261403E+02 -0.43324194160E+03  0.43492772499E+03  0.00000000000E+00 0. -1.
<mgrwt>
<rscale>  1 0.30000000E+03</rscale>
<asrwt>0</asrwt>
<pdfrwt beam="1">  1       21 0.54302142E-02 0.30000000E+03</pdfrwt>
<pdfrwt beam="2">0</pdfrwt>
<totfact> 0.25015680E+04</totfact>
</mgrwt>
</event>
<event>
 6    1  0.6377696E-002  0.3000000E+03  0.7818608E-02  0.1093470E+00
         21   -1    0    0  501  502  0.00000000000E+00  0.00000000000E+00  0.34374132214E+01  0.34374132214E+01  0.00000000000E+00 0. -1.
         13   -1    0    0    0    0 -0.00000000000E+00 -0.00000000000E+00 -0.10000000000E+04  0.10000000000E+04  0.00000000000E+00 0.  1.
    9000005    2    1    2  501    0  0.36569137651E+02  0.84813399196E+01 -0.11360330327E+03  0.11968047192E+03  0.29103077021E+01 0.  0.
         13    1    3    3    0    0  0.87072845859E+01  0.29589148624E+01 -0.25155323720E+02  0.26783619873E+02  0.00000000000E+00 0.  1.
          1    1    3    3  501    0  0.27861853065E+02  0.55224250572E+01 -0.88447979546E+02  0.92896852048E+02  0.00000000000E+00 0.  1.
         -1    1    1    2    0  502 -0.36569137651E+02 -0.84813399196E+01 -0.88295928351E+03  0.88375694130E+03  0.00000000000E+00 0. -1.
<mgrwt>
<rscale>  1 0.30000000E+03</rscale>
<asrwt>0</asrwt>
<pdfrwt beam="1">  1       21 0.12499711E-01 0.30000000E+03</pdfrwt>
<pdfrwt beam="2">0</pdfrwt>
<totfact> 0.57539366E+03</totfact>
</mgrwt>
</event>
<event>
 6    1  0.6377696E-002  0.3000000E+03  0.7818608E-02  0.1093470E+00
         21   -1    0    0  501  502  0.00000000000E+00  0.00000000000E+00  0.10417797711E+01  0.10417797711E+01  0.00000000000E+00 0. -1.
         13   -1    0    0    0    0 -0.00000000000E+00 -0.00000000000E+00 -0.10000000000E+04  0.10000000000E+04  0.00000000000E+00 0.  1.
    9000005    2    1    2  501    0 -0.11189266672E+02  0.29322631957E+02 -0.38708710448E+03  0.38836627127E+03  0.26301652515E+01 0.  0.
         13    1    3    3    0    0 -0.79665791829E+01  0.23427448721E+02 -0.29708848841E+03  0.29811722809E+03  0.00000000000E+00 0.  1.
          1    1    3    3  501    0 -0.32226874887E+01  0.58951832362E+01 -0.89998616064E+02  0.90249043172E+02  0.00000000000E+00 0.  1.
         -1    1    1    2    0  502  0.11189266672E+02 -0.29322631957E+02 -0.61187111575E+03  0.61267550851E+03  0.00000000000E+00 0. -1.
<mgrwt>
<rscale>  1 0.30000000E+03</rscale>
<asrwt>0</asrwt>
<pdfrwt beam="1">  1       21 0.37882981E-02 0.30000000E+03</pdfrwt>
<pdfrwt beam="2">0</pdfrwt>
<totfact> 0.46074201E+04</totfact>
</mgrwt>
</event>
<event>
 6    1  0.6377696E-002  0.3000000E+03  0.7818608E-02  0.1093470E+00
         21   -1    0    0  501  502  0.00000000000E+00  0.00000000000E+00  0.10946432898E+01  0.10946432898E+01  0.00000000000E+00 0. -1.
         13   -1    0    0    0    0 -0.00000000000E+00 -0.00000000000E+00 -0.10000000000E+04  0.10000000000E+04  0.00000000000E+00 0.  1.
    9000005    2    1    2  501    0  0.15807829326E+02  0.28865412847E+02 -0.47570089366E+03  0.47685613871E+03  0.41638048804E+01 0.  0.
         13    1    3    3    0    0  0.11276953206E+02  0.23416486679E+02 -0.35811760759E+03  0.35905949701E+03  0.00000000000E+00 0.  1.
          1    1    3    3  501    0  0.45308761202E+01  0.54489261677E+01 -0.11758328607E+03  0.11779664171E+03  0.00000000000E+00 0.  1.
         -3    1    1    2    0  502 -0.15807829326E+02 -0.28865412847E+02 -0.52320446305E+03  0.52423850458E+03  0.00000000000E+00 0. -1.
<mgrwt>
<rscale>  1 0.30000000E+03</rscale>
<asrwt>0</asrwt>
<pdfrwt beam="1">  1       21 0.39805294E-02 0.30000000E+03</pdfrwt>
<pdfrwt beam="2">0</pdfrwt>
<totfact> 0.42394219E+04</totfact>
</mgrwt>
</event>
<event>
 6    1  0.6377696E-002  0.3000000E+03  0.7818608E-02  0.1093470E+00
         21   -1    0    0  501  502  0.00000000000E+00  0.00000000000E+00  0.96144083786E+00  0.96144083786E+00  0.00000000000E+00 0. -1.
         13   -1    0    0    0    0 -0.00000000000E+00 -0.00000000000E+00 -0.10000000000E+04  0.10000000000E+04  0.00000000000E+00 0.  1.
    9000005    2    1    2  501    0  0.22653480644E+02  0.20196771696E+02 -0.40802242727E+03  0.40916657948E+03  0.37281143057E+01 0.  0.
         13    1    3    3    0    0  0.16448014881E+01  0.40434389788E+00 -0.19440903068E+02  0.19514547856E+02  0.00000000000E+00 0.  1.
          3    1    3    3  501    0  0.21008679156E+02  0.19792427798E+02 -0.38858152420E+03  0.38965203163E+03  0.00000000000E+00 0.  1.
         -1    1    1    2    0  502 -0.22653480644E+02 -0.20196771696E+02 -0.59101613189E+03  0.59179486136E+03  0.00000000000E+00 0. -1.
<mgrwt>
<rscale>  1 0.30000000E+03</rscale>
<asrwt>0</asrwt>
<pdfrwt beam="1">  1       21 0.34961559E-02 0.30000000E+03</pdfrwt>
<pdfrwt beam="2">0</pdfrwt>
<totfact> 0.52713713E+04</totfact>
</mgrwt>
</event>
<event>
 6    1  0.6377696E-002  0.3000000E+03  0.7818608E-02  0.1093470E+00
         21   -1    0    0  501  502  0.00000000000E+00  0.00000000000E+00  0.97096844667E+00  0.97096844667E+00  0.00000000000E+00 0. -1.
         13   -1    0    0    0    0 -0.00000000000E+00 -0.00000000000E+00 -0.10000000000E+04  0.10000000000E+04  0.00000000000E+00 0.  1.
    9000005    2    1    2  501    0  0.39632873281E+01 -0.30725655615E+02 -0.48502127902E+03  0.48603044448E+03  0.44920261701E+01 0.  0.
         13    1    3    3    0    0  0.27489525133E+00 -0.16713763473E+02 -0.27896432976E+03  0.27946470749E+03  0.00000000000E+00 0.  1.
          1    1    3    3  501    0  0.36883920768E+01 -0.14011892142E+02 -0.20605694926E+03  0.20656573698E+03  0.00000000000E+00 0.  1.
         -3    1    1    2    0  502 -0.39632873281E+01  0.30725655615E+02 -0.51400775254E+03  0.51494052397E+03  0.00000000000E+00 0. -1.
<mgrwt>
<rscale>  1 0.30000000E+03</rscale>
<asrwt>0</asrwt>
<pdfrwt beam="1">  1       21 0.35308018E-02 0.30000000E+03</pdfrwt>
<pdfrwt beam="2">0</pdfrwt>
<totfact> 0.51850219E+04</totfact>
</mgrwt>
</event>
<event>
 6    1  0.6377696E-002  0.3000000E+03  0.7818608E-02  0.1093470E+00
         21   -1    0    0  501  502  0.00000000000E+00  0.00000000000E+00  0.10548495697E+01  0.10548495697E+01  0.00000000000E+00 0. -1.
         13   -1    0    0    0    0 -0.00000000000E+00 -0.00000000000E+00 -0.10000000000E+04  0.10000000000E+04  0.00000000000E+00 0.  1.
    9000005    2    1    2  501    0  0.23268025886E+02 -0.20997678570E+02 -0.62737390377E+03  0.62816412177E+03  0.31377084278E+01 0.  0.
         13    1    3    3    0    0  0.31147095849E+01 -0.16309332220E+01 -0.79538652013E+02  0.79616320708E+02  0.00000000000E+00 0.  1.
          1    1    3    3  501    0  0.20153316301E+02 -0.19366745348E+02 -0.54783525176E+03  0.54854780106E+03  0.00000000000E+00 0.  1.
         -3    1    1    2    0  502 -0.23268025886E+02  0.20997678570E+02 -0.37157124666E+03  0.37289072780E+03  0.00000000000E+00 0. -1.
<mgrwt>
<rscale>  1 0.30000000E+03</rscale>
<asrwt>0</asrwt>
<pdfrwt beam="1">  1       21 0.38358247E-02 0.30000000E+03</pdfrwt>
<pdfrwt beam="2">0</pdfrwt>
<totfact> 0.45118987E+04</totfact>
</mgrwt>
</event>
<event>
 6    1  0.6377696E-002  0.3000000E+03  0.7818608E-02  0.1093470E+00
         21   -1    0    0  501  502  0.00000000000E+00  0.00000000000E+00  0.13111912118E+01  0.13111912118E+01  0.00000000000E+00 0. -1.
         13   -1    0    0    0    0 -0.00000000000E+00 -0.00000000000E+00 -0.10000000000E+04  0.10000000000E+04  0.00000000000E+00 0.  1.
    9000005    2    1    2  501    0 -0.18972539687E+02  0.29886415480E+02 -0.39974688065E+03  0.40132403437E+03  0.32026366620E+01 0.  0.
         13    1    3    3    0    0 -0.95550231526E+01  0.12450219428E+02 -0.16807024366E+03  0.16880140176E+03  0.00000000000E+00 0.  1.
          1    1    3    3  501    0 -0.94175165349E+01  0.17436196053E+02 -0.23167663699E+03  0.23252263261E+03  0.00000000000E+00 0.  1.
         -1    1    1    2    0  502  0.18972539687E+02 -0.29886415480E+02 -0.59894192814E+03  0.59998715684E+03  0.00000000000E+00 0. -1.
<mgrwt>
<rscale>  1 0.30000000E+03</rscale>
<asrwt>0</asrwt>
<pdfrwt beam="1">  1       21 0.47679781E-02 0.30000000E+03</pdfrwt>
<pdfrwt beam="2">0</pdfrwt>
<totfact> 0.31232206E+04</totfact>
</mgrwt>
</event>
<event>
 6    1  0.6377696E-002  0.3000000E+03  0.7818608E-02  0.1093470E+00
         21   -1    0    0  501  502  0.00000000000E+00  0.00000000000E+00  0.39836893020E+01  0.39836893020E+01  0.00000000000E+00 0. -1.
         13   -1    0    0    0    0 -0.00000000000E+00 -0.00000000000E+00 -0.10000000000E+04  0.10000000000E+04  0.00000000000E+00 0.  1.
    9000005    2    1    2  501    0 -0.40342571924E+02 -0.12209300547E+02 -0.87154199881E+03  0.87256662629E+03  0.32359706323E+01 0.  0.
         13    1    3    3    0    0 -0.26421018771E+02 -0.69565052206E+01 -0.58823339776E+03  0.58886755169E+03  0.00000000000E+00 0.  1.
          3    1    3    3  501    0 -0.13921553152E+02 -0.52527953269E+01 -0.28330860105E+03  0.28369907460E+03  0.00000000000E+00 0.  1.
         -1    1    1    2    0  502  0.40342571924E+02  0.12209300547E+02 -0.12447431189E+03  0.13141706301E+03  0.00000000000E+00 0. -1.
<mgrwt>
<rscale>  1 0.30000000E+03</rscale>
<asrwt>0</asrwt>
<pdfrwt beam="1">  1       21 0.14486173E-01 0.30000000E+03</pdfrwt>
<pdfrwt beam="2">0</pdfrwt>
<totfact> 0.43918955E+03</totfact>
</mgrwt>
</event>
<event>
 6    1  0.6377696E-002  0.3000000E+03  0.7818608E-02  0.1093470E+00
         21   -1    0    0  501  502  0.00000000000E+00  0.00000000000E+00  0.10958076555E+01  0.10958076555E+01  0.00000000000E+00 0. -1.
         13   -1    0    0    0    0 -0.00000000000E+00 -0.00000000000E+00 -0.10000000000E+04  0.10000000000E+04  0.00000000000E+00 0.  1.
    9000005    2    1    2  501    0 -0.26498789965E+02  0.19018330719E+02 -0.42309991855E+03  0.42436845050E+03  0.33403486196E+01 0.  0.
         13    1    3    3    0    0 -0.25513814505E+02  0.17932006137E+02 -0.41066551778E+03  0.41184788340E+03  0.00000000000E+00 0.  1.
          1    1    3    3  501    0 -0.98497545942E+00  0.10863245813E+01 -0.12434400778E+02  0.12520567098E+02  0.00000000000E+00 0.  1.
         -1    1    1    2    0  502  0.26498789965E+02 -0.19018330719E+02 -0.57580427379E+03  0.57672735715E+03  0.00000000000E+00 0. -1.
<mgrwt>
<rscale>  1 0.30000000E+03</rscale>
<asrwt>0</asrwt>
<pdfrwt beam="1">  1       21 0.39847635E-02 0.30000000E+03</pdfrwt>
<pdfrwt beam="2">0</pdfrwt>
<totfact> 0.42318403E+04</totfact>
</mgrwt>
</event>
<event>
 6    1  0.6377696E-002  0.3000000E+03  0.7818608E-02  0.1093470E+00
         21   -1    0    0  501  502  0.00000000000E+00  0.00000000000E+00  0.35858549819E+01  0.35858549819E+01  0.00000000000E+00 0. -1.
         13   -1    0    0    0    0 -0.00000000000E+00 -0.00000000000E+00 -0.10000000000E+04  0.10000000000E+04  0.00000000000E+00 0.  1.
    9000005    2    1    2  501    0 -0.15222394979E+02 -0.57779608431E+02 -0.52599603130E+03  0.52938821035E+03  0.31381293646E+01 0.  0.
         13    1    3    3    0    0 -0.93524432074E+01 -0.29679003883E+02 -0.26908526134E+03  0.27087855090E+03  0.00000000000E+00 0.  1.
          3    1    3    3  501    0 -0.58699517720E+01 -0.28100604548E+02 -0.25691076996E+03  0.25850965945E+03  0.00000000000E+00 0.  1.
         -1    1    1    2    0  502  0.15222394979E+02  0.57779608431E+02 -0.47041811372E+03  0.47419764463E+03  0.00000000000E+00 0. -1.
<mgrwt>
<rscale>  1 0.30000000E+03</rscale>
<asrwt>0</asrwt>
<pdfrwt beam="1">  1       21 0.13039500E-01 0.30000000E+03</pdfrwt>
<pdfrwt beam="2">0</pdfrwt>
<totfact> 0.53269265E+03</totfact>
</mgrwt>
</event>
<event>
 6    1  0.6377696E-002  0.3000000E+03  0.7818608E-02  0.1093470E+00
         21   -1    0    0  501  502  0.00000000000E+00  0.00000000000E+00  0.17872721297E+01  0.17872721297E+01  0.00000000000E+00 0. -1.
         13   -1    0    0    0    0 -0.00000000000E+00 -0.00000000000E+00 -0.10000000000E+04  0.10000000000E+04  0.00000000000E+00 0.  1.
    9000005    2    1    2  501    0 -0.36056533985E+02  0.60232296656E+01 -0.26177820151E+03  0.26444599121E+03  0.82159929755E+01 0.  0.
         13    1    3    3    0    0 -0.17315768283E+02  0.59446843833E+01 -0.14911839451E+03  0.15023804673E+03  0.00000000000E+00 0.  1.
          1    1    3    3  501    0 -0.18740765702E+02  0.78545282340E-01 -0.11265980700E+03  0.11420794447E+03  0.00000000000E+00 0.  1.
         -1    1    1    2    0  502  0.36056533985E+02 -0.60232296656E+01 -0.73643452636E+03  0.73734128092E+03  0.00000000000E+00 0. -1.
<mgrwt>
<rscale>  1 0.30000000E+03</rscale>
<asrwt>0</asrwt>
<pdfrwt beam="1">  1       21 0.64991851E-02 0.30000000E+03</pdfrwt>
<pdfrwt beam="2">0</pdfrwt>
<totfact> 0.18354029E+04</totfact>
</mgrwt>
</event>
<event>
 6    1  0.6377696E-002  0.3000000E+03  0.7818608E-02  0.1093470E+00
         21   -1    0    0  501  502  0.00000000000E+00  0.00000000000E+00  0.13917740776E+01  0.13917740776E+01  0.00000000000E+00 0. -1.
         13   -1    0    0    0    0 -0.00000000000E+00 -0.00000000000E+00 -0.10000000000E+04  0.10000000000E+04  0.00000000000E+00 0.  1.
    9000005    2    1    2  501    0  0.32416599360E+02  0.32566905073E+01 -0.25812725757E+03  0.26019442759E+03  0.31649805016E+01 0.  0.
         13    1    3    3    0    0  0.18792221303E+02  0.96997467633E+00 -0.13863595305E+03  0.13990716890E+03  0.00000000000E+00 0.  1.
          1    1    3    3  501    0  0.13624378057E+02  0.22867158309E+01 -0.11949130452E+03  0.12028725869E+03  0.00000000000E+00 0.  1.
         -3    1    1    2    0  502 -0.32416599360E+02 -0.32566905073E+01 -0.74048096835E+03  0.74119734649E+03  0.00000000000E+00 0. -1.
<mgrwt>
<rscale>  1 0.30000000E+03</rscale>
<asrwt>0</asrwt>
<pdfrwt beam="1">  1       21 0.50610073E-02 0.30000000E+03</pdfrwt>
<pdfrwt beam="2">0</pdfrwt>
<totfact> 0.28215076E+04</totfact>
</mgrwt>
</event>
<event>
 6    1  0.6377696E-002  0.3000000E+03  0.7818608E-02  0.1093470E+00
         21   -1    0    0  501  502  0.00000000000E+00  0.00000000000E+00  0.97753909808E+00  0.97753909808E+00  0.00000000000E+00 0. -1.
         13   -1    0    0    0    0 -0.00000000000E+00 -0.00000000000E+00 -0.10000000000E+04  0.10000000000E+04  0.00000000000E+00 0.  1.
    9000005    2    1    2  501    0  0.29656386805E+02 -0.82166539576E+01 -0.58168842745E+03  0.58251044343E+03  0.31583846818E+01 0.  0.
         13    1    3    3    0    0  0.82077880814E+01 -0.14342022961E+01 -0.17973509517E+03  0.17992812220E+03  0.00000000000E+00 0.  1.
          3    1    3    3  501    0  0.21448598724E+02 -0.67824516615E+01 -0.40195333228E+03  0.40258232123E+03  0.00000000000E+00 0.  1.
         -3    1    1    2    0  502 -0.29656386805E+02  0.82166539576E+01 -0.41733403345E+03  0.41846709567E+03  0.00000000000E+00 0. -1.
<mgrwt>
<rscale>  1 0.30000000E+03</rscale>
<asrwt>0</asrwt>
<pdfrwt beam="1">  1       21 0.35546951E-02 0.30000000E+03</pdfrwt>
<pdfrwt beam="2">0</pdfrwt>
<totfact> 0.51267440E+04</totfact>
</mgrwt>
</event>
<event>
 6    1  0.6377696E-002  0.3000000E+03  0.7818608E-02  0.1093470E+00
         21   -1    0    0  501  502  0.00000000000E+00  0.00000000000E+00  0.10038546138E+01  0.10038546138E+01  0.00000000000E+00 0. -1.
         13   -1    0    0    0    0 -0.00000000000E+00 -0.00000000000E+00 -0.10000000000E+04  0.10000000000E+04  0.00000000000E+00 0.  1.
    9000005    2    1    2  501    0  0.91644246500E+01  0.30100220067E+02 -0.46097853215E+03  0.46206697327E+03  0.38302415586E+01 0.  0.
         13    1    3    3    0    0  0.27020583191E+00  0.59459111065E-01 -0.88162248869E+01  0.88205650519E+01  0.00000000000E+00 0.  1.
          3    1    3    3  501    0  0.88942188181E+01  0.30040760956E+02 -0.45216230727E+03  0.45324640822E+03  0.00000000000E+00 0.  1.
         -3    1    1    2    0  502 -0.91644246500E+01 -0.30100220067E+02 -0.53801761323E+03  0.53893688135E+03  0.00000000000E+00 0. -1.
<mgrwt>
<rscale>  1 0.30000000E+03</rscale>
<asrwt>0</asrwt>
<pdfrwt beam="1">  1       21 0.36503881E-02 0.30000000E+03</pdfrwt>
<pdfrwt beam="2">0</pdfrwt>
<totfact> 0.49033704E+04</totfact>
</mgrwt>
</event>
<event>
 6    1  0.6377696E-002  0.3000000E+03  0.7818608E-02  0.1093470E+00
         21   -1    0    0  501  502  0.00000000000E+00  0.00000000000E+00  0.24613711747E+01  0.24613711747E+01  0.00000000000E+00 0. -1.
         13   -1    0    0    0    0 -0.00000000000E+00 -0.00000000000E+00 -0.10000000000E+04  0.10000000000E+04  0.00000000000E+00 0.  1.
    9000005    2    1    2  501    0  0.43395888932E+02 -0.21096402868E+02 -0.61348499342E+03  0.61538843714E+03  0.32909011574E+01 0.  0.
         13    1    3    3    0    0  0.33343836855E+02 -0.15511521150E+02 -0.48271290488E+03  0.48411173017E+03  0.00000000000E+00 0.  1.
          1    1    3    3  501    0  0.10052052078E+02 -0.55848817178E+01 -0.13077208853E+03  0.13127670697E+03  0.00000000000E+00 0.  1.
         -3    1    1    2    0  502 -0.43395888932E+02  0.21096402868E+02 -0.38405363541E+03  0.38707293403E+03  0.00000000000E+00 0. -1.
<mgrwt>
<rscale>  1 0.30000000E+03</rscale>
<asrwt>0</asrwt>
<pdfrwt beam="1">  1       21 0.89504595E-02 0.30000000E+03</pdfrwt>
<pdfrwt beam="2">0</pdfrwt>
<totfact> 0.10480049E+04</totfact>
</mgrwt>
</event>
<event>
 6    1  0.6377696E-002  0.3000000E+03  0.7818608E-02  0.1093470E+00
         21   -1    0    0  501  502  0.00000000000E+00  0.00000000000E+00  0.11976547196E+01  0.11976547196E+01  0.00000000000E+00 0. -1.
         13   -1    0    0    0    0 -0.00000000000E+00 -0.00000000000E+00 -0.10000000000E+04  0.10000000000E+04  0.00000000000E+00 0.  1.
    9000005    2    1    2  501    0 -0.88029852737E+01  0.31865811454E+02 -0.35499611888E+03  0.35654318941E+03  0.28069568457E+01 0.  0.
         13    1    3    3    0    0 -0.19947473001E+00  0.41814821730E+01 -0.46007588078E+02  0.46197648686E+02  0.00000000000E+00 0.  1.
          1    1    3    3  501    0 -0.86035105436E+01  0.27684329281E+02 -0.30898853080E+03  0.31034554072E+03  0.00000000000E+00 0.  1.
         -1    1    1    2    0  502  0.88029852737E+01 -0.31865811454E+02 -0.64380622640E+03  0.64465446531E+03  0.00000000000E+00 0. -1.
<mgrwt>
<rscale>  1 0.30000000E+03</rscale>
<asrwt>0</asrwt>
<pdfrwt beam="1">  1       21 0.43551173E-02 0.30000000E+03</pdfrwt>
<pdfrwt beam="2">0</pdfrwt>
<totfact> 0.36423319E+04</totfact>
</mgrwt>
</event>
<event>
 6    1  0.6377696E-002  0.3000000E+03  0.7818608E-02  0.1093470E+00
         21   -1    0    0  501  502  0.00000000000E+00  0.00000000000E+00  0.12226135801E+01  0.12226135801E+01  0.00000000000E+00 0. -1.
         13   -1    0    0    0    0 -0.00000000000E+00 -0.00000000000E+00 -0.10000000000E+04  0.10000000000E+04  0.00000000000E+00 0.  1.
    9000005    2    1    2  501    0 -0.33137360390E+02  0.84426172268E+01 -0.59663805356E+03  0.59763197262E+03  0.42006309330E+01 0.  0.
         13    1    3    3    0    0 -0.60322937604E+01  0.43279323086E-01 -0.11657083003E+03  0.11672681292E+03  0.00000000000E+00 0.  1.
          3    1    3    3  501    0 -0.27105066629E+02  0.83993379037E+01 -0.48006722353E+03  0.48090515970E+03  0.00000000000E+00 0.  1.
         -1    1    1    2    0  502  0.33137360390E+02 -0.84426172268E+01 -0.40213933286E+03  0.40359064096E+03  0.00000000000E+00 0. -1.
<mgrwt>
<rscale>  1 0.30000000E+03</rscale>
<asrwt>0</asrwt>
<pdfrwt beam="1">  1       21 0.44458769E-02 0.30000000E+03</pdfrwt>
<pdfrwt beam="2">0</pdfrwt>
<totfact> 0.35172686E+04</totfact>
</mgrwt>
</event>
<event>
 6    1  0.6377696E-002  0.3000000E+03  0.7818608E-02  0.1093470E+00
         21   -1    0    0  501  502  0.00000000000E+00  0.00000000000E+00  0.20494923556E+01  0.20494923556E+01  0.00000000000E+00 0. -1.
         13   -1    0    0    0    0 -0.00000000000E+00 -0.00000000000E+00 -0.10000000000E+04  0.10000000000E+04  0.00000000000E+00 0.  1.
    9000005    2    1    2  501    0  0.33984750270E+02  0.11743847823E+02 -0.20397175113E+03  0.20725697414E+03  0.76221295426E+01 0.  0.
         13    1    3    3    0    0  0.25074582240E+02  0.60887132420E+01 -0.15769808140E+03  0.15979515631E+03  0.00000000000E+00 0.  1.
          3    1    3    3  501    0  0.89101680306E+01  0.56551345805E+01 -0.46273669730E+02  0.47461817830E+02  0.00000000000E+00 0.  1.
         -3    1    1    2    0  502 -0.33984750270E+02 -0.11743847823E+02 -0.79397875651E+03  0.79479251821E+03  0.00000000000E+00 0. -1.
<mgrwt>
<rscale>  1 0.30000000E+03</rscale>
<asrwt>0</asrwt>
<pdfrwt beam="1">  1       21 0.74527152E-02 0.30000000E+03</pdfrwt>
<pdfrwt beam="2">0</pdfrwt>
<totfact> 0.14463723E+04</totfact>
</mgrwt>
</event>
<event>
 6    1  0.6377696E-002  0.3000000E+03  0.7818608E-02  0.1093470E+00
         21   -1    0    0  501  502  0.00000000000E+00  0.00000000000E+00  0.16106700192E+01  0.16106700192E+01  0.00000000000E+00 0. -1.
         13   -1    0    0    0    0 -0.00000000000E+00 -0.00000000000E+00 -0.10000000000E+04  0.10000000000E+04  0.00000000000E+00 0.  1.
    9000005    2    1    2  501    0 -0.23208333833E+02  0.20915114612E+02 -0.81303868829E+03  0.81364543613E+03  0.33042833197E+01 0.  0.
         13    1    3    3    0    0 -0.74282728621E+01  0.49010816623E+01 -0.24813698539E+03  0.24829652305E+03  0.00000000000E+00 0.  1.
          3    1    3    3  501    0 -0.15780060971E+02  0.16014032950E+02 -0.56490170290E+03  0.56534891308E+03  0.00000000000E+00 0.  1.
         -3    1    1    2    0  502  0.23208333833E+02 -0.20915114612E+02 -0.18535064169E+03  0.18796523389E+03  0.00000000000E+00 0. -1.
<mgrwt>
<rscale>  1 0.30000000E+03</rscale>
<asrwt>0</asrwt>
<pdfrwt beam="1">  1       21 0.58569942E-02 0.30000000E+03</pdfrwt>
<pdfrwt beam="2">0</pdfrwt>
<totfact> 0.21966392E+04</totfact>
</mgrwt>
</event>
<event>
 6    1  0.6377696E-002  0.3000000E+03  0.7818608E-02  0.1093470E+00
         21   -1    0    0  501  502  0.00000000000E+00  0.00000000000E+00  0.11325516501E+01  0.11325516501E+01  0.00000000000E+00 0. -1.
         13   -1    0    0    0    0 -0.00000000000E+00 -0.00000000000E+00 -0.10000000000E+04  0.10000000000E+04  0.00000000000E+00 0.  1.
    9000005    2    1    2  501    0 -0.29187146627E+02 -0.16567405270E+02 -0.50187233047E+03  0.50300554411E+03  0.35175086678E+01 0.  0.
         13    1    3    3    0    0 -0.76361315345E+01 -0.40144568505E+01 -0.10769660998E+03  0.10804159463E+03  0.00000000000E+00 0.  1.
          1    1    3    3  501    0 -0.21551015092E+02 -0.12552948419E+02 -0.39417572049E+03  0.39496394948E+03  0.00000000000E+00 0.  1.
         -3    1    1    2    0  502  0.29187146627E+02  0.16567405270E+02 -0.49699511788E+03  0.49812700754E+03  0.00000000000E+00 0. -1.
<mgrwt>
<rscale>  1 0.30000000E+03</rscale>
<asrwt>0</asrwt>
<pdfrwt beam="1">  1       21 0.41183783E-02 0.30000000E+03</pdfrwt>
<pdfrwt beam="2">0</pdfrwt>
<totfact> 0.40030556E+04</totfact>
</mgrwt>
</event>
<event>
 6    1  0.6377696E-002  0.3000000E+03  0.7818608E-02  0.1093470E+00
         21   -1    0    0  501  502  0.00000000000E+00  0.00000000000E+00  0.16656453787E+01  0.16656453787E+01  0.00000000000E+00 0. -1.
         13   -1    0    0    0    0 -0.00000000000E+00 -0.00000000000E+00 -0.10000000000E+04  0.10000000000E+04  0.00000000000E+00 0.  1.
    9000005    2    1    2  501    0  0.98935793191E+00 -0.40733264625E+02 -0.50499092141E+03  0.50664249362E+03  0.32569874582E+01 0.  0.
         13    1    3    3    0    0 -0.82577483907E+00 -0.18924848426E+02 -0.22203701741E+03  0.22284359738E+03  0.00000000000E+00 0.  1.
          3    1    3    3  501    0  0.18151327710E+01 -0.21808416199E+02 -0.28295390400E+03  0.28379889625E+03  0.00000000000E+00 0.  1.
         -1    1    1    2    0  502 -0.98935793191E+00  0.40733264625E+02 -0.49334343322E+03  0.49502315175E+03  0.00000000000E+00 0. -1.
<mgrwt>
<rscale>  1 0.30000000E+03</rscale>
<asrwt>0</asrwt>
<pdfrwt beam="1">  1       21 0.60569051E-02 0.30000000E+03</pdfrwt>
<pdfrwt beam="2">0</pdfrwt>
<totfact> 0.20731338E+04</totfact>
</mgrwt>
</event>
<event>
 6    1  0.6377696E-002  0.3000000E+03  0.7818608E-02  0.1093470E+00
         21   -1    0    0  501  502  0.00000000000E+00  0.00000000000E+00  0.13629471408E+01  0.13629471408E+01  0.00000000000E+00 0. -1.
         13   -1    0    0    0    0 -0.00000000000E+00 -0.00000000000E+00 -0.10000000000E+04  0.10000000000E+04  0.00000000000E+00 0.  1.
    9000005    2    1    2  501    0 -0.40742076088E+01 -0.33837209179E+02 -0.31075397209E+03  0.31263608640E+03  0.34257056626E+01 0.  0.
         13    1    3    3    0    0 -0.35960296195E-01 -0.52403614764E+01 -0.38624750126E+02  0.38978635223E+02  0.00000000000E+00 0.  1.
          3    1    3    3  501    0 -0.40382473126E+01 -0.28596847702E+02 -0.27212922196E+03  0.27365745118E+03  0.00000000000E+00 0.  1.
         -1    1    1    2    0  502  0.40742076088E+01  0.33837209179E+02 -0.68788308077E+03  0.68872686074E+03  0.00000000000E+00 0. -1.
<mgrwt>
<rscale>  1 0.30000000E+03</rscale>
<asrwt>0</asrwt>
<pdfrwt beam="1">  1       21 0.49561819E-02 0.30000000E+03</pdfrwt>
<pdfrwt beam="2">0</pdfrwt>
<totfact> 0.29240046E+04</totfact>
</mgrwt>
</event>
<event>
 6    1  0.6377696E-002  0.3000000E+03  0.7818608E-02  0.1093470E+00
         21   -1    0    0  501  502  0.00000000000E+00  0.00000000000E+00  0.90528426677E+01  0.90528426677E+01  0.00000000000E+00 0. -1.
         13   -1    0    0    0    0 -0.00000000000E+00 -0.00000000000E+00 -0.10000000000E+04  0.10000000000E+04  0.00000000000E+00 0.  1.
    9000005    2    1    2  501    0  0.36374642576E+02 -0.16914425626E+01 -0.29601308162E+02  0.47017595228E+02  0.29053770181E+01 0.  0.
         13    1    3    3    0    0  0.15609297921E+02 -0.19354020168E+00 -0.14415428890E+02  0.21248346512E+02  0.00000000000E+00 0.  1.
          3    1    3    3  501    0  0.20765344655E+02 -0.14979023609E+01 -0.15185879272E+02  0.25769248716E+02  0.00000000000E+00 0.  1.
         -1    1    1    2    0  502 -0.36374642576E+02  0.16914425626E+01 -0.96134584917E+03  0.96203524744E+03  0.00000000000E+00 0. -1.
<mgrwt>
<rscale>  1 0.30000000E+03</rscale>
<asrwt>0</asrwt>
<pdfrwt beam="1">  1       21 0.32919497E-01 0.30000000E+03</pdfrwt>
<pdfrwt beam="2">0</pdfrwt>
<totfact> 0.90168239E+02</totfact>
</mgrwt>
</event>
<event>
 6    1  0.6377696E-002  0.3000000E+03  0.7818608E-02  0.1093470E+00
         21   -1    0    0  501  502  0.00000000000E+00  0.00000000000E+00  0.15775718101E+01  0.15775718101E+01  0.00000000000E+00 0. -1.
         13   -1    0    0    0    0 -0.00000000000E+00 -0.00000000000E+00 -0.10000000000E+04  0.10000000000E+04  0.00000000000E+00 0.  1.
    9000005    2    1    2  501    0 -0.36845122499E+02  0.14674344208E+02 -0.50714528446E+03  0.50870220077E+03  0.29478950082E+01 0.  0.
         13    1    3    3    0    0 -0.28144204606E+01  0.20095533605E+01 -0.43928329267E+02  0.44064241505E+02  0.00000000000E+00 0.  1.
          3    1    3    3  501    0 -0.34030702038E+02  0.12664790847E+02 -0.46321695519E+03  0.46463795926E+03  0.00000000000E+00 0.  1.
         -3    1    1    2    0  502  0.36845122499E+02 -0.14674344208E+02 -0.49127714373E+03  0.49287537104E+03  0.00000000000E+00 0. -1.
<mgrwt>
<rscale>  1 0.30000000E+03</rscale>
<asrwt>0</asrwt>
<pdfrwt beam="1">  1       21 0.57366369E-02 0.30000000E+03</pdfrwt>
<pdfrwt beam="2">0</pdfrwt>
<totfact> 0.22765992E+04</totfact>
</mgrwt>
</event>
<event>
 6    1  0.6377696E-002  0.3000000E+03  0.7818608E-02  0.1093470E+00
         21   -1    0    0  501  502  0.00000000000E+00  0.00000000000E+00  0.23424194755E+01  0.23424194755E+01  0.00000000000E+00 0. -1.
         13   -1    0    0    0    0 -0.00000000000E+00 -0.00000000000E+00 -0.10000000000E+04  0.10000000000E+04  0.00000000000E+00 0.  1.
    9000005    2    1    2  501    0 -0.25376420922E+02  0.38893918566E+02 -0.63844389908E+03  0.64013920500E+03  0.32999793883E+01 0.  0.
         13    1    3    3    0    0 -0.42778452952E+01  0.89745624921E+01 -0.14025722458E+03  0.14060914544E+03  0.00000000000E+00 0.  1.
          1    1    3    3  501    0 -0.21098575626E+02  0.29919356074E+02 -0.49818667450E+03  0.49953005956E+03  0.00000000000E+00 0.  1.
         -1    1    1    2    0  502  0.25376420922E+02 -0.38893918566E+02 -0.35921368144E+03  0.36220321448E+03  0.00000000000E+00 0. -1.
<mgrwt>
<rscale>  1 0.30000000E+03</rscale>
<asrwt>0</asrwt>
<pdfrwt beam="1">  1       21 0.85179070E-02 0.30000000E+03</pdfrwt>
<pdfrwt beam="2">0</pdfrwt>
<totfact> 0.11438730E+04</totfact>
</mgrwt>
</event>
<event>
 6    1  0.6377696E-002  0.3000000E+03  0.7818608E-02  0.1093470E+00
         21   -1    0    0  501  502  0.00000000000E+00  0.00000000000E+00  0.17310679700E+01  0.17310679700E+01  0.00000000000E+00 0. -1.
         13   -1    0    0    0    0 -0.00000000000E+00 -0.00000000000E+00 -0.10000000000E+04  0.10000000000E+04  0.00000000000E+00 0.  1.
    9000005    2    1    2  501    0 -0.29369198488E+02  0.26984810906E+02 -0.35993908062E+03  0.36215642100E+03  0.32251632488E+01 0.  0.
         13    1    3    3    0    0 -0.54707005268E+01  0.41216001516E+01 -0.53073218908E+02  0.53513388206E+02  0.00000000000E+00 0.  1.
          1    1    3    3  501    0 -0.23898497961E+02  0.22863210755E+02 -0.30686586171E+03  0.30864303279E+03  0.00000000000E+00 0.  1.
         -1    1    1    2    0  502  0.29369198488E+02 -0.26984810906E+02 -0.63832985141E+03  0.63957464697E+03  0.00000000000E+00 0. -1.
<mgrwt>
<rscale>  1 0.30000000E+03</rscale>
<asrwt>0</asrwt>
<pdfrwt beam="1">  1       21 0.62948059E-02 0.30000000E+03</pdfrwt>
<pdfrwt beam="2">0</pdfrwt>
<totfact> 0.19397044E+04</totfact>
</mgrwt>
</event>
<event>
 6    1  0.6377696E-002  0.3000000E+03  0.7818608E-02  0.1093470E+00
         21   -1    0    0  501  502  0.00000000000E+00  0.00000000000E+00  0.11443058942E+01  0.11443058942E+01  0.00000000000E+00 0. -1.
         13   -1    0    0    0    0 -0.00000000000E+00 -0.00000000000E+00 -0.10000000000E+04  0.10000000000E+04  0.00000000000E+00 0.  1.
    9000005    2    1    2  501    0  0.27057062831E+02 -0.19790876630E+02 -0.44494875715E+03  0.44622389876E+03  0.35507587765E+01 0.  0.
         13    1    3    3    0    0  0.18518021482E+02 -0.11445082558E+02 -0.28854828624E+03  0.28936831292E+03  0.00000000000E+00 0.  1.
          1    1    3    3  501    0  0.85390413487E+01 -0.83457940724E+01 -0.15640047091E+03  0.15685558583E+03  0.00000000000E+00 0.  1.
         -1    1    1    2    0  502 -0.27057062831E+02  0.19790876630E+02 -0.55390693696E+03  0.55492040714E+03  0.00000000000E+00 0. -1.
<mgrwt>
<rscale>  1 0.30000000E+03</rscale>
<asrwt>0</asrwt>
<pdfrwt beam="1">  1       21 0.41611211E-02 0.30000000E+03</pdfrwt>
<pdfrwt beam="2">0</pdfrwt>
<totfact> 0.39339256E+04</totfact>
</mgrwt>
</event>
<event>
 6    1  0.6377696E-002  0.3000000E+03  0.7818608E-02  0.1093470E+00
         21   -1    0    0  501  502  0.00000000000E+00  0.00000000000E+00  0.12445337604E+01  0.12445337604E+01  0.00000000000E+00 0. -1.
         13   -1    0    0    0    0 -0.00000000000E+00 -0.00000000000E+00 -0.10000000000E+04  0.10000000000E+04  0.00000000000E+00 0.  1.
    9000005    2    1    2  501    0  0.30349908972E+02 -0.17642926189E+02 -0.53846504237E+03  0.53961734205E+03  0.31439098199E+01 0.  0.
         13    1    3    3    0    0  0.24833297677E+02 -0.14767324754E+02 -0.45965486455E+03  0.46056200566E+03  0.00000000000E+00 0.  1.
          1    1    3    3  501    0  0.55166112954E+01 -0.28756014351E+01 -0.78810177820E+02  0.79055336390E+02  0.00000000000E+00 0.  1.
         -3    1    1    2    0  502 -0.30349908972E+02  0.17642926189E+02 -0.46029042387E+03  0.46162719171E+03  0.00000000000E+00 0. -1.
<mgrwt>
<rscale>  1 0.30000000E+03</rscale>
<asrwt>0</asrwt>
<pdfrwt beam="1">  1       21 0.45255869E-02 0.30000000E+03</pdfrwt>
<pdfrwt beam="2">0</pdfrwt>
<totfact> 0.34128174E+04</totfact>
</mgrwt>
</event>
<event>
 6    1  0.6377696E-002  0.3000000E+03  0.7818608E-02  0.1093470E+00
         21   -1    0    0  501  502  0.00000000000E+00  0.00000000000E+00  0.20165994651E+01  0.20165994651E+01  0.00000000000E+00 0. -1.
         13   -1    0    0    0    0 -0.00000000000E+00 -0.00000000000E+00 -0.10000000000E+04  0.10000000000E+04  0.00000000000E+00 0.  1.
    9000005    2    1    2  501    0  0.26607327301E+02  0.34518873990E+02 -0.38185372462E+03  0.38434736753E+03  0.33360753533E+01 0.  0.
         13    1    3    3    0    0  0.18020487949E+02  0.25764705617E+02 -0.27161369492E+03  0.27342742604E+03  0.00000000000E+00 0.  1.
          3    1    3    3  501    0  0.85868393512E+01  0.87541683727E+01 -0.11024002970E+03  0.11091994150E+03  0.00000000000E+00 0.  1.
         -3    1    1    2    0  502 -0.26607327301E+02 -0.34518873990E+02 -0.61612967592E+03  0.61766923193E+03  0.00000000000E+00 0. -1.
<mgrwt>
<rscale>  1 0.30000000E+03</rscale>
<asrwt>0</asrwt>
<pdfrwt beam="1">  1       21 0.73331044E-02 0.30000000E+03</pdfrwt>
<pdfrwt beam="2">0</pdfrwt>
<totfact> 0.14878846E+04</totfact>
</mgrwt>
</event>
<event>
 6    1  0.6377696E-002  0.3000000E+03  0.7818608E-02  0.1093470E+00
         21   -1    0    0  501  502  0.00000000000E+00  0.00000000000E+00  0.17469752000E+01  0.17469752000E+01  0.00000000000E+00 0. -1.
         13   -1    0    0    0    0 -0.00000000000E+00 -0.00000000000E+00 -0.10000000000E+04  0.10000000000E+04  0.00000000000E+00 0.  1.
    9000005    2    1    2  501    0  0.22314174630E+02 -0.32443319202E+02 -0.66597857525E+03  0.66714751140E+03  0.28014152364E+01 0.  0.
         13    1    3    3    0    0  0.18474999196E+02 -0.28554613066E+02 -0.57206168016E+03  0.57307177336E+03  0.00000000000E+00 0.  1.
          3    1    3    3  501    0  0.38391754336E+01 -0.38887061361E+01 -0.93916895093E+02  0.94075738038E+02  0.00000000000E+00 0.  1.
         -1    1    1    2    0  502 -0.22314174630E+02  0.32443319202E+02 -0.33227444955E+03  0.33459946380E+03  0.00000000000E+00 0. -1.
<mgrwt>
<rscale>  1 0.30000000E+03</rscale>
<asrwt>0</asrwt>
<pdfrwt beam="1">  1       21 0.63526505E-02 0.30000000E+03</pdfrwt>
<pdfrwt beam="2">0</pdfrwt>
<totfact> 0.19092720E+04</totfact>
</mgrwt>
</event>
<event>
 6    1  0.6377696E-002  0.3000000E+03  0.7818608E-02  0.1093470E+00
         21   -1    0    0  501  502  0.00000000000E+00  0.00000000000E+00  0.19905091078E+01  0.19905091078E+01  0.00000000000E+00 0. -1.
         13   -1    0    0    0    0 -0.00000000000E+00 -0.00000000000E+00 -0.10000000000E+04  0.10000000000E+04  0.00000000000E+00 0.  1.
    9000005    2    1    2  501    0 -0.40403957308E+02 -0.13703767774E+02 -0.64397737290E+03  0.64539688383E+03  0.31635163113E+01 0.  0.
         13    1    3    3    0    0 -0.40345990684E+02 -0.13734571975E+02 -0.64377289507E+03  0.64518212766E+03  0.00000000000E+00 0.  1.
          3    1    3    3  501    0 -0.57966624166E-01  0.30804200414E-01 -0.20447783091E+00  0.21475616781E+00  0.00000000000E+00 0.  1.
         -1    1    1    2    0  502  0.40403957308E+02  0.13703767774E+02 -0.35403211799E+03  0.35659362528E+03  0.00000000000E+00 0. -1.
<mgrwt>
<rscale>  1 0.30000000E+03</rscale>
<asrwt>0</asrwt>
<pdfrwt beam="1">  1       21 0.72382302E-02 0.30000000E+03</pdfrwt>
<pdfrwt beam="2">0</pdfrwt>
<totfact> 0.15221107E+04</totfact>
</mgrwt>
</event>
<event>
 6    1  0.6377696E-002  0.3000000E+03  0.7818608E-02  0.1093470E+00
         21   -1    0    0  501  502  0.00000000000E+00  0.00000000000E+00  0.17345570458E+01  0.17345570458E+01  0.00000000000E+00 0. -1.
         13   -1    0    0    0    0 -0.00000000000E+00 -0.00000000000E+00 -0.10000000000E+04  0.10000000000E+04  0.00000000000E+00 0.  1.
    9000005    2    1    2  501    0 -0.37673712127E+02  0.15574008790E+02 -0.40082043096E+03  0.40290035571E+03  0.31337548474E+01 0.  0.
         13    1    3    3    0    0 -0.14509965151E+02  0.58394742226E+01 -0.13910338936E+03  0.13997996814E+03  0.00000000000E+00 0.  1.
          1    1    3    3  501    0 -0.23163746976E+02  0.97345345670E+01 -0.26171704160E+03  0.26292038758E+03  0.00000000000E+00 0.  1.
         -1    1    1    2    0  502  0.37673712127E+02 -0.15574008790E+02 -0.59744501199E+03  0.59883420133E+03  0.00000000000E+00 0. -1.
<mgrwt>
<rscale>  1 0.30000000E+03</rscale>
<asrwt>0</asrwt>
<pdfrwt beam="1">  1       21 0.63074935E-02 0.30000000E+03</pdfrwt>
<pdfrwt beam="2">0</pdfrwt>
<totfact> 0.19329654E+04</totfact>
</mgrwt>
</event>
<event>
 6    1  0.6377696E-002  0.3000000E+03  0.7818608E-02  0.1093470E+00
         21   -1    0    0  501  502  0.00000000000E+00  0.00000000000E+00  0.13150717786E+01  0.13150717786E+01  0.00000000000E+00 0. -1.
         13   -1    0    0    0    0 -0.00000000000E+00 -0.00000000000E+00 -0.10000000000E+04  0.10000000000E+04  0.00000000000E+00 0.  1.
    9000005    2    1    2  501    0 -0.27491095675E+01 -0.32368107321E+02 -0.72086622186E+03  0.72160363908E+03  0.29069137768E+01 0.  0.
         13    1    3    3    0    0 -0.30468788598E+01 -0.30287751927E+02 -0.66104160948E+03  0.66174212565E+03  0.00000000000E+00 0.  1.
          3    1    3    3  501    0  0.29776929225E+00 -0.20803553940E+01 -0.59824612374E+02  0.59861513436E+02  0.00000000000E+00 0.  1.
         -1    1    1    2    0  502  0.27491095675E+01  0.32368107321E+02 -0.27781870636E+03  0.27971143269E+03  0.00000000000E+00 0. -1.
<mgrwt>
<rscale>  1 0.30000000E+03</rscale>
<asrwt>0</asrwt>
<pdfrwt beam="1">  1       21 0.47820893E-02 0.30000000E+03</pdfrwt>
<pdfrwt beam="2">0</pdfrwt>
<totfact> 0.31075579E+04</totfact>
</mgrwt>
</event>
<event>
 6    1  0.6377696E-002  0.3000000E+03  0.7818608E-02  0.1093470E+00
         21   -1    0    0  501  502  0.00000000000E+00  0.00000000000E+00  0.39039556055E+01  0.39039556055E+01  0.00000000000E+00 0. -1.
         13   -1    0    0    0    0 -0.00000000000E+00 -0.00000000000E+00 -0.10000000000E+04  0.10000000000E+04  0.00000000000E+00 0.  1.
    9000005    2    1    2  501    0 -0.22244360822E+00 -0.62371847265E+02 -0.47596863120E+03  0.48005013748E+03  0.34204958752E+01 0.  0.
         13    1    3    3    0    0 -0.65311384633E+00 -0.45398590146E+02 -0.35720903712E+03  0.36008298314E+03  0.00000000000E+00 0.  1.
          3    1    3    3  501    0  0.43067023811E+00 -0.16973257119E+02 -0.11875959408E+03  0.11996715434E+03  0.00000000000E+00 0.  1.
         -3    1    1    2    0  502  0.22244360822E+00  0.62371847265E+02 -0.52012741319E+03  0.52385381813E+03  0.00000000000E+00 0. -1.
<mgrwt>
<rscale>  1 0.30000000E+03</rscale>
<asrwt>0</asrwt>
<pdfrwt beam="1">  1       21 0.14196232E-01 0.30000000E+03</pdfrwt>
<pdfrwt beam="2">0</pdfrwt>
<totfact> 0.45585124E+03</totfact>
</mgrwt>
</event>
<event>
 6    1  0.6377696E-002  0.3000000E+03  0.7818608E-02  0.1093470E+00
         21   -1    0    0  501  502  0.00000000000E+00  0.00000000000E+00  0.23364633212E+01  0.23364633212E+01  0.00000000000E+00 0. -1.
         13   -1    0    0    0    0 -0.00000000000E+00 -0.00000000000E+00 -0.10000000000E+04  0.10000000000E+04  0.00000000000E+00 0.  1.
    9000005    2    1    2  501    0 -0.23659512656E+02  0.33955102940E+02 -0.24127637219E+03  0.24481797236E+03  0.29715745515E+01 0.  0.
         13    1    3    3    0    0 -0.20289180189E+01  0.45969810511E+01 -0.29651919301E+02  0.30074658125E+02  0.00000000000E+00 0.  1.
          1    1    3    3  501    0 -0.21630594637E+02  0.29358121889E+02 -0.21162445289E+03  0.21474331423E+03  0.00000000000E+00 0.  1.
         -1    1    1    2    0  502  0.23659512656E+02 -0.33955102940E+02 -0.75638716449E+03  0.75751849097E+03  0.00000000000E+00 0. -1.
<mgrwt>
<rscale>  1 0.30000000E+03</rscale>
<asrwt>0</asrwt>
<pdfrwt beam="1">  1       21 0.84962482E-02 0.30000000E+03</pdfrwt>
<pdfrwt beam="2">0</pdfrwt>
<totfact> 0.11490203E+04</totfact>
</mgrwt>
</event>
<event>
 6    1  0.6377696E-002  0.3000000E+03  0.7818608E-02  0.1093470E+00
         21   -1    0    0  501  502  0.00000000000E+00  0.00000000000E+00  0.21436873092E+01  0.21436873092E+01  0.00000000000E+00 0. -1.
         13   -1    0    0    0    0 -0.00000000000E+00 -0.00000000000E+00 -0.10000000000E+04  0.10000000000E+04  0.00000000000E+00 0.  1.
    9000005    2    1    2  501    0 -0.31404283156E+02  0.12643959109E+01 -0.86672903275E+03  0.86730233148E+03  0.25080428963E+01 0.  0.
         13    1    3    3    0    0 -0.12839590759E+02 -0.62631592409E+00 -0.34087466333E+03  0.34111696449E+03  0.00000000000E+00 0.  1.
          3    1    3    3  501    0 -0.18564692397E+02  0.18907118350E+01 -0.52585436942E+03  0.52618536699E+03  0.00000000000E+00 0.  1.
         -3    1    1    2    0  502  0.31404283156E+02 -0.12643959109E+01 -0.13112727994E+03  0.13484135583E+03  0.00000000000E+00 0. -1.
<mgrwt>
<rscale>  1 0.30000000E+03</rscale>
<asrwt>0</asrwt>
<pdfrwt beam="1">  1       21 0.77952430E-02 0.30000000E+03</pdfrwt>
<pdfrwt beam="2">0</pdfrwt>
<totfact> 0.13368624E+04</totfact>
</mgrwt>
</event>
<event>
 6    1  0.6377696E-002  0.3000000E+03  0.7818608E-02  0.1093470E+00
         21   -1    0    0  501  502  0.00000000000E+00  0.00000000000E+00  0.18868563243E+01  0.18868563243E+01  0.00000000000E+00 0. -1.
         13   -1    0    0    0    0 -0.00000000000E+00 -0.00000000000E+00 -0.10000000000E+04  0.10000000000E+04  0.00000000000E+00 0.  1.
    9000005    2    1    2  501    0 -0.15135082046E+02  0.33711724643E+02 -0.23802116183E+03  0.24089712449E+03  0.34351161596E+01 0.  0.
         13    1    3    3    0    0 -0.89743547369E+01  0.23712750531E+02 -0.15956055713E+03  0.16156238724E+03  0.00000000000E+00 0.  1.
          1    1    3    3  501    0 -0.61607273096E+01  0.99989741124E+01 -0.78460604702E+02  0.79334737250E+02  0.00000000000E+00 0.  1.
         -1    1    1    2    0  502  0.15135082046E+02 -0.33711724643E+02 -0.76009198185E+03  0.76098973183E+03  0.00000000000E+00 0. -1.
<mgrwt>
<rscale>  1 0.30000000E+03</rscale>
<asrwt>0</asrwt>
<pdfrwt beam="1">  1       21 0.68613102E-02 0.30000000E+03</pdfrwt>
<pdfrwt beam="2">0</pdfrwt>
<totfact> 0.16706673E+04</totfact>
</mgrwt>
</event>
<event>
 6    1  0.6377696E-002  0.3000000E+03  0.7818608E-02  0.1093470E+00
         21   -1    0    0  501  502  0.00000000000E+00  0.00000000000E+00  0.21954755942E+01  0.21954755942E+01  0.00000000000E+00 0. -1.
         13   -1    0    0    0    0 -0.00000000000E+00 -0.00000000000E+00 -0.10000000000E+04  0.10000000000E+04  0.00000000000E+00 0.  1.
    9000005    2    1    2  501    0 -0.16957560205E+02  0.43487961976E+02 -0.46756607497E+03  0.46990647989E+03  0.39119940320E+01 0.  0.
         13    1    3    3    0    0 -0.11007923751E+02  0.28792278023E+02 -0.32672277602E+03  0.32817364616E+03  0.00000000000E+00 0.  1.
          1    1    3    3  501    0 -0.59496364538E+01  0.14695683953E+02 -0.14084329894E+03  0.14173283373E+03  0.00000000000E+00 0.  1.
         -1    1    1    2    0  502  0.16957560205E+02 -0.43487961976E+02 -0.53023844944E+03  0.53228899571E+03  0.00000000000E+00 0. -1.
<mgrwt>
<rscale>  1 0.30000000E+03</rscale>
<asrwt>0</asrwt>
<pdfrwt beam="1">  1       21 0.79835645E-02 0.30000000E+03</pdfrwt>
<pdfrwt beam="2">0</pdfrwt>
<totfact> 0.12820092E+04</totfact>
</mgrwt>
</event>
<event>
 6    1  0.6377696E-002  0.3000000E+03  0.7818608E-02  0.1093470E+00
         21   -1    0    0  501  502  0.00000000000E+00  0.00000000000E+00  0.21190427294E+01  0.21190427294E+01  0.00000000000E+00 0. -1.
         13   -1    0    0    0    0 -0.00000000000E+00 -0.00000000000E+00 -0.10000000000E+04  0.10000000000E+04  0.00000000000E+00 0.  1.
    9000005    2    1    2  501    0 -0.35554988868E+02  0.20718325226E+02 -0.72271308948E+03  0.72389114748E+03  0.32829030542E+01 0.  0.
         13    1    3    3    0    0 -0.14016977968E+02  0.77546443877E+01 -0.30913579769E+03  0.30955056387E+03  0.00000000000E+00 0.  1.
          3    1    3    3  501    0 -0.21538010900E+02  0.12963680839E+02 -0.41357729179E+03  0.41434058360E+03  0.00000000000E+00 0.  1.
         -1    1    1    2    0  502  0.35554988868E+02 -0.20718325226E+02 -0.27516786779E+03  0.27822789525E+03  0.00000000000E+00 0. -1.
<mgrwt>
<rscale>  1 0.30000000E+03</rscale>
<asrwt>0</asrwt>
<pdfrwt beam="1">  1       21 0.77056262E-02 0.30000000E+03</pdfrwt>
<pdfrwt beam="2">0</pdfrwt>
<totfact> 0.13642449E+04</totfact>
</mgrwt>
</event>
<event>
 6    1  0.6377696E-002  0.3000000E+03  0.7818608E-02  0.1093470E+00
         21   -1    0    0  501  502  0.00000000000E+00  0.00000000000E+00  0.15366901608E+01  0.15366901608E+01  0.00000000000E+00 0. -1.
         13   -1    0    0    0    0 -0.00000000000E+00 -0.00000000000E+00 -0.10000000000E+04  0.10000000000E+04  0.00000000000E+00 0.  1.
    9000005    2    1    2  501    0  0.19768739347E+02  0.30880340906E+02 -0.33142765411E+03  0.33349405340E+03  0.54401505165E+01 0.  0.
         13    1    3    3    0    0  0.66474446067E+01  0.79315766146E+01 -0.11289254693E+03  0.11336589249E+03  0.00000000000E+00 0.  1.
          3    1    3    3  501    0  0.13121294740E+02  0.22948764291E+02 -0.21853510718E+03  0.22012816092E+03  0.00000000000E+00 0.  1.
         -1    1    1    2    0  502 -0.19768739347E+02 -0.30880340906E+02 -0.66703565573E+03  0.66804263676E+03  0.00000000000E+00 0. -1.
<mgrwt>
<rscale>  1 0.30000000E+03</rscale>
<asrwt>0</asrwt>
<pdfrwt beam="1">  1       21 0.55879760E-02 0.30000000E+03</pdfrwt>
<pdfrwt beam="2">0</pdfrwt>
<totfact> 0.23816792E+04</totfact>
</mgrwt>
</event>
<event>
 6    1  0.6377696E-002  0.3000000E+03  0.7818608E-02  0.1093470E+00
         21   -1    0    0  501  502  0.00000000000E+00  0.00000000000E+00  0.34628183079E+01  0.34628183079E+01  0.00000000000E+00 0. -1.
         13   -1    0    0    0    0 -0.00000000000E+00 -0.00000000000E+00 -0.10000000000E+04  0.10000000000E+04  0.00000000000E+00 0.  1.
    9000005    2    1    2  501    0  0.23291535944E+02  0.53270392207E+02 -0.42367617120E+03  0.42765906035E+03  0.32470797650E+01 0.  0.
         13    1    3    3    0    0  0.20908294715E+01  0.74996984131E+01 -0.57970033933E+02  0.58490528108E+02  0.00000000000E+00 0.  1.
          3    1    3    3  501    0  0.21200706472E+02  0.45770693794E+02 -0.36570613727E+03  0.36916853224E+03  0.00000000000E+00 0.  1.
         -3    1    1    2    0  502 -0.23291535944E+02 -0.53270392207E+02 -0.57286101049E+03  0.57580375796E+03  0.00000000000E+00 0. -1.
<mgrwt>
<rscale>  1 0.30000000E+03</rscale>
<asrwt>0</asrwt>
<pdfrwt beam="1">  1       21 0.12592093E-01 0.30000000E+03</pdfrwt>
<pdfrwt beam="2">0</pdfrwt>
<totfact> 0.56772635E+03</totfact>
</mgrwt>
</event>
<event>
 6    1  0.6377696E-002  0.3000000E+03  0.7818608E-02  0.1093470E+00
         21   -1    0    0  501  502  0.00000000000E+00  0.00000000000E+00  0.13442664185E+01  0.13442664185E+01  0.00000000000E+00 0. -1.
         13   -1    0    0    0    0 -0.00000000000E+00 -0.00000000000E+00 -0.10000000000E+04  0.10000000000E+04  0.00000000000E+00 0.  1.
    9000005    2    1    2  501    0 -0.33994372265E+02  0.68419457501E+01 -0.34210329249E+03  0.34387674823E+03  0.37584138446E+01 0.  0.
         13    1    3    3    0    0 -0.33818559644E+02  0.70506107437E+01 -0.34071849238E+03  0.34246532253E+03  0.00000000000E+00 0.  1.
          1    1    3    3  501    0 -0.17581262141E+00 -0.20866499362E+00 -0.13848001125E+01  0.14114257008E+01  0.00000000000E+00 0.  1.
         -3    1    1    2    0  502  0.33994372265E+02 -0.68419457501E+01 -0.65655244109E+03  0.65746751819E+03  0.00000000000E+00 0. -1.
<mgrwt>
<rscale>  1 0.30000000E+03</rscale>
<asrwt>0</asrwt>
<pdfrwt beam="1">  1       21 0.48882518E-02 0.30000000E+03</pdfrwt>
<pdfrwt beam="2">0</pdfrwt>
<totfact> 0.29935601E+04</totfact>
</mgrwt>
</event>
<event>
 6    1  0.6377696E-002  0.3000000E+03  0.7818608E-02  0.1093470E+00
         21   -1    0    0  501  502  0.00000000000E+00  0.00000000000E+00  0.13299677101E+01  0.13299677101E+01  0.00000000000E+00 0. -1.
         13   -1    0    0    0    0 -0.00000000000E+00 -0.00000000000E+00 -0.10000000000E+04  0.10000000000E+04  0.00000000000E+00 0.  1.
    9000005    2    1    2  501    0  0.24078134770E+02 -0.25876331098E+02 -0.43705754815E+03  0.43860630247E+03  0.10336686219E+02 0.  0.
         13    1    3    3    0    0  0.15852408952E+02 -0.99396513825E+01 -0.24484243785E+03  0.24555633755E+03  0.00000000000E+00 0.  1.
          3    1    3    3  501    0  0.82257258182E+01 -0.15936679716E+02 -0.19221511031E+03  0.19304996492E+03  0.00000000000E+00 0.  1.
         -3    1    1    2    0  502 -0.24078134770E+02  0.25876331098E+02 -0.56161248414E+03  0.56272366524E+03  0.00000000000E+00 0. -1.
<mgrwt>
<rscale>  1 0.30000000E+03</rscale>
<asrwt>0</asrwt>
<pdfrwt beam="1">  1       21 0.48362564E-02 0.30000000E+03</pdfrwt>
<pdfrwt beam="2">0</pdfrwt>
<totfact> 0.30485614E+04</totfact>
</mgrwt>
</event>
<event>
 6    1  0.6377696E-002  0.3000000E+03  0.7818608E-02  0.1093470E+00
         21   -1    0    0  501  502  0.00000000000E+00  0.00000000000E+00  0.35219846018E+01  0.35219846018E+01  0.00000000000E+00 0. -1.
         13   -1    0    0    0    0 -0.00000000000E+00 -0.00000000000E+00 -0.10000000000E+04  0.10000000000E+04  0.00000000000E+00 0.  1.
    9000005    2    1    2  501    0  0.62383418931E+01  0.58953787144E+02 -0.48444999972E+03  0.48807348595E+03  0.30756341567E+01 0.  0.
         13    1    3    3    0    0  0.19014486393E+01  0.79444488479E+01 -0.66005966614E+02  0.66509528664E+02  0.00000000000E+00 0.  1.
          3    1    3    3  501    0  0.43368932538E+01  0.51009338297E+02 -0.41844403311E+03  0.42156395729E+03  0.00000000000E+00 0.  1.
         -1    1    1    2    0  502 -0.62383418931E+01 -0.58953787144E+02 -0.51202801567E+03  0.51544849865E+03  0.00000000000E+00 0. -1.
<mgrwt>
<rscale>  1 0.30000000E+03</rscale>
<asrwt>0</asrwt>
<pdfrwt beam="1">  1       21 0.12807244E-01 0.30000000E+03</pdfrwt>
<pdfrwt beam="2">0</pdfrwt>
<totfact> 0.55045812E+03</totfact>
</mgrwt>
</event>
<event>
 6    1  0.6377696E-002  0.3000000E+03  0.7818608E-02  0.1093470E+00
         21   -1    0    0  501  502  0.00000000000E+00  0.00000000000E+00  0.20416284270E+01  0.20416284270E+01  0.00000000000E+00 0. -1.
         13   -1    0    0    0    0 -0.00000000000E+00 -0.00000000000E+00 -0.10000000000E+04  0.10000000000E+04  0.00000000000E+00 0.  1.
    9000005    2    1    2  501    0  0.30406403932E+02 -0.32441225594E+02 -0.58536348876E+03  0.58705786990E+03  0.30896795566E+01 0.  0.
         13    1    3    3    0    0  0.57339428669E+01 -0.73287187599E+01 -0.11039133714E+03  0.11078283051E+03  0.00000000000E+00 0.  1.
          1    1    3    3  501    0  0.24672461065E+02 -0.25112506834E+02 -0.47497215162E+03  0.47627503939E+03  0.00000000000E+00 0.  1.
         -1    1    1    2    0  502 -0.30406403932E+02  0.32441225594E+02 -0.41259488281E+03  0.41498375853E+03  0.00000000000E+00 0. -1.
<mgrwt>
<rscale>  1 0.30000000E+03</rscale>
<asrwt>0</asrwt>
<pdfrwt beam="1">  1       21 0.74241190E-02 0.30000000E+03</pdfrwt>
<pdfrwt beam="2">0</pdfrwt>
<totfact> 0.14561360E+04</totfact>
</mgrwt>
</event>
<event>
 6    1  0.6377696E-002  0.3000000E+03  0.7818608E-02  0.1093470E+00
         21   -1    0    0  501  502  0.00000000000E+00  0.00000000000E+00  0.98961583697E+00  0.98961583697E+00  0.00000000000E+00 0. -1.
         13   -1    0    0    0    0 -0.00000000000E+00 -0.00000000000E+00 -0.10000000000E+04  0.10000000000E+04  0.00000000000E+00 0.  1.
    9000005    2    1    2  501    0 -0.28868996626E+02 -0.12194396814E+02 -0.48788622134E+03  0.48890560701E+03  0.36885373340E+01 0.  0.
         13    1    3    3    0    0 -0.20614187922E+02 -0.77644867441E+01 -0.31888080159E+03  0.31964073211E+03  0.00000000000E+00 0.  1.
          1    1    3    3  501    0 -0.82548087042E+01 -0.44299100698E+01 -0.16900541975E+03  0.16926487490E+03  0.00000000000E+00 0.  1.
         -1    1    1    2    0  502  0.28868996626E+02  0.12194396814E+02 -0.51112416282E+03  0.51208400883E+03  0.00000000000E+00 0. -1.
<mgrwt>
<rscale>  1 0.30000000E+03</rscale>
<asrwt>0</asrwt>
<pdfrwt beam="1">  1       21 0.35986106E-02 0.30000000E+03</pdfrwt>
<pdfrwt beam="2">0</pdfrwt>
<totfact> 0.50222811E+04</totfact>
</mgrwt>
</event>
<event>
 6    1  0.6377696E-002  0.3000000E+03  0.7818608E-02  0.1093470E+00
         21   -1    0    0  501  502  0.00000000000E+00  0.00000000000E+00  0.33968183480E+01  0.33968183480E+01  0.00000000000E+00 0. -1.
         13   -1    0    0    0    0 -0.00000000000E+00 -0.00000000000E+00 -0.10000000000E+04  0.10000000000E+04  0.00000000000E+00 0.  1.
    9000005    2    1    2  501    0  0.45345317270E+02  0.32239267113E+02 -0.64670011101E+03  0.64909789514E+03  0.33875878791E+01 0.  0.
         13    1    3    3    0    0  0.17539735362E+02  0.11997211824E+02 -0.22860737350E+03  0.22959291502E+03  0.00000000000E+00 0.  1.
          3    1    3    3  501    0  0.27805581908E+02  0.20242055289E+02 -0.41809273751E+03  0.41950498012E+03  0.00000000000E+00 0.  1.
         -3    1    1    2    0  502 -0.45345317270E+02 -0.32239267113E+02 -0.34990307064E+03  0.35429892321E+03  0.00000000000E+00 0. -1.
<mgrwt>
<rscale>  1 0.30000000E+03</rscale>
<asrwt>0</asrwt>
<pdfrwt beam="1">  1       21 0.12352093E-01 0.30000000E+03</pdfrwt>
<pdfrwt beam="2">0</pdfrwt>
<totfact> 0.58797507E+03</totfact>
</mgrwt>
</event>
<event>
 6    1  0.6377696E-002  0.3000000E+03  0.7818608E-02  0.1093470E+00
         21   -1    0    0  501  502  0.00000000000E+00  0.00000000000E+00  0.33354548785E+01  0.33354548785E+01  0.00000000000E+00 0. -1.
         13   -1    0    0    0    0 -0.00000000000E+00 -0.00000000000E+00 -0.10000000000E+04  0.10000000000E+04  0.00000000000E+00 0.  1.
    9000005    2    1    2  501    0  0.22651260179E+01  0.44217094220E+02 -0.82022758207E+03  0.82142810442E+03  0.32499444092E+01 0.  0.
         13    1    3    3    0    0 -0.36612752024E+00  0.21528587738E+02 -0.38512957868E+03  0.38573100279E+03  0.00000000000E+00 0.  1.
          3    1    3    3  501    0  0.26312535381E+01  0.22688506482E+02 -0.43509800339E+03  0.43569710163E+03  0.00000000000E+00 0.  1.
         -3    1    1    2    0  502 -0.22651260179E+01 -0.44217094220E+02 -0.17643696306E+03  0.18190735046E+03  0.00000000000E+00 0. -1.
<mgrwt>
<rscale>  1 0.30000000E+03</rscale>
<asrwt>0</asrwt>
<pdfrwt beam="1">  1       21 0.12128952E-01 0.30000000E+03</pdfrwt>
<pdfrwt beam="2">0</pdfrwt>
<totfact> 0.60779852E+03</totfact>
</mgrwt>
</event>
<event>
 6    1  0.6377696E-002  0.3000000E+03  0.7818608E-02  0.1093470E+00
         21   -1    0    0  501  502  0.00000000000E+00  0.00000000000E+00  0.18105315788E+01  0.18105315788E+01  0.00000000000E+00 0. -1.
         13   -1    0    0    0    0 -0.00000000000E+00 -0.00000000000E+00 -0.10000000000E+04  0.10000000000E+04  0.00000000000E+00 0.  1.
    9000005    2    1    2  501    0  0.40987359752E+02 -0.60765482550E+01 -0.61036212813E+03  0.61177600237E+03  0.33258866296E+01 0.  0.
         13    1    3    3    0    0  0.16187070543E+02 -0.15861036440E+01 -0.26047162386E+03  0.26097893366E+03  0.00000000000E+00 0.  1.
          3    1    3    3  501    0  0.24800289209E+02 -0.44904446109E+01 -0.34989050427E+03  0.35079706871E+03  0.00000000000E+00 0.  1.
         -3    1    1    2    0  502 -0.40987359752E+02  0.60765482550E+01 -0.38782734029E+03  0.39003452921E+03  0.00000000000E+00 0. -1.
<mgrwt>
<rscale>  1 0.30000000E+03</rscale>
<asrwt>0</asrwt>
<pdfrwt beam="1">  1       21 0.65837651E-02 0.30000000E+03</pdfrwt>
<pdfrwt beam="2">0</pdfrwt>
<totfact> 0.17947552E+04</totfact>
</mgrwt>
</event>
<event>
 6    1  0.6377696E-002  0.3000000E+03  0.7818608E-02  0.1093470E+00
         21   -1    0    0  501  502  0.00000000000E+00  0.00000000000E+00  0.24075979540E+01  0.24075979540E+01  0.00000000000E+00 0. -1.
         13   -1    0    0    0    0 -0.00000000000E+00 -0.00000000000E+00 -0.10000000000E+04  0.10000000000E+04  0.00000000000E+00 0.  1.
    9000005    2    1    2  501    0  0.29743305893E+02 -0.36376123510E+02 -0.36276189877E+03  0.36584051233E+03  0.59328456456E+01 0.  0.
         13    1    3    3    0    0  0.93564295098E+01 -0.79173083582E+01 -0.84168331572E+02  0.85056067299E+02  0.00000000000E+00 0.  1.
          1    1    3    3  501    0  0.20386876383E+02 -0.28458815151E+02 -0.27859356720E+03  0.28078444504E+03  0.00000000000E+00 0.  1.
         -1    1    1    2    0  502 -0.29743305893E+02  0.36376123510E+02 -0.63483050327E+03  0.63656708562E+03  0.00000000000E+00 0. -1.
<mgrwt>
<rscale>  1 0.30000000E+03</rscale>
<asrwt>0</asrwt>
<pdfrwt beam="1">  1       21 0.87549201E-02 0.30000000E+03</pdfrwt>
<pdfrwt beam="2">0</pdfrwt>
<totfact> 0.10897687E+04</totfact>
</mgrwt>
</event>
<event>
 6    1  0.6377696E-002  0.3000000E+03  0.7818608E-02  0.1093470E+00
         21   -1    0    0  501  502  0.00000000000E+00  0.00000000000E+00  0.16285205871E+01  0.16285205871E+01  0.00000000000E+00 0. -1.
         13   -1    0    0    0    0 -0.00000000000E+00 -0.00000000000E+00 -0.10000000000E+04  0.10000000000E+04  0.00000000000E+00 0.  1.
    9000005    2    1    2  501    0 -0.31070960756E+02 -0.23252812389E+02 -0.36326597484E+03  0.36533841393E+03  0.19723926451E+01 0.  0.
         13    1    3    3    0    0 -0.17835452839E+02 -0.12567780028E+02 -0.21117573450E+03  0.21229989005E+03  0.00000000000E+00 0.  1.
          3    1    3    3  501    0 -0.13235507917E+02 -0.10685032361E+02 -0.15209024034E+03  0.15303852388E+03  0.00000000000E+00 0.  1.
         -1    1    1    2    0  502  0.31070960756E+02  0.23252812389E+02 -0.63510550457E+03  0.63629010665E+03  0.00000000000E+00 0. -1.
<mgrwt>
<rscale>  1 0.30000000E+03</rscale>
<asrwt>0</asrwt>
<pdfrwt beam="1">  1       21 0.59219055E-02 0.30000000E+03</pdfrwt>
<pdfrwt beam="2">0</pdfrwt>
<totfact> 0.21553073E+04</totfact>
</mgrwt>
</event>
<event>
 6    1  0.6377696E-002  0.3000000E+03  0.7818608E-02  0.1093470E+00
         21   -1    0    0  501  502  0.00000000000E+00  0.00000000000E+00  0.19884216623E+01  0.19884216623E+01  0.00000000000E+00 0. -1.
         13   -1    0    0    0    0 -0.00000000000E+00 -0.00000000000E+00 -0.10000000000E+04  0.10000000000E+04  0.00000000000E+00 0.  1.
    9000005    2    1    2  501    0 -0.19162833537E+02  0.35864728927E+02 -0.29551232471E+03  0.29831328758E+03  0.31289813793E+01 0.  0.
         13    1    3    3    0    0 -0.93036186255E+01  0.18345630353E+02 -0.13846229806E+03  0.13998188260E+03  0.00000000000E+00 0.  1.
          1    1    3    3  501    0 -0.98592149111E+01  0.17519098574E+02 -0.15705002665E+03  0.15833140498E+03  0.00000000000E+00 0.  1.
         -1    1    1    2    0  502  0.19162833537E+02 -0.35864728927E+02 -0.70249925363E+03  0.70367513408E+03  0.00000000000E+00 0. -1.
<mgrwt>
<rscale>  1 0.30000000E+03</rscale>
<asrwt>0</asrwt>
<pdfrwt beam="1">  1       21 0.72306395E-02 0.30000000E+03</pdfrwt>
<pdfrwt beam="2">0</pdfrwt>
<totfact> 0.15249006E+04</totfact>
</mgrwt>
</event>
<event>
 6    1  0.6377696E-002  0.3000000E+03  0.7818608E-02  0.1093470E+00
         21   -1    0    0  501  502  0.00000000000E+00  0.00000000000E+00  0.98412298198E+00  0.98412298198E+00  0.00000000000E+00 0. -1.
         13   -1    0    0    0    0 -0.00000000000E+00 -0.00000000000E+00 -0.10000000000E+04  0.10000000000E+04  0.00000000000E+00 0.  1.
    9000005    2    1    2  501    0 -0.25700289360E+02 -0.17416142836E+02 -0.54469442098E+03  0.54560317002E+03  0.51942260380E+01 0.  0.
         13    1    3    3    0    0 -0.19225218316E+02 -0.13371307118E+02 -0.36843362729E+03  0.36917711006E+03  0.00000000000E+00 0.  1.
          3    1    3    3  501    0 -0.64750710437E+01 -0.40448357183E+01 -0.17626079370E+03  0.17642605997E+03  0.00000000000E+00 0.  1.
         -3    1    1    2    0  502  0.25700289360E+02  0.17416142836E+02 -0.45432145604E+03  0.45538095296E+03  0.00000000000E+00 0. -1.
<mgrwt>
<rscale>  1 0.30000000E+03</rscale>
<asrwt>0</asrwt>
<pdfrwt beam="1">  1       21 0.35786366E-02 0.30000000E+03</pdfrwt>
<pdfrwt beam="2">0</pdfrwt>
<totfact> 0.50693732E+04</totfact>
</mgrwt>
</event>
<event>
 6    1  0.6377696E-002  0.3000000E+03  0.7818608E-02  0.1093470E+00
         21   -1    0    0  501  502  0.00000000000E+00  0.00000000000E+00  0.15279678839E+01  0.15279678839E+01  0.00000000000E+00 0. -1.
         13   -1    0    0    0    0 -0.00000000000E+00 -0.00000000000E+00 -0.10000000000E+04  0.10000000000E+04  0.00000000000E+00 0.  1.
    9000005    2    1    2  501    0  0.36206223948E+02  0.76234025114E+01 -0.65881424692E+03  0.65986085216E+03  0.33354697730E+01 0.  0.
         13    1    3    3    0    0  0.28023497670E+02  0.68143656820E+01 -0.53060546148E+03  0.53138865979E+03  0.00000000000E+00 0.  1.
          3    1    3    3  501    0  0.81827262782E+01  0.80903682945E+00 -0.12820878544E+03  0.12847219238E+03  0.00000000000E+00 0.  1.
         -1    1    1    2    0  502 -0.36206223948E+02 -0.76234025114E+01 -0.33965778520E+03  0.34166711572E+03  0.00000000000E+00 0. -1.
<mgrwt>
<rscale>  1 0.30000000E+03</rscale>
<asrwt>0</asrwt>
<pdfrwt beam="1">  1       21 0.55562586E-02 0.30000000E+03</pdfrwt>
<pdfrwt beam="2">0</pdfrwt>
<totfact> 0.24050620E+04</totfact>
</mgrwt>
</event>
<event>
 6    1  0.6377696E-002  0.3000000E+03  0.7818608E-02  0.1093470E+00
         21   -1    0    0  501  502  0.00000000000E+00  0.00000000000E+00  0.22019841715E+01  0.22019841715E+01  0.00000000000E+00 0. -1.
         13   -1    0    0    0    0 -0.00000000000E+00 -0.00000000000E+00 -0.10000000000E+04  0.10000000000E+04  0.00000000000E+00 0.  1.
    9000005    2    1    2  501    0 -0.36623534833E+02  0.42302740330E+01 -0.19005017011E+03  0.19361323779E+03  0.28000293283E+01 0.  0.
         13    1    3    3    0    0 -0.25575165147E+02  0.32609624801E+01 -0.13921661499E+03  0.14158385797E+03  0.00000000000E+00 0.  1.
          1    1    3    3  501    0 -0.11048369686E+02  0.96931155295E+00 -0.50833555126E+02  0.52029379819E+02  0.00000000000E+00 0.  1.
         -1    1    1    2    0  502  0.36623534833E+02 -0.42302740330E+01 -0.80774784571E+03  0.80858874638E+03  0.00000000000E+00 0. -1.
<mgrwt>
<rscale>  1 0.30000000E+03</rscale>
<asrwt>0</asrwt>
<pdfrwt beam="1">  1       21 0.80072321E-02 0.30000000E+03</pdfrwt>
<pdfrwt beam="2">0</pdfrwt>
<totfact> 0.12753610E+04</totfact>
</mgrwt>
</event>
<event>
 6    1  0.6377696E-002  0.3000000E+03  0.7818608E-02  0.1093470E+00
         21   -1    0    0  501  502  0.00000000000E+00  0.00000000000E+00  0.18289014968E+01  0.18289014968E+01  0.00000000000E+00 0. -1.
         13   -1    0    0    0    0 -0.00000000000E+00 -0.00000000000E+00 -0.10000000000E+04  0.10000000000E+04  0.00000000000E+00 0.  1.
    9000005    2    1    2  501    0  0.40019573772E+02 -0.83125695230E+01 -0.35542595779E+03  0.35778543945E+03  0.34848405113E+01 0.  0.
         13    1    3    3    0    0  0.39575492888E+02 -0.82104376384E+01 -0.34678014552E+03  0.34912762745E+03  0.00000000000E+00 0.  1.
          3    1    3    3  501    0  0.44408088384E+00 -0.10213188466E+00 -0.86458122686E+01  0.86578119947E+01  0.00000000000E+00 0.  1.
         -1    1    1    2    0  502 -0.40019573772E+02  0.83125695230E+01 -0.64274514071E+03  0.64404346205E+03  0.00000000000E+00 0. -1.
<mgrwt>
<rscale>  1 0.30000000E+03</rscale>
<asrwt>0</asrwt>
<pdfrwt beam="1">  1       21 0.66505649E-02 0.30000000E+03</pdfrwt>
<pdfrwt beam="2">0</pdfrwt>
<totfact> 0.17636244E+04</totfact>
</mgrwt>
</event>
<event>
 6    1  0.6377696E-002  0.3000000E+03  0.7818608E-02  0.1093470E+00
         21   -1    0    0  501  502  0.00000000000E+00  0.00000000000E+00  0.17010934331E+01  0.17010934331E+01  0.00000000000E+00 0. -1.
         13   -1    0    0    0    0 -0.00000000000E+00 -0.00000000000E+00 -0.10000000000E+04  0.10000000000E+04  0.00000000000E+00 0.  1.
    9000005    2    1    2  501    0  0.39488315648E+02  0.54540661372E+01 -0.37476614359E+03  0.37689537930E+03  0.33750029456E+01 0.  0.
         13    1    3    3    0    0  0.24246580087E+02  0.42534414718E+01 -0.21801414791E+03  0.21939953760E+03  0.00000000000E+00 0.  1.
          1    1    3    3  501    0  0.15241735561E+02  0.12006246654E+01 -0.15675199568E+03  0.15749584169E+03  0.00000000000E+00 0.  1.
         -1    1    1    2    0  502 -0.39488315648E+02 -0.54540661372E+01 -0.62353276298E+03  0.62480571414E+03  0.00000000000E+00 0. -1.
<mgrwt>
<rscale>  1 0.30000000E+03</rscale>
<asrwt>0</asrwt>
<pdfrwt beam="1">  1       21 0.61858073E-02 0.30000000E+03</pdfrwt>
<pdfrwt beam="2">0</pdfrwt>
<totfact> 0.19991307E+04</totfact>
</mgrwt>
</event>
<event>
 6    1  0.6377696E-002  0.3000000E+03  0.7818608E-02  0.1093470E+00
         21   -1    0    0  501  502  0.00000000000E+00  0.00000000000E+00  0.11091045435E+01  0.11091045435E+01  0.00000000000E+00 0. -1.
         13   -1    0    0    0    0 -0.00000000000E+00 -0.00000000000E+00 -0.10000000000E+04  0.10000000000E+04  0.00000000000E+00 0.  1.
    9000005    2    1    2  501    0  0.81415344088E+01  0.31983237929E+02 -0.46572073198E+03  0.46691846881E+03  0.52767625158E+01 0.  0.
         13    1    3    3    0    0  0.50617017369E+01  0.15922506571E+02 -0.20106807135E+03  0.20176103776E+03  0.00000000000E+00 0.  1.
          3    1    3    3  501    0  0.30798326719E+01  0.16060731358E+02 -0.26465266063E+03  0.26515743105E+03  0.00000000000E+00 0.  1.
         -3    1    1    2    0  502 -0.81415344088E+01 -0.31983237929E+02 -0.53317016347E+03  0.53419063574E+03  0.00000000000E+00 0. -1.
<mgrwt>
<rscale>  1 0.30000000E+03</rscale>
<asrwt>0</asrwt>
<pdfrwt beam="1">  1       21 0.40331159E-02 0.30000000E+03</pdfrwt>
<pdfrwt beam="2">0</pdfrwt>
<totfact> 0.41467423E+04</totfact>
</mgrwt>
</event>
<event>
 6    1  0.6377696E-002  0.3000000E+03  0.7818608E-02  0.1093470E+00
         21   -1    0    0  501  502  0.00000000000E+00  0.00000000000E+00  0.12758935220E+01  0.12758935220E+01  0.00000000000E+00 0. -1.
         13   -1    0    0    0    0 -0.00000000000E+00 -0.00000000000E+00 -0.10000000000E+04  0.10000000000E+04  0.00000000000E+00 0.  1.
    9000005    2    1    2  501    0 -0.73224174770E+01  0.32957159309E+02 -0.33878052107E+03  0.34046931965E+03  0.27062928417E+01 0.  0.
         13    1    3    3    0    0 -0.35152453193E+01  0.14744398185E+02 -0.16552168240E+03  0.16621426404E+03  0.00000000000E+00 0.  1.
          1    1    3    3  501    0 -0.38071721577E+01  0.18212761124E+02 -0.17325883867E+03  0.17425505561E+03  0.00000000000E+00 0.  1.
         -3    1    1    2    0  502  0.73224174770E+01 -0.32957159309E+02 -0.65994358541E+03  0.66080657387E+03  0.00000000000E+00 0. -1.
<mgrwt>
<rscale>  1 0.30000000E+03</rscale>
<asrwt>0</asrwt>
<pdfrwt beam="1">  1       21 0.46396226E-02 0.30000000E+03</pdfrwt>
<pdfrwt beam="2">0</pdfrwt>
<totfact> 0.32715510E+04</totfact>
</mgrwt>
</event>
<event>
 6    1  0.6377696E-002  0.3000000E+03  0.7818608E-02  0.1093470E+00
         21   -1    0    0  501  502  0.00000000000E+00  0.00000000000E+00  0.24383221034E+01  0.24383221034E+01  0.00000000000E+00 0. -1.
         13   -1    0    0    0    0 -0.00000000000E+00 -0.00000000000E+00 -0.10000000000E+04  0.10000000000E+04  0.00000000000E+00 0.  1.
    9000005    2    1    2  501    0  0.36047677039E+01  0.41169039693E+02 -0.22645210570E+03  0.23022212406E+03  0.37129575293E+01 0.  0.
         13    1    3    3    0    0  0.27577153035E+01  0.12355191170E+02 -0.67101459699E+02  0.68285149456E+02  0.00000000000E+00 0.  1.
          3    1    3    3  501    0  0.84705240040E+00  0.28813848523E+02 -0.15935064600E+03  0.16193697461E+03  0.00000000000E+00 0.  1.
         -3    1    1    2    0  502 -0.36047677039E+01 -0.41169039693E+02 -0.77110957220E+03  0.77221619804E+03  0.00000000000E+00 0. -1.
<mgrwt>
<rscale>  1 0.30000000E+03</rscale>
<asrwt>0</asrwt>
<pdfrwt beam="1">  1       21 0.88666445E-02 0.30000000E+03</pdfrwt>
<pdfrwt beam="2">0</pdfrwt>
<totfact> 0.10656038E+04</totfact>
</mgrwt>
</event>
<event>
 6    1  0.6377696E-002  0.3000000E+03  0.7818608E-02  0.1093470E+00
         21   -1    0    0  501  502  0.00000000000E+00  0.00000000000E+00  0.15525997874E+01  0.15525997874E+01  0.00000000000E+00 0. -1.
         13   -1    0    0    0    0 -0.00000000000E+00 -0.00000000000E+00 -0.10000000000E+04  0.10000000000E+04  0.00000000000E+00 0.  1.
    9000005    2    1    2  501    0 -0.36173293237E+02  0.22749982018E+01 -0.30599243781E+03  0.30814971710E+03  0.33456528143E+01 0.  0.
         13    1    3    3    0    0 -0.30605676806E+02  0.31322723750E+01 -0.25886433013E+03  0.26068613311E+03  0.00000000000E+00 0.  1.
          1    1    3    3  501    0 -0.55676164308E+01 -0.85727417315E+00 -0.47128107682E+02  0.47463583993E+02  0.00000000000E+00 0.  1.
         -3    1    1    2    0  502  0.36173293237E+02 -0.22749982018E+01 -0.69245496240E+03  0.69340288269E+03  0.00000000000E+00 0. -1.
<mgrwt>
<rscale>  1 0.30000000E+03</rscale>
<asrwt>0</asrwt>
<pdfrwt beam="1">  1       21 0.56458293E-02 0.30000000E+03</pdfrwt>
<pdfrwt beam="2">0</pdfrwt>
<totfact> 0.23399185E+04</totfact>
</mgrwt>
</event>
<event>
 6    1  0.6377696E-002  0.3000000E+03  0.7818608E-02  0.1093470E+00
         21   -1    0    0  501  502  0.00000000000E+00  0.00000000000E+00  0.13685185776E+01  0.13685185776E+01  0.00000000000E+00 0. -1.
         13   -1    0    0    0    0 -0.00000000000E+00 -0.00000000000E+00 -0.10000000000E+04  0.10000000000E+04  0.00000000000E+00 0.  1.
    9000005    2    1    2  501    0  0.29141650655E+02 -0.22146634739E+02 -0.44282699152E+03  0.44436013423E+03  0.45249579920E+01 0.  0.
         13    1    3    3    0    0  0.31214486935E+01 -0.43230640039E+01 -0.60638931302E+02  0.60872919380E+02  0.00000000000E+00 0.  1.
          1    1    3    3  501    0  0.26020201962E+02 -0.17823570736E+02 -0.38218806022E+03  0.38348721485E+03  0.00000000000E+00 0.  1.
         -1    1    1    2    0  502 -0.29141650655E+02  0.22146634739E+02 -0.55580448990E+03  0.55700838435E+03  0.00000000000E+00 0. -1.
<mgrwt>
<rscale>  1 0.30000000E+03</rscale>
<asrwt>0</asrwt>
<pdfrwt beam="1">  1       21 0.49764417E-02 0.30000000E+03</pdfrwt>
<pdfrwt beam="2">0</pdfrwt>
<totfact> 0.29037473E+04</totfact>
</mgrwt>
</event>
<event>
 6    1  0.6377696E-002  0.3000000E+03  0.7818608E-02  0.1093470E+00
         21   -1    0    0  501  502  0.00000000000E+00  0.00000000000E+00  0.14197196960E+01  0.14197196960E+01  0.00000000000E+00 0. -1.
         13   -1    0    0    0    0 -0.00000000000E+00 -0.00000000000E+00 -0.10000000000E+04  0.10000000000E+04  0.00000000000E+00 0.  1.
    9000005    2    1    2  501    0  0.45642462593E+01 -0.35896081267E+02 -0.36419116505E+03  0.36599945676E+03  0.33221462126E+01 0.  0.
         13    1    3    3    0    0  0.47503619533E+01 -0.28040994063E+02 -0.29215805860E+03  0.29353908511E+03  0.00000000000E+00 0.  1.
          3    1    3    3  501    0 -0.18611569394E+00 -0.78550872042E+01 -0.72033106452E+02  0.72460371646E+02  0.00000000000E+00 0.  1.
         -3    1    1    2    0  502 -0.45642462593E+01  0.35896081267E+02 -0.63438911526E+03  0.63542026294E+03  0.00000000000E+00 0. -1.
<mgrwt>
<rscale>  1 0.30000000E+03</rscale>
<asrwt>0</asrwt>
<pdfrwt beam="1">  1       21 0.51626280E-02 0.30000000E+03</pdfrwt>
<pdfrwt beam="2">0</pdfrwt>
<totfact> 0.27273819E+04</totfact>
</mgrwt>
</event>
<event>
 6    1  0.6377696E-002  0.3000000E+03  0.7818608E-02  0.1093470E+00
         21   -1    0    0  501  502  0.00000000000E+00  0.00000000000E+00  0.99693663909E+00  0.99693663909E+00  0.00000000000E+00 0. -1.
         13   -1    0    0    0    0 -0.00000000000E+00 -0.00000000000E+00 -0.10000000000E+04  0.10000000000E+04  0.00000000000E+00 0.  1.
    9000005    2    1    2  501    0  0.26625166651E+02 -0.15585355222E+02 -0.59911819337E+03  0.59992373628E+03  0.37519237369E+01 0.  0.
         13    1    3    3    0    0  0.23933515038E+02 -0.12572489743E+02 -0.52429054656E+03  0.52498710256E+03  0.00000000000E+00 0.  1.
          3    1    3    3  501    0  0.26916516128E+01 -0.30128654784E+01 -0.74827646801E+02  0.74936633715E+02  0.00000000000E+00 0.  1.
         -1    1    1    2    0  502 -0.26625166651E+02  0.15585355222E+02 -0.39988487000E+03  0.40107320036E+03  0.00000000000E+00 0. -1.
<mgrwt>
<rscale>  1 0.30000000E+03</rscale>
<asrwt>0</asrwt>
<pdfrwt beam="1">  1       21 0.36252318E-02 0.30000000E+03</pdfrwt>
<pdfrwt beam="2">0</pdfrwt>
<totfact> 0.49605825E+04</totfact>
</mgrwt>
</event>
<event>
 6    1  0.6377696E-002  0.3000000E+03  0.7818608E-02  0.1093470E+00
         21   -1    0    0  501  502  0.00000000000E+00  0.00000000000E+00  0.13578785192E+01  0.13578785192E+01  0.00000000000E+00 0. -1.
         13   -1    0    0    0    0 -0.00000000000E+00 -0.00000000000E+00 -0.10000000000E+04  0.10000000000E+04  0.00000000000E+00 0.  1.
    9000005    2    1    2  501    0  0.78419492501E+01  0.29211731568E+02 -0.21722644761E+03  0.21935706215E+03  0.39204266477E+01 0.  0.
         13    1    3    3    0    0  0.69150846014E+01  0.23047010070E+02 -0.16143086571E+03  0.16321429922E+03  0.00000000000E+00 0.  1.
          3    1    3    3  501    0  0.92686464866E+00  0.61647214983E+01 -0.55795581905E+02  0.56142762929E+02  0.00000000000E+00 0.  1.
         -3    1    1    2    0  502 -0.78419492501E+01 -0.29211731568E+02 -0.78141567387E+03  0.78200081637E+03  0.00000000000E+00 0. -1.
<mgrwt>
<rscale>  1 0.30000000E+03</rscale>
<asrwt>0</asrwt>
<pdfrwt beam="1">  1       21 0.49377505E-02 0.30000000E+03</pdfrwt>
<pdfrwt beam="2">0</pdfrwt>
<totfact> 0.29426258E+04</totfact>
</mgrwt>
</event>
<event>
 6    1  0.6377696E-002  0.3000000E+03  0.7818608E-02  0.1093470E+00
         21   -1    0    0  501  502  0.00000000000E+00  0.00000000000E+00  0.10704948394E+01  0.10704948394E+01  0.00000000000E+00 0. -1.
         13   -1    0    0    0    0 -0.00000000000E+00 -0.00000000000E+00 -0.10000000000E+04  0.10000000000E+04  0.00000000000E+00 0.  1.
    9000005    2    1    2  501    0  0.28506042824E+02  0.15599653978E+02 -0.50760683621E+03  0.50867440559E+03  0.53858198341E+01 0.  0.
         13    1    3    3    0    0  0.23776254005E+02  0.12764552115E+02 -0.38569326426E+03  0.38663618318E+03  0.00000000000E+00 0.  1.
          1    1    3    3  501    0  0.47297888193E+01  0.28351018636E+01 -0.12191357195E+03  0.12203822241E+03  0.00000000000E+00 0.  1.
         -1    1    1    2    0  502 -0.28506042824E+02 -0.15599653978E+02 -0.49132266895E+03  0.49239608925E+03  0.00000000000E+00 0. -1.
<mgrwt>
<rscale>  1 0.30000000E+03</rscale>
<asrwt>0</asrwt>
<pdfrwt beam="1">  1       21 0.38927167E-02 0.30000000E+03</pdfrwt>
<pdfrwt beam="2">0</pdfrwt>
<totfact> 0.44015834E+04</totfact>
</mgrwt>
</event>
<event>
 6    1  0.6377696E-002  0.3000000E+03  0.7818608E-02  0.1093470E+00
         21   -1    0    0  501  502  0.00000000000E+00  0.00000000000E+00  0.17479915392E+01  0.17479915392E+01  0.00000000000E+00 0. -1.
         13   -1    0    0    0    0 -0.00000000000E+00 -0.00000000000E+00 -0.10000000000E+04  0.10000000000E+04  0.00000000000E+00 0.  1.
    9000005    2    1    2  501    0  0.28250976173E+01 -0.39914652044E+02 -0.64291991294E+03  0.64416994589E+03  0.27828234986E+01 0.  0.
         13    1    3    3    0    0  0.15435051444E+01 -0.11502482671E+02 -0.17017964614E+03  0.17057491456E+03  0.00000000000E+00 0.  1.
          1    1    3    3  501    0  0.12815924728E+01 -0.28412169373E+02 -0.47274026680E+03  0.47359503133E+03  0.00000000000E+00 0.  1.
         -1    1    1    2    0  502 -0.28250976173E+01  0.39914652044E+02 -0.35533209552E+03  0.35757804565E+03  0.00000000000E+00 0. -1.
<mgrwt>
<rscale>  1 0.30000000E+03</rscale>
<asrwt>0</asrwt>
<pdfrwt beam="1">  1       21 0.63563463E-02 0.30000000E+03</pdfrwt>
<pdfrwt beam="2">0</pdfrwt>
<totfact> 0.19073528E+04</totfact>
</mgrwt>
</event>
<event>
 6    1  0.6377696E-002  0.3000000E+03  0.7818608E-02  0.1093470E+00
         21   -1    0    0  501  502  0.00000000000E+00  0.00000000000E+00  0.24127745415E+01  0.24127745415E+01  0.00000000000E+00 0. -1.
         13   -1    0    0    0    0 -0.00000000000E+00 -0.00000000000E+00 -0.10000000000E+04  0.10000000000E+04  0.00000000000E+00 0.  1.
    9000005    2    1    2  501    0  0.28100701576E+02  0.29132482828E+02 -0.21589972957E+03  0.21967802240E+03  0.27183288027E+01 0.  0.
         13    1    3    3    0    0  0.21973450452E+02  0.22708993729E+02 -0.17436920799E+03  0.17720934404E+03  0.00000000000E+00 0.  1.
          3    1    3    3  501    0  0.61272511239E+01  0.64234890995E+01 -0.41530521582E+02  0.42468678357E+02  0.00000000000E+00 0.  1.
         -1    1    1    2    0  502 -0.28100701576E+02 -0.29132482828E+02 -0.78168749589E+03  0.78273475214E+03  0.00000000000E+00 0. -1.
<mgrwt>
<rscale>  1 0.30000000E+03</rscale>
<asrwt>0</asrwt>
<pdfrwt beam="1">  1       21 0.87737441E-02 0.30000000E+03</pdfrwt>
<pdfrwt beam="2">0</pdfrwt>
<totfact> 0.10856393E+04</totfact>
</mgrwt>
</event>
<event>
 6    1  0.6377696E-002  0.3000000E+03  0.7818608E-02  0.1093470E+00
         21   -1    0    0  501  502  0.00000000000E+00  0.00000000000E+00  0.13932194127E+01  0.13932194127E+01  0.00000000000E+00 0. -1.
         13   -1    0    0    0    0 -0.00000000000E+00 -0.00000000000E+00 -0.10000000000E+04  0.10000000000E+04  0.00000000000E+00 0.  1.
    9000005    2    1    2  501    0 -0.13637792545E+02  0.34426817446E+02 -0.54338406465E+03  0.54466691598E+03  0.49610985708E+01 0.  0.
         13    1    3    3    0    0 -0.13335674275E+01  0.14211389702E+01 -0.43293832436E+02  0.43337673738E+02  0.00000000000E+00 0.  1.
          3    1    3    3  501    0 -0.12304225117E+02  0.33005678476E+02 -0.50009023222E+03  0.50132924224E+03  0.00000000000E+00 0.  1.
         -3    1    1    2    0  502  0.13637792545E+02 -0.34426817446E+02 -0.45522271593E+03  0.45672630343E+03  0.00000000000E+00 0. -1.
<mgrwt>
<rscale>  1 0.30000000E+03</rscale>
<asrwt>0</asrwt>
<pdfrwt beam="1">  1       21 0.50662631E-02 0.30000000E+03</pdfrwt>
<pdfrwt beam="2">0</pdfrwt>
<totfact> 0.28165165E+04</totfact>
</mgrwt>
</event>
<event>
 6    1  0.6377696E-002  0.3000000E+03  0.7818608E-02  0.1093470E+00
         21   -1    0    0  501  502  0.00000000000E+00  0.00000000000E+00  0.31799855458E+01  0.31799855458E+01  0.00000000000E+00 0. -1.
         13   -1    0    0    0    0 -0.00000000000E+00 -0.00000000000E+00 -0.10000000000E+04  0.10000000000E+04  0.00000000000E+00 0.  1.
    9000005    2    1    2  501    0  0.16967552137E+02 -0.47854757316E+02 -0.71614844184E+03  0.71795287026E+03  0.31237052251E+01 0.  0.
         13    1    3    3    0    0  0.63369765797E+01 -0.14096583582E+02 -0.20810866736E+03  0.20868178735E+03  0.00000000000E+00 0.  1.
          3    1    3    3  501    0  0.10630575557E+02 -0.33758173734E+02 -0.50803977449E+03  0.50927108291E+03  0.00000000000E+00 0.  1.
         -1    1    1    2    0  502 -0.16967552137E+02  0.47854757316E+02 -0.28067157261E+03  0.28522711529E+03  0.00000000000E+00 0. -1.
<mgrwt>
<rscale>  1 0.30000000E+03</rscale>
<asrwt>0</asrwt>
<pdfrwt beam="1">  1       21 0.11563608E-01 0.30000000E+03</pdfrwt>
<pdfrwt beam="2">0</pdfrwt>
<totfact> 0.66271658E+03</totfact>
</mgrwt>
</event>
<event>
 6    1  0.6377696E-002  0.3000000E+03  0.7818608E-02  0.1093470E+00
         21   -1    0    0  501  502  0.00000000000E+00  0.00000000000E+00  0.25446254953E+01  0.25446254953E+01  0.00000000000E+00 0. -1.
         13   -1    0    0    0    0 -0.00000000000E+00 -0.00000000000E+00 -0.10000000000E+04  0.10000000000E+04  0.00000000000E+00 0.  1.
    9000005    2    1    2  501    0  0.30093206864E+02  0.40221207596E+02 -0.46038693448E+03  0.46313211553E+03  0.34467887640E+01 0.  0.
         13    1    3    3    0    0  0.10122159484E+02  0.16230949418E+02 -0.17882336821E+03  0.17984353991E+03  0.00000000000E+00 0.  1.
          1    1    3    3  501    0  0.19971047380E+02  0.23990258178E+02 -0.28156356627E+03  0.28328857561E+03  0.00000000000E+00 0.  1.
         -3    1    1    2    0  502 -0.30093206864E+02 -0.40221207596E+02 -0.53706844002E+03  0.53941250997E+03  0.00000000000E+00 0. -1.
<mgrwt>
<rscale>  1 0.30000000E+03</rscale>
<asrwt>0</asrwt>
<pdfrwt beam="1">  1       21 0.92532031E-02 0.30000000E+03</pdfrwt>
<pdfrwt beam="2">0</pdfrwt>
<totfact> 0.98796518E+03</totfact>
</mgrwt>
</event>
<event>
 6    1  0.6377696E-002  0.3000000E+03  0.7818608E-02  0.1093470E+00
         21   -1    0    0  501  502  0.00000000000E+00  0.00000000000E+00  0.12348004555E+01  0.12348004555E+01  0.00000000000E+00 0. -1.
         13   -1    0    0    0    0 -0.00000000000E+00 -0.00000000000E+00 -0.10000000000E+04  0.10000000000E+04  0.00000000000E+00 0.  1.
    9000005    2    1    2  501    0  0.30062322413E+02  0.17040267126E+02 -0.58357757042E+03  0.58461161182E+03  0.37204895256E+01 0.  0.
         13    1    3    3    0    0  0.24432441814E+02  0.15365730354E+02 -0.49201064819E+03  0.49285649820E+03  0.00000000000E+00 0.  1.
          1    1    3    3  501    0  0.56298805986E+01  0.16745367723E+01 -0.91566922234E+02  0.91755113625E+02  0.00000000000E+00 0.  1.
         -3    1    1    2    0  502 -0.30062322413E+02 -0.17040267126E+02 -0.41518762912E+03  0.41662318864E+03  0.00000000000E+00 0. -1.
<mgrwt>
<rscale>  1 0.30000000E+03</rscale>
<asrwt>0</asrwt>
<pdfrwt beam="1">  1       21 0.44901929E-02 0.30000000E+03</pdfrwt>
<pdfrwt beam="2">0</pdfrwt>
<totfact> 0.34585984E+04</totfact>
</mgrwt>
</event>
<event>
 6    1  0.6377696E-002  0.3000000E+03  0.7818608E-02  0.1093470E+00
         21   -1    0    0  501  502  0.00000000000E+00  0.00000000000E+00  0.15593015749E+01  0.15593015749E+01  0.00000000000E+00 0. -1.
         13   -1    0    0    0    0 -0.00000000000E+00 -0.00000000000E+00 -0.10000000000E+04  0.10000000000E+04  0.00000000000E+00 0.  1.
    9000005    2    1    2  501    0 -0.28830996727E+02  0.12367642592E+02 -0.19774155519E+03  0.20024581552E+03  0.35325668906E+01 0.  0.
         13    1    3    3    0    0 -0.28111751193E+01  0.19213370665E+01 -0.27632424523E+02  0.27841428244E+02  0.00000000000E+00 0.  1.
          3    1    3    3  501    0 -0.26019821608E+02  0.10446305526E+02 -0.17010913067E+03  0.17240438728E+03  0.00000000000E+00 0.  1.
         -3    1    1    2    0  502  0.28830996727E+02 -0.12367642592E+02 -0.80069914323E+03  0.80131348605E+03  0.00000000000E+00 0. -1.
<mgrwt>
<rscale>  1 0.30000000E+03</rscale>
<asrwt>0</asrwt>
<pdfrwt beam="1">  1       21 0.56701995E-02 0.30000000E+03</pdfrwt>
<pdfrwt beam="2">0</pdfrwt>
<totfact> 0.23226628E+04</totfact>
</mgrwt>
</event>
<event>
 6    1  0.6377696E-002  0.3000000E+03  0.7818608E-02  0.1093470E+00
         21   -1    0    0  501  502  0.00000000000E+00  0.00000000000E+00  0.33590372404E+01  0.33590372404E+01  0.00000000000E+00 0. -1.
         13   -1    0    0    0    0 -0.00000000000E+00 -0.00000000000E+00 -0.10000000000E+04  0.10000000000E+04  0.00000000000E+00 0.  1.
    9000005    2    1    2  501    0 -0.17716065398E+02 -0.49302481890E+02 -0.28690820677E+03  0.29169536765E+03  0.50273950877E+01 0.  0.
         13    1    3    3    0    0 -0.79470667731E+01 -0.29232382438E+02 -0.16175515326E+03  0.16456736511E+03  0.00000000000E+00 0.  1.
          3    1    3    3  501    0 -0.97689986249E+01 -0.20070099452E+02 -0.12515305351E+03  0.12712800254E+03  0.00000000000E+00 0.  1.
         -1    1    1    2    0  502  0.17716065398E+02  0.49302481890E+02 -0.70973275599E+03  0.71166366959E+03  0.00000000000E+00 0. -1.
<mgrwt>
<rscale>  1 0.30000000E+03</rscale>
<asrwt>0</asrwt>
<pdfrwt beam="1">  1       21 0.12214707E-01 0.30000000E+03</pdfrwt>
<pdfrwt beam="2">0</pdfrwt>
<totfact> 0.60006321E+03</totfact>
</mgrwt>
</event>
<event>
 6    1  0.6377696E-002  0.3000000E+03  0.7818608E-02  0.1093470E+00
         21   -1    0    0  501  502  0.00000000000E+00  0.00000000000E+00  0.46349382615E+01  0.46349382615E+01  0.00000000000E+00 0. -1.
         13   -1    0    0    0    0 -0.00000000000E+00 -0.00000000000E+00 -0.10000000000E+04  0.10000000000E+04  0.00000000000E+00 0.  1.
    9000005    2    1    2  501    0 -0.43335276350E+02 -0.27908050394E+02 -0.17065263420E+03  0.17831333405E+03  0.40642449294E+01 0.  0.
         13    1    3    3    0    0 -0.31949709325E+02 -0.18567365740E+02 -0.11952240888E+03  0.12510450520E+03  0.00000000000E+00 0.  1.
          1    1    3    3  501    0 -0.11385567025E+02 -0.93406846541E+01 -0.51130225315E+02  0.53208828845E+02  0.00000000000E+00 0.  1.
         -3    1    1    2    0  502  0.43335276350E+02  0.27908050394E+02 -0.82471242754E+03  0.82632160421E+03  0.00000000000E+00 0. -1.
<mgrwt>
<rscale>  1 0.30000000E+03</rscale>
<asrwt>0</asrwt>
<pdfrwt beam="1">  1       21 0.16854356E-01 0.30000000E+03</pdfrwt>
<pdfrwt beam="2">0</pdfrwt>
<totfact> 0.33144867E+03</totfact>
</mgrwt>
</event>
<event>
 6    1  0.6377696E-002  0.3000000E+03  0.7818608E-02  0.1093470E+00
         21   -1    0    0  501  502  0.00000000000E+00  0.00000000000E+00  0.23868074182E+01  0.23868074182E+01  0.00000000000E+00 0. -1.
         13   -1    0    0    0    0 -0.00000000000E+00 -0.00000000000E+00 -0.10000000000E+04  0.10000000000E+04  0.00000000000E+00 0.  1.
    9000005    2    1    2  501    0 -0.13557645185E+02  0.46760841622E+02 -0.53149811237E+03  0.53373592024E+03  0.36610175151E+01 0.  0.
         13    1    3    3    0    0 -0.97008792712E+01  0.31410023026E+02 -0.34061512344E+03  0.34219783594E+03  0.00000000000E+00 0.  1.
          1    1    3    3  501    0 -0.38567659143E+01  0.15350818596E+02 -0.19088298893E+03  0.19153808430E+03  0.00000000000E+00 0.  1.
         -3    1    1    2    0  502  0.13557645185E+02 -0.46760841622E+02 -0.46611508021E+03  0.46865088717E+03  0.00000000000E+00 0. -1.
<mgrwt>
<rscale>  1 0.30000000E+03</rscale>
<asrwt>0</asrwt>
<pdfrwt beam="1">  1       21 0.86793180E-02 0.30000000E+03</pdfrwt>
<pdfrwt beam="2">0</pdfrwt>
<totfact> 0.11065961E+04</totfact>
</mgrwt>
</event>
<event>
 6    1  0.6377696E-002  0.3000000E+03  0.7818608E-02  0.1093470E+00
         21   -1    0    0  501  502  0.00000000000E+00  0.00000000000E+00  0.30095746087E+01  0.30095746087E+01  0.00000000000E+00 0. -1.
         13   -1    0    0    0    0 -0.00000000000E+00 -0.00000000000E+00 -0.10000000000E+04  0.10000000000E+04  0.00000000000E+00 0.  1.
    9000005    2    1    2  501    0  0.29414615568E+01 -0.44985581449E+02 -0.21398674304E+03  0.21870917214E+03  0.33197963113E+01 0.  0.
         13    1    3    3    0    0  0.21922079979E+01 -0.12356456617E+02 -0.62116019805E+02  0.63371032124E+02  0.00000000000E+00 0.  1.
          1    1    3    3  501    0  0.74925355894E+00 -0.32629124832E+02 -0.15187072324E+03  0.15533814002E+03  0.00000000000E+00 0.  1.
         -3    1    1    2    0  502 -0.29414615568E+01  0.44985581449E+02 -0.78300368235E+03  0.78430040247E+03  0.00000000000E+00 0. -1.
<mgrwt>
<rscale>  1 0.30000000E+03</rscale>
<asrwt>0</asrwt>
<pdfrwt beam="1">  1       21 0.10943931E-01 0.30000000E+03</pdfrwt>
<pdfrwt beam="2">0</pdfrwt>
<totfact> 0.73189906E+03</totfact>
</mgrwt>
</event>
<event>
 6    1  0.6377696E-002  0.3000000E+03  0.7818608E-02  0.1093470E+00
         21   -1    0    0  501  502  0.00000000000E+00  0.00000000000E+00  0.14028150526E+01  0.14028150526E+01  0.00000000000E+00 0. -1.
         13   -1    0    0    0    0 -0.00000000000E+00 -0.00000000000E+00 -0.10000000000E+04  0.10000000000E+04  0.00000000000E+00 0.  1.
    9000005    2    1    2  501    0  0.23359100313E+02 -0.22722995713E+02 -0.25508473657E+03  0.25717654369E+03  0.30934914243E+01 0.  0.
         13    1    3    3    0    0  0.10510993446E+02 -0.11591338066E+02 -0.13167859585E+03  0.13260502519E+03  0.00000000000E+00 0.  1.
          1    1    3    3  501    0  0.12848106867E+02 -0.11131657647E+02 -0.12340614073E+03  0.12457151850E+03  0.00000000000E+00 0.  1.
         -1    1    1    2    0  502 -0.23359100313E+02  0.22722995713E+02 -0.74351244838E+03  0.74422627137E+03  0.00000000000E+00 0. -1.
<mgrwt>
<rscale>  1 0.30000000E+03</rscale>
<asrwt>0</asrwt>
<pdfrwt beam="1">  1       21 0.51011564E-02 0.30000000E+03</pdfrwt>
<pdfrwt beam="2">0</pdfrwt>
<totfact> 0.27837252E+04</totfact>
</mgrwt>
</event>
<event>
 6    1  0.6377696E-002  0.3000000E+03  0.7818608E-02  0.1093470E+00
         21   -1    0    0  501  502  0.00000000000E+00  0.00000000000E+00  0.19843150021E+01  0.19843150021E+01  0.00000000000E+00 0. -1.
         13   -1    0    0    0    0 -0.00000000000E+00 -0.00000000000E+00 -0.10000000000E+04  0.10000000000E+04  0.00000000000E+00 0.  1.
    9000005    2    1    2  501    0  0.30898354296E+02  0.18272811639E+02 -0.20375019653E+03  0.20690804815E+03  0.28624917499E+01 0.  0.
         13    1    3    3    0    0  0.37685474027E+01  0.12079551631E+01 -0.23262728973E+02  0.23596941845E+02  0.00000000000E+00 0.  1.
          1    1    3    3  501    0  0.27129806893E+02  0.17064856476E+02 -0.18048746756E+03  0.18331110630E+03  0.00000000000E+00 0.  1.
         -1    1    1    2    0  502 -0.30898354296E+02 -0.18272811639E+02 -0.79426548847E+03  0.79507626685E+03  0.00000000000E+00 0. -1.
<mgrwt>
<rscale>  1 0.30000000E+03</rscale>
<asrwt>0</asrwt>
<pdfrwt beam="1">  1       21 0.72157061E-02 0.30000000E+03</pdfrwt>
<pdfrwt beam="2">0</pdfrwt>
<totfact> 0.15304120E+04</totfact>
</mgrwt>
</event>
<event>
 6    1  0.6377696E-002  0.3000000E+03  0.7818608E-02  0.1093470E+00
         21   -1    0    0  501  502  0.00000000000E+00  0.00000000000E+00  0.23301913945E+01  0.23301913945E+01  0.00000000000E+00 0. -1.
         13   -1    0    0    0    0 -0.00000000000E+00 -0.00000000000E+00 -0.10000000000E+04  0.10000000000E+04  0.00000000000E+00 0.  1.
    9000005    2    1    2  501    0  0.37029575817E+02 -0.57243027924E+00 -0.81988328580E+03  0.82072742475E+03  0.36587212904E+01 0.  0.
         13    1    3    3    0    0  0.26518934439E+02 -0.19188909594E+01 -0.57121435271E+03  0.57183281890E+03  0.00000000000E+00 0.  1.
          1    1    3    3  501    0  0.10510641378E+02  0.13464606802E+01 -0.24866893309E+03  0.24889460585E+03  0.00000000000E+00 0.  1.
         -3    1    1    2    0  502 -0.37029575817E+02  0.57243027924E+00 -0.17778652280E+03  0.18160276664E+03  0.00000000000E+00 0. -1.
<mgrwt>
<rscale>  1 0.30000000E+03</rscale>
<asrwt>0</asrwt>
<pdfrwt beam="1">  1       21 0.84734411E-02 0.30000000E+03</pdfrwt>
<pdfrwt beam="2">0</pdfrwt>
<totfact> 0.11544788E+04</totfact>
</mgrwt>
</event>
<event>
 6    1  0.6377696E-002  0.3000000E+03  0.7818608E-02  0.1093470E+00
         21   -1    0    0  501  502  0.00000000000E+00  0.00000000000E+00  0.11516204943E+01  0.11516204943E+01  0.00000000000E+00 0. -1.
         13   -1    0    0    0    0 -0.00000000000E+00 -0.00000000000E+00 -0.10000000000E+04  0.10000000000E+04  0.00000000000E+00 0.  1.
    9000005    2    1    2  501    0  0.12520828022E+02  0.30750954903E+02 -0.59612301284E+03  0.59705990650E+03  0.39361341690E+01 0.  0.
         13    1    3    3    0    0  0.27512937028E+01  0.42971849756E+01 -0.11214255082E+03  0.11225857259E+03  0.00000000000E+00 0.  1.
          3    1    3    3  501    0  0.97695343192E+01  0.26453769927E+02 -0.48398046202E+03  0.48480133391E+03  0.00000000000E+00 0.  1.
         -3    1    1    2    0  502 -0.12520828022E+02 -0.30750954903E+02 -0.40272536666E+03  0.40409171399E+03  0.00000000000E+00 0. -1.
<mgrwt>
<rscale>  1 0.30000000E+03</rscale>
<asrwt>0</asrwt>
<pdfrwt beam="1">  1       21 0.41877197E-02 0.30000000E+03</pdfrwt>
<pdfrwt beam="2">0</pdfrwt>
<totfact> 0.38918402E+04</totfact>
</mgrwt>
</event>
<event>
 6    1  0.6377696E-002  0.3000000E+03  0.7818608E-02  0.1093470E+00
         21   -1    0    0  501  502  0.00000000000E+00  0.00000000000E+00  0.11205517228E+01  0.11205517228E+01  0.00000000000E+00 0. -1.
         13   -1    0    0    0    0 -0.00000000000E+00 -0.00000000000E+00 -0.10000000000E+04  0.10000000000E+04  0.00000000000E+00 0.  1.
    9000005    2    1    2  501    0 -0.31381406915E+02 -0.10966103825E+02 -0.45341832283E+03  0.45464741651E+03  0.33241134119E+01 0.  0.
         13    1    3    3    0    0 -0.27800665740E+02 -0.10794598774E+02 -0.40543816531E+03  0.40653352416E+03  0.00000000000E+00 0.  1.
          1    1    3    3  501    0 -0.35807411748E+01 -0.17150505104E+00 -0.47980157514E+02  0.48113892344E+02  0.00000000000E+00 0.  1.
         -3    1    1    2    0  502  0.31381406915E+02  0.10966103825E+02 -0.54546112545E+03  0.54647313522E+03  0.00000000000E+00 0. -1.
<mgrwt>
<rscale>  1 0.30000000E+03</rscale>
<asrwt>0</asrwt>
<pdfrwt beam="1">  1       21 0.40747421E-02 0.30000000E+03</pdfrwt>
<pdfrwt beam="2">0</pdfrwt>
<totfact> 0.40756043E+04</totfact>
</mgrwt>
</event>
<event>
 6    1  0.6377696E-002  0.3000000E+03  0.7818608E-02  0.1093470E+00
         21   -1    0    0  501  502  0.00000000000E+00  0.00000000000E+00  0.17084381477E+01  0.17084381477E+01  0.00000000000E+00 0. -1.
         13   -1    0    0    0    0 -0.00000000000E+00 -0.00000000000E+00 -0.10000000000E+04  0.10000000000E+04  0.00000000000E+00 0.  1.
    9000005    2    1    2  501    0  0.72272202119E+01 -0.30764396784E+02 -0.17802840818E+03  0.18083675384E+03  0.30226808892E+01 0.  0.
         13    1    3    3    0    0  0.92264347507E+00 -0.49953893676E+01 -0.35323393549E+02  0.35686794725E+02  0.00000000000E+00 0.  1.
          1    1    3    3  501    0  0.63045767369E+01 -0.25769007417E+02 -0.14270501463E+03  0.14514995912E+03  0.00000000000E+00 0.  1.
         -3    1    1    2    0  502 -0.72272202119E+01  0.30764396784E+02 -0.82026315367E+03  0.82087168431E+03  0.00000000000E+00 0. -1.
<mgrwt>
<rscale>  1 0.30000000E+03</rscale>
<asrwt>0</asrwt>
<pdfrwt beam="1">  1       21 0.62125155E-02 0.30000000E+03</pdfrwt>
<pdfrwt beam="2">0</pdfrwt>
<totfact> 0.19843107E+04</totfact>
</mgrwt>
</event>
<event>
 6    1  0.6377696E-002  0.3000000E+03  0.7818608E-02  0.1093470E+00
         21   -1    0    0  501  502  0.00000000000E+00  0.00000000000E+00  0.19494603907E+01  0.19494603907E+01  0.00000000000E+00 0. -1.
         13   -1    0    0    0    0 -0.00000000000E+00 -0.00000000000E+00 -0.10000000000E+04  0.10000000000E+04  0.00000000000E+00 0.  1.
    9000005    2    1    2  501    0  0.33975630157E+02 -0.17812394771E+02 -0.74626008472E+03  0.74725344938E+03  0.34610273136E+01 0.  0.
         13    1    3    3    0    0  0.18074187374E+01 -0.14486400524E+01 -0.33305101189E+02  0.33385552051E+02  0.00000000000E+00 0.  1.
          1    1    3    3  501    0  0.32168211420E+02 -0.16363754718E+02 -0.71295498354E+03  0.71386789733E+03  0.00000000000E+00 0.  1.
         -3    1    1    2    0  502 -0.33975630157E+02  0.17812394771E+02 -0.25179045488E+03  0.25469601101E+03  0.00000000000E+00 0. -1.
<mgrwt>
<rscale>  1 0.30000000E+03</rscale>
<asrwt>0</asrwt>
<pdfrwt beam="1">  1       21 0.70889618E-02 0.30000000E+03</pdfrwt>
<pdfrwt beam="2">0</pdfrwt>
<totfact> 0.15784350E+04</totfact>
</mgrwt>
</event>
<event>
 6    1  0.6377696E-002  0.3000000E+03  0.7818608E-02  0.1093470E+00
         21   -1    0    0  501  502  0.00000000000E+00  0.00000000000E+00  0.29089465719E+01  0.29089465719E+01  0.00000000000E+00 0. -1.
         13   -1    0    0    0    0 -0.00000000000E+00 -0.00000000000E+00 -0.10000000000E+04  0.10000000000E+04  0.00000000000E+00 0.  1.
    9000005    2    1    2  501    0 -0.26355029049E+02  0.46594763693E+02 -0.44341069838E+03  0.44664678254E+03  0.38264032315E+01 0.  0.
         13    1    3    3    0    0 -0.14168845005E+02  0.21419466549E+02 -0.21789428201E+03  0.21940252471E+03  0.00000000000E+00 0.  1.
          3    1    3    3  501    0 -0.12186184044E+02  0.25175297144E+02 -0.22551641637E+03  0.22724425783E+03  0.00000000000E+00 0.  1.
         -3    1    1    2    0  502  0.26355029049E+02 -0.46594763693E+02 -0.55368035505E+03  0.55626216403E+03  0.00000000000E+00 0. -1.
<mgrwt>
<rscale>  1 0.30000000E+03</rscale>
<asrwt>0</asrwt>
<pdfrwt beam="1">  1       21 0.10578010E-01 0.30000000E+03</pdfrwt>
<pdfrwt beam="2">0</pdfrwt>
<totfact> 0.77799238E+03</totfact>
</mgrwt>
</event>
<event>
 6    1  0.6377696E-002  0.3000000E+03  0.7818608E-02  0.1093470E+00
         21   -1    0    0  501  502  0.00000000000E+00  0.00000000000E+00  0.15764813413E+01  0.15764813413E+01  0.00000000000E+00 0. -1.
         13   -1    0    0    0    0 -0.00000000000E+00 -0.00000000000E+00 -0.10000000000E+04  0.10000000000E+04  0.00000000000E+00 0.  1.
    9000005    2    1    2  501    0 -0.36181111853E+02  0.12733575665E+02 -0.37362492505E+03  0.37560164209E+03  0.31292356339E+01 0.  0.
         13    1    3    3    0    0 -0.21596346358E+02  0.60954143698E+01 -0.22382621515E+03  0.22494828481E+03  0.00000000000E+00 0.  1.
          3    1    3    3  501    0 -0.14584765495E+02  0.66381612954E+01 -0.14979870990E+03  0.15065335728E+03  0.00000000000E+00 0.  1.
         -3    1    1    2    0  502  0.36181111853E+02 -0.12733575665E+02 -0.62479859360E+03  0.62597483925E+03  0.00000000000E+00 0. -1.
<mgrwt>
<rscale>  1 0.30000000E+03</rscale>
<asrwt>0</asrwt>
<pdfrwt beam="1">  1       21 0.57326715E-02 0.30000000E+03</pdfrwt>
<pdfrwt beam="2">0</pdfrwt>
<totfact> 0.22793091E+04</totfact>
</mgrwt>
</event>
<event>
 6    1  0.6377696E-002  0.3000000E+03  0.7818608E-02  0.1093470E+00
         21   -1    0    0  501  502  0.00000000000E+00  0.00000000000E+00  0.86424818260E+01  0.86424818260E+01  0.00000000000E+00 0. -1.
         13   -1    0    0    0    0 -0.00000000000E+00 -0.00000000000E+00 -0.10000000000E+04  0.10000000000E+04  0.00000000000E+00 0.  1.
    9000005    2    1    2  501    0 -0.62641777419E+02  0.16700155439E+01 -0.86801703287E+03  0.87029633426E+03  0.59463309425E+01 0.  0.
         13    1    3    3    0    0 -0.22316905642E+02  0.29478815220E+01 -0.28895008852E+03  0.28982561642E+03  0.00000000000E+00 0.  1.
          1    1    3    3  501    0 -0.40324871777E+02 -0.12778659780E+01 -0.57906694435E+03  0.58047071784E+03  0.00000000000E+00 0.  1.
         -3    1    1    2    0  502  0.62641777419E+02 -0.16700155439E+01 -0.12334048531E+03  0.13834614756E+03  0.00000000000E+00 0. -1.
<mgrwt>
<rscale>  1 0.30000000E+03</rscale>
<asrwt>0</asrwt>
<pdfrwt beam="1">  1       21 0.31427273E-01 0.30000000E+03</pdfrwt>
<pdfrwt beam="2">0</pdfrwt>
<totfact> 0.99041641E+02</totfact>
</mgrwt>
</event>
<event>
 6    1  0.6377696E-002  0.3000000E+03  0.7818608E-02  0.1093470E+00
         21   -1    0    0  501  502  0.00000000000E+00  0.00000000000E+00  0.35593389792E+01  0.35593389792E+01  0.00000000000E+00 0. -1.
         13   -1    0    0    0    0 -0.00000000000E+00 -0.00000000000E+00 -0.10000000000E+04  0.10000000000E+04  0.00000000000E+00 0.  1.
    9000005    2    1    2  501    0 -0.49474656467E+02 -0.33106656616E+02 -0.52437786654E+03  0.52775783175E+03  0.35199028116E+01 0.  0.
         13    1    3    3    0    0 -0.47296730987E+02 -0.31786177520E+02 -0.49485286764E+03  0.49812318001E+03  0.00000000000E+00 0.  1.
          3    1    3    3  501    0 -0.21779254800E+01 -0.13204790957E+01 -0.29524998895E+02  0.29634651748E+02  0.00000000000E+00 0.  1.
         -3    1    1    2    0  502  0.49474656467E+02  0.33106656616E+02 -0.47206279448E+03  0.47580150723E+03  0.00000000000E+00 0. -1.
<mgrwt>
<rscale>  1 0.30000000E+03</rscale>
<asrwt>0</asrwt>
<pdfrwt beam="1">  1       21 0.12943078E-01 0.30000000E+03</pdfrwt>
<pdfrwt beam="2">0</pdfrwt>
<totfact> 0.53996146E+03</totfact>
</mgrwt>
</event>
<event>
 6    1  0.6377696E-002  0.3000000E+03  0.7818608E-02  0.1093470E+00
         21   -1    0    0  501  502  0.00000000000E+00  0.00000000000E+00  0.26995015086E+01  0.26995015086E+01  0.00000000000E+00 0. -1.
         13   -1    0    0    0    0 -0.00000000000E+00 -0.00000000000E+00 -0.10000000000E+04  0.10000000000E+04  0.00000000000E+00 0.  1.
    9000005    2    1    2  501    0 -0.50828410499E+02  0.86277199057E+01 -0.55738432520E+03  0.55977264029E+03  0.31871578652E+01 0.  0.
         13    1    3    3    0    0 -0.38136785401E+02  0.66796574440E+01 -0.40326584307E+03  0.40512019502E+03  0.00000000000E+00 0.  1.
          1    1    3    3  501    0 -0.12691625098E+02  0.19480624617E+01 -0.15411848212E+03  0.15465244527E+03  0.00000000000E+00 0.  1.
         -3    1    1    2    0  502  0.50828410499E+02 -0.86277199057E+01 -0.43991617330E+03  0.44292686122E+03  0.00000000000E+00 0. -1.
<mgrwt>
<rscale>  1 0.30000000E+03</rscale>
<asrwt>0</asrwt>
<pdfrwt beam="1">  1       21 0.98163898E-02 0.30000000E+03</pdfrwt>
<pdfrwt beam="2">0</pdfrwt>
<totfact> 0.88926866E+03</totfact>
</mgrwt>
</event>
<event>
 6    1  0.6377696E-002  0.3000000E+03  0.7818608E-02  0.1093470E+00
         21   -1    0    0  501  502  0.00000000000E+00  0.00000000000E+00  0.16163170275E+01  0.16163170275E+01  0.00000000000E+00 0. -1.
         13   -1    0    0    0    0 -0.00000000000E+00 -0.00000000000E+00 -0.10000000000E+04  0.10000000000E+04  0.00000000000E+00 0.  1.
    9000005    2    1    2  501    0  0.34738309198E+02  0.19821960694E+01 -0.74924562656E+03  0.75006025890E+03  0.32716717505E+01 0.  0.
         13    1    3    3    0    0  0.58200024913E+01 -0.58769626514E+00 -0.10929801275E+03  0.10945443530E+03  0.00000000000E+00 0.  1.
          3    1    3    3  501    0  0.28918306707E+02  0.25698923346E+01 -0.63994761381E+03  0.64060582360E+03  0.00000000000E+00 0.  1.
         -3    1    1    2    0  502 -0.34738309198E+02 -0.19821960694E+01 -0.24913805641E+03  0.25155605812E+03  0.00000000000E+00 0. -1.
<mgrwt>
<rscale>  1 0.30000000E+03</rscale>
<asrwt>0</asrwt>
<pdfrwt beam="1">  1       21 0.58775289E-02 0.30000000E+03</pdfrwt>
<pdfrwt beam="2">0</pdfrwt>
<totfact> 0.21834311E+04</totfact>
</mgrwt>
</event>
<event>
 6    1  0.6377696E-002  0.3000000E+03  0.7818608E-02  0.1093470E+00
         21   -1    0    0  501  502  0.00000000000E+00  0.00000000000E+00  0.11159011109E+01  0.11159011109E+01  0.00000000000E+00 0. -1.
         13   -1    0    0    0    0 -0.00000000000E+00 -0.00000000000E+00 -0.10000000000E+04  0.10000000000E+04  0.00000000000E+00 0.  1.
    9000005    2    1    2  501    0  0.12219751333E+02  0.30483169618E+02 -0.58701217838E+03  0.58793673313E+03  0.27854335630E+01 0.  0.
         13    1    3    3    0    0  0.21328115215E+01  0.69757210105E+01 -0.14858323009E+03  0.14876217877E+03  0.00000000000E+00 0.  1.
          3    1    3    3  501    0  0.10086939812E+02  0.23507448608E+02 -0.43842894830E+03  0.43917455436E+03  0.00000000000E+00 0.  1.
         -1    1    1    2    0  502 -0.12219751333E+02 -0.30483169618E+02 -0.41187192050E+03  0.41317916798E+03  0.00000000000E+00 0. -1.
<mgrwt>
<rscale>  1 0.30000000E+03</rscale>
<asrwt>0</asrwt>
<pdfrwt beam="1">  1       21 0.40578308E-02 0.30000000E+03</pdfrwt>
<pdfrwt beam="2">0</pdfrwt>
<totfact> 0.41042738E+04</totfact>
</mgrwt>
</event>
<event>
 6    1  0.6377696E-002  0.3000000E+03  0.7818608E-02  0.1093470E+00
         21   -1    0    0  501  502  0.00000000000E+00  0.00000000000E+00  0.13038798582E+01  0.13038798582E+01  0.00000000000E+00 0. -1.
         13   -1    0    0    0    0 -0.00000000000E+00 -0.00000000000E+00 -0.10000000000E+04  0.10000000000E+04  0.00000000000E+00 0.  1.
    9000005    2    1    2  501    0  0.32696692049E+02  0.13501030867E+02 -0.58224687535E+03  0.58335492963E+03  0.63402341120E+01 0.  0.
         13    1    3    3    0    0  0.12789614028E+01  0.21528677953E+01 -0.47061589078E+02  0.47128163009E+02  0.00000000000E+00 0.  1.
          1    1    3    3  501    0  0.31417730646E+02  0.11348163071E+02 -0.53518528627E+03  0.53622676662E+03  0.00000000000E+00 0.  1.
         -1    1    1    2    0  502 -0.32696692049E+02 -0.13501030867E+02 -0.41644924479E+03  0.41794895023E+03  0.00000000000E+00 0. -1.
<mgrwt>
<rscale>  1 0.30000000E+03</rscale>
<asrwt>0</asrwt>
<pdfrwt beam="1">  1       21 0.47413913E-02 0.30000000E+03</pdfrwt>
<pdfrwt beam="2">0</pdfrwt>
<totfact> 0.31530683E+04</totfact>
</mgrwt>
</event>
<event>
 6    1  0.6377696E-002  0.3000000E+03  0.7818608E-02  0.1093470E+00
         21   -1    0    0  501  502  0.00000000000E+00  0.00000000000E+00  0.25336758965E+01  0.25336758965E+01  0.00000000000E+00 0. -1.
         13   -1    0    0    0    0 -0.00000000000E+00 -0.00000000000E+00 -0.10000000000E+04  0.10000000000E+04  0.00000000000E+00 0.  1.
    9000005    2    1    2  501    0 -0.14525557301E+02 -0.47135653410E+02 -0.40156908776E+03  0.40459866445E+03  0.30960279979E+01 0.  0.
         13    1    3    3    0    0 -0.12908605902E+02 -0.43641334359E+02 -0.36450465435E+03  0.36733478084E+03  0.00000000000E+00 0.  1.
          1    1    3    3  501    0 -0.16169513991E+01 -0.34943190508E+01 -0.37064433413E+02  0.37263883610E+02  0.00000000000E+00 0.  1.
         -1    1    1    2    0  502  0.14525557301E+02  0.47135653410E+02 -0.59589723634E+03  0.59793501145E+03  0.00000000000E+00 0. -1.
<mgrwt>
<rscale>  1 0.30000000E+03</rscale>
<asrwt>0</asrwt>
<pdfrwt beam="1">  1       21 0.92133863E-02 0.30000000E+03</pdfrwt>
<pdfrwt beam="2">0</pdfrwt>
<totfact> 0.99556076E+03</totfact>
</mgrwt>
</event>
<event>
 6    1  0.6377696E-002  0.3000000E+03  0.7818608E-02  0.1093470E+00
         21   -1    0    0  501  502  0.00000000000E+00  0.00000000000E+00  0.13376015457E+01  0.13376015457E+01  0.00000000000E+00 0. -1.
         13   -1    0    0    0    0 -0.00000000000E+00 -0.00000000000E+00 -0.10000000000E+04  0.10000000000E+04  0.00000000000E+00 0.  1.
    9000005    2    1    2  501    0 -0.19629725296E+02 -0.26457866773E+02 -0.71489493205E+03  0.71566415192E+03  0.38819645546E+01 0.  0.
         13    1    3    3    0    0 -0.15107312448E+02 -0.22565804966E+02 -0.57032853088E+03  0.57097467508E+03  0.00000000000E+00 0.  1.
          1    1    3    3  501    0 -0.45224128481E+01 -0.38920618061E+01 -0.14456640116E+03  0.14468947684E+03  0.00000000000E+00 0.  1.
         -3    1    1    2    0  502  0.19629725296E+02  0.26457866773E+02 -0.28376746641E+03  0.28567344963E+03  0.00000000000E+00 0. -1.
<mgrwt>
<rscale>  1 0.30000000E+03</rscale>
<asrwt>0</asrwt>
<pdfrwt beam="1">  1       21 0.48640159E-02 0.30000000E+03</pdfrwt>
<pdfrwt beam="2">0</pdfrwt>
<totfact> 0.30190026E+04</totfact>
</mgrwt>
</event>
<event>
 6    1  0.6377696E-002  0.3000000E+03  0.7818608E-02  0.1093470E+00
         21   -1    0    0  501  502  0.00000000000E+00  0.00000000000E+00  0.28394401265E+01  0.28394401265E+01  0.00000000000E+00 0. -1.
         13   -1    0    0    0    0 -0.00000000000E+00 -0.00000000000E+00 -0.10000000000E+04  0.10000000000E+04  0.00000000000E+00 0.  1.
    9000005    2    1    2  501    0  0.28974098456E+01 -0.53159958451E+02 -0.49020063162E+03  0.49309171328E+03  0.28986725083E+01 0.  0.
         13    1    3    3    0    0  0.28863451805E+00 -0.61706843653E+01 -0.66026055801E+02  0.66314407937E+02  0.00000000000E+00 0.  1.
          1    1    3    3  501    0  0.26087753276E+01 -0.46989274085E+02 -0.42417457581E+03  0.42677730534E+03  0.00000000000E+00 0.  1.
         -1    1    1    2    0  502 -0.28974098456E+01  0.53159958451E+02 -0.50695992826E+03  0.50974772685E+03  0.00000000000E+00 0. -1.
<mgrwt>
<rscale>  1 0.30000000E+03</rscale>
<asrwt>0</asrwt>
<pdfrwt beam="1">  1       21 0.10325259E-01 0.30000000E+03</pdfrwt>
<pdfrwt beam="2">0</pdfrwt>
<totfact> 0.81244975E+03</totfact>
</mgrwt>
</event>
<event>
 6    1  0.6377696E-002  0.3000000E+03  0.7818608E-02  0.1093470E+00
         21   -1    0    0  501  502  0.00000000000E+00  0.00000000000E+00  0.12981683351E+01  0.12981683351E+01  0.00000000000E+00 0. -1.
         13   -1    0    0    0    0 -0.00000000000E+00 -0.00000000000E+00 -0.10000000000E+04  0.10000000000E+04  0.00000000000E+00 0.  1.
    9000005    2    1    2  501    0 -0.32739275293E+02 -0.76181601154E+01 -0.67776620250E+03  0.67860702409E+03  0.32513651545E+01 0.  0.
         13    1    3    3    0    0 -0.57149925192E+01 -0.30872934890E+00 -0.12990035991E+03  0.13002638178E+03  0.00000000000E+00 0.  1.
          3    1    3    3  501    0 -0.27024282774E+02 -0.73094307665E+01 -0.54786584259E+03  0.54858064230E+03  0.00000000000E+00 0.  1.
         -3    1    1    2    0  502  0.32739275293E+02  0.76181601154E+01 -0.32093562916E+03  0.32269114425E+03  0.00000000000E+00 0. -1.
<mgrwt>
<rscale>  1 0.30000000E+03</rscale>
<asrwt>0</asrwt>
<pdfrwt beam="1">  1       21 0.47206221E-02 0.30000000E+03</pdfrwt>
<pdfrwt beam="2">0</pdfrwt>
<totfact> 0.31766967E+04</totfact>
</mgrwt>
</event>
<event>
 6    1  0.6377696E-002  0.3000000E+03  0.7818608E-02  0.1093470E+00
         21   -1    0    0  501  502  0.00000000000E+00  0.00000000000E+00  0.17872967590E+01  0.17872967590E+01  0.00000000000E+00 0. -1.
         13   -1    0    0    0    0 -0.00000000000E+00 -0.00000000000E+00 -0.10000000000E+04  0.10000000000E+04  0.00000000000E+00 0.  1.
    9000005    2    1    2  501    0  0.51778809514E+01 -0.41776929030E+02 -0.53926798725E+03  0.54091597569E+03  0.28299170960E+01 0.  0.
         13    1    3    3    0    0  0.22347591566E+01 -0.28556693498E+02 -0.36277440912E+03  0.36390349106E+03  0.00000000000E+00 0.  1.
          1    1    3    3  501    0  0.29431217947E+01 -0.13220235532E+02 -0.17649357813E+03  0.17701248463E+03  0.00000000000E+00 0.  1.
         -3    1    1    2    0  502 -0.51778809514E+01  0.41776929030E+02 -0.45894471599E+03  0.46087132107E+03  0.00000000000E+00 0. -1.
<mgrwt>
<rscale>  1 0.30000000E+03</rscale>
<asrwt>0</asrwt>
<pdfrwt beam="1">  1       21 0.64992746E-02 0.30000000E+03</pdfrwt>
<pdfrwt beam="2">0</pdfrwt>
<totfact> 0.18353591E+04</totfact>
</mgrwt>
</event>
<event>
 6    1  0.6377696E-002  0.3000000E+03  0.7818608E-02  0.1093470E+00
         21   -1    0    0  501  502  0.00000000000E+00  0.00000000000E+00  0.10222033323E+01  0.10222033323E+01  0.00000000000E+00 0. -1.
         13   -1    0    0    0    0 -0.00000000000E+00 -0.00000000000E+00 -0.10000000000E+04  0.10000000000E+04  0.00000000000E+00 0.  1.
    9000005    2    1    2  501    0 -0.19081962988E+01 -0.30861109516E+02 -0.62200529827E+03  0.62278376816E+03  0.36029867441E+01 0.  0.
         13    1    3    3    0    0 -0.13333767148E+01 -0.11491071136E+02 -0.20083491022E+03  0.20116780004E+03  0.00000000000E+00 0.  1.
          3    1    3    3  501    0 -0.57481958404E+00 -0.19370038380E+02 -0.42117038805E+03  0.42161596812E+03  0.00000000000E+00 0.  1.
         -3    1    1    2    0  502  0.19081962988E+01  0.30861109516E+02 -0.37697249840E+03  0.37823843517E+03  0.00000000000E+00 0. -1.
<mgrwt>
<rscale>  1 0.30000000E+03</rscale>
<asrwt>0</asrwt>
<pdfrwt beam="1">  1       21 0.37171109E-02 0.30000000E+03</pdfrwt>
<pdfrwt beam="2">0</pdfrwt>
<totfact> 0.47565618E+04</totfact>
</mgrwt>
</event>
<event>
 6    1  0.6377696E-002  0.3000000E+03  0.7818608E-02  0.1093470E+00
         21   -1    0    0  501  502  0.00000000000E+00  0.00000000000E+00  0.13260425734E+01  0.13260425734E+01  0.00000000000E+00 0. -1.
         13   -1    0    0    0    0 -0.00000000000E+00 -0.00000000000E+00 -0.10000000000E+04  0.10000000000E+04  0.00000000000E+00 0.  1.
    9000005    2    1    2  501    0 -0.33515203876E+02 -0.89842918257E+01 -0.64982199960E+03  0.65075269095E+03  0.25391379222E+01 0.  0.
         13    1    3    3    0    0 -0.30230198457E+02 -0.73061050558E+01 -0.57880013495E+03  0.57963509235E+03  0.00000000000E+00 0.  1.
          3    1    3    3  501    0 -0.32850054187E+01 -0.16781867698E+01 -0.71021864652E+02  0.71117598596E+02  0.00000000000E+00 0.  1.
         -3    1    1    2    0  502  0.33515203876E+02  0.89842918257E+01 -0.34885195782E+03  0.35057335162E+03  0.00000000000E+00 0. -1.
<mgrwt>
<rscale>  1 0.30000000E+03</rscale>
<asrwt>0</asrwt>
<pdfrwt beam="1">  1       21 0.48219832E-02 0.30000000E+03</pdfrwt>
<pdfrwt beam="2">0</pdfrwt>
<totfact> 0.30639362E+04</totfact>
</mgrwt>
</event>
<event>
 6    1  0.6377696E-002  0.3000000E+03  0.7818608E-02  0.1093470E+00
         21   -1    0    0  501  502  0.00000000000E+00  0.00000000000E+00  0.17457790424E+01  0.17457790424E+01  0.00000000000E+00 0. -1.
         13   -1    0    0    0    0 -0.00000000000E+00 -0.00000000000E+00 -0.10000000000E+04  0.10000000000E+04  0.00000000000E+00 0.  1.
    9000005    2    1    2  501    0  0.11580867196E+02 -0.29545911080E+02 -0.17505580991E+03  0.17793590941E+03  0.30941766393E+01 0.  0.
         13    1    3    3    0    0  0.93138309967E+01 -0.25278749556E+02 -0.15339431913E+03  0.15574202955E+03  0.00000000000E+00 0.  1.
          3    1    3    3  501    0  0.22670361991E+01 -0.42671615237E+01 -0.21661490783E+02  0.22193879867E+02  0.00000000000E+00 0.  1.
         -1    1    1    2    0  502 -0.11580867196E+02  0.29545911080E+02 -0.82319841105E+03  0.82380986963E+03  0.00000000000E+00 0. -1.
<mgrwt>
<rscale>  1 0.30000000E+03</rscale>
<asrwt>0</asrwt>
<pdfrwt beam="1">  1       21 0.63483008E-02 0.30000000E+03</pdfrwt>
<pdfrwt beam="2">0</pdfrwt>
<totfact> 0.19115346E+04</totfact>
</mgrwt>
</event>
<event>
 6    1  0.6377696E-002  0.3000000E+03  0.7818608E-02  0.1093470E+00
         21   -1    0    0  501  502  0.00000000000E+00  0.00000000000E+00  0.53854456098E+01  0.53854456098E+01  0.00000000000E+00 0. -1.
         13   -1    0    0    0    0 -0.00000000000E+00 -0.00000000000E+00 -0.10000000000E+04  0.10000000000E+04  0.00000000000E+00 0.  1.
    9000005    2    1    2  501    0  0.35425646712E+02  0.53878110708E+02 -0.73700168639E+03  0.73982525089E+03  0.34769037483E+01 0.  0.
         13    1    3    3    0    0  0.10637370360E+02  0.13391817400E+02 -0.19414062051E+03  0.19489247024E+03  0.00000000000E+00 0.  1.
          3    1    3    3  501    0  0.24788276353E+02  0.40486293307E+02 -0.54286106587E+03  0.54493278065E+03  0.00000000000E+00 0.  1.
         -3    1    1    2    0  502 -0.35425646712E+02 -0.53878110708E+02 -0.25761286800E+03  0.26556019472E+03  0.00000000000E+00 0. -1.
<mgrwt>
<rscale>  1 0.30000000E+03</rscale>
<asrwt>0</asrwt>
<pdfrwt beam="1">  1       21 0.19583480E-01 0.30000000E+03</pdfrwt>
<pdfrwt beam="2">0</pdfrwt>
<totfact> 0.24974216E+03</totfact>
</mgrwt>
</event>
<event>
 6    1  0.6377696E-002  0.3000000E+03  0.7818608E-02  0.1093470E+00
         21   -1    0    0  501  502  0.00000000000E+00  0.00000000000E+00  0.10692044770E+01  0.10692044770E+01  0.00000000000E+00 0. -1.
         13   -1    0    0    0    0 -0.00000000000E+00 -0.00000000000E+00 -0.10000000000E+04  0.10000000000E+04  0.00000000000E+00 0.  1.
    9000005    2    1    2  501    0 -0.43659902358E+01 -0.30857649087E+02 -0.64394827232E+03  0.64472127316E+03  0.49886127106E+01 0.  0.
         13    1    3    3    0    0 -0.21806879629E+01 -0.37792087629E+01 -0.79548905535E+02  0.79668476769E+02  0.00000000000E+00 0.  1.
          1    1    3    3  501    0 -0.21853022729E+01 -0.27078440324E+02 -0.56439936679E+03  0.56505279639E+03  0.00000000000E+00 0.  1.
         -1    1    1    2    0  502  0.43659902358E+01  0.30857649087E+02 -0.35498252320E+03  0.35634793132E+03  0.00000000000E+00 0. -1.
<mgrwt>
<rscale>  1 0.30000000E+03</rscale>
<asrwt>0</asrwt>
<pdfrwt beam="1">  1       21 0.38880245E-02 0.30000000E+03</pdfrwt>
<pdfrwt beam="2">0</pdfrwt>
<totfact> 0.44105209E+04</totfact>
</mgrwt>
</event>
<event>
 6    1  0.6377696E-002  0.3000000E+03  0.7818608E-02  0.1093470E+00
         21   -1    0    0  501  502  0.00000000000E+00  0.00000000000E+00  0.13558185426E+01  0.13558185426E+01  0.00000000000E+00 0. -1.
         13   -1    0    0    0    0 -0.00000000000E+00 -0.00000000000E+00 -0.10000000000E+04  0.10000000000E+04  0.00000000000E+00 0.  1.
    9000005    2    1    2  501    0  0.36484272929E+02  0.22423896559E+01 -0.46168933472E+03  0.46315823594E+03  0.47306705776E+01 0.  0.
         13    1    3    3    0    0  0.33906624936E+02  0.20479561275E+01 -0.41019772778E+03  0.41160178476E+03  0.00000000000E+00 0.  1.
          3    1    3    3  501    0  0.25776479926E+01  0.19443352839E+00 -0.51491606936E+02  0.51556451181E+02  0.00000000000E+00 0.  1.
         -1    1    1    2    0  502 -0.36484272929E+02 -0.22423896559E+01 -0.53695484674E+03  0.53819758260E+03  0.00000000000E+00 0. -1.
<mgrwt>
<rscale>  1 0.30000000E+03</rscale>
<asrwt>0</asrwt>
<pdfrwt beam="1">  1       21 0.49302596E-02 0.30000000E+03</pdfrwt>
<pdfrwt beam="2">0</pdfrwt>
<totfact> 0.29502467E+04</totfact>
</mgrwt>
</event>
<event>
 6    1  0.6377696E-002  0.3000000E+03  0.7818608E-02  0.1093470E+00
         21   -1    0    0  501  502  0.00000000000E+00  0.00000000000E+00  0.30680403980E+01  0.30680403980E+01  0.00000000000E+00 0. -1.
         13   -1    0    0    0    0 -0.00000000000E+00 -0.00000000000E+00 -0.10000000000E+04  0.10000000000E+04  0.00000000000E+00 0.  1.
    9000005    2    1    2  501    0 -0.30471236238E+02  0.37047448616E+02 -0.74878233419E+03  0.75032460076E+03  0.33185579824E+01 0.  0.
         13    1    3    3    0    0 -0.18144285170E+01  0.36487529279E+01 -0.62328140954E+02  0.62461209591E+02  0.00000000000E+00 0.  1.
          1    1    3    3  501    0 -0.28656807721E+02  0.33398695688E+02 -0.68645419324E+03  0.68786339117E+03  0.00000000000E+00 0.  1.
         -1    1    1    2    0  502  0.30471236238E+02 -0.37047448616E+02 -0.24814962541E+03  0.25274343964E+03  0.00000000000E+00 0. -1.
<mgrwt>
<rscale>  1 0.30000000E+03</rscale>
<asrwt>0</asrwt>
<pdfrwt beam="1">  1       21 0.11156534E-01 0.30000000E+03</pdfrwt>
<pdfrwt beam="2">0</pdfrwt>
<totfact> 0.70698759E+03</totfact>
</mgrwt>
</event>
<event>
 6    1  0.6377696E-002  0.3000000E+03  0.7818608E-02  0.1093470E+00
         21   -1    0    0  501  502  0.00000000000E+00  0.00000000000E+00  0.32349217248E+01  0.32349217248E+01  0.00000000000E+00 0. -1.
         13   -1    0    0    0    0 -0.00000000000E+00 -0.00000000000E+00 -0.10000000000E+04  0.10000000000E+04  0.00000000000E+00 0.  1.
    9000005    2    1    2  501    0 -0.34722888220E+02 -0.21250787741E+02 -0.14926137253E+03  0.15475404027E+03  0.35469287782E+01 0.  0.
         13    1    3    3    0    0 -0.16077345694E+02 -0.11848745735E+02 -0.74690492647E+02  0.77314575029E+02  0.00000000000E+00 0.  1.
          1    1    3    3  501    0 -0.18645542526E+02 -0.94020420064E+01 -0.74570879882E+02  0.77439465238E+02  0.00000000000E+00 0.  1.
         -1    1    1    2    0  502  0.34722888220E+02  0.21250787741E+02 -0.84750370575E+03  0.84848088146E+03  0.00000000000E+00 0. -1.
<mgrwt>
<rscale>  1 0.30000000E+03</rscale>
<asrwt>0</asrwt>
<pdfrwt beam="1">  1       21 0.11763377E-01 0.30000000E+03</pdfrwt>
<pdfrwt beam="2">0</pdfrwt>
<totfact> 0.64249511E+03</totfact>
</mgrwt>
</event>
<event>
 6    1  0.6377696E-002  0.3000000E+03  0.7818608E-02  0.1093470E+00
         21   -1    0    0  501  502  0.00000000000E+00  0.00000000000E+00  0.11608855369E+01  0.11608855369E+01  0.00000000000E+00 0. -1.
         13   -1    0    0    0    0 -0.00000000000E+00 -0.00000000000E+00 -0.10000000000E+04  0.10000000000E+04  0.00000000000E+00 0.  1.
    9000005    2    1    2  501    0 -0.23297514977E+02  0.22169458654E+02 -0.66155021020E+03  0.66234225553E+03  0.37846721332E+01 0.  0.
         13    1    3    3    0    0 -0.22124094549E+02  0.19898610416E+02 -0.61979365234E+03  0.62050753560E+03  0.00000000000E+00 0.  1.
          1    1    3    3  501    0 -0.11734204272E+01  0.22708482375E+01 -0.41756557858E+02  0.41834719927E+02  0.00000000000E+00 0.  1.
         -1    1    1    2    0  502  0.23297514977E+02 -0.22169458654E+02 -0.33728890426E+03  0.33881863001E+03  0.00000000000E+00 0. -1.
<mgrwt>
<rscale>  1 0.30000000E+03</rscale>
<asrwt>0</asrwt>
<pdfrwt beam="1">  1       21 0.42214109E-02 0.30000000E+03</pdfrwt>
<pdfrwt beam="2">0</pdfrwt>
<totfact> 0.38395305E+04</totfact>
</mgrwt>
</event>
<event>
 6    1  0.6377696E-002  0.3000000E+03  0.7818608E-02  0.1093470E+00
         21   -1    0    0  501  502  0.00000000000E+00  0.00000000000E+00  0.22930348862E+01  0.22930348862E+01  0.00000000000E+00 0. -1.
         13   -1    0    0    0    0 -0.00000000000E+00 -0.00000000000E+00 -0.10000000000E+04  0.10000000000E+04  0.00000000000E+00 0.  1.
    9000005    2    1    2  501    0 -0.32031818031E+02 -0.26832641234E+02 -0.25622185677E+03  0.25963147408E+03  0.35825193389E+01 0.  0.
         13    1    3    3    0    0 -0.42992446508E+01 -0.42575208230E+01 -0.44814106859E+02  0.45220727125E+02  0.00000000000E+00 0.  1.
          3    1    3    3  501    0 -0.27732573380E+02 -0.22575120411E+02 -0.21140774991E+03  0.21441074695E+03  0.00000000000E+00 0.  1.
         -1    1    1    2    0  502  0.32031818031E+02  0.26832641234E+02 -0.74148510835E+03  0.74266156081E+03  0.00000000000E+00 0. -1.
<mgrwt>
<rscale>  1 0.30000000E+03</rscale>
<asrwt>0</asrwt>
<pdfrwt beam="1">  1       21 0.83383263E-02 0.30000000E+03</pdfrwt>
<pdfrwt beam="2">0</pdfrwt>
<totfact> 0.11876436E+04</totfact>
</mgrwt>
</event>
<event>
 6    1  0.6377696E-002  0.3000000E+03  0.7818608E-02  0.1093470E+00
         21   -1    0    0  501  502  0.00000000000E+00  0.00000000000E+00  0.17186823365E+01  0.17186823365E+01  0.00000000000E+00 0. -1.
         13   -1    0    0    0    0 -0.00000000000E+00 -0.00000000000E+00 -0.10000000000E+04  0.10000000000E+04  0.00000000000E+00 0.  1.
    9000005    2    1    2  501    0 -0.29114072233E+02  0.13198400106E+02 -0.81454053137E+03  0.81521800268E+03  0.90712551228E+01 0.  0.
         13    1    3    3    0    0 -0.15564888310E+02  0.63951940067E+01 -0.31677999275E+03  0.31722661941E+03  0.00000000000E+00 0.  1.
          3    1    3    3  501    0 -0.13549183923E+02  0.68032060995E+01 -0.49776053862E+03  0.49799138327E+03  0.00000000000E+00 0.  1.
         -3    1    1    2    0  502  0.29114072233E+02 -0.13198400106E+02 -0.18374078629E+03  0.18650067966E+03  0.00000000000E+00 0. -1.
<mgrwt>
<rscale>  1 0.30000000E+03</rscale>
<asrwt>0</asrwt>
<pdfrwt beam="1">  1       21 0.62497671E-02 0.30000000E+03</pdfrwt>
<pdfrwt beam="2">0</pdfrwt>
<totfact> 0.19639231E+04</totfact>
</mgrwt>
</event>
<event>
 6    1  0.6377696E-002  0.3000000E+03  0.7818608E-02  0.1093470E+00
         21   -1    0    0  501  502  0.00000000000E+00  0.00000000000E+00  0.21076891800E+01  0.21076891800E+01  0.00000000000E+00 0. -1.
         13   -1    0    0    0    0 -0.00000000000E+00 -0.00000000000E+00 -0.10000000000E+04  0.10000000000E+04  0.00000000000E+00 0.  1.
    9000005    2    1    2  501    0  0.20880004885E+01 -0.45495170337E+02 -0.44670873054E+03  0.44904574922E+03  0.43845952302E+01 0.  0.
         13    1    3    3    0    0 -0.30027018862E+00 -0.17235604325E+02 -0.18716186438E+03  0.18795403613E+03  0.00000000000E+00 0.  1.
          1    1    3    3  501    0  0.23882706771E+01 -0.28259566012E+02 -0.25954686617E+03  0.26109171309E+03  0.00000000000E+00 0.  1.
         -1    1    1    2    0  502 -0.20880004885E+01  0.45495170337E+02 -0.55118358028E+03  0.55306193996E+03  0.00000000000E+00 0. -1.
<mgrwt>
<rscale>  1 0.30000000E+03</rscale>
<asrwt>0</asrwt>
<pdfrwt beam="1">  1       21 0.76643405E-02 0.30000000E+03</pdfrwt>
<pdfrwt beam="2">0</pdfrwt>
<totfact> 0.13771520E+04</totfact>
</mgrwt>
</event>
<event>
 6    1  0.6377696E-002  0.3000000E+03  0.7818608E-02  0.1093470E+00
         21   -1    0    0  501  502  0.00000000000E+00  0.00000000000E+00  0.79665259957E+01  0.79665259957E+01  0.00000000000E+00 0. -1.
         13   -1    0    0    0    0 -0.00000000000E+00 -0.00000000000E+00 -0.10000000000E+04  0.10000000000E+04  0.00000000000E+00 0.  1.
    9000005    2    1    2  501    0 -0.39423152437E+02 -0.67096291265E+02 -0.24963584483E+03  0.26150129770E+03  0.29625032896E+01 0.  0.
         13    1    3    3    0    0 -0.22504267837E+02 -0.41122152719E+02 -0.15109305147E+03  0.15819792577E+03  0.00000000000E+00 0.  1.
          1    1    3    3  501    0 -0.16918884600E+02 -0.25974138546E+02 -0.98542793363E+02  0.10330337193E+03  0.00000000000E+00 0.  1.
         -3    1    1    2    0  502  0.39423152437E+02  0.67096291265E+02 -0.74239762917E+03  0.74646522829E+03  0.00000000000E+00 0. -1.
<mgrwt>
<rscale>  1 0.30000000E+03</rscale>
<asrwt>0</asrwt>
<pdfrwt beam="1">  1       21 0.28969247E-01 0.30000000E+03</pdfrwt>
<pdfrwt beam="2">0</pdfrwt>
<totfact> 0.11658498E+03</totfact>
</mgrwt>
</event>
<event>
 6    1  0.6377696E-002  0.3000000E+03  0.7818608E-02  0.1093470E+00
         21   -1    0    0  501  502  0.00000000000E+00  0.00000000000E+00  0.13190692765E+01  0.13190692765E+01  0.00000000000E+00 0. -1.
         13   -1    0    0    0    0 -0.00000000000E+00 -0.00000000000E+00 -0.10000000000E+04  0.10000000000E+04  0.00000000000E+00 0.  1.
    9000005    2    1    2  501    0  0.11221192168E+02  0.32618584989E+02 -0.65355833339E+03  0.65447689417E+03  0.34091967309E+01 0.  0.
         13    1    3    3    0    0  0.53200711692E+01  0.19225853144E+02 -0.39861142165E+03  0.39911026303E+03  0.00000000000E+00 0.  1.
          1    1    3    3  501    0  0.59011209987E+01  0.13392731844E+02 -0.25494691174E+03  0.25536663114E+03  0.00000000000E+00 0.  1.
         -3    1    1    2    0  502 -0.11221192168E+02 -0.32618584989E+02 -0.34512259733E+03  0.34684217510E+03  0.00000000000E+00 0. -1.
<mgrwt>
<rscale>  1 0.30000000E+03</rscale>
<asrwt>0</asrwt>
<pdfrwt beam="1">  1       21 0.47966257E-02 0.30000000E+03</pdfrwt>
<pdfrwt beam="2">0</pdfrwt>
<totfact> 0.30915513E+04</totfact>
</mgrwt>
</event>
<event>
 6    1  0.6377696E-002  0.3000000E+03  0.7818608E-02  0.1093470E+00
         21   -1    0    0  501  502  0.00000000000E+00  0.00000000000E+00  0.93316261379E+00  0.93316261379E+00  0.00000000000E+00 0. -1.
         13   -1    0    0    0    0 -0.00000000000E+00 -0.00000000000E+00 -0.10000000000E+04  0.10000000000E+04  0.00000000000E+00 0.  1.
    9000005    2    1    2  501    0 -0.22161518660E+02  0.20401317183E+02 -0.57442536003E+03  0.57522465795E+03  0.34009139245E+01 0.  0.
         13    1    3    3    0    0 -0.18576001318E+02  0.17635322505E+02 -0.46393090757E+03  0.46463744944E+03  0.00000000000E+00 0.  1.
          1    1    3    3  501    0 -0.35855173419E+01  0.27659946780E+01 -0.11049445246E+03  0.11058720851E+03  0.00000000000E+00 0.  1.
         -3    1    1    2    0  502  0.22161518660E+02 -0.20401317183E+02 -0.42464147736E+03  0.42570850467E+03  0.00000000000E+00 0. -1.
<mgrwt>
<rscale>  1 0.30000000E+03</rscale>
<asrwt>0</asrwt>
<pdfrwt beam="1">  1       21 0.33933258E-02 0.30000000E+03</pdfrwt>
<pdfrwt beam="2">0</pdfrwt>
<totfact> 0.55412666E+04</totfact>
</mgrwt>
</event>
<event>
 6    1  0.6377696E-002  0.3000000E+03  0.7818608E-02  0.1093470E+00
         21   -1    0    0  501  502  0.00000000000E+00  0.00000000000E+00  0.23742195103E+01  0.23742195103E+01  0.00000000000E+00 0. -1.
         13   -1    0    0    0    0 -0.00000000000E+00 -0.00000000000E+00 -0.10000000000E+04  0.10000000000E+04  0.00000000000E+00 0.  1.
    9000005    2    1    2  501    0 -0.19428143788E+02  0.44030790876E+02 -0.42457847320E+03  0.42730954514E+03  0.32255460056E+01 0.  0.
         13    1    3    3    0    0 -0.18802207507E+02  0.40789859810E+02 -0.39234247155E+03  0.39490498940E+03  0.00000000000E+00 0.  1.
          3    1    3    3  501    0 -0.62593628123E+00  0.32409310664E+01 -0.32236001656E+02  0.32404555747E+02  0.00000000000E+00 0.  1.
         -3    1    1    2    0  502  0.19428143788E+02 -0.44030790876E+02 -0.57304730729E+03  0.57506467437E+03  0.00000000000E+00 0. -1.
<mgrwt>
<rscale>  1 0.30000000E+03</rscale>
<asrwt>0</asrwt>
<pdfrwt beam="1">  1       21 0.86335437E-02 0.30000000E+03</pdfrwt>
<pdfrwt beam="2">0</pdfrwt>
<totfact> 0.11169773E+04</totfact>
</mgrwt>
</event>
<event>
 6    1  0.6377696E-002  0.3000000E+03  0.7818608E-02  0.1093470E+00
         21   -1    0    0  501  502  0.00000000000E+00  0.00000000000E+00  0.12322516054E+01  0.12322516054E+01  0.00000000000E+00 0. -1.
         13   -1    0    0    0    0 -0.00000000000E+00 -0.00000000000E+00 -0.10000000000E+04  0.10000000000E+04  0.00000000000E+00 0.  1.
    9000005    2    1    2  501    0 -0.10009069006E+02 -0.29494751385E+02 -0.72879927940E+03  0.72947299036E+03  0.35117215875E+01 0.  0.
         13    1    3    3    0    0 -0.51984424684E+01 -0.20437104456E+02 -0.49195273510E+03  0.49240450101E+03  0.00000000000E+00 0.  1.
          3    1    3    3  501    0 -0.48106265372E+01 -0.90576469298E+01 -0.23684654430E+03  0.23706848935E+03  0.00000000000E+00 0.  1.
         -3    1    1    2    0  502  0.10009069006E+02  0.29494751385E+02 -0.26996846900E+03  0.27175926125E+03  0.00000000000E+00 0. -1.
<mgrwt>
<rscale>  1 0.30000000E+03</rscale>
<asrwt>0</asrwt>
<pdfrwt beam="1">  1       21 0.44809244E-02 0.30000000E+03</pdfrwt>
<pdfrwt beam="2">0</pdfrwt>
<totfact> 0.34707436E+04</totfact>
</mgrwt>
</event>
<event>
 6    1  0.6377696E-002  0.3000000E+03  0.7818608E-02  0.1093470E+00
         21   -1    0    0  501  502  0.00000000000E+00  0.00000000000E+00  0.16194059862E+01  0.16194059862E+01  0.00000000000E+00 0. -1.
         13   -1    0    0    0    0 -0.00000000000E+00 -0.00000000000E+00 -0.10000000000E+04  0.10000000000E+04  0.00000000000E+00 0.  1.
    9000005    2    1    2  501    0 -0.77321848873E+01  0.37670031282E+02 -0.35535775474E+03  0.35744769769E+03  0.33022402945E+01 0.  0.
         13    1    3    3    0    0 -0.29368019149E+01  0.10802486152E+02 -0.11605317234E+03  0.11659184073E+03  0.00000000000E+00 0.  1.
          1    1    3    3  501    0 -0.47953829723E+01  0.26867545130E+02 -0.23930458240E+03  0.24085585697E+03  0.00000000000E+00 0.  1.
         -1    1    1    2    0  502  0.77321848873E+01 -0.37670031282E+02 -0.64302283927E+03  0.64417170829E+03  0.00000000000E+00 0. -1.
<mgrwt>
<rscale>  1 0.30000000E+03</rscale>
<asrwt>0</asrwt>
<pdfrwt beam="1">  1       21 0.58887615E-02 0.30000000E+03</pdfrwt>
<pdfrwt beam="2">0</pdfrwt>
<totfact> 0.21762586E+04</totfact>
</mgrwt>
</event>
<event>
 6    1  0.6377696E-002  0.3000000E+03  0.7818608E-02  0.1093470E+00
         21   -1    0    0  501  502  0.00000000000E+00  0.00000000000E+00  0.18831801489E+01  0.18831801489E+01  0.00000000000E+00 0. -1.
         13   -1    0    0    0    0 -0.00000000000E+00 -0.00000000000E+00 -0.10000000000E+04  0.10000000000E+04  0.00000000000E+00 0.  1.
    9000005    2    1    2  501    0 -0.20018149531E+02  0.35069260552E+02 -0.68141359688E+03  0.68261603372E+03  0.30951796702E+01 0.  0.
         13    1    3    3    0    0 -0.10434140435E+02  0.19380819713E+02 -0.39543536707E+03  0.39604749335E+03  0.00000000000E+00 0.  1.
          1    1    3    3  501    0 -0.95840090967E+01  0.15688440839E+02 -0.28597822981E+03  0.28656854037E+03  0.00000000000E+00 0.  1.
         -3    1    1    2    0  502  0.20018149531E+02 -0.35069260552E+02 -0.31670322298E+03  0.31926714643E+03  0.00000000000E+00 0. -1.
<mgrwt>
<rscale>  1 0.30000000E+03</rscale>
<asrwt>0</asrwt>
<pdfrwt beam="1">  1       21 0.68479423E-02 0.30000000E+03</pdfrwt>
<pdfrwt beam="2">0</pdfrwt>
<totfact> 0.16763380E+04</totfact>
</mgrwt>
</event>
<event>
 6    1  0.6377696E-002  0.3000000E+03  0.7818608E-02  0.1093470E+00
         21   -1    0    0  501  502  0.00000000000E+00  0.00000000000E+00  0.39790682966E+01  0.39790682966E+01  0.00000000000E+00 0. -1.
         13   -1    0    0    0    0 -0.00000000000E+00 -0.00000000000E+00 -0.10000000000E+04  0.10000000000E+04  0.00000000000E+00 0.  1.
    9000005    2    1    2  501    0 -0.54942801683E+02  0.10400706986E+02 -0.26675266353E+03  0.27257009028E+03  0.32533752975E+01 0.  0.
         13    1    3    3    0    0 -0.35263344287E+01 -0.69834905900E-01 -0.15361074942E+02  0.15760791059E+02  0.00000000000E+00 0.  1.
          3    1    3    3  501    0 -0.51416467255E+02  0.10470541892E+02 -0.25139158859E+03  0.25680929922E+03  0.00000000000E+00 0.  1.
         -1    1    1    2    0  502  0.54942801683E+02 -0.10400706986E+02 -0.72926826817E+03  0.73140897802E+03  0.00000000000E+00 0. -1.
<mgrwt>
<rscale>  1 0.30000000E+03</rscale>
<asrwt>0</asrwt>
<pdfrwt beam="1">  1       21 0.14469370E-01 0.30000000E+03</pdfrwt>
<pdfrwt beam="2">0</pdfrwt>
<totfact> 0.44013028E+03</totfact>
</mgrwt>
</event>
<event>
 6    1  0.6377696E-002  0.3000000E+03  0.7818608E-02  0.1093470E+00
         21   -1    0    0  501  502  0.00000000000E+00  0.00000000000E+00  0.20443799209E+01  0.20443799209E+01  0.00000000000E+00 0. -1.
         13   -1    0    0    0    0 -0.00000000000E+00 -0.00000000000E+00 -0.10000000000E+04  0.10000000000E+04  0.00000000000E+00 0.  1.
    9000005    2    1    2  501    0  0.39325442374E+02 -0.20295772680E+02 -0.59977668385E+03  0.60141378441E+03  0.28391505776E+01 0.  0.
         13    1    3    3    0    0  0.19859028152E+02 -0.10380316259E+02 -0.28449567355E+03  0.28537680395E+03  0.00000000000E+00 0.  1.
          3    1    3    3  501    0  0.19466414222E+02 -0.99154564205E+01 -0.31528101030E+03  0.31603698046E+03  0.00000000000E+00 0.  1.
         -1    1    1    2    0  502 -0.39325442374E+02  0.20295772680E+02 -0.39817893623E+03  0.40063059551E+03  0.00000000000E+00 0. -1.
<mgrwt>
<rscale>  1 0.30000000E+03</rscale>
<asrwt>0</asrwt>
<pdfrwt beam="1">  1       21 0.74341245E-02 0.30000000E+03</pdfrwt>
<pdfrwt beam="2">0</pdfrwt>
<totfact> 0.14527085E+04</totfact>
</mgrwt>
</event>
<event>
 6    1  0.6377696E-002  0.3000000E+03  0.7818608E-02  0.1093470E+00
         21   -1    0    0  501  502  0.00000000000E+00  0.00000000000E+00  0.12223836213E+01  0.12223836213E+01  0.00000000000E+00 0. -1.
         13   -1    0    0    0    0 -0.00000000000E+00 -0.00000000000E+00 -0.10000000000E+04  0.10000000000E+04  0.00000000000E+00 0.  1.
    9000005    2    1    2  501    0 -0.30409461650E+02 -0.86325697302E+01 -0.71006021003E+03  0.71077962274E+03  0.47868174035E+01 0.  0.
         13    1    3    3    0    0 -0.45292851841E+01 -0.72418276258E-01 -0.77410140007E+02  0.77542565373E+02  0.00000000000E+00 0.  1.
          1    1    3    3  501    0 -0.25880176465E+02 -0.85601514539E+01 -0.63265007002E+03  0.63323705737E+03  0.00000000000E+00 0.  1.
         -3    1    1    2    0  502  0.30409461650E+02  0.86325697302E+01 -0.28871740635E+03  0.29044276088E+03  0.00000000000E+00 0. -1.
<mgrwt>
<rscale>  1 0.30000000E+03</rscale>
<asrwt>0</asrwt>
<pdfrwt beam="1">  1       21 0.44450407E-02 0.30000000E+03</pdfrwt>
<pdfrwt beam="2">0</pdfrwt>
<totfact> 0.35183904E+04</totfact>
</mgrwt>
</event>
<event>
 6    1  0.6377696E-002  0.3000000E+03  0.7818608E-02  0.1093470E+00
         21   -1    0    0  501  502  0.00000000000E+00  0.00000000000E+00  0.12933287605E+01  0.12933287605E+01  0.00000000000E+00 0. -1.
         13   -1    0    0    0    0 -0.00000000000E+00 -0.00000000000E+00 -0.10000000000E+04  0.10000000000E+04  0.00000000000E+00 0.  1.
    9000005    2    1    2  501    0  0.30827020511E+02 -0.17762805096E+02 -0.43578296665E+03  0.43724641615E+03  0.34368552390E+01 0.  0.
         13    1    3    3    0    0  0.10280457087E+02 -0.56340734300E+01 -0.12471253955E+03  0.12526231717E+03  0.00000000000E+00 0.  1.
          3    1    3    3  501    0  0.20546563424E+02 -0.12128731666E+02 -0.31107042710E+03  0.31198409898E+03  0.00000000000E+00 0.  1.
         -3    1    1    2    0  502 -0.30827020511E+02  0.17762805096E+02 -0.56292370459E+03  0.56404691261E+03  0.00000000000E+00 0. -1.
<mgrwt>
<rscale>  1 0.30000000E+03</rscale>
<asrwt>0</asrwt>
<pdfrwt beam="1">  1       21 0.47030236E-02 0.30000000E+03</pdfrwt>
<pdfrwt beam="2">0</pdfrwt>
<totfact> 0.31969357E+04</totfact>
</mgrwt>
</event>
<event>
 6    1  0.6377696E-002  0.3000000E+03  0.7818608E-02  0.1093470E+00
         21   -1    0    0  501  502  0.00000000000E+00  0.00000000000E+00  0.15677272820E+01  0.15677272820E+01  0.00000000000E+00 0. -1.
         13   -1    0    0    0    0 -0.00000000000E+00 -0.00000000000E+00 -0.10000000000E+04  0.10000000000E+04  0.00000000000E+00 0.  1.
    9000005    2    1    2  501    0 -0.34340243385E+02 -0.18860197825E+02 -0.56667635313E+03  0.56803787424E+03  0.31587970549E+01 0.  0.
         13    1    3    3    0    0 -0.21917549104E+02 -0.13048231414E+02 -0.35055731808E+03  0.35148409432E+03  0.00000000000E+00 0.  1.
          3    1    3    3  501    0 -0.12422694281E+02 -0.58119664111E+01 -0.21611903505E+03  0.21655377992E+03  0.00000000000E+00 0.  1.
         -3    1    1    2    0  502  0.34340243385E+02  0.18860197825E+02 -0.43175591959E+03  0.43352985304E+03  0.00000000000E+00 0. -1.
<mgrwt>
<rscale>  1 0.30000000E+03</rscale>
<asrwt>0</asrwt>
<pdfrwt beam="1">  1       21 0.57008385E-02 0.30000000E+03</pdfrwt>
<pdfrwt beam="2">0</pdfrwt>
<totfact> 0.23012439E+04</totfact>
</mgrwt>
</event>
<event>
 6    1  0.6377696E-002  0.3000000E+03  0.7818608E-02  0.1093470E+00
         21   -1    0    0  501  502  0.00000000000E+00  0.00000000000E+00  0.16996012713E+01  0.16996012713E+01  0.00000000000E+00 0. -1.
         13   -1    0    0    0    0 -0.00000000000E+00 -0.00000000000E+00 -0.10000000000E+04  0.10000000000E+04  0.00000000000E+00 0.  1.
    9000005    2    1    2  501    0  0.79251700047E+01  0.36689110089E+02 -0.70051947279E+03  0.70156233439E+03  0.72991887480E+01 0.  0.
         13    1    3    3    0    0  0.75296353786E+00  0.27755449865E+01 -0.10151447601E+03  0.10155520393E+03  0.00000000000E+00 0.  1.
          1    1    3    3  501    0  0.71722064669E+01  0.33913565103E+02 -0.59900499677E+03  0.60000713046E+03  0.00000000000E+00 0.  1.
         -1    1    1    2    0  502 -0.79251700047E+01 -0.36689110089E+02 -0.29778092594E+03  0.30013726688E+03  0.00000000000E+00 0. -1.
<mgrwt>
<rscale>  1 0.30000000E+03</rscale>
<asrwt>0</asrwt>
<pdfrwt beam="1">  1       21 0.61803813E-02 0.30000000E+03</pdfrwt>
<pdfrwt beam="2">0</pdfrwt>
<totfact> 0.20021626E+04</totfact>
</mgrwt>
</event>
<event>
 6    1  0.6377696E-002  0.3000000E+03  0.7818608E-02  0.1093470E+00
         21   -1    0    0  501  502  0.00000000000E+00  0.00000000000E+00  0.11652065194E+01  0.11652065194E+01  0.00000000000E+00 0. -1.
         13   -1    0    0    0    0 -0.00000000000E+00 -0.00000000000E+00 -0.10000000000E+04  0.10000000000E+04  0.00000000000E+00 0.  1.
    9000005    2    1    2  501    0 -0.27900492664E+02  0.18558756862E+02 -0.58999500598E+03  0.59095448409E+03  0.31984754772E+01 0.  0.
         13    1    3    3    0    0 -0.22673688404E+02  0.15958940388E+02 -0.50329081335E+03  0.50405399187E+03  0.00000000000E+00 0.  1.
          3    1    3    3  501    0 -0.52268042603E+01  0.25998164739E+01 -0.86704192630E+02  0.86900492220E+02  0.00000000000E+00 0.  1.
         -3    1    1    2    0  502  0.27900492664E+02 -0.18558756862E+02 -0.40883978750E+03  0.41021072243E+03  0.00000000000E+00 0. -1.
<mgrwt>
<rscale>  1 0.30000000E+03</rscale>
<asrwt>0</asrwt>
<pdfrwt beam="1">  1       21 0.42371236E-02 0.30000000E+03</pdfrwt>
<pdfrwt beam="2">0</pdfrwt>
<totfact> 0.38155075E+04</totfact>
</mgrwt>
</event>
<event>
 6    1  0.6377696E-002  0.3000000E+03  0.7818608E-02  0.1093470E+00
         21   -1    0    0  501  502  0.00000000000E+00  0.00000000000E+00  0.49724040528E+01  0.49724040528E+01  0.00000000000E+00 0. -1.
         13   -1    0    0    0    0 -0.00000000000E+00 -0.00000000000E+00 -0.10000000000E+04  0.10000000000E+04  0.00000000000E+00 0.  1.
    9000005    2    1    2  501    0 -0.50309579123E+02 -0.48325143631E+02 -0.56955298031E+03  0.57381695434E+03  0.29877180027E+01 0.  0.
         13    1    3    3    0    0 -0.30851697592E+01 -0.25432833017E+01 -0.38160149287E+02  0.38369044241E+02  0.00000000000E+00 0.  1.
          1    1    3    3  501    0 -0.47224409363E+02 -0.45781860330E+02 -0.53139283102E+03  0.53544791010E+03  0.00000000000E+00 0.  1.
         -1    1    1    2    0  502  0.50309579123E+02  0.48325143631E+02 -0.42547461564E+03  0.43115544971E+03  0.00000000000E+00 0. -1.
<mgrwt>
<rscale>  1 0.30000000E+03</rscale>
<asrwt>0</asrwt>
<pdfrwt beam="1">  1       21 0.18081507E-01 0.30000000E+03</pdfrwt>
<pdfrwt beam="2">0</pdfrwt>
<totfact> 0.29047238E+03</totfact>
</mgrwt>
</event>
<event>
 6    1  0.6377696E-002  0.3000000E+03  0.7818608E-02  0.1093470E+00
         21   -1    0    0  501  502  0.00000000000E+00  0.00000000000E+00  0.20743129052E+01  0.20743129052E+01  0.00000000000E+00 0. -1.
         13   -1    0    0    0    0 -0.00000000000E+00 -0.00000000000E+00 -0.10000000000E+04  0.10000000000E+04  0.00000000000E+00 0.  1.
    9000005    2    1    2  501    0 -0.39829833526E+02 -0.21814842786E+02 -0.52922901161E+03  0.53118273662E+03  0.30740771656E+01 0.  0.
         13    1    3    3    0    0 -0.26188337852E+02 -0.14264501522E+02 -0.36417042493E+03  0.36538938605E+03  0.00000000000E+00 0.  1.
          1    1    3    3  501    0 -0.13641495674E+02 -0.75503412641E+01 -0.16505858668E+03  0.16579335057E+03  0.00000000000E+00 0.  1.
         -1    1    1    2    0  502  0.39829833526E+02  0.21814842786E+02 -0.46869667549E+03  0.47089157629E+03  0.00000000000E+00 0. -1.
<mgrwt>
<rscale>  1 0.30000000E+03</rscale>
<asrwt>0</asrwt>
<pdfrwt beam="1">  1       21 0.75429719E-02 0.30000000E+03</pdfrwt>
<pdfrwt beam="2">0</pdfrwt>
<totfact> 0.14162070E+04</totfact>
</mgrwt>
</event>
<event>
 6    1  0.6377696E-002  0.3000000E+03  0.7818608E-02  0.1093470E+00
         21   -1    0    0  501  502  0.00000000000E+00  0.00000000000E+00  0.27469531655E+01  0.27469531655E+01  0.00000000000E+00 0. -1.
         13   -1    0    0    0    0 -0.00000000000E+00 -0.00000000000E+00 -0.10000000000E+04  0.10000000000E+04  0.00000000000E+00 0.  1.
    9000005    2    1    2  501    0  0.47897130169E+02 -0.20918140256E+02 -0.53199454770E+03  0.53456197403E+03  0.25693631913E+01 0.  0.
         13    1    3    3    0    0  0.25639976024E+02 -0.10012131001E+02 -0.28688862575E+03  0.28820606296E+03  0.00000000000E+00 0.  1.
          1    1    3    3  501    0  0.22257154145E+02 -0.10906009255E+02 -0.24510592194E+03  0.24635591107E+03  0.00000000000E+00 0.  1.
         -1    1    1    2    0  502 -0.47897130169E+02  0.20918140256E+02 -0.46525849914E+03  0.46818497914E+03  0.00000000000E+00 0. -1.
<mgrwt>
<rscale>  1 0.30000000E+03</rscale>
<asrwt>0</asrwt>
<pdfrwt beam="1">  1       21 0.99889417E-02 0.30000000E+03</pdfrwt>
<pdfrwt beam="2">0</pdfrwt>
<totfact> 0.86202228E+03</totfact>
</mgrwt>
</event>
<event>
 6    1  0.6377696E-002  0.3000000E+03  0.7818608E-02  0.1093470E+00
         21   -1    0    0  501  502  0.00000000000E+00  0.00000000000E+00  0.17270767087E+01  0.17270767087E+01  0.00000000000E+00 0. -1.
         13   -1    0    0    0    0 -0.00000000000E+00 -0.00000000000E+00 -0.10000000000E+04  0.10000000000E+04  0.00000000000E+00 0.  1.
    9000005    2    1    2  501    0 -0.97338310517E+01  0.36772836580E+02 -0.69951271631E+03  0.70055494943E+03  0.34939816024E+01 0.  0.
         13    1    3    3    0    0 -0.51519683697E+01  0.14730041387E+02 -0.30897759244E+03  0.30937141033E+03  0.00000000000E+00 0.  1.
          1    1    3    3  501    0 -0.45818626820E+01  0.22042795192E+02 -0.39053512387E+03  0.39118353910E+03  0.00000000000E+00 0.  1.
         -3    1    1    2    0  502  0.97338310517E+01 -0.36772836580E+02 -0.29876020698E+03  0.30117212728E+03  0.00000000000E+00 0. -1.
<mgrwt>
<rscale>  1 0.30000000E+03</rscale>
<asrwt>0</asrwt>
<pdfrwt beam="1">  1       21 0.62802922E-02 0.30000000E+03</pdfrwt>
<pdfrwt beam="2">0</pdfrwt>
<totfact> 0.19474581E+04</totfact>
</mgrwt>
</event>
<event>
 6    1  0.6377696E-002  0.3000000E+03  0.7818608E-02  0.1093470E+00
         21   -1    0    0  501  502  0.00000000000E+00  0.00000000000E+00  0.14910169707E+01  0.14910169707E+01  0.00000000000E+00 0. -1.
         13   -1    0    0    0    0 -0.00000000000E+00 -0.00000000000E+00 -0.10000000000E+04  0.10000000000E+04  0.00000000000E+00 0.  1.
    9000005    2    1    2  501    0  0.30664788348E+02  0.22214201387E+02 -0.59280822912E+03  0.59402702874E+03  0.35657209185E+01 0.  0.
         13    1    3    3    0    0  0.91731431340E+01  0.83729601163E+01 -0.20841535610E+03  0.20878508968E+03  0.00000000000E+00 0.  1.
          3    1    3    3  501    0  0.21491645214E+02  0.13841241270E+02 -0.38439287302E+03  0.38524193905E+03  0.00000000000E+00 0.  1.
         -1    1    1    2    0  502 -0.30664788348E+02 -0.22214201387E+02 -0.40570075391E+03  0.40746398823E+03  0.00000000000E+00 0. -1.
<mgrwt>
<rscale>  1 0.30000000E+03</rscale>
<asrwt>0</asrwt>
<pdfrwt beam="1">  1       21 0.54218913E-02 0.30000000E+03</pdfrwt>
<pdfrwt beam="2">0</pdfrwt>
<totfact> 0.25081496E+04</totfact>
</mgrwt>
</event>
<event>
 6    1  0.6377696E-002  0.3000000E+03  0.7818608E-02  0.1093470E+00
         21   -1    0    0  501  502  0.00000000000E+00  0.00000000000E+00  0.12894956823E+01  0.12894956823E+01  0.00000000000E+00 0. -1.
         13   -1    0    0    0    0 -0.00000000000E+00 -0.00000000000E+00 -0.10000000000E+04  0.10000000000E+04  0.00000000000E+00 0.  1.
    9000005    2    1    2  501    0 -0.14572304748E+02 -0.32736719018E+02 -0.49554443567E+03  0.49684907554E+03  0.32666957197E+01 0.  0.
         13    1    3    3    0    0 -0.91276046831E+00 -0.47593281285E+01 -0.68657095433E+02  0.68827909232E+02  0.00000000000E+00 0.  1.
          1    1    3    3  501    0 -0.13659544279E+02 -0.27977390890E+02 -0.42688734024E+03  0.42802116630E+03  0.00000000000E+00 0.  1.
         -3    1    1    2    0  502  0.14572304748E+02  0.32736719018E+02 -0.50316606865E+03  0.50444042015E+03  0.00000000000E+00 0. -1.
<mgrwt>
<rscale>  1 0.30000000E+03</rscale>
<asrwt>0</asrwt>
<pdfrwt beam="1">  1       21 0.46890851E-02 0.30000000E+03</pdfrwt>
<pdfrwt beam="2">0</pdfrwt>
<totfact> 0.32131093E+04</totfact>
</mgrwt>
</event>
<event>
 6    1  0.6377696E-002  0.3000000E+03  0.7818608E-02  0.1093470E+00
         21   -1    0    0  501  502  0.00000000000E+00  0.00000000000E+00  0.99959829593E+00  0.99959829593E+00  0.00000000000E+00 0. -1.
         13   -1    0    0    0    0 -0.00000000000E+00 -0.00000000000E+00 -0.10000000000E+04  0.10000000000E+04  0.00000000000E+00 0.  1.
    9000005    2    1    2  501    0 -0.30794427215E+02  0.54761445847E+01 -0.51294076390E+03  0.51393465765E+03  0.65053941855E+01 0.  0.
         13    1    3    3    0    0 -0.15645256665E+02  0.17183819798E+01 -0.20796365763E+03  0.20855840857E+03  0.00000000000E+00 0.  1.
          1    1    3    3  501    0 -0.15149170550E+02  0.37577626049E+01 -0.30497710628E+03  0.30537624908E+03  0.00000000000E+00 0.  1.
         -1    1    1    2    0  502  0.30794427215E+02 -0.54761445847E+01 -0.48605963780E+03  0.48706494065E+03  0.00000000000E+00 0. -1.
<mgrwt>
<rscale>  1 0.30000000E+03</rscale>
<asrwt>0</asrwt>
<pdfrwt beam="1">  1       21 0.36349106E-02 0.30000000E+03</pdfrwt>
<pdfrwt beam="2">0</pdfrwt>
<totfact> 0.49384464E+04</totfact>
</mgrwt>
</event>
<event>
 6    1  0.6377696E-002  0.3000000E+03  0.7818608E-02  0.1093470E+00
         21   -1    0    0  501  502  0.00000000000E+00  0.00000000000E+00  0.13352945575E+01  0.13352945575E+01  0.00000000000E+00 0. -1.
         13   -1    0    0    0    0 -0.00000000000E+00 -0.00000000000E+00 -0.10000000000E+04  0.10000000000E+04  0.00000000000E+00 0.  1.
    9000005    2    1    2  501    0  0.18254121975E+02 -0.30852553279E+02 -0.51288125360E+03  0.51423093705E+03  0.10058991919E+02 0.  0.
         13    1    3    3    0    0  0.86588034904E+01 -0.10465170764E+02 -0.25733167506E+03  0.25768990214E+03  0.00000000000E+00 0.  1.
          3    1    3    3  501    0  0.95953184846E+01 -0.20387382514E+02 -0.25554957854E+03  0.25654103492E+03  0.00000000000E+00 0.  1.
         -3    1    1    2    0  502 -0.18254121975E+02  0.30852553279E+02 -0.48578345185E+03  0.48710435750E+03  0.00000000000E+00 0. -1.
<mgrwt>
<rscale>  1 0.30000000E+03</rscale>
<asrwt>0</asrwt>
<pdfrwt beam="1">  1       21 0.48556268E-02 0.30000000E+03</pdfrwt>
<pdfrwt beam="2">0</pdfrwt>
<totfact> 0.30278881E+04</totfact>
</mgrwt>
</event>
<event>
 6    1  0.6377696E-002  0.3000000E+03  0.7818608E-02  0.1093470E+00
         21   -1    0    0  501  502  0.00000000000E+00  0.00000000000E+00  0.18109112139E+01  0.18109112139E+01  0.00000000000E+00 0. -1.
         13   -1    0    0    0    0 -0.00000000000E+00 -0.00000000000E+00 -0.10000000000E+04  0.10000000000E+04  0.00000000000E+00 0.  1.
    9000005    2    1    2  501    0  0.33748984264E+02  0.24329417842E+02 -0.39806032577E+03  0.40024175749E+03  0.32445301921E+01 0.  0.
         13    1    3    3    0    0  0.24247590806E+01  0.20577451270E+01 -0.39315344153E+02  0.39443758156E+02  0.00000000000E+00 0.  1.
          1    1    3    3  501    0  0.31324225183E+02  0.22271672715E+02 -0.35874498162E+03  0.36079799934E+03  0.00000000000E+00 0.  1.
         -3    1    1    2    0  502 -0.33748984264E+02 -0.24329417842E+02 -0.60012876301E+03  0.60156915372E+03  0.00000000000E+00 0. -1.
<mgrwt>
<rscale>  1 0.30000000E+03</rscale>
<asrwt>0</asrwt>
<pdfrwt beam="1">  1       21 0.65851456E-02 0.30000000E+03</pdfrwt>
<pdfrwt beam="2">0</pdfrwt>
<totfact> 0.17941033E+04</totfact>
</mgrwt>
</event>
<event>
 6    1  0.6377696E-002  0.3000000E+03  0.7818608E-02  0.1093470E+00
         21   -1    0    0  501  502  0.00000000000E+00  0.00000000000E+00  0.69125067763E+01  0.69125067763E+01  0.00000000000E+00 0. -1.
         13   -1    0    0    0    0 -0.00000000000E+00 -0.00000000000E+00 -0.10000000000E+04  0.10000000000E+04  0.00000000000E+00 0.  1.
    9000005    2    1    2  501    0  0.79480456538E+02 -0.24270296471E+02 -0.49803098065E+03  0.50492929898E+03  0.35424602550E+01 0.  0.
         13    1    3    3    0    0  0.62344701273E+02 -0.18243286286E+02 -0.39661015178E+03  0.40189462769E+03  0.00000000000E+00 0.  1.
          1    1    3    3  501    0  0.17135755264E+02 -0.60270101854E+01 -0.10142082887E+03  0.10303467129E+03  0.00000000000E+00 0.  1.
         -3    1    1    2    0  502 -0.79480456538E+02  0.24270296471E+02 -0.49505651258E+03  0.50198320780E+03  0.00000000000E+00 0. -1.
<mgrwt>
<rscale>  1 0.30000000E+03</rscale>
<asrwt>0</asrwt>
<pdfrwt beam="1">  1       21 0.25136441E-01 0.30000000E+03</pdfrwt>
<pdfrwt beam="2">0</pdfrwt>
<totfact> 0.15430645E+03</totfact>
</mgrwt>
</event>
<event>
 6    1  0.6377696E-002  0.3000000E+03  0.7818608E-02  0.1093470E+00
         21   -1    0    0  501  502  0.00000000000E+00  0.00000000000E+00  0.11002637852E+01  0.11002637852E+01  0.00000000000E+00 0. -1.
         13   -1    0    0    0    0 -0.00000000000E+00 -0.00000000000E+00 -0.10000000000E+04  0.10000000000E+04  0.00000000000E+00 0.  1.
    9000005    2    1    2  501    0  0.27307676893E+02  0.18430946365E+02 -0.45644864083E+03  0.45764962216E+03  0.35222073274E+01 0.  0.
         13    1    3    3    0    0  0.13246836882E+02  0.81086616958E+01 -0.19278368938E+03  0.19340832447E+03  0.00000000000E+00 0.  1.
          3    1    3    3  501    0  0.14060840011E+02  0.10322284669E+02 -0.26366495145E+03  0.26424129770E+03  0.00000000000E+00 0.  1.
         -3    1    1    2    0  502 -0.27307676893E+02 -0.18430946365E+02 -0.54245109538E+03  0.54345064162E+03  0.00000000000E+00 0. -1.
<mgrwt>
<rscale>  1 0.30000000E+03</rscale>
<asrwt>0</asrwt>
<pdfrwt beam="1">  1       21 0.40009677E-02 0.30000000E+03</pdfrwt>
<pdfrwt beam="2">0</pdfrwt>
<totfact> 0.42030199E+04</totfact>
</mgrwt>
</event>
<event>
 6    1  0.6377696E-002  0.3000000E+03  0.7818608E-02  0.1093470E+00
         21   -1    0    0  501  502  0.00000000000E+00  0.00000000000E+00  0.12338608012E+01  0.12338608012E+01  0.00000000000E+00 0. -1.
         13   -1    0    0    0    0 -0.00000000000E+00 -0.00000000000E+00 -0.10000000000E+04  0.10000000000E+04  0.00000000000E+00 0.  1.
    9000005    2    1    2  501    0  0.26186914071E+02 -0.22693928350E+02 -0.57669353854E+03  0.57774118190E+03  0.29439805667E+01 0.  0.
         13    1    3    3    0    0  0.25928188349E+02 -0.22769629138E+02 -0.57247638965E+03  0.57351542583E+03  0.00000000000E+00 0.  1.
          3    1    3    3  501    0  0.25872572198E+00  0.75700787572E-01 -0.42171488859E+01  0.42257560666E+01  0.00000000000E+00 0.  1.
         -3    1    1    2    0  502 -0.26186914071E+02  0.22693928350E+02 -0.42207260066E+03  0.42349267890E+03  0.00000000000E+00 0. -1.
<mgrwt>
<rscale>  1 0.30000000E+03</rscale>
<asrwt>0</asrwt>
<pdfrwt beam="1">  1       21 0.44867760E-02 0.30000000E+03</pdfrwt>
<pdfrwt beam="2">0</pdfrwt>
<totfact> 0.34630682E+04</totfact>
</mgrwt>
</event>
<event>
 6    1  0.6377696E-002  0.3000000E+03  0.7818608E-02  0.1093470E+00
         21   -1    0    0  501  502  0.00000000000E+00  0.00000000000E+00  0.10849982991E+01  0.10849982991E+01  0.00000000000E+00 0. -1.
         13   -1    0    0    0    0 -0.00000000000E+00 -0.00000000000E+00 -0.10000000000E+04  0.10000000000E+04  0.00000000000E+00 0.  1.
    9000005    2    1    2  501    0  0.96550979839E+01  0.29435573288E+02 -0.66654635138E+03  0.66727578092E+03  0.36407926328E+01 0.  0.
         13    1    3    3    0    0  0.39685562832E+01  0.16223552254E+02 -0.33053662351E+03  0.33095832452E+03  0.00000000000E+00 0.  1.
          1    1    3    3  501    0  0.56865417007E+01  0.13212021034E+02 -0.33600972787E+03  0.33631745640E+03  0.00000000000E+00 0.  1.
         -1    1    1    2    0  502 -0.96550979839E+01 -0.29435573288E+02 -0.33236865032E+03  0.33380921738E+03  0.00000000000E+00 0. -1.
<mgrwt>
<rscale>  1 0.30000000E+03</rscale>
<asrwt>0</asrwt>
<pdfrwt beam="1">  1       21 0.39454567E-02 0.30000000E+03</pdfrwt>
<pdfrwt beam="2">0</pdfrwt>
<totfact> 0.43030495E+04</totfact>
</mgrwt>
</event>
<event>
 6    1  0.6377696E-002  0.3000000E+03  0.7818608E-02  0.1093470E+00
         21   -1    0    0  501  502  0.00000000000E+00  0.00000000000E+00  0.43113603368E+01  0.43113603368E+01  0.00000000000E+00 0. -1.
         13   -1    0    0    0    0 -0.00000000000E+00 -0.00000000000E+00 -0.10000000000E+04  0.10000000000E+04  0.00000000000E+00 0.  1.
    9000005    2    1    2  501    0  0.30948596312E+02 -0.30936644860E+02 -0.12422147356E+03  0.13174622626E+03  0.33469436474E+01 0.  0.
         13    1    3    3    0    0  0.27846851773E+02 -0.26294105011E+02 -0.10776115623E+03  0.11436474065E+03  0.00000000000E+00 0.  1.
          1    1    3    3  501    0  0.31017445385E+01 -0.46425398497E+01 -0.16460317330E+02  0.17381485611E+02  0.00000000000E+00 0.  1.
         -1    1    1    2    0  502 -0.30948596312E+02  0.30936644860E+02 -0.87146716610E+03  0.87256513407E+03  0.00000000000E+00 0. -1.
<mgrwt>
<rscale>  1 0.30000000E+03</rscale>
<asrwt>0</asrwt>
<pdfrwt beam="1">  1       21 0.15677707E-01 0.30000000E+03</pdfrwt>
<pdfrwt beam="2">0</pdfrwt>
<totfact> 0.37937633E+03</totfact>
</mgrwt>
</event>
<event>
 6    1  0.6377696E-002  0.3000000E+03  0.7818608E-02  0.1093470E+00
         21   -1    0    0  501  502  0.00000000000E+00  0.00000000000E+00  0.35043325546E+01  0.35043325546E+01  0.00000000000E+00 0. -1.
         13   -1    0    0    0    0 -0.00000000000E+00 -0.00000000000E+00 -0.10000000000E+04  0.10000000000E+04  0.00000000000E+00 0.  1.
    9000005    2    1    2  501    0 -0.16876314320E+02 -0.56205712619E+02 -0.56118210093E+03  0.56425293153E+03  0.34825582323E+01 0.  0.
         13    1    3    3    0    0 -0.41523084781E+01 -0.95855610849E+01 -0.10492850726E+03  0.10544722037E+03  0.00000000000E+00 0.  1.
          1    1    3    3  501    0 -0.12724005842E+02 -0.46620151534E+02 -0.45625359367E+03  0.45880571116E+03  0.00000000000E+00 0.  1.
         -3    1    1    2    0  502  0.16876314320E+02  0.56205712619E+02 -0.43531356651E+03  0.43925140103E+03  0.00000000000E+00 0. -1.
<mgrwt>
<rscale>  1 0.30000000E+03</rscale>
<asrwt>0</asrwt>
<pdfrwt beam="1">  1       21 0.12743054E-01 0.30000000E+03</pdfrwt>
<pdfrwt beam="2">0</pdfrwt>
<totfact> 0.55552596E+03</totfact>
</mgrwt>
</event>
<event>
 6    1  0.6377696E-002  0.3000000E+03  0.7818608E-02  0.1093470E+00
         21   -1    0    0  501  502  0.00000000000E+00  0.00000000000E+00  0.32988210227E+01  0.32988210227E+01  0.00000000000E+00 0. -1.
         13   -1    0    0    0    0 -0.00000000000E+00 -0.00000000000E+00 -0.10000000000E+04  0.10000000000E+04  0.00000000000E+00 0.  1.
    9000005    2    1    2  501    0 -0.25652216142E+02  0.49277544614E+02 -0.37324041450E+03  0.37736780451E+03  0.34264069809E+01 0.  0.
         13    1    3    3    0    0 -0.17329638306E+02  0.36217445491E+02 -0.26434277698E+03  0.26737450040E+03  0.00000000000E+00 0.  1.
          3    1    3    3  501    0 -0.83225778355E+01  0.13060099122E+02 -0.10889763752E+03  0.10999330411E+03  0.00000000000E+00 0.  1.
         -3    1    1    2    0  502  0.25652216142E+02 -0.49277544614E+02 -0.62346076448E+03  0.62593101652E+03  0.00000000000E+00 0. -1.
<mgrwt>
<rscale>  1 0.30000000E+03</rscale>
<asrwt>0</asrwt>
<pdfrwt beam="1">  1       21 0.11995738E-01 0.30000000E+03</pdfrwt>
<pdfrwt beam="2">0</pdfrwt>
<totfact> 0.62011164E+03</totfact>
</mgrwt>
</event>
<event>
 6    1  0.6377696E-002  0.3000000E+03  0.7818608E-02  0.1093470E+00
         21   -1    0    0  501  502  0.00000000000E+00  0.00000000000E+00  0.44579963703E+01  0.44579963703E+01  0.00000000000E+00 0. -1.
         13   -1    0    0    0    0 -0.00000000000E+00 -0.00000000000E+00 -0.10000000000E+04  0.10000000000E+04  0.00000000000E+00 0.  1.
    9000005    2    1    2  501    0  0.54342430034E+02 -0.13261655032E+02 -0.22452737653E+03  0.23141690665E+03  0.35029523659E+01 0.  0.
         13    1    3    3    0    0  0.25153789732E+02 -0.53778871879E+01 -0.96709024572E+02  0.10007132577E+03  0.00000000000E+00 0.  1.
          1    1    3    3  501    0  0.29188640302E+02 -0.78837678438E+01 -0.12781835196E+03  0.13134558087E+03  0.00000000000E+00 0.  1.
         -3    1    1    2    0  502 -0.54342430034E+02  0.13261655032E+02 -0.77101462710E+03  0.77304108972E+03  0.00000000000E+00 0. -1.
<mgrwt>
<rscale>  1 0.30000000E+03</rscale>
<asrwt>0</asrwt>
<pdfrwt beam="1">  1       21 0.16210930E-01 0.30000000E+03</pdfrwt>
<pdfrwt beam="2">0</pdfrwt>
<totfact> 0.35645350E+03</totfact>
</mgrwt>
</event>
<event>
 6    1  0.6377696E-002  0.3000000E+03  0.7818608E-02  0.1093470E+00
         21   -1    0    0  501  502  0.00000000000E+00  0.00000000000E+00  0.15285327504E+01  0.15285327504E+01  0.00000000000E+00 0. -1.
         13   -1    0    0    0    0 -0.00000000000E+00 -0.00000000000E+00 -0.10000000000E+04  0.10000000000E+04  0.00000000000E+00 0.  1.
    9000005    2    1    2  501    0 -0.24598478004E+02 -0.30228818381E+02 -0.52288262390E+03  0.52434553379E+03  0.36240647338E+01 0.  0.
         13    1    3    3    0    0 -0.73926997479E+01 -0.11830575919E+02 -0.18748090819E+03  0.18799921668E+03  0.00000000000E+00 0.  1.
          3    1    3    3  501    0 -0.17205778256E+02 -0.18398242462E+02 -0.33540171571E+03  0.33634631711E+03  0.00000000000E+00 0.  1.
         -3    1    1    2    0  502  0.24598478004E+02  0.30228818381E+02 -0.47558884335E+03  0.47718299896E+03  0.00000000000E+00 0. -1.
<mgrwt>
<rscale>  1 0.30000000E+03</rscale>
<asrwt>0</asrwt>
<pdfrwt beam="1">  1       21 0.55583126E-02 0.30000000E+03</pdfrwt>
<pdfrwt beam="2">0</pdfrwt>
<totfact> 0.24035370E+04</totfact>
</mgrwt>
</event>
<event>
 6    1  0.6377696E-002  0.3000000E+03  0.7818608E-02  0.1093470E+00
         21   -1    0    0  501  502  0.00000000000E+00  0.00000000000E+00  0.23391158028E+01  0.23391158028E+01  0.00000000000E+00 0. -1.
         13   -1    0    0    0    0 -0.00000000000E+00 -0.00000000000E+00 -0.10000000000E+04  0.10000000000E+04  0.00000000000E+00 0.  1.
    9000005    2    1    2  501    0  0.40660584489E+01  0.39985590117E+02 -0.77522655644E+03  0.77630281249E+03  0.73798800556E+01 0.  0.
         13    1    3    3    0    0  0.18341055556E+01  0.73083442204E+01 -0.20284311256E+03  0.20298301444E+03  0.00000000000E+00 0.  1.
          3    1    3    3  501    0  0.22319528932E+01  0.32677245896E+02 -0.57238344388E+03  0.57331979805E+03  0.00000000000E+00 0.  1.
         -3    1    1    2    0  502 -0.40660584489E+01 -0.39985590117E+02 -0.22243432776E+03  0.22603630331E+03  0.00000000000E+00 0. -1.
<mgrwt>
<rscale>  1 0.30000000E+03</rscale>
<asrwt>0</asrwt>
<pdfrwt beam="1">  1       21 0.85058936E-02 0.30000000E+03</pdfrwt>
<pdfrwt beam="2">0</pdfrwt>
<totfact> 0.11467237E+04</totfact>
</mgrwt>
</event>
<event>
 6    1  0.6377696E-002  0.3000000E+03  0.7818608E-02  0.1093470E+00
         21   -1    0    0  501  502  0.00000000000E+00  0.00000000000E+00  0.15905839117E+01  0.15905839117E+01  0.00000000000E+00 0. -1.
         13   -1    0    0    0    0 -0.00000000000E+00 -0.00000000000E+00 -0.10000000000E+04  0.10000000000E+04  0.00000000000E+00 0.  1.
    9000005    2    1    2  501    0 -0.25181847796E+01 -0.33977147412E+02 -0.25014728455E+03  0.25255319814E+03  0.69761105440E+01 0.  0.
         13    1    3    3    0    0 -0.16635449569E+01 -0.30692855802E+02 -0.20662487777E+03  0.20889868092E+03  0.00000000000E+00 0.  1.
          1    1    3    3  501    0 -0.85463982269E+00 -0.32842916102E+01 -0.43522406788E+02  0.43654517215E+02  0.00000000000E+00 0.  1.
         -1    1    1    2    0  502  0.25181847796E+01  0.33977147412E+02 -0.74826213153E+03  0.74903738577E+03  0.00000000000E+00 0. -1.
<mgrwt>
<rscale>  1 0.30000000E+03</rscale>
<asrwt>0</asrwt>
<pdfrwt beam="1">  1       21 0.57839537E-02 0.30000000E+03</pdfrwt>
<pdfrwt beam="2">0</pdfrwt>
<totfact> 0.22446398E+04</totfact>
</mgrwt>
</event>
<event>
 6    1  0.6377696E-002  0.3000000E+03  0.7818608E-02  0.1093470E+00
         21   -1    0    0  501  502  0.00000000000E+00  0.00000000000E+00  0.10161774815E+01  0.10161774815E+01  0.00000000000E+00 0. -1.
         13   -1    0    0    0    0 -0.00000000000E+00 -0.00000000000E+00 -0.10000000000E+04  0.10000000000E+04  0.00000000000E+00 0.  1.
    9000005    2    1    2  501    0 -0.16433084247E+02  0.27204119761E+02 -0.48291382619E+03  0.48396845096E+03  0.30963865766E+01 0.  0.
         13    1    3    3    0    0 -0.53350280416E+01  0.64976098455E+01 -0.11790097262E+03  0.11820034180E+03  0.00000000000E+00 0.  1.
          3    1    3    3  501    0 -0.11098056206E+02  0.20706509916E+02 -0.36501285357E+03  0.36576810916E+03  0.00000000000E+00 0.  1.
         -3    1    1    2    0  502  0.16433084247E+02 -0.27204119761E+02 -0.51606999633E+03  0.51704772652E+03  0.00000000000E+00 0. -1.
<mgrwt>
<rscale>  1 0.30000000E+03</rscale>
<asrwt>0</asrwt>
<pdfrwt beam="1">  1       21 0.36951986E-02 0.30000000E+03</pdfrwt>
<pdfrwt beam="2">0</pdfrwt>
<totfact> 0.48040025E+04</totfact>
</mgrwt>
</event>
<event>
 6    1  0.6377696E-002  0.3000000E+03  0.7818608E-02  0.1093470E+00
         21   -1    0    0  501  502  0.00000000000E+00  0.00000000000E+00  0.30214757271E+01  0.30214757271E+01  0.00000000000E+00 0. -1.
         13   -1    0    0    0    0 -0.00000000000E+00 -0.00000000000E+00 -0.10000000000E+04  0.10000000000E+04  0.00000000000E+00 0.  1.
    9000005    2    1    2  501    0  0.51332436211E+02 -0.18872713337E+02 -0.54363806263E+03  0.54639386763E+03  0.35661078126E+01 0.  0.
         13    1    3    3    0    0  0.18713781202E+02 -0.86239226394E+01 -0.20996038245E+03  0.21096904950E+03  0.00000000000E+00 0.  1.
          3    1    3    3  501    0  0.32618655009E+02 -0.10248790697E+02 -0.33367768017E+03  0.33542481812E+03  0.00000000000E+00 0.  1.
         -3    1    1    2    0  502 -0.51332436211E+02  0.18872713337E+02 -0.45334046165E+03  0.45662760810E+03  0.00000000000E+00 0. -1.
<mgrwt>
<rscale>  1 0.30000000E+03</rscale>
<asrwt>0</asrwt>
<pdfrwt beam="1">  1       21 0.10987208E-01 0.30000000E+03</pdfrwt>
<pdfrwt beam="2">0</pdfrwt>
<totfact> 0.72672200E+03</totfact>
</mgrwt>
</event>
<event>
 6    1  0.6377696E-002  0.3000000E+03  0.7818608E-02  0.1093470E+00
         21   -1    0    0  501  502  0.00000000000E+00  0.00000000000E+00  0.30250611636E+01  0.30250611636E+01  0.00000000000E+00 0. -1.
         13   -1    0    0    0    0 -0.00000000000E+00 -0.00000000000E+00 -0.10000000000E+04  0.10000000000E+04  0.00000000000E+00 0.  1.
    9000005    2    1    2  501    0  0.33896244730E+02  0.19627108388E+02 -0.85005861567E+03  0.85097709240E+03  0.53087602454E+01 0.  0.
         13    1    3    3    0    0  0.18642144009E+01  0.17100461538E+01 -0.34254950242E+02  0.34348233859E+02  0.00000000000E+00 0.  1.
          3    1    3    3  501    0  0.32032030329E+02  0.17917062234E+02 -0.81580366542E+03  0.81662885854E+03  0.00000000000E+00 0.  1.
         -3    1    1    2    0  502 -0.33896244730E+02 -0.19627108388E+02 -0.14691632317E+03  0.15204796876E+03  0.00000000000E+00 0. -1.
<mgrwt>
<rscale>  1 0.30000000E+03</rscale>
<asrwt>0</asrwt>
<pdfrwt beam="1">  1       21 0.11000246E-01 0.30000000E+03</pdfrwt>
<pdfrwt beam="2">0</pdfrwt>
<totfact> 0.72517314E+03</totfact>
</mgrwt>
</event>
<event>
 6    1  0.6377696E-002  0.3000000E+03  0.7818608E-02  0.1093470E+00
         21   -1    0    0  501  502  0.00000000000E+00  0.00000000000E+00  0.16591320855E+01  0.16591320855E+01  0.00000000000E+00 0. -1.
         13   -1    0    0    0    0 -0.00000000000E+00 -0.00000000000E+00 -0.10000000000E+04  0.10000000000E+04  0.00000000000E+00 0.  1.
    9000005    2    1    2  501    0  0.26124495360E+02 -0.30868595842E+02 -0.53214288428E+03  0.53371050305E+03  0.59575426044E+01 0.  0.
         13    1    3    3    0    0  0.74411902448E+01 -0.50107376481E+01 -0.11384283414E+03  0.11419575162E+03  0.00000000000E+00 0.  1.
          1    1    3    3  501    0  0.18683305115E+02 -0.25857858193E+02 -0.41830005014E+03  0.41951475143E+03  0.00000000000E+00 0.  1.
         -1    1    1    2    0  502 -0.26124495360E+02  0.30868595842E+02 -0.46619798364E+03  0.46794862903E+03  0.00000000000E+00 0. -1.
<mgrwt>
<rscale>  1 0.30000000E+03</rscale>
<asrwt>0</asrwt>
<pdfrwt beam="1">  1       21 0.60332203E-02 0.30000000E+03</pdfrwt>
<pdfrwt beam="2">0</pdfrwt>
<totfact> 0.20871941E+04</totfact>
</mgrwt>
</event>
<event>
 6    1  0.6377696E-002  0.3000000E+03  0.7818608E-02  0.1093470E+00
         21   -1    0    0  501  502  0.00000000000E+00  0.00000000000E+00  0.19654862079E+01  0.19654862079E+01  0.00000000000E+00 0. -1.
         13   -1    0    0    0    0 -0.00000000000E+00 -0.00000000000E+00 -0.10000000000E+04  0.10000000000E+04  0.00000000000E+00 0.  1.
    9000005    2    1    2  501    0  0.34528959838E+02 -0.13739561989E+02 -0.22749046745E+03  0.23052582429E+03  0.30361573593E+01 0.  0.
         13    1    3    3    0    0  0.52132319936E+01 -0.32840359534E+01 -0.37834266173E+02  0.38332680271E+02  0.00000000000E+00 0.  1.
          1    1    3    3  501    0  0.29315727844E+02 -0.10455526036E+02 -0.18965620128E+03  0.19219314401E+03  0.00000000000E+00 0.  1.
         -3    1    1    2    0  502 -0.34528959838E+02  0.13739561989E+02 -0.77054404634E+03  0.77143966192E+03  0.00000000000E+00 0. -1.
<mgrwt>
<rscale>  1 0.30000000E+03</rscale>
<asrwt>0</asrwt>
<pdfrwt beam="1">  1       21 0.71472376E-02 0.30000000E+03</pdfrwt>
<pdfrwt beam="2">0</pdfrwt>
<totfact> 0.15560736E+04</totfact>
</mgrwt>
</event>
<event>
 6    1  0.6377696E-002  0.3000000E+03  0.7818608E-02  0.1093470E+00
         21   -1    0    0  501  502  0.00000000000E+00  0.00000000000E+00  0.36394325449E+01  0.36394325449E+01  0.00000000000E+00 0. -1.
         13   -1    0    0    0    0 -0.00000000000E+00 -0.00000000000E+00 -0.10000000000E+04  0.10000000000E+04  0.00000000000E+00 0.  1.
    9000005    2    1    2  501    0  0.82404289098E+01  0.59173260294E+02 -0.43201297229E+03  0.43613825407E+03  0.34625183614E+01 0.  0.
         13    1    3    3    0    0  0.17318733010E+00  0.72528507747E+01 -0.47064748436E+02  0.47620629811E+02  0.00000000000E+00 0.  1.
          1    1    3    3  501    0  0.80672415797E+01  0.51920409519E+02 -0.38494822386E+03  0.38851762426E+03  0.00000000000E+00 0.  1.
         -1    1    1    2    0  502 -0.82404289098E+01 -0.59173260294E+02 -0.56434759516E+03  0.56750117847E+03  0.00000000000E+00 0. -1.
<mgrwt>
<rscale>  1 0.30000000E+03</rscale>
<asrwt>0</asrwt>
<pdfrwt beam="1">  1       21 0.13234328E-01 0.30000000E+03</pdfrwt>
<pdfrwt beam="2">0</pdfrwt>
<totfact> 0.51844845E+03</totfact>
</mgrwt>
</event>
<event>
 6    1  0.6377696E-002  0.3000000E+03  0.7818608E-02  0.1093470E+00
         21   -1    0    0  501  502  0.00000000000E+00  0.00000000000E+00  0.14851988338E+01  0.14851988338E+01  0.00000000000E+00 0. -1.
         13   -1    0    0    0    0 -0.00000000000E+00 -0.00000000000E+00 -0.10000000000E+04  0.10000000000E+04  0.00000000000E+00 0.  1.
    9000005    2    1    2  501    0 -0.21939739759E+02  0.30428947390E+02 -0.61078023809E+03  0.61194012516E+03  0.33082501379E+01 0.  0.
         13    1    3    3    0    0 -0.20914934841E+02  0.29458560240E+02 -0.59547220625E+03  0.59656717114E+03  0.00000000000E+00 0.  1.
          3    1    3    3  501    0 -0.10248049177E+01  0.97038714979E+00 -0.15308031847E+02  0.15372954022E+02  0.00000000000E+00 0.  1.
         -3    1    1    2    0  502  0.21939739759E+02 -0.30428947390E+02 -0.38773456307E+03  0.38954507367E+03  0.00000000000E+00 0. -1.
<mgrwt>
<rscale>  1 0.30000000E+03</rscale>
<asrwt>0</asrwt>
<pdfrwt beam="1">  1       21 0.54007344E-02 0.30000000E+03</pdfrwt>
<pdfrwt beam="2">0</pdfrwt>
<totfact> 0.25250010E+04</totfact>
</mgrwt>
</event>
<event>
 6    1  0.6377696E-002  0.3000000E+03  0.7818608E-02  0.1093470E+00
         21   -1    0    0  501  502  0.00000000000E+00  0.00000000000E+00  0.63951126747E+01  0.63951126747E+01  0.00000000000E+00 0. -1.
         13   -1    0    0    0    0 -0.00000000000E+00 -0.00000000000E+00 -0.10000000000E+04  0.10000000000E+04  0.00000000000E+00 0.  1.
    9000005    2    1    2  501    0  0.73226576039E+02  0.22323637949E+02 -0.35223029990E+03  0.36046799786E+03  0.32430029950E+01 0.  0.
         13    1    3    3    0    0  0.62371308333E+02  0.19744861769E+02 -0.29650775375E+03  0.30363940407E+03  0.00000000000E+00 0.  1.
          1    1    3    3  501    0  0.10855267706E+02  0.25787761806E+01 -0.55722546144E+02  0.56828593792E+02  0.00000000000E+00 0.  1.
         -1    1    1    2    0  502 -0.73226576039E+02 -0.22323637949E+02 -0.64137458743E+03  0.64592711481E+03  0.00000000000E+00 0. -1.
<mgrwt>
<rscale>  1 0.30000000E+03</rscale>
<asrwt>0</asrwt>
<pdfrwt beam="1">  1       21 0.23255004E-01 0.30000000E+03</pdfrwt>
<pdfrwt beam="2">0</pdfrwt>
<totfact> 0.17955333E+03</totfact>
</mgrwt>
</event>
<event>
 6    1  0.6377696E-002  0.3000000E+03  0.7818608E-02  0.1093470E+00
         21   -1    0    0  501  502  0.00000000000E+00  0.00000000000E+00  0.13025627430E+01  0.13025627430E+01  0.00000000000E+00 0. -1.
         13   -1    0    0    0    0 -0.00000000000E+00 -0.00000000000E+00 -0.10000000000E+04  0.10000000000E+04  0.00000000000E+00 0.  1.
    9000005    2    1    2  501    0  0.60590748918E+01  0.35069153698E+02 -0.57633221765E+03  0.57744063161E+03  0.35071361330E+01 0.  0.
         13    1    3    3    0    0  0.61474342185E+01  0.33868682674E+02 -0.54553556603E+03  0.54662046469E+03  0.00000000000E+00 0.  1.
          3    1    3    3  501    0 -0.88359326709E-01  0.12004710239E+01 -0.30796651615E+02  0.30820166916E+02  0.00000000000E+00 0.  1.
         -1    1    1    2    0  502 -0.60590748918E+01 -0.35069153698E+02 -0.42236521961E+03  0.42386193113E+03  0.00000000000E+00 0. -1.
<mgrwt>
<rscale>  1 0.30000000E+03</rscale>
<asrwt>0</asrwt>
<pdfrwt beam="1">  1       21 0.47366018E-02 0.30000000E+03</pdfrwt>
<pdfrwt beam="2">0</pdfrwt>
<totfact> 0.31584927E+04</totfact>
</mgrwt>
</event>
<event>
 6    1  0.6377696E-002  0.3000000E+03  0.7818608E-02  0.1093470E+00
         21   -1    0    0  501  502  0.00000000000E+00  0.00000000000E+00  0.93887412719E+00  0.93887412719E+00  0.00000000000E+00 0. -1.
         13   -1    0    0    0    0 -0.00000000000E+00 -0.00000000000E+00 -0.10000000000E+04  0.10000000000E+04  0.00000000000E+00 0.  1.
    9000005    2    1    2  501    0  0.20816805918E+02 -0.21657737966E+02 -0.40849641255E+03  0.40961064239E+03  0.30269248357E+01 0.  0.
         13    1    3    3    0    0  0.58333750816E+01 -0.80306954375E+01 -0.14004085406E+03  0.14039216909E+03  0.00000000000E+00 0.  1.
          1    1    3    3  501    0  0.14983430836E+02 -0.13627042528E+02 -0.26845555848E+03  0.26921847330E+03  0.00000000000E+00 0.  1.
         -3    1    1    2    0  502 -0.20816805918E+02  0.21657737966E+02 -0.59056471333E+03  0.59132823174E+03  0.00000000000E+00 0. -1.
<mgrwt>
<rscale>  1 0.30000000E+03</rscale>
<asrwt>0</asrwt>
<pdfrwt beam="1">  1       21 0.34140949E-02 0.30000000E+03</pdfrwt>
<pdfrwt beam="2">0</pdfrwt>
<totfact> 0.54850452E+04</totfact>
</mgrwt>
</event>
<event>
 6    1  0.6377696E-002  0.3000000E+03  0.7818608E-02  0.1093470E+00
         21   -1    0    0  501  502  0.00000000000E+00  0.00000000000E+00  0.17175247963E+01  0.17175247963E+01  0.00000000000E+00 0. -1.
         13   -1    0    0    0    0 -0.00000000000E+00 -0.00000000000E+00 -0.10000000000E+04  0.10000000000E+04  0.00000000000E+00 0.  1.
    9000005    2    1    2  501    0 -0.34587913747E+02  0.70966042472E+00 -0.77424527975E+03  0.77502501866E+03  0.33464795919E+01 0.  0.
         13    1    3    3    0    0 -0.33707797504E+02  0.86861626815E+00 -0.76277644711E+03  0.76352136734E+03  0.00000000000E+00 0.  1.
          3    1    3    3  501    0 -0.88011624272E+00 -0.15895584343E+00 -0.11468832640E+02  0.11503651320E+02  0.00000000000E+00 0.  1.
         -3    1    1    2    0  502  0.34587913747E+02 -0.70966042472E+00 -0.22403719545E+03  0.22669250614E+03  0.00000000000E+00 0. -1.
<mgrwt>
<rscale>  1 0.30000000E+03</rscale>
<asrwt>0</asrwt>
<pdfrwt beam="1">  1       21 0.62455579E-02 0.30000000E+03</pdfrwt>
<pdfrwt beam="2">0</pdfrwt>
<totfact> 0.19662105E+04</totfact>
</mgrwt>
</event>
<event>
 6    1  0.6377696E-002  0.3000000E+03  0.7818608E-02  0.1093470E+00
         21   -1    0    0  501  502  0.00000000000E+00  0.00000000000E+00  0.10749988967E+01  0.10749988967E+01  0.00000000000E+00 0. -1.
         13   -1    0    0    0    0 -0.00000000000E+00 -0.00000000000E+00 -0.10000000000E+04  0.10000000000E+04  0.00000000000E+00 0.  1.
    9000005    2    1    2  501    0  0.22959433029E+02  0.23248733996E+02 -0.48496958669E+03  0.48608198224E+03  0.35431976304E+01 0.  0.
         13    1    3    3    0    0  0.96503592647E+01  0.12191466117E+02 -0.22231429153E+03  0.22285736582E+03  0.00000000000E+00 0.  1.
          3    1    3    3  501    0  0.13309073765E+02  0.11057267879E+02 -0.26265529516E+03  0.26322461643E+03  0.00000000000E+00 0.  1.
         -1    1    1    2    0  502 -0.22959433029E+02 -0.23248733996E+02 -0.51395541441E+03  0.51499301665E+03  0.00000000000E+00 0. -1.
<mgrwt>
<rscale>  1 0.30000000E+03</rscale>
<asrwt>0</asrwt>
<pdfrwt beam="1">  1       21 0.39090951E-02 0.30000000E+03</pdfrwt>
<pdfrwt beam="2">0</pdfrwt>
<totfact> 0.43706082E+04</totfact>
</mgrwt>
</event>
<event>
 6    1  0.6377696E-002  0.3000000E+03  0.7818608E-02  0.1093470E+00
         21   -1    0    0  501  502  0.00000000000E+00  0.00000000000E+00  0.16190869673E+01  0.16190869673E+01  0.00000000000E+00 0. -1.
         13   -1    0    0    0    0 -0.00000000000E+00 -0.00000000000E+00 -0.10000000000E+04  0.10000000000E+04  0.00000000000E+00 0.  1.
    9000005    2    1    2  501    0  0.27659216400E+02 -0.21003984112E+02 -0.24934787417E+03  0.25178130924E+03  0.36422148031E+01 0.  0.
         13    1    3    3    0    0  0.67572535053E+01 -0.34833163079E+01 -0.49270794670E+02  0.49853838115E+02  0.00000000000E+00 0.  1.
          3    1    3    3  501    0  0.20901962894E+02 -0.17520667805E+02 -0.20007707950E+03  0.20192747112E+03  0.00000000000E+00 0.  1.
         -3    1    1    2    0  502 -0.27659216400E+02  0.21003984112E+02 -0.74903303886E+03  0.74983777773E+03  0.00000000000E+00 0. -1.
<mgrwt>
<rscale>  1 0.30000000E+03</rscale>
<asrwt>0</asrwt>
<pdfrwt beam="1">  1       21 0.58876014E-02 0.30000000E+03</pdfrwt>
<pdfrwt beam="2">0</pdfrwt>
<totfact> 0.21769976E+04</totfact>
</mgrwt>
</event>
<event>
 6    1  0.6377696E-002  0.3000000E+03  0.7818608E-02  0.1093470E+00
         21   -1    0    0  501  502  0.00000000000E+00  0.00000000000E+00  0.11410509736E+01  0.11410509736E+01  0.00000000000E+00 0. -1.
         13   -1    0    0    0    0 -0.00000000000E+00 -0.00000000000E+00 -0.10000000000E+04  0.10000000000E+04  0.00000000000E+00 0.  1.
    9000005    2    1    2  501    0 -0.14055631809E+02  0.28709848985E+02 -0.34415827493E+03  0.34566047241E+03  0.37983902222E+01 0.  0.
         13    1    3    3    0    0 -0.11675820777E+02  0.26232636641E+02 -0.30157265262E+03  0.30293652937E+03  0.00000000000E+00 0.  1.
          1    1    3    3  501    0 -0.23798110316E+01  0.24772123438E+01 -0.42585622310E+02  0.42723943043E+02  0.00000000000E+00 0.  1.
         -3    1    1    2    0  502  0.14055631809E+02 -0.28709848985E+02 -0.65470067410E+03  0.65548057857E+03  0.00000000000E+00 0. -1.
<mgrwt>
<rscale>  1 0.30000000E+03</rscale>
<asrwt>0</asrwt>
<pdfrwt beam="1">  1       21 0.41492850E-02 0.30000000E+03</pdfrwt>
<pdfrwt beam="2">0</pdfrwt>
<totfact> 0.39528814E+04</totfact>
</mgrwt>
</event>
<event>
 6    1  0.6377696E-002  0.3000000E+03  0.7818608E-02  0.1093470E+00
         21   -1    0    0  501  502  0.00000000000E+00  0.00000000000E+00  0.27921565601E+01  0.27921565601E+01  0.00000000000E+00 0. -1.
         13   -1    0    0    0    0 -0.00000000000E+00 -0.00000000000E+00 -0.10000000000E+04  0.10000000000E+04  0.00000000000E+00 0.  1.
    9000005    2    1    2  501    0 -0.21297646706E+02 -0.47387096032E+02 -0.40952627469E+03  0.41281863777E+03  0.28864169779E+01 0.  0.
         13    1    3    3    0    0 -0.19005416971E+02 -0.41921659331E+02 -0.35513905298E+03  0.35810945024E+03  0.00000000000E+00 0.  1.
          3    1    3    3  501    0 -0.22922297349E+01 -0.54654367015E+01 -0.54387221705E+02  0.54709187531E+02  0.00000000000E+00 0.  1.
         -1    1    1    2    0  502  0.21297646706E+02  0.47387096032E+02 -0.58768156875E+03  0.58997351879E+03  0.00000000000E+00 0. -1.
<mgrwt>
<rscale>  1 0.30000000E+03</rscale>
<asrwt>0</asrwt>
<pdfrwt beam="1">  1       21 0.10153318E-01 0.30000000E+03</pdfrwt>
<pdfrwt beam="2">0</pdfrwt>
<totfact> 0.83723438E+03</totfact>
</mgrwt>
</event>
<event>
 6    1  0.6377696E-002  0.3000000E+03  0.7818608E-02  0.1093470E+00
         21   -1    0    0  501  502  0.00000000000E+00  0.00000000000E+00  0.29639138725E+01  0.29639138725E+01  0.00000000000E+00 0. -1.
         13   -1    0    0    0    0 -0.00000000000E+00 -0.00000000000E+00 -0.10000000000E+04  0.10000000000E+04  0.00000000000E+00 0.  1.
    9000005    2    1    2  501    0 -0.68161437290E+00  0.49164242954E+02 -0.71042404993E+03  0.71216493403E+03  0.76795287208E+01 0.  0.
         13    1    3    3    0    0 -0.12285056104E+01  0.31088014682E+02 -0.39535129600E+03  0.39657360116E+03  0.00000000000E+00 0.  1.
          3    1    3    3  501    0  0.54689123745E+00  0.18076228272E+02 -0.31507275392E+03  0.31559133287E+03  0.00000000000E+00 0.  1.
         -1    1    1    2    0  502  0.68161437290E+00 -0.49164242954E+02 -0.28661203620E+03  0.29079897984E+03  0.00000000000E+00 0. -1.
<mgrwt>
<rscale>  1 0.30000000E+03</rscale>
<asrwt>0</asrwt>
<pdfrwt beam="1">  1       21 0.10777891E-01 0.30000000E+03</pdfrwt>
<pdfrwt beam="2">0</pdfrwt>
<totfact> 0.75228757E+03</totfact>
</mgrwt>
</event>
<event>
 6    1  0.6377696E-002  0.3000000E+03  0.7818608E-02  0.1093470E+00
         21   -1    0    0  501  502  0.00000000000E+00  0.00000000000E+00  0.20431634604E+01  0.20431634604E+01  0.00000000000E+00 0. -1.
         13   -1    0    0    0    0 -0.00000000000E+00 -0.00000000000E+00 -0.10000000000E+04  0.10000000000E+04  0.00000000000E+00 0.  1.
    9000005    2    1    2  501    0  0.32053714667E+02 -0.30806976080E+02 -0.58652620561E+03  0.58821750637E+03  0.32147369550E+01 0.  0.
         13    1    3    3    0    0  0.24596787788E+02 -0.21681269291E+02 -0.43291976252E+03  0.43415964827E+03  0.00000000000E+00 0.  1.
          1    1    3    3  501    0  0.74569268789E+01 -0.91257067891E+01 -0.15360644309E+03  0.15405785810E+03  0.00000000000E+00 0.  1.
         -1    1    1    2    0  502 -0.32053714667E+02  0.30806976080E+02 -0.41143063093E+03  0.41382565709E+03  0.00000000000E+00 0. -1.
<mgrwt>
<rscale>  1 0.30000000E+03</rscale>
<asrwt>0</asrwt>
<pdfrwt beam="1">  1       21 0.74297010E-02 0.30000000E+03</pdfrwt>
<pdfrwt beam="2">0</pdfrwt>
<totfact> 0.14542223E+04</totfact>
</mgrwt>
</event>
<event>
 6    1  0.6377696E-002  0.3000000E+03  0.7818608E-02  0.1093470E+00
         21   -1    0    0  501  502  0.00000000000E+00  0.00000000000E+00  0.14837017696E+01  0.14837017696E+01  0.00000000000E+00 0. -1.
         13   -1    0    0    0    0 -0.00000000000E+00 -0.00000000000E+00 -0.10000000000E+04  0.10000000000E+04  0.00000000000E+00 0.  1.
    9000005    2    1    2  501    0 -0.38154928582E+02 -0.10346170370E+01 -0.44048393029E+03  0.44214749458E+03  0.33830621247E+01 0.  0.
         13    1    3    3    0    0 -0.15320047498E+02 -0.19711845954E+01 -0.18436341188E+03  0.18500934318E+03  0.00000000000E+00 0.  1.
          1    1    3    3  501    0 -0.22834881085E+02  0.93656755847E+00 -0.25612051841E+03  0.25713815140E+03  0.00000000000E+00 0.  1.
         -3    1    1    2    0  502  0.38154928582E+02  0.10346170370E+01 -0.55803236794E+03  0.55933620719E+03  0.00000000000E+00 0. -1.
<mgrwt>
<rscale>  1 0.30000000E+03</rscale>
<asrwt>0</asrwt>
<pdfrwt beam="1">  1       21 0.53952905E-02 0.30000000E+03</pdfrwt>
<pdfrwt beam="2">0</pdfrwt>
<totfact> 0.25293653E+04</totfact>
</mgrwt>
</event>
<event>
 6    1  0.6377696E-002  0.3000000E+03  0.7818608E-02  0.1093470E+00
         21   -1    0    0  501  502  0.00000000000E+00  0.00000000000E+00  0.29309398878E+01  0.29309398878E+01  0.00000000000E+00 0. -1.
         13   -1    0    0    0    0 -0.00000000000E+00 -0.00000000000E+00 -0.10000000000E+04  0.10000000000E+04  0.00000000000E+00 0.  1.
    9000005    2    1    2  501    0 -0.71642819528E+01  0.52946715256E+02 -0.57737348696E+03  0.57984813982E+03  0.30066946248E+01 0.  0.
         13    1    3    3    0    0 -0.19652829491E+01  0.21347850613E+02 -0.21912047969E+03  0.22016670430E+03  0.00000000000E+00 0.  1.
          1    1    3    3  501    0 -0.51989990037E+01  0.31598864643E+02 -0.35825300727E+03  0.35968143552E+03  0.00000000000E+00 0.  1.
         -1    1    1    2    0  502  0.71642819528E+01 -0.52946715256E+02 -0.41969557315E+03  0.42308280007E+03  0.00000000000E+00 0. -1.
<mgrwt>
<rscale>  1 0.30000000E+03</rscale>
<asrwt>0</asrwt>
<pdfrwt beam="1">  1       21 0.10657986E-01 0.30000000E+03</pdfrwt>
<pdfrwt beam="2">0</pdfrwt>
<totfact> 0.76755014E+03</totfact>
</mgrwt>
</event>
<event>
 6    1  0.6377696E-002  0.3000000E+03  0.7818608E-02  0.1093470E+00
         21   -1    0    0  501  502  0.00000000000E+00  0.00000000000E+00  0.16392864869E+01  0.16392864869E+01  0.00000000000E+00 0. -1.
         13   -1    0    0    0    0 -0.00000000000E+00 -0.00000000000E+00 -0.10000000000E+04  0.10000000000E+04  0.00000000000E+00 0.  1.
    9000005    2    1    2  501    0  0.27095491639E+02 -0.29995701183E+02 -0.49685053010E+03  0.49850275250E+03  0.32614784335E+01 0.  0.
         13    1    3    3    0    0  0.56220437911E+01 -0.76452671321E+01 -0.10461263397E+03  0.10504218520E+03  0.00000000000E+00 0.  1.
          3    1    3    3  501    0  0.21473447847E+02 -0.22350434051E+02 -0.39223789613E+03  0.39346056731E+03  0.00000000000E+00 0.  1.
         -1    1    1    2    0  502 -0.27095491639E+02  0.29995701183E+02 -0.50151018342E+03  0.50313653398E+03  0.00000000000E+00 0. -1.
<mgrwt>
<rscale>  1 0.30000000E+03</rscale>
<asrwt>0</asrwt>
<pdfrwt beam="1">  1       21 0.59610543E-02 0.30000000E+03</pdfrwt>
<pdfrwt beam="2">0</pdfrwt>
<totfact> 0.21309625E+04</totfact>
</mgrwt>
</event>
<event>
 6    1  0.6377696E-002  0.3000000E+03  0.7818608E-02  0.1093470E+00
         21   -1    0    0  501  502  0.00000000000E+00  0.00000000000E+00  0.97842926902E+00  0.97842926902E+00  0.00000000000E+00 0. -1.
         13   -1    0    0    0    0 -0.00000000000E+00 -0.00000000000E+00 -0.10000000000E+04  0.10000000000E+04  0.00000000000E+00 0.  1.
    9000005    2    1    2  501    0  0.38294152990E+01 -0.30596845042E+02 -0.57620376915E+03  0.57703772035E+03  0.33039025181E+01 0.  0.
         13    1    3    3    0    0  0.16589904269E+01 -0.91016543841E+01 -0.14741455596E+03  0.14770458243E+03  0.00000000000E+00 0.  1.
          3    1    3    3  501    0  0.21704248721E+01 -0.21495190658E+02 -0.42878921319E+03  0.42933313792E+03  0.00000000000E+00 0.  1.
         -1    1    1    2    0  502 -0.38294152990E+01  0.30596845042E+02 -0.42281780158E+03  0.42394070892E+03  0.00000000000E+00 0. -1.
<mgrwt>
<rscale>  1 0.30000000E+03</rscale>
<asrwt>0</asrwt>
<pdfrwt beam="1">  1       21 0.35579321E-02 0.30000000E+03</pdfrwt>
<pdfrwt beam="2">0</pdfrwt>
<totfact> 0.51189274E+04</totfact>
</mgrwt>
</event>
<event>
 6    1  0.6377696E-002  0.3000000E+03  0.7818608E-02  0.1093470E+00
         21   -1    0    0  501  502  0.00000000000E+00  0.00000000000E+00  0.20170891582E+01  0.20170891582E+01  0.00000000000E+00 0. -1.
         13   -1    0    0    0    0 -0.00000000000E+00 -0.00000000000E+00 -0.10000000000E+04  0.10000000000E+04  0.00000000000E+00 0.  1.
    9000005    2    1    2  501    0  0.30464417165E+02 -0.23501646013E+02 -0.75653749657E+03  0.75752517487E+03  0.38728244958E+01 0.  0.
         13    1    3    3    0    0  0.29053234969E+01 -0.21139196603E+01 -0.95903149237E+02  0.95970430834E+02  0.00000000000E+00 0.  1.
          1    1    3    3  501    0  0.27559093668E+02 -0.21387726353E+02 -0.66063434733E+03  0.66155474403E+03  0.00000000000E+00 0.  1.
         -1    1    1    2    0  502 -0.30464417165E+02  0.23501646013E+02 -0.24144541428E+03  0.24449191429E+03  0.00000000000E+00 0. -1.
<mgrwt>
<rscale>  1 0.30000000E+03</rscale>
<asrwt>0</asrwt>
<pdfrwt beam="1">  1       21 0.73348851E-02 0.30000000E+03</pdfrwt>
<pdfrwt beam="2">0</pdfrwt>
<totfact> 0.14872534E+04</totfact>
</mgrwt>
</event>
<event>
 6    1  0.6377696E-002  0.3000000E+03  0.7818608E-02  0.1093470E+00
         21   -1    0    0  501  502  0.00000000000E+00  0.00000000000E+00  0.13321860158E+01  0.13321860158E+01  0.00000000000E+00 0. -1.
         13   -1    0    0    0    0 -0.00000000000E+00 -0.00000000000E+00 -0.10000000000E+04  0.10000000000E+04  0.00000000000E+00 0.  1.
    9000005    2    1    2  501    0 -0.24471930289E+02  0.18907609806E+02 -0.23728923187E+03  0.23932580915E+03  0.37802491478E+01 0.  0.
         13    1    3    3    0    0 -0.19451748692E+02  0.13140662812E+02 -0.17395843682E+03  0.17553513975E+03  0.00000000000E+00 0.  1.
          1    1    3    3  501    0 -0.50201815964E+01  0.57669469941E+01 -0.63330795058E+02  0.63790669409E+02  0.00000000000E+00 0.  1.
         -3    1    1    2    0  502  0.24471930289E+02 -0.18907609806E+02 -0.76137858211E+03  0.76200637686E+03  0.00000000000E+00 0. -1.
<mgrwt>
<rscale>  1 0.30000000E+03</rscale>
<asrwt>0</asrwt>
<pdfrwt beam="1">  1       21 0.48443230E-02 0.30000000E+03</pdfrwt>
<pdfrwt beam="2">0</pdfrwt>
<totfact> 0.30399255E+04</totfact>
</mgrwt>
</event>
<event>
 6    1  0.6377696E-002  0.3000000E+03  0.7818608E-02  0.1093470E+00
         21   -1    0    0  501  502  0.00000000000E+00  0.00000000000E+00  0.42442329747E+01  0.42442329747E+01  0.00000000000E+00 0. -1.
         13   -1    0    0    0    0 -0.00000000000E+00 -0.00000000000E+00 -0.10000000000E+04  0.10000000000E+04  0.00000000000E+00 0.  1.
    9000005    2    1    2  501    0 -0.58232355635E+02 -0.27932474731E+02 -0.44977919178E+03  0.45446095649E+03  0.78872825918E+01 0.  0.
         13    1    3    3    0    0 -0.55197788735E+02 -0.26381584987E+02 -0.41044015250E+03  0.41497458078E+03  0.00000000000E+00 0.  1.
          1    1    3    3  501    0 -0.30345669004E+01 -0.15508897440E+01 -0.39339039284E+02  0.39486375714E+02  0.00000000000E+00 0.  1.
         -3    1    1    2    0  502  0.58232355635E+02  0.27932474731E+02 -0.54597657524E+03  0.54978327648E+03  0.00000000000E+00 0. -1.
<mgrwt>
<rscale>  1 0.30000000E+03</rscale>
<asrwt>0</asrwt>
<pdfrwt beam="1">  1       21 0.15433607E-01 0.30000000E+03</pdfrwt>
<pdfrwt beam="2">0</pdfrwt>
<totfact> 0.39060948E+03</totfact>
</mgrwt>
</event>
<event>
 6    1  0.6377696E-002  0.3000000E+03  0.7818608E-02  0.1093470E+00
         21   -1    0    0  501  502  0.00000000000E+00  0.00000000000E+00  0.22156817575E+01  0.22156817575E+01  0.00000000000E+00 0. -1.
         13   -1    0    0    0    0 -0.00000000000E+00 -0.00000000000E+00 -0.10000000000E+04  0.10000000000E+04  0.00000000000E+00 0.  1.
    9000005    2    1    2  501    0 -0.29609868477E+02 -0.24654942783E+02 -0.21248053672E+03  0.21596722244E+03  0.30417373683E+01 0.  0.
         13    1    3    3    0    0 -0.74233122337E+01 -0.46962434004E+01 -0.51556083729E+02  0.52299044313E+02  0.00000000000E+00 0.  1.
          3    1    3    3  501    0 -0.22186556243E+02 -0.19958699383E+02 -0.16092445299E+03  0.16366817812E+03  0.00000000000E+00 0.  1.
         -1    1    1    2    0  502  0.29609868477E+02  0.24654942783E+02 -0.78530378152E+03  0.78624845932E+03  0.00000000000E+00 0. -1.
<mgrwt>
<rscale>  1 0.30000000E+03</rscale>
<asrwt>0</asrwt>
<pdfrwt beam="1">  1       21 0.80570416E-02 0.30000000E+03</pdfrwt>
<pdfrwt beam="2">0</pdfrwt>
<totfact> 0.12615416E+04</totfact>
</mgrwt>
</event>
<event>
 6    1  0.6377696E-002  0.3000000E+03  0.7818608E-02  0.1093470E+00
         21   -1    0    0  501  502  0.00000000000E+00  0.00000000000E+00  0.25179164174E+01  0.25179164174E+01  0.00000000000E+00 0. -1.
         13   -1    0    0    0    0 -0.00000000000E+00 -0.00000000000E+00 -0.10000000000E+04  0.10000000000E+04  0.00000000000E+00 0.  1.
    9000005    2    1    2  501    0  0.16140124613E+02  0.38947015019E+02 -0.22869016840E+03  0.23257091665E+03  0.35587282839E+01 0.  0.
         13    1    3    3    0    0  0.98202317034E+01  0.27655662366E+02 -0.16209899942E+03  0.16473420478E+03  0.00000000000E+00 0.  1.
          1    1    3    3  501    0  0.63198929091E+01  0.11291352654E+02 -0.66591168973E+02  0.67836711863E+02  0.00000000000E+00 0.  1.
         -1    1    1    2    0  502 -0.16140124613E+02 -0.38947015019E+02 -0.76879191518E+03  0.76994699977E+03  0.00000000000E+00 0. -1.
<mgrwt>
<rscale>  1 0.30000000E+03</rscale>
<asrwt>0</asrwt>
<pdfrwt beam="1">  1       21 0.91560790E-02 0.30000000E+03</pdfrwt>
<pdfrwt beam="2">0</pdfrwt>
<totfact> 0.10066483E+04</totfact>
</mgrwt>
</event>
<event>
 6    1  0.6377696E-002  0.3000000E+03  0.7818608E-02  0.1093470E+00
         21   -1    0    0  501  502  0.00000000000E+00  0.00000000000E+00  0.16199428741E+01  0.16199428741E+01  0.00000000000E+00 0. -1.
         13   -1    0    0    0    0 -0.00000000000E+00 -0.00000000000E+00 -0.10000000000E+04  0.10000000000E+04  0.00000000000E+00 0.  1.
    9000005    2    1    2  501    0  0.36366133102E+02 -0.19595214487E+01 -0.28789965865E+03  0.29020674931E+03  0.27218618930E+01 0.  0.
         13    1    3    3    0    0  0.27354752509E+02 -0.26488308061E+01 -0.21686598218E+03  0.21860044149E+03  0.00000000000E+00 0.  1.
          1    1    3    3  501    0  0.90113805934E+01  0.68930935747E+00 -0.71033676463E+02  0.71606307819E+02  0.00000000000E+00 0.  1.
         -3    1    1    2    0  502 -0.36366133102E+02  0.19595214487E+01 -0.71048039848E+03  0.71141319357E+03  0.00000000000E+00 0. -1.
<mgrwt>
<rscale>  1 0.30000000E+03</rscale>
<asrwt>0</asrwt>
<pdfrwt beam="1">  1       21 0.58907138E-02 0.30000000E+03</pdfrwt>
<pdfrwt beam="2">0</pdfrwt>
<totfact> 0.21750157E+04</totfact>
</mgrwt>
</event>
<event>
 6    1  0.6377696E-002  0.3000000E+03  0.7818608E-02  0.1093470E+00
         21   -1    0    0  501  502  0.00000000000E+00  0.00000000000E+00  0.15154324648E+01  0.15154324648E+01  0.00000000000E+00 0. -1.
         13   -1    0    0    0    0 -0.00000000000E+00 -0.00000000000E+00 -0.10000000000E+04  0.10000000000E+04  0.00000000000E+00 0.  1.
    9000005    2    1    2  501    0 -0.35259978156E+02 -0.12354819855E+02 -0.36201644482E+03  0.36395164831E+03  0.29980584189E+01 0.  0.
         13    1    3    3    0    0 -0.32275573388E+02 -0.11239535221E+02 -0.33835382505E+03  0.34007550738E+03  0.00000000000E+00 0.  1.
          3    1    3    3  501    0 -0.29844047677E+01 -0.11152846338E+01 -0.23662619771E+02  0.23876140937E+02  0.00000000000E+00 0.  1.
         -1    1    1    2    0  502  0.35259978156E+02  0.12354819855E+02 -0.63646812271E+03  0.63756378415E+03  0.00000000000E+00 0. -1.
<mgrwt>
<rscale>  1 0.30000000E+03</rscale>
<asrwt>0</asrwt>
<pdfrwt beam="1">  1       21 0.55106751E-02 0.30000000E+03</pdfrwt>
<pdfrwt beam="2">0</pdfrwt>
<totfact> 0.24392906E+04</totfact>
</mgrwt>
</event>
<event>
 6    1  0.6377696E-002  0.3000000E+03  0.7818608E-02  0.1093470E+00
         21   -1    0    0  501  502  0.00000000000E+00  0.00000000000E+00  0.15741674801E+01  0.15741674801E+01  0.00000000000E+00 0. -1.
         13   -1    0    0    0    0 -0.00000000000E+00 -0.00000000000E+00 -0.10000000000E+04  0.10000000000E+04  0.00000000000E+00 0.  1.
    9000005    2    1    2  501    0 -0.32968453474E+02 -0.15775790746E+02 -0.31691525797E+03  0.31908427179E+03  0.66103910853E+01 0.  0.
         13    1    3    3    0    0 -0.15442403711E+02 -0.56402025672E+01 -0.11764158190E+03  0.11878476968E+03  0.00000000000E+00 0.  1.
          1    1    3    3  501    0 -0.17526049763E+02 -0.10135588178E+02 -0.19927367608E+03  0.20029950211E+03  0.00000000000E+00 0.  1.
         -3    1    1    2    0  502  0.32968453474E+02  0.15775790746E+02 -0.68151057455E+03  0.68248989569E+03  0.00000000000E+00 0. -1.
<mgrwt>
<rscale>  1 0.30000000E+03</rscale>
<asrwt>0</asrwt>
<pdfrwt beam="1">  1       21 0.57242575E-02 0.30000000E+03</pdfrwt>
<pdfrwt beam="2">0</pdfrwt>
<totfact> 0.22850757E+04</totfact>
</mgrwt>
</event>
<event>
 6    1  0.6377696E-002  0.3000000E+03  0.7818608E-02  0.1093470E+00
         21   -1    0    0  501  502  0.00000000000E+00  0.00000000000E+00  0.41306115737E+01  0.41306115737E+01  0.00000000000E+00 0. -1.
         13   -1    0    0    0    0 -0.00000000000E+00 -0.00000000000E+00 -0.10000000000E+04  0.10000000000E+04  0.00000000000E+00 0.  1.
    9000005    2    1    2  501    0 -0.62342994013E+02  0.18947345488E+00 -0.61875514591E+03  0.62189791188E+03  0.35209961592E+01 0.  0.
         13    1    3    3    0    0 -0.30966718018E+02 -0.17665133903E+00 -0.32466815427E+03  0.32614165515E+03  0.00000000000E+00 0.  1.
          1    1    3    3  501    0 -0.31376275996E+02  0.36612479391E+00 -0.29408699164E+03  0.29575625673E+03  0.00000000000E+00 0.  1.
         -3    1    1    2    0  502  0.62342994013E+02 -0.18947345488E+00 -0.37711424252E+03  0.38223269969E+03  0.00000000000E+00 0. -1.
<mgrwt>
<rscale>  1 0.30000000E+03</rscale>
<asrwt>0</asrwt>
<pdfrwt beam="1">  1       21 0.15020437E-01 0.30000000E+03</pdfrwt>
<pdfrwt beam="2">0</pdfrwt>
<totfact> 0.41076704E+03</totfact>
</mgrwt>
</event>
<event>
 6    1  0.6377696E-002  0.3000000E+03  0.7818608E-02  0.1093470E+00
         21   -1    0    0  501  502  0.00000000000E+00  0.00000000000E+00  0.29776651568E+01  0.29776651568E+01  0.00000000000E+00 0. -1.
         13   -1    0    0    0    0 -0.00000000000E+00 -0.00000000000E+00 -0.10000000000E+04  0.10000000000E+04  0.00000000000E+00 0.  1.
    9000005    2    1    2  501    0  0.36097444600E+02 -0.12150067484E+02 -0.15014069804E+03  0.15523999559E+03  0.10323631951E+02 0.  0.
         13    1    3    3    0    0  0.54129555243E+01  0.15921658211E+01 -0.27591282304E+02  0.28162278648E+02  0.00000000000E+00 0.  1.
          1    1    3    3  501    0  0.30684489076E+02 -0.13742233305E+02 -0.12254941574E+03  0.12707771695E+03  0.00000000000E+00 0.  1.
         -1    1    1    2    0  502 -0.36097444600E+02  0.12150067484E+02 -0.84688163680E+03  0.84773766956E+03  0.00000000000E+00 0. -1.
<mgrwt>
<rscale>  1 0.30000000E+03</rscale>
<asrwt>0</asrwt>
<pdfrwt beam="1">  1       21 0.10827896E-01 0.30000000E+03</pdfrwt>
<pdfrwt beam="2">0</pdfrwt>
<totfact> 0.74605792E+03</totfact>
</mgrwt>
</event>
<event>
 6    1  0.6377696E-002  0.3000000E+03  0.7818608E-02  0.1093470E+00
         21   -1    0    0  501  502  0.00000000000E+00  0.00000000000E+00  0.97340731830E+00  0.97340731830E+00  0.00000000000E+00 0. -1.
         13   -1    0    0    0    0 -0.00000000000E+00 -0.00000000000E+00 -0.10000000000E+04  0.10000000000E+04  0.00000000000E+00 0.  1.
    9000005    2    1    2  501    0 -0.21514775757E+02  0.22090989328E+02 -0.43280950767E+03  0.43391725071E+03  0.30353172866E+01 0.  0.
         13    1    3    3    0    0 -0.20644276483E+02  0.21034755918E+02 -0.40297020712E+03  0.40404657521E+03  0.00000000000E+00 0.  1.
          1    1    3    3  501    0 -0.87049927388E+00  0.10562334098E+01 -0.29839300549E+02  0.29870675507E+02  0.00000000000E+00 0.  1.
         -3    1    1    2    0  502  0.21514775757E+02 -0.22090989328E+02 -0.56621708501E+03  0.56705615660E+03  0.00000000000E+00 0. -1.
<mgrwt>
<rscale>  1 0.30000000E+03</rscale>
<asrwt>0</asrwt>
<pdfrwt beam="1">  1       21 0.35396704E-02 0.30000000E+03</pdfrwt>
<pdfrwt beam="2">0</pdfrwt>
<totfact> 0.51632710E+04</totfact>
</mgrwt>
</event>
<event>
 6    1  0.6377696E-002  0.3000000E+03  0.7818608E-02  0.1093470E+00
         21   -1    0    0  501  502  0.00000000000E+00  0.00000000000E+00  0.30359002622E+01  0.30359002622E+01  0.00000000000E+00 0. -1.
         13   -1    0    0    0    0 -0.00000000000E+00 -0.00000000000E+00 -0.10000000000E+04  0.10000000000E+04  0.00000000000E+00 0.  1.
    9000005    2    1    2  501    0 -0.18791457114E+02 -0.31064446647E+02 -0.12245001736E+03  0.12776851313E+03  0.35591416450E+01 0.  0.
         13    1    3    3    0    0 -0.42454391355E+01 -0.58855025552E+01 -0.20195562514E+02  0.21459814515E+02  0.00000000000E+00 0.  1.
          1    1    3    3  501    0 -0.14546017978E+02 -0.25178944092E+02 -0.10225445485E+03  0.10630869862E+03  0.00000000000E+00 0.  1.
         -3    1    1    2    0  502  0.18791457114E+02  0.31064446647E+02 -0.87451408237E+03  0.87526738713E+03  0.00000000000E+00 0. -1.
<mgrwt>
<rscale>  1 0.30000000E+03</rscale>
<asrwt>0</asrwt>
<pdfrwt beam="1">  1       21 0.11039661E-01 0.30000000E+03</pdfrwt>
<pdfrwt beam="2">0</pdfrwt>
<totfact> 0.72052095E+03</totfact>
</mgrwt>
</event>
<event>
 6    1  0.6377696E-002  0.3000000E+03  0.7818608E-02  0.1093470E+00
         21   -1    0    0  501  502  0.00000000000E+00  0.00000000000E+00  0.10823637900E+01  0.10823637900E+01  0.00000000000E+00 0. -1.
         13   -1    0    0    0    0 -0.00000000000E+00 -0.00000000000E+00 -0.10000000000E+04  0.10000000000E+04  0.00000000000E+00 0.  1.
    9000005    2    1    2  501    0 -0.31841162092E+02 -0.54410978437E+01 -0.59136441199E+03  0.59225098569E+03  0.24284007819E+01 0.  0.
         13    1    3    3    0    0 -0.16822674655E+02 -0.27872823604E+01 -0.28996536603E+03  0.29046632304E+03  0.00000000000E+00 0.  1.
          1    1    3    3  501    0 -0.15018487437E+02 -0.26538154834E+01 -0.30139904596E+03  0.30178466265E+03  0.00000000000E+00 0.  1.
         -3    1    1    2    0  502  0.31841162092E+02  0.54410978437E+01 -0.40755322422E+03  0.40883137810E+03  0.00000000000E+00 0. -1.
<mgrwt>
<rscale>  1 0.30000000E+03</rscale>
<asrwt>0</asrwt>
<pdfrwt beam="1">  1       21 0.39358766E-02 0.30000000E+03</pdfrwt>
<pdfrwt beam="2">0</pdfrwt>
<totfact> 0.43206894E+04</totfact>
</mgrwt>
</event>
<event>
 6    1  0.6377696E-002  0.3000000E+03  0.7818608E-02  0.1093470E+00
         21   -1    0    0  501  502  0.00000000000E+00  0.00000000000E+00  0.16073072144E+01  0.16073072144E+01  0.00000000000E+00 0. -1.
         13   -1    0    0    0    0 -0.00000000000E+00 -0.00000000000E+00 -0.10000000000E+04  0.10000000000E+04  0.00000000000E+00 0.  1.
    9000005    2    1    2  501    0  0.25014065981E+02 -0.20997128050E+02 -0.78903962435E+03  0.78972222009E+03  0.33276452127E+01 0.  0.
         13    1    3    3    0    0  0.15548279380E+02 -0.14976215538E+02 -0.53258484553E+03  0.53302218876E+03  0.00000000000E+00 0.  1.
          1    1    3    3  501    0  0.94657866006E+01 -0.60209125119E+01 -0.25645477882E+03  0.25670003133E+03  0.00000000000E+00 0.  1.
         -3    1    1    2    0  502 -0.25014065981E+02  0.20997128050E+02 -0.20935306844E+03  0.21188508713E+03  0.00000000000E+00 0. -1.
<mgrwt>
<rscale>  1 0.30000000E+03</rscale>
<asrwt>0</asrwt>
<pdfrwt beam="1">  1       21 0.58447658E-02 0.30000000E+03</pdfrwt>
<pdfrwt beam="2">0</pdfrwt>
<totfact> 0.22045639E+04</totfact>
</mgrwt>
</event>
<event>
 6    1  0.6377696E-002  0.3000000E+03  0.7818608E-02  0.1093470E+00
         21   -1    0    0  501  502  0.00000000000E+00  0.00000000000E+00  0.17405709204E+01  0.17405709204E+01  0.00000000000E+00 0. -1.
         13   -1    0    0    0    0 -0.00000000000E+00 -0.00000000000E+00 -0.10000000000E+04  0.10000000000E+04  0.00000000000E+00 0.  1.
    9000005    2    1    2  501    0  0.23692617386E+02 -0.34259444412E+02 -0.48973707853E+03  0.49151510051E+03  0.31045594460E+01 0.  0.
         13    1    3    3    0    0  0.16469292257E+02 -0.23069702675E+02 -0.34903409490E+03  0.35018316375E+03  0.00000000000E+00 0.  1.
          1    1    3    3  501    0  0.72233251288E+01 -0.11189741738E+02 -0.14070298363E+03  0.14133193676E+03  0.00000000000E+00 0.  1.
         -3    1    1    2    0  502 -0.23692617386E+02  0.34259444412E+02 -0.50852235055E+03  0.51022547041E+03  0.00000000000E+00 0. -1.
<mgrwt>
<rscale>  1 0.30000000E+03</rscale>
<asrwt>0</asrwt>
<pdfrwt beam="1">  1       21 0.63293621E-02 0.30000000E+03</pdfrwt>
<pdfrwt beam="2">0</pdfrwt>
<totfact> 0.19214346E+04</totfact>
</mgrwt>
</event>
<event>
 6    1  0.6377696E-002  0.3000000E+03  0.7818608E-02  0.1093470E+00
         21   -1    0    0  501  502  0.00000000000E+00  0.00000000000E+00  0.10495551751E+01  0.10495551751E+01  0.00000000000E+00 0. -1.
         13   -1    0    0    0    0 -0.00000000000E+00 -0.00000000000E+00 -0.10000000000E+04  0.10000000000E+04  0.00000000000E+00 0.  1.
    9000005    2    1    2  501    0 -0.14774105023E+02 -0.26799999921E+02 -0.66136440944E+03  0.66207928294E+03  0.30952615458E+01 0.  0.
         13    1    3    3    0    0 -0.53636350277E+01 -0.12115024268E+02 -0.26392838081E+03  0.26426072843E+03  0.00000000000E+00 0.  1.
          1    1    3    3  501    0 -0.94104699952E+01 -0.14684975654E+02 -0.39743602863E+03  0.39781855451E+03  0.00000000000E+00 0.  1.
         -1    1    1    2    0  502  0.14774105023E+02  0.26799999921E+02 -0.33758603538E+03  0.33897027224E+03  0.00000000000E+00 0. -1.
<mgrwt>
<rscale>  1 0.30000000E+03</rscale>
<asrwt>0</asrwt>
<pdfrwt beam="1">  1       21 0.38165723E-02 0.30000000E+03</pdfrwt>
<pdfrwt beam="2">0</pdfrwt>
<totfact> 0.45502148E+04</totfact>
</mgrwt>
</event>
<event>
 6    1  0.6377696E-002  0.3000000E+03  0.7818608E-02  0.1093470E+00
         21   -1    0    0  501  502  0.00000000000E+00  0.00000000000E+00  0.22336508774E+01  0.22336508774E+01  0.00000000000E+00 0. -1.
         13   -1    0    0    0    0 -0.00000000000E+00 -0.00000000000E+00 -0.10000000000E+04  0.10000000000E+04  0.00000000000E+00 0.  1.
    9000005    2    1    2  501    0  0.35870219214E+02 -0.28117431227E+02 -0.37001296080E+03  0.37282791599E+03  0.37149982922E+01 0.  0.
         13    1    3    3    0    0  0.14631812424E+02 -0.12783464494E+02 -0.17007314532E+03  0.17117938444E+03  0.00000000000E+00 0.  1.
          3    1    3    3  501    0  0.21238406790E+02 -0.15333966733E+02 -0.19993981548E+03  0.20164853154E+03  0.00000000000E+00 0.  1.
         -3    1    1    2    0  502 -0.35870219214E+02  0.28117431227E+02 -0.62775338832E+03  0.62940573489E+03  0.00000000000E+00 0. -1.
<mgrwt>
<rscale>  1 0.30000000E+03</rscale>
<asrwt>0</asrwt>
<pdfrwt beam="1">  1       21 0.81223840E-02 0.30000000E+03</pdfrwt>
<pdfrwt beam="2">0</pdfrwt>
<totfact> 0.12437585E+04</totfact>
</mgrwt>
</event>
<event>
 6    1  0.6377696E-002  0.3000000E+03  0.7818608E-02  0.1093470E+00
         21   -1    0    0  501  502  0.00000000000E+00  0.00000000000E+00  0.19078958952E+01  0.19078958952E+01  0.00000000000E+00 0. -1.
         13   -1    0    0    0    0 -0.00000000000E+00 -0.00000000000E+00 -0.10000000000E+04  0.10000000000E+04  0.00000000000E+00 0.  1.
    9000005    2    1    2  501    0  0.35936854317E+01 -0.32693465495E+02 -0.17113352075E+03  0.17429550120E+03  0.32345872882E+01 0.  0.
         13    1    3    3    0    0  0.27771474432E+01 -0.30604760971E+02 -0.15616229620E+03  0.15915723891E+03  0.00000000000E+00 0.  1.
          3    1    3    3  501    0  0.81653798847E+00 -0.20887045233E+01 -0.14971224551E+02  0.15138262299E+02  0.00000000000E+00 0.  1.
         -3    1    1    2    0  502 -0.35936854317E+01  0.32693465495E+02 -0.82695858335E+03  0.82761239469E+03  0.00000000000E+00 0. -1.
<mgrwt>
<rscale>  1 0.30000000E+03</rscale>
<asrwt>0</asrwt>
<pdfrwt beam="1">  1       21 0.69378179E-02 0.30000000E+03</pdfrwt>
<pdfrwt beam="2">0</pdfrwt>
<totfact> 0.16387712E+04</totfact>
</mgrwt>
</event>
<event>
 6    1  0.6377696E-002  0.3000000E+03  0.7818608E-02  0.1093470E+00
         21   -1    0    0  501  502  0.00000000000E+00  0.00000000000E+00  0.18933144062E+01  0.18933144062E+01  0.00000000000E+00 0. -1.
         13   -1    0    0    0    0 -0.00000000000E+00 -0.00000000000E+00 -0.10000000000E+04  0.10000000000E+04  0.00000000000E+00 0.  1.
    9000005    2    1    2  501    0 -0.39444209885E+02 -0.14308177746E+02 -0.37308364490E+03  0.37546345318E+03  0.45638727501E+01 0.  0.
         13    1    3    3    0    0 -0.17696592912E+02 -0.40165676309E+01 -0.16078653455E+03  0.16180732959E+03  0.00000000000E+00 0.  1.
          3    1    3    3  501    0 -0.21747616973E+02 -0.10291610116E+02 -0.21229711035E+03  0.21365612359E+03  0.00000000000E+00 0.  1.
         -3    1    1    2    0  502  0.39444209885E+02  0.14308177746E+02 -0.62502304069E+03  0.62642986123E+03  0.00000000000E+00 0. -1.
<mgrwt>
<rscale>  1 0.30000000E+03</rscale>
<asrwt>0</asrwt>
<pdfrwt beam="1">  1       21 0.68847942E-02 0.30000000E+03</pdfrwt>
<pdfrwt beam="2">0</pdfrwt>
<totfact> 0.16607764E+04</totfact>
</mgrwt>
</event>
<event>
 6    1  0.6377696E-002  0.3000000E+03  0.7818608E-02  0.1093470E+00
         21   -1    0    0  501  502  0.00000000000E+00  0.00000000000E+00  0.10447572204E+01  0.10447572204E+01  0.00000000000E+00 0. -1.
         13   -1    0    0    0    0 -0.00000000000E+00 -0.00000000000E+00 -0.10000000000E+04  0.10000000000E+04  0.00000000000E+00 0.  1.
    9000005    2    1    2  501    0  0.31691488597E+02 -0.47726149910E+01 -0.45113984515E+03  0.45229268371E+03  0.37925652484E+01 0.  0.
         13    1    3    3    0    0  0.17113610757E+02 -0.25390839003E+01 -0.21680282812E+03  0.21749204330E+03  0.00000000000E+00 0.  1.
          1    1    3    3  501    0  0.14577877840E+02 -0.22335310907E+01 -0.23433701703E+03  0.23480064041E+03  0.00000000000E+00 0.  1.
         -1    1    1    2    0  502 -0.31691488597E+02  0.47726149910E+01 -0.54781539763E+03  0.54875207351E+03  0.00000000000E+00 0. -1.
<mgrwt>
<rscale>  1 0.30000000E+03</rscale>
<asrwt>0</asrwt>
<pdfrwt beam="1">  1       21 0.37991252E-02 0.30000000E+03</pdfrwt>
<pdfrwt beam="2">0</pdfrwt>
<totfact> 0.45853816E+04</totfact>
</mgrwt>
</event>
<event>
 6    1  0.6377696E-002  0.3000000E+03  0.7818608E-02  0.1093470E+00
         21   -1    0    0  501  502  0.00000000000E+00  0.00000000000E+00  0.13661772393E+01  0.13661772393E+01  0.00000000000E+00 0. -1.
         13   -1    0    0    0    0 -0.00000000000E+00 -0.00000000000E+00 -0.10000000000E+04  0.10000000000E+04  0.00000000000E+00 0.  1.
    9000005    2    1    2  501    0 -0.26533972278E+02 -0.17566174557E+02 -0.24807673205E+03  0.25013480902E+03  0.35686871213E+01 0.  0.
         13    1    3    3    0    0 -0.47580253833E+01 -0.48600711010E+01 -0.50459033297E+02  0.50915352674E+02  0.00000000000E+00 0.  1.
          1    1    3    3  501    0 -0.21775946895E+02 -0.12706103456E+02 -0.19761769875E+03  0.19921945635E+03  0.00000000000E+00 0.  1.
         -3    1    1    2    0  502  0.26533972278E+02  0.17566174557E+02 -0.75055709071E+03  0.75123136822E+03  0.00000000000E+00 0. -1.
<mgrwt>
<rscale>  1 0.30000000E+03</rscale>
<asrwt>0</asrwt>
<pdfrwt beam="1">  1       21 0.49679277E-02 0.30000000E+03</pdfrwt>
<pdfrwt beam="2">0</pdfrwt>
<totfact> 0.29122335E+04</totfact>
</mgrwt>
</event>
<event>
 6    1  0.6377696E-002  0.3000000E+03  0.7818608E-02  0.1093470E+00
         21   -1    0    0  501  502  0.00000000000E+00  0.00000000000E+00  0.22209469142E+01  0.22209469142E+01  0.00000000000E+00 0. -1.
         13   -1    0    0    0    0 -0.00000000000E+00 -0.00000000000E+00 -0.10000000000E+04  0.10000000000E+04  0.00000000000E+00 0.  1.
    9000005    2    1    2  501    0  0.11727403449E+02 -0.36747440930E+02 -0.78644569144E+03  0.78739614353E+03  0.28204338999E+01 0.  0.
         13    1    3    3    0    0  0.54276205844E+01 -0.15569958493E+02 -0.36334343167E+03  0.36371737931E+03  0.00000000000E+00 0.  1.
          1    1    3    3  501    0  0.62997828642E+01 -0.21177482437E+02 -0.42310225977E+03  0.42367876422E+03  0.00000000000E+00 0.  1.
         -3    1    1    2    0  502 -0.11727403449E+02  0.36747440930E+02 -0.21133336165E+03  0.21482480339E+03  0.00000000000E+00 0. -1.
<mgrwt>
<rscale>  1 0.30000000E+03</rscale>
<asrwt>0</asrwt>
<pdfrwt beam="1">  1       21 0.80761876E-02 0.30000000E+03</pdfrwt>
<pdfrwt beam="2">0</pdfrwt>
<totfact> 0.12562907E+04</totfact>
</mgrwt>
</event>
<event>
 6    1  0.6377696E-002  0.3000000E+03  0.7818608E-02  0.1093470E+00
         21   -1    0    0  501  502  0.00000000000E+00  0.00000000000E+00  0.10935824408E+01  0.10935824408E+01  0.00000000000E+00 0. -1.
         13   -1    0    0    0    0 -0.00000000000E+00 -0.00000000000E+00 -0.10000000000E+04  0.10000000000E+04  0.00000000000E+00 0.  1.
    9000005    2    1    2  501    0  0.25642843409E+01  0.32316660774E+02 -0.40787787966E+03  0.40917663326E+03  0.31953671579E+01 0.  0.
         13    1    3    3    0    0  0.62153281998E+00  0.89513419586E+00 -0.12532513424E+02  0.12579803695E+02  0.00000000000E+00 0.  1.
          1    1    3    3  501    0  0.19427515209E+01  0.31421526578E+02 -0.39534536623E+03  0.39659682956E+03  0.00000000000E+00 0.  1.
         -3    1    1    2    0  502 -0.25642843409E+01 -0.32316660774E+02 -0.59102853790E+03  0.59191694918E+03  0.00000000000E+00 0. -1.
<mgrwt>
<rscale>  1 0.30000000E+03</rscale>
<asrwt>0</asrwt>
<pdfrwt beam="1">  1       21 0.39766718E-02 0.30000000E+03</pdfrwt>
<pdfrwt beam="2">0</pdfrwt>
<totfact> 0.42463479E+04</totfact>
</mgrwt>
</event>
<event>
 6    1  0.6377696E-002  0.3000000E+03  0.7818608E-02  0.1093470E+00
         21   -1    0    0  501  502  0.00000000000E+00  0.00000000000E+00  0.24123852105E+01  0.24123852105E+01  0.00000000000E+00 0. -1.
         13   -1    0    0    0    0 -0.00000000000E+00 -0.00000000000E+00 -0.10000000000E+04  0.10000000000E+04  0.00000000000E+00 0.  1.
    9000005    2    1    2  501    0 -0.40635089146E+02  0.27187571197E+02 -0.51834200303E+03  0.52067933581E+03  0.61777126110E+01 0.  0.
         13    1    3    3    0    0 -0.38701563301E+02  0.26436041613E+02 -0.50580976600E+03  0.50797656903E+03  0.00000000000E+00 0.  1.
          1    1    3    3  501    0 -0.19335258448E+01  0.75152958400E+00 -0.12532237029E+02  0.12702766780E+02  0.00000000000E+00 0.  1.
         -1    1    1    2    0  502  0.40635089146E+02 -0.27187571197E+02 -0.47924561176E+03  0.48173304941E+03  0.00000000000E+00 0. -1.
<mgrwt>
<rscale>  1 0.30000000E+03</rscale>
<asrwt>0</asrwt>
<pdfrwt beam="1">  1       21 0.87723284E-02 0.30000000E+03</pdfrwt>
<pdfrwt beam="2">0</pdfrwt>
<totfact> 0.10859491E+04</totfact>
</mgrwt>
</event>
<event>
 6    1  0.6377696E-002  0.3000000E+03  0.7818608E-02  0.1093470E+00
         21   -1    0    0  501  502  0.00000000000E+00  0.00000000000E+00  0.21140287606E+01  0.21140287606E+01  0.00000000000E+00 0. -1.
         13   -1    0    0    0    0 -0.00000000000E+00 -0.00000000000E+00 -0.10000000000E+04  0.10000000000E+04  0.00000000000E+00 0.  1.
    9000005    2    1    2  501    0  0.19173140130E+02 -0.25067423503E+02 -0.86315741623E+03  0.86373856649E+03  0.27569959546E+01 0.  0.
         13    1    3    3    0    0  0.15983075623E+02 -0.19035216092E+02 -0.67635720760E+03  0.67681376347E+03  0.00000000000E+00 0.  1.
          3    1    3    3  501    0  0.31900645066E+01 -0.60322074111E+01 -0.18680020864E+03  0.18692480302E+03  0.00000000000E+00 0.  1.
         -3    1    1    2    0  502 -0.19173140130E+02  0.25067423503E+02 -0.13472855501E+03  0.13837546227E+03  0.00000000000E+00 0. -1.
<mgrwt>
<rscale>  1 0.30000000E+03</rscale>
<asrwt>0</asrwt>
<pdfrwt beam="1">  1       21 0.76873935E-02 0.30000000E+03</pdfrwt>
<pdfrwt beam="2">0</pdfrwt>
<totfact> 0.13699218E+04</totfact>
</mgrwt>
</event>
<event>
 6    1  0.6377696E-002  0.3000000E+03  0.7818608E-02  0.1093470E+00
         21   -1    0    0  501  502  0.00000000000E+00  0.00000000000E+00  0.35145845505E+01  0.35145845505E+01  0.00000000000E+00 0. -1.
         13   -1    0    0    0    0 -0.00000000000E+00 -0.00000000000E+00 -0.10000000000E+04  0.10000000000E+04  0.00000000000E+00 0.  1.
    9000005    2    1    2  501    0  0.26422071916E+02  0.20097417637E+02 -0.83521097119E+02  0.89946919501E+02  0.35556411018E+01 0.  0.
         13    1    3    3    0    0  0.17777833696E+02  0.11698758664E+02 -0.55711884164E+02  0.59638296105E+02  0.00000000000E+00 0.  1.
          1    1    3    3  501    0  0.86442382208E+01  0.83986589735E+01 -0.27809212955E+02  0.30308623396E+02  0.00000000000E+00 0.  1.
         -3    1    1    2    0  502 -0.26422071916E+02 -0.20097417637E+02 -0.91296431833E+03  0.91356766505E+03  0.00000000000E+00 0. -1.
<mgrwt>
<rscale>  1 0.30000000E+03</rscale>
<asrwt>0</asrwt>
<pdfrwt beam="1">  1       21 0.12780334E-01 0.30000000E+03</pdfrwt>
<pdfrwt beam="2">0</pdfrwt>
<totfact> 0.55257411E+03</totfact>
</mgrwt>
</event>
<event>
 6    1  0.6377696E-002  0.3000000E+03  0.7818608E-02  0.1093470E+00
         21   -1    0    0  501  502  0.00000000000E+00  0.00000000000E+00  0.22087221452E+01  0.22087221452E+01  0.00000000000E+00 0. -1.
         13   -1    0    0    0    0 -0.00000000000E+00 -0.00000000000E+00 -0.10000000000E+04  0.10000000000E+04  0.00000000000E+00 0.  1.
    9000005    2    1    2  501    0 -0.89063700849E+00  0.46687070588E+02 -0.44687024997E+03  0.44931229897E+03  0.28365301153E+01 0.  0.
         13    1    3    3    0    0 -0.12382485145E+01  0.22066759576E+02 -0.20029859291E+03  0.20151427111E+03  0.00000000000E+00 0.  1.
          3    1    3    3  501    0  0.34761150598E+00  0.24620311012E+02 -0.24657165706E+03  0.24779802786E+03  0.00000000000E+00 0.  1.
         -3    1    1    2    0  502  0.89063700849E+00 -0.46687070588E+02 -0.55092102788E+03  0.55289642317E+03  0.00000000000E+00 0. -1.
<mgrwt>
<rscale>  1 0.30000000E+03</rscale>
<asrwt>0</asrwt>
<pdfrwt beam="1">  1       21 0.80317338E-02 0.30000000E+03</pdfrwt>
<pdfrwt beam="2">0</pdfrwt>
<totfact> 0.12685342E+04</totfact>
</mgrwt>
</event>
<event>
 6    1  0.6377696E-002  0.3000000E+03  0.7818608E-02  0.1093470E+00
         21   -1    0    0  501  502  0.00000000000E+00  0.00000000000E+00  0.19465966348E+01  0.19465966348E+01  0.00000000000E+00 0. -1.
         13   -1    0    0    0    0 -0.00000000000E+00 -0.00000000000E+00 -0.10000000000E+04  0.10000000000E+04  0.00000000000E+00 0.  1.
    9000005    2    1    2  501    0 -0.19387654820E+02 -0.37671372626E+02 -0.63576656508E+03  0.63719083360E+03  0.42449582598E+01 0.  0.
         13    1    3    3    0    0 -0.61038640677E+01 -0.16030452089E+02 -0.24396162557E+03  0.24456391251E+03  0.00000000000E+00 0.  1.
          1    1    3    3  501    0 -0.13283790753E+02 -0.21640920537E+02 -0.39180493951E+03  0.39262692109E+03  0.00000000000E+00 0.  1.
         -3    1    1    2    0  502  0.19387654820E+02  0.37671372626E+02 -0.36228683828E+03  0.36475576304E+03  0.00000000000E+00 0. -1.
<mgrwt>
<rscale>  1 0.30000000E+03</rscale>
<asrwt>0</asrwt>
<pdfrwt beam="1">  1       21 0.70785481E-02 0.30000000E+03</pdfrwt>
<pdfrwt beam="2">0</pdfrwt>
<totfact> 0.15824825E+04</totfact>
</mgrwt>
</event>
<event>
 6    1  0.6377696E-002  0.3000000E+03  0.7818608E-02  0.1093470E+00
         21   -1    0    0  501  502  0.00000000000E+00  0.00000000000E+00  0.92129259562E+00  0.92129259562E+00  0.00000000000E+00 0. -1.
         13   -1    0    0    0    0 -0.00000000000E+00 -0.00000000000E+00 -0.10000000000E+04  0.10000000000E+04  0.00000000000E+00 0.  1.
    9000005    2    1    2  501    0  0.12806488258E+02  0.27389586630E+02 -0.52185346503E+03  0.52273918549E+03  0.33198622009E+01 0.  0.
         13    1    3    3    0    0  0.42672639855E+01  0.94030903636E+01 -0.15219838078E+03  0.15254827027E+03  0.00000000000E+00 0.  1.
          1    1    3    3  501    0  0.85392242724E+01  0.17986496267E+02 -0.36965508425E+03  0.37019091522E+03  0.00000000000E+00 0.  1.
         -3    1    1    2    0  502 -0.12806488258E+02 -0.27389586630E+02 -0.47722524237E+03  0.47818210710E+03  0.00000000000E+00 0. -1.
<mgrwt>
<rscale>  1 0.30000000E+03</rscale>
<asrwt>0</asrwt>
<pdfrwt beam="1">  1       21 0.33501620E-02 0.30000000E+03</pdfrwt>
<pdfrwt beam="2">0</pdfrwt>
<totfact> 0.56610240E+04</totfact>
</mgrwt>
</event>
<event>
 6    1  0.6377696E-002  0.3000000E+03  0.7818608E-02  0.1093470E+00
         21   -1    0    0  501  502  0.00000000000E+00  0.00000000000E+00  0.30839992079E+01  0.30839992079E+01  0.00000000000E+00 0. -1.
         13   -1    0    0    0    0 -0.00000000000E+00 -0.00000000000E+00 -0.10000000000E+04  0.10000000000E+04  0.00000000000E+00 0.  1.
    9000005    2    1    2  501    0  0.43183539263E+02 -0.19194486881E+01 -0.18545135390E+03  0.19046885321E+03  0.42044064890E+01 0.  0.
         13    1    3    3    0    0  0.11624455660E+02 -0.17893701553E+01 -0.44548602548E+02  0.46075023645E+02  0.00000000000E+00 0.  1.
          3    1    3    3  501    0  0.31559083604E+02 -0.13007853275E+00 -0.14090275135E+03  0.14439382957E+03  0.00000000000E+00 0.  1.
         -1    1    1    2    0  502 -0.43183539263E+02  0.19194486881E+01 -0.81146464689E+03  0.81261514599E+03  0.00000000000E+00 0. -1.
<mgrwt>
<rscale>  1 0.30000000E+03</rscale>
<asrwt>0</asrwt>
<pdfrwt beam="1">  1       21 0.11214566E-01 0.30000000E+03</pdfrwt>
<pdfrwt beam="2">0</pdfrwt>
<totfact> 0.70040949E+03</totfact>
</mgrwt>
</event>
<event>
 6    1  0.6377696E-002  0.3000000E+03  0.7818608E-02  0.1093470E+00
         21   -1    0    0  501  502  0.00000000000E+00  0.00000000000E+00  0.10933349268E+01  0.10933349268E+01  0.00000000000E+00 0. -1.
         13   -1    0    0    0    0 -0.00000000000E+00 -0.00000000000E+00 -0.10000000000E+04  0.10000000000E+04  0.00000000000E+00 0.  1.
    9000005    2    1    2  501    0  0.30534372620E+02  0.12387575919E+02 -0.48149713734E+03  0.48263560344E+03  0.34398391992E+01 0.  0.
         13    1    3    3    0    0  0.26234982842E+02  0.11642206848E+02 -0.40702579453E+03  0.40803653356E+03  0.00000000000E+00 0.  1.
          3    1    3    3  501    0  0.42993897776E+01  0.74536907077E+00 -0.74471342802E+02  0.74599069875E+02  0.00000000000E+00 0.  1.
         -1    1    1    2    0  502 -0.30534372620E+02 -0.12387575919E+02 -0.51740952774E+03  0.51845773149E+03  0.00000000000E+00 0. -1.
<mgrwt>
<rscale>  1 0.30000000E+03</rscale>
<asrwt>0</asrwt>
<pdfrwt beam="1">  1       21 0.39757718E-02 0.30000000E+03</pdfrwt>
<pdfrwt beam="2">0</pdfrwt>
<totfact> 0.42479665E+04</totfact>
</mgrwt>
</event>
<event>
 6    1  0.6377696E-002  0.3000000E+03  0.7818608E-02  0.1093470E+00
         21   -1    0    0  501  502  0.00000000000E+00  0.00000000000E+00  0.19309417047E+01  0.19309417047E+01  0.00000000000E+00 0. -1.
         13   -1    0    0    0    0 -0.00000000000E+00 -0.00000000000E+00 -0.10000000000E+04  0.10000000000E+04  0.00000000000E+00 0.  1.
    9000005    2    1    2  501    0  0.42782467826E+02 -0.24695182216E+01 -0.60286891293E+03  0.60441415845E+03  0.53954315988E+01 0.  0.
         13    1    3    3    0    0  0.33509670581E+02  0.22625037187E+00 -0.47635913295E+03  0.47753635752E+03  0.00000000000E+00 0.  1.
          1    1    3    3  501    0  0.92727972454E+01 -0.26957685935E+01 -0.12650977998E+03  0.12687780093E+03  0.00000000000E+00 0.  1.
         -1    1    1    2    0  502 -0.42782467826E+02  0.24695182216E+01 -0.39520014536E+03  0.39751678325E+03  0.00000000000E+00 0. -1.
<mgrwt>
<rscale>  1 0.30000000E+03</rscale>
<asrwt>0</asrwt>
<pdfrwt beam="1">  1       21 0.70216210E-02 0.30000000E+03</pdfrwt>
<pdfrwt beam="2">0</pdfrwt>
<totfact> 0.16048908E+04</totfact>
</mgrwt>
</event>
<event>
 6    1  0.6377696E-002  0.3000000E+03  0.7818608E-02  0.1093470E+00
         21   -1    0    0  501  502  0.00000000000E+00  0.00000000000E+00  0.20358010836E+01  0.20358010836E+01  0.00000000000E+00 0. -1.
         13   -1    0    0    0    0 -0.00000000000E+00 -0.00000000000E+00 -0.10000000000E+04  0.10000000000E+04  0.00000000000E+00 0.  1.
    9000005    2    1    2  501    0 -0.10560819011E+01 -0.44569937022E+02 -0.57252239306E+03  0.57426445472E+03  0.31904248122E+01 0.  0.
         13    1    3    3    0    0  0.10896723847E+00 -0.14830317703E+02 -0.17246110333E+03  0.17309760934E+03  0.00000000000E+00 0.  1.
          1    1    3    3  501    0 -0.11650491396E+01 -0.29739619319E+02 -0.40006128973E+03  0.40116684538E+03  0.00000000000E+00 0.  1.
         -3    1    1    2    0  502  0.10560819011E+01  0.44569937022E+02 -0.42544180586E+03  0.42777134636E+03  0.00000000000E+00 0. -1.
<mgrwt>
<rscale>  1 0.30000000E+03</rscale>
<asrwt>0</asrwt>
<pdfrwt beam="1">  1       21 0.74029286E-02 0.30000000E+03</pdfrwt>
<pdfrwt beam="2">0</pdfrwt>
<totfact> 0.14634355E+04</totfact>
</mgrwt>
</event>
<event>
 6    1  0.6377696E-002  0.3000000E+03  0.7818608E-02  0.1093470E+00
         21   -1    0    0  501  502  0.00000000000E+00  0.00000000000E+00  0.50822487647E+01  0.50822487647E+01  0.00000000000E+00 0. -1.
         13   -1    0    0    0    0 -0.00000000000E+00 -0.00000000000E+00 -0.10000000000E+04  0.10000000000E+04  0.00000000000E+00 0.  1.
    9000005    2    1    2  501    0 -0.62065208308E+02 -0.20603264216E+02 -0.69700771067E+03  0.70007900805E+03  0.37794438747E+01 0.  0.
         13    1    3    3    0    0 -0.50043106589E+02 -0.15214818562E+02 -0.54879758764E+03  0.55128449590E+03  0.00000000000E+00 0.  1.
          3    1    3    3  501    0 -0.12022101719E+02 -0.53884456538E+01 -0.14821012304E+03  0.14879451215E+03  0.00000000000E+00 0.  1.
         -3    1    1    2    0  502  0.62065208308E+02  0.20603264216E+02 -0.29791004056E+03  0.30500324071E+03  0.00000000000E+00 0. -1.
<mgrwt>
<rscale>  1 0.30000000E+03</rscale>
<asrwt>0</asrwt>
<pdfrwt beam="1">  1       21 0.18480944E-01 0.30000000E+03</pdfrwt>
<pdfrwt beam="2">0</pdfrwt>
<totfact> 0.27874153E+03</totfact>
</mgrwt>
</event>
<event>
 6    1  0.6377696E-002  0.3000000E+03  0.7818608E-02  0.1093470E+00
         21   -1    0    0  501  502  0.00000000000E+00  0.00000000000E+00  0.15332306643E+01  0.15332306643E+01  0.00000000000E+00 0. -1.
         13   -1    0    0    0    0 -0.00000000000E+00 -0.00000000000E+00 -0.10000000000E+04  0.10000000000E+04  0.00000000000E+00 0.  1.
    9000005    2    1    2  501    0  0.28607528786E+02  0.26218252646E+02 -0.49447183674E+03  0.49604665363E+03  0.73551191663E+01 0.  0.
         13    1    3    3    0    0  0.87558559866E+01  0.54240909975E+01 -0.10015756721E+03  0.10068576883E+03  0.00000000000E+00 0.  1.
          3    1    3    3  501    0  0.19851672799E+02  0.20794161649E+02 -0.39431426953E+03  0.39536088480E+03  0.00000000000E+00 0.  1.
         -1    1    1    2    0  502 -0.28607528786E+02 -0.26218252646E+02 -0.50399493260E+03  0.50548657703E+03  0.00000000000E+00 0. -1.
<mgrwt>
<rscale>  1 0.30000000E+03</rscale>
<asrwt>0</asrwt>
<pdfrwt beam="1">  1       21 0.55753960E-02 0.30000000E+03</pdfrwt>
<pdfrwt beam="2">0</pdfrwt>
<totfact> 0.23909115E+04</totfact>
</mgrwt>
</event>
<event>
 6    1  0.6377696E-002  0.3000000E+03  0.7818608E-02  0.1093470E+00
         21   -1    0    0  501  502  0.00000000000E+00  0.00000000000E+00  0.30998647217E+01  0.30998647217E+01  0.00000000000E+00 0. -1.
         13   -1    0    0    0    0 -0.00000000000E+00 -0.00000000000E+00 -0.10000000000E+04  0.10000000000E+04  0.00000000000E+00 0.  1.
    9000005    2    1    2  501    0  0.16430897104E+01 -0.54867238681E+02 -0.58042193391E+03  0.58301986539E+03  0.30705781727E+01 0.  0.
         13    1    3    3    0    0 -0.22683593145E+00 -0.35738801097E+02 -0.37017087916E+03  0.37189217945E+03  0.00000000000E+00 0.  1.
          1    1    3    3  501    0  0.18699256419E+01 -0.19128437583E+02 -0.21025105475E+03  0.21112768594E+03  0.00000000000E+00 0.  1.
         -1    1    1    2    0  502 -0.16430897104E+01  0.54867238681E+02 -0.41647820137E+03  0.42007999933E+03  0.00000000000E+00 0. -1.
<mgrwt>
<rscale>  1 0.30000000E+03</rscale>
<asrwt>0</asrwt>
<pdfrwt beam="1">  1       21 0.11272259E-01 0.30000000E+03</pdfrwt>
<pdfrwt beam="2">0</pdfrwt>
<totfact> 0.69396067E+03</totfact>
</mgrwt>
</event>
<event>
 6    1  0.6377696E-002  0.3000000E+03  0.7818608E-02  0.1093470E+00
         21   -1    0    0  501  502  0.00000000000E+00  0.00000000000E+00  0.18917630909E+01  0.18917630909E+01  0.00000000000E+00 0. -1.
         13   -1    0    0    0    0 -0.00000000000E+00 -0.00000000000E+00 -0.10000000000E+04  0.10000000000E+04  0.00000000000E+00 0.  1.
    9000005    2    1    2  501    0 -0.27254486749E+02 -0.33777301668E+02 -0.51672203900E+03  0.51855297435E+03  0.34363457070E+01 0.  0.
         13    1    3    3    0    0 -0.22109336425E+01 -0.44755360483E+01 -0.59175583634E+02  0.59385758805E+02  0.00000000000E+00 0.  1.
          3    1    3    3  501    0 -0.25043553107E+02 -0.29301765619E+02 -0.45754645536E+03  0.45916721555E+03  0.00000000000E+00 0.  1.
         -3    1    1    2    0  502  0.27254486749E+02  0.33777301668E+02 -0.48138619791E+03  0.48333878874E+03  0.00000000000E+00 0. -1.
<mgrwt>
<rscale>  1 0.30000000E+03</rscale>
<asrwt>0</asrwt>
<pdfrwt beam="1">  1       21 0.68791530E-02 0.30000000E+03</pdfrwt>
<pdfrwt beam="2">0</pdfrwt>
<totfact> 0.16631441E+04</totfact>
</mgrwt>
</event>
<event>
 6    1  0.6377696E-002  0.3000000E+03  0.7818608E-02  0.1093470E+00
         21   -1    0    0  501  502  0.00000000000E+00  0.00000000000E+00  0.12442255586E+01  0.12442255586E+01  0.00000000000E+00 0. -1.
         13   -1    0    0    0    0 -0.00000000000E+00 -0.00000000000E+00 -0.10000000000E+04  0.10000000000E+04  0.00000000000E+00 0.  1.
    9000005    2    1    2  501    0 -0.26781167856E+02 -0.15306717139E+02 -0.74109105172E+03  0.74173962854E+03  0.31942226962E+01 0.  0.
         13    1    3    3    0    0 -0.13016390971E+02 -0.83399115124E+01 -0.33761041291E+03  0.33796415707E+03  0.00000000000E+00 0.  1.
          3    1    3    3  501    0 -0.13764776885E+02 -0.69668056264E+01 -0.40348063881E+03  0.40377547147E+03  0.00000000000E+00 0.  1.
         -1    1    1    2    0  502  0.26781167856E+02  0.15306717139E+02 -0.25766472272E+03  0.25950459702E+03  0.00000000000E+00 0. -1.
<mgrwt>
<rscale>  1 0.30000000E+03</rscale>
<asrwt>0</asrwt>
<pdfrwt beam="1">  1       21 0.45244661E-02 0.30000000E+03</pdfrwt>
<pdfrwt beam="2">0</pdfrwt>
<totfact> 0.34142527E+04</totfact>
</mgrwt>
</event>
<event>
 6    1  0.6377696E-002  0.3000000E+03  0.7818608E-02  0.1093470E+00
         21   -1    0    0  501  502  0.00000000000E+00  0.00000000000E+00  0.22849819068E+01  0.22849819068E+01  0.00000000000E+00 0. -1.
         13   -1    0    0    0    0 -0.00000000000E+00 -0.00000000000E+00 -0.10000000000E+04  0.10000000000E+04  0.00000000000E+00 0.  1.
    9000005    2    1    2  501    0  0.40783483329E+02 -0.11024221095E+02 -0.73259967908E+03  0.73382461436E+03  0.33836207903E+01 0.  0.
         13    1    3    3    0    0  0.22756434855E+02 -0.51011477076E+01 -0.42704210396E+03  0.42767842545E+03  0.00000000000E+00 0.  1.
          3    1    3    3  501    0  0.18027048475E+02 -0.59230733869E+01 -0.30555757511E+03  0.30614618891E+03  0.00000000000E+00 0.  1.
         -3    1    1    2    0  502 -0.40783483329E+02  0.11024221095E+02 -0.26511533902E+03  0.26846036755E+03  0.00000000000E+00 0. -1.
<mgrwt>
<rscale>  1 0.30000000E+03</rscale>
<asrwt>0</asrwt>
<pdfrwt beam="1">  1       21 0.83090426E-02 0.30000000E+03</pdfrwt>
<pdfrwt beam="2">0</pdfrwt>
<totfact> 0.11950235E+04</totfact>
</mgrwt>
</event>
<event>
 6    1  0.6377696E-002  0.3000000E+03  0.7818608E-02  0.1093470E+00
         21   -1    0    0  501  502  0.00000000000E+00  0.00000000000E+00  0.15506682834E+01  0.15506682834E+01  0.00000000000E+00 0. -1.
         13   -1    0    0    0    0 -0.00000000000E+00 -0.00000000000E+00 -0.10000000000E+04  0.10000000000E+04  0.00000000000E+00 0.  1.
    9000005    2    1    2  501    0  0.26413426073E+02 -0.15728930374E+02 -0.81138044688E+03  0.81197262103E+03  0.40298126754E+01 0.  0.
         13    1    3    3    0    0  0.25441703000E+02 -0.15494807676E+02 -0.79754340070E+03  0.79809952094E+03  0.00000000000E+00 0.  1.
          3    1    3    3  501    0  0.97172307397E+00 -0.23412269827E+00 -0.13837046180E+02  0.13873100092E+02  0.00000000000E+00 0.  1.
         -1    1    1    2    0  502 -0.26413426073E+02  0.15728930374E+02 -0.18706888483E+03  0.18957804725E+03  0.00000000000E+00 0. -1.
<mgrwt>
<rscale>  1 0.30000000E+03</rscale>
<asrwt>0</asrwt>
<pdfrwt beam="1">  1       21 0.56388056E-02 0.30000000E+03</pdfrwt>
<pdfrwt beam="2">0</pdfrwt>
<totfact> 0.23449283E+04</totfact>
</mgrwt>
</event>
<event>
 6    1  0.6377696E-002  0.3000000E+03  0.7818608E-02  0.1093470E+00
         21   -1    0    0  501  502  0.00000000000E+00  0.00000000000E+00  0.12166891004E+01  0.12166891004E+01  0.00000000000E+00 0. -1.
         13   -1    0    0    0    0 -0.00000000000E+00 -0.00000000000E+00 -0.10000000000E+04  0.10000000000E+04  0.00000000000E+00 0.  1.
    9000005    2    1    2  501    0 -0.44439269427E+01 -0.29939251655E+02 -0.25323059783E+03  0.25504984768E+03  0.29294787433E+01 0.  0.
         13    1    3    3    0    0 -0.41382066174E+01 -0.27174218733E+02 -0.22190406829E+03  0.22360004124E+03  0.00000000000E+00 0.  1.
          3    1    3    3  501    0 -0.30572032526E+00 -0.27650329220E+01 -0.31326529543E+02  0.31449806441E+02  0.00000000000E+00 0.  1.
         -3    1    1    2    0  502  0.44439269427E+01  0.29939251655E+02 -0.74555271307E+03  0.74616684142E+03  0.00000000000E+00 0. -1.
<mgrwt>
<rscale>  1 0.30000000E+03</rscale>
<asrwt>0</asrwt>
<pdfrwt beam="1">  1       21 0.44243333E-02 0.30000000E+03</pdfrwt>
<pdfrwt beam="2">0</pdfrwt>
<totfact> 0.35463472E+04</totfact>
</mgrwt>
</event>
<event>
 6    1  0.6377696E-002  0.3000000E+03  0.7818608E-02  0.1093470E+00
         21   -1    0    0  501  502  0.00000000000E+00  0.00000000000E+00  0.50520787737E+01  0.50520787737E+01  0.00000000000E+00 0. -1.
         13   -1    0    0    0    0 -0.00000000000E+00 -0.00000000000E+00 -0.10000000000E+04  0.10000000000E+04  0.00000000000E+00 0.  1.
    9000005    2    1    2  501    0  0.54894420884E+02 -0.25649399101E+02 -0.23591830388E+03  0.24360789230E+03  0.40087358077E+01 0.  0.
         13    1    3    3    0    0  0.52994939336E+02 -0.24833238435E+02 -0.22444452300E+03  0.23194934195E+03  0.00000000000E+00 0.  1.
          1    1    3    3  501    0  0.18994815485E+01 -0.81616066598E+00 -0.11473780887E+02  0.11658550348E+02  0.00000000000E+00 0.  1.
         -3    1    1    2    0  502 -0.54894420884E+02  0.25649399101E+02 -0.75902961734E+03  0.76144418648E+03  0.00000000000E+00 0. -1.
<mgrwt>
<rscale>  1 0.30000000E+03</rscale>
<asrwt>0</asrwt>
<pdfrwt beam="1">  1       21 0.18371234E-01 0.30000000E+03</pdfrwt>
<pdfrwt beam="2">0</pdfrwt>
<totfact> 0.28189315E+03</totfact>
</mgrwt>
</event>
<event>
 6    1  0.6377696E-002  0.3000000E+03  0.7818608E-02  0.1093470E+00
         21   -1    0    0  501  502  0.00000000000E+00  0.00000000000E+00  0.11961053057E+01  0.11961053057E+01  0.00000000000E+00 0. -1.
         13   -1    0    0    0    0 -0.00000000000E+00 -0.00000000000E+00 -0.10000000000E+04  0.10000000000E+04  0.00000000000E+00 0.  1.
    9000005    2    1    2  501    0  0.33469785040E+02 -0.26923727225E+01 -0.38495708809E+03  0.38643161596E+03  0.31557505583E+01 0.  0.
         13    1    3    3    0    0  0.31653315891E+02 -0.31003514291E+01 -0.35779466056E+03  0.35920546169E+03  0.00000000000E+00 0.  1.
          1    1    3    3  501    0  0.18164691488E+01  0.40797870658E+00 -0.27162427529E+02  0.27226154265E+02  0.00000000000E+00 0.  1.
         -3    1    1    2    0  502 -0.33469785040E+02  0.26923727225E+01 -0.61384680661E+03  0.61476448935E+03  0.00000000000E+00 0. -1.
<mgrwt>
<rscale>  1 0.30000000E+03</rscale>
<asrwt>0</asrwt>
<pdfrwt beam="1">  1       21 0.43494830E-02 0.30000000E+03</pdfrwt>
<pdfrwt beam="2">0</pdfrwt>
<totfact> 0.36503216E+04</totfact>
</mgrwt>
</event>
<event>
 6    1  0.6377696E-002  0.3000000E+03  0.7818608E-02  0.1093470E+00
         21   -1    0    0  501  502  0.00000000000E+00  0.00000000000E+00  0.20094528940E+01  0.20094528940E+01  0.00000000000E+00 0. -1.
         13   -1    0    0    0    0 -0.00000000000E+00 -0.00000000000E+00 -0.10000000000E+04  0.10000000000E+04  0.00000000000E+00 0.  1.
    9000005    2    1    2  501    0  0.93244356395E+01 -0.41136524535E+02 -0.33220213459E+03  0.33488624913E+03  0.33738529837E+01 0.  0.
         13    1    3    3    0    0  0.91068722407E+00 -0.53707915183E+01 -0.34955847149E+02  0.35377761414E+02  0.00000000000E+00 0.  1.
          3    1    3    3  501    0  0.84137484154E+01 -0.35765733016E+02 -0.29724628744E+03  0.29950848772E+03  0.00000000000E+00 0.  1.
         -1    1    1    2    0  502 -0.93244356395E+01  0.41136524535E+02 -0.66578841252E+03  0.66712320376E+03  0.00000000000E+00 0. -1.
<mgrwt>
<rscale>  1 0.30000000E+03</rscale>
<asrwt>0</asrwt>
<pdfrwt beam="1">  1       21 0.73071168E-02 0.30000000E+03</pdfrwt>
<pdfrwt beam="2">0</pdfrwt>
<totfact> 0.14971426E+04</totfact>
</mgrwt>
</event>
<event>
 6    1  0.6377696E-002  0.3000000E+03  0.7818608E-02  0.1093470E+00
         21   -1    0    0  501  502  0.00000000000E+00  0.00000000000E+00  0.54096211395E+01  0.54096211395E+01  0.00000000000E+00 0. -1.
         13   -1    0    0    0    0 -0.00000000000E+00 -0.00000000000E+00 -0.10000000000E+04  0.10000000000E+04  0.00000000000E+00 0.  1.
    9000005    2    1    2  501    0 -0.71688449893E+02  0.16318476211E+02 -0.49299934149E+03  0.49845883923E+03  0.27087224793E+01 0.  0.
         13    1    3    3    0    0 -0.55877415708E+01  0.20277313320E+01 -0.39894107763E+02  0.40334530919E+02  0.00000000000E+00 0.  1.
          1    1    3    3  501    0 -0.66100708322E+02  0.14290744879E+02 -0.45310523373E+03  0.45812430831E+03  0.00000000000E+00 0.  1.
         -1    1    1    2    0  502  0.71688449893E+02 -0.16318476211E+02 -0.50159103737E+03  0.50695078191E+03  0.00000000000E+00 0. -1.
<mgrwt>
<rscale>  1 0.30000000E+03</rscale>
<asrwt>0</asrwt>
<pdfrwt beam="1">  1       21 0.19671391E-01 0.30000000E+03</pdfrwt>
<pdfrwt beam="2">0</pdfrwt>
<totfact> 0.24762170E+03</totfact>
</mgrwt>
</event>
<event>
 6    1  0.6377696E-002  0.3000000E+03  0.7818608E-02  0.1093470E+00
         21   -1    0    0  501  502  0.00000000000E+00  0.00000000000E+00  0.10812842091E+01  0.10812842091E+01  0.00000000000E+00 0. -1.
         13   -1    0    0    0    0 -0.00000000000E+00 -0.00000000000E+00 -0.10000000000E+04  0.10000000000E+04  0.00000000000E+00 0.  1.
    9000005    2    1    2  501    0 -0.14650979232E+02  0.28792293593E+02 -0.57932262829E+03  0.58024340093E+03  0.49040088575E+01 0.  0.
         13    1    3    3    0    0 -0.14345849409E+02  0.28958751550E+02 -0.57450580308E+03  0.57541405133E+03  0.00000000000E+00 0.  1.
          3    1    3    3  501    0 -0.30512982309E+00 -0.16645795675E+00 -0.48168252114E+01  0.48293496019E+01  0.00000000000E+00 0.  1.
         -3    1    1    2    0  502  0.14650979232E+02 -0.28792293593E+02 -0.41959608750E+03  0.42083788328E+03  0.00000000000E+00 0. -1.
<mgrwt>
<rscale>  1 0.30000000E+03</rscale>
<asrwt>0</asrwt>
<pdfrwt beam="1">  1       21 0.39319509E-02 0.30000000E+03</pdfrwt>
<pdfrwt beam="2">0</pdfrwt>
<totfact> 0.43279507E+04</totfact>
</mgrwt>
</event>
<event>
 6    1  0.6377696E-002  0.3000000E+03  0.7818608E-02  0.1093470E+00
         21   -1    0    0  501  502  0.00000000000E+00  0.00000000000E+00  0.30569201095E+01  0.30569201095E+01  0.00000000000E+00 0. -1.
         13   -1    0    0    0    0 -0.00000000000E+00 -0.00000000000E+00 -0.10000000000E+04  0.10000000000E+04  0.00000000000E+00 0.  1.
    9000005    2    1    2  501    0 -0.16857724992E+02 -0.50010044753E+02 -0.64692018097E+03  0.64907780034E+03  0.33290948139E+01 0.  0.
         13    1    3    3    0    0 -0.16034272992E+02 -0.45368024346E+02 -0.58089312003E+03  0.58288264036E+03  0.00000000000E+00 0.  1.
          3    1    3    3  501    0 -0.82345200003E+00 -0.46420204070E+01 -0.66027060948E+02  0.66195159975E+02  0.00000000000E+00 0.  1.
         -3    1    1    2    0  502  0.16857724992E+02  0.50010044753E+02 -0.35002289892E+03  0.35397911977E+03  0.00000000000E+00 0. -1.
<mgrwt>
<rscale>  1 0.30000000E+03</rscale>
<asrwt>0</asrwt>
<pdfrwt beam="1">  1       21 0.11116097E-01 0.30000000E+03</pdfrwt>
<pdfrwt beam="2">0</pdfrwt>
<totfact> 0.71162640E+03</totfact>
</mgrwt>
</event>
<event>
 6    1  0.6377696E-002  0.3000000E+03  0.7818608E-02  0.1093470E+00
         21   -1    0    0  501  502  0.00000000000E+00  0.00000000000E+00  0.11197075647E+01  0.11197075647E+01  0.00000000000E+00 0. -1.
         13   -1    0    0    0    0 -0.00000000000E+00 -0.00000000000E+00 -0.10000000000E+04  0.10000000000E+04  0.00000000000E+00 0.  1.
    9000005    2    1    2  501    0 -0.16553662964E+02 -0.25334138221E+02 -0.71101574196E+03  0.71166877608E+03  0.36358239361E+01 0.  0.
         13    1    3    3    0    0 -0.10747822378E+02 -0.13498219106E+02 -0.42161136923E+03  0.42196429264E+03  0.00000000000E+00 0.  1.
          3    1    3    3  501    0 -0.58058405862E+01 -0.11835919114E+02 -0.28940437273E+03  0.28970448343E+03  0.00000000000E+00 0.  1.
         -3    1    1    2    0  502  0.16553662964E+02  0.25334138221E+02 -0.28786455048E+03  0.28945093149E+03  0.00000000000E+00 0. -1.
<mgrwt>
<rscale>  1 0.30000000E+03</rscale>
<asrwt>0</asrwt>
<pdfrwt beam="1">  1       21 0.40716725E-02 0.30000000E+03</pdfrwt>
<pdfrwt beam="2">0</pdfrwt>
<totfact> 0.40807850E+04</totfact>
</mgrwt>
</event>
<event>
 6    1  0.6377696E-002  0.3000000E+03  0.7818608E-02  0.1093470E+00
         21   -1    0    0  501  502  0.00000000000E+00  0.00000000000E+00  0.15227790610E+01  0.15227790610E+01  0.00000000000E+00 0. -1.
         13   -1    0    0    0    0 -0.00000000000E+00 -0.00000000000E+00 -0.10000000000E+04  0.10000000000E+04  0.00000000000E+00 0.  1.
    9000005    2    1    2  501    0  0.27889589844E+02 -0.27063561225E+02 -0.46582488232E+03  0.46745463790E+03  0.32790146627E+01 0.  0.
         13    1    3    3    0    0  0.23944190577E+02 -0.21516514974E+02 -0.38620789504E+03  0.38754718792E+03  0.00000000000E+00 0.  1.
          1    1    3    3  501    0  0.39453992664E+01 -0.55470462510E+01 -0.79616987286E+02  0.79907449978E+02  0.00000000000E+00 0.  1.
         -1    1    1    2    0  502 -0.27889589844E+02  0.27063561225E+02 -0.53265233862E+03  0.53406814116E+03  0.00000000000E+00 0. -1.
<mgrwt>
<rscale>  1 0.30000000E+03</rscale>
<asrwt>0</asrwt>
<pdfrwt beam="1">  1       21 0.55373901E-02 0.30000000E+03</pdfrwt>
<pdfrwt beam="2">0</pdfrwt>
<totfact> 0.24191401E+04</totfact>
</mgrwt>
</event>
<event>
 6    1  0.6377696E-002  0.3000000E+03  0.7818608E-02  0.1093470E+00
         21   -1    0    0  501  502  0.00000000000E+00  0.00000000000E+00  0.38033087628E+01  0.38033087628E+01  0.00000000000E+00 0. -1.
         13   -1    0    0    0    0 -0.00000000000E+00 -0.00000000000E+00 -0.10000000000E+04  0.10000000000E+04  0.00000000000E+00 0.  1.
    9000005    2    1    2  501    0 -0.47343109810E+02 -0.44656546537E+01 -0.17968761167E+03  0.18591065741E+03  0.37178802784E+01 0.  0.
         13    1    3    3    0    0 -0.35166621774E+02 -0.17518404557E+01 -0.13075490373E+03  0.13541272127E+03  0.00000000000E+00 0.  1.
          1    1    3    3  501    0 -0.12176488036E+02 -0.27138141980E+01 -0.48932707941E+02  0.50497936144E+02  0.00000000000E+00 0.  1.
         -3    1    1    2    0  502  0.47343109810E+02  0.44656546537E+01 -0.81650907957E+03  0.81789265135E+03  0.00000000000E+00 0. -1.
<mgrwt>
<rscale>  1 0.30000000E+03</rscale>
<asrwt>0</asrwt>
<pdfrwt beam="1">  1       21 0.13830243E-01 0.30000000E+03</pdfrwt>
<pdfrwt beam="2">0</pdfrwt>
<totfact> 0.47826270E+03</totfact>
</mgrwt>
</event>
<event>
 6    1  0.6377696E-002  0.3000000E+03  0.7818608E-02  0.1093470E+00
         21   -1    0    0  501  502  0.00000000000E+00  0.00000000000E+00  0.10369409098E+01  0.10369409098E+01  0.00000000000E+00 0. -1.
         13   -1    0    0    0    0 -0.00000000000E+00 -0.00000000000E+00 -0.10000000000E+04  0.10000000000E+04  0.00000000000E+00 0.  1.
    9000005    2    1    2  501    0  0.10784435806E+02 -0.30245857107E+02 -0.49138771814E+03  0.49244688726E+03  0.33062529044E+01 0.  0.
         13    1    3    3    0    0  0.23883706676E+01 -0.37264747628E+01 -0.59658992626E+02  0.59822958216E+02  0.00000000000E+00 0.  1.
          3    1    3    3  501    0  0.83960651383E+01 -0.26519382344E+02 -0.43172872552E+03  0.43262392905E+03  0.00000000000E+00 0.  1.
         -3    1    1    2    0  502 -0.10784435806E+02  0.30245857107E+02 -0.50757534095E+03  0.50859005364E+03  0.00000000000E+00 0. -1.
<mgrwt>
<rscale>  1 0.30000000E+03</rscale>
<asrwt>0</asrwt>
<pdfrwt beam="1">  1       21 0.37707022E-02 0.30000000E+03</pdfrwt>
<pdfrwt beam="2">0</pdfrwt>
<totfact> 0.46435934E+04</totfact>
</mgrwt>
</event>
<event>
 6    1  0.6377696E-002  0.3000000E+03  0.7818608E-02  0.1093470E+00
         21   -1    0    0  501  502  0.00000000000E+00  0.00000000000E+00  0.14886855734E+01  0.14886855734E+01  0.00000000000E+00 0. -1.
         13   -1    0    0    0    0 -0.00000000000E+00 -0.00000000000E+00 -0.10000000000E+04  0.10000000000E+04  0.00000000000E+00 0.  1.
    9000005    2    1    2  501    0  0.34091100114E+02 -0.89848286376E+01 -0.29911308222E+03  0.30120244591E+03  0.33685623632E+01 0.  0.
         13    1    3    3    0    0  0.34006298430E+02 -0.88330082949E+01 -0.29487521033E+03  0.29696100760E+03  0.00000000000E+00 0.  1.
          3    1    3    3  501    0  0.84801684408E-01 -0.15182034269E+00 -0.42378718939E+01  0.42414383092E+01  0.00000000000E+00 0.  1.
         -1    1    1    2    0  502 -0.34091100114E+02  0.89848286376E+01 -0.69939823221E+03  0.70028623967E+03  0.00000000000E+00 0. -1.
<mgrwt>
<rscale>  1 0.30000000E+03</rscale>
<asrwt>0</asrwt>
<pdfrwt beam="1">  1       21 0.54134135E-02 0.30000000E+03</pdfrwt>
<pdfrwt beam="2">0</pdfrwt>
<totfact> 0.25148813E+04</totfact>
</mgrwt>
</event>
<event>
 6    1  0.6377696E-002  0.3000000E+03  0.7818608E-02  0.1093470E+00
         21   -1    0    0  501  502  0.00000000000E+00  0.00000000000E+00  0.15329871278E+01  0.15329871278E+01  0.00000000000E+00 0. -1.
         13   -1    0    0    0    0 -0.00000000000E+00 -0.00000000000E+00 -0.10000000000E+04  0.10000000000E+04  0.00000000000E+00 0.  1.
    9000005    2    1    2  501    0 -0.59448827527E+01 -0.36971996279E+02 -0.64283615126E+03  0.64393603542E+03  0.36097376194E+01 0.  0.
         13    1    3    3    0    0 -0.16800241656E+01 -0.37094421867E+01 -0.64431049195E+02  0.64559604575E+02  0.00000000000E+00 0.  1.
          1    1    3    3  501    0 -0.42648585870E+01 -0.33262554092E+02 -0.57840510207E+03  0.57937643085E+03  0.00000000000E+00 0.  1.
         -1    1    1    2    0  502  0.59448827527E+01  0.36971996279E+02 -0.35563086161E+03  0.35759695171E+03  0.00000000000E+00 0. -1.
<mgrwt>
<rscale>  1 0.30000000E+03</rscale>
<asrwt>0</asrwt>
<pdfrwt beam="1">  1       21 0.55745104E-02 0.30000000E+03</pdfrwt>
<pdfrwt beam="2">0</pdfrwt>
<totfact> 0.23915634E+04</totfact>
</mgrwt>
</event>
<event>
 6    1  0.6377696E-002  0.3000000E+03  0.7818608E-02  0.1093470E+00
         21   -1    0    0  501  502  0.00000000000E+00  0.00000000000E+00  0.16265882159E+01  0.16265882159E+01  0.00000000000E+00 0. -1.
         13   -1    0    0    0    0 -0.00000000000E+00 -0.00000000000E+00 -0.10000000000E+04  0.10000000000E+04  0.00000000000E+00 0.  1.
    9000005    2    1    2  501    0  0.32474998400E+02  0.20159012973E+02 -0.34348561326E+03  0.34562427116E+03  0.35719706184E+01 0.  0.
         13    1    3    3    0    0  0.14035875816E+02  0.91056162649E+01 -0.16617277860E+03  0.16701290490E+03  0.00000000000E+00 0.  1.
          1    1    3    3  501    0  0.18439122584E+02  0.11053396708E+02 -0.17731283466E+03  0.17861136626E+03  0.00000000000E+00 0.  1.
         -1    1    1    2    0  502 -0.32474998400E+02 -0.20159012973E+02 -0.65488779853E+03  0.65600231706E+03  0.00000000000E+00 0. -1.
<mgrwt>
<rscale>  1 0.30000000E+03</rscale>
<asrwt>0</asrwt>
<pdfrwt beam="1">  1       21 0.59148787E-02 0.30000000E+03</pdfrwt>
<pdfrwt beam="2">0</pdfrwt>
<totfact> 0.21597228E+04</totfact>
</mgrwt>
</event>
<event>
 6    1  0.6377696E-002  0.3000000E+03  0.7818608E-02  0.1093470E+00
         21   -1    0    0  501  502  0.00000000000E+00  0.00000000000E+00  0.15566817776E+01  0.15566817776E+01  0.00000000000E+00 0. -1.
         13   -1    0    0    0    0 -0.00000000000E+00 -0.00000000000E+00 -0.10000000000E+04  0.10000000000E+04  0.00000000000E+00 0.  1.
    9000005    2    1    2  501    0  0.21060092903E+02 -0.32967425270E+02 -0.44326718802E+03  0.44500397611E+03  0.35156982936E+01 0.  0.
         13    1    3    3    0    0  0.23195254858E+00 -0.13052921699E+01 -0.11313953770E+02  0.11391362497E+02  0.00000000000E+00 0.  1.
          1    1    3    3  501    0  0.20828140354E+02 -0.31662133100E+02 -0.43195323425E+03  0.43361261361E+03  0.00000000000E+00 0.  1.
         -3    1    1    2    0  502 -0.21060092903E+02  0.32967425270E+02 -0.55517613020E+03  0.55655270567E+03  0.00000000000E+00 0. -1.
<mgrwt>
<rscale>  1 0.30000000E+03</rscale>
<asrwt>0</asrwt>
<pdfrwt beam="1">  1       21 0.56606729E-02 0.30000000E+03</pdfrwt>
<pdfrwt beam="2">0</pdfrwt>
<totfact> 0.23293850E+04</totfact>
</mgrwt>
</event>
<event>
 6    1  0.6377696E-002  0.3000000E+03  0.7818608E-02  0.1093470E+00
         21   -1    0    0  501  502  0.00000000000E+00  0.00000000000E+00  0.18331694334E+01  0.18331694334E+01  0.00000000000E+00 0. -1.
         13   -1    0    0    0    0 -0.00000000000E+00 -0.00000000000E+00 -0.10000000000E+04  0.10000000000E+04  0.00000000000E+00 0.  1.
    9000005    2    1    2  501    0 -0.22961226730E+02  0.35732115730E+02 -0.48522855309E+03  0.48713939783E+03  0.73513370295E+01 0.  0.
         13    1    3    3    0    0 -0.11460104494E+02  0.13782322555E+02 -0.23707396321E+03  0.23775060556E+03  0.00000000000E+00 0.  1.
          1    1    3    3  501    0 -0.11501122236E+02  0.21949793175E+02 -0.24815458988E+03  0.24938879227E+03  0.00000000000E+00 0.  1.
         -3    1    1    2    0  502  0.22961226730E+02 -0.35732115730E+02 -0.51293827748E+03  0.51469377160E+03  0.00000000000E+00 0. -1.
<mgrwt>
<rscale>  1 0.30000000E+03</rscale>
<asrwt>0</asrwt>
<pdfrwt beam="1">  1       21 0.66660847E-02 0.30000000E+03</pdfrwt>
<pdfrwt beam="2">0</pdfrwt>
<totfact> 0.17565107E+04</totfact>
</mgrwt>
</event>
<event>
 6    1  0.6377696E-002  0.3000000E+03  0.7818608E-02  0.1093470E+00
         21   -1    0    0  501  502  0.00000000000E+00  0.00000000000E+00  0.10891635819E+01  0.10891635819E+01  0.00000000000E+00 0. -1.
         13   -1    0    0    0    0 -0.00000000000E+00 -0.00000000000E+00 -0.10000000000E+04  0.10000000000E+04  0.00000000000E+00 0.  1.
    9000005    2    1    2  501    0 -0.30582446272E+02 -0.81085081797E+01 -0.61035226474E+03  0.61124458231E+03  0.94349563551E+01 0.  0.
         13    1    3    3    0    0 -0.11190550291E+01  0.16338523226E+01 -0.38711982466E+02  0.38762602390E+02  0.00000000000E+00 0.  1.
          3    1    3    3  501    0 -0.29463391243E+02 -0.97423605023E+01 -0.57164028228E+03  0.57248197992E+03  0.00000000000E+00 0.  1.
         -3    1    1    2    0  502  0.30582446272E+02  0.81085081797E+01 -0.38855857167E+03  0.38984458127E+03  0.00000000000E+00 0. -1.
<mgrwt>
<rscale>  1 0.30000000E+03</rscale>
<asrwt>0</asrwt>
<pdfrwt beam="1">  1       21 0.39606032E-02 0.30000000E+03</pdfrwt>
<pdfrwt beam="2">0</pdfrwt>
<totfact> 0.42753891E+04</totfact>
</mgrwt>
</event>
<event>
 6    1  0.6377696E-002  0.3000000E+03  0.7818608E-02  0.1093470E+00
         21   -1    0    0  501  502  0.00000000000E+00  0.00000000000E+00  0.15103722587E+01  0.15103722587E+01  0.00000000000E+00 0. -1.
         13   -1    0    0    0    0 -0.00000000000E+00 -0.00000000000E+00 -0.10000000000E+04  0.10000000000E+04  0.00000000000E+00 0.  1.
    9000005    2    1    2  501    0 -0.24515899299E+02  0.29997273223E+02 -0.52253901526E+03  0.52398565955E+03  0.36170752921E+01 0.  0.
         13    1    3    3    0    0 -0.58606877232E+01  0.65808262011E+01 -0.13980563588E+03  0.14008308520E+03  0.00000000000E+00 0.  1.
          3    1    3    3  501    0 -0.18655211575E+02  0.23416447022E+02 -0.38273337938E+03  0.38390257436E+03  0.00000000000E+00 0.  1.
         -1    1    1    2    0  502  0.24515899299E+02 -0.29997273223E+02 -0.47595061249E+03  0.47752471271E+03  0.00000000000E+00 0. -1.
<mgrwt>
<rscale>  1 0.30000000E+03</rscale>
<asrwt>0</asrwt>
<pdfrwt beam="1">  1       21 0.54922743E-02 0.30000000E+03</pdfrwt>
<pdfrwt beam="2">0</pdfrwt>
<totfact> 0.24533206E+04</totfact>
</mgrwt>
</event>
<event>
 6    1  0.6377696E-002  0.3000000E+03  0.7818608E-02  0.1093470E+00
         21   -1    0    0  501  502  0.00000000000E+00  0.00000000000E+00  0.20531944388E+01  0.20531944388E+01  0.00000000000E+00 0. -1.
         13   -1    0    0    0    0 -0.00000000000E+00 -0.00000000000E+00 -0.10000000000E+04  0.10000000000E+04  0.00000000000E+00 0.  1.
    9000005    2    1    2  501    0 -0.31402626875E+02 -0.22982440124E+02 -0.24465817473E+03  0.24776009566E+03  0.36228455135E+01 0.  0.
         13    1    3    3    0    0 -0.67339765997E+01 -0.45137393240E+01 -0.60639403659E+02  0.61178897993E+02  0.00000000000E+00 0.  1.
          1    1    3    3  501    0 -0.24668650276E+02 -0.18468700800E+02 -0.18401877107E+03  0.18658119767E+03  0.00000000000E+00 0.  1.
         -3    1    1    2    0  502  0.31402626875E+02  0.22982440124E+02 -0.75328863083E+03  0.75429309878E+03  0.00000000000E+00 0. -1.
<mgrwt>
<rscale>  1 0.30000000E+03</rscale>
<asrwt>0</asrwt>
<pdfrwt beam="1">  1       21 0.74661773E-02 0.30000000E+03</pdfrwt>
<pdfrwt beam="2">0</pdfrwt>
<totfact> 0.14418103E+04</totfact>
</mgrwt>
</event>
<event>
 6    1  0.6377696E-002  0.3000000E+03  0.7818608E-02  0.1093470E+00
         21   -1    0    0  501  502  0.00000000000E+00  0.00000000000E+00  0.14660507025E+01  0.14660507025E+01  0.00000000000E+00 0. -1.
         13   -1    0    0    0    0 -0.00000000000E+00 -0.00000000000E+00 -0.10000000000E+04  0.10000000000E+04  0.00000000000E+00 0.  1.
    9000005    2    1    2  501    0 -0.37043090194E+02 -0.94437105455E+00 -0.37906611740E+03  0.38089093267E+03  0.37011971174E+01 0.  0.
         13    1    3    3    0    0 -0.31420681637E+02 -0.18902856231E+01 -0.32834675879E+03  0.32985212812E+03  0.00000000000E+00 0.  1.
          1    1    3    3  501    0 -0.56224085564E+01  0.94591456858E+00 -0.50719358610E+02  0.51038804552E+02  0.00000000000E+00 0.  1.
         -1    1    1    2    0  502  0.37043090194E+02  0.94437105455E+00 -0.61946783189E+03  0.62057511803E+03  0.00000000000E+00 0. -1.
<mgrwt>
<rscale>  1 0.30000000E+03</rscale>
<asrwt>0</asrwt>
<pdfrwt beam="1">  1       21 0.53311047E-02 0.30000000E+03</pdfrwt>
<pdfrwt beam="2">0</pdfrwt>
<totfact> 0.25817135E+04</totfact>
</mgrwt>
</event>
<event>
 6    1  0.6377696E-002  0.3000000E+03  0.7818608E-02  0.1093470E+00
         21   -1    0    0  501  502  0.00000000000E+00  0.00000000000E+00  0.14266435349E+01  0.14266435349E+01  0.00000000000E+00 0. -1.
         13   -1    0    0    0    0 -0.00000000000E+00 -0.00000000000E+00 -0.10000000000E+04  0.10000000000E+04  0.00000000000E+00 0.  1.
    9000005    2    1    2  501    0 -0.17076100225E+01  0.37447301952E+02 -0.55166940556E+03  0.55295328012E+03  0.36028616770E+01 0.  0.
         13    1    3    3    0    0 -0.24653757768E+01  0.31311718963E+02 -0.44793013554E+03  0.44902996352E+03  0.00000000000E+00 0.  1.
          3    1    3    3  501    0  0.75776575434E+00  0.61355829897E+01 -0.10373927002E+03  0.10392331660E+03  0.00000000000E+00 0.  1.
         -3    1    1    2    0  502  0.17076100225E+01 -0.37447301952E+02 -0.44690395091E+03  0.44847336341E+03  0.00000000000E+00 0. -1.
<mgrwt>
<rscale>  1 0.30000000E+03</rscale>
<asrwt>0</asrwt>
<pdfrwt beam="1">  1       21 0.51878056E-02 0.30000000E+03</pdfrwt>
<pdfrwt beam="2">0</pdfrwt>
<totfact> 0.27048145E+04</totfact>
</mgrwt>
</event>
<event>
 6    1  0.6377696E-002  0.3000000E+03  0.7818608E-02  0.1093470E+00
         21   -1    0    0  501  502  0.00000000000E+00  0.00000000000E+00  0.14886248714E+01  0.14886248714E+01  0.00000000000E+00 0. -1.
         13   -1    0    0    0    0 -0.00000000000E+00 -0.00000000000E+00 -0.10000000000E+04  0.10000000000E+04  0.00000000000E+00 0.  1.
    9000005    2    1    2  501    0  0.68725187716E+00 -0.33291251218E+02 -0.75004854200E+03  0.75080444274E+03  0.50711107689E+01 0.  0.
         13    1    3    3    0    0 -0.15570313031E+01 -0.38925225183E+01 -0.88935426098E+02  0.89034184970E+02  0.00000000000E+00 0.  1.
          1    1    3    3  501    0  0.22442831802E+01 -0.29398728700E+02 -0.66111311590E+03  0.66177025777E+03  0.00000000000E+00 0.  1.
         -3    1    1    2    0  502 -0.68725187716E+00  0.33291251218E+02 -0.24846283313E+03  0.25068418213E+03  0.00000000000E+00 0. -1.
<mgrwt>
<rscale>  1 0.30000000E+03</rscale>
<asrwt>0</asrwt>
<pdfrwt beam="1">  1       21 0.54131928E-02 0.30000000E+03</pdfrwt>
<pdfrwt beam="2">0</pdfrwt>
<totfact> 0.25150569E+04</totfact>
</mgrwt>
</event>
<event>
 6    1  0.6377696E-002  0.3000000E+03  0.7818608E-02  0.1093470E+00
         21   -1    0    0  501  502  0.00000000000E+00  0.00000000000E+00  0.96388619698E+00  0.96388619698E+00  0.00000000000E+00 0. -1.
         13   -1    0    0    0    0 -0.00000000000E+00 -0.00000000000E+00 -0.10000000000E+04  0.10000000000E+04  0.00000000000E+00 0.  1.
    9000005    2    1    2  501    0 -0.28699188286E+02  0.11007427159E+02 -0.44299333956E+03  0.44407217890E+03  0.34920371416E+01 0.  0.
         13    1    3    3    0    0 -0.11391421574E+02  0.62029527121E+01 -0.18850458836E+03  0.18895031342E+03  0.00000000000E+00 0.  1.
          3    1    3    3  501    0 -0.17307766712E+02  0.48044744466E+01 -0.25448875120E+03  0.25512186549E+03  0.00000000000E+00 0.  1.
         -3    1    1    2    0  502  0.28699188286E+02 -0.11007427159E+02 -0.55604277425E+03  0.55689170729E+03  0.00000000000E+00 0. -1.
<mgrwt>
<rscale>  1 0.30000000E+03</rscale>
<asrwt>0</asrwt>
<pdfrwt beam="1">  1       21 0.35050481E-02 0.30000000E+03</pdfrwt>
<pdfrwt beam="2">0</pdfrwt>
<totfact> 0.52489970E+04</totfact>
</mgrwt>
</event>
<event>
 6    1  0.6377696E-002  0.3000000E+03  0.7818608E-02  0.1093470E+00
         21   -1    0    0  501  502  0.00000000000E+00  0.00000000000E+00  0.13164247173E+01  0.13164247173E+01  0.00000000000E+00 0. -1.
         13   -1    0    0    0    0 -0.00000000000E+00 -0.00000000000E+00 -0.10000000000E+04  0.10000000000E+04  0.00000000000E+00 0.  1.
    9000005    2    1    2  501    0 -0.12618475635E+02  0.30445796661E+02 -0.70696264241E+03  0.70773973093E+03  0.36299456340E+01 0.  0.
         13    1    3    3    0    0 -0.67479633022E+01  0.16629988069E+02 -0.34610664781E+03  0.34657164219E+03  0.00000000000E+00 0.  1.
          3    1    3    3  501    0 -0.58705123326E+01  0.13815808592E+02 -0.36085599460E+03  0.36116808873E+03  0.00000000000E+00 0.  1.
         -1    1    1    2    0  502  0.12618475635E+02 -0.30445796661E+02 -0.29172093287E+03  0.29357669379E+03  0.00000000000E+00 0. -1.
<mgrwt>
<rscale>  1 0.30000000E+03</rscale>
<asrwt>0</asrwt>
<pdfrwt beam="1">  1       21 0.47870091E-02 0.30000000E+03</pdfrwt>
<pdfrwt beam="2">0</pdfrwt>
<totfact> 0.31021260E+04</totfact>
</mgrwt>
</event>
<event>
 6    1  0.6377696E-002  0.3000000E+03  0.7818608E-02  0.1093470E+00
         21   -1    0    0  501  502  0.00000000000E+00  0.00000000000E+00  0.12127179774E+01  0.12127179774E+01  0.00000000000E+00 0. -1.
         13   -1    0    0    0    0 -0.00000000000E+00 -0.00000000000E+00 -0.10000000000E+04  0.10000000000E+04  0.00000000000E+00 0.  1.
    9000005    2    1    2  501    0  0.79965463183E+00  0.31976590791E+02 -0.69501240301E+03  0.69575843510E+03  0.37970877839E+01 0.  0.
         13    1    3    3    0    0  0.20969488139E+01  0.15463163955E+02 -0.31938039779E+03  0.31976138780E+03  0.00000000000E+00 0.  1.
          1    1    3    3  501    0 -0.12972941821E+01  0.16513426836E+02 -0.37563200522E+03  0.37599704730E+03  0.00000000000E+00 0.  1.
         -3    1    1    2    0  502 -0.79965463183E+00 -0.31976590791E+02 -0.30377487901E+03  0.30545428287E+03  0.00000000000E+00 0. -1.
<mgrwt>
<rscale>  1 0.30000000E+03</rscale>
<asrwt>0</asrwt>
<pdfrwt beam="1">  1       21 0.44098929E-02 0.30000000E+03</pdfrwt>
<pdfrwt beam="2">0</pdfrwt>
<totfact> 0.35660468E+04</totfact>
</mgrwt>
</event>
<event>
 6    1  0.6377696E-002  0.3000000E+03  0.7818608E-02  0.1093470E+00
         21   -1    0    0  501  502  0.00000000000E+00  0.00000000000E+00  0.37399656254E+01  0.37399656254E+01  0.00000000000E+00 0. -1.
         13   -1    0    0    0    0 -0.00000000000E+00 -0.00000000000E+00 -0.10000000000E+04  0.10000000000E+04  0.00000000000E+00 0.  1.
    9000005    2    1    2  501    0  0.37961528931E+02  0.46962195210E+02 -0.42153459367E+03  0.42585082604E+03  0.33146524170E+01 0.  0.
         13    1    3    3    0    0  0.16401122556E+02  0.21130547673E+02 -0.19773906638E+03  0.19954005923E+03  0.00000000000E+00 0.  1.
          3    1    3    3  501    0  0.21560406376E+02  0.25831647536E+02 -0.22379552729E+03  0.22631076681E+03  0.00000000000E+00 0.  1.
         -1    1    1    2    0  502 -0.37961528931E+02 -0.46962195210E+02 -0.57472544070E+03  0.57788913959E+03  0.00000000000E+00 0. -1.
<mgrwt>
<rscale>  1 0.30000000E+03</rscale>
<asrwt>0</asrwt>
<pdfrwt beam="1">  1       21 0.13599904E-01 0.30000000E+03</pdfrwt>
<pdfrwt beam="2">0</pdfrwt>
<totfact> 0.49322271E+03</totfact>
</mgrwt>
</event>
<event>
 6    1  0.6377696E-002  0.3000000E+03  0.7818608E-02  0.1093470E+00
         21   -1    0    0  501  502  0.00000000000E+00  0.00000000000E+00  0.27430072868E+01  0.27430072868E+01  0.00000000000E+00 0. -1.
         13   -1    0    0    0    0 -0.00000000000E+00 -0.00000000000E+00 -0.10000000000E+04  0.10000000000E+04  0.00000000000E+00 0.  1.
    9000005    2    1    2  501    0 -0.25897595895E+02 -0.33435807124E+02 -0.20386085576E+03  0.20822046588E+03  0.28062838176E+01 0.  0.
         13    1    3    3    0    0 -0.64813032822E+01 -0.93917613111E+01 -0.60415780930E+02  0.61483973995E+02  0.00000000000E+00 0.  1.
          3    1    3    3  501    0 -0.19416292613E+02 -0.24044045813E+02 -0.14344507483E+03  0.14673649188E+03  0.00000000000E+00 0.  1.
         -3    1    1    2    0  502  0.25897595895E+02  0.33435807124E+02 -0.79339613696E+03  0.79452254141E+03  0.00000000000E+00 0. -1.
<mgrwt>
<rscale>  1 0.30000000E+03</rscale>
<asrwt>0</asrwt>
<pdfrwt beam="1">  1       21 0.99745930E-02 0.30000000E+03</pdfrwt>
<pdfrwt beam="2">0</pdfrwt>
<totfact> 0.86423903E+03</totfact>
</mgrwt>
</event>
<event>
 6    1  0.6377696E-002  0.3000000E+03  0.7818608E-02  0.1093470E+00
         21   -1    0    0  501  502  0.00000000000E+00  0.00000000000E+00  0.14693858024E+01  0.14693858024E+01  0.00000000000E+00 0. -1.
         13   -1    0    0    0    0 -0.00000000000E+00 -0.00000000000E+00 -0.10000000000E+04  0.10000000000E+04  0.00000000000E+00 0.  1.
    9000005    2    1    2  501    0  0.17894303726E+02 -0.33665489895E+02 -0.45544737337E+03  0.45704953147E+03  0.28970671687E+01 0.  0.
         13    1    3    3    0    0  0.54142802056E+01 -0.11375564997E+02 -0.13593343969E+03  0.13651599882E+03  0.00000000000E+00 0.  1.
          3    1    3    3  501    0  0.12480023521E+02 -0.22289924898E+02 -0.31951393368E+03  0.32053353265E+03  0.00000000000E+00 0.  1.
         -3    1    1    2    0  502 -0.17894303726E+02  0.33665489895E+02 -0.54308324083E+03  0.54441985433E+03  0.00000000000E+00 0. -1.
<mgrwt>
<rscale>  1 0.30000000E+03</rscale>
<asrwt>0</asrwt>
<pdfrwt beam="1">  1       21 0.53432324E-02 0.30000000E+03</pdfrwt>
<pdfrwt beam="2">0</pdfrwt>
<totfact> 0.25716949E+04</totfact>
</mgrwt>
</event>
<event>
 6    1  0.6377696E-002  0.3000000E+03  0.7818608E-02  0.1093470E+00
         21   -1    0    0  501  502  0.00000000000E+00  0.00000000000E+00  0.12147300431E+01  0.12147300431E+01  0.00000000000E+00 0. -1.
         13   -1    0    0    0    0 -0.00000000000E+00 -0.00000000000E+00 -0.10000000000E+04  0.10000000000E+04  0.00000000000E+00 0.  1.
    9000005    2    1    2  501    0 -0.34533857207E+02 -0.34700031033E-01 -0.44759387934E+03  0.44894257106E+03  0.40697407333E+01 0.  0.
         13    1    3    3    0    0 -0.16182331748E+02 -0.20268861640E+01 -0.21365561697E+03  0.21427715415E+03  0.00000000000E+00 0.  1.
          1    1    3    3  501    0 -0.18351525458E+02  0.19921861329E+01 -0.23393826237E+03  0.23466541691E+03  0.00000000000E+00 0.  1.
         -1    1    1    2    0  502  0.34533857207E+02  0.34700031033E-01 -0.55119139061E+03  0.55227215898E+03  0.00000000000E+00 0. -1.
<mgrwt>
<rscale>  1 0.30000000E+03</rscale>
<asrwt>0</asrwt>
<pdfrwt beam="1">  1       21 0.44172095E-02 0.30000000E+03</pdfrwt>
<pdfrwt beam="2">0</pdfrwt>
<totfact> 0.35560444E+04</totfact>
</mgrwt>
</event>
<event>
 6    1  0.6377696E-002  0.3000000E+03  0.7818608E-02  0.1093470E+00
         21   -1    0    0  501  502  0.00000000000E+00  0.00000000000E+00  0.12935435691E+01  0.12935435691E+01  0.00000000000E+00 0. -1.
         13   -1    0    0    0    0 -0.00000000000E+00 -0.00000000000E+00 -0.10000000000E+04  0.10000000000E+04  0.00000000000E+00 0.  1.
    9000005    2    1    2  501    0 -0.69153687041E+01  0.33420379677E+02 -0.65536889819E+03  0.65626394628E+03  0.30381538630E+01 0.  0.
         13    1    3    3    0    0 -0.54489654813E+01  0.28805764722E+02 -0.57897572688E+03  0.57971747914E+03  0.00000000000E+00 0.  1.
          3    1    3    3  501    0 -0.14664032228E+01  0.46146149550E+01 -0.76393171310E+02  0.76546467145E+02  0.00000000000E+00 0.  1.
         -3    1    1    2    0  502  0.69153687041E+01 -0.33420379677E+02 -0.34333755824E+03  0.34502959728E+03  0.00000000000E+00 0. -1.
<mgrwt>
<rscale>  1 0.30000000E+03</rscale>
<asrwt>0</asrwt>
<pdfrwt beam="1">  1       21 0.47038047E-02 0.30000000E+03</pdfrwt>
<pdfrwt beam="2">0</pdfrwt>
<totfact> 0.31960331E+04</totfact>
</mgrwt>
</event>
<event>
 6    1  0.6377696E-002  0.3000000E+03  0.7818608E-02  0.1093470E+00
         21   -1    0    0  501  502  0.00000000000E+00  0.00000000000E+00  0.10203577470E+01  0.10203577470E+01  0.00000000000E+00 0. -1.
         13   -1    0    0    0    0 -0.00000000000E+00 -0.00000000000E+00 -0.10000000000E+04  0.10000000000E+04  0.00000000000E+00 0.  1.
    9000005    2    1    2  501    0  0.25144086993E+02 -0.18207955194E+02 -0.61283685740E+03  0.61363165755E+03  0.33230440333E+01 0.  0.
         13    1    3    3    0    0  0.20309209986E+02 -0.16184179287E+02 -0.50358617328E+03  0.50425531786E+03  0.00000000000E+00 0.  1.
          3    1    3    3  501    0  0.48348770069E+01 -0.20237759067E+01 -0.10925068412E+03  0.10937633969E+03  0.00000000000E+00 0.  1.
         -3    1    1    2    0  502 -0.25144086993E+02  0.18207955194E+02 -0.38614278485E+03  0.38738870019E+03  0.00000000000E+00 0. -1.
<mgrwt>
<rscale>  1 0.30000000E+03</rscale>
<asrwt>0</asrwt>
<pdfrwt beam="1">  1       21 0.37103996E-02 0.30000000E+03</pdfrwt>
<pdfrwt beam="2">0</pdfrwt>
<totfact> 0.47710132E+04</totfact>
</mgrwt>
</event>
<event>
 6    1  0.6377696E-002  0.3000000E+03  0.7818608E-02  0.1093470E+00
         21   -1    0    0  501  502  0.00000000000E+00  0.00000000000E+00  0.25876857136E+01  0.25876857136E+01  0.00000000000E+00 0. -1.
         13   -1    0    0    0    0 -0.00000000000E+00 -0.00000000000E+00 -0.10000000000E+04  0.10000000000E+04  0.00000000000E+00 0.  1.
    9000005    2    1    2  501    0 -0.44292596746E+02 -0.23908435842E+02 -0.43106520606E+03  0.43400832061E+03  0.35444390135E+01 0.  0.
         13    1    3    3    0    0 -0.38872916225E+02 -0.19644933119E+02 -0.37466309571E+03  0.37718624352E+03  0.00000000000E+00 0.  1.
          1    1    3    3  501    0 -0.54196805214E+01 -0.42635027230E+01 -0.56402110348E+02  0.56822077084E+02  0.00000000000E+00 0.  1.
         -3    1    1    2    0  502  0.44292596746E+02  0.23908435842E+02 -0.56634710822E+03  0.56857936511E+03  0.00000000000E+00 0. -1.
<mgrwt>
<rscale>  1 0.30000000E+03</rscale>
<asrwt>0</asrwt>
<pdfrwt beam="1">  1       21 0.94097861E-02 0.30000000E+03</pdfrwt>
<pdfrwt beam="2">0</pdfrwt>
<totfact> 0.95892510E+03</totfact>
</mgrwt>
</event>
<event>
 6    1  0.6377696E-002  0.3000000E+03  0.7818608E-02  0.1093470E+00
         21   -1    0    0  501  502  0.00000000000E+00  0.00000000000E+00  0.94812206353E+00  0.94812206353E+00  0.00000000000E+00 0. -1.
         13   -1    0    0    0    0 -0.00000000000E+00 -0.00000000000E+00 -0.10000000000E+04  0.10000000000E+04  0.00000000000E+00 0.  1.
    9000005    2    1    2  501    0 -0.23419418062E+02 -0.19528500132E+02 -0.44124465217E+03  0.44230804780E+03  0.31200348035E+01 0.  0.
         13    1    3    3    0    0 -0.87559537572E+01 -0.62667055304E+01 -0.13785412685E+03  0.13827399833E+03  0.00000000000E+00 0.  1.
          3    1    3    3  501    0 -0.14663464305E+02 -0.13261794602E+02 -0.30339052532E+03  0.30403404947E+03  0.00000000000E+00 0.  1.
         -1    1    1    2    0  502  0.23419418062E+02  0.19528500132E+02 -0.55780722576E+03  0.55864007426E+03  0.00000000000E+00 0. -1.
<mgrwt>
<rscale>  1 0.30000000E+03</rscale>
<asrwt>0</asrwt>
<pdfrwt beam="1">  1       21 0.34477239E-02 0.30000000E+03</pdfrwt>
<pdfrwt beam="2">0</pdfrwt>
<totfact> 0.53958789E+04</totfact>
</mgrwt>
</event>
<event>
 6    1  0.6377696E-002  0.3000000E+03  0.7818608E-02  0.1093470E+00
         21   -1    0    0  501  502  0.00000000000E+00  0.00000000000E+00  0.25887608167E+02  0.25887608167E+02  0.00000000000E+00 0. -1.
         13   -1    0    0    0    0 -0.00000000000E+00 -0.00000000000E+00 -0.10000000000E+04  0.10000000000E+04  0.00000000000E+00 0.  1.
    9000005    2    1    2  501    0  0.14520480095E+03  0.35479236766E+02 -0.29745028672E+03  0.33291227314E+03  0.32707916521E+01 0.  0.
         13    1    3    3    0    0  0.10401584837E+03  0.26811996425E+02 -0.21496839017E+03  0.24031144092E+03  0.00000000000E+00 0.  1.
          1    1    3    3  501    0  0.41188952581E+02  0.86672403419E+01 -0.82481896548E+02  0.92600832221E+02  0.00000000000E+00 0.  1.
         -3    1    1    2    0  502 -0.14520480095E+03 -0.35479236766E+02 -0.67666210511E+03  0.69297533503E+03  0.00000000000E+00 0. -1.
<mgrwt>
<rscale>  1 0.30000000E+03</rscale>
<asrwt>0</asrwt>
<pdfrwt beam="1">  1       21 0.94136955E-01 0.30000000E+03</pdfrwt>
<pdfrwt beam="2">0</pdfrwt>
<totfact> 0.85923306E+01</totfact>
</mgrwt>
</event>
<event>
 6    1  0.6377696E-002  0.3000000E+03  0.7818608E-02  0.1093470E+00
         21   -1    0    0  501  502  0.00000000000E+00  0.00000000000E+00  0.15057409442E+01  0.15057409442E+01  0.00000000000E+00 0. -1.
         13   -1    0    0    0    0 -0.00000000000E+00 -0.00000000000E+00 -0.10000000000E+04  0.10000000000E+04  0.00000000000E+00 0.  1.
    9000005    2    1    2  501    0  0.17535251653E+02 -0.34253588916E+02 -0.55312209711E+03  0.55447424760E+03  0.41040878797E+01 0.  0.
         13    1    3    3    0    0  0.66271023274E+01 -0.15932361891E+02 -0.22580395019E+03  0.22646232040E+03  0.00000000000E+00 0.  1.
          3    1    3    3  501    0  0.10908149326E+02 -0.18321227025E+02 -0.32731814692E+03  0.32801192720E+03  0.00000000000E+00 0.  1.
         -1    1    1    2    0  502 -0.17535251653E+02  0.34253588916E+02 -0.44537216194E+03  0.44703149334E+03  0.00000000000E+00 0. -1.
<mgrwt>
<rscale>  1 0.30000000E+03</rscale>
<asrwt>0</asrwt>
<pdfrwt beam="1">  1       21 0.54754332E-02 0.30000000E+03</pdfrwt>
<pdfrwt beam="2">0</pdfrwt>
<totfact> 0.24662707E+04</totfact>
</mgrwt>
</event>
<event>
 6    1  0.6377696E-002  0.3000000E+03  0.7818608E-02  0.1093470E+00
         21   -1    0    0  501  502  0.00000000000E+00  0.00000000000E+00  0.23869442060E+01  0.23869442060E+01  0.00000000000E+00 0. -1.
         13   -1    0    0    0    0 -0.00000000000E+00 -0.00000000000E+00 -0.10000000000E+04  0.10000000000E+04  0.00000000000E+00 0.  1.
    9000005    2    1    2  501    0  0.29798319035E+02  0.37657067387E+02 -0.41113324787E+03  0.41394445794E+03  0.36704513087E+01 0.  0.
         13    1    3    3    0    0  0.60950355221E+01  0.58339786418E+01 -0.78988415927E+02  0.79437740498E+02  0.00000000000E+00 0.  1.
          1    1    3    3  501    0  0.23703283512E+02  0.31823088745E+02 -0.33214483195E+03  0.33450671745E+03  0.00000000000E+00 0.  1.
         -1    1    1    2    0  502 -0.29798319035E+02 -0.37657067387E+02 -0.58647980792E+03  0.58844248626E+03  0.00000000000E+00 0. -1.
<mgrwt>
<rscale>  1 0.30000000E+03</rscale>
<asrwt>0</asrwt>
<pdfrwt beam="1">  1       21 0.86798154E-02 0.30000000E+03</pdfrwt>
<pdfrwt beam="2">0</pdfrwt>
<totfact> 0.11064841E+04</totfact>
</mgrwt>
</event>
<event>
 6    1  0.6377696E-002  0.3000000E+03  0.7818608E-02  0.1093470E+00
         21   -1    0    0  501  502  0.00000000000E+00  0.00000000000E+00  0.92979268072E+00  0.92979268072E+00  0.00000000000E+00 0. -1.
         13   -1    0    0    0    0 -0.00000000000E+00 -0.00000000000E+00 -0.10000000000E+04  0.10000000000E+04  0.00000000000E+00 0.  1.
    9000005    2    1    2  501    0  0.27155707073E+01 -0.30186907989E+02 -0.47041233983E+03  0.47140381164E+03  0.38936392625E+01 0.  0.
         13    1    3    3    0    0 -0.18942455468E+00 -0.17732868735E+02 -0.26199675565E+03  0.26259624994E+03  0.00000000000E+00 0.  1.
          3    1    3    3  501    0  0.29049952620E+01 -0.12454039255E+02 -0.20841558418E+03  0.20880756170E+03  0.00000000000E+00 0.  1.
         -3    1    1    2    0  502 -0.27155707073E+01  0.30186907989E+02 -0.52865786749E+03  0.52952598104E+03  0.00000000000E+00 0. -1.
<mgrwt>
<rscale>  1 0.30000000E+03</rscale>
<asrwt>0</asrwt>
<pdfrwt beam="1">  1       21 0.33810714E-02 0.30000000E+03</pdfrwt>
<pdfrwt beam="2">0</pdfrwt>
<totfact> 0.55748612E+04</totfact>
</mgrwt>
</event>
<event>
 6    1  0.6377696E-002  0.3000000E+03  0.7818608E-02  0.1093470E+00
         21   -1    0    0  501  502  0.00000000000E+00  0.00000000000E+00  0.96297345727E+00  0.96297345727E+00  0.00000000000E+00 0. -1.
         13   -1    0    0    0    0 -0.00000000000E+00 -0.00000000000E+00 -0.10000000000E+04  0.10000000000E+04  0.00000000000E+00 0.  1.
    9000005    2    1    2  501    0 -0.23225650183E+01 -0.29979935507E+02 -0.38335082064E+03  0.38454290972E+03  0.33476690116E+01 0.  0.
         13    1    3    3    0    0 -0.22234887286E+01 -0.19407437871E+02 -0.26632338518E+03  0.26703883246E+03  0.00000000000E+00 0.  1.
          3    1    3    3  501    0 -0.99076289773E-01 -0.10572497636E+02 -0.11702743546E+03  0.11750407726E+03  0.00000000000E+00 0.  1.
         -1    1    1    2    0  502  0.23225650183E+01  0.29979935507E+02 -0.61568620590E+03  0.61642006374E+03  0.00000000000E+00 0. -1.
<mgrwt>
<rscale>  1 0.30000000E+03</rscale>
<asrwt>0</asrwt>
<pdfrwt beam="1">  1       21 0.35017290E-02 0.30000000E+03</pdfrwt>
<pdfrwt beam="2">0</pdfrwt>
<totfact> 0.52573310E+04</totfact>
</mgrwt>
</event>
<event>
 6    1  0.6377696E-002  0.3000000E+03  0.7818608E-02  0.1093470E+00
         21   -1    0    0  501  502  0.00000000000E+00  0.00000000000E+00  0.16869476435E+01  0.16869476435E+01  0.00000000000E+00 0. -1.
         13   -1    0    0    0    0 -0.00000000000E+00 -0.00000000000E+00 -0.10000000000E+04  0.10000000000E+04  0.00000000000E+00 0.  1.
    9000005    2    1    2  501    0  0.21998305002E+02  0.34490762017E+02 -0.46667159930E+03  0.46847388264E+03  0.34436943367E+01 0.  0.
         13    1    3    3    0    0  0.11116596104E+02  0.18703041857E+02 -0.22998701571E+03  0.23101387378E+03  0.00000000000E+00 0.  1.
          1    1    3    3  501    0  0.10881708899E+02  0.15787720160E+02 -0.23668458359E+03  0.23746000885E+03  0.00000000000E+00 0.  1.
         -3    1    1    2    0  502 -0.21998305002E+02 -0.34490762017E+02 -0.53164145306E+03  0.53321306501E+03  0.00000000000E+00 0. -1.
<mgrwt>
<rscale>  1 0.30000000E+03</rscale>
<asrwt>0</asrwt>
<pdfrwt beam="1">  1       21 0.61343680E-02 0.30000000E+03</pdfrwt>
<pdfrwt beam="2">0</pdfrwt>
<totfact> 0.20281623E+04</totfact>
</mgrwt>
</event>
<event>
 6    1  0.6377696E-002  0.3000000E+03  0.7818608E-02  0.1093470E+00
         21   -1    0    0  501  502  0.00000000000E+00  0.00000000000E+00  0.15195570477E+01  0.15195570477E+01  0.00000000000E+00 0. -1.
         13   -1    0    0    0    0 -0.00000000000E+00 -0.00000000000E+00 -0.10000000000E+04  0.10000000000E+04  0.00000000000E+00 0.  1.
    9000005    2    1    2  501    0  0.37421401684E+02 -0.51664061885E+01 -0.61940011840E+03  0.62056162562E+03  0.36292503680E+01 0.  0.
         13    1    3    3    0    0  0.13310344068E+01  0.41484778931E+00 -0.28499071624E+02  0.28533153256E+02  0.00000000000E+00 0.  1.
          3    1    3    3  501    0  0.36090367277E+02 -0.55812539778E+01 -0.59090104677E+03  0.59202847236E+03  0.00000000000E+00 0.  1.
         -1    1    1    2    0  502 -0.37421401684E+02  0.51664061885E+01 -0.37908032455E+03  0.38095793143E+03  0.00000000000E+00 0. -1.
<mgrwt>
<rscale>  1 0.30000000E+03</rscale>
<asrwt>0</asrwt>
<pdfrwt beam="1">  1       21 0.55256736E-02 0.30000000E+03</pdfrwt>
<pdfrwt beam="2">0</pdfrwt>
<totfact> 0.24279459E+04</totfact>
</mgrwt>
</event>
<event>
 6    1  0.6377696E-002  0.3000000E+03  0.7818608E-02  0.1093470E+00
         21   -1    0    0  501  502  0.00000000000E+00  0.00000000000E+00  0.14643907813E+01  0.14643907813E+01  0.00000000000E+00 0. -1.
         13   -1    0    0    0    0 -0.00000000000E+00 -0.00000000000E+00 -0.10000000000E+04  0.10000000000E+04  0.00000000000E+00 0.  1.
    9000005    2    1    2  501    0 -0.54283895408E+01  0.34965394454E+02 -0.31442313758E+03  0.31643744235E+03  0.43242634579E+01 0.  0.
         13    1    3    3    0    0 -0.77264403410E+00  0.11828668564E+02 -0.90158875831E+02  0.90934796804E+02  0.00000000000E+00 0.  1.
          3    1    3    3  501    0 -0.46557455067E+01  0.23136725891E+02 -0.22426426175E+03  0.22550264554E+03  0.00000000000E+00 0.  1.
         -1    1    1    2    0  502  0.54283895408E+01 -0.34965394454E+02 -0.68411247164E+03  0.68502694843E+03  0.00000000000E+00 0. -1.
<mgrwt>
<rscale>  1 0.30000000E+03</rscale>
<asrwt>0</asrwt>
<pdfrwt beam="1">  1       21 0.53250686E-02 0.30000000E+03</pdfrwt>
<pdfrwt beam="2">0</pdfrwt>
<totfact> 0.25867223E+04</totfact>
</mgrwt>
</event>
<event>
 6    1  0.6377696E-002  0.3000000E+03  0.7818608E-02  0.1093470E+00
         21   -1    0    0  501  502  0.00000000000E+00  0.00000000000E+00  0.17181774428E+01  0.17181774428E+01  0.00000000000E+00 0. -1.
         13   -1    0    0    0    0 -0.00000000000E+00 -0.00000000000E+00 -0.10000000000E+04  0.10000000000E+04  0.00000000000E+00 0.  1.
    9000005    2    1    2  501    0  0.15570446006E+02 -0.27407842146E+02 -0.82404633172E+03  0.82465424868E+03  0.29401450413E+01 0.  0.
         13    1    3    3    0    0  0.11299545352E+02 -0.17108466257E+02 -0.52621973820E+03  0.52661901999E+03  0.00000000000E+00 0.  1.
          3    1    3    3  501    0  0.42709006538E+01 -0.10299375889E+02 -0.29782659352E+03  0.29803522870E+03  0.00000000000E+00 0.  1.
         -1    1    1    2    0  502 -0.15570446006E+02  0.27407842146E+02 -0.17423549084E+03  0.17706392876E+03  0.00000000000E+00 0. -1.
<mgrwt>
<rscale>  1 0.30000000E+03</rscale>
<asrwt>0</asrwt>
<pdfrwt beam="1">  1       21 0.62479311E-02 0.30000000E+03</pdfrwt>
<pdfrwt beam="2">0</pdfrwt>
<totfact> 0.19649203E+04</totfact>
</mgrwt>
</event>
<event>
 6    1  0.6377696E-002  0.3000000E+03  0.7818608E-02  0.1093470E+00
         21   -1    0    0  501  502  0.00000000000E+00  0.00000000000E+00  0.34751345468E+01  0.34751345468E+01  0.00000000000E+00 0. -1.
         13   -1    0    0    0    0 -0.00000000000E+00 -0.00000000000E+00 -0.10000000000E+04  0.10000000000E+04  0.00000000000E+00 0.  1.
    9000005    2    1    2  501    0 -0.38248578345E+02 -0.42596409036E+02 -0.38015941294E+03  0.38445673510E+03  0.28972581542E+01 0.  0.
         13    1    3    3    0    0 -0.35285656223E+02 -0.40358852248E+02 -0.35572801188E+03  0.35974481640E+03  0.00000000000E+00 0.  1.
          3    1    3    3  501    0 -0.29629221219E+01 -0.22375567881E+01 -0.24431401061E+02  0.24711918697E+02  0.00000000000E+00 0.  1.
         -3    1    1    2    0  502  0.38248578345E+02  0.42596409036E+02 -0.61636545251E+03  0.61901839945E+03  0.00000000000E+00 0. -1.
<mgrwt>
<rscale>  1 0.30000000E+03</rscale>
<asrwt>0</asrwt>
<pdfrwt beam="1">  1       21 0.12636880E-01 0.30000000E+03</pdfrwt>
<pdfrwt beam="2">0</pdfrwt>
<totfact> 0.56406484E+03</totfact>
</mgrwt>
</event>
<event>
 6    1  0.6377696E-002  0.3000000E+03  0.7818608E-02  0.1093470E+00
         21   -1    0    0  501  502  0.00000000000E+00  0.00000000000E+00  0.11653430701E+01  0.11653430701E+01  0.00000000000E+00 0. -1.
         13   -1    0    0    0    0 -0.00000000000E+00 -0.00000000000E+00 -0.10000000000E+04  0.10000000000E+04  0.00000000000E+00 0.  1.
    9000005    2    1    2  501    0 -0.24358119874E+02  0.20009994357E+02 -0.31819287960E+03  0.31979397082E+03  0.52685164301E+01 0.  0.
         13    1    3    3    0    0 -0.91821402934E+01  0.44678733673E+01 -0.10792304644E+03  0.10840506236E+03  0.00000000000E+00 0.  1.
          3    1    3    3  501    0 -0.15175979580E+02  0.15542120990E+02 -0.21026983316E+03  0.21138890846E+03  0.00000000000E+00 0.  1.
         -3    1    1    2    0  502  0.24358119874E+02 -0.20009994357E+02 -0.68064177733E+03  0.68137137225E+03  0.00000000000E+00 0. -1.
<mgrwt>
<rscale>  1 0.30000000E+03</rscale>
<asrwt>0</asrwt>
<pdfrwt beam="1">  1       21 0.42376201E-02 0.30000000E+03</pdfrwt>
<pdfrwt beam="2">0</pdfrwt>
<totfact> 0.38147521E+04</totfact>
</mgrwt>
</event>
<event>
 6    1  0.6377696E-002  0.3000000E+03  0.7818608E-02  0.1093470E+00
         21   -1    0    0  501  502  0.00000000000E+00  0.00000000000E+00  0.33033958768E+01  0.33033958768E+01  0.00000000000E+00 0. -1.
         13   -1    0    0    0    0 -0.00000000000E+00 -0.00000000000E+00 -0.10000000000E+04  0.10000000000E+04  0.00000000000E+00 0.  1.
    9000005    2    1    2  501    0  0.40563540842E+02  0.40501609363E+02 -0.52652679756E+03  0.52965222865E+03  0.39030198827E+01 0.  0.
         13    1    3    3    0    0  0.18226143440E+02  0.18467208253E+02 -0.22061733110E+03  0.22213787806E+03  0.00000000000E+00 0.  1.
          3    1    3    3  501    0  0.22337397401E+02  0.22034401109E+02 -0.30590946645E+03  0.30751435059E+03  0.00000000000E+00 0.  1.
         -1    1    1    2    0  502 -0.40563540842E+02 -0.40501609363E+02 -0.47016980657E+03  0.47365116723E+03  0.00000000000E+00 0. -1.
<mgrwt>
<rscale>  1 0.30000000E+03</rscale>
<asrwt>0</asrwt>
<pdfrwt beam="1">  1       21 0.12012374E-01 0.30000000E+03</pdfrwt>
<pdfrwt beam="2">0</pdfrwt>
<totfact> 0.61855382E+03</totfact>
</mgrwt>
</event>
<event>
 6    1  0.6377696E-002  0.3000000E+03  0.7818608E-02  0.1093470E+00
         21   -1    0    0  501  502  0.00000000000E+00  0.00000000000E+00  0.14411745226E+01  0.14411745226E+01  0.00000000000E+00 0. -1.
         13   -1    0    0    0    0 -0.00000000000E+00 -0.00000000000E+00 -0.10000000000E+04  0.10000000000E+04  0.00000000000E+00 0.  1.
    9000005    2    1    2  501    0 -0.31252665533E+02 -0.19728522621E+01 -0.21775116802E+03  0.22000581623E+03  0.25232421876E+01 0.  0.
         13    1    3    3    0    0 -0.82085714932E+01  0.53559186355E+00 -0.54612194794E+02  0.55228247527E+02  0.00000000000E+00 0.  1.
          1    1    3    3  501    0 -0.23044094040E+02 -0.25084441257E+01 -0.16313897323E+03  0.16477756871E+03  0.00000000000E+00 0.  1.
         -1    1    1    2    0  502  0.31252665533E+02  0.19728522621E+01 -0.78080765745E+03  0.78143535829E+03  0.00000000000E+00 0. -1.
<mgrwt>
<rscale>  1 0.30000000E+03</rscale>
<asrwt>0</asrwt>
<pdfrwt beam="1">  1       21 0.52406457E-02 0.30000000E+03</pdfrwt>
<pdfrwt beam="2">0</pdfrwt>
<totfact> 0.26583841E+04</totfact>
</mgrwt>
</event>
<event>
 6    1  0.6377696E-002  0.3000000E+03  0.7818608E-02  0.1093470E+00
         21   -1    0    0  501  502  0.00000000000E+00  0.00000000000E+00  0.27532786794E+01  0.27532786794E+01  0.00000000000E+00 0. -1.
         13   -1    0    0    0    0 -0.00000000000E+00 -0.00000000000E+00 -0.10000000000E+04  0.10000000000E+04  0.00000000000E+00 0.  1.
    9000005    2    1    2  501    0 -0.30100602751E+02  0.26717384373E+02 -0.17831083945E+03  0.18282898734E+03  0.34377656329E+01 0.  0.
         13    1    3    3    0    0 -0.13268772410E+02  0.12682154772E+02 -0.88438694310E+02  0.90323308299E+02  0.00000000000E+00 0.  1.
          3    1    3    3  501    0 -0.16831830341E+02  0.14035229601E+02 -0.89872145138E+02  0.92505679038E+02  0.00000000000E+00 0.  1.
         -1    1    1    2    0  502  0.30100602751E+02 -0.26717384373E+02 -0.81893588187E+03  0.81992429134E+03  0.00000000000E+00 0. -1.
<mgrwt>
<rscale>  1 0.30000000E+03</rscale>
<asrwt>0</asrwt>
<pdfrwt beam="1">  1       21 0.10011944E-01 0.30000000E+03</pdfrwt>
<pdfrwt beam="2">0</pdfrwt>
<totfact> 0.85848672E+03</totfact>
</mgrwt>
</event>
<event>
 6    1  0.6377696E-002  0.3000000E+03  0.7818608E-02  0.1093470E+00
         21   -1    0    0  501  502  0.00000000000E+00  0.00000000000E+00  0.12604160284E+01  0.12604160284E+01  0.00000000000E+00 0. -1.
         13   -1    0    0    0    0 -0.00000000000E+00 -0.00000000000E+00 -0.10000000000E+04  0.10000000000E+04  0.00000000000E+00 0.  1.
    9000005    2    1    2  501    0 -0.28481794080E+02  0.17154359099E+02 -0.33136962449E+03  0.33306273013E+03  0.44124293367E+01 0.  0.
         13    1    3    3    0    0 -0.18400735248E+01  0.10492041702E+01 -0.12626805062E+02  0.12803238108E+02  0.00000000000E+00 0.  1.
          3    1    3    3  501    0 -0.26641720555E+02  0.16105154928E+02 -0.31874281943E+03  0.32025949202E+03  0.00000000000E+00 0.  1.
         -1    1    1    2    0  502  0.28481794080E+02 -0.17154359099E+02 -0.66736995948E+03  0.66819768590E+03  0.00000000000E+00 0. -1.
<mgrwt>
<rscale>  1 0.30000000E+03</rscale>
<asrwt>0</asrwt>
<pdfrwt beam="1">  1       21 0.45833407E-02 0.30000000E+03</pdfrwt>
<pdfrwt beam="2">0</pdfrwt>
<totfact> 0.33401027E+04</totfact>
</mgrwt>
</event>
<event>
 6    1  0.6377696E-002  0.3000000E+03  0.7818608E-02  0.1093470E+00
         21   -1    0    0  501  502  0.00000000000E+00  0.00000000000E+00  0.16188868246E+01  0.16188868246E+01  0.00000000000E+00 0. -1.
         13   -1    0    0    0    0 -0.00000000000E+00 -0.00000000000E+00 -0.10000000000E+04  0.10000000000E+04  0.00000000000E+00 0.  1.
    9000005    2    1    2  501    0 -0.38430439623E+02  0.74713889772E+01 -0.60938614350E+03  0.61065877789E+03  0.44666302033E+01 0.  0.
         13    1    3    3    0    0 -0.51655630454E+01 -0.16574811099E+00 -0.66207430794E+02  0.66408842833E+02  0.00000000000E+00 0.  1.
          3    1    3    3  501    0 -0.33264876577E+02  0.76371370882E+01 -0.54317871270E+03  0.54424993506E+03  0.00000000000E+00 0.  1.
         -3    1    1    2    0  502  0.38430439623E+02 -0.74713889772E+01 -0.38899496968E+03  0.39096010893E+03  0.00000000000E+00 0. -1.
<mgrwt>
<rscale>  1 0.30000000E+03</rscale>
<asrwt>0</asrwt>
<pdfrwt beam="1">  1       21 0.58868736E-02 0.30000000E+03</pdfrwt>
<pdfrwt beam="2">0</pdfrwt>
<totfact> 0.21774615E+04</totfact>
</mgrwt>
</event>
<event>
 6    1  0.6377696E-002  0.3000000E+03  0.7818608E-02  0.1093470E+00
         21   -1    0    0  501  502  0.00000000000E+00  0.00000000000E+00  0.10596881266E+01  0.10596881266E+01  0.00000000000E+00 0. -1.
         13   -1    0    0    0    0 -0.00000000000E+00 -0.00000000000E+00 -0.10000000000E+04  0.10000000000E+04  0.00000000000E+00 0.  1.
    9000005    2    1    2  501    0  0.21387617681E+02  0.22094809619E+02 -0.34048031132E+03  0.34188203139E+03  0.32969976770E+01 0.  0.
         13    1    3    3    0    0  0.64651104876E+01  0.72151892446E+01 -0.12433772040E+03  0.12471457543E+03  0.00000000000E+00 0.  1.
          3    1    3    3  501    0  0.14922507193E+02  0.14879620374E+02 -0.21614259092E+03  0.21716745597E+03  0.00000000000E+00 0.  1.
         -3    1    1    2    0  502 -0.21387617681E+02 -0.22094809619E+02 -0.65846000056E+03  0.65917765673E+03  0.00000000000E+00 0. -1.
<mgrwt>
<rscale>  1 0.30000000E+03</rscale>
<asrwt>0</asrwt>
<pdfrwt beam="1">  1       21 0.38534195E-02 0.30000000E+03</pdfrwt>
<pdfrwt beam="2">0</pdfrwt>
<totfact> 0.44773227E+04</totfact>
</mgrwt>
</event>
<event>
 6    1  0.6377696E-002  0.3000000E+03  0.7818608E-02  0.1093470E+00
         21   -1    0    0  501  502  0.00000000000E+00  0.00000000000E+00  0.95810644752E+00  0.95810644752E+00  0.00000000000E+00 0. -1.
         13   -1    0    0    0    0 -0.00000000000E+00 -0.00000000000E+00 -0.10000000000E+04  0.10000000000E+04  0.00000000000E+00 0.  1.
    9000005    2    1    2  501    0  0.26399200646E+02 -0.15905801191E+02 -0.53326521738E+03  0.53416283615E+03  0.28689980312E+01 0.  0.
         13    1    3    3    0    0  0.14065125943E+02 -0.86826109749E+01 -0.26131185684E+03  0.26183411165E+03  0.00000000000E+00 0.  1.
          1    1    3    3  501    0  0.12334074703E+02 -0.72231902162E+01 -0.27195336054E+03  0.27232872450E+03  0.00000000000E+00 0.  1.
         -1    1    1    2    0  502 -0.26399200646E+02  0.15905801191E+02 -0.46577667617E+03  0.46679527030E+03  0.00000000000E+00 0. -1.
<mgrwt>
<rscale>  1 0.30000000E+03</rscale>
<asrwt>0</asrwt>
<pdfrwt beam="1">  1       21 0.34840308E-02 0.30000000E+03</pdfrwt>
<pdfrwt beam="2">0</pdfrwt>
<totfact> 0.53021198E+04</totfact>
</mgrwt>
</event>
<event>
 6    1  0.6377696E-002  0.3000000E+03  0.7818608E-02  0.1093470E+00
         21   -1    0    0  501  502  0.00000000000E+00  0.00000000000E+00  0.14074829851E+01  0.14074829851E+01  0.00000000000E+00 0. -1.
         13   -1    0    0    0    0 -0.00000000000E+00 -0.00000000000E+00 -0.10000000000E+04  0.10000000000E+04  0.00000000000E+00 0.  1.
    9000005    2    1    2  501    0 -0.15054507413E+02 -0.32512025156E+02 -0.35668942983E+03  0.35850527945E+03  0.38750571151E+01 0.  0.
         13    1    3    3    0    0 -0.14152067481E+02 -0.27946483043E+02 -0.31695870796E+03  0.31850291910E+03  0.00000000000E+00 0.  1.
          1    1    3    3  501    0 -0.90243993183E+00 -0.45655421131E+01 -0.39730721870E+02  0.40002360342E+02  0.00000000000E+00 0.  1.
         -1    1    1    2    0  502  0.15054507413E+02  0.32512025156E+02 -0.64190308719E+03  0.64290220354E+03  0.00000000000E+00 0. -1.
<mgrwt>
<rscale>  1 0.30000000E+03</rscale>
<asrwt>0</asrwt>
<pdfrwt beam="1">  1       21 0.51181307E-02 0.30000000E+03</pdfrwt>
<pdfrwt beam="2">0</pdfrwt>
<totfact> 0.27679875E+04</totfact>
</mgrwt>
</event>
<event>
 6    1  0.6377696E-002  0.3000000E+03  0.7818608E-02  0.1093470E+00
         21   -1    0    0  501  502  0.00000000000E+00  0.00000000000E+00  0.49797631475E+01  0.49797631475E+01  0.00000000000E+00 0. -1.
         13   -1    0    0    0    0 -0.00000000000E+00 -0.00000000000E+00 -0.10000000000E+04  0.10000000000E+04  0.00000000000E+00 0.  1.
    9000005    2    1    2  501    0  0.20066740755E+02  0.55780871791E+02 -0.76975508650E+03  0.77204507765E+03  0.40655867708E+01 0.  0.
         13    1    3    3    0    0  0.14295017411E+02  0.41620179930E+02 -0.59207827240E+03  0.59371143458E+03  0.00000000000E+00 0.  1.
          1    1    3    3  501    0  0.57717233443E+01  0.14160691861E+02 -0.17767681410E+03  0.17833364308E+03  0.00000000000E+00 0.  1.
         -3    1    1    2    0  502 -0.20066740755E+02 -0.55780871791E+02 -0.22526515035E+03  0.23293468549E+03  0.00000000000E+00 0. -1.
<mgrwt>
<rscale>  1 0.30000000E+03</rscale>
<asrwt>0</asrwt>
<pdfrwt beam="1">  1       21 0.18108268E-01 0.30000000E+03</pdfrwt>
<pdfrwt beam="2">0</pdfrwt>
<totfact> 0.28966397E+03</totfact>
</mgrwt>
</event>
<event>
 6    1  0.6377696E-002  0.3000000E+03  0.7818608E-02  0.1093470E+00
         21   -1    0    0  501  502  0.00000000000E+00  0.00000000000E+00  0.11667089159E+01  0.11667089159E+01  0.00000000000E+00 0. -1.
         13   -1    0    0    0    0 -0.00000000000E+00 -0.00000000000E+00 -0.10000000000E+04  0.10000000000E+04  0.00000000000E+00 0.  1.
    9000005    2    1    2  501    0 -0.27980105074E+02 -0.19439018758E+02 -0.51371913915E+03  0.51485764861E+03  0.32066605013E+01 0.  0.
         13    1    3    3    0    0 -0.24195894870E+02 -0.18036285510E+02 -0.45618414355E+03  0.45718127887E+03  0.00000000000E+00 0.  1.
          1    1    3    3  501    0 -0.37842102049E+01 -0.14027332474E+01 -0.57534995598E+02  0.57676369736E+02  0.00000000000E+00 0.  1.
         -1    1    1    2    0  502  0.27980105074E+02  0.19439018758E+02 -0.48511415194E+03  0.48630906031E+03  0.00000000000E+00 0. -1.
<mgrwt>
<rscale>  1 0.30000000E+03</rscale>
<asrwt>0</asrwt>
<pdfrwt beam="1">  1       21 0.42425868E-02 0.30000000E+03</pdfrwt>
<pdfrwt beam="2">0</pdfrwt>
<totfact> 0.38072094E+04</totfact>
</mgrwt>
</event>
<event>
 6    1  0.6377696E-002  0.3000000E+03  0.7818608E-02  0.1093470E+00
         21   -1    0    0  501  502  0.00000000000E+00  0.00000000000E+00  0.14751094602E+01  0.14751094602E+01  0.00000000000E+00 0. -1.
         13   -1    0    0    0    0 -0.00000000000E+00 -0.00000000000E+00 -0.10000000000E+04  0.10000000000E+04  0.00000000000E+00 0.  1.
    9000005    2    1    2  501    0 -0.49497793155E+01 -0.35973795625E+02 -0.66060764876E+03  0.66161237750E+03  0.31397718244E+01 0.  0.
         13    1    3    3    0    0 -0.16387645470E+01 -0.19711281383E+02 -0.37990772450E+03  0.38042226446E+03  0.00000000000E+00 0.  1.
          3    1    3    3  501    0 -0.33110147685E+01 -0.16262514242E+02 -0.28069992426E+03  0.28119011304E+03  0.00000000000E+00 0.  1.
         -1    1    1    2    0  502  0.49497793155E+01  0.35973795625E+02 -0.33791724178E+03  0.33986273196E+03  0.00000000000E+00 0. -1.
<mgrwt>
<rscale>  1 0.30000000E+03</rscale>
<asrwt>0</asrwt>
<pdfrwt beam="1">  1       21 0.53640457E-02 0.30000000E+03</pdfrwt>
<pdfrwt beam="2">0</pdfrwt>
<totfact> 0.25546408E+04</totfact>
</mgrwt>
</event>
<event>
 6    1  0.6377696E-002  0.3000000E+03  0.7818608E-02  0.1093470E+00
         21   -1    0    0  501  502  0.00000000000E+00  0.00000000000E+00  0.19623811546E+01  0.19623811546E+01  0.00000000000E+00 0. -1.
         13   -1    0    0    0    0 -0.00000000000E+00 -0.00000000000E+00 -0.10000000000E+04  0.10000000000E+04  0.00000000000E+00 0.  1.
    9000005    2    1    2  501    0 -0.35082425973E+02 -0.43021864013E+01 -0.19944304202E+03  0.20258600950E+03  0.37787320816E+01 0.  0.
         13    1    3    3    0    0  0.52233526920E-01  0.12104485572E+00 -0.91143367025E+00  0.92091885294E+00  0.00000000000E+00 0.  1.
          1    1    3    3  501    0 -0.35134659500E+02 -0.44232312570E+01 -0.19853160835E+03  0.20166509065E+03  0.00000000000E+00 0.  1.
         -3    1    1    2    0  502  0.35082425973E+02  0.43021864013E+01 -0.79859457683E+03  0.79937637165E+03  0.00000000000E+00 0. -1.
<mgrwt>
<rscale>  1 0.30000000E+03</rscale>
<asrwt>0</asrwt>
<pdfrwt beam="1">  1       21 0.71359465E-02 0.30000000E+03</pdfrwt>
<pdfrwt beam="2">0</pdfrwt>
<totfact> 0.15603684E+04</totfact>
</mgrwt>
</event>
<event>
 6    1  0.6377696E-002  0.3000000E+03  0.7818608E-02  0.1093470E+00
         21   -1    0    0  501  502  0.00000000000E+00  0.00000000000E+00  0.15236374124E+01  0.15236374124E+01  0.00000000000E+00 0. -1.
         13   -1    0    0    0    0 -0.00000000000E+00 -0.00000000000E+00 -0.10000000000E+04  0.10000000000E+04  0.00000000000E+00 0.  1.
    9000005    2    1    2  501    0 -0.20424722151E+02 -0.30968846696E+02 -0.35030143913E+03  0.35228795591E+03  0.44121287326E+01 0.  0.
         13    1    3    3    0    0 -0.20476667287E+02 -0.29846963415E+02 -0.33658822522E+03  0.33852882962E+03  0.00000000000E+00 0.  1.
          3    1    3    3  501    0  0.51945136051E-01 -0.11218832810E+01 -0.13713213913E+02  0.13759126289E+02  0.00000000000E+00 0.  1.
         -3    1    1    2    0  502  0.20424722151E+02  0.30968846696E+02 -0.64817492346E+03  0.64923568150E+03  0.00000000000E+00 0. -1.
<mgrwt>
<rscale>  1 0.30000000E+03</rscale>
<asrwt>0</asrwt>
<pdfrwt beam="1">  1       21 0.55405114E-02 0.30000000E+03</pdfrwt>
<pdfrwt beam="2">0</pdfrwt>
<totfact> 0.24168025E+04</totfact>
</mgrwt>
</event>
<event>
 6    1  0.6377696E-002  0.3000000E+03  0.7818608E-02  0.1093470E+00
         21   -1    0    0  501  502  0.00000000000E+00  0.00000000000E+00  0.44762619332E+01  0.44762619332E+01  0.00000000000E+00 0. -1.
         13   -1    0    0    0    0 -0.00000000000E+00 -0.00000000000E+00 -0.10000000000E+04  0.10000000000E+04  0.00000000000E+00 0.  1.
    9000005    2    1    2  501    0 -0.64505423909E+00  0.59867702701E+02 -0.27616410241E+03  0.28262943376E+03  0.53129511197E+01 0.  0.
         13    1    3    3    0    0 -0.50993672551E+00  0.13749049733E+02 -0.74411710254E+02  0.75672974218E+02  0.00000000000E+00 0.  1.
          3    1    3    3  501    0 -0.13511751358E+00  0.46118652968E+02 -0.20175239215E+03  0.20695645954E+03  0.00000000000E+00 0.  1.
         -1    1    1    2    0  502  0.64505423909E+00 -0.59867702701E+02 -0.71935963566E+03  0.72184682817E+03  0.00000000000E+00 0. -1.
<mgrwt>
<rscale>  1 0.30000000E+03</rscale>
<asrwt>0</asrwt>
<pdfrwt beam="1">  1       21 0.16277350E-01 0.30000000E+03</pdfrwt>
<pdfrwt beam="2">0</pdfrwt>
<totfact> 0.35374416E+03</totfact>
</mgrwt>
</event>
<event>
 6    1  0.6377696E-002  0.3000000E+03  0.7818608E-02  0.1093470E+00
         21   -1    0    0  501  502  0.00000000000E+00  0.00000000000E+00  0.10779281915E+01  0.10779281915E+01  0.00000000000E+00 0. -1.
         13   -1    0    0    0    0 -0.00000000000E+00 -0.00000000000E+00 -0.10000000000E+04  0.10000000000E+04  0.00000000000E+00 0.  1.
    9000005    2    1    2  501    0 -0.13568258177E+00  0.32102776067E+02 -0.59951549294E+03  0.60038325406E+03  0.32586544807E+01 0.  0.
         13    1    3    3    0    0  0.99090038968E+00  0.24165858682E+02 -0.43313414767E+03  0.43380889858E+03  0.00000000000E+00 0.  1.
          1    1    3    3  501    0 -0.11265829715E+01  0.79369173853E+01 -0.16638134527E+03  0.16657435547E+03  0.00000000000E+00 0.  1.
         -1    1    1    2    0  502  0.13568258177E+00 -0.32102776067E+02 -0.39940657886E+03  0.40069467414E+03  0.00000000000E+00 0. -1.
<mgrwt>
<rscale>  1 0.30000000E+03</rscale>
<asrwt>0</asrwt>
<pdfrwt beam="1">  1       21 0.39197471E-02 0.30000000E+03</pdfrwt>
<pdfrwt beam="2">0</pdfrwt>
<totfact> 0.43506460E+04</totfact>
</mgrwt>
</event>
<event>
 6    1  0.6377696E-002  0.3000000E+03  0.7818608E-02  0.1093470E+00
         21   -1    0    0  501  502  0.00000000000E+00  0.00000000000E+00  0.79555498399E+01  0.79555498399E+01  0.00000000000E+00 0. -1.
         13   -1    0    0    0    0 -0.00000000000E+00 -0.00000000000E+00 -0.10000000000E+04  0.10000000000E+04  0.00000000000E+00 0.  1.
    9000005    2    1    2  501    0  0.31853940953E+02  0.57631278588E+02 -0.15643847035E+03  0.16975903868E+03  0.30163524576E+01 0.  0.
         13    1    3    3    0    0  0.16473930699E+02  0.30863842395E+02 -0.79451117628E+02  0.86812713657E+02  0.00000000000E+00 0.  1.
          3    1    3    3  501    0  0.15380010253E+02  0.26767436194E+02 -0.76987352718E+02  0.82946325020E+02  0.00000000000E+00 0.  1.
         -3    1    1    2    0  502 -0.31853940953E+02 -0.57631278588E+02 -0.83560597981E+03  0.83819651116E+03  0.00000000000E+00 0. -1.
<mgrwt>
<rscale>  1 0.30000000E+03</rscale>
<asrwt>0</asrwt>
<pdfrwt beam="1">  1       21 0.28929333E-01 0.30000000E+03</pdfrwt>
<pdfrwt beam="2">0</pdfrwt>
<totfact> 0.11690542E+03</totfact>
</mgrwt>
</event>
<event>
 6    1  0.6377696E-002  0.3000000E+03  0.7818608E-02  0.1093470E+00
         21   -1    0    0  501  502  0.00000000000E+00  0.00000000000E+00  0.13328351935E+01  0.13328351935E+01  0.00000000000E+00 0. -1.
         13   -1    0    0    0    0 -0.00000000000E+00 -0.00000000000E+00 -0.10000000000E+04  0.10000000000E+04  0.00000000000E+00 0.  1.
    9000005    2    1    2  501    0  0.74848748600E+01 -0.30585695718E+02 -0.24851715476E+03  0.25052224277E+03  0.30182402911E+01 0.  0.
         13    1    3    3    0    0  0.35325308699E+01 -0.88061517674E+01 -0.71849972720E+02  0.72473758445E+02  0.00000000000E+00 0.  1.
          3    1    3    3  501    0  0.39523439901E+01 -0.21779543950E+02 -0.17666718204E+03  0.17804848432E+03  0.00000000000E+00 0.  1.
         -3    1    1    2    0  502 -0.74848748600E+01  0.30585695718E+02 -0.75015001004E+03  0.75081059243E+03  0.00000000000E+00 0. -1.
<mgrwt>
<rscale>  1 0.30000000E+03</rscale>
<asrwt>0</asrwt>
<pdfrwt beam="1">  1       21 0.48466837E-02 0.30000000E+03</pdfrwt>
<pdfrwt beam="2">0</pdfrwt>
<totfact> 0.30374055E+04</totfact>
</mgrwt>
</event>
<event>
 6    1  0.6377696E-002  0.3000000E+03  0.7818608E-02  0.1093470E+00
         21   -1    0    0  501  502  0.00000000000E+00  0.00000000000E+00  0.48267368424E+01  0.48267368424E+01  0.00000000000E+00 0. -1.
         13   -1    0    0    0    0 -0.00000000000E+00 -0.00000000000E+00 -0.10000000000E+04  0.10000000000E+04  0.00000000000E+00 0.  1.
    9000005    2    1    2  501    0  0.43682795199E+02  0.17235267210E+02 -0.12811106103E+03  0.13649379183E+03  0.35875086477E+01 0.  0.
         13    1    3    3    0    0  0.13306835074E+02  0.67440509846E+01 -0.43337706204E+02  0.45833512438E+02  0.00000000000E+00 0.  1.
          1    1    3    3  501    0  0.30375960124E+02  0.10491216225E+02 -0.84773354829E+02  0.90660279397E+02  0.00000000000E+00 0.  1.
         -3    1    1    2    0  502 -0.43682795199E+02 -0.17235267210E+02 -0.86706220213E+03  0.86833294501E+03  0.00000000000E+00 0. -1.
<mgrwt>
<rscale>  1 0.30000000E+03</rscale>
<asrwt>0</asrwt>
<pdfrwt beam="1">  1       21 0.17551807E-01 0.30000000E+03</pdfrwt>
<pdfrwt beam="2">0</pdfrwt>
<totfact> 0.30718415E+03</totfact>
</mgrwt>
</event>
<event>
 6    1  0.6377696E-002  0.3000000E+03  0.7818608E-02  0.1093470E+00
         21   -1    0    0  501  502  0.00000000000E+00  0.00000000000E+00  0.10894496916E+01  0.10894496916E+01  0.00000000000E+00 0. -1.
         13   -1    0    0    0    0 -0.00000000000E+00 -0.00000000000E+00 -0.10000000000E+04  0.10000000000E+04  0.00000000000E+00 0.  1.
    9000005    2    1    2  501    0 -0.24346531728E+02  0.21653103372E+02 -0.57256764816E+03  0.57350334058E+03  0.32801591683E+01 0.  0.
         13    1    3    3    0    0 -0.60524752635E+01  0.45012019832E+01 -0.11226338167E+03  0.11251648831E+03  0.00000000000E+00 0.  1.
          3    1    3    3  501    0 -0.18294056464E+02  0.17151901388E+02 -0.46030426649E+03  0.46098685227E+03  0.00000000000E+00 0.  1.
         -3    1    1    2    0  502  0.24346531728E+02 -0.21653103372E+02 -0.42634290215E+03  0.42758610911E+03  0.00000000000E+00 0. -1.
<mgrwt>
<rscale>  1 0.30000000E+03</rscale>
<asrwt>0</asrwt>
<pdfrwt beam="1">  1       21 0.39616436E-02 0.30000000E+03</pdfrwt>
<pdfrwt beam="2">0</pdfrwt>
<totfact> 0.42734994E+04</totfact>
</mgrwt>
</event>
<event>
 6    1  0.6377696E-002  0.3000000E+03  0.7818608E-02  0.1093470E+00
         21   -1    0    0  501  502  0.00000000000E+00  0.00000000000E+00  0.12269065408E+01  0.12269065408E+01  0.00000000000E+00 0. -1.
         13   -1    0    0    0    0 -0.00000000000E+00 -0.00000000000E+00 -0.10000000000E+04  0.10000000000E+04  0.00000000000E+00 0.  1.
    9000005    2    1    2  501    0 -0.29531538057E+01  0.31641590902E+02 -0.29050679190E+03  0.29224801735E+03  0.21900030728E+01 0.  0.
         13    1    3    3    0    0 -0.11390701750E+01  0.20435281466E+02 -0.18018228561E+03  0.18134098891E+03  0.00000000000E+00 0.  1.
          3    1    3    3  501    0 -0.18140836307E+01  0.11206309436E+02 -0.11032450629E+03  0.11090702845E+03  0.00000000000E+00 0.  1.
         -3    1    1    2    0  502  0.29531538057E+01 -0.31641590902E+02 -0.70826630156E+03  0.70897888919E+03  0.00000000000E+00 0. -1.
<mgrwt>
<rscale>  1 0.30000000E+03</rscale>
<asrwt>0</asrwt>
<pdfrwt beam="1">  1       21 0.44614877E-02 0.30000000E+03</pdfrwt>
<pdfrwt beam="2">0</pdfrwt>
<totfact> 0.34964273E+04</totfact>
</mgrwt>
</event>
<event>
 6    1  0.6377696E-002  0.3000000E+03  0.7818608E-02  0.1093470E+00
         21   -1    0    0  501  502  0.00000000000E+00  0.00000000000E+00  0.13930155648E+01  0.13930155648E+01  0.00000000000E+00 0. -1.
         13   -1    0    0    0    0 -0.00000000000E+00 -0.00000000000E+00 -0.10000000000E+04  0.10000000000E+04  0.00000000000E+00 0.  1.
    9000005    2    1    2  501    0 -0.16920690675E+02 -0.32801872039E+02 -0.43833079533E+03  0.43990242734E+03  0.42410925831E+01 0.  0.
         13    1    3    3    0    0 -0.92153855480E+01 -0.19427262617E+02 -0.23147413708E+03  0.23247068202E+03  0.00000000000E+00 0.  1.
          3    1    3    3  501    0 -0.77053051271E+01 -0.13374609422E+02 -0.20685665825E+03  0.20743174532E+03  0.00000000000E+00 0.  1.
         -3    1    1    2    0  502  0.16920690675E+02  0.32801872039E+02 -0.56027618911E+03  0.56149058822E+03  0.00000000000E+00 0. -1.
<mgrwt>
<rscale>  1 0.30000000E+03</rscale>
<asrwt>0</asrwt>
<pdfrwt beam="1">  1       21 0.50655218E-02 0.30000000E+03</pdfrwt>
<pdfrwt beam="2">0</pdfrwt>
<totfact> 0.28172196E+04</totfact>
</mgrwt>
</event>
<event>
 6    1  0.6377696E-002  0.3000000E+03  0.7818608E-02  0.1093470E+00
         21   -1    0    0  501  502  0.00000000000E+00  0.00000000000E+00  0.12948845589E+01  0.12948845589E+01  0.00000000000E+00 0. -1.
         13   -1    0    0    0    0 -0.00000000000E+00 -0.00000000000E+00 -0.10000000000E+04  0.10000000000E+04  0.00000000000E+00 0.  1.
    9000005    2    1    2  501    0  0.16742627137E+02 -0.31721438024E+02 -0.52684406781E+03  0.52807251245E+03  0.30563742999E+01 0.  0.
         13    1    3    3    0    0  0.11986045750E+02 -0.24841351744E+02 -0.39177575394E+03  0.39274546392E+03  0.00000000000E+00 0.  1.
          3    1    3    3  501    0  0.47565813872E+01 -0.68800862802E+01 -0.13506831387E+03  0.13532704853E+03  0.00000000000E+00 0.  1.
         -3    1    1    2    0  502 -0.16742627137E+02  0.31721438024E+02 -0.47186104763E+03  0.47322237211E+03  0.00000000000E+00 0. -1.
<mgrwt>
<rscale>  1 0.30000000E+03</rscale>
<asrwt>0</asrwt>
<pdfrwt beam="1">  1       21 0.47086811E-02 0.30000000E+03</pdfrwt>
<pdfrwt beam="2">0</pdfrwt>
<totfact> 0.31904074E+04</totfact>
</mgrwt>
</event>
<event>
 6    1  0.6377696E-002  0.3000000E+03  0.7818608E-02  0.1093470E+00
         21   -1    0    0  501  502  0.00000000000E+00  0.00000000000E+00  0.11135059034E+01  0.11135059034E+01  0.00000000000E+00 0. -1.
         13   -1    0    0    0    0 -0.00000000000E+00 -0.00000000000E+00 -0.10000000000E+04  0.10000000000E+04  0.00000000000E+00 0.  1.
    9000005    2    1    2  501    0 -0.25477214965E+02  0.16544501144E+02 -0.29642675415E+03  0.29799723156E+03  0.32742084636E+01 0.  0.
         13    1    3    3    0    0 -0.61208064132E+01  0.24979437593E+01 -0.59200411225E+02  0.59568386611E+02  0.00000000000E+00 0.  1.
          3    1    3    3  501    0 -0.19356408552E+02  0.14046557385E+02 -0.23722634292E+03  0.23842884495E+03  0.00000000000E+00 0.  1.
         -3    1    1    2    0  502  0.25477214965E+02 -0.16544501144E+02 -0.70245973995E+03  0.70311627435E+03  0.00000000000E+00 0. -1.
<mgrwt>
<rscale>  1 0.30000000E+03</rscale>
<asrwt>0</asrwt>
<pdfrwt beam="1">  1       21 0.40491209E-02 0.30000000E+03</pdfrwt>
<pdfrwt beam="2">0</pdfrwt>
<totfact> 0.41191625E+04</totfact>
</mgrwt>
</event>
<event>
 6    1  0.6377696E-002  0.3000000E+03  0.7818608E-02  0.1093470E+00
         21   -1    0    0  501  502  0.00000000000E+00  0.00000000000E+00  0.13842533064E+01  0.13842533064E+01  0.00000000000E+00 0. -1.
         13   -1    0    0    0    0 -0.00000000000E+00 -0.00000000000E+00 -0.10000000000E+04  0.10000000000E+04  0.00000000000E+00 0.  1.
    9000005    2    1    2  501    0 -0.28094250965E+02  0.13782978869E+02 -0.76882247371E+03  0.76947003263E+03  0.41082343081E+01 0.  0.
         13    1    3    3    0    0 -0.63913435185E+01  0.28381552692E+01 -0.21664912916E+03  0.21676196522E+03  0.00000000000E+00 0.  1.
          1    1    3    3  501    0 -0.21702907447E+02  0.10944823600E+02 -0.55217334455E+03  0.55270806741E+03  0.00000000000E+00 0.  1.
         -1    1    1    2    0  502  0.28094250965E+02 -0.13782978869E+02 -0.22979327298E+03  0.23191422068E+03  0.00000000000E+00 0. -1.
<mgrwt>
<rscale>  1 0.30000000E+03</rscale>
<asrwt>0</asrwt>
<pdfrwt beam="1">  1       21 0.50336590E-02 0.30000000E+03</pdfrwt>
<pdfrwt beam="2">0</pdfrwt>
<totfact> 0.28477027E+04</totfact>
</mgrwt>
</event>
<event>
 6    1  0.6377696E-002  0.3000000E+03  0.7818608E-02  0.1093470E+00
         21   -1    0    0  501  502  0.00000000000E+00  0.00000000000E+00  0.12003839709E+02  0.12003839709E+02  0.00000000000E+00 0. -1.
         13   -1    0    0    0    0 -0.00000000000E+00 -0.00000000000E+00 -0.10000000000E+04  0.10000000000E+04  0.00000000000E+00 0.  1.
    9000005    2    1    2  501    0  0.18712658424E+02 -0.35591751031E+02 -0.23530212547E+02  0.46700001176E+02  0.32066930988E+01 0.  0.
         13    1    3    3    0    0  0.14017006950E+02 -0.28477454074E+02 -0.17364848637E+02  0.36179826459E+02  0.00000000000E+00 0.  1.
          1    1    3    3  501    0  0.46956514741E+01 -0.71142969567E+01 -0.61653639091E+01  0.10520174717E+02  0.00000000000E+00 0.  1.
         -3    1    1    2    0  502 -0.18712658424E+02  0.35591751031E+02 -0.96446594774E+03  0.96530383853E+03  0.00000000000E+00 0. -1.
<mgrwt>
<rscale>  1 0.30000000E+03</rscale>
<asrwt>0</asrwt>
<pdfrwt beam="1">  1       21 0.43650418E-01 0.30000000E+03</pdfrwt>
<pdfrwt beam="2">0</pdfrwt>
<totfact> 0.50256682E+02</totfact>
</mgrwt>
</event>
<event>
 6    1  0.6377696E-002  0.3000000E+03  0.7818608E-02  0.1093470E+00
         21   -1    0    0  501  502  0.00000000000E+00  0.00000000000E+00  0.12107986138E+01  0.12107986138E+01  0.00000000000E+00 0. -1.
         13   -1    0    0    0    0 -0.00000000000E+00 -0.00000000000E+00 -0.10000000000E+04  0.10000000000E+04  0.00000000000E+00 0.  1.
    9000005    2    1    2  501    0 -0.29247352475E+02  0.17700188683E+02 -0.47065276510E+03  0.47196907724E+03  0.84900100892E+01 0.  0.
         13    1    3    3    0    0 -0.27540333238E+02  0.16624001177E+02 -0.46022256593E+03  0.46134546444E+03  0.00000000000E+00 0.  1.
          3    1    3    3  501    0 -0.17070192370E+01  0.10761875061E+01 -0.10430199168E+02  0.10623612799E+02  0.00000000000E+00 0.  1.
         -3    1    1    2    0  502  0.29247352475E+02 -0.17700188683E+02 -0.52813643629E+03  0.52924172137E+03  0.00000000000E+00 0. -1.
<mgrwt>
<rscale>  1 0.30000000E+03</rscale>
<asrwt>0</asrwt>
<pdfrwt beam="1">  1       21 0.44029133E-02 0.30000000E+03</pdfrwt>
<pdfrwt beam="2">0</pdfrwt>
<totfact> 0.35756289E+04</totfact>
</mgrwt>
</event>
<event>
 6    1  0.6377696E-002  0.3000000E+03  0.7818608E-02  0.1093470E+00
         21   -1    0    0  501  502  0.00000000000E+00  0.00000000000E+00  0.16346216131E+01  0.16346216131E+01  0.00000000000E+00 0. -1.
         13   -1    0    0    0    0 -0.00000000000E+00 -0.00000000000E+00 -0.10000000000E+04  0.10000000000E+04  0.00000000000E+00 0.  1.
    9000005    2    1    2  501    0 -0.76558202314E+01  0.37342857645E+02 -0.66451018219E+03  0.66561022871E+03  0.31770621713E+01 0.  0.
         13    1    3    3    0    0 -0.42720268211E+01  0.25271893678E+02 -0.46657515951E+03  0.46727860885E+03  0.00000000000E+00 0.  1.
          1    1    3    3  501    0 -0.33837934103E+01  0.12070963967E+02 -0.19793502268E+03  0.19833161985E+03  0.00000000000E+00 0.  1.
         -1    1    1    2    0  502  0.76558202314E+01 -0.37342857645E+02 -0.33385519620E+03  0.33602439291E+03  0.00000000000E+00 0. -1.
<mgrwt>
<rscale>  1 0.30000000E+03</rscale>
<asrwt>0</asrwt>
<pdfrwt beam="1">  1       21 0.59440911E-02 0.30000000E+03</pdfrwt>
<pdfrwt beam="2">0</pdfrwt>
<totfact> 0.21414583E+04</totfact>
</mgrwt>
</event>
<event>
 6    1  0.6377696E-002  0.3000000E+03  0.7818608E-02  0.1093470E+00
         21   -1    0    0  501  502  0.00000000000E+00  0.00000000000E+00  0.12115174496E+02  0.12115174496E+02  0.00000000000E+00 0. -1.
         13   -1    0    0    0    0 -0.00000000000E+00 -0.00000000000E+00 -0.10000000000E+04  0.10000000000E+04  0.00000000000E+00 0.  1.
    9000005    2    1    2  501    0  0.71685101461E+02 -0.81817191567E+02 -0.57063174316E+03  0.58091575272E+03  0.31175085340E+01 0.  0.
         13    1    3    3    0    0  0.27994523733E+02 -0.29771435727E+02 -0.21182334010E+03  0.21572936553E+03  0.00000000000E+00 0.  1.
          1    1    3    3  501    0  0.43690577728E+02 -0.52045755840E+02 -0.35880840306E+03  0.36518638719E+03  0.00000000000E+00 0.  1.
         -3    1    1    2    0  502 -0.71685101461E+02  0.81817191567E+02 -0.41725308235E+03  0.43119942177E+03  0.00000000000E+00 0. -1.
<mgrwt>
<rscale>  1 0.30000000E+03</rscale>
<asrwt>0</asrwt>
<pdfrwt beam="1">  1       21 0.44055273E-01 0.30000000E+03</pdfrwt>
<pdfrwt beam="2">0</pdfrwt>
<totfact> 0.49282199E+02</totfact>
</mgrwt>
</event>
<event>
 6    1  0.6377696E-002  0.3000000E+03  0.7818608E-02  0.1093470E+00
         21   -1    0    0  501  502  0.00000000000E+00  0.00000000000E+00  0.24724788601E+01  0.24724788601E+01  0.00000000000E+00 0. -1.
         13   -1    0    0    0    0 -0.00000000000E+00 -0.00000000000E+00 -0.10000000000E+04  0.10000000000E+04  0.00000000000E+00 0.  1.
    9000005    2    1    2  501    0 -0.27281318035E+02  0.20446519858E+02 -0.13504142827E+03  0.13931282336E+03  0.30894846619E+01 0.  0.
         13    1    3    3    0    0 -0.26155705176E+02  0.18820864089E+02 -0.12853231457E+03  0.13251000614E+03  0.00000000000E+00 0.  1.
          3    1    3    3  501    0 -0.11256128584E+01  0.16256557687E+01 -0.65091137000E+01  0.68028172212E+01  0.00000000000E+00 0.  1.
         -1    1    1    2    0  502  0.27281318035E+02 -0.20446519858E+02 -0.86248609287E+03  0.86315965550E+03  0.00000000000E+00 0. -1.
<mgrwt>
<rscale>  1 0.30000000E+03</rscale>
<asrwt>0</asrwt>
<pdfrwt beam="1">  1       21 0.89908512E-02 0.30000000E+03</pdfrwt>
<pdfrwt beam="2">0</pdfrwt>
<totfact> 0.10396806E+04</totfact>
</mgrwt>
</event>
<event>
 6    1  0.6377696E-002  0.3000000E+03  0.7818608E-02  0.1093470E+00
         21   -1    0    0  501  502  0.00000000000E+00  0.00000000000E+00  0.20848791893E+01  0.20848791893E+01  0.00000000000E+00 0. -1.
         13   -1    0    0    0    0 -0.00000000000E+00 -0.00000000000E+00 -0.10000000000E+04  0.10000000000E+04  0.00000000000E+00 0.  1.
    9000005    2    1    2  501    0  0.12557428492E+02 -0.43466136512E+02 -0.43653906176E+03  0.43888857797E+03  0.31364622040E+01 0.  0.
         13    1    3    3    0    0  0.99635148524E+01 -0.37941100290E+02 -0.38218838484E+03  0.38419625223E+03  0.00000000000E+00 0.  1.
          3    1    3    3  501    0  0.25939136399E+01 -0.55250362224E+01 -0.54350676913E+02  0.54692325734E+02  0.00000000000E+00 0.  1.
         -3    1    1    2    0  502 -0.12557428492E+02  0.43466136512E+02 -0.56137605905E+03  0.56319630122E+03  0.00000000000E+00 0. -1.
<mgrwt>
<rscale>  1 0.30000000E+03</rscale>
<asrwt>0</asrwt>
<pdfrwt beam="1">  1       21 0.75813949E-02 0.30000000E+03</pdfrwt>
<pdfrwt beam="2">0</pdfrwt>
<totfact> 0.14036597E+04</totfact>
</mgrwt>
</event>
<event>
 6    1  0.6377696E-002  0.3000000E+03  0.7818608E-02  0.1093470E+00
         21   -1    0    0  501  502  0.00000000000E+00  0.00000000000E+00  0.17030475027E+01  0.17030475027E+01  0.00000000000E+00 0. -1.
         13   -1    0    0    0    0 -0.00000000000E+00 -0.00000000000E+00 -0.10000000000E+04  0.10000000000E+04  0.00000000000E+00 0.  1.
    9000005    2    1    2  501    0  0.19579380123E+02 -0.34994842183E+02 -0.38623035545E+03  0.38832428171E+03  0.37241359241E+01 0.  0.
         13    1    3    3    0    0  0.98674932778E+01 -0.19450576921E+02 -0.19403814182E+03  0.19526006465E+03  0.00000000000E+00 0.  1.
          3    1    3    3  501    0  0.97118868448E+01 -0.15544265262E+02 -0.19219221363E+03  0.19306421705E+03  0.00000000000E+00 0.  1.
         -3    1    1    2    0  502 -0.19579380123E+02  0.34994842183E+02 -0.61206659705E+03  0.61337876580E+03  0.00000000000E+00 0. -1.
<mgrwt>
<rscale>  1 0.30000000E+03</rscale>
<asrwt>0</asrwt>
<pdfrwt beam="1">  1       21 0.61929131E-02 0.30000000E+03</pdfrwt>
<pdfrwt beam="2">0</pdfrwt>
<totfact> 0.19951711E+04</totfact>
</mgrwt>
</event>
<event>
 6    1  0.6377696E-002  0.3000000E+03  0.7818608E-02  0.1093470E+00
         21   -1    0    0  501  502  0.00000000000E+00  0.00000000000E+00  0.15943441703E+01  0.15943441703E+01  0.00000000000E+00 0. -1.
         13   -1    0    0    0    0 -0.00000000000E+00 -0.00000000000E+00 -0.10000000000E+04  0.10000000000E+04  0.00000000000E+00 0.  1.
    9000005    2    1    2  501    0 -0.51659207413E+01  0.37223082243E+02 -0.66730839159E+03  0.66837123126E+03  0.27145358007E+01 0.  0.
         13    1    3    3    0    0 -0.41218544389E+01  0.19983402966E+02 -0.36516947688E+03  0.36573907766E+03  0.00000000000E+00 0.  1.
          1    1    3    3  501    0 -0.10440663024E+01  0.17239679276E+02 -0.30213891471E+03  0.30263215360E+03  0.00000000000E+00 0.  1.
         -3    1    1    2    0  502  0.51659207413E+01 -0.37223082243E+02 -0.33109726424E+03  0.33322311291E+03  0.00000000000E+00 0. -1.
<mgrwt>
<rscale>  1 0.30000000E+03</rscale>
<asrwt>0</asrwt>
<pdfrwt beam="1">  1       21 0.57976274E-02 0.30000000E+03</pdfrwt>
<pdfrwt beam="2">0</pdfrwt>
<totfact> 0.22355319E+04</totfact>
</mgrwt>
</event>
<event>
 6    1  0.6377696E-002  0.3000000E+03  0.7818608E-02  0.1093470E+00
         21   -1    0    0  501  502  0.00000000000E+00  0.00000000000E+00  0.11243019818E+01  0.11243019818E+01  0.00000000000E+00 0. -1.
         13   -1    0    0    0    0 -0.00000000000E+00 -0.00000000000E+00 -0.10000000000E+04  0.10000000000E+04  0.00000000000E+00 0.  1.
    9000005    2    1    2  501    0  0.26669167820E+02  0.19310262226E+02 -0.58463510061E+03  0.58557718879E+03  0.42793023449E+01 0.  0.
         13    1    3    3    0    0  0.21542558643E+02  0.14310724995E+02 -0.43095245484E+03  0.43172780431E+03  0.00000000000E+00 0.  1.
          3    1    3    3  501    0  0.51266091777E+01  0.49995372307E+01 -0.15368264577E+03  0.15384938448E+03  0.00000000000E+00 0.  1.
         -1    1    1    2    0  502 -0.26669167820E+02 -0.19310262226E+02 -0.41424059741E+03  0.41554711319E+03  0.00000000000E+00 0. -1.
<mgrwt>
<rscale>  1 0.30000000E+03</rscale>
<asrwt>0</asrwt>
<pdfrwt beam="1">  1       21 0.40883795E-02 0.30000000E+03</pdfrwt>
<pdfrwt beam="2">0</pdfrwt>
<totfact> 0.40527123E+04</totfact>
</mgrwt>
</event>
<event>
 6    1  0.6377696E-002  0.3000000E+03  0.7818608E-02  0.1093470E+00
         21   -1    0    0  501  502  0.00000000000E+00  0.00000000000E+00  0.12962392390E+01  0.12962392390E+01  0.00000000000E+00 0. -1.
         13   -1    0    0    0    0 -0.00000000000E+00 -0.00000000000E+00 -0.10000000000E+04  0.10000000000E+04  0.00000000000E+00 0.  1.
    9000005    2    1    2  501    0  0.31685328486E+02  0.16187487057E+02 -0.44283576223E+03  0.44429064988E+03  0.49673422184E+01 0.  0.
         13    1    3    3    0    0  0.10769812448E+02  0.29271210848E+01 -0.13872484295E+03  0.13917305397E+03  0.00000000000E+00 0.  1.
          3    1    3    3  501    0  0.20915516038E+02  0.13260365972E+02 -0.30411091927E+03  0.30511759592E+03  0.00000000000E+00 0.  1.
         -3    1    1    2    0  502 -0.31685328486E+02 -0.16187487057E+02 -0.55586799853E+03  0.55700558936E+03  0.00000000000E+00 0. -1.
<mgrwt>
<rscale>  1 0.30000000E+03</rscale>
<asrwt>0</asrwt>
<pdfrwt beam="1">  1       21 0.47136072E-02 0.30000000E+03</pdfrwt>
<pdfrwt beam="2">0</pdfrwt>
<totfact> 0.31847400E+04</totfact>
</mgrwt>
</event>
<event>
 6    1  0.6377696E-002  0.3000000E+03  0.7818608E-02  0.1093470E+00
         21   -1    0    0  501  502  0.00000000000E+00  0.00000000000E+00  0.94810995887E+01  0.94810995887E+01  0.00000000000E+00 0. -1.
         13   -1    0    0    0    0 -0.00000000000E+00 -0.00000000000E+00 -0.10000000000E+04  0.10000000000E+04  0.00000000000E+00 0.  1.
    9000005    2    1    2  501    0 -0.63158785005E+02 -0.62412318382E+02 -0.28864418248E+03  0.30201205484E+03  0.33893331195E+01 0.  0.
         13    1    3    3    0    0 -0.13515429968E+02 -0.12966828009E+02 -0.65606511959E+02  0.68227706155E+02  0.00000000000E+00 0.  1.
          1    1    3    3  501    0 -0.49643355037E+02 -0.49445490373E+02 -0.22303767052E+03  0.23378434868E+03  0.00000000000E+00 0.  1.
         -1    1    1    2    0  502  0.63158785005E+02  0.62412318382E+02 -0.70187471793E+03  0.70746904475E+03  0.00000000000E+00 0. -1.
<mgrwt>
<rscale>  1 0.30000000E+03</rscale>
<asrwt>0</asrwt>
<pdfrwt beam="1">  1       21 0.34476798E-01 0.30000000E+03</pdfrwt>
<pdfrwt beam="2">0</pdfrwt>
<totfact> 0.82067009E+02</totfact>
</mgrwt>
</event>
<event>
 6    1  0.6377696E-002  0.3000000E+03  0.7818608E-02  0.1093470E+00
         21   -1    0    0  501  502  0.00000000000E+00  0.00000000000E+00  0.63619585528E+01  0.63619585528E+01  0.00000000000E+00 0. -1.
         13   -1    0    0    0    0 -0.00000000000E+00 -0.00000000000E+00 -0.10000000000E+04  0.10000000000E+04  0.00000000000E+00 0.  1.
    9000005    2    1    2  501    0 -0.69138328580E+02 -0.35729089295E+02 -0.60623509201E+03  0.61121929883E+03  0.33716726108E+01 0.  0.
         13    1    3    3    0    0 -0.10492360569E+02 -0.64580076581E+01 -0.89685760480E+02  0.90528068167E+02  0.00000000000E+00 0.  1.
          1    1    3    3  501    0 -0.58645968011E+02 -0.29271081637E+02 -0.51654933153E+03  0.52069123066E+03  0.00000000000E+00 0.  1.
         -1    1    1    2    0  502  0.69138328580E+02  0.35729089295E+02 -0.38740294944E+03  0.39514265973E+03  0.00000000000E+00 0. -1.
<mgrwt>
<rscale>  1 0.30000000E+03</rscale>
<asrwt>0</asrwt>
<pdfrwt beam="1">  1       21 0.23134444E-01 0.30000000E+03</pdfrwt>
<pdfrwt beam="2">0</pdfrwt>
<totfact> 0.18137011E+03</totfact>
</mgrwt>
</event>
<event>
 6    1  0.6377696E-002  0.3000000E+03  0.7818608E-02  0.1093470E+00
         21   -1    0    0  501  502  0.00000000000E+00  0.00000000000E+00  0.19762717501E+01  0.19762717501E+01  0.00000000000E+00 0. -1.
         13   -1    0    0    0    0 -0.00000000000E+00 -0.00000000000E+00 -0.10000000000E+04  0.10000000000E+04  0.00000000000E+00 0.  1.
    9000005    2    1    2  501    0 -0.29299075879E+02  0.18311989629E+02 -0.81396591831E+03  0.81470363037E+03  0.27792711335E+01 0.  0.
         13    1    3    3    0    0 -0.12831978545E+02  0.92637552603E+01 -0.39332526886E+03  0.39364354937E+03  0.00000000000E+00 0.  1.
          3    1    3    3  501    0 -0.16467097334E+02  0.90482343689E+01 -0.42064064945E+03  0.42106008099E+03  0.00000000000E+00 0.  1.
         -1    1    1    2    0  502  0.29299075879E+02 -0.18311989629E+02 -0.18405780994E+03  0.18727264138E+03  0.00000000000E+00 0. -1.
<mgrwt>
<rscale>  1 0.30000000E+03</rscale>
<asrwt>0</asrwt>
<pdfrwt beam="1">  1       21 0.71864579E-02 0.30000000E+03</pdfrwt>
<pdfrwt beam="2">0</pdfrwt>
<totfact> 0.15412947E+04</totfact>
</mgrwt>
</event>
<event>
 6    1  0.6377696E-002  0.3000000E+03  0.7818608E-02  0.1093470E+00
         21   -1    0    0  501  502  0.00000000000E+00  0.00000000000E+00  0.48634574915E+01  0.48634574915E+01  0.00000000000E+00 0. -1.
         13   -1    0    0    0    0 -0.00000000000E+00 -0.00000000000E+00 -0.10000000000E+04  0.10000000000E+04  0.00000000000E+00 0.  1.
    9000005    2    1    2  501    0  0.43206031145E+02  0.50652545103E+02 -0.34906060970E+03  0.35536630399E+03  0.30755998352E+01 0.  0.
         13    1    3    3    0    0  0.33638120521E+02  0.41276212682E+02 -0.28048816425E+03  0.28549756421E+03  0.00000000000E+00 0.  1.
          3    1    3    3  501    0  0.95679106241E+01  0.93763324209E+01 -0.68572445449E+02  0.69868739779E+02  0.00000000000E+00 0.  1.
         -1    1    1    2    0  502 -0.43206031145E+02 -0.50652545103E+02 -0.64607593281E+03  0.64949715350E+03  0.00000000000E+00 0. -1.
<mgrwt>
<rscale>  1 0.30000000E+03</rscale>
<asrwt>0</asrwt>
<pdfrwt beam="1">  1       21 0.17685337E-01 0.30000000E+03</pdfrwt>
<pdfrwt beam="2">0</pdfrwt>
<totfact> 0.30284001E+03</totfact>
</mgrwt>
</event>
<event>
 6    1  0.6377696E-002  0.3000000E+03  0.7818608E-02  0.1093470E+00
         21   -1    0    0  501  502  0.00000000000E+00  0.00000000000E+00  0.10490041274E+01  0.10490041274E+01  0.00000000000E+00 0. -1.
         13   -1    0    0    0    0 -0.00000000000E+00 -0.00000000000E+00 -0.10000000000E+04  0.10000000000E+04  0.00000000000E+00 0.  1.
    9000005    2    1    2  501    0  0.74230907830E+01  0.31383639730E+02 -0.52925508799E+03  0.53024726135E+03  0.33428861262E+01 0.  0.
         13    1    3    3    0    0  0.55197705941E+01  0.27529949527E+02 -0.46807820520E+03  0.46891957964E+03  0.00000000000E+00 0.  1.
          1    1    3    3  501    0  0.19033201890E+01  0.38536902023E+01 -0.61176882785E+02  0.61327681705E+02  0.00000000000E+00 0.  1.
         -1    1    1    2    0  502 -0.74230907830E+01 -0.31383639730E+02 -0.46969590789E+03  0.47080174278E+03  0.00000000000E+00 0. -1.
<mgrwt>
<rscale>  1 0.30000000E+03</rscale>
<asrwt>0</asrwt>
<pdfrwt beam="1">  1       21 0.38145685E-02 0.30000000E+03</pdfrwt>
<pdfrwt beam="2">0</pdfrwt>
<totfact> 0.45542322E+04</totfact>
</mgrwt>
</event>
<event>
 6    1  0.6377696E-002  0.3000000E+03  0.7818608E-02  0.1093470E+00
         21   -1    0    0  501  502  0.00000000000E+00  0.00000000000E+00  0.15816577463E+01  0.15816577463E+01  0.00000000000E+00 0. -1.
         13   -1    0    0    0    0 -0.00000000000E+00 -0.00000000000E+00 -0.10000000000E+04  0.10000000000E+04  0.00000000000E+00 0.  1.
    9000005    2    1    2  501    0 -0.11875001578E+02 -0.31565153463E+02 -0.23627843922E+03  0.23869594785E+03  0.32984999289E+01 0.  0.
         13    1    3    3    0    0 -0.21330634100E+01 -0.30080592778E+01 -0.28743487991E+02  0.28979069723E+02  0.00000000000E+00 0.  1.
          1    1    3    3  501    0 -0.97419381675E+01 -0.28557094185E+02 -0.20753495123E+03  0.20971687813E+03  0.00000000000E+00 0.  1.
         -3    1    1    2    0  502  0.11875001578E+02  0.31565153463E+02 -0.76213990303E+03  0.76288570990E+03  0.00000000000E+00 0. -1.
<mgrwt>
<rscale>  1 0.30000000E+03</rscale>
<asrwt>0</asrwt>
<pdfrwt beam="1">  1       21 0.57514948E-02 0.30000000E+03</pdfrwt>
<pdfrwt beam="2">0</pdfrwt>
<totfact> 0.22664891E+04</totfact>
</mgrwt>
</event>
<event>
 6    1  0.6377696E-002  0.3000000E+03  0.7818608E-02  0.1093470E+00
         21   -1    0    0  501  502  0.00000000000E+00  0.00000000000E+00  0.10556974351E+01  0.10556974351E+01  0.00000000000E+00 0. -1.
         13   -1    0    0    0    0 -0.00000000000E+00 -0.00000000000E+00 -0.10000000000E+04  0.10000000000E+04  0.00000000000E+00 0.  1.
    9000005    2    1    2  501    0  0.10671155653E+02  0.30168579119E+02 -0.52320867930E+03  0.52424504322E+03  0.78438840954E+01 0.  0.
         13    1    3    3    0    0  0.84404595618E+01  0.19447187186E+02 -0.28655996627E+03  0.28734308538E+03  0.00000000000E+00 0.  1.
          1    1    3    3  501    0  0.22306960915E+01  0.10721391933E+02 -0.23664871303E+03  0.23690195784E+03  0.00000000000E+00 0.  1.
         -1    1    1    2    0  502 -0.10671155653E+02 -0.30168579119E+02 -0.47573562327E+03  0.47681065422E+03  0.00000000000E+00 0. -1.
<mgrwt>
<rscale>  1 0.30000000E+03</rscale>
<asrwt>0</asrwt>
<pdfrwt beam="1">  1       21 0.38389079E-02 0.30000000E+03</pdfrwt>
<pdfrwt beam="2">0</pdfrwt>
<totfact> 0.45058097E+04</totfact>
</mgrwt>
</event>
<event>
 6    1  0.6377696E-002  0.3000000E+03  0.7818608E-02  0.1093470E+00
         21   -1    0    0  501  502  0.00000000000E+00  0.00000000000E+00  0.20298279943E+01  0.20298279943E+01  0.00000000000E+00 0. -1.
         13   -1    0    0    0    0 -0.00000000000E+00 -0.00000000000E+00 -0.10000000000E+04  0.10000000000E+04  0.00000000000E+00 0.  1.
    9000005    2    1    2  501    0  0.37352584217E+01 -0.44533326514E+02 -0.55832725832E+03  0.56012139757E+03  0.30794978592E+01 0.  0.
         13    1    3    3    0    0  0.17040142174E+01 -0.35320574898E+02 -0.44077420227E+03  0.44219039345E+03  0.00000000000E+00 0.  1.
          3    1    3    3  501    0  0.20312442043E+01 -0.92127516153E+01 -0.11755305605E+03  0.11793100412E+03  0.00000000000E+00 0.  1.
         -1    1    1    2    0  502 -0.37352584217E+01  0.44533326514E+02 -0.43964291368E+03  0.44190843042E+03  0.00000000000E+00 0. -1.
<mgrwt>
<rscale>  1 0.30000000E+03</rscale>
<asrwt>0</asrwt>
<pdfrwt beam="1">  1       21 0.73812083E-02 0.30000000E+03</pdfrwt>
<pdfrwt beam="2">0</pdfrwt>
<totfact> 0.14709753E+04</totfact>
</mgrwt>
</event>
<event>
 6    1  0.6377696E-002  0.3000000E+03  0.7818608E-02  0.1093470E+00
         21   -1    0    0  501  502  0.00000000000E+00  0.00000000000E+00  0.15488595256E+01  0.15488595256E+01  0.00000000000E+00 0. -1.
         13   -1    0    0    0    0 -0.00000000000E+00 -0.00000000000E+00 -0.10000000000E+04  0.10000000000E+04  0.00000000000E+00 0.  1.
    9000005    2    1    2  501    0  0.25258419175E+02  0.26594051756E+02 -0.67922764421E+03  0.68022523466E+03  0.33084564848E+01 0.  0.
         13    1    3    3    0    0  0.10003088597E+02  0.12916948127E+02 -0.30248773278E+03  0.30292860184E+03  0.00000000000E+00 0.  1.
          3    1    3    3  501    0  0.15255330578E+02  0.13677103630E+02 -0.37673991143E+03  0.37729663282E+03  0.00000000000E+00 0.  1.
         -1    1    1    2    0  502 -0.25258419175E+02 -0.26594051756E+02 -0.31922349626E+03  0.32132362486E+03  0.00000000000E+00 0. -1.
<mgrwt>
<rscale>  1 0.30000000E+03</rscale>
<asrwt>0</asrwt>
<pdfrwt beam="1">  1       21 0.56322283E-02 0.30000000E+03</pdfrwt>
<pdfrwt beam="2">0</pdfrwt>
<totfact> 0.23496346E+04</totfact>
</mgrwt>
</event>
<event>
 6    1  0.6377696E-002  0.3000000E+03  0.7818608E-02  0.1093470E+00
         21   -1    0    0  501  502  0.00000000000E+00  0.00000000000E+00  0.93332115641E+00  0.93332115641E+00  0.00000000000E+00 0. -1.
         13   -1    0    0    0    0 -0.00000000000E+00 -0.00000000000E+00 -0.10000000000E+04  0.10000000000E+04  0.00000000000E+00 0.  1.
    9000005    2    1    2  501    0 -0.18898970029E+02 -0.23784629681E+02 -0.53879006043E+03  0.53965526495E+03  0.31931325201E+01 0.  0.
         13    1    3    3    0    0 -0.43043358252E+01 -0.74317451653E+01 -0.16433403237E+03  0.16455829465E+03  0.00000000000E+00 0.  1.
          1    1    3    3  501    0 -0.14594634204E+02 -0.16352884516E+02 -0.37445602806E+03  0.37509697030E+03  0.00000000000E+00 0.  1.
         -3    1    1    2    0  502  0.18898970029E+02  0.23784629681E+02 -0.46027661842E+03  0.46127805621E+03  0.00000000000E+00 0. -1.
<mgrwt>
<rscale>  1 0.30000000E+03</rscale>
<asrwt>0</asrwt>
<pdfrwt beam="1">  1       21 0.33939023E-02 0.30000000E+03</pdfrwt>
<pdfrwt beam="2">0</pdfrwt>
<totfact> 0.55396938E+04</totfact>
</mgrwt>
</event>
<event>
 6    1  0.6377696E-002  0.3000000E+03  0.7818608E-02  0.1093470E+00
         21   -1    0    0  501  502  0.00000000000E+00  0.00000000000E+00  0.10510159644E+01  0.10510159644E+01  0.00000000000E+00 0. -1.
         13   -1    0    0    0    0 -0.00000000000E+00 -0.00000000000E+00 -0.10000000000E+04  0.10000000000E+04  0.00000000000E+00 0.  1.
    9000005    2    1    2  501    0  0.19158353627E+02 -0.25225217404E+02 -0.60128262088E+03  0.60212509490E+03  0.32381532751E+01 0.  0.
         13    1    3    3    0    0  0.11801439709E+02 -0.15409826716E+02 -0.33793833911E+03  0.33849528472E+03  0.00000000000E+00 0.  1.
          1    1    3    3  501    0  0.73569139177E+01 -0.98153906882E+01 -0.26334428176E+03  0.26362981018E+03  0.00000000000E+00 0.  1.
         -1    1    1    2    0  502 -0.19158353627E+02  0.25225217404E+02 -0.39766636316E+03  0.39892592106E+03  0.00000000000E+00 0. -1.
<mgrwt>
<rscale>  1 0.30000000E+03</rscale>
<asrwt>0</asrwt>
<pdfrwt beam="1">  1       21 0.38218843E-02 0.30000000E+03</pdfrwt>
<pdfrwt beam="2">0</pdfrwt>
<totfact> 0.45395920E+04</totfact>
</mgrwt>
</event>
<event>
 6    1  0.6377696E-002  0.3000000E+03  0.7818608E-02  0.1093470E+00
         21   -1    0    0  501  502  0.00000000000E+00  0.00000000000E+00  0.15591184052E+01  0.15591184052E+01  0.00000000000E+00 0. -1.
         13   -1    0    0    0    0 -0.00000000000E+00 -0.00000000000E+00 -0.10000000000E+04  0.10000000000E+04  0.00000000000E+00 0.  1.
    9000005    2    1    2  501    0 -0.39045344648E+02 -0.39844031122E+01 -0.54262715686E+03  0.54405877298E+03  0.39118650832E+01 0.  0.
         13    1    3    3    0    0 -0.37625825933E+02 -0.45748574502E+01 -0.52256605283E+03  0.52393884344E+03  0.00000000000E+00 0.  1.
          1    1    3    3  501    0 -0.14195187154E+01  0.59045433801E+00 -0.20061104033E+02  0.20119929541E+02  0.00000000000E+00 0.  1.
         -3    1    1    2    0  502  0.39045344648E+02  0.39844031122E+01 -0.45581372473E+03  0.45750034542E+03  0.00000000000E+00 0. -1.
<mgrwt>
<rscale>  1 0.30000000E+03</rscale>
<asrwt>0</asrwt>
<pdfrwt beam="1">  1       21 0.56695334E-02 0.30000000E+03</pdfrwt>
<pdfrwt beam="2">0</pdfrwt>
<totfact> 0.23231319E+04</totfact>
</mgrwt>
</event>
<event>
 6    1  0.6377696E-002  0.3000000E+03  0.7818608E-02  0.1093470E+00
         21   -1    0    0  501  502  0.00000000000E+00  0.00000000000E+00  0.12890831723E+01  0.12890831723E+01  0.00000000000E+00 0. -1.
         13   -1    0    0    0    0 -0.00000000000E+00 -0.00000000000E+00 -0.10000000000E+04  0.10000000000E+04  0.00000000000E+00 0.  1.
    9000005    2    1    2  501    0  0.19943837806E+02  0.29426580096E+02 -0.43825784100E+03  0.43970976510E+03  0.33259649819E+01 0.  0.
         13    1    3    3    0    0  0.78759658437E+01  0.12610276688E+02 -0.16446811824E+03  0.16513876539E+03  0.00000000000E+00 0.  1.
          1    1    3    3  501    0  0.12067871963E+02  0.16816303408E+02 -0.27378972276E+03  0.27457099971E+03  0.00000000000E+00 0.  1.
         -1    1    1    2    0  502 -0.19943837806E+02 -0.29426580096E+02 -0.56045307583E+03  0.56157931807E+03  0.00000000000E+00 0. -1.
<mgrwt>
<rscale>  1 0.30000000E+03</rscale>
<asrwt>0</asrwt>
<pdfrwt beam="1">  1       21 0.46875851E-02 0.30000000E+03</pdfrwt>
<pdfrwt beam="2">0</pdfrwt>
<totfact> 0.32148575E+04</totfact>
</mgrwt>
</event>
<event>
 6    1  0.6377696E-002  0.3000000E+03  0.7818608E-02  0.1093470E+00
         21   -1    0    0  501  502  0.00000000000E+00  0.00000000000E+00  0.13344124264E+01  0.13344124264E+01  0.00000000000E+00 0. -1.
         13   -1    0    0    0    0 -0.00000000000E+00 -0.00000000000E+00 -0.10000000000E+04  0.10000000000E+04  0.00000000000E+00 0.  1.
    9000005    2    1    2  501    0  0.22105807035E+02 -0.28964859285E+02 -0.48128191817E+03  0.48266930742E+03  0.31218259076E+01 0.  0.
         13    1    3    3    0    0  0.21850112144E+02 -0.28851377562E+02 -0.47966050867E+03  0.48102394220E+03  0.00000000000E+00 0.  1.
          1    1    3    3  501    0  0.25569489132E+00 -0.11348172345E+00 -0.16214094955E+01  0.16453652273E+01  0.00000000000E+00 0.  1.
         -3    1    1    2    0  502 -0.22105807035E+02  0.28964859285E+02 -0.51738366941E+03  0.51866510500E+03  0.00000000000E+00 0. -1.
<mgrwt>
<rscale>  1 0.30000000E+03</rscale>
<asrwt>0</asrwt>
<pdfrwt beam="1">  1       21 0.48524191E-02 0.30000000E+03</pdfrwt>
<pdfrwt beam="2">0</pdfrwt>
<totfact> 0.30312964E+04</totfact>
</mgrwt>
</event>
<event>
 6    1  0.6377696E-002  0.3000000E+03  0.7818608E-02  0.1093470E+00
         21   -1    0    0  501  502  0.00000000000E+00  0.00000000000E+00  0.10253522931E+01  0.10253522931E+01  0.00000000000E+00 0. -1.
         13   -1    0    0    0    0 -0.00000000000E+00 -0.00000000000E+00 -0.10000000000E+04  0.10000000000E+04  0.00000000000E+00 0.  1.
    9000005    2    1    2  501    0 -0.19938264227E+02 -0.24300541035E+02 -0.40681867328E+03  0.40803568230E+03  0.19064159335E+01 0.  0.
         13    1    3    3    0    0 -0.15858733554E+02 -0.18334758488E+02 -0.31965363864E+03  0.32057153881E+03  0.00000000000E+00 0.  1.
          3    1    3    3  501    0 -0.40795306727E+01 -0.59657825466E+01 -0.87165034638E+02  0.87464143484E+02  0.00000000000E+00 0.  1.
         -1    1    1    2    0  502  0.19938264227E+02  0.24300541035E+02 -0.59215597442E+03  0.59298967000E+03  0.00000000000E+00 0. -1.
<mgrwt>
<rscale>  1 0.30000000E+03</rscale>
<asrwt>0</asrwt>
<pdfrwt beam="1">  1       21 0.37285617E-02 0.30000000E+03</pdfrwt>
<pdfrwt beam="2">0</pdfrwt>
<totfact> 0.47320633E+04</totfact>
</mgrwt>
</event>
<event>
 6    1  0.6377696E-002  0.3000000E+03  0.7818608E-02  0.1093470E+00
         21   -1    0    0  501  502  0.00000000000E+00  0.00000000000E+00  0.13461011426E+01  0.13461011426E+01  0.00000000000E+00 0. -1.
         13   -1    0    0    0    0 -0.00000000000E+00 -0.00000000000E+00 -0.10000000000E+04  0.10000000000E+04  0.00000000000E+00 0.  1.
    9000005    2    1    2  501    0  0.11238525061E+02 -0.29844706418E+02 -0.74533612326E+03  0.74602883502E+03  0.40093762766E+01 0.  0.
         13    1    3    3    0    0  0.59966709407E+01 -0.10422757113E+02 -0.27822451147E+03  0.27848424141E+03  0.00000000000E+00 0.  1.
          3    1    3    3  501    0  0.52418541207E+01 -0.19421949305E+02 -0.46711161179E+03  0.46754459361E+03  0.00000000000E+00 0.  1.
         -1    1    1    2    0  502 -0.11238525061E+02  0.29844706418E+02 -0.25331777559E+03  0.25531726612E+03  0.00000000000E+00 0. -1.
<mgrwt>
<rscale>  1 0.30000000E+03</rscale>
<asrwt>0</asrwt>
<pdfrwt beam="1">  1       21 0.48949236E-02 0.30000000E+03</pdfrwt>
<pdfrwt beam="2">0</pdfrwt>
<totfact> 0.29866150E+04</totfact>
</mgrwt>
</event>
<event>
 6    1  0.6377696E-002  0.3000000E+03  0.7818608E-02  0.1093470E+00
         21   -1    0    0  501  502  0.00000000000E+00  0.00000000000E+00  0.13288155378E+01  0.13288155378E+01  0.00000000000E+00 0. -1.
         13   -1    0    0    0    0 -0.00000000000E+00 -0.00000000000E+00 -0.10000000000E+04  0.10000000000E+04  0.00000000000E+00 0.  1.
    9000005    2    1    2  501    0  0.70827489482E+01  0.35652646942E+02 -0.46963166223E+03  0.47104201327E+03  0.23245511329E+01 0.  0.
         13    1    3    3    0    0  0.39688474460E+01  0.14155453419E+02 -0.19104907802E+03  0.19161387952E+03  0.00000000000E+00 0.  1.
          1    1    3    3  501    0  0.31139015021E+01  0.21497193523E+02 -0.27858258421E+03  0.27942813376E+03  0.00000000000E+00 0.  1.
         -3    1    1    2    0  502 -0.70827489482E+01 -0.35652646942E+02 -0.52903952224E+03  0.53028680226E+03  0.00000000000E+00 0. -1.
<mgrwt>
<rscale>  1 0.30000000E+03</rscale>
<asrwt>0</asrwt>
<pdfrwt beam="1">  1       21 0.48320667E-02 0.30000000E+03</pdfrwt>
<pdfrwt beam="2">0</pdfrwt>
<totfact> 0.30530619E+04</totfact>
</mgrwt>
</event>
<event>
 6    1  0.6377696E-002  0.3000000E+03  0.7818608E-02  0.1093470E+00
         21   -1    0    0  501  502  0.00000000000E+00  0.00000000000E+00  0.37701101542E+01  0.37701101542E+01  0.00000000000E+00 0. -1.
         13   -1    0    0    0    0 -0.00000000000E+00 -0.00000000000E+00 -0.10000000000E+04  0.10000000000E+04  0.00000000000E+00 0.  1.
    9000005    2    1    2  501    0  0.54536399208E+02  0.20669750643E+02 -0.34247710563E+03  0.34742099551E+03  0.30533272163E+01 0.  0.
         13    1    3    3    0    0  0.30909843283E+02  0.11542939976E+02 -0.20263965832E+03  0.20530827797E+03  0.00000000000E+00 0.  1.
          1    1    3    3  501    0  0.23626555925E+02  0.91268106677E+01 -0.13983744731E+03  0.14211271754E+03  0.00000000000E+00 0.  1.
         -1    1    1    2    0  502 -0.54536399208E+02 -0.20669750643E+02 -0.65375278421E+03  0.65634911465E+03  0.00000000000E+00 0. -1.
<mgrwt>
<rscale>  1 0.30000000E+03</rscale>
<asrwt>0</asrwt>
<pdfrwt beam="1">  1       21 0.13709520E-01 0.30000000E+03</pdfrwt>
<pdfrwt beam="2">0</pdfrwt>
<totfact> 0.48601726E+03</totfact>
</mgrwt>
</event>
<event>
 6    1  0.6377696E-002  0.3000000E+03  0.7818608E-02  0.1093470E+00
         21   -1    0    0  501  502  0.00000000000E+00  0.00000000000E+00  0.12566111661E+01  0.12566111661E+01  0.00000000000E+00 0. -1.
         13   -1    0    0    0    0 -0.00000000000E+00 -0.00000000000E+00 -0.10000000000E+04  0.10000000000E+04  0.00000000000E+00 0.  1.
    9000005    2    1    2  501    0 -0.87973070320E+01  0.33900847143E+02 -0.57250617249E+03  0.57358287496E+03  0.27086628744E+01 0.  0.
         13    1    3    3    0    0 -0.25768559425E+01  0.97009276125E+01 -0.14480722923E+03  0.14515468239E+03  0.00000000000E+00 0.  1.
          3    1    3    3  501    0 -0.62204510895E+01  0.24199919530E+02 -0.42769894326E+03  0.42842819257E+03  0.00000000000E+00 0.  1.
         -1    1    1    2    0  502  0.87973070320E+01 -0.33900847143E+02 -0.42623721634E+03  0.42767373621E+03  0.00000000000E+00 0. -1.
<mgrwt>
<rscale>  1 0.30000000E+03</rscale>
<asrwt>0</asrwt>
<pdfrwt beam="1">  1       21 0.45695048E-02 0.30000000E+03</pdfrwt>
<pdfrwt beam="2">0</pdfrwt>
<totfact> 0.33573004E+04</totfact>
</mgrwt>
</event>
<event>
 6    1  0.6377696E-002  0.3000000E+03  0.7818608E-02  0.1093470E+00
         21   -1    0    0  501  502  0.00000000000E+00  0.00000000000E+00  0.10902098553E+01  0.10902098553E+01  0.00000000000E+00 0. -1.
         13   -1    0    0    0    0 -0.00000000000E+00 -0.00000000000E+00 -0.10000000000E+04  0.10000000000E+04  0.00000000000E+00 0.  1.
    9000005    2    1    2  501    0  0.16856101612E+02  0.26512313864E+02 -0.65056468869E+03  0.65133123477E+03  0.33063973911E+01 0.  0.
         13    1    3    3    0    0  0.16580812926E+01  0.35039625163E+01 -0.62135212872E+02  0.62256017104E+02  0.00000000000E+00 0.  1.
          1    1    3    3  501    0  0.15198020319E+02  0.23008351348E+02 -0.58842947582E+03  0.58907521766E+03  0.00000000000E+00 0.  1.
         -1    1    1    2    0  502 -0.16856101612E+02 -0.26512313864E+02 -0.34834510146E+03  0.34975897509E+03  0.00000000000E+00 0. -1.
<mgrwt>
<rscale>  1 0.30000000E+03</rscale>
<asrwt>0</asrwt>
<pdfrwt beam="1">  1       21 0.39644078E-02 0.30000000E+03</pdfrwt>
<pdfrwt beam="2">0</pdfrwt>
<totfact> 0.42684849E+04</totfact>
</mgrwt>
</event>
<event>
 6    1  0.6377696E-002  0.3000000E+03  0.7818608E-02  0.1093470E+00
         21   -1    0    0  501  502  0.00000000000E+00  0.00000000000E+00  0.95406596290E+00  0.95406596290E+00  0.00000000000E+00 0. -1.
         13   -1    0    0    0    0 -0.00000000000E+00 -0.00000000000E+00 -0.10000000000E+04  0.10000000000E+04  0.00000000000E+00 0.  1.
    9000005    2    1    2  501    0 -0.27473443543E+02 -0.12623225997E+02 -0.40556051106E+03  0.40669900017E+03  0.32577097824E+01 0.  0.
         13    1    3    3    0    0 -0.29750572482E+01 -0.23189542739E+01 -0.59484004215E+02  0.59603483724E+02  0.00000000000E+00 0.  1.
          3    1    3    3  501    0 -0.24498386295E+02 -0.10304271723E+02 -0.34607650684E+03  0.34709551644E+03  0.00000000000E+00 0.  1.
         -3    1    1    2    0  502  0.27473443543E+02  0.12623225997E+02 -0.59348542298E+03  0.59425506580E+03  0.00000000000E+00 0. -1.
<mgrwt>
<rscale>  1 0.30000000E+03</rscale>
<asrwt>0</asrwt>
<pdfrwt beam="1">  1       21 0.34693381E-02 0.30000000E+03</pdfrwt>
<pdfrwt beam="2">0</pdfrwt>
<totfact> 0.53397547E+04</totfact>
</mgrwt>
</event>
<event>
 6    1  0.6377696E-002  0.3000000E+03  0.7818608E-02  0.1093470E+00
         21   -1    0    0  501  502  0.00000000000E+00  0.00000000000E+00  0.96639221613E+00  0.96639221613E+00  0.00000000000E+00 0. -1.
         13   -1    0    0    0    0 -0.00000000000E+00 -0.00000000000E+00 -0.10000000000E+04  0.10000000000E+04  0.00000000000E+00 0.  1.
    9000005    2    1    2  501    0  0.26178018739E+02 -0.15877735707E+02 -0.52321592034E+03  0.52416469041E+03  0.75054796005E+01 0.  0.
         13    1    3    3    0    0  0.17499873120E+02 -0.14311507275E+02 -0.39427565490E+03  0.39492322905E+03  0.00000000000E+00 0.  1.
          1    1    3    3  501    0  0.86781456190E+01 -0.15662284321E+01 -0.12894026544E+03  0.12924146136E+03  0.00000000000E+00 0.  1.
         -3    1    1    2    0  502 -0.26178018739E+02  0.15877735707E+02 -0.47581768745E+03  0.47680170180E+03  0.00000000000E+00 0. -1.
<mgrwt>
<rscale>  1 0.30000000E+03</rscale>
<asrwt>0</asrwt>
<pdfrwt beam="1">  1       21 0.35141609E-02 0.30000000E+03</pdfrwt>
<pdfrwt beam="2">0</pdfrwt>
<totfact> 0.52262203E+04</totfact>
</mgrwt>
</event>
<event>
 6    1  0.6377696E-002  0.3000000E+03  0.7818608E-02  0.1093470E+00
         21   -1    0    0  501  502  0.00000000000E+00  0.00000000000E+00  0.15018547452E+01  0.15018547452E+01  0.00000000000E+00 0. -1.
         13   -1    0    0    0    0 -0.00000000000E+00 -0.00000000000E+00 -0.10000000000E+04  0.10000000000E+04  0.00000000000E+00 0.  1.
    9000005    2    1    2  501    0 -0.28588562539E+01 -0.38275936158E+02 -0.55985253774E+03  0.56118016627E+03  0.38851840911E+01 0.  0.
         13    1    3    3    0    0 -0.34712252195E+01 -0.34299658140E+02 -0.48928650711E+03  0.49049954331E+03  0.00000000000E+00 0.  1.
          3    1    3    3  501    0  0.61236896564E+00 -0.39762780180E+01 -0.70566030627E+02  0.70680622954E+02  0.00000000000E+00 0.  1.
         -3    1    1    2    0  502  0.28588562539E+01  0.38275936158E+02 -0.43864560752E+03  0.44032168848E+03  0.00000000000E+00 0. -1.
<mgrwt>
<rscale>  1 0.30000000E+03</rscale>
<asrwt>0</asrwt>
<pdfrwt beam="1">  1       21 0.54613015E-02 0.30000000E+03</pdfrwt>
<pdfrwt beam="2">0</pdfrwt>
<totfact> 0.24772187E+04</totfact>
</mgrwt>
</event>
<event>
 6    1  0.6377696E-002  0.3000000E+03  0.7818608E-02  0.1093470E+00
         21   -1    0    0  501  502  0.00000000000E+00  0.00000000000E+00  0.10611298893E+01  0.10611298893E+01  0.00000000000E+00 0. -1.
         13   -1    0    0    0    0 -0.00000000000E+00 -0.00000000000E+00 -0.10000000000E+04  0.10000000000E+04  0.00000000000E+00 0.  1.
    9000005    2    1    2  501    0 -0.25078922310E+01  0.30353074425E+02 -0.33030633249E+03  0.33173529816E+03  0.42937296294E+01 0.  0.
         13    1    3    3    0    0  0.11750590834E+01  0.83182596863E+01 -0.85523944653E+02  0.85935553278E+02  0.00000000000E+00 0.  1.
          1    1    3    3  501    0 -0.36829513145E+01  0.22034814739E+02 -0.24478238784E+03  0.24579974489E+03  0.00000000000E+00 0.  1.
         -3    1    1    2    0  502  0.25078922310E+01 -0.30353074425E+02 -0.66863253762E+03  0.66932583173E+03  0.00000000000E+00 0. -1.
<mgrwt>
<rscale>  1 0.30000000E+03</rscale>
<asrwt>0</asrwt>
<pdfrwt beam="1">  1       21 0.38586623E-02 0.30000000E+03</pdfrwt>
<pdfrwt beam="2">0</pdfrwt>
<totfact> 0.44671003E+04</totfact>
</mgrwt>
</event>
<event>
 6    1  0.6377696E-002  0.3000000E+03  0.7818608E-02  0.1093470E+00
         21   -1    0    0  501  502  0.00000000000E+00  0.00000000000E+00  0.37630405029E+01  0.37630405029E+01  0.00000000000E+00 0. -1.
         13   -1    0    0    0    0 -0.00000000000E+00 -0.00000000000E+00 -0.10000000000E+04  0.10000000000E+04  0.00000000000E+00 0.  1.
    9000005    2    1    2  501    0 -0.48897844809E+02 -0.92802310190E+01 -0.20572284089E+03  0.21168369244E+03  0.33130749150E+01 0.  0.
         13    1    3    3    0    0 -0.17408853282E+02 -0.32492886937E+01 -0.66602301532E+02  0.68916562734E+02  0.00000000000E+00 0.  1.
          1    1    3    3  501    0 -0.31488991527E+02 -0.60309423253E+01 -0.13912053936E+03  0.14276712971E+03  0.00000000000E+00 0.  1.
         -3    1    1    2    0  502  0.48897844809E+02  0.92802310190E+01 -0.79051411860E+03  0.79207934806E+03  0.00000000000E+00 0. -1.
<mgrwt>
<rscale>  1 0.30000000E+03</rscale>
<asrwt>0</asrwt>
<pdfrwt beam="1">  1       21 0.13683813E-01 0.30000000E+03</pdfrwt>
<pdfrwt beam="2">0</pdfrwt>
<totfact> 0.48769289E+03</totfact>
</mgrwt>
</event>
<event>
 6    1  0.6377696E-002  0.3000000E+03  0.7818608E-02  0.1093470E+00
         21   -1    0    0  501  502  0.00000000000E+00  0.00000000000E+00  0.39676403207E+01  0.39676403207E+01  0.00000000000E+00 0. -1.
         13   -1    0    0    0    0 -0.00000000000E+00 -0.00000000000E+00 -0.10000000000E+04  0.10000000000E+04  0.00000000000E+00 0.  1.
    9000005    2    1    2  501    0  0.10588022708E+02 -0.48033928781E+02 -0.18533626025E+03  0.19178075901E+03  0.33114385105E+01 0.  0.
         13    1    3    3    0    0  0.50554393113E+01 -0.30319056453E+02 -0.11472046491E+03  0.11876694708E+03  0.00000000000E+00 0.  1.
          3    1    3    3  501    0  0.55325833971E+01 -0.17714872328E+02 -0.70615795339E+02  0.73013811926E+02  0.00000000000E+00 0.  1.
         -1    1    1    2    0  502 -0.10588022708E+02  0.48033928781E+02 -0.81069609943E+03  0.81218688131E+03  0.00000000000E+00 0. -1.
<mgrwt>
<rscale>  1 0.30000000E+03</rscale>
<asrwt>0</asrwt>
<pdfrwt beam="1">  1       21 0.14427813E-01 0.30000000E+03</pdfrwt>
<pdfrwt beam="2">0</pdfrwt>
<totfact> 0.44246964E+03</totfact>
</mgrwt>
</event>
<event>
 6    1  0.6377696E-002  0.3000000E+03  0.7818608E-02  0.1093470E+00
         21   -1    0    0  501  502  0.00000000000E+00  0.00000000000E+00  0.24280168197E+01  0.24280168197E+01  0.00000000000E+00 0. -1.
         13   -1    0    0    0    0 -0.00000000000E+00 -0.00000000000E+00 -0.10000000000E+04  0.10000000000E+04  0.00000000000E+00 0.  1.
    9000005    2    1    2  501    0 -0.13160314559E+02 -0.46010739299E+02 -0.38266064408E+03  0.38565728392E+03  0.34914325125E+01 0.  0.
         13    1    3    3    0    0 -0.10378911986E+02 -0.30319142092E+02 -0.25479555745E+03  0.25680293668E+03  0.00000000000E+00 0.  1.
          3    1    3    3  501    0 -0.27814025724E+01 -0.15691597207E+02 -0.12786508663E+03  0.12885434724E+03  0.00000000000E+00 0.  1.
         -3    1    1    2    0  502  0.13160314559E+02  0.46010739299E+02 -0.61491133910E+03  0.61677073290E+03  0.00000000000E+00 0. -1.
<mgrwt>
<rscale>  1 0.30000000E+03</rscale>
<asrwt>0</asrwt>
<pdfrwt beam="1">  1       21 0.88291707E-02 0.30000000E+03</pdfrwt>
<pdfrwt beam="2">0</pdfrwt>
<totfact> 0.10736176E+04</totfact>
</mgrwt>
</event>
<event>
 6    1  0.6377696E-002  0.3000000E+03  0.7818608E-02  0.1093470E+00
         21   -1    0    0  501  502  0.00000000000E+00  0.00000000000E+00  0.11669022970E+01  0.11669022970E+01  0.00000000000E+00 0. -1.
         13   -1    0    0    0    0 -0.00000000000E+00 -0.00000000000E+00 -0.10000000000E+04  0.10000000000E+04  0.00000000000E+00 0.  1.
    9000005    2    1    2  501    0  0.29729132199E+02  0.71841774430E+01 -0.31433228474E+03  0.31598313377E+03  0.10252896664E+02 0.  0.
         13    1    3    3    0    0  0.15283594534E+02  0.26868932151E+01 -0.20825489268E+03  0.20883224843E+03  0.00000000000E+00 0.  1.
          3    1    3    3  501    0  0.14445537665E+02  0.44972842279E+01 -0.10607739206E+03  0.10715088534E+03  0.00000000000E+00 0.  1.
         -1    1    1    2    0  502 -0.29729132199E+02 -0.71841774430E+01 -0.68450081296E+03  0.68518376853E+03  0.00000000000E+00 0. -1.
<mgrwt>
<rscale>  1 0.30000000E+03</rscale>
<asrwt>0</asrwt>
<pdfrwt beam="1">  1       21 0.42432900E-02 0.30000000E+03</pdfrwt>
<pdfrwt beam="2">0</pdfrwt>
<totfact> 0.38061434E+04</totfact>
</mgrwt>
</event>
<event>
 6    1  0.6377696E-002  0.3000000E+03  0.7818608E-02  0.1093470E+00
         21   -1    0    0  501  502  0.00000000000E+00  0.00000000000E+00  0.97533654515E+00  0.97533654515E+00  0.00000000000E+00 0. -1.
         13   -1    0    0    0    0 -0.00000000000E+00 -0.00000000000E+00 -0.10000000000E+04  0.10000000000E+04  0.00000000000E+00 0.  1.
    9000005    2    1    2  501    0 -0.29474879200E+02 -0.99534854225E+01 -0.52876092009E+03  0.52968367663E+03  0.29742738288E+01 0.  0.
         13    1    3    3    0    0 -0.96101432366E+01 -0.17964321672E+01 -0.16747513544E+03  0.16776025457E+03  0.00000000000E+00 0.  1.
          3    1    3    3  501    0 -0.19864735964E+02 -0.81570532553E+01 -0.36128578464E+03  0.36192342206E+03  0.00000000000E+00 0.  1.
         -3    1    1    2    0  502  0.29474879200E+02  0.99534854225E+01 -0.47026374337E+03  0.47129165991E+03  0.00000000000E+00 0. -1.
<mgrwt>
<rscale>  1 0.30000000E+03</rscale>
<asrwt>0</asrwt>
<pdfrwt beam="1">  1       21 0.35466858E-02 0.30000000E+03</pdfrwt>
<pdfrwt beam="2">0</pdfrwt>
<totfact> 0.51461655E+04</totfact>
</mgrwt>
</event>
<event>
 6    1  0.6377696E-002  0.3000000E+03  0.7818608E-02  0.1093470E+00
         21   -1    0    0  501  502  0.00000000000E+00  0.00000000000E+00  0.17727521850E+01  0.17727521850E+01  0.00000000000E+00 0. -1.
         13   -1    0    0    0    0 -0.00000000000E+00 -0.00000000000E+00 -0.10000000000E+04  0.10000000000E+04  0.00000000000E+00 0.  1.
    9000005    2    1    2  501    0 -0.22246154007E+02  0.34327422500E+02 -0.38935916436E+03  0.39153213869E+03  0.48573094976E+01 0.  0.
         13    1    3    3    0    0 -0.17548182805E+02  0.23000059095E+02 -0.27325182475E+03  0.27477900423E+03  0.00000000000E+00 0.  1.
          3    1    3    3  501    0 -0.46979712020E+01  0.11327363405E+02 -0.11610733961E+03  0.11675313446E+03  0.00000000000E+00 0.  1.
         -3    1    1    2    0  502  0.22246154007E+02 -0.34327422500E+02 -0.60886808346E+03  0.61024061349E+03  0.00000000000E+00 0. -1.
<mgrwt>
<rscale>  1 0.30000000E+03</rscale>
<asrwt>0</asrwt>
<pdfrwt beam="1">  1       21 0.64463852E-02 0.30000000E+03</pdfrwt>
<pdfrwt beam="2">0</pdfrwt>
<totfact> 0.18615026E+04</totfact>
</mgrwt>
</event>
<event>
 6    1  0.6377696E-002  0.3000000E+03  0.7818608E-02  0.1093470E+00
         21   -1    0    0  501  502  0.00000000000E+00  0.00000000000E+00  0.12853488865E+01  0.12853488865E+01  0.00000000000E+00 0. -1.
         13   -1    0    0    0    0 -0.00000000000E+00 -0.00000000000E+00 -0.10000000000E+04  0.10000000000E+04  0.00000000000E+00 0.  1.
    9000005    2    1    2  501    0 -0.18300689997E+02  0.30637169662E+02 -0.53339237292E+03  0.53459661536E+03  0.35448898031E+01 0.  0.
         13    1    3    3    0    0 -0.15827396620E+02  0.24794103877E+02 -0.42232399438E+03  0.42334715105E+03  0.00000000000E+00 0.  1.
          3    1    3    3  501    0 -0.24732933767E+01  0.58430657852E+01 -0.11106837854E+03  0.11124946431E+03  0.00000000000E+00 0.  1.
         -3    1    1    2    0  502  0.18300689997E+02 -0.30637169662E+02 -0.46532227819E+03  0.46668873352E+03  0.00000000000E+00 0. -1.
<mgrwt>
<rscale>  1 0.30000000E+03</rscale>
<asrwt>0</asrwt>
<pdfrwt beam="1">  1       21 0.46740058E-02 0.30000000E+03</pdfrwt>
<pdfrwt beam="2">0</pdfrwt>
<totfact> 0.32307515E+04</totfact>
</mgrwt>
</event>
<event>
 6    1  0.6377696E-002  0.3000000E+03  0.7818608E-02  0.1093470E+00
         21   -1    0    0  501  502  0.00000000000E+00  0.00000000000E+00  0.29987544263E+01  0.29987544263E+01  0.00000000000E+00 0. -1.
         13   -1    0    0    0    0 -0.00000000000E+00 -0.00000000000E+00 -0.10000000000E+04  0.10000000000E+04  0.00000000000E+00 0.  1.
    9000005    2    1    2  501    0 -0.14192514494E+02  0.37548336629E+02 -0.15861397385E+03  0.16365107770E+03  0.34608493103E+01 0.  0.
         13    1    3    3    0    0 -0.37771914830E+01  0.73178762071E+01 -0.28496768082E+02  0.29662843404E+02  0.00000000000E+00 0.  1.
          3    1    3    3  501    0 -0.10415323011E+02  0.30230460422E+02 -0.13011720577E+03  0.13398823429E+03  0.00000000000E+00 0.  1.
         -1    1    1    2    0  502  0.14192514494E+02 -0.37548336629E+02 -0.83838727172E+03  0.83934767673E+03  0.00000000000E+00 0. -1.
<mgrwt>
<rscale>  1 0.30000000E+03</rscale>
<asrwt>0</asrwt>
<pdfrwt beam="1">  1       21 0.10904585E-01 0.30000000E+03</pdfrwt>
<pdfrwt beam="2">0</pdfrwt>
<totfact> 0.73665437E+03</totfact>
</mgrwt>
</event>
<event>
 6    1  0.6377696E-002  0.3000000E+03  0.7818608E-02  0.1093470E+00
         21   -1    0    0  501  502  0.00000000000E+00  0.00000000000E+00  0.18126444320E+01  0.18126444320E+01  0.00000000000E+00 0. -1.
         13   -1    0    0    0    0 -0.00000000000E+00 -0.00000000000E+00 -0.10000000000E+04  0.10000000000E+04  0.00000000000E+00 0.  1.
    9000005    2    1    2  501    0  0.19692620008E+02  0.32019850322E+02 -0.73356221068E+03  0.73453088784E+03  0.30063537406E+01 0.  0.
         13    1    3    3    0    0  0.53163951014E+01  0.89569825386E+01 -0.23030786741E+03  0.23054328310E+03  0.00000000000E+00 0.  1.
          1    1    3    3  501    0  0.14376224907E+02  0.23062867783E+02 -0.50325434327E+03  0.50398760474E+03  0.00000000000E+00 0.  1.
         -3    1    1    2    0  502 -0.19692620008E+02 -0.32019850322E+02 -0.26462514489E+03  0.26728175659E+03  0.00000000000E+00 0. -1.
<mgrwt>
<rscale>  1 0.30000000E+03</rscale>
<asrwt>0</asrwt>
<pdfrwt beam="1">  1       21 0.65914482E-02 0.30000000E+03</pdfrwt>
<pdfrwt beam="2">0</pdfrwt>
<totfact> 0.17911317E+04</totfact>
</mgrwt>
</event>
<event>
 6    1  0.6377696E-002  0.3000000E+03  0.7818608E-02  0.1093470E+00
         21   -1    0    0  501  502  0.00000000000E+00  0.00000000000E+00  0.24448516617E+01  0.24448516617E+01  0.00000000000E+00 0. -1.
         13   -1    0    0    0    0 -0.00000000000E+00 -0.00000000000E+00 -0.10000000000E+04  0.10000000000E+04  0.00000000000E+00 0.  1.
    9000005    2    1    2  501    0 -0.41792379577E+02 -0.23120816105E+02 -0.37150630974E+03  0.37457677361E+03  0.31058045892E+01 0.  0.
         13    1    3    3    0    0 -0.27504492043E+02 -0.15201076953E+02 -0.25572493658E+03  0.25764862315E+03  0.00000000000E+00 0.  1.
          3    1    3    3  501    0 -0.14287887535E+02 -0.79197391517E+01 -0.11578137316E+03  0.11692815046E+03  0.00000000000E+00 0.  1.
         -3    1    1    2    0  502  0.41792379577E+02  0.23120816105E+02 -0.62604883860E+03  0.62786807806E+03  0.00000000000E+00 0. -1.
<mgrwt>
<rscale>  1 0.30000000E+03</rscale>
<asrwt>0</asrwt>
<pdfrwt beam="1">  1       21 0.88903884E-02 0.30000000E+03</pdfrwt>
<pdfrwt beam="2">0</pdfrwt>
<totfact> 0.10605731E+04</totfact>
</mgrwt>
</event>
<event>
 6    1  0.6377696E-002  0.3000000E+03  0.7818608E-02  0.1093470E+00
         21   -1    0    0  501  502  0.00000000000E+00  0.00000000000E+00  0.32641034543E+01  0.32641034543E+01  0.00000000000E+00 0. -1.
         13   -1    0    0    0    0 -0.00000000000E+00 -0.00000000000E+00 -0.10000000000E+04  0.10000000000E+04  0.00000000000E+00 0.  1.
    9000005    2    1    2  501    0  0.56248599321E+02 -0.96981750474E+01 -0.50073387023E+03  0.50398865880E+03  0.34928325766E+01 0.  0.
         13    1    3    3    0    0  0.42784974509E+02 -0.58733515601E+01 -0.37605095406E+03  0.37852261538E+03  0.00000000000E+00 0.  1.
          1    1    3    3  501    0  0.13463624811E+02 -0.38248234873E+01 -0.12468291616E+03  0.12546604342E+03  0.00000000000E+00 0.  1.
         -3    1    1    2    0  502 -0.56248599321E+02  0.96981750474E+01 -0.49600202632E+03  0.49927544466E+03  0.00000000000E+00 0. -1.
<mgrwt>
<rscale>  1 0.30000000E+03</rscale>
<asrwt>0</asrwt>
<pdfrwt beam="1">  1       21 0.11869492E-01 0.30000000E+03</pdfrwt>
<pdfrwt beam="2">0</pdfrwt>
<totfact> 0.63212613E+03</totfact>
</mgrwt>
</event>
<event>
 6    1  0.6377696E-002  0.3000000E+03  0.7818608E-02  0.1093470E+00
         21   -1    0    0  501  502  0.00000000000E+00  0.00000000000E+00  0.17214934265E+01  0.17214934265E+01  0.00000000000E+00 0. -1.
         13   -1    0    0    0    0 -0.00000000000E+00 -0.00000000000E+00 -0.10000000000E+04  0.10000000000E+04  0.00000000000E+00 0.  1.
    9000005    2    1    2  501    0 -0.95032227678E+01 -0.35954766496E+02 -0.27999296382E+03  0.28247384665E+03  0.35153621575E+01 0.  0.
         13    1    3    3    0    0 -0.54516997731E+01 -0.26722581080E+02 -0.20405474469E+03  0.20586926969E+03  0.00000000000E+00 0.  1.
          1    1    3    3  501    0 -0.40515229947E+01 -0.92321854156E+01 -0.75938219133E+02  0.76604576960E+02  0.00000000000E+00 0.  1.
         -1    1    1    2    0  502  0.95032227678E+01  0.35954766496E+02 -0.71828554275E+03  0.71924764678E+03  0.00000000000E+00 0. -1.
<mgrwt>
<rscale>  1 0.30000000E+03</rscale>
<asrwt>0</asrwt>
<pdfrwt beam="1">  1       21 0.62599893E-02 0.30000000E+03</pdfrwt>
<pdfrwt beam="2">0</pdfrwt>
<totfact> 0.19583854E+04</totfact>
</mgrwt>
</event>
<event>
 6    1  0.6377696E-002  0.3000000E+03  0.7818608E-02  0.1093470E+00
         21   -1    0    0  501  502  0.00000000000E+00  0.00000000000E+00  0.16748954936E+01  0.16748954936E+01  0.00000000000E+00 0. -1.
         13   -1    0    0    0    0 -0.00000000000E+00 -0.00000000000E+00 -0.10000000000E+04  0.10000000000E+04  0.00000000000E+00 0.  1.
    9000005    2    1    2  501    0  0.30774213678E+02 -0.25443468836E+01 -0.82684668943E+03  0.82743835292E+03  0.50253501274E+01 0.  0.
         13    1    3    3    0    0  0.26303682168E+02 -0.22449644670E+01 -0.74669680707E+03  0.74716333238E+03  0.00000000000E+00 0.  1.
          1    1    3    3  501    0  0.44705315104E+01 -0.29938241668E+00 -0.80149882354E+02  0.80275020543E+02  0.00000000000E+00 0.  1.
         -1    1    1    2    0  502 -0.30774213678E+02  0.25443468836E+01 -0.17147841508E+03  0.17423654257E+03  0.00000000000E+00 0. -1.
<mgrwt>
<rscale>  1 0.30000000E+03</rscale>
<asrwt>0</asrwt>
<pdfrwt beam="1">  1       21 0.60905419E-02 0.30000000E+03</pdfrwt>
<pdfrwt beam="2">0</pdfrwt>
<totfact> 0.20534172E+04</totfact>
</mgrwt>
</event>
<event>
 6    1  0.6377696E-002  0.3000000E+03  0.7818608E-02  0.1093470E+00
         21   -1    0    0  501  502  0.00000000000E+00  0.00000000000E+00  0.20876610280E+01  0.20876610280E+01  0.00000000000E+00 0. -1.
         13   -1    0    0    0    0 -0.00000000000E+00 -0.00000000000E+00 -0.10000000000E+04  0.10000000000E+04  0.00000000000E+00 0.  1.
    9000005    2    1    2  501    0  0.21044200997E+01 -0.45564517060E+02 -0.48052442305E+03  0.48269300439E+03  0.28742900897E+01 0.  0.
         13    1    3    3    0    0  0.27703926951E+01 -0.31129190050E+02 -0.32738583258E+03  0.32887411714E+03  0.00000000000E+00 0.  1.
          1    1    3    3  501    0 -0.66597259546E+00 -0.14435327010E+02 -0.15313859047E+03  0.15381888726E+03  0.00000000000E+00 0.  1.
         -1    1    1    2    0  502 -0.21044200997E+01  0.45564517060E+02 -0.51738791592E+03  0.51939465664E+03  0.00000000000E+00 0. -1.
<mgrwt>
<rscale>  1 0.30000000E+03</rscale>
<asrwt>0</asrwt>
<pdfrwt beam="1">  1       21 0.75915107E-02 0.30000000E+03</pdfrwt>
<pdfrwt beam="2">0</pdfrwt>
<totfact> 0.14003849E+04</totfact>
</mgrwt>
</event>
<event>
 6    1  0.6377696E-002  0.3000000E+03  0.7818608E-02  0.1093470E+00
         21   -1    0    0  501  502  0.00000000000E+00  0.00000000000E+00  0.10712640629E+01  0.10712640629E+01  0.00000000000E+00 0. -1.
         13   -1    0    0    0    0 -0.00000000000E+00 -0.00000000000E+00 -0.10000000000E+04  0.10000000000E+04  0.00000000000E+00 0.  1.
    9000005    2    1    2  501    0  0.10623429817E+02 -0.30717010472E+02 -0.45478672754E+03  0.45595942481E+03  0.34113826053E+01 0.  0.
         13    1    3    3    0    0  0.60782120845E+01 -0.14428565789E+02 -0.19973299274E+03  0.20034569264E+03  0.00000000000E+00 0.  1.
          3    1    3    3  501    0  0.45452177329E+01 -0.16288444683E+02 -0.25505373480E+03  0.25561373216E+03  0.00000000000E+00 0.  1.
         -1    1    1    2    0  502 -0.10623429817E+02  0.30717010472E+02 -0.54414200840E+03  0.54511183926E+03  0.00000000000E+00 0. -1.
<mgrwt>
<rscale>  1 0.30000000E+03</rscale>
<asrwt>0</asrwt>
<pdfrwt beam="1">  1       21 0.38955139E-02 0.30000000E+03</pdfrwt>
<pdfrwt beam="2">0</pdfrwt>
<totfact> 0.43962690E+04</totfact>
</mgrwt>
</event>
<event>
 6    1  0.6377696E-002  0.3000000E+03  0.7818608E-02  0.1093470E+00
         21   -1    0    0  501  502  0.00000000000E+00  0.00000000000E+00  0.40682203665E+01  0.40682203665E+01  0.00000000000E+00 0. -1.
         13   -1    0    0    0    0 -0.00000000000E+00 -0.00000000000E+00 -0.10000000000E+04  0.10000000000E+04  0.00000000000E+00 0.  1.
    9000005    2    1    2  501    0  0.42083963962E+02  0.46750284039E+02 -0.57756994387E+03  0.58100407074E+03  0.46947915244E+01 0.  0.
         13    1    3    3    0    0  0.26509443926E+02  0.28420856330E+02 -0.33638996755E+03  0.33862768044E+03  0.00000000000E+00 0.  1.
          3    1    3    3  501    0  0.15574520036E+02  0.18329427709E+02 -0.24117997632E+03  0.24237639029E+03  0.00000000000E+00 0.  1.
         -3    1    1    2    0  502 -0.42083963962E+02 -0.46750284039E+02 -0.41836183576E+03  0.42306414963E+03  0.00000000000E+00 0. -1.
<mgrwt>
<rscale>  1 0.30000000E+03</rscale>
<asrwt>0</asrwt>
<pdfrwt beam="1">  1       21 0.14793560E-01 0.30000000E+03</pdfrwt>
<pdfrwt beam="2">0</pdfrwt>
<totfact> 0.42249420E+03</totfact>
</mgrwt>
</event>
<event>
 6    1  0.6377696E-002  0.3000000E+03  0.7818608E-02  0.1093470E+00
         21   -1    0    0  501  502  0.00000000000E+00  0.00000000000E+00  0.10946778321E+01  0.10946778321E+01  0.00000000000E+00 0. -1.
         13   -1    0    0    0    0 -0.00000000000E+00 -0.00000000000E+00 -0.10000000000E+04  0.10000000000E+04  0.00000000000E+00 0.  1.
    9000005    2    1    2  501    0 -0.32063933094E+02  0.76849009199E+01 -0.47910986768E+03  0.48025452191E+03  0.33146652085E+01 0.  0.
         13    1    3    3    0    0 -0.18546971905E+02  0.31663645412E+01 -0.28799708050E+03  0.28861104346E+03  0.00000000000E+00 0.  1.
          1    1    3    3  501    0 -0.13516961189E+02  0.45185363787E+01 -0.19111278718E+03  0.19164347845E+03  0.00000000000E+00 0.  1.
         -1    1    1    2    0  502  0.32063933094E+02 -0.76849009199E+01 -0.51979545449E+03  0.52084015592E+03  0.00000000000E+00 0. -1.
<mgrwt>
<rscale>  1 0.30000000E+03</rscale>
<asrwt>0</asrwt>
<pdfrwt beam="1">  1       21 0.39806551E-02 0.30000000E+03</pdfrwt>
<pdfrwt beam="2">0</pdfrwt>
<totfact> 0.42391966E+04</totfact>
</mgrwt>
</event>
<event>
 6    1  0.6377696E-002  0.3000000E+03  0.7818608E-02  0.1093470E+00
         21   -1    0    0  501  502  0.00000000000E+00  0.00000000000E+00  0.12387245097E+01  0.12387245097E+01  0.00000000000E+00 0. -1.
         13   -1    0    0    0    0 -0.00000000000E+00 -0.00000000000E+00 -0.10000000000E+04  0.10000000000E+04  0.00000000000E+00 0.  1.
    9000005    2    1    2  501    0 -0.19245916805E+02 -0.28516673845E+02 -0.48583052885E+03  0.48715550474E+03  0.10275068565E+02 0.  0.
         13    1    3    3    0    0 -0.25490632705E+01 -0.11001850411E+02 -0.19101794541E+03  0.19135149308E+03  0.00000000000E+00 0.  1.
          1    1    3    3  501    0 -0.16696853534E+02 -0.17514823434E+02 -0.29481258344E+03  0.29580401166E+03  0.00000000000E+00 0.  1.
         -3    1    1    2    0  502  0.19245916805E+02  0.28516673845E+02 -0.51293074664E+03  0.51408321977E+03  0.00000000000E+00 0. -1.
<mgrwt>
<rscale>  1 0.30000000E+03</rscale>
<asrwt>0</asrwt>
<pdfrwt beam="1">  1       21 0.45044623E-02 0.30000000E+03</pdfrwt>
<pdfrwt beam="2">0</pdfrwt>
<totfact> 0.34400282E+04</totfact>
</mgrwt>
</event>
<event>
 6    1  0.6377696E-002  0.3000000E+03  0.7818608E-02  0.1093470E+00
         21   -1    0    0  501  502  0.00000000000E+00  0.00000000000E+00  0.15743335843E+01  0.15743335843E+01  0.00000000000E+00 0. -1.
         13   -1    0    0    0    0 -0.00000000000E+00 -0.00000000000E+00 -0.10000000000E+04  0.10000000000E+04  0.00000000000E+00 0.  1.
    9000005    2    1    2  501    0  0.14550540086E+01 -0.37229675331E+02 -0.33089945388E+03  0.33300914579E+03  0.35322364925E+01 0.  0.
         13    1    3    3    0    0  0.13106982063E+01 -0.31222913216E+02 -0.28811823073E+03  0.28980804529E+03  0.00000000000E+00 0.  1.
          1    1    3    3  501    0  0.14435580223E+00 -0.60067621151E+01 -0.42781223157E+02  0.43201100501E+02  0.00000000000E+00 0.  1.
         -3    1    1    2    0  502 -0.14550540086E+01  0.37229675331E+02 -0.66752621253E+03  0.66856518779E+03  0.00000000000E+00 0. -1.
<mgrwt>
<rscale>  1 0.30000000E+03</rscale>
<asrwt>0</asrwt>
<pdfrwt beam="1">  1       21 0.57248615E-02 0.30000000E+03</pdfrwt>
<pdfrwt beam="2">0</pdfrwt>
<totfact> 0.22846610E+04</totfact>
</mgrwt>
</event>
<event>
 6    1  0.6377696E-002  0.3000000E+03  0.7818608E-02  0.1093470E+00
         21   -1    0    0  501  502  0.00000000000E+00  0.00000000000E+00  0.11124075845E+01  0.11124075845E+01  0.00000000000E+00 0. -1.
         13   -1    0    0    0    0 -0.00000000000E+00 -0.00000000000E+00 -0.10000000000E+04  0.10000000000E+04  0.00000000000E+00 0.  1.
    9000005    2    1    2  501    0 -0.18133972227E+02  0.27878949238E+02 -0.47791625123E+03  0.47908059333E+03  0.28626830831E+01 0.  0.
         13    1    3    3    0    0 -0.10731609392E+02  0.14318487059E+02 -0.24509467117E+03  0.24574699255E+03  0.00000000000E+00 0.  1.
          3    1    3    3  501    0 -0.74023628349E+01  0.13560462179E+02 -0.23282158007E+03  0.23333360078E+03  0.00000000000E+00 0.  1.
         -3    1    1    2    0  502  0.18133972227E+02 -0.27878949238E+02 -0.52097134118E+03  0.52203181425E+03  0.00000000000E+00 0. -1.
<mgrwt>
<rscale>  1 0.30000000E+03</rscale>
<asrwt>0</asrwt>
<pdfrwt beam="1">  1       21 0.40451270E-02 0.30000000E+03</pdfrwt>
<pdfrwt beam="2">0</pdfrwt>
<totfact> 0.41260179E+04</totfact>
</mgrwt>
</event>
<event>
 6    1  0.6377696E-002  0.3000000E+03  0.7818608E-02  0.1093470E+00
         21   -1    0    0  501  502  0.00000000000E+00  0.00000000000E+00  0.97967632413E+00  0.97967632413E+00  0.00000000000E+00 0. -1.
         13   -1    0    0    0    0 -0.00000000000E+00 -0.00000000000E+00 -0.10000000000E+04  0.10000000000E+04  0.00000000000E+00 0.  1.
    9000005    2    1    2  501    0 -0.30718897077E+02 -0.54359807370E+01 -0.49561906054E+03  0.49661271443E+03  0.35685344441E+01 0.  0.
         13    1    3    3    0    0 -0.62599273649E+01  0.16077643023E+00 -0.88619950141E+02  0.88840914575E+02  0.00000000000E+00 0.  1.
          1    1    3    3  501    0 -0.24458969712E+02 -0.55967571672E+01 -0.40699911040E+03  0.40777179985E+03  0.00000000000E+00 0.  1.
         -1    1    1    2    0  502  0.30718897077E+02  0.54359807370E+01 -0.50340126314E+03  0.50436696190E+03  0.00000000000E+00 0. -1.
<mgrwt>
<rscale>  1 0.30000000E+03</rscale>
<asrwt>0</asrwt>
<pdfrwt beam="1">  1       21 0.35624669E-02 0.30000000E+03</pdfrwt>
<pdfrwt beam="2">0</pdfrwt>
<totfact> 0.51080086E+04</totfact>
</mgrwt>
</event>
<event>
 6    1  0.6377696E-002  0.3000000E+03  0.7818608E-02  0.1093470E+00
         21   -1    0    0  501  502  0.00000000000E+00  0.00000000000E+00  0.18313547961E+01  0.18313547961E+01  0.00000000000E+00 0. -1.
         13   -1    0    0    0    0 -0.00000000000E+00 -0.00000000000E+00 -0.10000000000E+04  0.10000000000E+04  0.00000000000E+00 0.  1.
    9000005    2    1    2  501    0 -0.65547905535E+01  0.42218896119E+02 -0.50387359533E+03  0.50569327241E+03  0.34183645689E+01 0.  0.
         13    1    3    3    0    0 -0.38477160109E+01  0.33669772256E+02 -0.39531625886E+03  0.39676618178E+03  0.00000000000E+00 0.  1.
          1    1    3    3  501    0 -0.27070745426E+01  0.85491238636E+01 -0.10855733647E+03  0.10892709063E+03  0.00000000000E+00 0.  1.
         -3    1    1    2    0  502  0.65547905535E+01 -0.42218896119E+02 -0.49429504987E+03  0.49613808239E+03  0.00000000000E+00 0. -1.
<mgrwt>
<rscale>  1 0.30000000E+03</rscale>
<asrwt>0</asrwt>
<pdfrwt beam="1">  1       21 0.66594860E-02 0.30000000E+03</pdfrwt>
<pdfrwt beam="2">0</pdfrwt>
<totfact> 0.17595299E+04</totfact>
</mgrwt>
</event>
<event>
 6    1  0.6377696E-002  0.3000000E+03  0.7818608E-02  0.1093470E+00
         21   -1    0    0  501  502  0.00000000000E+00  0.00000000000E+00  0.25969745908E+01  0.25969745908E+01  0.00000000000E+00 0. -1.
         13   -1    0    0    0    0 -0.00000000000E+00 -0.00000000000E+00 -0.10000000000E+04  0.10000000000E+04  0.00000000000E+00 0.  1.
    9000005    2    1    2  501    0  0.38011647305E+02  0.85935143625E+01 -0.17649576943E+03  0.18076520547E+03  0.25630180138E+01 0.  0.
         13    1    3    3    0    0  0.37139877265E+02  0.80397610549E+01 -0.17074684221E+03  0.17492424750E+03  0.00000000000E+00 0.  1.
          1    1    3    3  501    0  0.87177004048E+00  0.55375330763E+00 -0.57489272196E+01  0.58409579613E+01  0.00000000000E+00 0.  1.
         -1    1    1    2    0  502 -0.38011647305E+02 -0.85935143625E+01 -0.82090725598E+03  0.82183176912E+03  0.00000000000E+00 0. -1.
<mgrwt>
<rscale>  1 0.30000000E+03</rscale>
<asrwt>0</asrwt>
<pdfrwt beam="1">  1       21 0.94435639E-02 0.30000000E+03</pdfrwt>
<pdfrwt beam="2">0</pdfrwt>
<totfact> 0.95282893E+03</totfact>
</mgrwt>
</event>
<event>
 6    1  0.6377696E-002  0.3000000E+03  0.7818608E-02  0.1093470E+00
         21   -1    0    0  501  502  0.00000000000E+00  0.00000000000E+00  0.23516893042E+01  0.23516893042E+01  0.00000000000E+00 0. -1.
         13   -1    0    0    0    0 -0.00000000000E+00 -0.00000000000E+00 -0.10000000000E+04  0.10000000000E+04  0.00000000000E+00 0.  1.
    9000005    2    1    2  501    0  0.42910715483E+02  0.10167612308E+02 -0.29228321652E+03  0.29560942658E+03  0.32778923844E+01 0.  0.
         13    1    3    3    0    0  0.49709522972E+01  0.14395107430E+01 -0.41742122605E+02  0.42061708923E+02  0.00000000000E+00 0.  1.
          3    1    3    3  501    0  0.37939763186E+02  0.87281015652E+01 -0.25054109392E+03  0.25354771766E+03  0.00000000000E+00 0.  1.
         -3    1    1    2    0  502 -0.42910715483E+02 -0.10167612308E+02 -0.70536509417E+03  0.70674226273E+03  0.00000000000E+00 0. -1.
<mgrwt>
<rscale>  1 0.30000000E+03</rscale>
<asrwt>0</asrwt>
<pdfrwt beam="1">  1       21 0.85516155E-02 0.30000000E+03</pdfrwt>
<pdfrwt beam="2">0</pdfrwt>
<totfact> 0.11359318E+04</totfact>
</mgrwt>
</event>
<event>
 6    1  0.6377696E-002  0.3000000E+03  0.7818608E-02  0.1093470E+00
         21   -1    0    0  501  502  0.00000000000E+00  0.00000000000E+00  0.76342215535E+01  0.76342215535E+01  0.00000000000E+00 0. -1.
         13   -1    0    0    0    0 -0.00000000000E+00 -0.00000000000E+00 -0.10000000000E+04  0.10000000000E+04  0.00000000000E+00 0.  1.
    9000005    2    1    2  501    0 -0.27161643841E+02  0.71424178089E+02 -0.74031087996E+03  0.74425077492E+03  0.31382899048E+01 0.  0.
         13    1    3    3    0    0 -0.11748355707E+02  0.28325401864E+02 -0.28503040790E+03  0.28667522683E+03  0.00000000000E+00 0.  1.
          3    1    3    3  501    0 -0.15413288134E+02  0.43098776224E+02 -0.45528047206E+03  0.45757554809E+03  0.00000000000E+00 0.  1.
         -1    1    1    2    0  502  0.27161643841E+02 -0.71424178089E+02 -0.25205489849E+03  0.26338344664E+03  0.00000000000E+00 0. -1.
<mgrwt>
<rscale>  1 0.30000000E+03</rscale>
<asrwt>0</asrwt>
<pdfrwt beam="1">  1       21 0.27760864E-01 0.30000000E+03</pdfrwt>
<pdfrwt beam="2">0</pdfrwt>
<totfact> 0.12687845E+03</totfact>
</mgrwt>
</event>
<event>
 6    1  0.6377696E-002  0.3000000E+03  0.7818608E-02  0.1093470E+00
         21   -1    0    0  501  502  0.00000000000E+00  0.00000000000E+00  0.14375369116E+01  0.14375369116E+01  0.00000000000E+00 0. -1.
         13   -1    0    0    0    0 -0.00000000000E+00 -0.00000000000E+00 -0.10000000000E+04  0.10000000000E+04  0.00000000000E+00 0.  1.
    9000005    2    1    2  501    0  0.30357257883E+02 -0.13867556629E+02 -0.73114878093E+03  0.73194922614E+03  0.75668731408E+01 0.  0.
         13    1    3    3    0    0  0.27897020337E+01 -0.26852739309E+01 -0.13866053305E+03  0.13871458668E+03  0.00000000000E+00 0.  1.
          1    1    3    3  501    0  0.27567555849E+02 -0.11182282699E+02 -0.59248824788E+03  0.59323463946E+03  0.00000000000E+00 0.  1.
         -3    1    1    2    0  502 -0.30357257883E+02  0.13867556629E+02 -0.26741368216E+03  0.26948831077E+03  0.00000000000E+00 0. -1.
<mgrwt>
<rscale>  1 0.30000000E+03</rscale>
<asrwt>0</asrwt>
<pdfrwt beam="1">  1       21 0.52274180E-02 0.30000000E+03</pdfrwt>
<pdfrwt beam="2">0</pdfrwt>
<totfact> 0.26698906E+04</totfact>
</mgrwt>
</event>
<event>
 6    1  0.6377696E-002  0.3000000E+03  0.7818608E-02  0.1093470E+00
         21   -1    0    0  501  502  0.00000000000E+00  0.00000000000E+00  0.11315289175E+01  0.11315289175E+01  0.00000000000E+00 0. -1.
         13   -1    0    0    0    0 -0.00000000000E+00 -0.00000000000E+00 -0.10000000000E+04  0.10000000000E+04  0.00000000000E+00 0.  1.
    9000005    2    1    2  501    0  0.21001231809E+02  0.26163623941E+02 -0.48551174273E+03  0.48667966771E+03  0.31400124553E+01 0.  0.
         13    1    3    3    0    0  0.75491291523E+01  0.71678976215E+01 -0.14464892757E+03  0.14502303388E+03  0.00000000000E+00 0.  1.
          1    1    3    3  501    0  0.13452102657E+02  0.18995726319E+02 -0.34086281516E+03  0.34165663384E+03  0.00000000000E+00 0.  1.
         -3    1    1    2    0  502 -0.21001231809E+02 -0.26163623941E+02 -0.51335672835E+03  0.51445186120E+03  0.00000000000E+00 0. -1.
<mgrwt>
<rscale>  1 0.30000000E+03</rscale>
<asrwt>0</asrwt>
<pdfrwt beam="1">  1       21 0.41146593E-02 0.30000000E+03</pdfrwt>
<pdfrwt beam="2">0</pdfrwt>
<totfact> 0.40091600E+04</totfact>
</mgrwt>
</event>
<event>
 6    1  0.6377696E-002  0.3000000E+03  0.7818608E-02  0.1093470E+00
         21   -1    0    0  501  502  0.00000000000E+00  0.00000000000E+00  0.28743807687E+01  0.28743807687E+01  0.00000000000E+00 0. -1.
         13   -1    0    0    0    0 -0.00000000000E+00 -0.00000000000E+00 -0.10000000000E+04  0.10000000000E+04  0.00000000000E+00 0.  1.
    9000005    2    1    2  501    0 -0.28844192115E+02 -0.32543134523E+02 -0.20661544453E+03  0.21116901933E+03  0.33719109429E+01 0.  0.
         13    1    3    3    0    0 -0.30268797926E+01 -0.24052845867E+01 -0.15277013129E+02  0.15758633360E+02  0.00000000000E+00 0.  1.
          1    1    3    3  501    0 -0.25817312322E+02 -0.30137849937E+02 -0.19133843140E+03  0.19541038597E+03  0.00000000000E+00 0.  1.
         -1    1    1    2    0  502  0.28844192115E+02  0.32543134523E+02 -0.79051017470E+03  0.79170536144E+03  0.00000000000E+00 0. -1.
<mgrwt>
<rscale>  1 0.30000000E+03</rscale>
<asrwt>0</asrwt>
<pdfrwt beam="1">  1       21 0.10452316E-01 0.30000000E+03</pdfrwt>
<pdfrwt beam="2">0</pdfrwt>
<totfact> 0.79484475E+03</totfact>
</mgrwt>
</event>
<event>
 6    1  0.6377696E-002  0.3000000E+03  0.7818608E-02  0.1093470E+00
         21   -1    0    0  501  502  0.00000000000E+00  0.00000000000E+00  0.15791159794E+01  0.15791159794E+01  0.00000000000E+00 0. -1.
         13   -1    0    0    0    0 -0.00000000000E+00 -0.00000000000E+00 -0.10000000000E+04  0.10000000000E+04  0.00000000000E+00 0.  1.
    9000005    2    1    2  501    0 -0.34085225225E+02 -0.16137194644E+02 -0.34387583052E+03  0.34594855027E+03  0.27569890780E+01 0.  0.
         13    1    3    3    0    0 -0.17014832616E+02 -0.83487276629E+01 -0.16042112028E+03  0.16153681195E+03  0.00000000000E+00 0.  1.
          1    1    3    3  501    0 -0.17070392609E+02 -0.77884669814E+01 -0.18345471023E+03  0.18441173832E+03  0.00000000000E+00 0.  1.
         -3    1    1    2    0  502  0.34085225225E+02  0.16137194644E+02 -0.65454505350E+03  0.65563056571E+03  0.00000000000E+00 0. -1.
<mgrwt>
<rscale>  1 0.30000000E+03</rscale>
<asrwt>0</asrwt>
<pdfrwt beam="1">  1       21 0.57422520E-02 0.30000000E+03</pdfrwt>
<pdfrwt beam="2">0</pdfrwt>
<totfact> 0.22727703E+04</totfact>
</mgrwt>
</event>
<event>
 6    1  0.6377696E-002  0.3000000E+03  0.7818608E-02  0.1093470E+00
         21   -1    0    0  501  502  0.00000000000E+00  0.00000000000E+00  0.66455928904E+01  0.66455928904E+01  0.00000000000E+00 0. -1.
         13   -1    0    0    0    0 -0.00000000000E+00 -0.00000000000E+00 -0.10000000000E+04  0.10000000000E+04  0.00000000000E+00 0.  1.
    9000005    2    1    2  501    0  0.20293318946E+02 -0.73927410155E+02 -0.66721244894E+03  0.67161476200E+03  0.41055759971E+01 0.  0.
         13    1    3    3    0    0  0.11055344669E+02 -0.38761078601E+02 -0.36832446833E+03  0.37052335396E+03  0.00000000000E+00 0.  1.
          1    1    3    3  501    0  0.92379742764E+01 -0.35166331554E+02 -0.29888798061E+03  0.30109140804E+03  0.00000000000E+00 0.  1.
         -3    1    1    2    0  502 -0.20293318946E+02  0.73927410155E+02 -0.32614195817E+03  0.33503083089E+03  0.00000000000E+00 0. -1.
<mgrwt>
<rscale>  1 0.30000000E+03</rscale>
<asrwt>0</asrwt>
<pdfrwt beam="1">  1       21 0.24165843E-01 0.30000000E+03</pdfrwt>
<pdfrwt beam="2">0</pdfrwt>
<totfact> 0.16664207E+03</totfact>
</mgrwt>
</event>
<event>
 6    1  0.6377696E-002  0.3000000E+03  0.7818608E-02  0.1093470E+00
         21   -1    0    0  501  502  0.00000000000E+00  0.00000000000E+00  0.28547731852E+01  0.28547731852E+01  0.00000000000E+00 0. -1.
         13   -1    0    0    0    0 -0.00000000000E+00 -0.00000000000E+00 -0.10000000000E+04  0.10000000000E+04  0.00000000000E+00 0.  1.
    9000005    2    1    2  501    0 -0.20410707778E+02 -0.48521961323E+02 -0.41525263025E+03  0.41858602367E+03  0.29213969351E+01 0.  0.
         13    1    3    3    0    0 -0.16362223043E+02 -0.35867365562E+02 -0.30675003342E+03  0.30927297531E+03  0.00000000000E+00 0.  1.
          1    1    3    3  501    0 -0.40484847349E+01 -0.12654595761E+02 -0.10850259683E+03  0.10931304836E+03  0.00000000000E+00 0.  1.
         -1    1    1    2    0  502  0.20410707778E+02  0.48521961323E+02 -0.58189259657E+03  0.58426874952E+03  0.00000000000E+00 0. -1.
<mgrwt>
<rscale>  1 0.30000000E+03</rscale>
<asrwt>0</asrwt>
<pdfrwt beam="1">  1       21 0.10381015E-01 0.30000000E+03</pdfrwt>
<pdfrwt beam="2">0</pdfrwt>
<totfact> 0.80465188E+03</totfact>
</mgrwt>
</event>
<event>
 6    1  0.6377696E-002  0.3000000E+03  0.7818608E-02  0.1093470E+00
         21   -1    0    0  501  502  0.00000000000E+00  0.00000000000E+00  0.93640147178E+00  0.93640147178E+00  0.00000000000E+00 0. -1.
         13   -1    0    0    0    0 -0.00000000000E+00 -0.00000000000E+00 -0.10000000000E+04  0.10000000000E+04  0.00000000000E+00 0.  1.
    9000005    2    1    2  501    0  0.44298507847E+01  0.30149398021E+02 -0.49167661614E+03  0.49263515253E+03  0.38586098628E+01 0.  0.
         13    1    3    3    0    0 -0.70108796428E+00  0.26051828860E+01 -0.42382760580E+02  0.42468540081E+02  0.00000000000E+00 0.  1.
          1    1    3    3  501    0  0.51309387489E+01  0.27544215135E+02 -0.44929385556E+03  0.45016661245E+03  0.00000000000E+00 0.  1.
         -1    1    1    2    0  502 -0.44298507847E+01 -0.30149398021E+02 -0.50738698239E+03  0.50830124894E+03  0.00000000000E+00 0. -1.
<mgrwt>
<rscale>  1 0.30000000E+03</rscale>
<asrwt>0</asrwt>
<pdfrwt beam="1">  1       21 0.34051034E-02 0.30000000E+03</pdfrwt>
<pdfrwt beam="2">0</pdfrwt>
<totfact> 0.55092752E+04</totfact>
</mgrwt>
</event>
<event>
 6    1  0.6377696E-002  0.3000000E+03  0.7818608E-02  0.1093470E+00
         21   -1    0    0  501  502  0.00000000000E+00  0.00000000000E+00  0.13939824354E+01  0.13939824354E+01  0.00000000000E+00 0. -1.
         13   -1    0    0    0    0 -0.00000000000E+00 -0.00000000000E+00 -0.10000000000E+04  0.10000000000E+04  0.00000000000E+00 0.  1.
    9000005    2    1    2  501    0  0.14293586293E+02  0.31870008454E+02 -0.32629356849E+03  0.32817482553E+03  0.33495109501E+01 0.  0.
         13    1    3    3    0    0  0.13110447441E+02  0.26229388608E+02 -0.27397412090E+03  0.27553889668E+03  0.00000000000E+00 0.  1.
          3    1    3    3  501    0  0.11831388513E+01  0.56406198459E+01 -0.52319447595E+02  0.52635928855E+02  0.00000000000E+00 0.  1.
         -1    1    1    2    0  502 -0.14293586293E+02 -0.31870008454E+02 -0.67231244907E+03  0.67321915690E+03  0.00000000000E+00 0. -1.
<mgrwt>
<rscale>  1 0.30000000E+03</rscale>
<asrwt>0</asrwt>
<pdfrwt beam="1">  1       21 0.50690377E-02 0.30000000E+03</pdfrwt>
<pdfrwt beam="2">0</pdfrwt>
<totfact> 0.28138870E+04</totfact>
</mgrwt>
</event>
<event>
 6    1  0.6377696E-002  0.3000000E+03  0.7818608E-02  0.1093470E+00
         21   -1    0    0  501  502  0.00000000000E+00  0.00000000000E+00  0.13574537848E+01  0.13574537848E+01  0.00000000000E+00 0. -1.
         13   -1    0    0    0    0 -0.00000000000E+00 -0.00000000000E+00 -0.10000000000E+04  0.10000000000E+04  0.00000000000E+00 0.  1.
    9000005    2    1    2  501    0 -0.30664020333E+02 -0.20175248298E+02 -0.47114360170E+03  0.47258296570E+03  0.33231398135E+01 0.  0.
         13    1    3    3    0    0 -0.19653310039E+02 -0.11084289293E+02 -0.29479748805E+03  0.29565972507E+03  0.00000000000E+00 0.  1.
          3    1    3    3  501    0 -0.11010710294E+02 -0.90909590057E+01 -0.17634611365E+03  0.17692324063E+03  0.00000000000E+00 0.  1.
         -3    1    1    2    0  502  0.30664020333E+02  0.20175248298E+02 -0.52749894451E+03  0.52877448808E+03  0.00000000000E+00 0. -1.
<mgrwt>
<rscale>  1 0.30000000E+03</rscale>
<asrwt>0</asrwt>
<pdfrwt beam="1">  1       21 0.49362060E-02 0.30000000E+03</pdfrwt>
<pdfrwt beam="2">0</pdfrwt>
<totfact> 0.29441946E+04</totfact>
</mgrwt>
</event>
<event>
 6    1  0.6377696E-002  0.3000000E+03  0.7818608E-02  0.1093470E+00
         21   -1    0    0  501  502  0.00000000000E+00  0.00000000000E+00  0.13082609205E+01  0.13082609205E+01  0.00000000000E+00 0. -1.
         13   -1    0    0    0    0 -0.00000000000E+00 -0.00000000000E+00 -0.10000000000E+04  0.10000000000E+04  0.00000000000E+00 0.  1.
    9000005    2    1    2  501    0 -0.12015761242E+02  0.32530827579E+02 -0.36322759499E+03  0.36489855665E+03  0.37466818324E+01 0.  0.
         13    1    3    3    0    0 -0.92010534279E+01  0.28149082215E+02 -0.31600762274E+03  0.31739226179E+03  0.00000000000E+00 0.  1.
          3    1    3    3  501    0 -0.28147078138E+01  0.43817453634E+01 -0.47219972250E+02  0.47506294865E+02  0.00000000000E+00 0.  1.
         -1    1    1    2    0  502  0.12015761242E+02 -0.32530827579E+02 -0.63546414409E+03  0.63640970427E+03  0.00000000000E+00 0. -1.
<mgrwt>
<rscale>  1 0.30000000E+03</rscale>
<asrwt>0</asrwt>
<pdfrwt beam="1">  1       21 0.47573225E-02 0.30000000E+03</pdfrwt>
<pdfrwt beam="2">0</pdfrwt>
<totfact> 0.31351298E+04</totfact>
</mgrwt>
</event>
<event>
 6    1  0.6377696E-002  0.3000000E+03  0.7818608E-02  0.1093470E+00
         21   -1    0    0  501  502  0.00000000000E+00  0.00000000000E+00  0.17822466602E+01  0.17822466602E+01  0.00000000000E+00 0. -1.
         13   -1    0    0    0    0 -0.00000000000E+00 -0.00000000000E+00 -0.10000000000E+04  0.10000000000E+04  0.00000000000E+00 0.  1.
    9000005    2    1    2  501    0 -0.34712824101E+02 -0.20255542278E+02 -0.34800805200E+03  0.35033161701E+03  0.27148614555E+01 0.  0.
         13    1    3    3    0    0 -0.17417737758E+02 -0.93387039259E+01 -0.18107957982E+03  0.18215488796E+03  0.00000000000E+00 0.  1.
          3    1    3    3  501    0 -0.17295086343E+02 -0.10916838352E+02 -0.16692847218E+03  0.16817672905E+03  0.00000000000E+00 0.  1.
         -3    1    1    2    0  502  0.34712824101E+02  0.20255542278E+02 -0.65020970134E+03  0.65145062965E+03  0.00000000000E+00 0. -1.
<mgrwt>
<rscale>  1 0.30000000E+03</rscale>
<asrwt>0</asrwt>
<pdfrwt beam="1">  1       21 0.64809106E-02 0.30000000E+03</pdfrwt>
<pdfrwt beam="2">0</pdfrwt>
<totfact> 0.18443719E+04</totfact>
</mgrwt>
</event>
<event>
 6    1  0.6377696E-002  0.3000000E+03  0.7818608E-02  0.1093470E+00
         21   -1    0    0  501  502  0.00000000000E+00  0.00000000000E+00  0.11643530567E+01  0.11643530567E+01  0.00000000000E+00 0. -1.
         13   -1    0    0    0    0 -0.00000000000E+00 -0.00000000000E+00 -0.10000000000E+04  0.10000000000E+04  0.00000000000E+00 0.  1.
    9000005    2    1    2  501    0 -0.33480194324E+02 -0.21882375198E+01 -0.54657538010E+03  0.54766125410E+03  0.79051450841E+01 0.  0.
         13    1    3    3    0    0 -0.22795090154E+02  0.16508942537E+01 -0.39552312180E+03  0.39618288891E+03  0.00000000000E+00 0.  1.
          3    1    3    3  501    0 -0.10685104170E+02 -0.38391317734E+01 -0.15105225830E+03  0.15147836520E+03  0.00000000000E+00 0.  1.
         -1    1    1    2    0  502  0.33480194324E+02  0.21882375198E+01 -0.45226026684E+03  0.45350309896E+03  0.00000000000E+00 0. -1.
<mgrwt>
<rscale>  1 0.30000000E+03</rscale>
<asrwt>0</asrwt>
<pdfrwt beam="1">  1       21 0.42340200E-02 0.30000000E+03</pdfrwt>
<pdfrwt beam="2">0</pdfrwt>
<totfact> 0.38202338E+04</totfact>
</mgrwt>
</event>
<event>
 6    1  0.6377696E-002  0.3000000E+03  0.7818608E-02  0.1093470E+00
         21   -1    0    0  501  502  0.00000000000E+00  0.00000000000E+00  0.10466098887E+01  0.10466098887E+01  0.00000000000E+00 0. -1.
         13   -1    0    0    0    0 -0.00000000000E+00 -0.00000000000E+00 -0.10000000000E+04  0.10000000000E+04  0.00000000000E+00 0.  1.
    9000005    2    1    2  501    0 -0.25837512069E+02  0.16012194970E+02 -0.33318365774E+03  0.33458332961E+03  0.32691360264E+01 0.  0.
         13    1    3    3    0    0 -0.50304197830E+00  0.82053050101E+00 -0.15226683779E+02  0.15257071162E+02  0.00000000000E+00 0.  1.
          1    1    3    3  501    0 -0.25334470091E+02  0.15191664469E+02 -0.31795697396E+03  0.31932625845E+03  0.00000000000E+00 0.  1.
         -1    1    1    2    0  502  0.25837512069E+02 -0.16012194970E+02 -0.66576973237E+03  0.66646328028E+03  0.00000000000E+00 0. -1.
<mgrwt>
<rscale>  1 0.30000000E+03</rscale>
<asrwt>0</asrwt>
<pdfrwt beam="1">  1       21 0.38058622E-02 0.30000000E+03</pdfrwt>
<pdfrwt beam="2">0</pdfrwt>
<totfact> 0.45717519E+04</totfact>
</mgrwt>
</event>
<event>
 6    1  0.6377696E-002  0.3000000E+03  0.7818608E-02  0.1093470E+00
         21   -1    0    0  501  502  0.00000000000E+00  0.00000000000E+00  0.13116728883E+01  0.13116728883E+01  0.00000000000E+00 0. -1.
         13   -1    0    0    0    0 -0.00000000000E+00 -0.00000000000E+00 -0.10000000000E+04  0.10000000000E+04  0.00000000000E+00 0.  1.
    9000005    2    1    2  501    0  0.20042176240E+02 -0.29922529598E+02 -0.45679267062E+03  0.45822056715E+03  0.30818212748E+01 0.  0.
         13    1    3    3    0    0  0.12637374837E+02 -0.21137341924E+02 -0.31996687905E+03  0.32091321904E+03  0.00000000000E+00 0.  1.
          1    1    3    3  501    0  0.74048014033E+01 -0.87851876744E+01 -0.13682579157E+03  0.13730734811E+03  0.00000000000E+00 0.  1.
         -1    1    1    2    0  502 -0.20042176240E+02  0.29922529598E+02 -0.54189565649E+03  0.54309110574E+03  0.00000000000E+00 0. -1.
<mgrwt>
<rscale>  1 0.30000000E+03</rscale>
<asrwt>0</asrwt>
<pdfrwt beam="1">  1       21 0.47697297E-02 0.30000000E+03</pdfrwt>
<pdfrwt beam="2">0</pdfrwt>
<totfact> 0.31212697E+04</totfact>
</mgrwt>
</event>
<event>
 6    1  0.6377696E-002  0.3000000E+03  0.7818608E-02  0.1093470E+00
         21   -1    0    0  501  502  0.00000000000E+00  0.00000000000E+00  0.42112649728E+01  0.42112649728E+01  0.00000000000E+00 0. -1.
         13   -1    0    0    0    0 -0.00000000000E+00 -0.00000000000E+00 -0.10000000000E+04  0.10000000000E+04  0.00000000000E+00 0.  1.
    9000005    2    1    2  501    0 -0.50259206454E+02 -0.18113715393E+02 -0.78263010512E+03  0.78445982351E+03  0.36385093819E+01 0.  0.
         13    1    3    3    0    0 -0.45160527940E+02 -0.16511973647E+02 -0.71868054940E+03  0.72028733895E+03  0.00000000000E+00 0.  1.
          3    1    3    3  501    0 -0.50986785144E+01 -0.16017417459E+01 -0.63949555716E+02  0.64172484567E+02  0.00000000000E+00 0.  1.
         -3    1    1    2    0  502  0.50259206454E+02  0.18113715393E+02 -0.21315862991E+03  0.21975144146E+03  0.00000000000E+00 0. -1.
<mgrwt>
<rscale>  1 0.30000000E+03</rscale>
<asrwt>0</asrwt>
<pdfrwt beam="1">  1       21 0.15313723E-01 0.30000000E+03</pdfrwt>
<pdfrwt beam="2">0</pdfrwt>
<totfact> 0.39630576E+03</totfact>
</mgrwt>
</event>
<event>
 6    1  0.6377696E-002  0.3000000E+03  0.7818608E-02  0.1093470E+00
         21   -1    0    0  501  502  0.00000000000E+00  0.00000000000E+00  0.13896521113E+01  0.13896521113E+01  0.00000000000E+00 0. -1.
         13   -1    0    0    0    0 -0.00000000000E+00 -0.00000000000E+00 -0.10000000000E+04  0.10000000000E+04  0.00000000000E+00 0.  1.
    9000005    2    1    2  501    0 -0.36400431230E+02 -0.70620704477E+01 -0.54295363606E+03  0.54422676728E+03  0.30428737100E+01 0.  0.
         13    1    3    3    0    0 -0.45229658528E+01 -0.44447047551E+00 -0.80877932783E+02  0.81005523178E+02  0.00000000000E+00 0.  1.
          1    1    3    3  501    0 -0.31877465377E+02 -0.66175999722E+01 -0.46207570328E+03  0.46322124410E+03  0.00000000000E+00 0.  1.
         -3    1    1    2    0  502  0.36400431230E+02  0.70620704477E+01 -0.45565671183E+03  0.45716288483E+03  0.00000000000E+00 0. -1.
<mgrwt>
<rscale>  1 0.30000000E+03</rscale>
<asrwt>0</asrwt>
<pdfrwt beam="1">  1       21 0.50532911E-02 0.30000000E+03</pdfrwt>
<pdfrwt beam="2">0</pdfrwt>
<totfact> 0.28288604E+04</totfact>
</mgrwt>
</event>
<event>
 6    1  0.6377696E-002  0.3000000E+03  0.7818608E-02  0.1093470E+00
         21   -1    0    0  501  502  0.00000000000E+00  0.00000000000E+00  0.18443676364E+01  0.18443676364E+01  0.00000000000E+00 0. -1.
         13   -1    0    0    0    0 -0.00000000000E+00 -0.00000000000E+00 -0.10000000000E+04  0.10000000000E+04  0.00000000000E+00 0.  1.
    9000005    2    1    2  501    0 -0.38969231648E+02  0.17543002494E+02 -0.53902338918E+03  0.54072749017E+03  0.36941295194E+01 0.  0.
         13    1    3    3    0    0 -0.22189054195E+01  0.11579520913E+01 -0.44196998546E+02  0.44267810820E+02  0.00000000000E+00 0.  1.
          3    1    3    3  501    0 -0.36750326229E+02  0.16385050403E+02 -0.49482639063E+03  0.49645967935E+03  0.00000000000E+00 0.  1.
         -3    1    1    2    0  502  0.38969231648E+02 -0.17543002494E+02 -0.45913224318E+03  0.46111687747E+03  0.00000000000E+00 0. -1.
<mgrwt>
<rscale>  1 0.30000000E+03</rscale>
<asrwt>0</asrwt>
<pdfrwt beam="1">  1       21 0.67068055E-02 0.30000000E+03</pdfrwt>
<pdfrwt beam="2">0</pdfrwt>
<totfact> 0.17380543E+04</totfact>
</mgrwt>
</event>
<event>
 6    1  0.6377696E-002  0.3000000E+03  0.7818608E-02  0.1093470E+00
         21   -1    0    0  501  502  0.00000000000E+00  0.00000000000E+00  0.10936270487E+01  0.10936270487E+01  0.00000000000E+00 0. -1.
         13   -1    0    0    0    0 -0.00000000000E+00 -0.00000000000E+00 -0.10000000000E+04  0.10000000000E+04  0.00000000000E+00 0.  1.
    9000005    2    1    2  501    0 -0.26432689765E+02  0.19307067631E+02 -0.43498832458E+03  0.43622637253E+03  0.26749992331E+01 0.  0.
         13    1    3    3    0    0 -0.86337478151E+01  0.47907039968E+01 -0.12986274342E+03  0.13023756975E+03  0.00000000000E+00 0.  1.
          3    1    3    3  501    0 -0.17798941950E+02  0.14516363634E+02 -0.30512558116E+03  0.30598880278E+03  0.00000000000E+00 0.  1.
         -1    1    1    2    0  502  0.26432689765E+02 -0.19307067631E+02 -0.56391804837E+03  0.56486725452E+03  0.00000000000E+00 0. -1.
<mgrwt>
<rscale>  1 0.30000000E+03</rscale>
<asrwt>0</asrwt>
<pdfrwt beam="1">  1       21 0.39768340E-02 0.30000000E+03</pdfrwt>
<pdfrwt beam="2">0</pdfrwt>
<totfact> 0.42460563E+04</totfact>
</mgrwt>
</event>
<event>
 6    1  0.6377696E-002  0.3000000E+03  0.7818608E-02  0.1093470E+00
         21   -1    0    0  501  502  0.00000000000E+00  0.00000000000E+00  0.19760356272E+01  0.19760356272E+01  0.00000000000E+00 0. -1.
         13   -1    0    0    0    0 -0.00000000000E+00 -0.00000000000E+00 -0.10000000000E+04  0.10000000000E+04  0.00000000000E+00 0.  1.
    9000005    2    1    2  501    0  0.27620218434E+01  0.43845687550E+02 -0.42822132050E+03  0.43048226834E+03  0.33780089879E+01 0.  0.
         13    1    3    3    0    0 -0.75159809827E+00  0.10335908288E+02 -0.97847962707E+02  0.98395221966E+02  0.00000000000E+00 0.  1.
          3    1    3    3  501    0  0.35136199417E+01  0.33509779262E+02 -0.33037335780E+03  0.33208704638E+03  0.00000000000E+00 0.  1.
         -1    1    1    2    0  502 -0.27620218434E+01 -0.43845687550E+02 -0.56980264387E+03  0.57149376728E+03  0.00000000000E+00 0. -1.
<mgrwt>
<rscale>  1 0.30000000E+03</rscale>
<asrwt>0</asrwt>
<pdfrwt beam="1">  1       21 0.71855993E-02 0.30000000E+03</pdfrwt>
<pdfrwt beam="2">0</pdfrwt>
<totfact> 0.15416160E+04</totfact>
</mgrwt>
</event>
<event>
 6    1  0.6377696E-002  0.3000000E+03  0.7818608E-02  0.1093470E+00
         21   -1    0    0  501  502  0.00000000000E+00  0.00000000000E+00  0.76784780079E+01  0.76784780079E+01  0.00000000000E+00 0. -1.
         13   -1    0    0    0    0 -0.00000000000E+00 -0.00000000000E+00 -0.10000000000E+04  0.10000000000E+04  0.00000000000E+00 0.  1.
    9000005    2    1    2  501    0 -0.45573322718E+01 -0.68961868754E+02 -0.18690273091E+03  0.19929989242E+03  0.33626886529E+01 0.  0.
         13    1    3    3    0    0  0.44627157536E+00 -0.11509385283E+02 -0.30143057138E+02  0.32268700028E+02  0.00000000000E+00 0.  1.
          3    1    3    3  501    0 -0.50036038471E+01 -0.57452483471E+02 -0.15675967378E+03  0.16703119239E+03  0.00000000000E+00 0.  1.
         -3    1    1    2    0  502  0.45573322718E+01  0.68961868754E+02 -0.80541879108E+03  0.80837858559E+03  0.00000000000E+00 0. -1.
<mgrwt>
<rscale>  1 0.30000000E+03</rscale>
<asrwt>0</asrwt>
<pdfrwt beam="1">  1       21 0.27921797E-01 0.30000000E+03</pdfrwt>
<pdfrwt beam="2">0</pdfrwt>
<totfact> 0.12543350E+03</totfact>
</mgrwt>
</event>
<event>
 6    1  0.6377696E-002  0.3000000E+03  0.7818608E-02  0.1093470E+00
         21   -1    0    0  501  502  0.00000000000E+00  0.00000000000E+00  0.29314913750E+01  0.29314913750E+01  0.00000000000E+00 0. -1.
         13   -1    0    0    0    0 -0.00000000000E+00 -0.00000000000E+00 -0.10000000000E+04  0.10000000000E+04  0.00000000000E+00 0.  1.
    9000005    2    1    2  501    0 -0.20943960885E+02 -0.49865610848E+02 -0.50831919185E+03  0.51119871507E+03  0.32398835284E+01 0.  0.
         13    1    3    3    0    0 -0.48750738991E+01 -0.88333517712E+01 -0.88627873490E+02  0.89200304979E+02  0.00000000000E+00 0.  1.
          3    1    3    3  501    0 -0.16068886986E+02 -0.41032259077E+02 -0.41969131836E+03  0.42199841009E+03  0.00000000000E+00 0.  1.
         -3    1    1    2    0  502  0.20943960885E+02  0.49865610848E+02 -0.48874931678E+03  0.49173277631E+03  0.00000000000E+00 0. -1.
<mgrwt>
<rscale>  1 0.30000000E+03</rscale>
<asrwt>0</asrwt>
<pdfrwt beam="1">  1       21 0.10659991E-01 0.30000000E+03</pdfrwt>
<pdfrwt beam="2">0</pdfrwt>
<totfact> 0.76729103E+03</totfact>
</mgrwt>
</event>
<event>
 6    1  0.6377696E-002  0.3000000E+03  0.7818608E-02  0.1093470E+00
         21   -1    0    0  501  502  0.00000000000E+00  0.00000000000E+00  0.12180074398E+01  0.12180074398E+01  0.00000000000E+00 0. -1.
         13   -1    0    0    0    0 -0.00000000000E+00 -0.00000000000E+00 -0.10000000000E+04  0.10000000000E+04  0.00000000000E+00 0.  1.
    9000005    2    1    2  501    0 -0.14228032164E+02 -0.31132680851E+02 -0.59209846248E+03  0.59309648834E+03  0.33428267199E+01 0.  0.
         13    1    3    3    0    0 -0.11766865978E+02 -0.22182619688E+02 -0.43278315914E+03  0.43351100400E+03  0.00000000000E+00 0.  1.
          1    1    3    3  501    0 -0.24611661858E+01 -0.89500611626E+01 -0.15931530334E+03  0.15958548434E+03  0.00000000000E+00 0.  1.
         -3    1    1    2    0  502  0.14228032164E+02  0.31132680851E+02 -0.40668353008E+03  0.40812151910E+03  0.00000000000E+00 0. -1.
<mgrwt>
<rscale>  1 0.30000000E+03</rscale>
<asrwt>0</asrwt>
<pdfrwt beam="1">  1       21 0.44291273E-02 0.30000000E+03</pdfrwt>
<pdfrwt beam="2">0</pdfrwt>
<totfact> 0.35398444E+04</totfact>
</mgrwt>
</event>
<event>
 6    1  0.6377696E-002  0.3000000E+03  0.7818608E-02  0.1093470E+00
         21   -1    0    0  501  502  0.00000000000E+00  0.00000000000E+00  0.23751033933E+02  0.23751033933E+02  0.00000000000E+00 0. -1.
         13   -1    0    0    0    0 -0.00000000000E+00 -0.00000000000E+00 -0.10000000000E+04  0.10000000000E+04  0.00000000000E+00 0.  1.
    9000005    2    1    2  501    0 -0.19907329160E+02  0.57508775573E+02 -0.17966496283E+02  0.63538113316E+02  0.32765580907E+01 0.  0.
         13    1    3    3    0    0 -0.66640496419E+01  0.24083512501E+02 -0.76938474146E+01  0.26146135854E+02  0.00000000000E+00 0.  1.
          3    1    3    3  501    0 -0.13243279518E+02  0.33425263072E+02 -0.10272648868E+02  0.37391977463E+02  0.00000000000E+00 0.  1.
         -3    1    1    2    0  502  0.19907329160E+02 -0.57508775573E+02 -0.95828246978E+03  0.96021292062E+03  0.00000000000E+00 0. -1.
<mgrwt>
<rscale>  1 0.30000000E+03</rscale>
<asrwt>0</asrwt>
<pdfrwt beam="1">  1       21 0.86367578E-01 0.30000000E+03</pdfrwt>
<pdfrwt beam="2">0</pdfrwt>
<totfact> 0.10671671E+02</totfact>
</mgrwt>
</event>
<event>
 6    1  0.6377696E-002  0.3000000E+03  0.7818608E-02  0.1093470E+00
         21   -1    0    0  501  502  0.00000000000E+00  0.00000000000E+00  0.92731789251E+00  0.92731789251E+00  0.00000000000E+00 0. -1.
         13   -1    0    0    0    0 -0.00000000000E+00 -0.00000000000E+00 -0.10000000000E+04  0.10000000000E+04  0.00000000000E+00 0.  1.
    9000005    2    1    2  501    0  0.30211244948E+02  0.56535438870E+00 -0.45527405871E+03  0.45628984052E+03  0.35931995391E+01 0.  0.
         13    1    3    3    0    0  0.22717649802E+01  0.56010739526E+00 -0.24838146548E+02  0.24948109355E+02  0.00000000000E+00 0.  1.
          3    1    3    3  501    0  0.27939479968E+02  0.52469934330E-02 -0.43043591216E+03  0.43134173117E+03  0.00000000000E+00 0.  1.
         -1    1    1    2    0  502 -0.30211244948E+02 -0.56535438870E+00 -0.54379862340E+03  0.54463747737E+03  0.00000000000E+00 0. -1.
<mgrwt>
<rscale>  1 0.30000000E+03</rscale>
<asrwt>0</asrwt>
<pdfrwt beam="1">  1       21 0.33720722E-02 0.30000000E+03</pdfrwt>
<pdfrwt beam="2">0</pdfrwt>
<totfact> 0.55997350E+04</totfact>
</mgrwt>
</event>
<event>
 6    1  0.6377696E-002  0.3000000E+03  0.7818608E-02  0.1093470E+00
         21   -1    0    0  501  502  0.00000000000E+00  0.00000000000E+00  0.13102872856E+01  0.13102872856E+01  0.00000000000E+00 0. -1.
         13   -1    0    0    0    0 -0.00000000000E+00 -0.00000000000E+00 -0.10000000000E+04  0.10000000000E+04  0.00000000000E+00 0.  1.
    9000005    2    1    2  501    0  0.14663626437E+02 -0.27708559282E+02 -0.25291943262E+03  0.25488139123E+03  0.36739624012E+01 0.  0.
         13    1    3    3    0    0  0.21476757175E+01 -0.69974276877E+01 -0.64690160206E+02  0.65102944117E+02  0.00000000000E+00 0.  1.
          3    1    3    3  501    0  0.12515950720E+02 -0.20711131594E+02 -0.18822927241E+03  0.18977844711E+03  0.00000000000E+00 0.  1.
         -3    1    1    2    0  502 -0.14663626437E+02  0.27708559282E+02 -0.74577028009E+03  0.74642889606E+03  0.00000000000E+00 0. -1.
<mgrwt>
<rscale>  1 0.30000000E+03</rscale>
<asrwt>0</asrwt>
<pdfrwt beam="1">  1       21 0.47646911E-02 0.30000000E+03</pdfrwt>
<pdfrwt beam="2">0</pdfrwt>
<totfact> 0.31268867E+04</totfact>
</mgrwt>
</event>
<event>
 6    1  0.6377696E-002  0.3000000E+03  0.7818608E-02  0.1093470E+00
         21   -1    0    0  501  502  0.00000000000E+00  0.00000000000E+00  0.68114644150E+01  0.68114644150E+01  0.00000000000E+00 0. -1.
         13   -1    0    0    0    0 -0.00000000000E+00 -0.00000000000E+00 -0.10000000000E+04  0.10000000000E+04  0.00000000000E+00 0.  1.
    9000005    2    1    2  501    0 -0.79434937810E+02 -0.12976353910E+02 -0.38635805343E+03  0.39466644142E+03  0.32801565408E+01 0.  0.
         13    1    3    3    0    0 -0.62175694327E+02 -0.10949418470E+02 -0.30823214132E+03  0.31463114860E+03  0.00000000000E+00 0.  1.
          1    1    3    3  501    0 -0.17259243483E+02 -0.20269354397E+01 -0.78125912115E+02  0.80035292820E+02  0.00000000000E+00 0.  1.
         -3    1    1    2    0  502  0.79434937810E+02  0.12976353910E+02 -0.60683048215E+03  0.61214502299E+03  0.00000000000E+00 0. -1.
<mgrwt>
<rscale>  1 0.30000000E+03</rscale>
<asrwt>0</asrwt>
<pdfrwt beam="1">  1       21 0.24769014E-01 0.30000000E+03</pdfrwt>
<pdfrwt beam="2">0</pdfrwt>
<totfact> 0.15881709E+03</totfact>
</mgrwt>
</event>
<event>
 6    1  0.6377696E-002  0.3000000E+03  0.7818608E-02  0.1093470E+00
         21   -1    0    0  501  502  0.00000000000E+00  0.00000000000E+00  0.20276976323E+01  0.20276976323E+01  0.00000000000E+00 0. -1.
         13   -1    0    0    0    0 -0.00000000000E+00 -0.00000000000E+00 -0.10000000000E+04  0.10000000000E+04  0.00000000000E+00 0.  1.
    9000005    2    1    2  501    0 -0.19330380200E+02  0.31316627744E+02 -0.78731173977E+03  0.78817665741E+03  0.28762697994E+01 0.  0.
         13    1    3    3    0    0 -0.16864923949E+02  0.26394647283E+02 -0.64902113382E+03  0.64977652713E+03  0.00000000000E+00 0.  1.
          3    1    3    3  501    0 -0.24654562510E+01  0.49219804609E+01 -0.13829060596E+03  0.13840013028E+03  0.00000000000E+00 0.  1.
         -3    1    1    2    0  502  0.19330380200E+02 -0.31316627744E+02 -0.21066056260E+03  0.21385104022E+03  0.00000000000E+00 0. -1.
<mgrwt>
<rscale>  1 0.30000000E+03</rscale>
<asrwt>0</asrwt>
<pdfrwt beam="1">  1       21 0.73734615E-02 0.30000000E+03</pdfrwt>
<pdfrwt beam="2">0</pdfrwt>
<totfact> 0.14736787E+04</totfact>
</mgrwt>
</event>
<event>
 6    1  0.6377696E-002  0.3000000E+03  0.7818608E-02  0.1093470E+00
         21   -1    0    0  501  502  0.00000000000E+00  0.00000000000E+00  0.93383687613E+00  0.93383687613E+00  0.00000000000E+00 0. -1.
         13   -1    0    0    0    0 -0.00000000000E+00 -0.00000000000E+00 -0.10000000000E+04  0.10000000000E+04  0.00000000000E+00 0.  1.
    9000005    2    1    2  501    0 -0.20077770903E+02  0.22661094012E+02 -0.55097303877E+03  0.55181905182E+03  0.40415875128E+01 0.  0.
         13    1    3    3    0    0 -0.11261608631E+02  0.11291873524E+02 -0.32172222556E+03  0.32211724675E+03  0.00000000000E+00 0.  1.
          3    1    3    3  501    0 -0.88161622721E+01  0.11369220488E+02 -0.22925081321E+03  0.22970180507E+03  0.00000000000E+00 0.  1.
         -1    1    1    2    0  502  0.20077770903E+02 -0.22661094012E+02 -0.44809312435E+03  0.44911478506E+03  0.00000000000E+00 0. -1.
<mgrwt>
<rscale>  1 0.30000000E+03</rscale>
<asrwt>0</asrwt>
<pdfrwt beam="1">  1       21 0.33957776E-02 0.30000000E+03</pdfrwt>
<pdfrwt beam="2">0</pdfrwt>
<totfact> 0.55345828E+04</totfact>
</mgrwt>
</event>
<event>
 6    1  0.6377696E-002  0.3000000E+03  0.7818608E-02  0.1093470E+00
         21   -1    0    0  501  502  0.00000000000E+00  0.00000000000E+00  0.11491816854E+01  0.11491816854E+01  0.00000000000E+00 0. -1.
         13   -1    0    0    0    0 -0.00000000000E+00 -0.00000000000E+00 -0.10000000000E+04  0.10000000000E+04  0.00000000000E+00 0.  1.
    9000005    2    1    2  501    0  0.29907363067E+02  0.15622200679E+02 -0.53798272462E+03  0.53904756591E+03  0.28918507425E+01 0.  0.
         13    1    3    3    0    0  0.60346622667E+01  0.40035216264E+01 -0.13054776824E+03  0.13074848040E+03  0.00000000000E+00 0.  1.
          1    1    3    3  501    0  0.23872700800E+02  0.11618679052E+02 -0.40743495638E+03  0.40829908551E+03  0.00000000000E+00 0.  1.
         -1    1    1    2    0  502 -0.29907363067E+02 -0.15622200679E+02 -0.46086809369E+03  0.46210161577E+03  0.00000000000E+00 0. -1.
<mgrwt>
<rscale>  1 0.30000000E+03</rscale>
<asrwt>0</asrwt>
<pdfrwt beam="1">  1       21 0.41788513E-02 0.30000000E+03</pdfrwt>
<pdfrwt beam="2">0</pdfrwt>
<totfact> 0.39057939E+04</totfact>
</mgrwt>
</event>
<event>
 6    1  0.6377696E-002  0.3000000E+03  0.7818608E-02  0.1093470E+00
         21   -1    0    0  501  502  0.00000000000E+00  0.00000000000E+00  0.13060690614E+01  0.13060690614E+01  0.00000000000E+00 0. -1.
         13   -1    0    0    0    0 -0.00000000000E+00 -0.00000000000E+00 -0.10000000000E+04  0.10000000000E+04  0.00000000000E+00 0.  1.
    9000005    2    1    2  501    0  0.23368055448E+02 -0.24289789978E+02 -0.32162191033E+03  0.32339561700E+03  0.28305446302E+01 0.  0.
         13    1    3    3    0    0  0.18331833363E+02 -0.18304759852E+02 -0.25683771942E+03  0.25814091978E+03  0.00000000000E+00 0.  1.
          3    1    3    3  501    0  0.50362220850E+01 -0.59850301262E+01 -0.64784190908E+02  0.65254697226E+02  0.00000000000E+00 0.  1.
         -3    1    1    2    0  502 -0.23368055448E+02  0.24289789978E+02 -0.67707202061E+03  0.67791045206E+03  0.00000000000E+00 0. -1.
<mgrwt>
<rscale>  1 0.30000000E+03</rscale>
<asrwt>0</asrwt>
<pdfrwt beam="1">  1       21 0.47493521E-02 0.30000000E+03</pdfrwt>
<pdfrwt beam="2">0</pdfrwt>
<totfact> 0.31440844E+04</totfact>
</mgrwt>
</event>
<event>
 6    1  0.6377696E-002  0.3000000E+03  0.7818608E-02  0.1093470E+00
         21   -1    0    0  501  502  0.00000000000E+00  0.00000000000E+00  0.97400853977E+00  0.97400853977E+00  0.00000000000E+00 0. -1.
         13   -1    0    0    0    0 -0.00000000000E+00 -0.00000000000E+00 -0.10000000000E+04  0.10000000000E+04  0.00000000000E+00 0.  1.
    9000005    2    1    2  501    0 -0.12745292177E+02 -0.28328510437E+02 -0.52889945420E+03  0.52982232595E+03  0.34810113115E+01 0.  0.
         13    1    3    3    0    0 -0.60199309845E+01 -0.98320468679E+01 -0.18138284368E+03  0.18174885061E+03  0.00000000000E+00 0.  1.
          3    1    3    3  501    0 -0.67253611924E+01 -0.18496463569E+02 -0.34751661052E+03  0.34807347534E+03  0.00000000000E+00 0.  1.
         -3    1    1    2    0  502  0.12745292177E+02  0.28328510437E+02 -0.47012653726E+03  0.47115168259E+03  0.00000000000E+00 0. -1.
<mgrwt>
<rscale>  1 0.30000000E+03</rscale>
<asrwt>0</asrwt>
<pdfrwt beam="1">  1       21 0.35418567E-02 0.30000000E+03</pdfrwt>
<pdfrwt beam="2">0</pdfrwt>
<totfact> 0.51579308E+04</totfact>
</mgrwt>
</event>
<event>
 6    1  0.6377696E-002  0.3000000E+03  0.7818608E-02  0.1093470E+00
         21   -1    0    0  501  502  0.00000000000E+00  0.00000000000E+00  0.14427581257E+01  0.14427581257E+01  0.00000000000E+00 0. -1.
         13   -1    0    0    0    0 -0.00000000000E+00 -0.00000000000E+00 -0.10000000000E+04  0.10000000000E+04  0.00000000000E+00 0.  1.
    9000005    2    1    2  501    0  0.23013259422E+02 -0.25597085338E+02 -0.70964956546E+03  0.71049178910E+03  0.33549562000E+01 0.  0.
         13    1    3    3    0    0  0.15168027524E+02 -0.16013094720E+02 -0.42272209134E+03  0.42329712351E+03  0.00000000000E+00 0.  1.
          3    1    3    3  501    0  0.78452318983E+01 -0.95839906172E+01 -0.28692747412E+03  0.28719466560E+03  0.00000000000E+00 0.  1.
         -3    1    1    2    0  502 -0.23013259422E+02  0.25597085338E+02 -0.28890767641E+03  0.29095096902E+03  0.00000000000E+00 0. -1.
<mgrwt>
<rscale>  1 0.30000000E+03</rscale>
<asrwt>0</asrwt>
<pdfrwt beam="1">  1       21 0.52464042E-02 0.30000000E+03</pdfrwt>
<pdfrwt beam="2">0</pdfrwt>
<totfact> 0.26533988E+04</totfact>
</mgrwt>
</event>
<event>
 6    1  0.6377696E-002  0.3000000E+03  0.7818608E-02  0.1093470E+00
         21   -1    0    0  501  502  0.00000000000E+00  0.00000000000E+00  0.97089511566E+00  0.97089511566E+00  0.00000000000E+00 0. -1.
         13   -1    0    0    0    0 -0.00000000000E+00 -0.00000000000E+00 -0.10000000000E+04  0.10000000000E+04  0.00000000000E+00 0.  1.
    9000005    2    1    2  501    0 -0.19657272836E+02 -0.22911305522E+02 -0.38055504222E+03  0.38176050883E+03  0.27585587992E+01 0.  0.
         13    1    3    3    0    0 -0.12242142264E+02 -0.12485582187E+02 -0.21071674378E+03  0.21144102232E+03  0.00000000000E+00 0.  1.
          1    1    3    3  501    0 -0.74151305720E+01 -0.10425723335E+02 -0.16983829844E+03  0.17031948651E+03  0.00000000000E+00 0.  1.
         -3    1    1    2    0  502  0.19657272836E+02  0.22911305522E+02 -0.61847406266E+03  0.61921038629E+03  0.00000000000E+00 0. -1.
<mgrwt>
<rscale>  1 0.30000000E+03</rscale>
<asrwt>0</asrwt>
<pdfrwt beam="1">  1       21 0.35305351E-02 0.30000000E+03</pdfrwt>
<pdfrwt beam="2">0</pdfrwt>
<totfact> 0.51856781E+04</totfact>
</mgrwt>
</event>
<event>
 6    1  0.6377696E-002  0.3000000E+03  0.7818608E-02  0.1093470E+00
         21   -1    0    0  501  502  0.00000000000E+00  0.00000000000E+00  0.26790418597E+01  0.26790418597E+01  0.00000000000E+00 0. -1.
         13   -1    0    0    0    0 -0.00000000000E+00 -0.00000000000E+00 -0.10000000000E+04  0.10000000000E+04  0.00000000000E+00 0.  1.
    9000005    2    1    2  501    0 -0.38982750182E+02 -0.30488153905E+02 -0.64396510443E+03  0.64587441508E+03  0.36772259293E+01 0.  0.
         13    1    3    3    0    0 -0.33526980751E+01 -0.40252882835E+01 -0.65291458378E+02  0.65501282944E+02  0.00000000000E+00 0.  1.
          3    1    3    3  501    0 -0.35630052107E+02 -0.26462865622E+02 -0.57867364605E+03  0.58037313214E+03  0.00000000000E+00 0.  1.
         -1    1    1    2    0  502  0.38982750182E+02  0.30488153905E+02 -0.35335585371E+03  0.35680462678E+03  0.00000000000E+00 0. -1.
<mgrwt>
<rscale>  1 0.30000000E+03</rscale>
<asrwt>0</asrwt>
<pdfrwt beam="1">  1       21 0.97419909E-02 0.30000000E+03</pdfrwt>
<pdfrwt beam="2">0</pdfrwt>
<totfact> 0.90142444E+03</totfact>
</mgrwt>
</event>
<event>
 6    1  0.6377696E-002  0.3000000E+03  0.7818608E-02  0.1093470E+00
         21   -1    0    0  501  502  0.00000000000E+00  0.00000000000E+00  0.13928823674E+01  0.13928823674E+01  0.00000000000E+00 0. -1.
         13   -1    0    0    0    0 -0.00000000000E+00 -0.00000000000E+00 -0.10000000000E+04  0.10000000000E+04  0.00000000000E+00 0.  1.
    9000005    2    1    2  501    0  0.33278169940E+02 -0.16676707162E+02 -0.48941232058E+03  0.49083936852E+03  0.36492461451E+01 0.  0.
         13    1    3    3    0    0  0.34296634087E+00 -0.47423929784E+00 -0.41793218952E+01  0.42201019331E+01  0.00000000000E+00 0.  1.
          3    1    3    3  501    0  0.32935203599E+02 -0.16202467865E+02 -0.48523299868E+03  0.48661926659E+03  0.00000000000E+00 0.  1.
         -1    1    1    2    0  502 -0.33278169940E+02  0.16676707162E+02 -0.50919479705E+03  0.51055351385E+03  0.00000000000E+00 0. -1.
<mgrwt>
<rscale>  1 0.30000000E+03</rscale>
<asrwt>0</asrwt>
<pdfrwt beam="1">  1       21 0.50650375E-02 0.30000000E+03</pdfrwt>
<pdfrwt beam="2">0</pdfrwt>
<totfact> 0.28176791E+04</totfact>
</mgrwt>
</event>
<event>
 6    1  0.6377696E-002  0.3000000E+03  0.7818608E-02  0.1093470E+00
         21   -1    0    0  501  502  0.00000000000E+00  0.00000000000E+00  0.25897202865E+01  0.25897202865E+01  0.00000000000E+00 0. -1.
         13   -1    0    0    0    0 -0.00000000000E+00 -0.00000000000E+00 -0.10000000000E+04  0.10000000000E+04  0.00000000000E+00 0.  1.
    9000005    2    1    2  501    0  0.75542033111E+01  0.46744686859E+02 -0.67834928689E+03  0.68003422292E+03  0.68306358911E+01 0.  0.
         13    1    3    3    0    0  0.86743765844E+01  0.41995362575E+02 -0.62006877223E+03  0.62154978689E+03  0.00000000000E+00 0.  1.
          3    1    3    3  501    0 -0.11201732733E+01  0.47493242837E+01 -0.58280514659E+02  0.58484436034E+02  0.00000000000E+00 0.  1.
         -3    1    1    2    0  502 -0.75542033111E+01 -0.46744686859E+02 -0.31906099282E+03  0.32255549736E+03  0.00000000000E+00 0. -1.
<mgrwt>
<rscale>  1 0.30000000E+03</rscale>
<asrwt>0</asrwt>
<pdfrwt beam="1">  1       21 0.94171845E-02 0.30000000E+03</pdfrwt>
<pdfrwt beam="2">0</pdfrwt>
<totfact> 0.95758484E+03</totfact>
</mgrwt>
</event>
<event>
 6    1  0.6377696E-002  0.3000000E+03  0.7818608E-02  0.1093470E+00
         21   -1    0    0  501  502  0.00000000000E+00  0.00000000000E+00  0.31743906069E+01  0.31743906069E+01  0.00000000000E+00 0. -1.
         13   -1    0    0    0    0 -0.00000000000E+00 -0.00000000000E+00 -0.10000000000E+04  0.10000000000E+04  0.00000000000E+00 0.  1.
    9000005    2    1    2  501    0  0.22759266696E+02  0.50270801083E+02 -0.39941469262E+03  0.40322027474E+03  0.30586960005E+01 0.  0.
         13    1    3    3    0    0  0.49842385713E+01  0.84684038306E+01 -0.74889776837E+02  0.75531683234E+02  0.00000000000E+00 0.  1.
          1    1    3    3  501    0  0.17775028124E+02  0.41802397253E+02 -0.32452491578E+03  0.32768859151E+03  0.00000000000E+00 0.  1.
         -1    1    1    2    0  502 -0.22759266696E+02 -0.50270801083E+02 -0.59741091677E+03  0.59995411586E+03  0.00000000000E+00 0. -1.
<mgrwt>
<rscale>  1 0.30000000E+03</rscale>
<asrwt>0</asrwt>
<pdfrwt beam="1">  1       21 0.11543263E-01 0.30000000E+03</pdfrwt>
<pdfrwt beam="2">0</pdfrwt>
<totfact> 0.66482925E+03</totfact>
</mgrwt>
</event>
<event>
 6    1  0.6377696E-002  0.3000000E+03  0.7818608E-02  0.1093470E+00
         21   -1    0    0  501  502  0.00000000000E+00  0.00000000000E+00  0.14360827354E+01  0.14360827354E+01  0.00000000000E+00 0. -1.
         13   -1    0    0    0    0 -0.00000000000E+00 -0.00000000000E+00 -0.10000000000E+04  0.10000000000E+04  0.00000000000E+00 0.  1.
    9000005    2    1    2  501    0  0.18468473575E+02 -0.29606801773E+02 -0.30845398617E+03  0.31044450230E+03  0.37789153495E+01 0.  0.
         13    1    3    3    0    0  0.13237490575E+02 -0.18439872608E+02 -0.19046411028E+03  0.19181198441E+03  0.00000000000E+00 0.  1.
          3    1    3    3  501    0  0.52309829995E+01 -0.11166929165E+02 -0.11798987588E+03  0.11863251789E+03  0.00000000000E+00 0.  1.
         -1    1    1    2    0  502 -0.18468473575E+02  0.29606801773E+02 -0.69010993110E+03  0.69099158043E+03  0.00000000000E+00 0. -1.
<mgrwt>
<rscale>  1 0.30000000E+03</rscale>
<asrwt>0</asrwt>
<pdfrwt beam="1">  1       21 0.52221301E-02 0.30000000E+03</pdfrwt>
<pdfrwt beam="2">0</pdfrwt>
<totfact> 0.26745121E+04</totfact>
</mgrwt>
</event>
<event>
 6    1  0.6377696E-002  0.3000000E+03  0.7818608E-02  0.1093470E+00
         21   -1    0    0  501  502  0.00000000000E+00  0.00000000000E+00  0.97881466311E+00  0.97881466311E+00  0.00000000000E+00 0. -1.
         13   -1    0    0    0    0 -0.00000000000E+00 -0.00000000000E+00 -0.10000000000E+04  0.10000000000E+04  0.00000000000E+00 0.  1.
    9000005    2    1    2  501    0 -0.30275027643E+02 -0.86212046394E+00 -0.38926701956E+03  0.39047290705E+03  0.47914581344E+01 0.  0.
         13    1    3    3    0    0 -0.21693081428E+02 -0.92808914076E+00 -0.24969329458E+03  0.25063557707E+03  0.00000000000E+00 0.  1.
          3    1    3    3  501    0 -0.85819462153E+01  0.65968676827E-01 -0.13957372498E+03  0.13983732999E+03  0.00000000000E+00 0.  1.
         -3    1    1    2    0  502  0.30275027643E+02  0.86212046394E+00 -0.60975416577E+03  0.61050590761E+03  0.00000000000E+00 0. -1.
<mgrwt>
<rscale>  1 0.30000000E+03</rscale>
<asrwt>0</asrwt>
<pdfrwt beam="1">  1       21 0.35593336E-02 0.30000000E+03</pdfrwt>
<pdfrwt beam="2">0</pdfrwt>
<totfact> 0.51155491E+04</totfact>
</mgrwt>
</event>
<event>
 6    1  0.6377696E-002  0.3000000E+03  0.7818608E-02  0.1093470E+00
         21   -1    0    0  501  502  0.00000000000E+00  0.00000000000E+00  0.11771302262E+01  0.11771302262E+01  0.00000000000E+00 0. -1.
         13   -1    0    0    0    0 -0.00000000000E+00 -0.00000000000E+00 -0.10000000000E+04  0.10000000000E+04  0.00000000000E+00 0.  1.
    9000005    2    1    2  501    0 -0.29309342128E+02 -0.12309014974E+02 -0.68569521696E+03  0.68643997585E+03  0.33705345414E+01 0.  0.
         13    1    3    3    0    0 -0.22020311038E+02 -0.10241999129E+02 -0.54518512102E+03  0.54572576339E+03  0.00000000000E+00 0.  1.
          1    1    3    3  501    0 -0.72890310899E+01 -0.20670158445E+01 -0.14051009594E+03  0.14071421246E+03  0.00000000000E+00 0.  1.
         -1    1    1    2    0  502  0.29309342128E+02  0.12309014974E+02 -0.31312765282E+03  0.31473715437E+03  0.00000000000E+00 0. -1.
<mgrwt>
<rscale>  1 0.30000000E+03</rscale>
<asrwt>0</asrwt>
<pdfrwt beam="1">  1       21 0.42804826E-02 0.30000000E+03</pdfrwt>
<pdfrwt beam="2">0</pdfrwt>
<totfact> 0.37504141E+04</totfact>
</mgrwt>
</event>
<event>
 6    1  0.6377696E-002  0.3000000E+03  0.7818608E-02  0.1093470E+00
         21   -1    0    0  501  502  0.00000000000E+00  0.00000000000E+00  0.22190196703E+01  0.22190196703E+01  0.00000000000E+00 0. -1.
         13   -1    0    0    0    0 -0.00000000000E+00 -0.00000000000E+00 -0.10000000000E+04  0.10000000000E+04  0.00000000000E+00 0.  1.
    9000005    2    1    2  501    0  0.20816072269E+01  0.38293895907E+02 -0.20953116129E+03  0.21303682729E+03  0.32598586413E+01 0.  0.
         13    1    3    3    0    0  0.12528373214E+01  0.56547510331E+01 -0.27971841871E+02  0.28565184198E+02  0.00000000000E+00 0.  1.
          1    1    3    3  501    0  0.82876990552E+00  0.32639144874E+02 -0.18155931942E+03  0.18447164310E+03  0.00000000000E+00 0.  1.
         -3    1    1    2    0  502 -0.20816072269E+01 -0.38293895907E+02 -0.78824981904E+03  0.78918219238E+03  0.00000000000E+00 0. -1.
<mgrwt>
<rscale>  1 0.30000000E+03</rscale>
<asrwt>0</asrwt>
<pdfrwt beam="1">  1       21 0.80691795E-02 0.30000000E+03</pdfrwt>
<pdfrwt beam="2">0</pdfrwt>
<totfact> 0.12582089E+04</totfact>
</mgrwt>
</event>
<event>
 6    1  0.6377696E-002  0.3000000E+03  0.7818608E-02  0.1093470E+00
         21   -1    0    0  501  502  0.00000000000E+00  0.00000000000E+00  0.10107360587E+01  0.10107360587E+01  0.00000000000E+00 0. -1.
         13   -1    0    0    0    0 -0.00000000000E+00 -0.00000000000E+00 -0.10000000000E+04  0.10000000000E+04  0.00000000000E+00 0.  1.
    9000005    2    1    2  501    0 -0.29822692726E+02  0.78971094742E+01 -0.38441651942E+03  0.38566415433E+03  0.30036961930E+01 0.  0.
         13    1    3    3    0    0 -0.18291600908E+02  0.50245359543E+01 -0.21788145755E+03  0.21870564275E+03  0.00000000000E+00 0.  1.
          3    1    3    3  501    0 -0.11531091819E+02  0.28725735199E+01 -0.16653506187E+03  0.16695851158E+03  0.00000000000E+00 0.  1.
         -1    1    1    2    0  502  0.29822692726E+02 -0.78971094742E+01 -0.61457274452E+03  0.61534658173E+03  0.00000000000E+00 0. -1.
<mgrwt>
<rscale>  1 0.30000000E+03</rscale>
<asrwt>0</asrwt>
<pdfrwt beam="1">  1       21 0.36754116E-02 0.30000000E+03</pdfrwt>
<pdfrwt beam="2">0</pdfrwt>
<totfact> 0.48474856E+04</totfact>
</mgrwt>
</event>
<event>
 6    1  0.6377696E-002  0.3000000E+03  0.7818608E-02  0.1093470E+00
         21   -1    0    0  501  502  0.00000000000E+00  0.00000000000E+00  0.34808461696E+01  0.34808461696E+01  0.00000000000E+00 0. -1.
         13   -1    0    0    0    0 -0.00000000000E+00 -0.00000000000E+00 -0.10000000000E+04  0.10000000000E+04  0.00000000000E+00 0.  1.
    9000005    2    1    2  501    0 -0.72865628303E+00 -0.50441736001E+02 -0.23952134721E+03  0.24480398551E+03  0.36899704569E+01 0.  0.
         13    1    3    3    0    0 -0.57908555429E+00 -0.17877751973E+02 -0.76696695565E+02  0.78754888523E+02  0.00000000000E+00 0.  1.
          3    1    3    3  501    0 -0.14957072875E+00 -0.32563984028E+02 -0.16282465164E+03  0.16604909699E+03  0.00000000000E+00 0.  1.
         -1    1    1    2    0  502  0.72865628303E+00  0.50441736001E+02 -0.75699780662E+03  0.75867686066E+03  0.00000000000E+00 0. -1.
<mgrwt>
<rscale>  1 0.30000000E+03</rscale>
<asrwt>0</asrwt>
<pdfrwt beam="1">  1       21 0.12657649E-01 0.30000000E+03</pdfrwt>
<pdfrwt beam="2">0</pdfrwt>
<totfact> 0.56237894E+03</totfact>
</mgrwt>
</event>
<event>
 6    1  0.6377696E-002  0.3000000E+03  0.7818608E-02  0.1093470E+00
         21   -1    0    0  501  502  0.00000000000E+00  0.00000000000E+00  0.23100653297E+01  0.23100653297E+01  0.00000000000E+00 0. -1.
         13   -1    0    0    0    0 -0.00000000000E+00 -0.00000000000E+00 -0.10000000000E+04  0.10000000000E+04  0.00000000000E+00 0.  1.
    9000005    2    1    2  501    0  0.24075106388E+02 -0.31514114821E+02 -0.22478232111E+03  0.22838569610E+03  0.77578425602E+01 0.  0.
         13    1    3    3    0    0  0.12561755861E+02 -0.22224634445E+02 -0.14940135013E+03  0.15156680212E+03  0.00000000000E+00 0.  1.
          1    1    3    3  501    0  0.11513350527E+02 -0.92894803759E+01 -0.75380970982E+02  0.76818893979E+02  0.00000000000E+00 0.  1.
         -3    1    1    2    0  502 -0.24075106388E+02  0.31514114821E+02 -0.77290761356E+03  0.77392436923E+03  0.00000000000E+00 0. -1.
<mgrwt>
<rscale>  1 0.30000000E+03</rscale>
<asrwt>0</asrwt>
<pdfrwt beam="1">  1       21 0.84002553E-02 0.30000000E+03</pdfrwt>
<pdfrwt beam="2">0</pdfrwt>
<totfact> 0.11722645E+04</totfact>
</mgrwt>
</event>
<event>
 6    1  0.6377696E-002  0.3000000E+03  0.7818608E-02  0.1093470E+00
         21   -1    0    0  501  502  0.00000000000E+00  0.00000000000E+00  0.15853170554E+01  0.15853170554E+01  0.00000000000E+00 0. -1.
         13   -1    0    0    0    0 -0.00000000000E+00 -0.00000000000E+00 -0.10000000000E+04  0.10000000000E+04  0.00000000000E+00 0.  1.
    9000005    2    1    2  501    0  0.31665523674E+02 -0.14515700400E+02 -0.26036761148E+03  0.26271666118E+03  0.39166315439E+01 0.  0.
         13    1    3    3    0    0  0.17352301972E+02 -0.75452586036E+01 -0.12690868745E+03  0.12831152817E+03  0.00000000000E+00 0.  1.
          1    1    3    3  501    0  0.14313221702E+02 -0.69704417960E+01 -0.13345892403E+03  0.13440513301E+03  0.00000000000E+00 0.  1.
         -1    1    1    2    0  502 -0.31665523674E+02  0.14515700400E+02 -0.73804707146E+03  0.73886865588E+03  0.00000000000E+00 0. -1.
<mgrwt>
<rscale>  1 0.30000000E+03</rscale>
<asrwt>0</asrwt>
<pdfrwt beam="1">  1       21 0.57648014E-02 0.30000000E+03</pdfrwt>
<pdfrwt beam="2">0</pdfrwt>
<totfact> 0.22574927E+04</totfact>
</mgrwt>
</event>
<event>
 6    1  0.6377696E-002  0.3000000E+03  0.7818608E-02  0.1093470E+00
         21   -1    0    0  501  502  0.00000000000E+00  0.00000000000E+00  0.17259539735E+01  0.17259539735E+01  0.00000000000E+00 0. -1.
         13   -1    0    0    0    0 -0.00000000000E+00 -0.00000000000E+00 -0.10000000000E+04  0.10000000000E+04  0.00000000000E+00 0.  1.
    9000005    2    1    2  501    0  0.40611923592E+02  0.27513186996E+01 -0.59002389132E+03  0.59145154957E+03  0.54630637511E+01 0.  0.
         13    1    3    3    0    0  0.94381352625E+01  0.11302020476E+01 -0.10775344126E+03  0.10817189957E+03  0.00000000000E+00 0.  1.
          3    1    3    3  501    0  0.31173788330E+02  0.16211166520E+01 -0.48227045006E+03  0.48327965000E+03  0.00000000000E+00 0.  1.
         -1    1    1    2    0  502 -0.40611923592E+02 -0.27513186996E+01 -0.40825015471E+03  0.41027440440E+03  0.00000000000E+00 0. -1.
<mgrwt>
<rscale>  1 0.30000000E+03</rscale>
<asrwt>0</asrwt>
<pdfrwt beam="1">  1       21 0.62762095E-02 0.30000000E+03</pdfrwt>
<pdfrwt beam="2">0</pdfrwt>
<totfact> 0.19496478E+04</totfact>
</mgrwt>
</event>
<event>
 6    1  0.6377696E-002  0.3000000E+03  0.7818608E-02  0.1093470E+00
         21   -1    0    0  501  502  0.00000000000E+00  0.00000000000E+00  0.11113023941E+01  0.11113023941E+01  0.00000000000E+00 0. -1.
         13   -1    0    0    0    0 -0.00000000000E+00 -0.00000000000E+00 -0.10000000000E+04  0.10000000000E+04  0.00000000000E+00 0.  1.
    9000005    2    1    2  501    0 -0.63590470850E+00 -0.32396818629E+02 -0.41696027692E+03  0.41828144297E+03  0.73167461003E+01 0.  0.
         13    1    3    3    0    0  0.14695247159E+00 -0.31553533099E+02 -0.38156419419E+03  0.38286666260E+03  0.00000000000E+00 0.  1.
          1    1    3    3  501    0 -0.78285718009E+00 -0.84328552969E+00 -0.35396082733E+02  0.35414780371E+02  0.00000000000E+00 0.  1.
         -1    1    1    2    0  502  0.63590470850E+00  0.32396818629E+02 -0.58192842068E+03  0.58282985942E+03  0.00000000000E+00 0. -1.
<mgrwt>
<rscale>  1 0.30000000E+03</rscale>
<asrwt>0</asrwt>
<pdfrwt beam="1">  1       21 0.40411081E-02 0.30000000E+03</pdfrwt>
<pdfrwt beam="2">0</pdfrwt>
<totfact> 0.41329342E+04</totfact>
</mgrwt>
</event>
<event>
 6    1  0.6377696E-002  0.3000000E+03  0.7818608E-02  0.1093470E+00
         21   -1    0    0  501  502  0.00000000000E+00  0.00000000000E+00  0.16902976750E+01  0.16902976750E+01  0.00000000000E+00 0. -1.
         13   -1    0    0    0    0 -0.00000000000E+00 -0.00000000000E+00 -0.10000000000E+04  0.10000000000E+04  0.00000000000E+00 0.  1.
    9000005    2    1    2  501    0  0.12306119660E+02  0.38562629341E+02 -0.41831753800E+03  0.42028731553E+03  0.36534967462E+01 0.  0.
         13    1    3    3    0    0  0.52342029476E+01  0.19113570357E+02 -0.22150954790E+03  0.22239425636E+03  0.00000000000E+00 0.  1.
          1    1    3    3  501    0  0.70719167126E+01  0.19449058984E+02 -0.19680799010E+03  0.19789305917E+03  0.00000000000E+00 0.  1.
         -3    1    1    2    0  502 -0.12306119660E+02 -0.38562629341E+02 -0.57999216433E+03  0.58140298214E+03  0.00000000000E+00 0. -1.
<mgrwt>
<rscale>  1 0.30000000E+03</rscale>
<asrwt>0</asrwt>
<pdfrwt beam="1">  1       21 0.61465500E-02 0.30000000E+03</pdfrwt>
<pdfrwt beam="2">0</pdfrwt>
<totfact> 0.20212281E+04</totfact>
</mgrwt>
</event>
<event>
 6    1  0.6377696E-002  0.3000000E+03  0.7818608E-02  0.1093470E+00
         21   -1    0    0  501  502  0.00000000000E+00  0.00000000000E+00  0.96410893802E+00  0.96410893802E+00  0.00000000000E+00 0. -1.
         13   -1    0    0    0    0 -0.00000000000E+00 -0.00000000000E+00 -0.10000000000E+04  0.10000000000E+04  0.00000000000E+00 0.  1.
    9000005    2    1    2  501    0  0.18358514424E+02 -0.24813046740E+02 -0.46210426206E+03  0.46314602021E+03  0.33413592995E+01 0.  0.
         13    1    3    3    0    0  0.10394791585E+02 -0.15050813354E+02 -0.29603816992E+03  0.29660272542E+03  0.00000000000E+00 0.  1.
          1    1    3    3  501    0  0.79637228382E+01 -0.97622333861E+01 -0.16606609214E+03  0.16654329479E+03  0.00000000000E+00 0.  1.
         -3    1    1    2    0  502 -0.18358514424E+02  0.24813046740E+02 -0.53693162900E+03  0.53781808872E+03  0.00000000000E+00 0. -1.
<mgrwt>
<rscale>  1 0.30000000E+03</rscale>
<asrwt>0</asrwt>
<pdfrwt beam="1">  1       21 0.35058581E-02 0.30000000E+03</pdfrwt>
<pdfrwt beam="2">0</pdfrwt>
<totfact> 0.52469663E+04</totfact>
</mgrwt>
</event>
<event>
 6    1  0.6377696E-002  0.3000000E+03  0.7818608E-02  0.1093470E+00
         21   -1    0    0  501  502  0.00000000000E+00  0.00000000000E+00  0.23033846362E+01  0.23033846362E+01  0.00000000000E+00 0. -1.
         13   -1    0    0    0    0 -0.00000000000E+00 -0.00000000000E+00 -0.10000000000E+04  0.10000000000E+04  0.00000000000E+00 0.  1.
    9000005    2    1    2  501    0 -0.30780042860E+02 -0.35427827477E+02 -0.39696630649E+03  0.39974264413E+03  0.30644820941E+01 0.  0.
         13    1    3    3    0    0 -0.16276405231E+02 -0.19102307204E+02 -0.19937813661E+03  0.20095138931E+03  0.00000000000E+00 0.  1.
          3    1    3    3  501    0 -0.14503637629E+02 -0.16325520273E+02 -0.19758816988E+03  0.19879125482E+03  0.00000000000E+00 0.  1.
         -3    1    1    2    0  502  0.30780042860E+02  0.35427827477E+02 -0.60073030888E+03  0.60256074051E+03  0.00000000000E+00 0. -1.
<mgrwt>
<rscale>  1 0.30000000E+03</rscale>
<asrwt>0</asrwt>
<pdfrwt beam="1">  1       21 0.83759618E-02 0.30000000E+03</pdfrwt>
<pdfrwt beam="2">0</pdfrwt>
<totfact> 0.11782609E+04</totfact>
</mgrwt>
</event>
<event>
 6    1  0.6377696E-002  0.3000000E+03  0.7818608E-02  0.1093470E+00
         21   -1    0    0  501  502  0.00000000000E+00  0.00000000000E+00  0.29055508167E+01  0.29055508167E+01  0.00000000000E+00 0. -1.
         13   -1    0    0    0    0 -0.00000000000E+00 -0.00000000000E+00 -0.10000000000E+04  0.10000000000E+04  0.00000000000E+00 0.  1.
    9000005    2    1    2  501    0 -0.24049838469E+02  0.40461280885E+02 -0.25643506203E+03  0.26075203721E+03  0.41441391542E+01 0.  0.
         13    1    3    3    0    0 -0.56003587719E+01  0.12719599120E+02 -0.80264890863E+02  0.81459222470E+02  0.00000000000E+00 0.  1.
          1    1    3    3  501    0 -0.18449479697E+02  0.27741681765E+02 -0.17617017117E+03  0.17929281474E+03  0.00000000000E+00 0.  1.
         -1    1    1    2    0  502  0.24049838469E+02 -0.40461280885E+02 -0.74065938715E+03  0.74215351361E+03  0.00000000000E+00 0. -1.
<mgrwt>
<rscale>  1 0.30000000E+03</rscale>
<asrwt>0</asrwt>
<pdfrwt beam="1">  1       21 0.10565662E-01 0.30000000E+03</pdfrwt>
<pdfrwt beam="2">0</pdfrwt>
<totfact> 0.77962384E+03</totfact>
</mgrwt>
</event>
<event>
 6    1  0.6377696E-002  0.3000000E+03  0.7818608E-02  0.1093470E+00
         21   -1    0    0  501  502  0.00000000000E+00  0.00000000000E+00  0.22879548197E+01  0.22879548197E+01  0.00000000000E+00 0. -1.
         13   -1    0    0    0    0 -0.00000000000E+00 -0.00000000000E+00 -0.10000000000E+04  0.10000000000E+04  0.00000000000E+00 0.  1.
    9000005    2    1    2  501    0 -0.88740563124E+01 -0.46339625092E+02 -0.42801695514E+03  0.43064243061E+03  0.53178405615E+01 0.  0.
         13    1    3    3    0    0  0.70518624570E-01 -0.58283818847E+01 -0.65674280610E+02  0.65932436189E+02  0.00000000000E+00 0.  1.
          3    1    3    3  501    0 -0.89445749370E+01 -0.40511243207E+02 -0.36234267453E+03  0.36470999442E+03  0.00000000000E+00 0.  1.
         -1    1    1    2    0  502  0.88740563124E+01  0.46339625092E+02 -0.56969509004E+03  0.57164552421E+03  0.00000000000E+00 0. -1.
<mgrwt>
<rscale>  1 0.30000000E+03</rscale>
<asrwt>0</asrwt>
<pdfrwt beam="1">  1       21 0.83198533E-02 0.30000000E+03</pdfrwt>
<pdfrwt beam="2">0</pdfrwt>
<totfact> 0.11922909E+04</totfact>
</mgrwt>
</event>
<event>
 6    1  0.6377696E-002  0.3000000E+03  0.7818608E-02  0.1093470E+00
         21   -1    0    0  501  502  0.00000000000E+00  0.00000000000E+00  0.24078939784E+01  0.24078939784E+01  0.00000000000E+00 0. -1.
         13   -1    0    0    0    0 -0.00000000000E+00 -0.00000000000E+00 -0.10000000000E+04  0.10000000000E+04  0.00000000000E+00 0.  1.
    9000005    2    1    2  501    0 -0.42185988426E+02 -0.24812716496E+02 -0.52734558791E+03  0.52962134985E+03  0.31743664129E+01 0.  0.
         13    1    3    3    0    0 -0.32792062551E+02 -0.20097037125E+02 -0.42560195810E+03  0.42733621073E+03  0.00000000000E+00 0.  1.
          3    1    3    3  501    0 -0.93939258748E+01 -0.47156793710E+01 -0.10174362982E+03  0.10228513911E+03  0.00000000000E+00 0.  1.
         -3    1    1    2    0  502  0.42185988426E+02  0.24812716496E+02 -0.47024651811E+03  0.47278654413E+03  0.00000000000E+00 0. -1.
<mgrwt>
<rscale>  1 0.30000000E+03</rscale>
<asrwt>0</asrwt>
<pdfrwt beam="1">  1       21 0.87559966E-02 0.30000000E+03</pdfrwt>
<pdfrwt beam="2">0</pdfrwt>
<totfact> 0.10895319E+04</totfact>
</mgrwt>
</event>
<event>
 6    1  0.6377696E-002  0.3000000E+03  0.7818608E-02  0.1093470E+00
         21   -1    0    0  501  502  0.00000000000E+00  0.00000000000E+00  0.97734153143E+00  0.97734153143E+00  0.00000000000E+00 0. -1.
         13   -1    0    0    0    0 -0.00000000000E+00 -0.00000000000E+00 -0.10000000000E+04  0.10000000000E+04  0.00000000000E+00 0.  1.
    9000005    2    1    2  501    0  0.15516193270E+02 -0.26607373965E+02 -0.42454350173E+03  0.42567306888E+03  0.34164464588E+01 0.  0.
         13    1    3    3    0    0  0.14275084962E+02 -0.23574610809E+02 -0.39091583831E+03  0.39188612244E+03  0.00000000000E+00 0.  1.
          1    1    3    3  501    0  0.12411083080E+01 -0.30327631563E+01 -0.33627663425E+02  0.33786946438E+02  0.00000000000E+00 0.  1.
         -3    1    1    2    0  502 -0.15516193270E+02  0.26607373965E+02 -0.57447915674E+03  0.57530427265E+03  0.00000000000E+00 0. -1.
<mgrwt>
<rscale>  1 0.30000000E+03</rscale>
<asrwt>0</asrwt>
<pdfrwt beam="1">  1       21 0.35539767E-02 0.30000000E+03</pdfrwt>
<pdfrwt beam="2">0</pdfrwt>
<totfact> 0.51284813E+04</totfact>
</mgrwt>
</event>
<event>
 6    1  0.6377696E-002  0.3000000E+03  0.7818608E-02  0.1093470E+00
         21   -1    0    0  501  502  0.00000000000E+00  0.00000000000E+00  0.13970869921E+01  0.13970869921E+01  0.00000000000E+00 0. -1.
         13   -1    0    0    0    0 -0.00000000000E+00 -0.00000000000E+00 -0.10000000000E+04  0.10000000000E+04  0.00000000000E+00 0.  1.
    9000005    2    1    2  501    0  0.23266686352E+02  0.28983626163E+02 -0.54328529770E+03  0.54456503898E+03  0.32829415375E+01 0.  0.
         13    1    3    3    0    0  0.56032784559E+01  0.60034598294E+01 -0.13866335915E+03  0.13890631890E+03  0.00000000000E+00 0.  1.
          1    1    3    3  501    0  0.17663407896E+02  0.22980166334E+02 -0.40462193855E+03  0.40565872008E+03  0.00000000000E+00 0.  1.
         -3    1    1    2    0  502 -0.23266686352E+02 -0.28983626163E+02 -0.45531761531E+03  0.45683204801E+03  0.00000000000E+00 0. -1.
<mgrwt>
<rscale>  1 0.30000000E+03</rscale>
<asrwt>0</asrwt>
<pdfrwt beam="1">  1       21 0.50803270E-02 0.30000000E+03</pdfrwt>
<pdfrwt beam="2">0</pdfrwt>
<totfact> 0.28032278E+04</totfact>
</mgrwt>
</event>
<event>
 6    1  0.6377696E-002  0.3000000E+03  0.7818608E-02  0.1093470E+00
         21   -1    0    0  501  502  0.00000000000E+00  0.00000000000E+00  0.12867596397E+01  0.12867596397E+01  0.00000000000E+00 0. -1.
         13   -1    0    0    0    0 -0.00000000000E+00 -0.00000000000E+00 -0.10000000000E+04  0.10000000000E+04  0.00000000000E+00 0.  1.
    9000005    2    1    2  501    0  0.10673862235E+02 -0.30887402787E+02 -0.29847074682E+03  0.30028211433E+03  0.40741248619E+01 0.  0.
         13    1    3    3    0    0  0.11010619093E+02 -0.29263803144E+02 -0.28193834242E+03  0.28366676371E+03  0.00000000000E+00 0.  1.
          3    1    3    3  501    0 -0.33675685772E+00 -0.16235996434E+01 -0.16532404402E+02  0.16615350622E+02  0.00000000000E+00 0.  1.
         -1    1    1    2    0  502 -0.10673862235E+02  0.30887402787E+02 -0.70024249354E+03  0.70100464531E+03  0.00000000000E+00 0. -1.
<mgrwt>
<rscale>  1 0.30000000E+03</rscale>
<asrwt>0</asrwt>
<pdfrwt beam="1">  1       21 0.46791358E-02 0.30000000E+03</pdfrwt>
<pdfrwt beam="2">0</pdfrwt>
<totfact> 0.32247325E+04</totfact>
</mgrwt>
</event>
<event>
 6    1  0.6377696E-002  0.3000000E+03  0.7818608E-02  0.1093470E+00
         21   -1    0    0  501  502  0.00000000000E+00  0.00000000000E+00  0.48159905706E+01  0.48159905706E+01  0.00000000000E+00 0. -1.
         13   -1    0    0    0    0 -0.00000000000E+00 -0.00000000000E+00 -0.10000000000E+04  0.10000000000E+04  0.00000000000E+00 0.  1.
    9000005    2    1    2  501    0 -0.67998312217E+02 -0.11797160707E+02 -0.54836547443E+03  0.55269902928E+03  0.29291565763E+01 0.  0.
         13    1    3    3    0    0 -0.15969476303E+02 -0.18561479874E+01 -0.12101283850E+03  0.12207610963E+03  0.00000000000E+00 0.  1.
          1    1    3    3  501    0 -0.52028835913E+02 -0.99410127192E+01 -0.42735263592E+03  0.43062291965E+03  0.00000000000E+00 0.  1.
         -3    1    1    2    0  502  0.67998312217E+02  0.11797160707E+02 -0.44681853500E+03  0.45211696129E+03  0.00000000000E+00 0. -1.
<mgrwt>
<rscale>  1 0.30000000E+03</rscale>
<asrwt>0</asrwt>
<pdfrwt beam="1">  1       21 0.17512730E-01 0.30000000E+03</pdfrwt>
<pdfrwt beam="2">0</pdfrwt>
<totfact> 0.30847290E+03</totfact>
</mgrwt>
</event>
<event>
 6    1  0.6377696E-002  0.3000000E+03  0.7818608E-02  0.1093470E+00
         21   -1    0    0  501  502  0.00000000000E+00  0.00000000000E+00  0.19892472295E+01  0.19892472295E+01  0.00000000000E+00 0. -1.
         13   -1    0    0    0    0 -0.00000000000E+00 -0.00000000000E+00 -0.10000000000E+04  0.10000000000E+04  0.00000000000E+00 0.  1.
    9000005    2    1    2  501    0 -0.44366987754E+02 -0.38453395614E+01 -0.50482810828E+03  0.50680005402E+03  0.34146174976E+01 0.  0.
         13    1    3    3    0    0 -0.19002995351E+02 -0.14067370765E+01 -0.23518033314E+03  0.23595101576E+03  0.00000000000E+00 0.  1.
          3    1    3    3  501    0 -0.25363992403E+02 -0.24386024849E+01 -0.26964777514E+03  0.27084903827E+03  0.00000000000E+00 0.  1.
         -1    1    1    2    0  502  0.44366987754E+02  0.38453395614E+01 -0.49318264449E+03  0.49518919321E+03  0.00000000000E+00 0. -1.
<mgrwt>
<rscale>  1 0.30000000E+03</rscale>
<asrwt>0</asrwt>
<pdfrwt beam="1">  1       21 0.72336415E-02 0.30000000E+03</pdfrwt>
<pdfrwt beam="2">0</pdfrwt>
<totfact> 0.15237963E+04</totfact>
</mgrwt>
</event>
<event>
 6    1  0.6377696E-002  0.3000000E+03  0.7818608E-02  0.1093470E+00
         21   -1    0    0  501  502  0.00000000000E+00  0.00000000000E+00  0.13175784243E+01  0.13175784243E+01  0.00000000000E+00 0. -1.
         13   -1    0    0    0    0 -0.00000000000E+00 -0.00000000000E+00 -0.10000000000E+04  0.10000000000E+04  0.00000000000E+00 0.  1.
    9000005    2    1    2  501    0 -0.42000099072E+01  0.35393672768E+02 -0.41245911472E+03  0.41401176570E+03  0.35872928244E+01 0.  0.
         13    1    3    3    0    0 -0.16952002628E+01  0.24143044146E+02 -0.26503836002E+03  0.26614111401E+03  0.00000000000E+00 0.  1.
          1    1    3    3  501    0 -0.25048096444E+01  0.11250628622E+02 -0.14742075469E+03  0.14787065169E+03  0.00000000000E+00 0.  1.
         -1    1    1    2    0  502  0.42000099072E+01 -0.35393672768E+02 -0.58622330686E+03  0.58730581272E+03  0.00000000000E+00 0. -1.
<mgrwt>
<rscale>  1 0.30000000E+03</rscale>
<asrwt>0</asrwt>
<pdfrwt beam="1">  1       21 0.47912044E-02 0.30000000E+03</pdfrwt>
<pdfrwt beam="2">0</pdfrwt>
<totfact> 0.30975058E+04</totfact>
</mgrwt>
</event>
<event>
 6    1  0.6377696E-002  0.3000000E+03  0.7818608E-02  0.1093470E+00
         21   -1    0    0  501  502  0.00000000000E+00  0.00000000000E+00  0.10361362404E+01  0.10361362404E+01  0.00000000000E+00 0. -1.
         13   -1    0    0    0    0 -0.00000000000E+00 -0.00000000000E+00 -0.10000000000E+04  0.10000000000E+04  0.00000000000E+00 0.  1.
    9000005    2    1    2  501    0 -0.28100659780E+01  0.31959002217E+02 -0.47528132124E+03  0.47637178674E+03  0.29104281160E+01 0.  0.
         13    1    3    3    0    0 -0.31638765095E+01  0.27794317369E+02 -0.40299836480E+03  0.40396808812E+03  0.00000000000E+00 0.  1.
          3    1    3    3  501    0  0.35381053146E+00  0.41646848485E+01 -0.72282956439E+02  0.72403698617E+02  0.00000000000E+00 0.  1.
         -3    1    1    2    0  502  0.28100659780E+01 -0.31959002217E+02 -0.52368254252E+03  0.52466434950E+03  0.00000000000E+00 0. -1.
<mgrwt>
<rscale>  1 0.30000000E+03</rscale>
<asrwt>0</asrwt>
<pdfrwt beam="1">  1       21 0.37677761E-02 0.30000000E+03</pdfrwt>
<pdfrwt beam="2">0</pdfrwt>
<totfact> 0.46496520E+04</totfact>
</mgrwt>
</event>
<event>
 6    1  0.6377696E-002  0.3000000E+03  0.7818608E-02  0.1093470E+00
         21   -1    0    0  501  502  0.00000000000E+00  0.00000000000E+00  0.15349807726E+01  0.15349807726E+01  0.00000000000E+00 0. -1.
         13   -1    0    0    0    0 -0.00000000000E+00 -0.00000000000E+00 -0.10000000000E+04  0.10000000000E+04  0.00000000000E+00 0.  1.
    9000005    2    1    2  501    0 -0.35420876141E+02  0.37496115732E+01 -0.29387606995E+03  0.29604629518E+03  0.34009333676E+01 0.  0.
         13    1    3    3    0    0 -0.23401412497E+02  0.25703884550E+01 -0.20711347407E+03  0.20844717351E+03  0.00000000000E+00 0.  1.
          3    1    3    3  501    0 -0.12019463644E+02  0.11792231181E+01 -0.86762595882E+02  0.87599121672E+02  0.00000000000E+00 0.  1.
         -1    1    1    2    0  502  0.35420876141E+02 -0.37496115732E+01 -0.70458894927E+03  0.70548868559E+03  0.00000000000E+00 0. -1.
<mgrwt>
<rscale>  1 0.30000000E+03</rscale>
<asrwt>0</asrwt>
<pdfrwt beam="1">  1       21 0.55817600E-02 0.30000000E+03</pdfrwt>
<pdfrwt beam="2">0</pdfrwt>
<totfact> 0.23862341E+04</totfact>
</mgrwt>
</event>
<event>
 6    1  0.6377696E-002  0.3000000E+03  0.7818608E-02  0.1093470E+00
         21   -1    0    0  501  502  0.00000000000E+00  0.00000000000E+00  0.16029413504E+01  0.16029413504E+01  0.00000000000E+00 0. -1.
         13   -1    0    0    0    0 -0.00000000000E+00 -0.00000000000E+00 -0.10000000000E+04  0.10000000000E+04  0.00000000000E+00 0.  1.
    9000005    2    1    2  501    0 -0.37481125968E+02 -0.43546406502E+01 -0.64803868237E+03  0.64921850706E+03  0.10331426130E+02 0.  0.
         13    1    3    3    0    0 -0.11548993630E+02 -0.55546634181E+01 -0.17549790237E+03  0.17596518769E+03  0.00000000000E+00 0.  1.
          1    1    3    3  501    0 -0.25932132338E+02  0.12000227679E+01 -0.47254078000E+03  0.47325331938E+03  0.00000000000E+00 0.  1.
         -1    1    1    2    0  502  0.37481125968E+02  0.43546406502E+01 -0.35035837628E+03  0.35238443429E+03  0.00000000000E+00 0. -1.
<mgrwt>
<rscale>  1 0.30000000E+03</rscale>
<asrwt>0</asrwt>
<pdfrwt beam="1">  1       21 0.58288899E-02 0.30000000E+03</pdfrwt>
<pdfrwt beam="2">0</pdfrwt>
<totfact> 0.22149192E+04</totfact>
</mgrwt>
</event>
<event>
 6    1  0.6377696E-002  0.3000000E+03  0.7818608E-02  0.1093470E+00
         21   -1    0    0  501  502  0.00000000000E+00  0.00000000000E+00  0.14041942014E+01  0.14041942014E+01  0.00000000000E+00 0. -1.
         13   -1    0    0    0    0 -0.00000000000E+00 -0.00000000000E+00 -0.10000000000E+04  0.10000000000E+04  0.00000000000E+00 0.  1.
    9000005    2    1    2  501    0  0.36953730712E+02  0.12854980621E+00 -0.42400830665E+03  0.42562959515E+03  0.34515819693E+01 0.  0.
         13    1    3    3    0    0  0.13207139989E+02  0.98580416102E+00 -0.13647951097E+03  0.13712059390E+03  0.00000000000E+00 0.  1.
          3    1    3    3  501    0  0.23746590722E+02 -0.85725435482E+00 -0.28752879568E+03  0.28850900125E+03  0.00000000000E+00 0.  1.
         -3    1    1    2    0  502 -0.36953730712E+02 -0.12854980621E+00 -0.57458749915E+03  0.57577459905E+03  0.00000000000E+00 0. -1.
<mgrwt>
<rscale>  1 0.30000000E+03</rscale>
<asrwt>0</asrwt>
<pdfrwt beam="1">  1       21 0.51061715E-02 0.30000000E+03</pdfrwt>
<pdfrwt beam="2">0</pdfrwt>
<totfact> 0.27790610E+04</totfact>
</mgrwt>
</event>
<event>
 6    1  0.6377696E-002  0.3000000E+03  0.7818608E-02  0.1093470E+00
         21   -1    0    0  501  502  0.00000000000E+00  0.00000000000E+00  0.10516064201E+01  0.10516064201E+01  0.00000000000E+00 0. -1.
         13   -1    0    0    0    0 -0.00000000000E+00 -0.00000000000E+00 -0.10000000000E+04  0.10000000000E+04  0.00000000000E+00 0.  1.
    9000005    2    1    2  501    0 -0.25259206000E+02 -0.17818055710E+02 -0.64002024043E+03  0.64079485115E+03  0.60516525104E+01 0.  0.
         13    1    3    3    0    0 -0.21709805322E+02 -0.16569799089E+02 -0.59085951987E+03  0.59149036011E+03  0.00000000000E+00 0.  1.
          1    1    3    3  501    0 -0.35494006777E+01 -0.12482566211E+01 -0.49160720563E+02  0.49304491033E+02  0.00000000000E+00 0.  1.
         -3    1    1    2    0  502  0.25259206000E+02  0.17818055710E+02 -0.35892815315E+03  0.36025675527E+03  0.00000000000E+00 0. -1.
<mgrwt>
<rscale>  1 0.30000000E+03</rscale>
<asrwt>0</asrwt>
<pdfrwt beam="1">  1       21 0.38240314E-02 0.30000000E+03</pdfrwt>
<pdfrwt beam="2">0</pdfrwt>
<totfact> 0.45353093E+04</totfact>
</mgrwt>
</event>
<event>
 6    1  0.6377696E-002  0.3000000E+03  0.7818608E-02  0.1093470E+00
         21   -1    0    0  501  502  0.00000000000E+00  0.00000000000E+00  0.10052359595E+01  0.10052359595E+01  0.00000000000E+00 0. -1.
         13   -1    0    0    0    0 -0.00000000000E+00 -0.00000000000E+00 -0.10000000000E+04  0.10000000000E+04  0.00000000000E+00 0.  1.
    9000005    2    1    2  501    0  0.31548182001E+02  0.48115838288E+00 -0.52838499651E+03  0.52933896348E+03  0.36761962386E+01 0.  0.
         13    1    3    3    0    0  0.19389308535E+02  0.20800272751E+01 -0.32660674323E+03  0.32718838079E+03  0.00000000000E+00 0.  1.
          1    1    3    3  501    0  0.12158873466E+02 -0.15988688922E+01 -0.20177825328E+03  0.20215058269E+03  0.00000000000E+00 0.  1.
         -1    1    1    2    0  502 -0.31548182001E+02 -0.48115838288E+00 -0.47060976753E+03  0.47166627248E+03  0.00000000000E+00 0. -1.
<mgrwt>
<rscale>  1 0.30000000E+03</rscale>
<asrwt>0</asrwt>
<pdfrwt beam="1">  1       21 0.36554112E-02 0.30000000E+03</pdfrwt>
<pdfrwt beam="2">0</pdfrwt>
<totfact> 0.48920711E+04</totfact>
</mgrwt>
</event>
<event>
 6    1  0.6377696E-002  0.3000000E+03  0.7818608E-02  0.1093470E+00
         21   -1    0    0  501  502  0.00000000000E+00  0.00000000000E+00  0.11501544984E+01  0.11501544984E+01  0.00000000000E+00 0. -1.
         13   -1    0    0    0    0 -0.00000000000E+00 -0.00000000000E+00 -0.10000000000E+04  0.10000000000E+04  0.00000000000E+00 0.  1.
    9000005    2    1    2  501    0  0.27901428842E+02 -0.18851659651E+02 -0.54280401121E+03  0.54386285118E+03  0.40904160001E+01 0.  0.
         13    1    3    3    0    0  0.17784141250E+02 -0.11849237018E+02 -0.31189119280E+03  0.31262245000E+03  0.00000000000E+00 0.  1.
          3    1    3    3  501    0  0.10117287592E+02 -0.70024226335E+01 -0.23091281841E+03  0.23124040118E+03  0.00000000000E+00 0.  1.
         -3    1    1    2    0  502 -0.27901428842E+02  0.18851659651E+02 -0.45604583429E+03  0.45728730332E+03  0.00000000000E+00 0. -1.
<mgrwt>
<rscale>  1 0.30000000E+03</rscale>
<asrwt>0</asrwt>
<pdfrwt beam="1">  1       21 0.41823888E-02 0.30000000E+03</pdfrwt>
<pdfrwt beam="2">0</pdfrwt>
<totfact> 0.39002186E+04</totfact>
</mgrwt>
</event>
<event>
 6    1  0.6377696E-002  0.3000000E+03  0.7818608E-02  0.1093470E+00
         21   -1    0    0  501  502  0.00000000000E+00  0.00000000000E+00  0.10709903897E+01  0.10709903897E+01  0.00000000000E+00 0. -1.
         13   -1    0    0    0    0 -0.00000000000E+00 -0.00000000000E+00 -0.10000000000E+04  0.10000000000E+04  0.00000000000E+00 0.  1.
    9000005    2    1    2  501    0 -0.19932844411E+02 -0.24985450692E+02 -0.40025827137E+03  0.40154764318E+03  0.34978429356E+01 0.  0.
         13    1    3    3    0    0 -0.35279649265E+01 -0.26027786998E+01 -0.50127630288E+02  0.50318985600E+02  0.00000000000E+00 0.  1.
          3    1    3    3  501    0 -0.16404879485E+02 -0.22382671993E+02 -0.35013064109E+03  0.35122865758E+03  0.00000000000E+00 0.  1.
         -3    1    1    2    0  502  0.19932844411E+02  0.24985450692E+02 -0.59867073824E+03  0.59952334721E+03  0.00000000000E+00 0. -1.
<mgrwt>
<rscale>  1 0.30000000E+03</rscale>
<asrwt>0</asrwt>
<pdfrwt beam="1">  1       21 0.38945187E-02 0.30000000E+03</pdfrwt>
<pdfrwt beam="2">0</pdfrwt>
<totfact> 0.43981586E+04</totfact>
</mgrwt>
</event>
<event>
 6    1  0.6377696E-002  0.3000000E+03  0.7818608E-02  0.1093470E+00
         21   -1    0    0  501  502  0.00000000000E+00  0.00000000000E+00  0.12943682165E+01  0.12943682165E+01  0.00000000000E+00 0. -1.
         13   -1    0    0    0    0 -0.00000000000E+00 -0.00000000000E+00 -0.10000000000E+04  0.10000000000E+04  0.00000000000E+00 0.  1.
    9000005    2    1    2  501    0 -0.79358631720E+01  0.34875908028E+02 -0.54371433444E+03  0.54489937751E+03  0.32782996599E+01 0.  0.
         13    1    3    3    0    0 -0.26722720527E+01  0.15682292473E+02 -0.26257328133E+03  0.26305475362E+03  0.00000000000E+00 0.  1.
          1    1    3    3  501    0 -0.52635911193E+01  0.19193615555E+02 -0.28114105311E+03  0.28184462389E+03  0.00000000000E+00 0.  1.
         -3    1    1    2    0  502  0.79358631720E+01 -0.34875908028E+02 -0.45499129735E+03  0.45639499071E+03  0.00000000000E+00 0. -1.
<mgrwt>
<rscale>  1 0.30000000E+03</rscale>
<asrwt>0</asrwt>
<pdfrwt beam="1">  1       21 0.47068034E-02 0.30000000E+03</pdfrwt>
<pdfrwt beam="2">0</pdfrwt>
<totfact> 0.31925717E+04</totfact>
</mgrwt>
</event>
<event>
 6    1  0.6377696E-002  0.3000000E+03  0.7818608E-02  0.1093470E+00
         21   -1    0    0  501  502  0.00000000000E+00  0.00000000000E+00  0.98373318429E+00  0.98373318429E+00  0.00000000000E+00 0. -1.
         13   -1    0    0    0    0 -0.00000000000E+00 -0.00000000000E+00 -0.10000000000E+04  0.10000000000E+04  0.00000000000E+00 0.  1.
    9000005    2    1    2  501    0  0.46427543324E+01 -0.30919727465E+02 -0.51137939140E+03  0.51234551633E+03  0.33854735427E+01 0.  0.
         13    1    3    3    0    0  0.95722477434E+00 -0.12862233708E+02 -0.18873829149E+03  0.18917847660E+03  0.00000000000E+00 0.  1.
          1    1    3    3  501    0  0.36855295580E+01 -0.18057493757E+02 -0.32264109992E+03  0.32316703972E+03  0.00000000000E+00 0.  1.
         -3    1    1    2    0  502 -0.46427543324E+01  0.30919727465E+02 -0.48763687541E+03  0.48863821686E+03  0.00000000000E+00 0. -1.
<mgrwt>
<rscale>  1 0.30000000E+03</rscale>
<asrwt>0</asrwt>
<pdfrwt beam="1">  1       21 0.35772191E-02 0.30000000E+03</pdfrwt>
<pdfrwt beam="2">0</pdfrwt>
<totfact> 0.50727415E+04</totfact>
</mgrwt>
</event>
<event>
 6    1  0.6377696E-002  0.3000000E+03  0.7818608E-02  0.1093470E+00
         21   -1    0    0  501  502  0.00000000000E+00  0.00000000000E+00  0.45201071402E+01  0.45201071402E+01  0.00000000000E+00 0. -1.
         13   -1    0    0    0    0 -0.00000000000E+00 -0.00000000000E+00 -0.10000000000E+04  0.10000000000E+04  0.00000000000E+00 0.  1.
    9000005    2    1    2  501    0  0.63147516787E+02 -0.15756484206E+02 -0.37326923964E+03  0.37891482211E+03  0.32621291078E+01 0.  0.
         13    1    3    3    0    0  0.40695061443E+02 -0.96280155930E+01 -0.23109380508E+03  0.23484704268E+03  0.00000000000E+00 0.  1.
          3    1    3    3  501    0  0.22452455344E+02 -0.61284686134E+01 -0.14217543456E+03  0.14406777944E+03  0.00000000000E+00 0.  1.
         -1    1    1    2    0  502 -0.63147516787E+02  0.15756484206E+02 -0.62221065322E+03  0.62560528503E+03  0.00000000000E+00 0. -1.
<mgrwt>
<rscale>  1 0.30000000E+03</rscale>
<asrwt>0</asrwt>
<pdfrwt beam="1">  1       21 0.16436788E-01 0.30000000E+03</pdfrwt>
<pdfrwt beam="2">0</pdfrwt>
<totfact> 0.34736488E+03</totfact>
</mgrwt>
</event>
<event>
 6    1  0.6377696E-002  0.3000000E+03  0.7818608E-02  0.1093470E+00
         21   -1    0    0  501  502  0.00000000000E+00  0.00000000000E+00  0.26222843411E+01  0.26222843411E+01  0.00000000000E+00 0. -1.
         13   -1    0    0    0    0 -0.00000000000E+00 -0.00000000000E+00 -0.10000000000E+04  0.10000000000E+04  0.00000000000E+00 0.  1.
    9000005    2    1    2  501    0  0.23697914552E+00 -0.40349319438E+02 -0.80699634449E+03  0.80801192946E+03  0.34719437472E+01 0.  0.
         13    1    3    3    0    0  0.10718244738E+01 -0.35924699633E+02 -0.70293071551E+03  0.70384893525E+03  0.00000000000E+00 0.  1.
          3    1    3    3  501    0 -0.83484532824E+00 -0.44246198054E+01 -0.10406562898E+03  0.10416299421E+03  0.00000000000E+00 0.  1.
         -3    1    1    2    0  502 -0.23697914552E+00  0.40349319438E+02 -0.19038137117E+03  0.19461035488E+03  0.00000000000E+00 0. -1.
<mgrwt>
<rscale>  1 0.30000000E+03</rscale>
<asrwt>0</asrwt>
<pdfrwt beam="1">  1       21 0.95355995E-02 0.30000000E+03</pdfrwt>
<pdfrwt beam="2">0</pdfrwt>
<totfact> 0.93651041E+03</totfact>
</mgrwt>
</event>
<event>
 6    1  0.6377696E-002  0.3000000E+03  0.7818608E-02  0.1093470E+00
         21   -1    0    0  501  502  0.00000000000E+00  0.00000000000E+00  0.18098620619E+01  0.18098620619E+01  0.00000000000E+00 0. -1.
         13   -1    0    0    0    0 -0.00000000000E+00 -0.00000000000E+00 -0.10000000000E+04  0.10000000000E+04  0.00000000000E+00 0.  1.
    9000005    2    1    2  501    0 -0.60050776205E+01  0.39852971329E+02 -0.34044727814E+03  0.34283339064E+03  0.24625716954E+01 0.  0.
         13    1    3    3    0    0 -0.61664144814E+01  0.37864089502E+02 -0.32579040087E+03  0.32804130721E+03  0.00000000000E+00 0.  1.
          1    1    3    3  501    0  0.16133686086E+00  0.19888818264E+01 -0.14656877279E+02  0.14792083425E+02  0.00000000000E+00 0.  1.
         -1    1    1    2    0  502  0.60050776205E+01 -0.39852971329E+02 -0.65774285979E+03  0.65897647142E+03  0.00000000000E+00 0. -1.
<mgrwt>
<rscale>  1 0.30000000E+03</rscale>
<asrwt>0</asrwt>
<pdfrwt beam="1">  1       21 0.65813305E-02 0.30000000E+03</pdfrwt>
<pdfrwt beam="2">0</pdfrwt>
<totfact> 0.17959057E+04</totfact>
</mgrwt>
</event>
<event>
 6    1  0.6377696E-002  0.3000000E+03  0.7818608E-02  0.1093470E+00
         21   -1    0    0  501  502  0.00000000000E+00  0.00000000000E+00  0.13045051038E+01  0.13045051038E+01  0.00000000000E+00 0. -1.
         13   -1    0    0    0    0 -0.00000000000E+00 -0.00000000000E+00 -0.10000000000E+04  0.10000000000E+04  0.00000000000E+00 0.  1.
    9000005    2    1    2  501    0  0.18918955844E+02  0.25687312513E+02 -0.26812832280E+03  0.27004110669E+03  0.34112901800E+01 0.  0.
         13    1    3    3    0    0  0.16025714025E+02  0.20130408652E+02 -0.22315735000E+03  0.22463583802E+03  0.00000000000E+00 0.  1.
          3    1    3    3  501    0  0.28932418195E+01  0.55569038607E+01 -0.44970972795E+02  0.45405268669E+02  0.00000000000E+00 0.  1.
         -3    1    1    2    0  502 -0.18918955844E+02 -0.25687312513E+02 -0.73056717210E+03  0.73126339842E+03  0.00000000000E+00 0. -1.
<mgrwt>
<rscale>  1 0.30000000E+03</rscale>
<asrwt>0</asrwt>
<pdfrwt beam="1">  1       21 0.47436649E-02 0.30000000E+03</pdfrwt>
<pdfrwt beam="2">0</pdfrwt>
<totfact> 0.31504983E+04</totfact>
</mgrwt>
</event>
<event>
 6    1  0.6377696E-002  0.3000000E+03  0.7818608E-02  0.1093470E+00
         21   -1    0    0  501  502  0.00000000000E+00  0.00000000000E+00  0.47964247794E+01  0.47964247794E+01  0.00000000000E+00 0. -1.
         13   -1    0    0    0    0 -0.00000000000E+00 -0.00000000000E+00 -0.10000000000E+04  0.10000000000E+04  0.00000000000E+00 0.  1.
    9000005    2    1    2  501    0  0.55810550784E+02  0.27306558416E+02 -0.71861972745E+03  0.72131963462E+03  0.52188980387E+01 0.  0.
         13    1    3    3    0    0  0.60637816750E+01  0.46914256790E+01 -0.80398756199E+02  0.80763475169E+02  0.00000000000E+00 0.  1.
          3    1    3    3  501    0  0.49746769109E+02  0.22615132738E+02 -0.63822097125E+03  0.64055615945E+03  0.00000000000E+00 0.  1.
         -1    1    1    2    0  502 -0.55810550784E+02 -0.27306558416E+02 -0.27658384777E+03  0.28347679016E+03  0.00000000000E+00 0. -1.
<mgrwt>
<rscale>  1 0.30000000E+03</rscale>
<asrwt>0</asrwt>
<pdfrwt beam="1">  1       21 0.17441581E-01 0.30000000E+03</pdfrwt>
<pdfrwt beam="2">0</pdfrwt>
<totfact> 0.31083999E+03</totfact>
</mgrwt>
</event>
<event>
 6    1  0.6377696E-002  0.3000000E+03  0.7818608E-02  0.1093470E+00
         21   -1    0    0  501  502  0.00000000000E+00  0.00000000000E+00  0.21162230272E+01  0.21162230272E+01  0.00000000000E+00 0. -1.
         13   -1    0    0    0    0 -0.00000000000E+00 -0.00000000000E+00 -0.10000000000E+04  0.10000000000E+04  0.00000000000E+00 0.  1.
    9000005    2    1    2  501    0 -0.36809019699E+02 -0.25571022604E+02 -0.39021775514E+03  0.39279957693E+03  0.35819096816E+01 0.  0.
         13    1    3    3    0    0 -0.24585044517E+02 -0.16750847214E+02 -0.27319402271E+03  0.27480900520E+03  0.00000000000E+00 0.  1.
          1    1    3    3  501    0 -0.12223975183E+02 -0.88201753899E+01 -0.11702373243E+03  0.11799057172E+03  0.00000000000E+00 0.  1.
         -1    1    1    2    0  502  0.36809019699E+02  0.25571022604E+02 -0.60766602183E+03  0.60931664610E+03  0.00000000000E+00 0. -1.
<mgrwt>
<rscale>  1 0.30000000E+03</rscale>
<asrwt>0</asrwt>
<pdfrwt beam="1">  1       21 0.76953727E-02 0.30000000E+03</pdfrwt>
<pdfrwt beam="2">0</pdfrwt>
<totfact> 0.13674330E+04</totfact>
</mgrwt>
</event>
<event>
 6    1  0.6377696E-002  0.3000000E+03  0.7818608E-02  0.1093470E+00
         21   -1    0    0  501  502  0.00000000000E+00  0.00000000000E+00  0.20589140449E+01  0.20589140449E+01  0.00000000000E+00 0. -1.
         13   -1    0    0    0    0 -0.00000000000E+00 -0.00000000000E+00 -0.10000000000E+04  0.10000000000E+04  0.00000000000E+00 0.  1.
    9000005    2    1    2  501    0  0.39538296079E+02  0.31284617300E+01 -0.74168935057E+03  0.74275597149E+03  0.32056677641E+01 0.  0.
         13    1    3    3    0    0  0.51811935382E+01  0.27827570031E+00 -0.78671263516E+02  0.78842183550E+02  0.00000000000E+00 0.  1.
          3    1    3    3  501    0  0.34357102541E+02  0.28501860297E+01 -0.66301808705E+03  0.66391378794E+03  0.00000000000E+00 0.  1.
         -3    1    1    2    0  502 -0.39538296079E+02 -0.31284617300E+01 -0.25625173539E+03  0.25930294256E+03  0.00000000000E+00 0. -1.
<mgrwt>
<rscale>  1 0.30000000E+03</rscale>
<asrwt>0</asrwt>
<pdfrwt beam="1">  1       21 0.74869760E-02 0.30000000E+03</pdfrwt>
<pdfrwt beam="2">0</pdfrwt>
<totfact> 0.14348058E+04</totfact>
</mgrwt>
</event>
<event>
 6    1  0.6377696E-002  0.3000000E+03  0.7818608E-02  0.1093470E+00
         21   -1    0    0  501  502  0.00000000000E+00  0.00000000000E+00  0.16239666396E+01  0.16239666396E+01  0.00000000000E+00 0. -1.
         13   -1    0    0    0    0 -0.00000000000E+00 -0.00000000000E+00 -0.10000000000E+04  0.10000000000E+04  0.00000000000E+00 0.  1.
    9000005    2    1    2  501    0 -0.35076549838E+02 -0.16019183466E+02 -0.35777903262E+03  0.35986739601E+03  0.34246082558E+01 0.  0.
         13    1    3    3    0    0 -0.59541819859E+01 -0.19495774166E+01 -0.48927912933E+02  0.49327414277E+02  0.00000000000E+00 0.  1.
          1    1    3    3  501    0 -0.29122367852E+02 -0.14069606049E+02 -0.30885111968E+03  0.31053998173E+03  0.00000000000E+00 0.  1.
         -1    1    1    2    0  502  0.35076549838E+02  0.16019183466E+02 -0.64059700074E+03  0.64175657063E+03  0.00000000000E+00 0. -1.
<mgrwt>
<rscale>  1 0.30000000E+03</rscale>
<asrwt>0</asrwt>
<pdfrwt beam="1">  1       21 0.59053457E-02 0.30000000E+03</pdfrwt>
<pdfrwt beam="2">0</pdfrwt>
<totfact> 0.21657357E+04</totfact>
</mgrwt>
</event>
<event>
 6    1  0.6377696E-002  0.3000000E+03  0.7818608E-02  0.1093470E+00
         21   -1    0    0  501  502  0.00000000000E+00  0.00000000000E+00  0.10372417253E+01  0.10372417253E+01  0.00000000000E+00 0. -1.
         13   -1    0    0    0    0 -0.00000000000E+00 -0.00000000000E+00 -0.10000000000E+04  0.10000000000E+04  0.00000000000E+00 0.  1.
    9000005    2    1    2  501    0 -0.28696312789E+02 -0.12658712271E+02 -0.39178056406E+03  0.39304551618E+03  0.30076648073E+01 0.  0.
         13    1    3    3    0    0 -0.24341059877E+02 -0.10523295527E+02 -0.31661030598E+03  0.31771892106E+03  0.00000000000E+00 0.  1.
          3    1    3    3  501    0 -0.43552529122E+01 -0.21354167440E+01 -0.75170258079E+02  0.75326595120E+02  0.00000000000E+00 0.  1.
         -1    1    1    2    0  502  0.28696312789E+02  0.12658712271E+02 -0.60718219421E+03  0.60799172554E+03  0.00000000000E+00 0. -1.
<mgrwt>
<rscale>  1 0.30000000E+03</rscale>
<asrwt>0</asrwt>
<pdfrwt beam="1">  1       21 0.37717960E-02 0.30000000E+03</pdfrwt>
<pdfrwt beam="2">0</pdfrwt>
<totfact> 0.46413316E+04</totfact>
</mgrwt>
</event>
<event>
 6    1  0.6377696E-002  0.3000000E+03  0.7818608E-02  0.1093470E+00
         21   -1    0    0  501  502  0.00000000000E+00  0.00000000000E+00  0.19327764878E+01  0.19327764878E+01  0.00000000000E+00 0. -1.
         13   -1    0    0    0    0 -0.00000000000E+00 -0.00000000000E+00 -0.10000000000E+04  0.10000000000E+04  0.00000000000E+00 0.  1.
    9000005    2    1    2  501    0 -0.40805394926E+02 -0.33291798913E+01 -0.68045900323E+03  0.68169669906E+03  0.31258186407E+01 0.  0.
         13    1    3    3    0    0 -0.13682753139E+02 -0.18731882348E+01 -0.20873743770E+03  0.20919379643E+03  0.00000000000E+00 0.  1.
          1    1    3    3  501    0 -0.27122641787E+02 -0.14559916565E+01 -0.47172156553E+03  0.47250290263E+03  0.00000000000E+00 0.  1.
         -3    1    1    2    0  502  0.40805394926E+02  0.33291798913E+01 -0.31760822029E+03  0.32023607743E+03  0.00000000000E+00 0. -1.
<mgrwt>
<rscale>  1 0.30000000E+03</rscale>
<asrwt>0</asrwt>
<pdfrwt beam="1">  1       21 0.70282930E-02 0.30000000E+03</pdfrwt>
<pdfrwt beam="2">0</pdfrwt>
<totfact> 0.16022396E+04</totfact>
</mgrwt>
</event>
<event>
 6    1  0.6377696E-002  0.3000000E+03  0.7818608E-02  0.1093470E+00
         21   -1    0    0  501  502  0.00000000000E+00  0.00000000000E+00  0.96702441083E+00  0.96702441083E+00  0.00000000000E+00 0. -1.
         13   -1    0    0    0    0 -0.00000000000E+00 -0.00000000000E+00 -0.10000000000E+04  0.10000000000E+04  0.00000000000E+00 0.  1.
    9000005    2    1    2  501    0 -0.18547445825E+02 -0.24557397883E+02 -0.56165799252E+03  0.56251069893E+03  0.33929801403E+01 0.  0.
         13    1    3    3    0    0 -0.45386336150E+01 -0.80714065504E+01 -0.15188506667E+03  0.15216708014E+03  0.00000000000E+00 0.  1.
          3    1    3    3  501    0 -0.14008812210E+02 -0.16485991333E+02 -0.40977292584E+03  0.41034361879E+03  0.00000000000E+00 0.  1.
         -3    1    1    2    0  502  0.18547445825E+02  0.24557397883E+02 -0.43737498307E+03  0.43845632548E+03  0.00000000000E+00 0. -1.
<mgrwt>
<rscale>  1 0.30000000E+03</rscale>
<asrwt>0</asrwt>
<pdfrwt beam="1">  1       21 0.35164598E-02 0.30000000E+03</pdfrwt>
<pdfrwt beam="2">0</pdfrwt>
<totfact> 0.52204986E+04</totfact>
</mgrwt>
</event>
<event>
 6    1  0.6377696E-002  0.3000000E+03  0.7818608E-02  0.1093470E+00
         21   -1    0    0  501  502  0.00000000000E+00  0.00000000000E+00  0.14669731818E+01  0.14669731818E+01  0.00000000000E+00 0. -1.
         13   -1    0    0    0    0 -0.00000000000E+00 -0.00000000000E+00 -0.10000000000E+04  0.10000000000E+04  0.00000000000E+00 0.  1.
    9000005    2    1    2  501    0 -0.30045734095E+02 -0.23412336504E+02 -0.54373112871E+03  0.54507279031E+03  0.31500426064E+01 0.  0.
         13    1    3    3    0    0 -0.22952332975E+02 -0.18856982380E+02 -0.43796789832E+03  0.43897411692E+03  0.00000000000E+00 0.  1.
          3    1    3    3  501    0 -0.70934011203E+01 -0.45553541245E+01 -0.10576323039E+03  0.10609867338E+03  0.00000000000E+00 0.  1.
         -3    1    1    2    0  502  0.30045734095E+02  0.23412336504E+02 -0.45480189811E+03  0.45639418288E+03  0.00000000000E+00 0. -1.
<mgrwt>
<rscale>  1 0.30000000E+03</rscale>
<asrwt>0</asrwt>
<pdfrwt beam="1">  1       21 0.53344592E-02 0.30000000E+03</pdfrwt>
<pdfrwt beam="2">0</pdfrwt>
<totfact> 0.25789363E+04</totfact>
</mgrwt>
</event>
<event>
 6    1  0.6377696E-002  0.3000000E+03  0.7818608E-02  0.1093470E+00
         21   -1    0    0  501  502  0.00000000000E+00  0.00000000000E+00  0.13578118057E+01  0.13578118057E+01  0.00000000000E+00 0. -1.
         13   -1    0    0    0    0 -0.00000000000E+00 -0.00000000000E+00 -0.10000000000E+04  0.10000000000E+04  0.00000000000E+00 0.  1.
    9000005    2    1    2  501    0 -0.31918632985E+02 -0.10174844206E+02 -0.70553959711E+03  0.70634687051E+03  0.41775348119E+01 0.  0.
         13    1    3    3    0    0 -0.26740024731E+02 -0.94817706950E+01 -0.56810542238E+03  0.56881341742E+03  0.00000000000E+00 0.  1.
          3    1    3    3  501    0 -0.51786082540E+01 -0.69307351082E+00 -0.13743417473E+03  0.13753345309E+03  0.00000000000E+00 0.  1.
         -1    1    1    2    0  502  0.31918632985E+02  0.10174844206E+02 -0.29310259108E+03  0.29501094130E+03  0.00000000000E+00 0. -1.
<mgrwt>
<rscale>  1 0.30000000E+03</rscale>
<asrwt>0</asrwt>
<pdfrwt beam="1">  1       21 0.49375079E-02 0.30000000E+03</pdfrwt>
<pdfrwt beam="2">0</pdfrwt>
<totfact> 0.29428722E+04</totfact>
</mgrwt>
</event>
<event>
 6    1  0.6377696E-002  0.3000000E+03  0.7818608E-02  0.1093470E+00
         21   -1    0    0  501  502  0.00000000000E+00  0.00000000000E+00  0.12154768215E+01  0.12154768215E+01  0.00000000000E+00 0. -1.
         13   -1    0    0    0    0 -0.00000000000E+00 -0.00000000000E+00 -0.10000000000E+04  0.10000000000E+04  0.00000000000E+00 0.  1.
    9000005    2    1    2  501    0  0.34424268221E+02 -0.19000150914E+01 -0.56577728866E+03  0.56683786984E+03  0.35482423380E+01 0.  0.
         13    1    3    3    0    0  0.22724333062E+02 -0.29189965444E+01 -0.37783892596E+03  0.37853291775E+03  0.00000000000E+00 0.  1.
          1    1    3    3  501    0  0.11699935159E+02  0.10189814531E+01 -0.18793836270E+03  0.18830495209E+03  0.00000000000E+00 0.  1.
         -1    1    1    2    0  502 -0.34424268221E+02  0.19000150914E+01 -0.43300723452E+03  0.43437760698E+03  0.00000000000E+00 0. -1.
<mgrwt>
<rscale>  1 0.30000000E+03</rscale>
<asrwt>0</asrwt>
<pdfrwt beam="1">  1       21 0.44199250E-02 0.30000000E+03</pdfrwt>
<pdfrwt beam="2">0</pdfrwt>
<totfact> 0.35523431E+04</totfact>
</mgrwt>
</event>
<event>
 6    1  0.6377696E-002  0.3000000E+03  0.7818608E-02  0.1093470E+00
         21   -1    0    0  501  502  0.00000000000E+00  0.00000000000E+00  0.14033399074E+01  0.14033399074E+01  0.00000000000E+00 0. -1.
         13   -1    0    0    0    0 -0.00000000000E+00 -0.00000000000E+00 -0.10000000000E+04  0.10000000000E+04  0.00000000000E+00 0.  1.
    9000005    2    1    2  501    0  0.32279754198E+02  0.53464626653E+01 -0.74239038325E+03  0.74311624482E+03  0.27757849595E+01 0.  0.
         13    1    3    3    0    0  0.23571005176E+02  0.33903668529E+01 -0.56452214453E+03  0.56502419288E+03  0.00000000000E+00 0.  1.
          1    1    3    3  501    0  0.87087490218E+01  0.19560958124E+01 -0.17786823872E+03  0.17809205194E+03  0.00000000000E+00 0.  1.
         -1    1    1    2    0  502 -0.32279754198E+02 -0.53464626653E+01 -0.25620627685E+03  0.25828709509E+03  0.00000000000E+00 0. -1.
<mgrwt>
<rscale>  1 0.30000000E+03</rscale>
<asrwt>0</asrwt>
<pdfrwt beam="1">  1       21 0.51030650E-02 0.30000000E+03</pdfrwt>
<pdfrwt beam="2">0</pdfrwt>
<totfact> 0.27819487E+04</totfact>
</mgrwt>
</event>
<event>
 6    1  0.6377696E-002  0.3000000E+03  0.7818608E-02  0.1093470E+00
         21   -1    0    0  501  502  0.00000000000E+00  0.00000000000E+00  0.44333371396E+01  0.44333371396E+01  0.00000000000E+00 0. -1.
         13   -1    0    0    0    0 -0.00000000000E+00 -0.00000000000E+00 -0.10000000000E+04  0.10000000000E+04  0.00000000000E+00 0.  1.
    9000005    2    1    2  501    0 -0.61636382399E+02  0.24927216402E+02 -0.51922499919E+03  0.52347409739E+03  0.31813678028E+01 0.  0.
         13    1    3    3    0    0 -0.59422096841E+02  0.24218803529E+02 -0.50498560275E+03  0.50904616197E+03  0.00000000000E+00 0.  1.
          3    1    3    3  501    0 -0.22142855578E+01  0.70841287320E+00 -0.14239396443E+02  0.14427935416E+02  0.00000000000E+00 0.  1.
         -3    1    1    2    0  502  0.61636382399E+02 -0.24927216402E+02 -0.47634166367E+03  0.48095923975E+03  0.00000000000E+00 0. -1.
<mgrwt>
<rscale>  1 0.30000000E+03</rscale>
<asrwt>0</asrwt>
<pdfrwt beam="1">  1       21 0.16121260E-01 0.30000000E+03</pdfrwt>
<pdfrwt beam="2">0</pdfrwt>
<totfact> 0.36016072E+03</totfact>
</mgrwt>
</event>
<event>
 6    1  0.6377696E-002  0.3000000E+03  0.7818608E-02  0.1093470E+00
         21   -1    0    0  501  502  0.00000000000E+00  0.00000000000E+00  0.35972425089E+01  0.35972425089E+01  0.00000000000E+00 0. -1.
         13   -1    0    0    0    0 -0.00000000000E+00 -0.00000000000E+00 -0.10000000000E+04  0.10000000000E+04  0.00000000000E+00 0.  1.
    9000005    2    1    2  501    0 -0.44497391212E+02  0.19716928257E+01 -0.16281057425E+03  0.16881593381E+03  0.27624305000E+01 0.  0.
         13    1    3    3    0    0 -0.17826597514E+02  0.19276242652E+01 -0.62684499497E+02  0.65198541329E+02  0.00000000000E+00 0.  1.
          1    1    3    3  501    0 -0.26670793698E+02  0.44068560430E-01 -0.10012607476E+03  0.10361739248E+03  0.00000000000E+00 0.  1.
         -1    1    1    2    0  502  0.44497391212E+02 -0.19716928257E+01 -0.83359218324E+03  0.83478130870E+03  0.00000000000E+00 0. -1.
<mgrwt>
<rscale>  1 0.30000000E+03</rscale>
<asrwt>0</asrwt>
<pdfrwt beam="1">  1       21 0.13080909E-01 0.30000000E+03</pdfrwt>
<pdfrwt beam="2">0</pdfrwt>
<totfact> 0.52961622E+03</totfact>
</mgrwt>
</event>
<event>
 6    1  0.6377696E-002  0.3000000E+03  0.7818608E-02  0.1093470E+00
         21   -1    0    0  501  502  0.00000000000E+00  0.00000000000E+00  0.19670208331E+01  0.19670208331E+01  0.00000000000E+00 0. -1.
         13   -1    0    0    0    0 -0.00000000000E+00 -0.00000000000E+00 -0.10000000000E+04  0.10000000000E+04  0.00000000000E+00 0.  1.
    9000005    2    1    2  501    0 -0.73738112580E+01  0.31931249502E+02 -0.16318770388E+03  0.16647877349E+03  0.33132365425E+01 0.  0.
         13    1    3    3    0    0 -0.47653647001E+01  0.20696097598E+02 -0.11351033727E+03  0.11548001483E+03  0.00000000000E+00 0.  1.
          3    1    3    3  501    0 -0.26084465579E+01  0.11235151904E+02 -0.49677366609E+02  0.50998758661E+02  0.00000000000E+00 0.  1.
         -1    1    1    2    0  502  0.73738112580E+01 -0.31931249502E+02 -0.83484527529E+03  0.83548824735E+03  0.00000000000E+00 0. -1.
<mgrwt>
<rscale>  1 0.30000000E+03</rscale>
<asrwt>0</asrwt>
<pdfrwt beam="1">  1       21 0.71528181E-02 0.30000000E+03</pdfrwt>
<pdfrwt beam="2">0</pdfrwt>
<totfact> 0.15539577E+04</totfact>
</mgrwt>
</event>
<event>
 6    1  0.6377696E-002  0.3000000E+03  0.7818608E-02  0.1093470E+00
         21   -1    0    0  501  502  0.00000000000E+00  0.00000000000E+00  0.19991704718E+01  0.19991704718E+01  0.00000000000E+00 0. -1.
         13   -1    0    0    0    0 -0.00000000000E+00 -0.00000000000E+00 -0.10000000000E+04  0.10000000000E+04  0.00000000000E+00 0.  1.
    9000005    2    1    2  501    0  0.18183123856E+02  0.40770472303E+02 -0.49027288354E+03  0.49231247794E+03  0.33493577698E+01 0.  0.
         13    1    3    3    0    0  0.91026219055E+00  0.87826602911E+00 -0.11133695346E+02  0.11205315727E+02  0.00000000000E+00 0.  1.
          1    1    3    3  501    0  0.17272861666E+02  0.39892206274E+02 -0.47913918819E+03  0.48110716221E+03  0.00000000000E+00 0.  1.
         -3    1    1    2    0  502 -0.18183123856E+02 -0.40770472303E+02 -0.50772794599E+03  0.50968669253E+03  0.00000000000E+00 0. -1.
<mgrwt>
<rscale>  1 0.30000000E+03</rscale>
<asrwt>0</asrwt>
<pdfrwt beam="1">  1       21 0.72697261E-02 0.30000000E+03</pdfrwt>
<pdfrwt beam="2">0</pdfrwt>
<totfact> 0.15106171E+04</totfact>
</mgrwt>
</event>
<event>
 6    1  0.6377696E-002  0.3000000E+03  0.7818608E-02  0.1093470E+00
         21   -1    0    0  501  502  0.00000000000E+00  0.00000000000E+00  0.24796069940E+01  0.24796069940E+01  0.00000000000E+00 0. -1.
         13   -1    0    0    0    0 -0.00000000000E+00 -0.00000000000E+00 -0.10000000000E+04  0.10000000000E+04  0.00000000000E+00 0.  1.
    9000005    2    1    2  501    0  0.23465416283E+02 -0.36525966648E+02 -0.74363363511E+03  0.74490775714E+03  0.34367693305E+01 0.  0.
         13    1    3    3    0    0  0.15422105081E+02 -0.23878382191E+02 -0.51411598929E+03  0.51490122248E+03  0.00000000000E+00 0.  1.
          3    1    3    3  501    0  0.80433112015E+01 -0.12647584457E+02 -0.22951764581E+03  0.23000653466E+03  0.00000000000E+00 0.  1.
         -3    1    1    2    0  502 -0.23465416283E+02  0.36525966648E+02 -0.25388675790E+03  0.25757184985E+03  0.00000000000E+00 0. -1.
<mgrwt>
<rscale>  1 0.30000000E+03</rscale>
<asrwt>0</asrwt>
<pdfrwt beam="1">  1       21 0.90167717E-02 0.30000000E+03</pdfrwt>
<pdfrwt beam="2">0</pdfrwt>
<totfact> 0.10343911E+04</totfact>
</mgrwt>
</event>
<event>
 6    1  0.6377696E-002  0.3000000E+03  0.7818608E-02  0.1093470E+00
         21   -1    0    0  501  502  0.00000000000E+00  0.00000000000E+00  0.24501764660E+01  0.24501764660E+01  0.00000000000E+00 0. -1.
         13   -1    0    0    0    0 -0.00000000000E+00 -0.00000000000E+00 -0.10000000000E+04  0.10000000000E+04  0.00000000000E+00 0.  1.
    9000005    2    1    2  501    0  0.38902064644E+02  0.30460538094E+02 -0.48213314849E+03  0.48467072155E+03  0.34814429862E+01 0.  0.
         13    1    3    3    0    0  0.22891648366E+02  0.17439579660E+02 -0.26421439132E+03  0.26577699502E+03  0.00000000000E+00 0.  1.
          3    1    3    3  501    0  0.16010416278E+02  0.13020958434E+02 -0.21791875717E+03  0.21889372653E+03  0.00000000000E+00 0.  1.
         -1    1    1    2    0  502 -0.38902064644E+02 -0.30460538094E+02 -0.51541667504E+03  0.51777945491E+03  0.00000000000E+00 0. -1.
<mgrwt>
<rscale>  1 0.30000000E+03</rscale>
<asrwt>0</asrwt>
<pdfrwt beam="1">  1       21 0.89097514E-02 0.30000000E+03</pdfrwt>
<pdfrwt beam="2">0</pdfrwt>
<totfact> 0.10564971E+04</totfact>
</mgrwt>
</event>
<event>
 6    1  0.6377696E-002  0.3000000E+03  0.7818608E-02  0.1093470E+00
         21   -1    0    0  501  502  0.00000000000E+00  0.00000000000E+00  0.25555513219E+01  0.25555513219E+01  0.00000000000E+00 0. -1.
         13   -1    0    0    0    0 -0.00000000000E+00 -0.00000000000E+00 -0.10000000000E+04  0.10000000000E+04  0.00000000000E+00 0.  1.
    9000005    2    1    2  501    0  0.31979319812E+02 -0.88661409405E+01 -0.12173100147E+03  0.12621353648E+03  0.31835077944E+01 0.  0.
         13    1    3    3    0    0  0.26410694243E+02 -0.68794059126E+01 -0.10407240213E+03  0.10759143033E+03  0.00000000000E+00 0.  1.
          1    1    3    3  501    0  0.55686255684E+01 -0.19867350278E+01 -0.17658599342E+02  0.18622106151E+02  0.00000000000E+00 0.  1.
         -3    1    1    2    0  502 -0.31979319812E+02  0.88661409405E+01 -0.87571344721E+03  0.87634201484E+03  0.00000000000E+00 0. -1.
<mgrwt>
<rscale>  1 0.30000000E+03</rscale>
<asrwt>0</asrwt>
<pdfrwt beam="1">  1       21 0.92929335E-02 0.30000000E+03</pdfrwt>
<pdfrwt beam="2">0</pdfrwt>
<totfact> 0.98047275E+03</totfact>
</mgrwt>
</event>
<event>
 6    1  0.6377696E-002  0.3000000E+03  0.7818608E-02  0.1093470E+00
         21   -1    0    0  501  502  0.00000000000E+00  0.00000000000E+00  0.94144217246E+00  0.94144217246E+00  0.00000000000E+00 0. -1.
         13   -1    0    0    0    0 -0.00000000000E+00 -0.00000000000E+00 -0.10000000000E+04  0.10000000000E+04  0.00000000000E+00 0.  1.
    9000005    2    1    2  501    0  0.11965933206E+02 -0.27784642673E+02 -0.57804350199E+03  0.57884092433E+03  0.27121123864E+01 0.  0.
         13    1    3    3    0    0  0.68718522799E+01 -0.13742286508E+02 -0.31280251350E+03  0.31317963733E+03  0.00000000000E+00 0.  1.
          1    1    3    3  501    0  0.50940809256E+01 -0.14042356165E+02 -0.26524098850E+03  0.26566128699E+03  0.00000000000E+00 0.  1.
         -1    1    1    2    0  502 -0.11965933206E+02  0.27784642673E+02 -0.42101505583E+03  0.42210051784E+03  0.00000000000E+00 0. -1.
<mgrwt>
<rscale>  1 0.30000000E+03</rscale>
<asrwt>0</asrwt>
<pdfrwt beam="1">  1       21 0.34234333E-02 0.30000000E+03</pdfrwt>
<pdfrwt beam="2">0</pdfrwt>
<totfact> 0.54600559E+04</totfact>
</mgrwt>
</event>
<event>
 6    1  0.6377696E-002  0.3000000E+03  0.7818608E-02  0.1093470E+00
         21   -1    0    0  501  502  0.00000000000E+00  0.00000000000E+00  0.12034646343E+01  0.12034646343E+01  0.00000000000E+00 0. -1.
         13   -1    0    0    0    0 -0.00000000000E+00 -0.00000000000E+00 -0.10000000000E+04  0.10000000000E+04  0.00000000000E+00 0.  1.
    9000005    2    1    2  501    0 -0.28392982101E+02  0.10812373404E+02 -0.73291963751E+03  0.73359630168E+03  0.83228564340E+01 0.  0.
         13    1    3    3    0    0 -0.86295491655E+01  0.75475419209E+01 -0.27349489694E+03  0.27373507842E+03  0.00000000000E+00 0.  1.
          1    1    3    3  501    0 -0.19763432936E+02  0.32648314826E+01 -0.45942474057E+03  0.45986122326E+03  0.00000000000E+00 0.  1.
         -3    1    1    2    0  502  0.28392982101E+02 -0.10812373404E+02 -0.26587689786E+03  0.26760716296E+03  0.00000000000E+00 0. -1.
<mgrwt>
<rscale>  1 0.30000000E+03</rscale>
<asrwt>0</asrwt>
<pdfrwt beam="1">  1       21 0.43762443E-02 0.30000000E+03</pdfrwt>
<pdfrwt beam="2">0</pdfrwt>
<totfact> 0.36126121E+04</totfact>
</mgrwt>
</event>
<event>
 6    1  0.6377696E-002  0.3000000E+03  0.7818608E-02  0.1093470E+00
         21   -1    0    0  501  502  0.00000000000E+00  0.00000000000E+00  0.12012213233E+01  0.12012213233E+01  0.00000000000E+00 0. -1.
         13   -1    0    0    0    0 -0.00000000000E+00 -0.00000000000E+00 -0.10000000000E+04  0.10000000000E+04  0.00000000000E+00 0.  1.
    9000005    2    1    2  501    0 -0.83390664580E+01  0.31049408340E+02 -0.32589799087E+03  0.32753284889E+03  0.58873474909E+01 0.  0.
         13    1    3    3    0    0 -0.13757139220E+01  0.16168742592E+02 -0.16870310463E+03  0.16948173452E+03  0.00000000000E+00 0.  1.
          3    1    3    3  501    0 -0.69633525360E+01  0.14880665748E+02 -0.15719488624E+03  0.15805111437E+03  0.00000000000E+00 0.  1.
         -3    1    1    2    0  502  0.83390664580E+01 -0.31049408340E+02 -0.67290078781E+03  0.67366837244E+03  0.00000000000E+00 0. -1.
<mgrwt>
<rscale>  1 0.30000000E+03</rscale>
<asrwt>0</asrwt>
<pdfrwt beam="1">  1       21 0.43680868E-02 0.30000000E+03</pdfrwt>
<pdfrwt beam="2">0</pdfrwt>
<totfact> 0.36240428E+04</totfact>
</mgrwt>
</event>
<event>
 6    1  0.6377696E-002  0.3000000E+03  0.7818608E-02  0.1093470E+00
         21   -1    0    0  501  502  0.00000000000E+00  0.00000000000E+00  0.17404670421E+01  0.17404670421E+01  0.00000000000E+00 0. -1.
         13   -1    0    0    0    0 -0.00000000000E+00 -0.00000000000E+00 -0.10000000000E+04  0.10000000000E+04  0.00000000000E+00 0.  1.
    9000005    2    1    2  501    0 -0.12725843284E+02  0.30514913875E+02 -0.80355401894E+03  0.80424782352E+03  0.47321482685E+01 0.  0.
         13    1    3    3    0    0 -0.54777775467E+01  0.16909480362E+02 -0.38518898048E+03  0.38559886833E+03  0.00000000000E+00 0.  1.
          3    1    3    3  501    0 -0.72480657377E+01  0.13605433513E+02 -0.41836503846E+03  0.41864895519E+03  0.00000000000E+00 0.  1.
         -1    1    1    2    0  502  0.12725843284E+02 -0.30514913875E+02 -0.19470551402E+03  0.19749264352E+03  0.00000000000E+00 0. -1.
<mgrwt>
<rscale>  1 0.30000000E+03</rscale>
<asrwt>0</asrwt>
<pdfrwt beam="1">  1       21 0.63289844E-02 0.30000000E+03</pdfrwt>
<pdfrwt beam="2">0</pdfrwt>
<totfact> 0.19216329E+04</totfact>
</mgrwt>
</event>
<event>
 6    1  0.6377696E-002  0.3000000E+03  0.7818608E-02  0.1093470E+00
         21   -1    0    0  501  502  0.00000000000E+00  0.00000000000E+00  0.11289602005E+01  0.11289602005E+01  0.00000000000E+00 0. -1.
         13   -1    0    0    0    0 -0.00000000000E+00 -0.00000000000E+00 -0.10000000000E+04  0.10000000000E+04  0.00000000000E+00 0.  1.
    9000005    2    1    2  501    0  0.25226967034E+02  0.21079861187E+02 -0.40460916052E+03  0.40595844549E+03  0.35953131102E+01 0.  0.
         13    1    3    3    0    0  0.19250438567E+02  0.17907437212E+02 -0.31713139858E+03  0.31821938919E+03  0.00000000000E+00 0.  1.
          1    1    3    3  501    0  0.59765284669E+01  0.31724239751E+01 -0.87477761943E+02  0.87739056303E+02  0.00000000000E+00 0.  1.
         -1    1    1    2    0  502 -0.25226967034E+02 -0.21079861187E+02 -0.59426187928E+03  0.59517051471E+03  0.00000000000E+00 0. -1.
<mgrwt>
<rscale>  1 0.30000000E+03</rscale>
<asrwt>0</asrwt>
<pdfrwt beam="1">  1       21 0.41053185E-02 0.30000000E+03</pdfrwt>
<pdfrwt beam="2">0</pdfrwt>
<totfact> 0.40245561E+04</totfact>
</mgrwt>
</event>
<event>
 6    1  0.6377696E-002  0.3000000E+03  0.7818608E-02  0.1093470E+00
         21   -1    0    0  501  502  0.00000000000E+00  0.00000000000E+00  0.10820438374E+01  0.10820438374E+01  0.00000000000E+00 0. -1.
         13   -1    0    0    0    0 -0.00000000000E+00 -0.00000000000E+00 -0.10000000000E+04  0.10000000000E+04  0.00000000000E+00 0.  1.
    9000005    2    1    2  501    0  0.65237988003E+01 -0.31937203917E+02 -0.44276973322E+03  0.44397936854E+03  0.31777485642E+01 0.  0.
         13    1    3    3    0    0  0.24155035407E+01 -0.67770008663E+01 -0.10936429079E+03  0.10960068658E+03  0.00000000000E+00 0.  1.
          3    1    3    3  501    0  0.41082952596E+01 -0.25160203050E+02 -0.33340544243E+03  0.33437868196E+03  0.00000000000E+00 0.  1.
         -1    1    1    2    0  502 -0.65237988003E+01  0.31937203917E+02 -0.55614822294E+03  0.55710267530E+03  0.00000000000E+00 0. -1.
<mgrwt>
<rscale>  1 0.30000000E+03</rscale>
<asrwt>0</asrwt>
<pdfrwt beam="1">  1       21 0.39347132E-02 0.30000000E+03</pdfrwt>
<pdfrwt beam="2">0</pdfrwt>
<totfact> 0.43228395E+04</totfact>
</mgrwt>
</event>
<event>
 6    1  0.6377696E-002  0.3000000E+03  0.7818608E-02  0.1093470E+00
         21   -1    0    0  501  502  0.00000000000E+00  0.00000000000E+00  0.22762831477E+01  0.22762831477E+01  0.00000000000E+00 0. -1.
         13   -1    0    0    0    0 -0.00000000000E+00 -0.00000000000E+00 -0.10000000000E+04  0.10000000000E+04  0.00000000000E+00 0.  1.
    9000005    2    1    2  501    0 -0.45038026575E+02  0.15909974419E+00 -0.66314665516E+03  0.66468146778E+03  0.30851602396E+01 0.  0.
         13    1    3    3    0    0 -0.21977473161E+02 -0.10629781391E+01 -0.33885903633E+03  0.33957265166E+03  0.00000000000E+00 0.  1.
          3    1    3    3  501    0 -0.23060553414E+02  0.12220778833E+01 -0.32428761883E+03  0.32510881612E+03  0.00000000000E+00 0.  1.
         -3    1    1    2    0  502  0.45038026575E+02 -0.15909974419E+00 -0.33457706169E+03  0.33759481537E+03  0.00000000000E+00 0. -1.
<mgrwt>
<rscale>  1 0.30000000E+03</rscale>
<asrwt>0</asrwt>
<pdfrwt beam="1">  1       21 0.82774107E-02 0.30000000E+03</pdfrwt>
<pdfrwt beam="2">0</pdfrwt>
<totfact> 0.12030742E+04</totfact>
</mgrwt>
</event>
<event>
 6    1  0.6377696E-002  0.3000000E+03  0.7818608E-02  0.1093470E+00
         21   -1    0    0  501  502  0.00000000000E+00  0.00000000000E+00  0.15227630644E+01  0.15227630644E+01  0.00000000000E+00 0. -1.
         13   -1    0    0    0    0 -0.00000000000E+00 -0.00000000000E+00 -0.10000000000E+04  0.10000000000E+04  0.00000000000E+00 0.  1.
    9000005    2    1    2  501    0  0.11119827977E+02  0.36986426880E+02 -0.52837326403E+03  0.52983495138E+03  0.74245011487E+01 0.  0.
         13    1    3    3    0    0  0.10331030238E+02  0.36489452279E+02 -0.52359385299E+03  0.52496545905E+03  0.00000000000E+00 0.  1.
          1    1    3    3  501    0  0.78879773856E+00  0.49697460020E+00 -0.47794110443E+01  0.48694923305E+01  0.00000000000E+00 0.  1.
         -1    1    1    2    0  502 -0.11119827977E+02 -0.36986426880E+02 -0.47010397290E+03  0.47168781168E+03  0.00000000000E+00 0. -1.
<mgrwt>
<rscale>  1 0.30000000E+03</rscale>
<asrwt>0</asrwt>
<pdfrwt beam="1">  1       21 0.55373319E-02 0.30000000E+03</pdfrwt>
<pdfrwt beam="2">0</pdfrwt>
<totfact> 0.24191837E+04</totfact>
</mgrwt>
</event>
<event>
 6    1  0.6377696E-002  0.3000000E+03  0.7818608E-02  0.1093470E+00
         21   -1    0    0  501  502  0.00000000000E+00  0.00000000000E+00  0.26603780586E+01  0.26603780586E+01  0.00000000000E+00 0. -1.
         13   -1    0    0    0    0 -0.00000000000E+00 -0.00000000000E+00 -0.10000000000E+04  0.10000000000E+04  0.00000000000E+00 0.  1.
    9000005    2    1    2  501    0  0.15079859776E+02 -0.31221969787E+02 -0.12840467146E+03  0.13303392852E+03  0.28377661326E+01 0.  0.
         13    1    3    3    0    0  0.14597578599E+02 -0.28896958448E+02 -0.11789684742E+03  0.12226115549E+03  0.00000000000E+00 0.  1.
          1    1    3    3  501    0  0.48228117662E+00 -0.23250113389E+01 -0.10507824038E+02  0.10772773036E+02  0.00000000000E+00 0.  1.
         -3    1    1    2    0  502 -0.15079859776E+02  0.31221969787E+02 -0.86893495048E+03  0.86962644954E+03  0.00000000000E+00 0. -1.
<mgrwt>
<rscale>  1 0.30000000E+03</rscale>
<asrwt>0</asrwt>
<pdfrwt beam="1">  1       21 0.96741224E-02 0.30000000E+03</pdfrwt>
<pdfrwt beam="2">0</pdfrwt>
<totfact> 0.91273648E+03</totfact>
</mgrwt>
</event>
<event>
 6    1  0.6377696E-002  0.3000000E+03  0.7818608E-02  0.1093470E+00
         21   -1    0    0  501  502  0.00000000000E+00  0.00000000000E+00  0.19314027859E+01  0.19314027859E+01  0.00000000000E+00 0. -1.
         13   -1    0    0    0    0 -0.00000000000E+00 -0.00000000000E+00 -0.10000000000E+04  0.10000000000E+04  0.00000000000E+00 0.  1.
    9000005    2    1    2  501    0 -0.10540837582E+01 -0.34059344358E+02 -0.19910579492E+03  0.20224226976E+03  0.98827160308E+01 0.  0.
         13    1    3    3    0    0 -0.15640680648E+01 -0.32414782825E+01 -0.41170439433E+02  0.41327455444E+02  0.00000000000E+00 0.  1.
          3    1    3    3  501    0  0.50998430660E+00 -0.30817866075E+02 -0.15793535548E+03  0.16091481431E+03  0.00000000000E+00 0.  1.
         -1    1    1    2    0  502  0.10540837582E+01  0.34059344358E+02 -0.79896280230E+03  0.79968913303E+03  0.00000000000E+00 0. -1.
<mgrwt>
<rscale>  1 0.30000000E+03</rscale>
<asrwt>0</asrwt>
<pdfrwt beam="1">  1       21 0.70232977E-02 0.30000000E+03</pdfrwt>
<pdfrwt beam="2">0</pdfrwt>
<totfact> 0.16042239E+04</totfact>
</mgrwt>
</event>
<event>
 6    1  0.6377696E-002  0.3000000E+03  0.7818608E-02  0.1093470E+00
         21   -1    0    0  501  502  0.00000000000E+00  0.00000000000E+00  0.19169608493E+01  0.19169608493E+01  0.00000000000E+00 0. -1.
         13   -1    0    0    0    0 -0.00000000000E+00 -0.00000000000E+00 -0.10000000000E+04  0.10000000000E+04  0.00000000000E+00 0.  1.
    9000005    2    1    2  501    0 -0.11012967139E+02 -0.32394030283E+02 -0.18825279515E+03  0.19136425884E+03  0.32413014084E+01 0.  0.
         13    1    3    3    0    0 -0.22491515587E+01 -0.72440430461E+01 -0.49611393302E+02  0.50187898818E+02  0.00000000000E+00 0.  1.
          1    1    3    3  501    0 -0.87638155798E+01 -0.25149987237E+02 -0.13864140185E+03  0.14117636002E+03  0.00000000000E+00 0.  1.
         -1    1    1    2    0  502  0.11012967139E+02  0.32394030283E+02 -0.80983024400E+03  0.81055270201E+03  0.00000000000E+00 0. -1.
<mgrwt>
<rscale>  1 0.30000000E+03</rscale>
<asrwt>0</asrwt>
<pdfrwt beam="1">  1       21 0.69707814E-02 0.30000000E+03</pdfrwt>
<pdfrwt beam="2">0</pdfrwt>
<totfact> 0.16253152E+04</totfact>
</mgrwt>
</event>
<event>
 6    1  0.6377696E-002  0.3000000E+03  0.7818608E-02  0.1093470E+00
         21   -1    0    0  501  502  0.00000000000E+00  0.00000000000E+00  0.10935089577E+01  0.10935089577E+01  0.00000000000E+00 0. -1.
         13   -1    0    0    0    0 -0.00000000000E+00 -0.00000000000E+00 -0.10000000000E+04  0.10000000000E+04  0.00000000000E+00 0.  1.
    9000005    2    1    2  501    0 -0.26293584665E+02  0.16607196502E+02 -0.33318193714E+03  0.33464296073E+03  0.29251250856E+01 0.  0.
         13    1    3    3    0    0 -0.20847053413E+01  0.19612861866E+01 -0.24367743755E+02  0.24535272071E+02  0.00000000000E+00 0.  1.
          3    1    3    3  501    0 -0.24208879323E+02  0.14645910315E+02 -0.30881419339E+03  0.31010768866E+03  0.00000000000E+00 0.  1.
         -1    1    1    2    0  502  0.26293584665E+02 -0.16607196502E+02 -0.66572455390E+03  0.66645054823E+03  0.00000000000E+00 0. -1.
<mgrwt>
<rscale>  1 0.30000000E+03</rscale>
<asrwt>0</asrwt>
<pdfrwt beam="1">  1       21 0.39764046E-02 0.30000000E+03</pdfrwt>
<pdfrwt beam="2">0</pdfrwt>
<totfact> 0.42468283E+04</totfact>
</mgrwt>
</event>
<event>
 6    1  0.6377696E-002  0.3000000E+03  0.7818608E-02  0.1093470E+00
         21   -1    0    0  501  502  0.00000000000E+00  0.00000000000E+00  0.11829342076E+01  0.11829342076E+01  0.00000000000E+00 0. -1.
         13   -1    0    0    0    0 -0.00000000000E+00 -0.00000000000E+00 -0.10000000000E+04  0.10000000000E+04  0.00000000000E+00 0.  1.
    9000005    2    1    2  501    0  0.30223619890E+02  0.85851977522E+01 -0.29944422200E+03  0.30110469040E+03  0.31653864625E+01 0.  0.
         13    1    3    3    0    0  0.16910890056E+01 -0.24918073870E+00 -0.16038642216E+02  0.16129473556E+02  0.00000000000E+00 0.  1.
          3    1    3    3  501    0  0.28532530884E+02  0.88343784909E+01 -0.28340557978E+03  0.28497521684E+03  0.00000000000E+00 0.  1.
         -3    1    1    2    0  502 -0.30223619890E+02 -0.85851977522E+01 -0.69937284379E+03  0.70007824381E+03  0.00000000000E+00 0. -1.
<mgrwt>
<rscale>  1 0.30000000E+03</rscale>
<asrwt>0</asrwt>
<pdfrwt beam="1">  1       21 0.43015880E-02 0.30000000E+03</pdfrwt>
<pdfrwt beam="2">0</pdfrwt>
<totfact> 0.37193511E+04</totfact>
</mgrwt>
</event>
<event>
 6    1  0.6377696E-002  0.3000000E+03  0.7818608E-02  0.1093470E+00
         21   -1    0    0  501  502  0.00000000000E+00  0.00000000000E+00  0.48853979209E+01  0.48853979209E+01  0.00000000000E+00 0. -1.
         13   -1    0    0    0    0 -0.00000000000E+00 -0.00000000000E+00 -0.10000000000E+04  0.10000000000E+04  0.00000000000E+00 0.  1.
    9000005    2    1    2  501    0 -0.35035033731E+02 -0.25788758292E+02 -0.89077563971E+03  0.89184057181E+03  0.24190034739E+01 0.  0.
         13    1    3    3    0    0 -0.19212833774E+02 -0.12788933009E+02 -0.46135091416E+03  0.46192786860E+03  0.00000000000E+00 0.  1.
          1    1    3    3  501    0 -0.15822199957E+02 -0.12999825283E+02 -0.42942472555E+03  0.42991270321E+03  0.00000000000E+00 0.  1.
         -3    1    1    2    0  502  0.35035033731E+02  0.25788758292E+02 -0.10433896237E+03  0.11304482611E+03  0.00000000000E+00 0. -1.
<mgrwt>
<rscale>  1 0.30000000E+03</rscale>
<asrwt>0</asrwt>
<pdfrwt beam="1">  1       21 0.17765121E-01 0.30000000E+03</pdfrwt>
<pdfrwt beam="2">0</pdfrwt>
<totfact> 0.30028762E+03</totfact>
</mgrwt>
</event>
<event>
 6    1  0.6377696E-002  0.3000000E+03  0.7818608E-02  0.1093470E+00
         21   -1    0    0  501  502  0.00000000000E+00  0.00000000000E+00  0.28971495597E+01  0.28971495597E+01  0.00000000000E+00 0. -1.
         13   -1    0    0    0    0 -0.00000000000E+00 -0.00000000000E+00 -0.10000000000E+04  0.10000000000E+04  0.00000000000E+00 0.  1.
    9000005    2    1    2  501    0  0.39892645475E+02  0.34290430216E+02 -0.60312705409E+03  0.60542490540E+03  0.31330394636E+01 0.  0.
         13    1    3    3    0    0  0.30160021770E+02  0.26418445260E+02 -0.47383345508E+03  0.47552676509E+03  0.00000000000E+00 0.  1.
          3    1    3    3  501    0  0.97326237047E+01  0.78719849553E+01 -0.12929359901E+03  0.12989814031E+03  0.00000000000E+00 0.  1.
         -1    1    1    2    0  502 -0.39892645475E+02 -0.34290430216E+02 -0.39397579635E+03  0.39747224416E+03  0.00000000000E+00 0. -1.
<mgrwt>
<rscale>  1 0.30000000E+03</rscale>
<asrwt>0</asrwt>
<pdfrwt beam="1">  1       21 0.10535112E-01 0.30000000E+03</pdfrwt>
<pdfrwt beam="2">0</pdfrwt>
<totfact> 0.78368250E+03</totfact>
</mgrwt>
</event>
<event>
 6    1  0.6377696E-002  0.3000000E+03  0.7818608E-02  0.1093470E+00
         21   -1    0    0  501  502  0.00000000000E+00  0.00000000000E+00  0.93557704720E+00  0.93557704720E+00  0.00000000000E+00 0. -1.
         13   -1    0    0    0    0 -0.00000000000E+00 -0.00000000000E+00 -0.10000000000E+04  0.10000000000E+04  0.00000000000E+00 0.  1.
    9000005    2    1    2  501    0 -0.35519407671E+01  0.29801195157E+02 -0.58460078648E+03  0.58538674300E+03  0.43395640827E+01 0.  0.
         13    1    3    3    0    0 -0.89737413908E+00  0.93843858499E+00 -0.32015915737E+02  0.32042234750E+02  0.00000000000E+00 0.  1.
          1    1    3    3  501    0 -0.26545666281E+01  0.28862756572E+02 -0.55258487074E+03  0.55334450825E+03  0.00000000000E+00 0.  1.
         -1    1    1    2    0  502  0.35519407671E+01 -0.29801195157E+02 -0.41446363648E+03  0.41554883405E+03  0.00000000000E+00 0. -1.
<mgrwt>
<rscale>  1 0.30000000E+03</rscale>
<asrwt>0</asrwt>
<pdfrwt beam="1">  1       21 0.34021055E-02 0.30000000E+03</pdfrwt>
<pdfrwt beam="2">0</pdfrwt>
<totfact> 0.55173909E+04</totfact>
</mgrwt>
</event>
<event>
 6    1  0.6377696E-002  0.3000000E+03  0.7818608E-02  0.1093470E+00
         21   -1    0    0  501  502  0.00000000000E+00  0.00000000000E+00  0.93736204517E+00  0.93736204517E+00  0.00000000000E+00 0. -1.
         13   -1    0    0    0    0 -0.00000000000E+00 -0.00000000000E+00 -0.10000000000E+04  0.10000000000E+04  0.00000000000E+00 0.  1.
    9000005    2    1    2  501    0 -0.25589152637E+02  0.16427653232E+02 -0.54669664080E+03  0.54755047659E+03  0.31040015308E+01 0.  0.
         13    1    3    3    0    0 -0.24311302608E+02  0.16308435403E+02 -0.52101954465E+03  0.52184132685E+03  0.00000000000E+00 0.  1.
          3    1    3    3  501    0 -0.12778500288E+01  0.11921782861E+00 -0.25677096150E+02  0.25709149739E+02  0.00000000000E+00 0.  1.
         -1    1    1    2    0  502  0.25589152637E+02 -0.16427653232E+02 -0.45236599715E+03  0.45338688546E+03  0.00000000000E+00 0. -1.
<mgrwt>
<rscale>  1 0.30000000E+03</rscale>
<asrwt>0</asrwt>
<pdfrwt beam="1">  1       21 0.34085964E-02 0.30000000E+03</pdfrwt>
<pdfrwt beam="2">0</pdfrwt>
<totfact> 0.54998426E+04</totfact>
</mgrwt>
</event>
<event>
 6    1  0.6377696E-002  0.3000000E+03  0.7818608E-02  0.1093470E+00
         21   -1    0    0  501  502  0.00000000000E+00  0.00000000000E+00  0.33634761927E+01  0.33634761927E+01  0.00000000000E+00 0. -1.
         13   -1    0    0    0    0 -0.00000000000E+00 -0.00000000000E+00 -0.10000000000E+04  0.10000000000E+04  0.00000000000E+00 0.  1.
    9000005    2    1    2  501    0  0.52695851105E+02 -0.21919032899E+02 -0.58410206298E+03  0.58689981860E+03  0.43451543297E+01 0.  0.
         13    1    3    3    0    0  0.27244208052E+02 -0.13529519548E+02 -0.31836107581E+03  0.31981099006E+03  0.00000000000E+00 0.  1.
          1    1    3    3  501    0  0.25451643053E+02 -0.83895133512E+01 -0.26574098717E+03  0.26708882854E+03  0.00000000000E+00 0.  1.
         -1    1    1    2    0  502 -0.52695851105E+02  0.21919032899E+02 -0.41253446083E+03  0.41646365760E+03  0.00000000000E+00 0. -1.
<mgrwt>
<rscale>  1 0.30000000E+03</rscale>
<asrwt>0</asrwt>
<pdfrwt beam="1">  1       21 0.12230848E-01 0.30000000E+03</pdfrwt>
<pdfrwt beam="2">0</pdfrwt>
<totfact> 0.59862352E+03</totfact>
</mgrwt>
</event>
<event>
 6    1  0.6377696E-002  0.3000000E+03  0.7818608E-02  0.1093470E+00
         21   -1    0    0  501  502  0.00000000000E+00  0.00000000000E+00  0.17395811115E+02  0.17395811115E+02  0.00000000000E+00 0. -1.
         13   -1    0    0    0    0 -0.00000000000E+00 -0.00000000000E+00 -0.10000000000E+04  0.10000000000E+04  0.00000000000E+00 0.  1.
    9000005    2    1    2  501    0 -0.11040455750E+03 -0.60834503476E+02 -0.64073741295E+03  0.65302938069E+03  0.35967433687E+01 0.  0.
         13    1    3    3    0    0 -0.24130008158E+02 -0.14823191142E+02 -0.14040497627E+03  0.14323247414E+03  0.00000000000E+00 0.  1.
          3    1    3    3  501    0 -0.86274549347E+02 -0.46011312333E+02 -0.50033243669E+03  0.50979690655E+03  0.00000000000E+00 0.  1.
         -3    1    1    2    0  502  0.11040455750E+03  0.60834503476E+02 -0.34186677593E+03  0.36436643042E+03  0.00000000000E+00 0. -1.
<mgrwt>
<rscale>  1 0.30000000E+03</rscale>
<asrwt>0</asrwt>
<pdfrwt beam="1">  1       21 0.63257628E-01 0.30000000E+03</pdfrwt>
<pdfrwt beam="2">0</pdfrwt>
<totfact> 0.22281904E+02</totfact>
</mgrwt>
</event>
<event>
 6    1  0.6377696E-002  0.3000000E+03  0.7818608E-02  0.1093470E+00
         21   -1    0    0  501  502  0.00000000000E+00  0.00000000000E+00  0.13139414501E+01  0.13139414501E+01  0.00000000000E+00 0. -1.
         13   -1    0    0    0    0 -0.00000000000E+00 -0.00000000000E+00 -0.10000000000E+04  0.10000000000E+04  0.00000000000E+00 0.  1.
    9000005    2    1    2  501    0  0.13141998128E+02 -0.31955031745E+02 -0.64843358646E+03  0.64936134468E+03  0.31943302623E+01 0.  0.
         13    1    3    3    0    0  0.12921500329E+02 -0.31233872271E+02 -0.64072351384E+03  0.64161448015E+03  0.00000000000E+00 0.  1.
          1    1    3    3  501    0  0.22049779989E+00 -0.72115947348E+00 -0.77100726241E+01  0.77468645357E+01  0.00000000000E+00 0.  1.
         -3    1    1    2    0  502 -0.13141998128E+02  0.31955031745E+02 -0.35025247209E+03  0.35195259677E+03  0.00000000000E+00 0. -1.
<mgrwt>
<rscale>  1 0.30000000E+03</rscale>
<asrwt>0</asrwt>
<pdfrwt beam="1">  1       21 0.47779790E-02 0.30000000E+03</pdfrwt>
<pdfrwt beam="2">0</pdfrwt>
<totfact> 0.31121074E+04</totfact>
</mgrwt>
</event>
<event>
 6    1  0.6377696E-002  0.3000000E+03  0.7818608E-02  0.1093470E+00
         21   -1    0    0  501  502  0.00000000000E+00  0.00000000000E+00  0.21816373386E+01  0.21816373386E+01  0.00000000000E+00 0. -1.
         13   -1    0    0    0    0 -0.00000000000E+00 -0.00000000000E+00 -0.10000000000E+04  0.10000000000E+04  0.00000000000E+00 0.  1.
    9000005    2    1    2  501    0 -0.29305697458E+02 -0.36025015303E+02 -0.45071088367E+03  0.45310676157E+03  0.29683482805E+01 0.  0.
         13    1    3    3    0    0 -0.37618219488E+01 -0.57663813177E+01 -0.59604235326E+02  0.60000561053E+02  0.00000000000E+00 0.  1.
          1    1    3    3  501    0 -0.25543875509E+02 -0.30258633985E+02 -0.39110664834E+03  0.39310620051E+03  0.00000000000E+00 0.  1.
         -3    1    1    2    0  502  0.29305697458E+02  0.36025015303E+02 -0.54710747900E+03  0.54907487577E+03  0.00000000000E+00 0. -1.
<mgrwt>
<rscale>  1 0.30000000E+03</rscale>
<asrwt>0</asrwt>
<pdfrwt beam="1">  1       21 0.79332434E-02 0.30000000E+03</pdfrwt>
<pdfrwt beam="2">0</pdfrwt>
<totfact> 0.12963225E+04</totfact>
</mgrwt>
</event>
<event>
 6    1  0.6377696E-002  0.3000000E+03  0.7818608E-02  0.1093470E+00
         21   -1    0    0  501  502  0.00000000000E+00  0.00000000000E+00  0.17344962054E+01  0.17344962054E+01  0.00000000000E+00 0. -1.
         13   -1    0    0    0    0 -0.00000000000E+00 -0.00000000000E+00 -0.10000000000E+04  0.10000000000E+04  0.00000000000E+00 0.  1.
    9000005    2    1    2  501    0  0.29763440143E+02 -0.18375357216E+02 -0.77038666783E+03  0.77118671373E+03  0.31326262787E+01 0.  0.
         13    1    3    3    0    0  0.24488324601E+02 -0.13963747986E+02 -0.60189582258E+03  0.60255559540E+03  0.00000000000E+00 0.  1.
          3    1    3    3  501    0  0.52751155420E+01 -0.44116092296E+01 -0.16849084525E+03  0.16863111834E+03  0.00000000000E+00 0.  1.
         -3    1    1    2    0  502 -0.29763440143E+02  0.18375357216E+02 -0.22787883597E+03  0.23054778247E+03  0.00000000000E+00 0. -1.
<mgrwt>
<rscale>  1 0.30000000E+03</rscale>
<asrwt>0</asrwt>
<pdfrwt beam="1">  1       21 0.63072722E-02 0.30000000E+03</pdfrwt>
<pdfrwt beam="2">0</pdfrwt>
<totfact> 0.19330826E+04</totfact>
</mgrwt>
</event>
<event>
 6    1  0.6377696E-002  0.3000000E+03  0.7818608E-02  0.1093470E+00
         21   -1    0    0  501  502  0.00000000000E+00  0.00000000000E+00  0.12181724026E+01  0.12181724026E+01  0.00000000000E+00 0. -1.
         13   -1    0    0    0    0 -0.00000000000E+00 -0.00000000000E+00 -0.10000000000E+04  0.10000000000E+04  0.00000000000E+00 0.  1.
    9000005    2    1    2  501    0 -0.27253759583E+02  0.17781040189E+02 -0.32267793513E+03  0.32433161897E+03  0.33191031111E+01 0.  0.
         13    1    3    3    0    0 -0.29209896313E+01  0.27502402520E+01 -0.32177165775E+02  0.32426316460E+02  0.00000000000E+00 0.  1.
          1    1    3    3  501    0 -0.24332769952E+02  0.15030799938E+02 -0.29050076935E+03  0.29190530251E+03  0.00000000000E+00 0.  1.
         -1    1    1    2    0  502  0.27253759583E+02 -0.17781040189E+02 -0.67610389247E+03  0.67688655343E+03  0.00000000000E+00 0. -1.
<mgrwt>
<rscale>  1 0.30000000E+03</rscale>
<asrwt>0</asrwt>
<pdfrwt beam="1">  1       21 0.44297272E-02 0.30000000E+03</pdfrwt>
<pdfrwt beam="2">0</pdfrwt>
<totfact> 0.35390320E+04</totfact>
</mgrwt>
</event>
<event>
 6    1  0.6377696E-002  0.3000000E+03  0.7818608E-02  0.1093470E+00
         21   -1    0    0  501  502  0.00000000000E+00  0.00000000000E+00  0.20501755292E+01  0.20501755292E+01  0.00000000000E+00 0. -1.
         13   -1    0    0    0    0 -0.00000000000E+00 -0.00000000000E+00 -0.10000000000E+04  0.10000000000E+04  0.00000000000E+00 0.  1.
    9000005    2    1    2  501    0  0.17682754099E+02  0.40597884241E+02 -0.59916514490E+03  0.60081447340E+03  0.42769842934E+01 0.  0.
         13    1    3    3    0    0  0.14564774963E+02  0.36746575415E+02 -0.52960348903E+03  0.53107654727E+03  0.00000000000E+00 0.  1.
          1    1    3    3  501    0  0.31179791354E+01  0.38513088257E+01 -0.69561655872E+02  0.69737926132E+02  0.00000000000E+00 0.  1.
         -1    1    1    2    0  502 -0.17682754099E+02 -0.40597884241E+02 -0.39878467957E+03  0.40123570213E+03  0.00000000000E+00 0. -1.
<mgrwt>
<rscale>  1 0.30000000E+03</rscale>
<asrwt>0</asrwt>
<pdfrwt beam="1">  1       21 0.74551995E-02 0.30000000E+03</pdfrwt>
<pdfrwt beam="2">0</pdfrwt>
<totfact> 0.14455288E+04</totfact>
</mgrwt>
</event>
<event>
 6    1  0.6377696E-002  0.3000000E+03  0.7818608E-02  0.1093470E+00
         21   -1    0    0  501  502  0.00000000000E+00  0.00000000000E+00  0.15857155829E+01  0.15857155829E+01  0.00000000000E+00 0. -1.
         13   -1    0    0    0    0 -0.00000000000E+00 -0.00000000000E+00 -0.10000000000E+04  0.10000000000E+04  0.00000000000E+00 0.  1.
    9000005    2    1    2  501    0 -0.36359931905E+02  0.14180980019E+02 -0.52727247520E+03  0.52883022991E+03  0.11045547508E+02 0.  0.
         13    1    3    3    0    0 -0.41738982578E+01  0.46039827417E+01 -0.12685269774E+03  0.12700482277E+03  0.00000000000E+00 0.  1.
          1    1    3    3  501    0 -0.32186033647E+02  0.95769972775E+01 -0.40041977746E+03  0.40182540714E+03  0.00000000000E+00 0.  1.
         -3    1    1    2    0  502  0.36359931905E+02 -0.14180980019E+02 -0.47114180922E+03  0.47275548567E+03  0.00000000000E+00 0. -1.
<mgrwt>
<rscale>  1 0.30000000E+03</rscale>
<asrwt>0</asrwt>
<pdfrwt beam="1">  1       21 0.57662506E-02 0.30000000E+03</pdfrwt>
<pdfrwt beam="2">0</pdfrwt>
<totfact> 0.22565163E+04</totfact>
</mgrwt>
</event>
<event>
 6    1  0.6377696E-002  0.3000000E+03  0.7818608E-02  0.1093470E+00
         21   -1    0    0  501  502  0.00000000000E+00  0.00000000000E+00  0.30756020095E+01  0.30756020095E+01  0.00000000000E+00 0. -1.
         13   -1    0    0    0    0 -0.00000000000E+00 -0.00000000000E+00 -0.10000000000E+04  0.10000000000E+04  0.00000000000E+00 0.  1.
    9000005    2    1    2  501    0  0.46805382676E+01 -0.40884365336E+02 -0.83440303835E+03  0.83542527810E+03  0.36777865260E+01 0.  0.
         13    1    3    3    0    0  0.10212262761E+01 -0.18156747499E+02 -0.39871453136E+03  0.39912903666E+03  0.00000000000E+00 0.  1.
          1    1    3    3  501    0  0.36593119914E+01 -0.22727617837E+02 -0.43568850699E+03  0.43629624145E+03  0.00000000000E+00 0.  1.
         -3    1    1    2    0  502 -0.46805382676E+01  0.40884365336E+02 -0.16252135964E+03  0.16765032391E+03  0.00000000000E+00 0. -1.
<mgrwt>
<rscale>  1 0.30000000E+03</rscale>
<asrwt>0</asrwt>
<pdfrwt beam="1">  1       21 0.11184031E-01 0.30000000E+03</pdfrwt>
<pdfrwt beam="2">0</pdfrwt>
<totfact> 0.70385921E+03</totfact>
</mgrwt>
</event>
<event>
 6    1  0.6377696E-002  0.3000000E+03  0.7818608E-02  0.1093470E+00
         21   -1    0    0  501  502  0.00000000000E+00  0.00000000000E+00  0.11013056148E+01  0.11013056148E+01  0.00000000000E+00 0. -1.
         13   -1    0    0    0    0 -0.00000000000E+00 -0.00000000000E+00 -0.10000000000E+04  0.10000000000E+04  0.00000000000E+00 0.  1.
    9000005    2    1    2  501    0 -0.71347003829E+01  0.30334453778E+02 -0.33525257808E+03  0.33672396500E+03  0.42017211288E+01 0.  0.
         13    1    3    3    0    0 -0.46085215427E+01  0.21939901443E+02 -0.22037642237E+03  0.22151380382E+03  0.00000000000E+00 0.  1.
          3    1    3    3  501    0 -0.25261788401E+01  0.83945523343E+01 -0.11487615570E+03  0.11521016117E+03  0.00000000000E+00 0.  1.
         -3    1    1    2    0  502  0.71347003829E+01 -0.30334453778E+02 -0.66364611631E+03  0.66437734062E+03  0.00000000000E+00 0. -1.
<mgrwt>
<rscale>  1 0.30000000E+03</rscale>
<asrwt>0</asrwt>
<pdfrwt beam="1">  1       21 0.40047561E-02 0.30000000E+03</pdfrwt>
<pdfrwt beam="2">0</pdfrwt>
<totfact> 0.41963261E+04</totfact>
</mgrwt>
</event>
<event>
 6    1  0.6377696E-002  0.3000000E+03  0.7818608E-02  0.1093470E+00
         21   -1    0    0  501  502  0.00000000000E+00  0.00000000000E+00  0.10096868271E+01  0.10096868271E+01  0.00000000000E+00 0. -1.
         13   -1    0    0    0    0 -0.00000000000E+00 -0.00000000000E+00 -0.10000000000E+04  0.10000000000E+04  0.00000000000E+00 0.  1.
    9000005    2    1    2  501    0 -0.17789822226E+02 -0.25815637458E+02 -0.43512354280E+03  0.43627199582E+03  0.42227865997E+01 0.  0.
         13    1    3    3    0    0 -0.10927356147E+02 -0.15865011741E+02 -0.23811675459E+03  0.23889473524E+03  0.00000000000E+00 0.  1.
          3    1    3    3  501    0 -0.68624660789E+01 -0.99506257169E+01 -0.19700678820E+03  0.19737726057E+03  0.00000000000E+00 0.  1.
         -1    1    1    2    0  502  0.17789822226E+02  0.25815637458E+02 -0.56386677038E+03  0.56473769101E+03  0.00000000000E+00 0. -1.
<mgrwt>
<rscale>  1 0.30000000E+03</rscale>
<asrwt>0</asrwt>
<pdfrwt beam="1">  1       21 0.36715962E-02 0.30000000E+03</pdfrwt>
<pdfrwt beam="2">0</pdfrwt>
<totfact> 0.48559414E+04</totfact>
</mgrwt>
</event>
<event>
 6    1  0.6377696E-002  0.3000000E+03  0.7818608E-02  0.1093470E+00
         21   -1    0    0  501  502  0.00000000000E+00  0.00000000000E+00  0.26936586109E+01  0.26936586109E+01  0.00000000000E+00 0. -1.
         13   -1    0    0    0    0 -0.00000000000E+00 -0.00000000000E+00 -0.10000000000E+04  0.10000000000E+04  0.00000000000E+00 0.  1.
    9000005    2    1    2  501    0  0.77593997947E+00 -0.50544211724E+02 -0.38781954569E+03  0.39111416782E+03  0.33125263132E+01 0.  0.
         13    1    3    3    0    0 -0.50334158854E+00 -0.66756600542E+01 -0.44453424205E+02  0.44954696234E+02  0.00000000000E+00 0.  1.
          1    1    3    3  501    0  0.12792815680E+01 -0.43868551670E+02 -0.34336612149E+03  0.34615947159E+03  0.00000000000E+00 0.  1.
         -3    1    1    2    0  502 -0.77593997947E+00  0.50544211724E+02 -0.60948679570E+03  0.61157949079E+03  0.00000000000E+00 0. -1.
<mgrwt>
<rscale>  1 0.30000000E+03</rscale>
<asrwt>0</asrwt>
<pdfrwt beam="1">  1       21 0.97951429E-02 0.30000000E+03</pdfrwt>
<pdfrwt beam="2">0</pdfrwt>
<totfact> 0.89271442E+03</totfact>
</mgrwt>
</event>
<event>
 6    1  0.6377696E-002  0.3000000E+03  0.7818608E-02  0.1093470E+00
         21   -1    0    0  501  502  0.00000000000E+00  0.00000000000E+00  0.20232232517E+01  0.20232232517E+01  0.00000000000E+00 0. -1.
         13   -1    0    0    0    0 -0.00000000000E+00 -0.00000000000E+00 -0.10000000000E+04  0.10000000000E+04  0.00000000000E+00 0.  1.
    9000005    2    1    2  501    0  0.34654690625E+02 -0.22121348621E+02 -0.29735171907E+03  0.30019292105E+03  0.27282531601E+01 0.  0.
         13    1    3    3    0    0  0.86159053216E+01 -0.46244807697E+01 -0.64329630638E+02  0.65068587083E+02  0.00000000000E+00 0.  1.
          3    1    3    3  501    0  0.26038785303E+02 -0.17496867852E+02 -0.23302208844E+03  0.23512433397E+03  0.00000000000E+00 0.  1.
         -3    1    1    2    0  502 -0.34654690625E+02  0.22121348621E+02 -0.70062505767E+03  0.70183030220E+03  0.00000000000E+00 0. -1.
<mgrwt>
<rscale>  1 0.30000000E+03</rscale>
<asrwt>0</asrwt>
<pdfrwt beam="1">  1       21 0.73571910E-02 0.30000000E+03</pdfrwt>
<pdfrwt beam="2">0</pdfrwt>
<totfact> 0.14793812E+04</totfact>
</mgrwt>
</event>
<event>
 6    1  0.6377696E-002  0.3000000E+03  0.7818608E-02  0.1093470E+00
         21   -1    0    0  501  502  0.00000000000E+00  0.00000000000E+00  0.17552845974E+01  0.17552845974E+01  0.00000000000E+00 0. -1.
         13   -1    0    0    0    0 -0.00000000000E+00 -0.00000000000E+00 -0.10000000000E+04  0.10000000000E+04  0.00000000000E+00 0.  1.
    9000005    2    1    2  501    0 -0.69450353631E+01  0.34500510335E+02 -0.22937992131E+03  0.23208549155E+03  0.31635991820E+01 0.  0.
         13    1    3    3    0    0 -0.11449225230E+01  0.13443844798E+02 -0.88484466482E+02  0.89507254561E+02  0.00000000000E+00 0.  1.
          1    1    3    3  501    0 -0.58001128401E+01  0.21056665537E+02 -0.14089545482E+03  0.14257823699E+03  0.00000000000E+00 0.  1.
         -1    1    1    2    0  502  0.69450353631E+01 -0.34500510335E+02 -0.76886479410E+03  0.76966979305E+03  0.00000000000E+00 0. -1.
<mgrwt>
<rscale>  1 0.30000000E+03</rscale>
<asrwt>0</asrwt>
<pdfrwt beam="1">  1       21 0.63828665E-02 0.30000000E+03</pdfrwt>
<pdfrwt beam="2">0</pdfrwt>
<totfact> 0.18936681E+04</totfact>
</mgrwt>
</event>
<event>
 6    1  0.6377696E-002  0.3000000E+03  0.7818608E-02  0.1093470E+00
         21   -1    0    0  501  502  0.00000000000E+00  0.00000000000E+00  0.19743302989E+01  0.19743302989E+01  0.00000000000E+00 0. -1.
         13   -1    0    0    0    0 -0.00000000000E+00 -0.00000000000E+00 -0.10000000000E+04  0.10000000000E+04  0.00000000000E+00 0.  1.
    9000005    2    1    2  501    0  0.23887840024E+02 -0.37191550489E+02 -0.45625480646E+03  0.45840325989E+03  0.33555820463E+01 0.  0.
         13    1    3    3    0    0  0.37183689313E+01 -0.53521913895E+01 -0.80236525272E+02  0.80500759052E+02  0.00000000000E+00 0.  1.
          3    1    3    3  501    0  0.20169471093E+02 -0.31839359099E+02 -0.37601828119E+03  0.37790250084E+03  0.00000000000E+00 0.  1.
         -3    1    1    2    0  502 -0.23887840024E+02  0.37191550489E+02 -0.54177086324E+03  0.54357107041E+03  0.00000000000E+00 0. -1.
<mgrwt>
<rscale>  1 0.30000000E+03</rscale>
<asrwt>0</asrwt>
<pdfrwt beam="1">  1       21 0.71793980E-02 0.30000000E+03</pdfrwt>
<pdfrwt beam="2">0</pdfrwt>
<totfact> 0.15439392E+04</totfact>
</mgrwt>
</event>
<event>
 6    1  0.6377696E-002  0.3000000E+03  0.7818608E-02  0.1093470E+00
         21   -1    0    0  501  502  0.00000000000E+00  0.00000000000E+00  0.91285138522E+00  0.91285138522E+00  0.00000000000E+00 0. -1.
         13   -1    0    0    0    0 -0.00000000000E+00 -0.00000000000E+00 -0.10000000000E+04  0.10000000000E+04  0.00000000000E+00 0.  1.
    9000005    2    1    2  501    0 -0.29259141483E+02 -0.71528005954E+01 -0.49918713959E+03  0.50010622309E+03  0.33427727098E+01 0.  0.
         13    1    3    3    0    0 -0.14331040765E+02 -0.52050527603E+01 -0.25525859151E+03  0.25571355037E+03  0.00000000000E+00 0.  1.
          3    1    3    3  501    0 -0.14928100718E+02 -0.19477478351E+01 -0.24392854808E+03  0.24439267272E+03  0.00000000000E+00 0.  1.
         -3    1    1    2    0  502  0.29259141483E+02  0.71528005954E+01 -0.49990000903E+03  0.50080662829E+03  0.00000000000E+00 0. -1.
<mgrwt>
<rscale>  1 0.30000000E+03</rscale>
<asrwt>0</asrwt>
<pdfrwt beam="1">  1       21 0.33194666E-02 0.30000000E+03</pdfrwt>
<pdfrwt beam="2">0</pdfrwt>
<totfact> 0.57486660E+04</totfact>
</mgrwt>
</event>
<event>
 6    1  0.6377696E-002  0.3000000E+03  0.7818608E-02  0.1093470E+00
         21   -1    0    0  501  502  0.00000000000E+00  0.00000000000E+00  0.10127552480E+01  0.10127552480E+01  0.00000000000E+00 0. -1.
         13   -1    0    0    0    0 -0.00000000000E+00 -0.00000000000E+00 -0.10000000000E+04  0.10000000000E+04  0.00000000000E+00 0.  1.
    9000005    2    1    2  501    0 -0.13589155670E+02 -0.27542558018E+02 -0.58909563668E+03  0.58997213922E+03  0.94972759484E+01 0.  0.
         13    1    3    3    0    0 -0.33470398939E+01 -0.17359041328E+01 -0.40758058133E+02  0.40932082063E+02  0.00000000000E+00 0.  1.
          3    1    3    3  501    0 -0.10242115776E+02 -0.25806653885E+02 -0.54833757855E+03  0.54904005716E+03  0.00000000000E+00 0.  1.
         -1    1    1    2    0  502  0.13589155670E+02  0.27542558018E+02 -0.40989160807E+03  0.41104061602E+03  0.00000000000E+00 0. -1.
<mgrwt>
<rscale>  1 0.30000000E+03</rscale>
<asrwt>0</asrwt>
<pdfrwt beam="1">  1       21 0.36827541E-02 0.30000000E+03</pdfrwt>
<pdfrwt beam="2">0</pdfrwt>
<totfact> 0.48312779E+04</totfact>
</mgrwt>
</event>
<event>
 6    1  0.6377696E-002  0.3000000E+03  0.7818608E-02  0.1093470E+00
         21   -1    0    0  501  502  0.00000000000E+00  0.00000000000E+00  0.11808645132E+01  0.11808645132E+01  0.00000000000E+00 0. -1.
         13   -1    0    0    0    0 -0.00000000000E+00 -0.00000000000E+00 -0.10000000000E+04  0.10000000000E+04  0.00000000000E+00 0.  1.
    9000005    2    1    2  501    0  0.32543000162E+02 -0.10241365844E+02 -0.53818177174E+03  0.53928183516E+03  0.46201592146E+01 0.  0.
         13    1    3    3    0    0  0.92636887637E+01 -0.40714003183E+01 -0.13247518829E+03  0.13286108438E+03  0.00000000000E+00 0.  1.
          3    1    3    3  501    0  0.23279311398E+02 -0.61699655257E+01 -0.40570658345E+03  0.40642075078E+03  0.00000000000E+00 0.  1.
         -1    1    1    2    0  502 -0.32543000162E+02  0.10241365844E+02 -0.46063736375E+03  0.46189902935E+03  0.00000000000E+00 0. -1.
<mgrwt>
<rscale>  1 0.30000000E+03</rscale>
<asrwt>0</asrwt>
<pdfrwt beam="1">  1       21 0.42940618E-02 0.30000000E+03</pdfrwt>
<pdfrwt beam="2">0</pdfrwt>
<totfact> 0.37303822E+04</totfact>
</mgrwt>
</event>
<event>
 6    1  0.6377696E-002  0.3000000E+03  0.7818608E-02  0.1093470E+00
         21   -1    0    0  501  502  0.00000000000E+00  0.00000000000E+00  0.12527136854E+01  0.12527136854E+01  0.00000000000E+00 0. -1.
         13   -1    0    0    0    0 -0.00000000000E+00 -0.00000000000E+00 -0.10000000000E+04  0.10000000000E+04  0.00000000000E+00 0.  1.
    9000005    2    1    2  501    0 -0.96459299397E+01 -0.28563104731E+02 -0.76077702115E+03  0.76138036842E+03  0.30813313649E+01 0.  0.
         13    1    3    3    0    0 -0.95686507002E+01 -0.26165334102E+02 -0.71084591313E+03  0.71139166146E+03  0.00000000000E+00 0.  1.
          3    1    3    3  501    0 -0.77279239549E-01 -0.23977706295E+01 -0.49931108014E+02  0.49988706960E+02  0.00000000000E+00 0.  1.
         -1    1    1    2    0  502  0.96459299397E+01  0.28563104731E+02 -0.23797026517E+03  0.23987234526E+03  0.00000000000E+00 0. -1.
<mgrwt>
<rscale>  1 0.30000000E+03</rscale>
<asrwt>0</asrwt>
<pdfrwt beam="1">  1       21 0.45553321E-02 0.30000000E+03</pdfrwt>
<pdfrwt beam="2">0</pdfrwt>
<totfact> 0.33750613E+04</totfact>
</mgrwt>
</event>
<event>
 6    1  0.6377696E-002  0.3000000E+03  0.7818608E-02  0.1093470E+00
         21   -1    0    0  501  502  0.00000000000E+00  0.00000000000E+00  0.11485141979E+01  0.11485141979E+01  0.00000000000E+00 0. -1.
         13   -1    0    0    0    0 -0.00000000000E+00 -0.00000000000E+00 -0.10000000000E+04  0.10000000000E+04  0.00000000000E+00 0.  1.
    9000005    2    1    2  501    0 -0.15643357715E+02 -0.29946956778E+02 -0.52144096901E+03  0.52254394213E+03  0.31547477755E+01 0.  0.
         13    1    3    3    0    0 -0.97737035174E+01 -0.17242802793E+02 -0.28380346085E+03  0.28449471686E+03  0.00000000000E+00 0.  1.
          1    1    3    3  501    0 -0.58696541979E+01 -0.12704153985E+02 -0.23763750815E+03  0.23804922527E+03  0.00000000000E+00 0.  1.
         -1    1    1    2    0  502  0.15643357715E+02  0.29946956778E+02 -0.47741051680E+03  0.47860457207E+03  0.00000000000E+00 0. -1.
<mgrwt>
<rscale>  1 0.30000000E+03</rscale>
<asrwt>0</asrwt>
<pdfrwt beam="1">  1       21 0.41764241E-02 0.30000000E+03</pdfrwt>
<pdfrwt beam="2">0</pdfrwt>
<totfact> 0.39096266E+04</totfact>
</mgrwt>
</event>
<event>
 6    1  0.6377696E-002  0.3000000E+03  0.7818608E-02  0.1093470E+00
         21   -1    0    0  501  502  0.00000000000E+00  0.00000000000E+00  0.11060904127E+01  0.11060904127E+01  0.00000000000E+00 0. -1.
         13   -1    0    0    0    0 -0.00000000000E+00 -0.00000000000E+00 -0.10000000000E+04  0.10000000000E+04  0.00000000000E+00 0.  1.
    9000005    2    1    2  501    0  0.72082310932E+01  0.30942406438E+02 -0.64434281315E+03  0.64513436247E+03  0.33606050068E+01 0.  0.
         13    1    3    3    0    0  0.14272060720E+00  0.12624881515E-01 -0.10583194195E+01  0.10679740413E+01  0.00000000000E+00 0.  1.
          3    1    3    3  501    0  0.70655104860E+01  0.30929781557E+02 -0.64328449373E+03  0.64406638843E+03  0.00000000000E+00 0.  1.
         -3    1    1    2    0  502 -0.72082310932E+01 -0.30942406438E+02 -0.35455109643E+03  0.35597172794E+03  0.00000000000E+00 0. -1.
<mgrwt>
<rscale>  1 0.30000000E+03</rscale>
<asrwt>0</asrwt>
<pdfrwt beam="1">  1       21 0.40221554E-02 0.30000000E+03</pdfrwt>
<pdfrwt beam="2">0</pdfrwt>
<totfact> 0.41657964E+04</totfact>
</mgrwt>
</event>
<event>
 6    1  0.6377696E-002  0.3000000E+03  0.7818608E-02  0.1093470E+00
         21   -1    0    0  501  502  0.00000000000E+00  0.00000000000E+00  0.90640465915E+01  0.90640465915E+01  0.00000000000E+00 0. -1.
         13   -1    0    0    0    0 -0.00000000000E+00 -0.00000000000E+00 -0.10000000000E+04  0.10000000000E+04  0.00000000000E+00 0.  1.
    9000005    2    1    2  501    0 -0.82607511713E+02 -0.43451020490E+02 -0.59412658166E+03  0.60142490510E+03  0.36782142037E+01 0.  0.
         13    1    3    3    0    0 -0.80894509766E+02 -0.43014268253E+02 -0.58456706247E+03  0.59170330362E+03  0.00000000000E+00 0.  1.
          3    1    3    3  501    0 -0.17130019472E+01 -0.43675223704E+00 -0.95595191867E+01  0.97216014765E+01  0.00000000000E+00 0.  1.
         -3    1    1    2    0  502  0.82607511713E+02  0.43451020490E+02 -0.39680937175E+03  0.40763914150E+03  0.00000000000E+00 0. -1.
<mgrwt>
<rscale>  1 0.30000000E+03</rscale>
<asrwt>0</asrwt>
<pdfrwt beam="1">  1       21 0.32960239E-01 0.30000000E+03</pdfrwt>
<pdfrwt beam="2">0</pdfrwt>
<totfact> 0.89941903E+02</totfact>
</mgrwt>
</event>
<event>
 6    1  0.6377696E-002  0.3000000E+03  0.7818608E-02  0.1093470E+00
         21   -1    0    0  501  502  0.00000000000E+00  0.00000000000E+00  0.13240846856E+01  0.13240846856E+01  0.00000000000E+00 0. -1.
         13   -1    0    0    0    0 -0.00000000000E+00 -0.00000000000E+00 -0.10000000000E+04  0.10000000000E+04  0.00000000000E+00 0.  1.
    9000005    2    1    2  501    0  0.35458788592E+02 -0.77652139585E+01 -0.49499383272E+03  0.49633570407E+03  0.35514027727E+01 0.  0.
         13    1    3    3    0    0  0.20587140544E+02 -0.38708039238E+01 -0.30749493656E+03  0.30820764021E+03  0.00000000000E+00 0.  1.
          3    1    3    3  501    0  0.14871648048E+02 -0.38944100348E+01 -0.18749889617E+03  0.18812806386E+03  0.00000000000E+00 0.  1.
         -1    1    1    2    0  502 -0.35458788592E+02  0.77652139585E+01 -0.50368208259E+03  0.50498838062E+03  0.00000000000E+00 0. -1.
<mgrwt>
<rscale>  1 0.30000000E+03</rscale>
<asrwt>0</asrwt>
<pdfrwt beam="1">  1       21 0.48148636E-02 0.30000000E+03</pdfrwt>
<pdfrwt beam="2">0</pdfrwt>
<totfact> 0.30716506E+04</totfact>
</mgrwt>
</event>
<event>
 6    1  0.6377696E-002  0.3000000E+03  0.7818608E-02  0.1093470E+00
         21   -1    0    0  501  502  0.00000000000E+00  0.00000000000E+00  0.13671633263E+01  0.13671633263E+01  0.00000000000E+00 0. -1.
         13   -1    0    0    0    0 -0.00000000000E+00 -0.00000000000E+00 -0.10000000000E+04  0.10000000000E+04  0.00000000000E+00 0.  1.
    9000005    2    1    2  501    0  0.12558564647E+02 -0.34120951532E+02 -0.41410412023E+03  0.41570874989E+03  0.30960403134E+01 0.  0.
         13    1    3    3    0    0  0.91990837615E+01 -0.27707167910E+02 -0.32227145348E+03  0.32359110004E+03  0.00000000000E+00 0.  1.
          3    1    3    3  501    0  0.33594808851E+01 -0.64137836227E+01 -0.91832666748E+02  0.92117649852E+02  0.00000000000E+00 0.  1.
         -3    1    1    2    0  502 -0.12558564647E+02  0.34120951532E+02 -0.58452871644E+03  0.58565841344E+03  0.00000000000E+00 0. -1.
<mgrwt>
<rscale>  1 0.30000000E+03</rscale>
<asrwt>0</asrwt>
<pdfrwt beam="1">  1       21 0.49715135E-02 0.30000000E+03</pdfrwt>
<pdfrwt beam="2">0</pdfrwt>
<totfact> 0.29086547E+04</totfact>
</mgrwt>
</event>
<event>
 6    1  0.6377696E-002  0.3000000E+03  0.7818608E-02  0.1093470E+00
         21   -1    0    0  501  502  0.00000000000E+00  0.00000000000E+00  0.10218931424E+02  0.10218931424E+02  0.00000000000E+00 0. -1.
         13   -1    0    0    0    0 -0.00000000000E+00 -0.00000000000E+00 -0.10000000000E+04  0.10000000000E+04  0.00000000000E+00 0.  1.
    9000005    2    1    2  501    0  0.12040122213E+02  0.37234906455E+02 -0.30397139560E+02  0.50037216302E+02  0.69522744634E+01 0.  0.
         13    1    3    3    0    0  0.42037641931E+01  0.20162973037E+02 -0.12506623368E+02  0.24096322192E+02  0.00000000000E+00 0.  1.
          3    1    3    3  501    0  0.78363580203E+01  0.17071933417E+02 -0.17890516191E+02  0.25940894110E+02  0.00000000000E+00 0.  1.
         -1    1    1    2    0  502 -0.12040122213E+02 -0.37234906455E+02 -0.95938392902E+03  0.96018171512E+03  0.00000000000E+00 0. -1.
<mgrwt>
<rscale>  1 0.30000000E+03</rscale>
<asrwt>0</asrwt>
<pdfrwt beam="1">  1       21 0.37159829E-01 0.30000000E+03</pdfrwt>
<pdfrwt beam="2">0</pdfrwt>
<totfact> 0.70372076E+02</totfact>
</mgrwt>
</event>
<event>
 6    1  0.6377696E-002  0.3000000E+03  0.7818608E-02  0.1093470E+00
         21   -1    0    0  501  502  0.00000000000E+00  0.00000000000E+00  0.20287095044E+01  0.20287095044E+01  0.00000000000E+00 0. -1.
         13   -1    0    0    0    0 -0.00000000000E+00 -0.00000000000E+00 -0.10000000000E+04  0.10000000000E+04  0.00000000000E+00 0.  1.
    9000005    2    1    2  501    0 -0.35889730089E+02  0.94930075505E+01 -0.78230296470E+03  0.78318854713E+03  0.28603938473E+01 0.  0.
         13    1    3    3    0    0 -0.30983404911E+01  0.53847882287E+00 -0.52105134129E+02  0.52199949002E+02  0.00000000000E+00 0.  1.
          3    1    3    3  501    0 -0.32791389598E+02  0.89545287276E+01 -0.73019783057E+03  0.73098859813E+03  0.00000000000E+00 0.  1.
         -1    1    1    2    0  502  0.35889730089E+02 -0.94930075505E+01 -0.21566832579E+03  0.21884016238E+03  0.00000000000E+00 0. -1.
<mgrwt>
<rscale>  1 0.30000000E+03</rscale>
<asrwt>0</asrwt>
<pdfrwt beam="1">  1       21 0.73771410E-02 0.30000000E+03</pdfrwt>
<pdfrwt beam="2">0</pdfrwt>
<totfact> 0.14723937E+04</totfact>
</mgrwt>
</event>
<event>
 6    1  0.6377696E-002  0.3000000E+03  0.7818608E-02  0.1093470E+00
         21   -1    0    0  501  502  0.00000000000E+00  0.00000000000E+00  0.38484182099E+01  0.38484182099E+01  0.00000000000E+00 0. -1.
         13   -1    0    0    0    0 -0.00000000000E+00 -0.00000000000E+00 -0.10000000000E+04  0.10000000000E+04  0.00000000000E+00 0.  1.
    9000005    2    1    2  501    0 -0.45414661676E+02 -0.41977792349E+02 -0.48081217051E+03  0.48481148757E+03  0.60998874888E+01 0.  0.
         13    1    3    3    0    0 -0.37764699356E+02 -0.36802427469E+02 -0.39516349819E+03  0.39866625326E+03  0.00000000000E+00 0.  1.
          3    1    3    3  501    0 -0.76499623202E+01 -0.51753648792E+01 -0.85648672318E+02  0.86145234314E+02  0.00000000000E+00 0.  1.
         -3    1    1    2    0  502  0.45414661676E+02  0.41977792349E+02 -0.51533941128E+03  0.51903693064E+03  0.00000000000E+00 0. -1.
<mgrwt>
<rscale>  1 0.30000000E+03</rscale>
<asrwt>0</asrwt>
<pdfrwt beam="1">  1       21 0.13994278E-01 0.30000000E+03</pdfrwt>
<pdfrwt beam="2">0</pdfrwt>
<totfact> 0.46801911E+03</totfact>
</mgrwt>
</event>
<event>
 6    1  0.6377696E-002  0.3000000E+03  0.7818608E-02  0.1093470E+00
         21   -1    0    0  501  502  0.00000000000E+00  0.00000000000E+00  0.21621100477E+01  0.21621100477E+01  0.00000000000E+00 0. -1.
         13   -1    0    0    0    0 -0.00000000000E+00 -0.00000000000E+00 -0.10000000000E+04  0.10000000000E+04  0.00000000000E+00 0.  1.
    9000005    2    1    2  501    0  0.54463097299E+01  0.43714939012E+02 -0.65795034379E+03  0.65943160044E+03  0.32745347041E+01 0.  0.
         13    1    3    3    0    0  0.45458117552E+01  0.40619307138E+02 -0.61908000692E+03  0.62042779393E+03  0.00000000000E+00 0.  1.
          1    1    3    3  501    0  0.90049797469E+00  0.30956318738E+01 -0.38870336870E+02  0.39003806503E+02  0.00000000000E+00 0.  1.
         -1    1    1    2    0  502 -0.54463097299E+01 -0.43714939012E+02 -0.33988754616E+03  0.34273050961E+03  0.00000000000E+00 0. -1.
<mgrwt>
<rscale>  1 0.30000000E+03</rscale>
<asrwt>0</asrwt>
<pdfrwt beam="1">  1       21 0.78622349E-02 0.30000000E+03</pdfrwt>
<pdfrwt beam="2">0</pdfrwt>
<totfact> 0.13169423E+04</totfact>
</mgrwt>
</event>
<event>
 6    1  0.6377696E-002  0.3000000E+03  0.7818608E-02  0.1093470E+00
         21   -1    0    0  501  502  0.00000000000E+00  0.00000000000E+00  0.12082336611E+01  0.12082336611E+01  0.00000000000E+00 0. -1.
         13   -1    0    0    0    0 -0.00000000000E+00 -0.00000000000E+00 -0.10000000000E+04  0.10000000000E+04  0.00000000000E+00 0.  1.
    9000005    2    1    2  501    0 -0.29635557518E+02 -0.86400136523E+01 -0.72826306024E+03  0.72892401280E+03  0.31961576994E+01 0.  0.
         13    1    3    3    0    0 -0.12260501803E+01  0.19811928016E+00 -0.37338226137E+02  0.37358875536E+02  0.00000000000E+00 0.  1.
          1    1    3    3  501    0 -0.28409507338E+02 -0.88381329325E+01 -0.69092483410E+03  0.69156513726E+03  0.00000000000E+00 0.  1.
         -3    1    1    2    0  502  0.29635557518E+02  0.86400136523E+01 -0.27052870610E+03  0.27228422086E+03  0.00000000000E+00 0. -1.
<mgrwt>
<rscale>  1 0.30000000E+03</rscale>
<asrwt>0</asrwt>
<pdfrwt beam="1">  1       21 0.43935862E-02 0.30000000E+03</pdfrwt>
<pdfrwt beam="2">0</pdfrwt>
<totfact> 0.35884964E+04</totfact>
</mgrwt>
</event>
<event>
 6    1  0.6377696E-002  0.3000000E+03  0.7818608E-02  0.1093470E+00
         21   -1    0    0  501  502  0.00000000000E+00  0.00000000000E+00  0.29976410307E+01  0.29976410307E+01  0.00000000000E+00 0. -1.
         13   -1    0    0    0    0 -0.00000000000E+00 -0.00000000000E+00 -0.10000000000E+04  0.10000000000E+04  0.00000000000E+00 0.  1.
    9000005    2    1    2  501    0  0.46977631173E+02  0.25867436576E+02 -0.59769001571E+03  0.60010017320E+03  0.32925504915E+01 0.  0.
         13    1    3    3    0    0  0.81715494074E+01  0.31145585760E+01 -0.97589034650E+02  0.97980071335E+02  0.00000000000E+00 0.  1.
          1    1    3    3  501    0  0.38806081766E+02  0.22752878000E+02 -0.50010098106E+03  0.50212010186E+03  0.00000000000E+00 0.  1.
         -1    1    1    2    0  502 -0.46977631173E+02 -0.25867436576E+02 -0.39931234326E+03  0.40289746784E+03  0.00000000000E+00 0. -1.
<mgrwt>
<rscale>  1 0.30000000E+03</rscale>
<asrwt>0</asrwt>
<pdfrwt beam="1">  1       21 0.10900536E-01 0.30000000E+03</pdfrwt>
<pdfrwt beam="2">0</pdfrwt>
<totfact> 0.73714634E+03</totfact>
</mgrwt>
</event>
<event>
 6    1  0.6377696E-002  0.3000000E+03  0.7818608E-02  0.1093470E+00
         21   -1    0    0  501  502  0.00000000000E+00  0.00000000000E+00  0.29872909208E+01  0.29872909208E+01  0.00000000000E+00 0. -1.
         13   -1    0    0    0    0 -0.00000000000E+00 -0.00000000000E+00 -0.10000000000E+04  0.10000000000E+04  0.00000000000E+00 0.  1.
    9000005    2    1    2  501    0  0.22985370290E+02 -0.48106598757E+02 -0.60734045154E+03  0.60968455715E+03  0.32036020408E+01 0.  0.
         13    1    3    3    0    0  0.19820392234E+02 -0.41204222779E+02 -0.50734053666E+03  0.50939675702E+03  0.00000000000E+00 0.  1.
          3    1    3    3  501    0  0.31649780555E+01 -0.69023759783E+01 -0.99999914876E+02  0.10028780013E+03  0.00000000000E+00 0.  1.
         -3    1    1    2    0  502 -0.22985370290E+02  0.48106598757E+02 -0.38967225754E+03  0.39330273377E+03  0.00000000000E+00 0. -1.
<mgrwt>
<rscale>  1 0.30000000E+03</rscale>
<asrwt>0</asrwt>
<pdfrwt beam="1">  1       21 0.10862899E-01 0.30000000E+03</pdfrwt>
<pdfrwt beam="2">0</pdfrwt>
<totfact> 0.74174350E+03</totfact>
</mgrwt>
</event>
<event>
 6    1  0.6377696E-002  0.3000000E+03  0.7818608E-02  0.1093470E+00
         21   -1    0    0  501  502  0.00000000000E+00  0.00000000000E+00  0.23935897293E+01  0.23935897293E+01  0.00000000000E+00 0. -1.
         13   -1    0    0    0    0 -0.00000000000E+00 -0.00000000000E+00 -0.10000000000E+04  0.10000000000E+04  0.00000000000E+00 0.  1.
    9000005    2    1    2  501    0  0.15508990589E+02  0.43974241727E+02 -0.35154058886E+03  0.35464725950E+03  0.44306132178E+01 0.  0.
         13    1    3    3    0    0  0.97905135673E+01  0.31945878465E+02 -0.24012897010E+03  0.24244239643E+03  0.00000000000E+00 0.  1.
          1    1    3    3  501    0  0.57184770220E+01  0.12028363262E+02 -0.11141161876E+03  0.11220486308E+03  0.00000000000E+00 0.  1.
         -3    1    1    2    0  502 -0.15508990589E+02 -0.43974241727E+02 -0.64606582141E+03  0.64774633023E+03  0.00000000000E+00 0. -1.
<mgrwt>
<rscale>  1 0.30000000E+03</rscale>
<asrwt>0</asrwt>
<pdfrwt beam="1">  1       21 0.87039810E-02 0.30000000E+03</pdfrwt>
<pdfrwt beam="2">0</pdfrwt>
<totfact> 0.11010635E+04</totfact>
</mgrwt>
</event>
<event>
 6    1  0.6377696E-002  0.3000000E+03  0.7818608E-02  0.1093470E+00
         21   -1    0    0  501  502  0.00000000000E+00  0.00000000000E+00  0.12701263973E+01  0.12701263973E+01  0.00000000000E+00 0. -1.
         13   -1    0    0    0    0 -0.00000000000E+00 -0.00000000000E+00 -0.10000000000E+04  0.10000000000E+04  0.00000000000E+00 0.  1.
    9000005    2    1    2  501    0 -0.45095812793E+01 -0.35076831805E+02 -0.44786221879E+03  0.44926841121E+03  0.32890480729E+01 0.  0.
         13    1    3    3    0    0 -0.35179175913E-01 -0.12462244985E+02 -0.15988986978E+03  0.16037480864E+03  0.00000000000E+00 0.  1.
          3    1    3    3  501    0 -0.44744021033E+01 -0.22614586821E+02 -0.28797234902E+03  0.28889360257E+03  0.00000000000E+00 0.  1.
         -1    1    1    2    0  502  0.45095812793E+01  0.35076831805E+02 -0.55086765481E+03  0.55200171519E+03  0.00000000000E+00 0. -1.
<mgrwt>
<rscale>  1 0.30000000E+03</rscale>
<asrwt>0</asrwt>
<pdfrwt beam="1">  1       21 0.46186512E-02 0.30000000E+03</pdfrwt>
<pdfrwt beam="2">0</pdfrwt>
<totfact> 0.32968341E+04</totfact>
</mgrwt>
</event>
<event>
 6    1  0.6377696E-002  0.3000000E+03  0.7818608E-02  0.1093470E+00
         21   -1    0    0  501  502  0.00000000000E+00  0.00000000000E+00  0.11094703609E+01  0.11094703609E+01  0.00000000000E+00 0. -1.
         13   -1    0    0    0    0 -0.00000000000E+00 -0.00000000000E+00 -0.10000000000E+04  0.10000000000E+04  0.00000000000E+00 0.  1.
    9000005    2    1    2  501    0  0.24396012293E+02 -0.18163764687E+02 -0.70159285279E+03  0.70226001592E+03  0.33928014594E+01 0.  0.
         13    1    3    3    0    0  0.11514644285E+02 -0.75812343949E+01 -0.35207384366E+03  0.35234365829E+03  0.00000000000E+00 0.  1.
          1    1    3    3  501    0  0.12881368008E+02 -0.10582530292E+02 -0.34951900914E+03  0.34991635763E+03  0.00000000000E+00 0.  1.
         -3    1    1    2    0  502 -0.24396012293E+02  0.18163764687E+02 -0.29729767685E+03  0.29884945444E+03  0.00000000000E+00 0. -1.
<mgrwt>
<rscale>  1 0.30000000E+03</rscale>
<asrwt>0</asrwt>
<pdfrwt beam="1">  1       21 0.40344462E-02 0.30000000E+03</pdfrwt>
<pdfrwt beam="2">0</pdfrwt>
<totfact> 0.41444391E+04</totfact>
</mgrwt>
</event>
<event>
 6    1  0.6377696E-002  0.3000000E+03  0.7818608E-02  0.1093470E+00
         21   -1    0    0  501  502  0.00000000000E+00  0.00000000000E+00  0.10380115399E+01  0.10380115399E+01  0.00000000000E+00 0. -1.
         13   -1    0    0    0    0 -0.00000000000E+00 -0.00000000000E+00 -0.10000000000E+04  0.10000000000E+04  0.00000000000E+00 0.  1.
    9000005    2    1    2  501    0  0.23734268550E+02 -0.18452650917E+02 -0.33608749062E+03  0.33748212413E+03  0.59638013517E+01 0.  0.
         13    1    3    3    0    0  0.15263382031E+02 -0.10717782917E+02 -0.17641588153E+03  0.17739899932E+03  0.00000000000E+00 0.  1.
          1    1    3    3  501    0  0.84708865195E+01 -0.77348680008E+01 -0.15967160909E+03  0.16008312481E+03  0.00000000000E+00 0.  1.
         -3    1    1    2    0  502 -0.23734268550E+02  0.18452650917E+02 -0.66287449784E+03  0.66355588741E+03  0.00000000000E+00 0. -1.
<mgrwt>
<rscale>  1 0.30000000E+03</rscale>
<asrwt>0</asrwt>
<pdfrwt beam="1">  1       21 0.37745954E-02 0.30000000E+03</pdfrwt>
<pdfrwt beam="2">0</pdfrwt>
<totfact> 0.46355514E+04</totfact>
</mgrwt>
</event>
<event>
 6    1  0.6377696E-002  0.3000000E+03  0.7818608E-02  0.1093470E+00
         21   -1    0    0  501  502  0.00000000000E+00  0.00000000000E+00  0.13146249663E+01  0.13146249663E+01  0.00000000000E+00 0. -1.
         13   -1    0    0    0    0 -0.00000000000E+00 -0.00000000000E+00 -0.10000000000E+04  0.10000000000E+04  0.00000000000E+00 0.  1.
    9000005    2    1    2  501    0 -0.60224784959E+01  0.34718261028E+02 -0.38728719787E+03  0.38890188920E+03  0.34172926651E+01 0.  0.
         13    1    3    3    0    0 -0.43534553206E+01  0.27296832549E+02 -0.28784599068E+03  0.28917016442E+03  0.00000000000E+00 0.  1.
          1    1    3    3  501    0 -0.16690231754E+01  0.74214284794E+01 -0.99441207190E+02  0.99731724774E+02  0.00000000000E+00 0.  1.
         -3    1    1    2    0  502  0.60224784959E+01 -0.34718261028E+02 -0.61139817716E+03  0.61241273577E+03  0.00000000000E+00 0. -1.
<mgrwt>
<rscale>  1 0.30000000E+03</rscale>
<asrwt>0</asrwt>
<pdfrwt beam="1">  1       21 0.47804645E-02 0.30000000E+03</pdfrwt>
<pdfrwt beam="2">0</pdfrwt>
<totfact> 0.31093550E+04</totfact>
</mgrwt>
</event>
<event>
 6    1  0.6377696E-002  0.3000000E+03  0.7818608E-02  0.1093470E+00
         21   -1    0    0  501  502  0.00000000000E+00  0.00000000000E+00  0.29193500388E+01  0.29193500388E+01  0.00000000000E+00 0. -1.
         13   -1    0    0    0    0 -0.00000000000E+00 -0.00000000000E+00 -0.10000000000E+04  0.10000000000E+04  0.00000000000E+00 0.  1.
    9000005    2    1    2  501    0  0.43649662029E+02 -0.28434374893E+02 -0.36745325803E+03  0.37114054433E+03  0.30984090935E+01 0.  0.
         13    1    3    3    0    0  0.17936628352E+01 -0.16185588823E+01 -0.21213183749E+02  0.21350319061E+02  0.00000000000E+00 0.  1.
          1    1    3    3  501    0  0.41855999194E+02 -0.26815816011E+02 -0.34624007428E+03  0.34979022527E+03  0.00000000000E+00 0.  1.
         -3    1    1    2    0  502 -0.43649662029E+02  0.28434374893E+02 -0.62962739193E+03  0.63177880571E+03  0.00000000000E+00 0. -1.
<mgrwt>
<rscale>  1 0.30000000E+03</rscale>
<asrwt>0</asrwt>
<pdfrwt beam="1">  1       21 0.10615841E-01 0.30000000E+03</pdfrwt>
<pdfrwt beam="2">0</pdfrwt>
<totfact> 0.77302624E+03</totfact>
</mgrwt>
</event>
<event>
 6    1  0.6377696E-002  0.3000000E+03  0.7818608E-02  0.1093470E+00
         21   -1    0    0  501  502  0.00000000000E+00  0.00000000000E+00  0.27717652075E+01  0.27717652075E+01  0.00000000000E+00 0. -1.
         13   -1    0    0    0    0 -0.00000000000E+00 -0.00000000000E+00 -0.10000000000E+04  0.10000000000E+04  0.00000000000E+00 0.  1.
    9000005    2    1    2  501    0  0.35949520569E+02  0.24009507647E+02 -0.21339924932E+03  0.21775157250E+03  0.27718641072E+01 0.  0.
         13    1    3    3    0    0  0.21235409358E+02  0.14912971137E+02 -0.12186536058E+03  0.12459737328E+03  0.00000000000E+00 0.  1.
          3    1    3    3  501    0  0.14714111212E+02  0.90965365100E+01 -0.91533888745E+02  0.93154199229E+02  0.00000000000E+00 0.  1.
         -3    1    1    2    0  502 -0.35949520569E+02 -0.24009507647E+02 -0.78382898547E+03  0.78502019270E+03  0.00000000000E+00 0. -1.
<mgrwt>
<rscale>  1 0.30000000E+03</rscale>
<asrwt>0</asrwt>
<pdfrwt beam="1">  1       21 0.10079167E-01 0.30000000E+03</pdfrwt>
<pdfrwt beam="2">0</pdfrwt>
<totfact> 0.84827983E+03</totfact>
</mgrwt>
</event>
<event>
 6    1  0.6377696E-002  0.3000000E+03  0.7818608E-02  0.1093470E+00
         21   -1    0    0  501  502  0.00000000000E+00  0.00000000000E+00  0.11607435063E+01  0.11607435063E+01  0.00000000000E+00 0. -1.
         13   -1    0    0    0    0 -0.00000000000E+00 -0.00000000000E+00 -0.10000000000E+04  0.10000000000E+04  0.00000000000E+00 0.  1.
    9000005    2    1    2  501    0  0.21209785967E+02  0.24948126634E+02 -0.63501671728E+03  0.63586756798E+03  0.30114357556E+01 0.  0.
         13    1    3    3    0    0  0.96299310234E+01  0.97786696809E+01 -0.24468684002E+03  0.24507143374E+03  0.00000000000E+00 0.  1.
          1    1    3    3  501    0  0.11579854944E+02  0.15169456953E+02 -0.39032987726E+03  0.39079613425E+03  0.00000000000E+00 0.  1.
         -1    1    1    2    0  502 -0.21209785967E+02 -0.24948126634E+02 -0.36382253921E+03  0.36529317552E+03  0.00000000000E+00 0. -1.
<mgrwt>
<rscale>  1 0.30000000E+03</rscale>
<asrwt>0</asrwt>
<pdfrwt beam="1">  1       21 0.42208944E-02 0.30000000E+03</pdfrwt>
<pdfrwt beam="2">0</pdfrwt>
<totfact> 0.38403241E+04</totfact>
</mgrwt>
</event>
<event>
 6    1  0.6377696E-002  0.3000000E+03  0.7818608E-02  0.1093470E+00
         21   -1    0    0  501  502  0.00000000000E+00  0.00000000000E+00  0.93673119483E+00  0.93673119483E+00  0.00000000000E+00 0. -1.
         13   -1    0    0    0    0 -0.00000000000E+00 -0.00000000000E+00 -0.10000000000E+04  0.10000000000E+04  0.00000000000E+00 0.  1.
    9000005    2    1    2  501    0 -0.28694405662E+02  0.95784405706E+01 -0.43599233697E+03  0.43705377374E+03  0.34011463087E+01 0.  0.
         13    1    3    3    0    0 -0.24669911257E+02  0.69392243021E+01 -0.36546162899E+03  0.36635905833E+03  0.00000000000E+00 0.  1.
          1    1    3    3  501    0 -0.40244944041E+01  0.26392162685E+01 -0.70530707980E+02  0.70694715403E+02  0.00000000000E+00 0.  1.
         -1    1    1    2    0  502  0.28694405662E+02 -0.95784405706E+01 -0.56307093183E+03  0.56388295746E+03  0.00000000000E+00 0. -1.
<mgrwt>
<rscale>  1 0.30000000E+03</rscale>
<asrwt>0</asrwt>
<pdfrwt beam="1">  1       21 0.34063024E-02 0.30000000E+03</pdfrwt>
<pdfrwt beam="2">0</pdfrwt>
<totfact> 0.55060345E+04</totfact>
</mgrwt>
</event>
<event>
 6    1  0.6377696E-002  0.3000000E+03  0.7818608E-02  0.1093470E+00
         21   -1    0    0  501  502  0.00000000000E+00  0.00000000000E+00  0.11499644454E+01  0.11499644454E+01  0.00000000000E+00 0. -1.
         13   -1    0    0    0    0 -0.00000000000E+00 -0.00000000000E+00 -0.10000000000E+04  0.10000000000E+04  0.00000000000E+00 0.  1.
    9000005    2    1    2  501    0  0.26896464843E+02  0.18903964777E+02 -0.38277388944E+03  0.38419729404E+03  0.33061469392E+01 0.  0.
         13    1    3    3    0    0  0.23333822299E+02  0.17560023664E+02 -0.33309743904E+03  0.33437512705E+03  0.00000000000E+00 0.  1.
          3    1    3    3  501    0  0.35626425446E+01  0.13439411125E+01 -0.49676450399E+02  0.49822166993E+02  0.00000000000E+00 0.  1.
         -3    1    1    2    0  502 -0.26896464843E+02 -0.18903964777E+02 -0.61607614612E+03  0.61695267041E+03  0.00000000000E+00 0. -1.
<mgrwt>
<rscale>  1 0.30000000E+03</rscale>
<asrwt>0</asrwt>
<pdfrwt beam="1">  1       21 0.41816977E-02 0.30000000E+03</pdfrwt>
<pdfrwt beam="2">0</pdfrwt>
<totfact> 0.39013069E+04</totfact>
</mgrwt>
</event>
<event>
 6    1  0.6377696E-002  0.3000000E+03  0.7818608E-02  0.1093470E+00
         21   -1    0    0  501  502  0.00000000000E+00  0.00000000000E+00  0.20540113319E+01  0.20540113319E+01  0.00000000000E+00 0. -1.
         13   -1    0    0    0    0 -0.00000000000E+00 -0.00000000000E+00 -0.10000000000E+04  0.10000000000E+04  0.00000000000E+00 0.  1.
    9000005    2    1    2  501    0  0.10681169543E+02  0.36110574046E+02 -0.77707169691E+03  0.77799260524E+03  0.37430905347E+01 0.  0.
         13    1    3    3    0    0  0.30527052653E+01  0.12722532013E+02 -0.23691777703E+03  0.23727877044E+03  0.00000000000E+00 0.  1.
          3    1    3    3  501    0  0.76284642781E+01  0.23388042033E+02 -0.54015391988E+03  0.54071383480E+03  0.00000000000E+00 0.  1.
         -3    1    1    2    0  502 -0.10681169543E+02 -0.36110574046E+02 -0.22087429175E+03  0.22406140609E+03  0.00000000000E+00 0. -1.
<mgrwt>
<rscale>  1 0.30000000E+03</rscale>
<asrwt>0</asrwt>
<pdfrwt beam="1">  1       21 0.74691479E-02 0.30000000E+03</pdfrwt>
<pdfrwt beam="2">0</pdfrwt>
<totfact> 0.14408067E+04</totfact>
</mgrwt>
</event>
<event>
 6    1  0.6377696E-002  0.3000000E+03  0.7818608E-02  0.1093470E+00
         21   -1    0    0  501  502  0.00000000000E+00  0.00000000000E+00  0.10476218514E+01  0.10476218514E+01  0.00000000000E+00 0. -1.
         13   -1    0    0    0    0 -0.00000000000E+00 -0.00000000000E+00 -0.10000000000E+04  0.10000000000E+04  0.00000000000E+00 0.  1.
    9000005    2    1    2  501    0  0.21437279040E+02 -0.23807340356E+02 -0.56150718207E+03  0.56243088031E+03  0.34399452602E+01 0.  0.
         13    1    3    3    0    0  0.21107958611E+02 -0.22533604116E+02 -0.53330301151E+03  0.53419604203E+03  0.00000000000E+00 0.  1.
          1    1    3    3  501    0  0.32932042863E+00 -0.12737362402E+01 -0.28204170555E+02  0.28234838279E+02  0.00000000000E+00 0.  1.
         -3    1    1    2    0  502 -0.21437279040E+02  0.23807340356E+02 -0.43744519608E+03  0.43861674155E+03  0.00000000000E+00 0. -1.
<mgrwt>
<rscale>  1 0.30000000E+03</rscale>
<asrwt>0</asrwt>
<pdfrwt beam="1">  1       21 0.38095420E-02 0.30000000E+03</pdfrwt>
<pdfrwt beam="2">0</pdfrwt>
<totfact> 0.45643340E+04</totfact>
</mgrwt>
</event>
<event>
 6    1  0.6377696E-002  0.3000000E+03  0.7818608E-02  0.1093470E+00
         21   -1    0    0  501  502  0.00000000000E+00  0.00000000000E+00  0.12619092856E+01  0.12619092856E+01  0.00000000000E+00 0. -1.
         13   -1    0    0    0    0 -0.00000000000E+00 -0.00000000000E+00 -0.10000000000E+04  0.10000000000E+04  0.00000000000E+00 0.  1.
    9000005    2    1    2  501    0 -0.19523225864E+02 -0.29554797347E+02 -0.52694484707E+03  0.52814088128E+03  0.26974486556E+01 0.  0.
         13    1    3    3    0    0 -0.39572294405E+01 -0.41912887501E+01 -0.85923212890E+02  0.86116346181E+02  0.00000000000E+00 0.  1.
          3    1    3    3  501    0 -0.15565996424E+02 -0.25363508597E+02 -0.44102163418E+03  0.44202453509E+03  0.00000000000E+00 0.  1.
         -1    1    1    2    0  502  0.19523225864E+02  0.29554797347E+02 -0.47179324365E+03  0.47312102801E+03  0.00000000000E+00 0. -1.
<mgrwt>
<rscale>  1 0.30000000E+03</rscale>
<asrwt>0</asrwt>
<pdfrwt beam="1">  1       21 0.45887707E-02 0.30000000E+03</pdfrwt>
<pdfrwt beam="2">0</pdfrwt>
<totfact> 0.33333911E+04</totfact>
</mgrwt>
</event>
<event>
 6    1  0.6377696E-002  0.3000000E+03  0.7818608E-02  0.1093470E+00
         21   -1    0    0  501  502  0.00000000000E+00  0.00000000000E+00  0.17466988594E+01  0.17466988594E+01  0.00000000000E+00 0. -1.
         13   -1    0    0    0    0 -0.00000000000E+00 -0.00000000000E+00 -0.10000000000E+04  0.10000000000E+04  0.00000000000E+00 0.  1.
    9000005    2    1    2  501    0  0.40327215725E+02  0.10673331872E+02 -0.48520814666E+03  0.48700838197E+03  0.31645188202E+01 0.  0.
         13    1    3    3    0    0  0.12672361928E+01  0.15168420279E+00 -0.98963613208E+01  0.99783196510E+01  0.00000000000E+00 0.  1.
          1    1    3    3  501    0  0.39059979532E+02  0.10521647669E+02 -0.47531178534E+03  0.47703006232E+03  0.00000000000E+00 0.  1.
         -3    1    1    2    0  502 -0.40327215725E+02 -0.10673331872E+02 -0.51304515448E+03  0.51473831689E+03  0.00000000000E+00 0. -1.
<mgrwt>
<rscale>  1 0.30000000E+03</rscale>
<asrwt>0</asrwt>
<pdfrwt beam="1">  1       21 0.63516456E-02 0.30000000E+03</pdfrwt>
<pdfrwt beam="2">0</pdfrwt>
<totfact> 0.19097944E+04</totfact>
</mgrwt>
</event>
<event>
 6    1  0.6377696E-002  0.3000000E+03  0.7818608E-02  0.1093470E+00
         21   -1    0    0  501  502  0.00000000000E+00  0.00000000000E+00  0.33177568797E+01  0.33177568797E+01  0.00000000000E+00 0. -1.
         13   -1    0    0    0    0 -0.00000000000E+00 -0.00000000000E+00 -0.10000000000E+04  0.10000000000E+04  0.00000000000E+00 0.  1.
    9000005    2    1    2  501    0  0.17805961538E+02 -0.47924675350E+02 -0.72864855407E+03  0.73045169955E+03  0.41404421949E+01 0.  0.
         13    1    3    3    0    0  0.78412273889E+01 -0.23168936192E+02 -0.32094077031E+03  0.32187149998E+03  0.00000000000E+00 0.  1.
          3    1    3    3  501    0  0.99647341490E+01 -0.24755739158E+02 -0.40770778375E+03  0.40858019957E+03  0.00000000000E+00 0.  1.
         -1    1    1    2    0  502 -0.17805961538E+02  0.47924675350E+02 -0.26803368905E+03  0.27286605733E+03  0.00000000000E+00 0. -1.
<mgrwt>
<rscale>  1 0.30000000E+03</rscale>
<asrwt>0</asrwt>
<pdfrwt beam="1">  1       21 0.12064596E-01 0.30000000E+03</pdfrwt>
<pdfrwt beam="2">0</pdfrwt>
<totfact> 0.61370126E+03</totfact>
</mgrwt>
</event>
<event>
 6    1  0.6377696E-002  0.3000000E+03  0.7818608E-02  0.1093470E+00
         21   -1    0    0  501  502  0.00000000000E+00  0.00000000000E+00  0.25009156552E+01  0.25009156552E+01  0.00000000000E+00 0. -1.
         13   -1    0    0    0    0 -0.00000000000E+00 -0.00000000000E+00 -0.10000000000E+04  0.10000000000E+04  0.00000000000E+00 0.  1.
    9000005    2    1    2  501    0  0.44638689815E+02  0.14574392982E+02 -0.66998618851E+03  0.67163882581E+03  0.34919881121E+01 0.  0.
         13    1    3    3    0    0  0.28168935058E+02  0.74655672573E+01 -0.40887472973E+03  0.40991190299E+03  0.00000000000E+00 0.  1.
          3    1    3    3  501    0  0.16469754758E+02  0.71088257244E+01 -0.26111145878E+03  0.26172692282E+03  0.00000000000E+00 0.  1.
         -3    1    1    2    0  502 -0.44638689815E+02 -0.14574392982E+02 -0.32751289583E+03  0.33086208984E+03  0.00000000000E+00 0. -1.
<mgrwt>
<rscale>  1 0.30000000E+03</rscale>
<asrwt>0</asrwt>
<pdfrwt beam="1">  1       21 0.90942579E-02 0.30000000E+03</pdfrwt>
<pdfrwt beam="2">0</pdfrwt>
<totfact> 0.10188194E+04</totfact>
</mgrwt>
</event>
<event>
 6    1  0.6377696E-002  0.3000000E+03  0.7818608E-02  0.1093470E+00
         21   -1    0    0  501  502  0.00000000000E+00  0.00000000000E+00  0.12169589599E+01  0.12169589599E+01  0.00000000000E+00 0. -1.
         13   -1    0    0    0    0 -0.00000000000E+00 -0.00000000000E+00 -0.10000000000E+04  0.10000000000E+04  0.00000000000E+00 0.  1.
    9000005    2    1    2  501    0  0.87896960399E+01 -0.33587520493E+02 -0.53699230264E+03  0.53812294436E+03  0.31921558635E+01 0.  0.
         13    1    3    3    0    0  0.84552294531E+01 -0.33194055962E+02 -0.52260793326E+03  0.52372930810E+03  0.00000000000E+00 0.  1.
          1    1    3    3  501    0  0.33446658679E+00 -0.39346453085E+00 -0.14384369383E+02  0.14393636260E+02  0.00000000000E+00 0.  1.
         -3    1    1    2    0  502 -0.87896960399E+01  0.33587520493E+02 -0.46179073840E+03  0.46309401460E+03  0.00000000000E+00 0. -1.
<mgrwt>
<rscale>  1 0.30000000E+03</rscale>
<asrwt>0</asrwt>
<pdfrwt beam="1">  1       21 0.44253146E-02 0.30000000E+03</pdfrwt>
<pdfrwt beam="2">0</pdfrwt>
<totfact> 0.35450146E+04</totfact>
</mgrwt>
</event>
<event>
 6    1  0.6377696E-002  0.3000000E+03  0.7818608E-02  0.1093470E+00
         21   -1    0    0  501  502  0.00000000000E+00  0.00000000000E+00  0.21492185696E+01  0.21492185696E+01  0.00000000000E+00 0. -1.
         13   -1    0    0    0    0 -0.00000000000E+00 -0.00000000000E+00 -0.10000000000E+04  0.10000000000E+04  0.00000000000E+00 0.  1.
    9000005    2    1    2  501    0 -0.11803322002E+02 -0.31861626080E+02 -0.83944379230E+03  0.84013917001E+03  0.36691877646E+01 0.  0.
         13    1    3    3    0    0 -0.12212214971E+01 -0.76083926774E+01 -0.18177230768E+03  0.18193556788E+03  0.00000000000E+00 0.  1.
          3    1    3    3  501    0 -0.10582100505E+02 -0.24253233403E+02 -0.65767148462E+03  0.65820360214E+03  0.00000000000E+00 0.  1.
         -3    1    1    2    0  502  0.11803322002E+02  0.31861626080E+02 -0.15840698913E+03  0.16201004856E+03  0.00000000000E+00 0. -1.
<mgrwt>
<rscale>  1 0.30000000E+03</rscale>
<asrwt>0</asrwt>
<pdfrwt beam="1">  1       21 0.78153567E-02 0.30000000E+03</pdfrwt>
<pdfrwt beam="2">0</pdfrwt>
<totfact> 0.13308331E+04</totfact>
</mgrwt>
</event>
<event>
 6    1  0.6377696E-002  0.3000000E+03  0.7818608E-02  0.1093470E+00
         21   -1    0    0  501  502  0.00000000000E+00  0.00000000000E+00  0.17267858550E+01  0.17267858550E+01  0.00000000000E+00 0. -1.
         13   -1    0    0    0    0 -0.00000000000E+00 -0.00000000000E+00 -0.10000000000E+04  0.10000000000E+04  0.00000000000E+00 0.  1.
    9000005    2    1    2  501    0 -0.37604474431E+02  0.17068238955E+02 -0.53528665782E+03  0.53690211717E+03  0.51629551293E+01 0.  0.
         13    1    3    3    0    0 -0.12648274967E+02  0.35112638616E+01 -0.18612299899E+03  0.18658531182E+03  0.00000000000E+00 0.  1.
          1    1    3    3  501    0 -0.24956199464E+02  0.13556975094E+02 -0.34916365882E+03  0.35031680535E+03  0.00000000000E+00 0.  1.
         -3    1    1    2    0  502  0.37604474431E+02 -0.17068238955E+02 -0.46298655633E+03  0.46482466869E+03  0.00000000000E+00 0. -1.
<mgrwt>
<rscale>  1 0.30000000E+03</rscale>
<asrwt>0</asrwt>
<pdfrwt beam="1">  1       21 0.62792345E-02 0.30000000E+03</pdfrwt>
<pdfrwt beam="2">0</pdfrwt>
<totfact> 0.19480250E+04</totfact>
</mgrwt>
</event>
<event>
 6    1  0.6377696E-002  0.3000000E+03  0.7818608E-02  0.1093470E+00
         21   -1    0    0  501  502  0.00000000000E+00  0.00000000000E+00  0.10831705025E+01  0.10831705025E+01  0.00000000000E+00 0. -1.
         13   -1    0    0    0    0 -0.00000000000E+00 -0.00000000000E+00 -0.10000000000E+04  0.10000000000E+04  0.00000000000E+00 0.  1.
    9000005    2    1    2  501    0  0.30192955714E+02  0.10559428313E+02 -0.61013300356E+03  0.61098577316E+03  0.42681228164E+01 0.  0.
         13    1    3    3    0    0  0.11089671751E+02  0.20815732475E+01 -0.23571784896E+03  0.23598774986E+03  0.00000000000E+00 0.  1.
          1    1    3    3  501    0  0.19103283964E+02  0.84778550655E+01 -0.37441515460E+03  0.37499802330E+03  0.00000000000E+00 0.  1.
         -3    1    1    2    0  502 -0.30192955714E+02 -0.10559428313E+02 -0.38878382594E+03  0.39009739734E+03  0.00000000000E+00 0. -1.
<mgrwt>
<rscale>  1 0.30000000E+03</rscale>
<asrwt>0</asrwt>
<pdfrwt beam="1">  1       21 0.39388101E-02 0.30000000E+03</pdfrwt>
<pdfrwt beam="2">0</pdfrwt>
<totfact> 0.43152759E+04</totfact>
</mgrwt>
</event>
<event>
 6    1  0.6377696E-002  0.3000000E+03  0.7818608E-02  0.1093470E+00
         21   -1    0    0  501  502  0.00000000000E+00  0.00000000000E+00  0.21515078230E+01  0.21515078230E+01  0.00000000000E+00 0. -1.
         13   -1    0    0    0    0 -0.00000000000E+00 -0.00000000000E+00 -0.10000000000E+04  0.10000000000E+04  0.00000000000E+00 0.  1.
    9000005    2    1    2  501    0 -0.34116445063E+01  0.38030751889E+02 -0.21666684910E+03  0.22003723428E+03  0.37260650685E+01 0.  0.
         13    1    3    3    0    0 -0.13198496045E+00  0.19777129419E+02 -0.10670314051E+03  0.10852056239E+03  0.00000000000E+00 0.  1.
          1    1    3    3  501    0 -0.32796595458E+01  0.18253622470E+02 -0.10996370860E+03  0.11151667188E+03  0.00000000000E+00 0.  1.
         -1    1    1    2    0  502  0.34116445063E+01 -0.38030751889E+02 -0.78118164307E+03  0.78211427354E+03  0.00000000000E+00 0. -1.
<mgrwt>
<rscale>  1 0.30000000E+03</rscale>
<asrwt>0</asrwt>
<pdfrwt beam="1">  1       21 0.78236813E-02 0.30000000E+03</pdfrwt>
<pdfrwt beam="2">0</pdfrwt>
<totfact> 0.13283500E+04</totfact>
</mgrwt>
</event>
<event>
 6    1  0.6377696E-002  0.3000000E+03  0.7818608E-02  0.1093470E+00
         21   -1    0    0  501  502  0.00000000000E+00  0.00000000000E+00  0.38310323070E+01  0.38310323070E+01  0.00000000000E+00 0. -1.
         13   -1    0    0    0    0 -0.00000000000E+00 -0.00000000000E+00 -0.10000000000E+04  0.10000000000E+04  0.00000000000E+00 0.  1.
    9000005    2    1    2  501    0 -0.37105463989E+02  0.21974737477E+02 -0.13885539334E+03  0.14543353155E+03  0.32229323530E+01 0.  0.
         13    1    3    3    0    0 -0.26398989243E+02  0.15649490201E+02 -0.93739046156E+02  0.98634790773E+02  0.00000000000E+00 0.  1.
          3    1    3    3  501    0 -0.10706474746E+02  0.63252472759E+01 -0.45116347185E+02  0.46798740773E+02  0.00000000000E+00 0.  1.
         -1    1    1    2    0  502  0.37105463989E+02 -0.21974737477E+02 -0.85731357435E+03  0.85839750076E+03  0.00000000000E+00 0. -1.
<mgrwt>
<rscale>  1 0.30000000E+03</rscale>
<asrwt>0</asrwt>
<pdfrwt beam="1">  1       21 0.13931056E-01 0.30000000E+03</pdfrwt>
<pdfrwt beam="2">0</pdfrwt>
<totfact> 0.47192797E+03</totfact>
</mgrwt>
</event>
<event>
 6    1  0.6377696E-002  0.3000000E+03  0.7818608E-02  0.1093470E+00
         21   -1    0    0  501  502  0.00000000000E+00  0.00000000000E+00  0.20329834445E+01  0.20329834445E+01  0.00000000000E+00 0. -1.
         13   -1    0    0    0    0 -0.00000000000E+00 -0.00000000000E+00 -0.10000000000E+04  0.10000000000E+04  0.00000000000E+00 0.  1.
    9000005    2    1    2  501    0 -0.24578639050E+02 -0.35490440672E+02 -0.64219523821E+03  0.64365156771E+03  0.29892740723E+01 0.  0.
         13    1    3    3    0    0 -0.22270965251E+01 -0.48099631664E+01 -0.84262375509E+02  0.84428926506E+02  0.00000000000E+00 0.  1.
          3    1    3    3  501    0 -0.22351542525E+02 -0.30680477505E+02 -0.55793286271E+03  0.55922264121E+03  0.00000000000E+00 0.  1.
         -3    1    1    2    0  502  0.24578639050E+02  0.35490440672E+02 -0.35577177834E+03  0.35838141573E+03  0.00000000000E+00 0. -1.
<mgrwt>
<rscale>  1 0.30000000E+03</rscale>
<asrwt>0</asrwt>
<pdfrwt beam="1">  1       21 0.73926827E-02 0.30000000E+03</pdfrwt>
<pdfrwt beam="2">0</pdfrwt>
<totfact> 0.14669849E+04</totfact>
</mgrwt>
</event>
<event>
 6    1  0.6377696E-002  0.3000000E+03  0.7818608E-02  0.1093470E+00
         21   -1    0    0  501  502  0.00000000000E+00  0.00000000000E+00  0.46629635008E+01  0.46629635008E+01  0.00000000000E+00 0. -1.
         13   -1    0    0    0    0 -0.00000000000E+00 -0.00000000000E+00 -0.10000000000E+04  0.10000000000E+04  0.00000000000E+00 0.  1.
    9000005    2    1    2  501    0  0.50616738951E+02  0.44049157887E+02 -0.40613922778E+03  0.41165669004E+03  0.31265851408E+01 0.  0.
         13    1    3    3    0    0  0.27087851225E+02  0.23448591440E+02 -0.20728198772E+03  0.21035543863E+03  0.00000000000E+00 0.  1.
          3    1    3    3  501    0  0.23528887726E+02  0.20600566447E+02 -0.19885724006E+03  0.20130125141E+03  0.00000000000E+00 0.  1.
         -1    1    1    2    0  502 -0.50616738951E+02 -0.44049157887E+02 -0.58919780872E+03  0.59300627347E+03  0.00000000000E+00 0. -1.
<mgrwt>
<rscale>  1 0.30000000E+03</rscale>
<asrwt>0</asrwt>
<pdfrwt beam="1">  1       21 0.16956267E-01 0.30000000E+03</pdfrwt>
<pdfrwt beam="2">0</pdfrwt>
<totfact> 0.32772922E+03</totfact>
</mgrwt>
</event>
<event>
 6    1  0.6377696E-002  0.3000000E+03  0.7818608E-02  0.1093470E+00
         21   -1    0    0  501  502  0.00000000000E+00  0.00000000000E+00  0.10572922764E+01  0.10572922764E+01  0.00000000000E+00 0. -1.
         13   -1    0    0    0    0 -0.00000000000E+00 -0.00000000000E+00 -0.10000000000E+04  0.10000000000E+04  0.00000000000E+00 0.  1.
    9000005    2    1    2  501    0  0.29859687718E+02 -0.95677593977E+01 -0.37682699049E+03  0.37815191535E+03  0.41409362667E+01 0.  0.
         13    1    3    3    0    0  0.49240396583E+00  0.28120592501E-01 -0.22737904872E+01  0.23266662014E+01  0.00000000000E+00 0.  1.
          3    1    3    3  501    0  0.29367283752E+02 -0.95958799902E+01 -0.37455320000E+03  0.37582524915E+03  0.00000000000E+00 0.  1.
         -3    1    1    2    0  502 -0.29859687718E+02  0.95677593977E+01 -0.62211571723E+03  0.62290537692E+03  0.00000000000E+00 0. -1.
<mgrwt>
<rscale>  1 0.30000000E+03</rscale>
<asrwt>0</asrwt>
<pdfrwt beam="1">  1       21 0.38447073E-02 0.30000000E+03</pdfrwt>
<pdfrwt beam="2">0</pdfrwt>
<totfact> 0.44943911E+04</totfact>
</mgrwt>
</event>
<event>
 6    1  0.6377696E-002  0.3000000E+03  0.7818608E-02  0.1093470E+00
         21   -1    0    0  501  502  0.00000000000E+00  0.00000000000E+00  0.11624758179E+01  0.11624758179E+01  0.00000000000E+00 0. -1.
         13   -1    0    0    0    0 -0.00000000000E+00 -0.00000000000E+00 -0.10000000000E+04  0.10000000000E+04  0.00000000000E+00 0.  1.
    9000005    2    1    2  501    0  0.27822678132E+02 -0.19234486461E+02 -0.55541611853E+03  0.55645289657E+03  0.29486413872E+01 0.  0.
         13    1    3    3    0    0  0.10918274118E+01 -0.17323009428E+00 -0.15301133119E+02  0.15341015954E+02  0.00000000000E+00 0.  1.
          3    1    3    3  501    0  0.26730850720E+02 -0.19061256367E+02 -0.54011498541E+03  0.54111188062E+03  0.00000000000E+00 0.  1.
         -3    1    1    2    0  502 -0.27822678132E+02  0.19234486461E+02 -0.44342140565E+03  0.44470957925E+03  0.00000000000E+00 0. -1.
<mgrwt>
<rscale>  1 0.30000000E+03</rscale>
<asrwt>0</asrwt>
<pdfrwt beam="1">  1       21 0.42271937E-02 0.30000000E+03</pdfrwt>
<pdfrwt beam="2">0</pdfrwt>
<totfact> 0.38306618E+04</totfact>
</mgrwt>
</event>
<event>
 6    1  0.6377696E-002  0.3000000E+03  0.7818608E-02  0.1093470E+00
         21   -1    0    0  501  502  0.00000000000E+00  0.00000000000E+00  0.21434054499E+01  0.21434054499E+01  0.00000000000E+00 0. -1.
         13   -1    0    0    0    0 -0.00000000000E+00 -0.00000000000E+00 -0.10000000000E+04  0.10000000000E+04  0.00000000000E+00 0.  1.
    9000005    2    1    2  501    0  0.34128408308E+02 -0.30860920285E+02 -0.45101351008E+03  0.45336794710E+03  0.34877684064E+01 0.  0.
         13    1    3    3    0    0  0.49891103162E+01 -0.57184582698E+01 -0.65556989235E+02  0.65994778765E+02  0.00000000000E+00 0.  1.
          1    1    3    3  501    0  0.29139297992E+02 -0.25142462015E+02 -0.38545652084E+03  0.38737316833E+03  0.00000000000E+00 0.  1.
         -1    1    1    2    0  502 -0.34128408308E+02  0.30860920285E+02 -0.54684308447E+03  0.54877545835E+03  0.00000000000E+00 0. -1.
<mgrwt>
<rscale>  1 0.30000000E+03</rscale>
<asrwt>0</asrwt>
<pdfrwt beam="1">  1       21 0.77942181E-02 0.30000000E+03</pdfrwt>
<pdfrwt beam="2">0</pdfrwt>
<totfact> 0.13371708E+04</totfact>
</mgrwt>
</event>
<event>
 6    1  0.6377696E-002  0.3000000E+03  0.7818608E-02  0.1093470E+00
         21   -1    0    0  501  502  0.00000000000E+00  0.00000000000E+00  0.17545449547E+01  0.17545449547E+01  0.00000000000E+00 0. -1.
         13   -1    0    0    0    0 -0.00000000000E+00 -0.00000000000E+00 -0.10000000000E+04  0.10000000000E+04  0.00000000000E+00 0.  1.
    9000005    2    1    2  501    0 -0.31269917317E+02 -0.23518790940E+02 -0.32187099304E+03  0.32424930209E+03  0.23942616687E+01 0.  0.
         13    1    3    3    0    0 -0.14078401645E+02 -0.11030605882E+02 -0.13772703126E+03  0.13888344322E+03  0.00000000000E+00 0.  1.
          1    1    3    3  501    0 -0.17191515672E+02 -0.12488185058E+02 -0.18414396178E+03  0.18536585887E+03  0.00000000000E+00 0.  1.
         -3    1    1    2    0  502  0.31269917317E+02  0.23518790940E+02 -0.67637446200E+03  0.67750524286E+03  0.00000000000E+00 0. -1.
<mgrwt>
<rscale>  1 0.30000000E+03</rscale>
<asrwt>0</asrwt>
<pdfrwt beam="1">  1       21 0.63801769E-02 0.30000000E+03</pdfrwt>
<pdfrwt beam="2">0</pdfrwt>
<totfact> 0.18950490E+04</totfact>
</mgrwt>
</event>
<event>
 6    1  0.6377696E-002  0.3000000E+03  0.7818608E-02  0.1093470E+00
         21   -1    0    0  501  502  0.00000000000E+00  0.00000000000E+00  0.23822108494E+01  0.23822108494E+01  0.00000000000E+00 0. -1.
         13   -1    0    0    0    0 -0.00000000000E+00 -0.00000000000E+00 -0.10000000000E+04  0.10000000000E+04  0.00000000000E+00 0.  1.
    9000005    2    1    2  501    0  0.26932993410E+02 -0.38979445261E+02 -0.61747069388E+03  0.61929397384E+03  0.31913877473E+01 0.  0.
         13    1    3    3    0    0  0.14345144250E+02 -0.21951364312E+02 -0.32277262202E+03  0.32383608675E+03  0.00000000000E+00 0.  1.
          1    1    3    3  501    0  0.12587849160E+02 -0.17028080949E+02 -0.29469807186E+03  0.29545788709E+03  0.00000000000E+00 0.  1.
         -3    1    1    2    0  502 -0.26932993410E+02  0.38979445261E+02 -0.38014709527E+03  0.38308823701E+03  0.00000000000E+00 0. -1.
<mgrwt>
<rscale>  1 0.30000000E+03</rscale>
<asrwt>0</asrwt>
<pdfrwt beam="1">  1       21 0.86626032E-02 0.30000000E+03</pdfrwt>
<pdfrwt beam="2">0</pdfrwt>
<totfact> 0.11103698E+04</totfact>
</mgrwt>
</event>
<event>
 6    1  0.6377696E-002  0.3000000E+03  0.7818608E-02  0.1093470E+00
         21   -1    0    0  501  502  0.00000000000E+00  0.00000000000E+00  0.22035958386E+01  0.22035958386E+01  0.00000000000E+00 0. -1.
         13   -1    0    0    0    0 -0.00000000000E+00 -0.00000000000E+00 -0.10000000000E+04  0.10000000000E+04  0.00000000000E+00 0.  1.
    9000005    2    1    2  501    0  0.91424318759E+01  0.38025979496E+02 -0.22360931989E+03  0.22702929245E+03  0.34077136941E+01 0.  0.
         13    1    3    3    0    0  0.67276411660E+01  0.20893948233E+02 -0.12701703500E+03  0.12889974945E+03  0.00000000000E+00 0.  1.
          1    1    3    3  501    0  0.24147907099E+01  0.17132031263E+02 -0.96592284890E+02  0.98129543001E+02  0.00000000000E+00 0.  1.
         -1    1    1    2    0  502 -0.91424318759E+01 -0.38025979496E+02 -0.77418708427E+03  0.77517430339E+03  0.00000000000E+00 0. -1.
<mgrwt>
<rscale>  1 0.30000000E+03</rscale>
<asrwt>0</asrwt>
<pdfrwt beam="1">  1       21 0.80130927E-02 0.30000000E+03</pdfrwt>
<pdfrwt beam="2">0</pdfrwt>
<totfact> 0.12737230E+04</totfact>
</mgrwt>
</event>
<event>
 6    1  0.6377696E-002  0.3000000E+03  0.7818608E-02  0.1093470E+00
         21   -1    0    0  501  502  0.00000000000E+00  0.00000000000E+00  0.23168879914E+01  0.23168879914E+01  0.00000000000E+00 0. -1.
         13   -1    0    0    0    0 -0.00000000000E+00 -0.00000000000E+00 -0.10000000000E+04  0.10000000000E+04  0.00000000000E+00 0.  1.
    9000005    2    1    2  501    0  0.18178634663E+02  0.38186298526E+02 -0.26153078937E+03  0.26495069791E+03  0.34441805545E+01 0.  0.
         13    1    3    3    0    0  0.43482224439E+01  0.11403874010E+02 -0.67994565650E+02  0.69081230004E+02  0.00000000000E+00 0.  1.
          1    1    3    3  501    0  0.13830412219E+02  0.26782424516E+02 -0.19353622372E+03  0.19586946790E+03  0.00000000000E+00 0.  1.
         -1    1    1    2    0  502 -0.18178634663E+02 -0.38186298526E+02 -0.73615232264E+03  0.73736619008E+03  0.00000000000E+00 0. -1.
<mgrwt>
<rscale>  1 0.30000000E+03</rscale>
<asrwt>0</asrwt>
<pdfrwt beam="1">  1       21 0.84250650E-02 0.30000000E+03</pdfrwt>
<pdfrwt beam="2">0</pdfrwt>
<totfact> 0.11661886E+04</totfact>
</mgrwt>
</event>
<event>
 6    1  0.6377696E-002  0.3000000E+03  0.7818608E-02  0.1093470E+00
         21   -1    0    0  501  502  0.00000000000E+00  0.00000000000E+00  0.22499954986E+01  0.22499954986E+01  0.00000000000E+00 0. -1.
         13   -1    0    0    0    0 -0.00000000000E+00 -0.00000000000E+00 -0.10000000000E+04  0.10000000000E+04  0.00000000000E+00 0.  1.
    9000005    2    1    2  501    0 -0.47108676082E+01  0.46062404060E+02 -0.60600283863E+03  0.60777594146E+03  0.28665743606E+01 0.  0.
         13    1    3    3    0    0 -0.17789994434E+01  0.21358733747E+02 -0.26257955034E+03  0.26345280526E+03  0.00000000000E+00 0.  1.
          3    1    3    3  501    0 -0.29318681648E+01  0.24703670313E+02 -0.34342328829E+03  0.34432313619E+03  0.00000000000E+00 0.  1.
         -1    1    1    2    0  502  0.47108676082E+01 -0.46062404060E+02 -0.39174716587E+03  0.39447405404E+03  0.00000000000E+00 0. -1.
<mgrwt>
<rscale>  1 0.30000000E+03</rscale>
<asrwt>0</asrwt>
<pdfrwt beam="1">  1       21 0.81818191E-02 0.30000000E+03</pdfrwt>
<pdfrwt beam="2">0</pdfrwt>
<totfact> 0.12279150E+04</totfact>
</mgrwt>
</event>
<event>
 6    1  0.6377696E-002  0.3000000E+03  0.7818608E-02  0.1093470E+00
         21   -1    0    0  501  502  0.00000000000E+00  0.00000000000E+00  0.11997675872E+01  0.11997675872E+01  0.00000000000E+00 0. -1.
         13   -1    0    0    0    0 -0.00000000000E+00 -0.00000000000E+00 -0.10000000000E+04  0.10000000000E+04  0.00000000000E+00 0.  1.
    9000005    2    1    2  501    0 -0.26333095675E+02 -0.21373998427E+02 -0.44143176814E+03  0.44280037226E+03  0.77384761693E+01 0.  0.
         13    1    3    3    0    0 -0.37120484577E+01 -0.46241744897E+01 -0.11688367459E+03  0.11703399369E+03  0.00000000000E+00 0.  1.
          1    1    3    3  501    0 -0.22621047217E+02 -0.16749823937E+02 -0.32454809355E+03  0.32576637857E+03  0.00000000000E+00 0.  1.
         -1    1    1    2    0  502  0.26333095675E+02  0.21373998427E+02 -0.55736846427E+03  0.55839939533E+03  0.00000000000E+00 0. -1.
<mgrwt>
<rscale>  1 0.30000000E+03</rscale>
<asrwt>0</asrwt>
<pdfrwt beam="1">  1       21 0.43628004E-02 0.30000000E+03</pdfrwt>
<pdfrwt beam="2">0</pdfrwt>
<totfact> 0.36314802E+04</totfact>
</mgrwt>
</event>
<event>
 6    1  0.6377696E-002  0.3000000E+03  0.7818608E-02  0.1093470E+00
         21   -1    0    0  501  502  0.00000000000E+00  0.00000000000E+00  0.21959650280E+01  0.21959650280E+01  0.00000000000E+00 0. -1.
         13   -1    0    0    0    0 -0.00000000000E+00 -0.00000000000E+00 -0.10000000000E+04  0.10000000000E+04  0.00000000000E+00 0.  1.
    9000005    2    1    2  501    0  0.25975973987E+02 -0.38892253891E+02 -0.52069684756E+03  0.52280194450E+03  0.30508158542E+01 0.  0.
         13    1    3    3    0    0  0.21069790841E+02 -0.29409140427E+02 -0.40726577183E+03  0.40886946882E+03  0.00000000000E+00 0.  1.
          1    1    3    3  501    0  0.49061831455E+01 -0.94831134641E+01 -0.11343107573E+03  0.11393247568E+03  0.00000000000E+00 0.  1.
         -3    1    1    2    0  502 -0.25975973987E+02  0.38892253891E+02 -0.47710718741E+03  0.47939402053E+03  0.00000000000E+00 0. -1.
<mgrwt>
<rscale>  1 0.30000000E+03</rscale>
<asrwt>0</asrwt>
<pdfrwt beam="1">  1       21 0.79853442E-02 0.30000000E+03</pdfrwt>
<pdfrwt beam="2">0</pdfrwt>
<totfact> 0.12815074E+04</totfact>
</mgrwt>
</event>
<event>
 6    1  0.6377696E-002  0.3000000E+03  0.7818608E-02  0.1093470E+00
         21   -1    0    0  501  502  0.00000000000E+00  0.00000000000E+00  0.19645246609E+01  0.19645246609E+01  0.00000000000E+00 0. -1.
         13   -1    0    0    0    0 -0.00000000000E+00 -0.00000000000E+00 -0.10000000000E+04  0.10000000000E+04  0.00000000000E+00 0.  1.
    9000005    2    1    2  501    0 -0.15146882440E+02  0.28284653971E+02 -0.84359328648E+03  0.84422474085E+03  0.60274676865E+01 0.  0.
         13    1    3    3    0    0 -0.12343377063E+02  0.24716670215E+02 -0.66467342481E+03  0.66524734828E+03  0.00000000000E+00 0.  1.
          3    1    3    3  501    0 -0.28035053772E+01  0.35679837561E+01 -0.17891986166E+03  0.17897739256E+03  0.00000000000E+00 0.  1.
         -3    1    1    2    0  502  0.15146882440E+02 -0.28284653971E+02 -0.15444218886E+03  0.15773978381E+03  0.00000000000E+00 0. -1.
<mgrwt>
<rscale>  1 0.30000000E+03</rscale>
<asrwt>0</asrwt>
<pdfrwt beam="1">  1       21 0.71437411E-02 0.30000000E+03</pdfrwt>
<pdfrwt beam="2">0</pdfrwt>
<totfact> 0.15574017E+04</totfact>
</mgrwt>
</event>
<event>
 6    1  0.6377696E-002  0.3000000E+03  0.7818608E-02  0.1093470E+00
         21   -1    0    0  501  502  0.00000000000E+00  0.00000000000E+00  0.22647074064E+01  0.22647074064E+01  0.00000000000E+00 0. -1.
         13   -1    0    0    0    0 -0.00000000000E+00 -0.00000000000E+00 -0.10000000000E+04  0.10000000000E+04  0.00000000000E+00 0.  1.
    9000005    2    1    2  501    0  0.10450733404E+02  0.36532105709E+02 -0.79983108680E+03  0.80074575731E+03  0.44930908876E+01 0.  0.
         13    1    3    3    0    0  0.79872143328E+01  0.20633170867E+02 -0.44304496999E+03  0.44359707931E+03  0.00000000000E+00 0.  1.
          3    1    3    3  501    0  0.24635190715E+01  0.15898934842E+02 -0.35678611681E+03  0.35714867801E+03  0.00000000000E+00 0.  1.
         -1    1    1    2    0  502 -0.10450733404E+02 -0.36532105709E+02 -0.19790420579E+03  0.20151895009E+03  0.00000000000E+00 0. -1.
<mgrwt>
<rscale>  1 0.30000000E+03</rscale>
<asrwt>0</asrwt>
<pdfrwt beam="1">  1       21 0.82353170E-02 0.30000000E+03</pdfrwt>
<pdfrwt beam="2">0</pdfrwt>
<totfact> 0.12139171E+04</totfact>
</mgrwt>
</event>
<event>
 6    1  0.6377696E-002  0.3000000E+03  0.7818608E-02  0.1093470E+00
         21   -1    0    0  501  502  0.00000000000E+00  0.00000000000E+00  0.10971166495E+01  0.10971166495E+01  0.00000000000E+00 0. -1.
         13   -1    0    0    0    0 -0.00000000000E+00 -0.00000000000E+00 -0.10000000000E+04  0.10000000000E+04  0.00000000000E+00 0.  1.
    9000005    2    1    2  501    0  0.11180853866E+02  0.29100687484E+02 -0.38019806823E+03  0.38160739942E+03  0.10088344644E+02 0.  0.
         13    1    3    3    0    0 -0.15009308128E+01  0.76360352741E+01 -0.10002559321E+03  0.10032786814E+03  0.00000000000E+00 0.  1.
          1    1    3    3  501    0  0.12681784679E+02  0.21464652210E+02 -0.28017247502E+03  0.28127953128E+03  0.00000000000E+00 0.  1.
         -3    1    1    2    0  502 -0.11180853866E+02 -0.29100687484E+02 -0.61870481512E+03  0.61948971723E+03  0.00000000000E+00 0. -1.
<mgrwt>
<rscale>  1 0.30000000E+03</rscale>
<asrwt>0</asrwt>
<pdfrwt beam="1">  1       21 0.39895235E-02 0.30000000E+03</pdfrwt>
<pdfrwt beam="2">0</pdfrwt>
<totfact> 0.42233423E+04</totfact>
</mgrwt>
</event>
<event>
 6    1  0.6377696E-002  0.3000000E+03  0.7818608E-02  0.1093470E+00
         21   -1    0    0  501  502  0.00000000000E+00  0.00000000000E+00  0.11273773071E+01  0.11273773071E+01  0.00000000000E+00 0. -1.
         13   -1    0    0    0    0 -0.00000000000E+00 -0.00000000000E+00 -0.10000000000E+04  0.10000000000E+04  0.00000000000E+00 0.  1.
    9000005    2    1    2  501    0 -0.30380771466E+02 -0.13108293113E+02 -0.42318539476E+03  0.42449005366E+03  0.33329702919E+01 0.  0.
         13    1    3    3    0    0 -0.11401277689E+02 -0.61858731786E+01 -0.15118328526E+03  0.15173872249E+03  0.00000000000E+00 0.  1.
          1    1    3    3  501    0 -0.18979493777E+02 -0.69224199345E+01 -0.27200210950E+03  0.27275133117E+03  0.00000000000E+00 0.  1.
         -1    1    1    2    0  502  0.30380771466E+02  0.13108293113E+02 -0.57568722793E+03  0.57663732365E+03  0.00000000000E+00 0. -1.
<mgrwt>
<rscale>  1 0.30000000E+03</rscale>
<asrwt>0</asrwt>
<pdfrwt beam="1">  1       21 0.40995625E-02 0.30000000E+03</pdfrwt>
<pdfrwt beam="2">0</pdfrwt>
<totfact> 0.40340894E+04</totfact>
</mgrwt>
</event>
<event>
 6    1  0.6377696E-002  0.3000000E+03  0.7818608E-02  0.1093470E+00
         21   -1    0    0  501  502  0.00000000000E+00  0.00000000000E+00  0.12734977767E+01  0.12734977767E+01  0.00000000000E+00 0. -1.
         13   -1    0    0    0    0 -0.00000000000E+00 -0.00000000000E+00 -0.10000000000E+04  0.10000000000E+04  0.00000000000E+00 0.  1.
    9000005    2    1    2  501    0  0.36817753453E+01  0.34223404549E+02 -0.37250297109E+03  0.37410469448E+03  0.33259689483E+01 0.  0.
         13    1    3    3    0    0  0.39613722019E+01  0.27412924459E+02 -0.30779648360E+03  0.30904018543E+03  0.00000000000E+00 0.  1.
          3    1    3    3  501    0 -0.27959685668E+00  0.68104800900E+01 -0.64706487495E+02  0.65064509046E+02  0.00000000000E+00 0.  1.
         -3    1    1    2    0  502 -0.36817753453E+01 -0.34223404549E+02 -0.62622353113E+03  0.62716880330E+03  0.00000000000E+00 0. -1.
<mgrwt>
<rscale>  1 0.30000000E+03</rscale>
<asrwt>0</asrwt>
<pdfrwt beam="1">  1       21 0.46309108E-02 0.30000000E+03</pdfrwt>
<pdfrwt beam="2">0</pdfrwt>
<totfact> 0.32820169E+04</totfact>
</mgrwt>
</event>
<event>
 6    1  0.6377696E-002  0.3000000E+03  0.7818608E-02  0.1093470E+00
         21   -1    0    0  501  502  0.00000000000E+00  0.00000000000E+00  0.10495131811E+01  0.10495131811E+01  0.00000000000E+00 0. -1.
         13   -1    0    0    0    0 -0.00000000000E+00 -0.00000000000E+00 -0.10000000000E+04  0.10000000000E+04  0.00000000000E+00 0.  1.
    9000005    2    1    2  501    0  0.27283228853E+02  0.15683998143E+02 -0.38578175696E+03  0.38707373707E+03  0.28550922647E+01 0.  0.
         13    1    3    3    0    0  0.10607105265E+02  0.45156492984E+01 -0.14175780610E+03  0.14222579710E+03  0.00000000000E+00 0.  1.
          3    1    3    3  501    0  0.16676123588E+02  0.11168348844E+02 -0.24402395087E+03  0.24484793998E+03  0.00000000000E+00 0.  1.
         -1    1    1    2    0  502 -0.27283228853E+02 -0.15683998143E+02 -0.61316872986E+03  0.61397577611E+03  0.00000000000E+00 0. -1.
<mgrwt>
<rscale>  1 0.30000000E+03</rscale>
<asrwt>0</asrwt>
<pdfrwt beam="1">  1       21 0.38164196E-02 0.30000000E+03</pdfrwt>
<pdfrwt beam="2">0</pdfrwt>
<totfact> 0.45505208E+04</totfact>
</mgrwt>
</event>
<event>
 6    1  0.6377696E-002  0.3000000E+03  0.7818608E-02  0.1093470E+00
         21   -1    0    0  501  502  0.00000000000E+00  0.00000000000E+00  0.28015153253E+01  0.28015153253E+01  0.00000000000E+00 0. -1.
         13   -1    0    0    0    0 -0.00000000000E+00 -0.00000000000E+00 -0.10000000000E+04  0.10000000000E+04  0.00000000000E+00 0.  1.
    9000005    2    1    2  501    0  0.78843285271E+01 -0.44167134782E+02 -0.23348284158E+03  0.23776917487E+03  0.26541997068E+01 0.  0.
         13    1    3    3    0    0  0.43072590293E+01 -0.29742185862E+02 -0.16022451395E+03  0.16301854180E+03  0.00000000000E+00 0.  1.
          3    1    3    3  501    0  0.35770694979E+01 -0.14424948919E+02 -0.73258327624E+02  0.74750633067E+02  0.00000000000E+00 0.  1.
         -1    1    1    2    0  502 -0.78843285271E+01  0.44167134782E+02 -0.76371564310E+03  0.76503234046E+03  0.00000000000E+00 0. -1.
<mgrwt>
<rscale>  1 0.30000000E+03</rscale>
<asrwt>0</asrwt>
<pdfrwt beam="1">  1       21 0.10187350E-01 0.30000000E+03</pdfrwt>
<pdfrwt beam="2">0</pdfrwt>
<totfact> 0.83223823E+03</totfact>
</mgrwt>
</event>
<event>
 6    1  0.6377696E-002  0.3000000E+03  0.7818608E-02  0.1093470E+00
         21   -1    0    0  501  502  0.00000000000E+00  0.00000000000E+00  0.51798340044E+01  0.51798340044E+01  0.00000000000E+00 0. -1.
         13   -1    0    0    0    0 -0.00000000000E+00 -0.00000000000E+00 -0.10000000000E+04  0.10000000000E+04  0.00000000000E+00 0.  1.
    9000005    2    1    2  501    0 -0.65679125361E+02  0.26958912502E+02 -0.41697249506E+03  0.42298702979E+03  0.33816067035E+01 0.  0.
         13    1    3    3    0    0 -0.24750699567E+02  0.94905390313E+01 -0.16477252404E+03  0.16689113859E+03  0.00000000000E+00 0.  1.
          3    1    3    3  501    0 -0.40928425794E+02  0.17468373471E+02 -0.25219997101E+03  0.25609589120E+03  0.00000000000E+00 0.  1.
         -1    1    1    2    0  502  0.65679125361E+02 -0.26958912502E+02 -0.57784767094E+03  0.58219280421E+03  0.00000000000E+00 0. -1.
<mgrwt>
<rscale>  1 0.30000000E+03</rscale>
<asrwt>0</asrwt>
<pdfrwt beam="1">  1       21 0.18835800E-01 0.30000000E+03</pdfrwt>
<pdfrwt beam="2">0</pdfrwt>
<totfact> 0.26889399E+03</totfact>
</mgrwt>
</event>
<event>
 6    1  0.6377696E-002  0.3000000E+03  0.7818608E-02  0.1093470E+00
         21   -1    0    0  501  502  0.00000000000E+00  0.00000000000E+00  0.35963869676E+01  0.35963869676E+01  0.00000000000E+00 0. -1.
         13   -1    0    0    0    0 -0.00000000000E+00 -0.00000000000E+00 -0.10000000000E+04  0.10000000000E+04  0.00000000000E+00 0.  1.
    9000005    2    1    2  501    0 -0.42945024888E+02 -0.32834416016E+02 -0.28192510303E+03  0.28707568573E+03  0.28829819211E+01 0.  0.
         13    1    3    3    0    0 -0.21612620411E+02 -0.17871918566E+02 -0.15124747056E+03  0.15382557714E+03  0.00000000000E+00 0.  1.
          1    1    3    3  501    0 -0.21332404477E+02 -0.14962497449E+02 -0.13067763247E+03  0.13325010859E+03  0.00000000000E+00 0.  1.
         -1    1    1    2    0  502  0.42945024888E+02  0.32834416016E+02 -0.71447851001E+03  0.71652070123E+03  0.00000000000E+00 0. -1.
<mgrwt>
<rscale>  1 0.30000000E+03</rscale>
<asrwt>0</asrwt>
<pdfrwt beam="1">  1       21 0.13077798E-01 0.30000000E+03</pdfrwt>
<pdfrwt beam="2">0</pdfrwt>
<totfact> 0.52984642E+03</totfact>
</mgrwt>
</event>
<event>
 6    1  0.6377696E-002  0.3000000E+03  0.7818608E-02  0.1093470E+00
         21   -1    0    0  501  502  0.00000000000E+00  0.00000000000E+00  0.23503453954E+01  0.23503453954E+01  0.00000000000E+00 0. -1.
         13   -1    0    0    0    0 -0.00000000000E+00 -0.00000000000E+00 -0.10000000000E+04  0.10000000000E+04  0.00000000000E+00 0.  1.
    9000005    2    1    2  501    0  0.33536339047E+02 -0.51312643307E+01 -0.85653121714E+03  0.85721100096E+03  0.37360839853E+01 0.  0.
         13    1    3    3    0    0  0.25523775313E+02 -0.51807781962E+01 -0.62995002476E+03  0.63048817377E+03  0.00000000000E+00 0.  1.
          1    1    3    3  501    0  0.80125637336E+01  0.49513865418E-01 -0.22658119238E+03  0.22672282719E+03  0.00000000000E+00 0.  1.
         -3    1    1    2    0  502 -0.33536339047E+02  0.51312643307E+01 -0.14111843747E+03  0.14513934443E+03  0.00000000000E+00 0. -1.
<mgrwt>
<rscale>  1 0.30000000E+03</rscale>
<asrwt>0</asrwt>
<pdfrwt beam="1">  1       21 0.85467286E-02 0.30000000E+03</pdfrwt>
<pdfrwt beam="2">0</pdfrwt>
<totfact> 0.11370779E+04</totfact>
</mgrwt>
</event>
<event>
 6    1  0.6377696E-002  0.3000000E+03  0.7818608E-02  0.1093470E+00
         21   -1    0    0  501  502  0.00000000000E+00  0.00000000000E+00  0.98283684792E+00  0.98283684792E+00  0.00000000000E+00 0. -1.
         13   -1    0    0    0    0 -0.00000000000E+00 -0.00000000000E+00 -0.10000000000E+04  0.10000000000E+04  0.00000000000E+00 0.  1.
    9000005    2    1    2  501    0 -0.29784506697E+02 -0.94965387224E+01 -0.51376824776E+03  0.51472795412E+03  0.31230209771E+01 0.  0.
         13    1    3    3    0    0 -0.13514533975E+01 -0.54961081710E+00 -0.15342651185E+02  0.15411860489E+02  0.00000000000E+00 0.  1.
          1    1    3    3  501    0 -0.28433053299E+02 -0.89469279053E+01 -0.49842559657E+03  0.49931609363E+03  0.00000000000E+00 0.  1.
         -1    1    1    2    0  502  0.29784506697E+02  0.94965387224E+01 -0.48524891540E+03  0.48625488273E+03  0.00000000000E+00 0. -1.
<mgrwt>
<rscale>  1 0.30000000E+03</rscale>
<asrwt>0</asrwt>
<pdfrwt beam="1">  1       21 0.35739597E-02 0.30000000E+03</pdfrwt>
<pdfrwt beam="2">0</pdfrwt>
<totfact> 0.50805004E+04</totfact>
</mgrwt>
</event>
<event>
 6    1  0.6377696E-002  0.3000000E+03  0.7818608E-02  0.1093470E+00
         21   -1    0    0  501  502  0.00000000000E+00  0.00000000000E+00  0.13191130213E+01  0.13191130213E+01  0.00000000000E+00 0. -1.
         13   -1    0    0    0    0 -0.00000000000E+00 -0.00000000000E+00 -0.10000000000E+04  0.10000000000E+04  0.00000000000E+00 0.  1.
    9000005    2    1    2  501    0 -0.31289454330E+02 -0.42581022741E+01 -0.74559766955E+03  0.74627347724E+03  0.33251474464E+01 0.  0.
         13    1    3    3    0    0 -0.31890963082E+01  0.55764538818E+00 -0.72141190981E+02  0.72213798819E+02  0.00000000000E+00 0.  1.
          1    1    3    3  501    0 -0.28100358022E+02 -0.48157476623E+01 -0.67345647857E+03  0.67405967842E+03  0.00000000000E+00 0.  1.
         -1    1    1    2    0  502  0.31289454330E+02  0.42581022741E+01 -0.25308321743E+03  0.25504563578E+03  0.00000000000E+00 0. -1.
<mgrwt>
<rscale>  1 0.30000000E+03</rscale>
<asrwt>0</asrwt>
<pdfrwt beam="1">  1       21 0.47967847E-02 0.30000000E+03</pdfrwt>
<pdfrwt beam="2">0</pdfrwt>
<totfact> 0.30913769E+04</totfact>
</mgrwt>
</event>
<event>
 6    1  0.6377696E-002  0.3000000E+03  0.7818608E-02  0.1093470E+00
         21   -1    0    0  501  502  0.00000000000E+00  0.00000000000E+00  0.11614014685E+01  0.11614014685E+01  0.00000000000E+00 0. -1.
         13   -1    0    0    0    0 -0.00000000000E+00 -0.00000000000E+00 -0.10000000000E+04  0.10000000000E+04  0.00000000000E+00 0.  1.
    9000005    2    1    2  501    0  0.13114743117E+02 -0.27601715136E+02 -0.70319774011E+03  0.70394537173E+03  0.10870764395E+02 0.  0.
         13    1    3    3    0    0  0.44507692453E+00 -0.12753678795E+02 -0.31227503212E+03  0.31253567813E+03  0.00000000000E+00 0.  1.
          3    1    3    3  501    0  0.12669666192E+02 -0.14848036341E+02 -0.39092270799E+03  0.39140969360E+03  0.00000000000E+00 0.  1.
         -3    1    1    2    0  502 -0.13114743117E+02  0.27601715136E+02 -0.29564085842E+03  0.29721602974E+03  0.00000000000E+00 0. -1.
<mgrwt>
<rscale>  1 0.30000000E+03</rscale>
<asrwt>0</asrwt>
<pdfrwt beam="1">  1       21 0.42232870E-02 0.30000000E+03</pdfrwt>
<pdfrwt beam="2">0</pdfrwt>
<totfact> 0.38366497E+04</totfact>
</mgrwt>
</event>
<event>
 6    1  0.6377696E-002  0.3000000E+03  0.7818608E-02  0.1093470E+00
         21   -1    0    0  501  502  0.00000000000E+00  0.00000000000E+00  0.24906280841E+01  0.24906280841E+01  0.00000000000E+00 0. -1.
         13   -1    0    0    0    0 -0.00000000000E+00 -0.00000000000E+00 -0.10000000000E+04  0.10000000000E+04  0.00000000000E+00 0.  1.
    9000005    2    1    2  501    0  0.38910507275E+02  0.27768690144E+02 -0.35695264480E+03  0.36015267313E+03  0.31031596838E+01 0.  0.
         13    1    3    3    0    0  0.42762690983E+01  0.42720149207E+01 -0.47079583632E+02  0.47466027681E+02  0.00000000000E+00 0.  1.
          3    1    3    3  501    0  0.34634238177E+02  0.23496675224E+02 -0.30987306117E+03  0.31268664545E+03  0.00000000000E+00 0.  1.
         -1    1    1    2    0  502 -0.38910507275E+02 -0.27768690144E+02 -0.64055672711E+03  0.64233795496E+03  0.00000000000E+00 0. -1.
<mgrwt>
<rscale>  1 0.30000000E+03</rscale>
<asrwt>0</asrwt>
<pdfrwt beam="1">  1       21 0.90568485E-02 0.30000000E+03</pdfrwt>
<pdfrwt beam="2">0</pdfrwt>
<totfact> 0.10262927E+04</totfact>
</mgrwt>
</event>
<event>
 6    1  0.6377696E-002  0.3000000E+03  0.7818608E-02  0.1093470E+00
         21   -1    0    0  501  502  0.00000000000E+00  0.00000000000E+00  0.23070206788E+01  0.23070206788E+01  0.00000000000E+00 0. -1.
         13   -1    0    0    0    0 -0.00000000000E+00 -0.00000000000E+00 -0.10000000000E+04  0.10000000000E+04  0.00000000000E+00 0.  1.
    9000005    2    1    2  501    0 -0.42218983972E+02  0.22164589103E+02 -0.55566270173E+03  0.55771228620E+03  0.28713182070E+01 0.  0.
         13    1    3    3    0    0 -0.29161452514E+02  0.14800467591E+02 -0.39532638715E+03  0.39667669018E+03  0.00000000000E+00 0.  1.
          3    1    3    3  501    0 -0.13057531458E+02  0.73641215126E+01 -0.16033631458E+03  0.16103559602E+03  0.00000000000E+00 0.  1.
         -1    1    1    2    0  502  0.42218983972E+02 -0.22164589103E+02 -0.44203027759E+03  0.44459473447E+03  0.00000000000E+00 0. -1.
<mgrwt>
<rscale>  1 0.30000000E+03</rscale>
<asrwt>0</asrwt>
<pdfrwt beam="1">  1       21 0.83891838E-02 0.30000000E+03</pdfrwt>
<pdfrwt beam="2">0</pdfrwt>
<totfact> 0.11749915E+04</totfact>
</mgrwt>
</event>
<event>
 6    1  0.6377696E-002  0.3000000E+03  0.7818608E-02  0.1093470E+00
         21   -1    0    0  501  502  0.00000000000E+00  0.00000000000E+00  0.18214868528E+01  0.18214868528E+01  0.00000000000E+00 0. -1.
         13   -1    0    0    0    0 -0.00000000000E+00 -0.00000000000E+00 -0.10000000000E+04  0.10000000000E+04  0.00000000000E+00 0.  1.
    9000005    2    1    2  501    0 -0.37113610355E+02  0.33076235034E+01 -0.74265894239E+03  0.74359946710E+03  0.30825814242E+01 0.  0.
         13    1    3    3    0    0 -0.20599415553E+02  0.23461502570E+01 -0.38408722315E+03  0.38464637699E+03  0.00000000000E+00 0.  1.
          3    1    3    3  501    0 -0.16514194802E+02  0.96147324643E+00 -0.35857171924E+03  0.35895309011E+03  0.00000000000E+00 0.  1.
         -3    1    1    2    0  502  0.37113610355E+02 -0.33076235034E+01 -0.25551957076E+03  0.25822201976E+03  0.00000000000E+00 0. -1.
<mgrwt>
<rscale>  1 0.30000000E+03</rscale>
<asrwt>0</asrwt>
<pdfrwt beam="1">  1       21 0.66236025E-02 0.30000000E+03</pdfrwt>
<pdfrwt beam="2">0</pdfrwt>
<totfact> 0.17760889E+04</totfact>
</mgrwt>
</event>
<event>
 6    1  0.6377696E-002  0.3000000E+03  0.7818608E-02  0.1093470E+00
         21   -1    0    0  501  502  0.00000000000E+00  0.00000000000E+00  0.11022326452E+01  0.11022326452E+01  0.00000000000E+00 0. -1.
         13   -1    0    0    0    0 -0.00000000000E+00 -0.00000000000E+00 -0.10000000000E+04  0.10000000000E+04  0.00000000000E+00 0.  1.
    9000005    2    1    2  501    0  0.22102914211E+02  0.21999925993E+02 -0.37930529675E+03  0.38072543973E+03  0.10335219061E+02 0.  0.
         13    1    3    3    0    0 -0.87128669153E-01 -0.57828830559E+00 -0.17469190862E+01  0.18422092886E+01  0.00000000000E+00 0.  1.
          1    1    3    3  501    0  0.22190042880E+02  0.22578214299E+02 -0.37755837766E+03  0.37888323044E+03  0.00000000000E+00 0.  1.
         -1    1    1    2    0  502 -0.22102914211E+02 -0.21999925993E+02 -0.61959247060E+03  0.62037679292E+03  0.00000000000E+00 0. -1.
<mgrwt>
<rscale>  1 0.30000000E+03</rscale>
<asrwt>0</asrwt>
<pdfrwt beam="1">  1       21 0.40081272E-02 0.30000000E+03</pdfrwt>
<pdfrwt beam="2">0</pdfrwt>
<totfact> 0.41903838E+04</totfact>
</mgrwt>
</event>
<event>
 6    1  0.6377696E-002  0.3000000E+03  0.7818608E-02  0.1093470E+00
         21   -1    0    0  501  502  0.00000000000E+00  0.00000000000E+00  0.11130189630E+01  0.11130189630E+01  0.00000000000E+00 0. -1.
         13   -1    0    0    0    0 -0.00000000000E+00 -0.00000000000E+00 -0.10000000000E+04  0.10000000000E+04  0.00000000000E+00 0.  1.
    9000005    2    1    2  501    0 -0.28942290632E+01 -0.33114916322E+02 -0.51495488330E+03  0.51604060224E+03  0.37943486203E+01 0.  0.
         13    1    3    3    0    0 -0.42775853200E+00 -0.12384855765E+02 -0.16609802135E+03  0.16655965996E+03  0.00000000000E+00 0.  1.
          1    1    3    3  501    0 -0.24664705312E+01 -0.20730060556E+02 -0.34885686195E+03  0.34948094228E+03  0.00000000000E+00 0.  1.
         -3    1    1    2    0  502  0.28942290632E+01  0.33114916322E+02 -0.48393209774E+03  0.48507241672E+03  0.00000000000E+00 0. -1.
<mgrwt>
<rscale>  1 0.30000000E+03</rscale>
<asrwt>0</asrwt>
<pdfrwt beam="1">  1       21 0.40473502E-02 0.30000000E+03</pdfrwt>
<pdfrwt beam="2">0</pdfrwt>
<totfact> 0.41221996E+04</totfact>
</mgrwt>
</event>
<event>
 6    1  0.6377696E-002  0.3000000E+03  0.7818608E-02  0.1093470E+00
         21   -1    0    0  501  502  0.00000000000E+00  0.00000000000E+00  0.16355841244E+01  0.16355841244E+01  0.00000000000E+00 0. -1.
         13   -1    0    0    0    0 -0.00000000000E+00 -0.00000000000E+00 -0.10000000000E+04  0.10000000000E+04  0.00000000000E+00 0.  1.
    9000005    2    1    2  501    0 -0.35102086129E+02  0.19398988355E+02 -0.43895181378E+03  0.44078717628E+03  0.24824889011E+01 0.  0.
         13    1    3    3    0    0 -0.21064413083E+02  0.12999314630E+02 -0.26809567776E+03  0.26923592649E+03  0.00000000000E+00 0.  1.
          3    1    3    3  501    0 -0.14037673046E+02  0.63996737254E+01 -0.17085613601E+03  0.17155124978E+03  0.00000000000E+00 0.  1.
         -1    1    1    2    0  502  0.35102086129E+02 -0.19398988355E+02 -0.55941260210E+03  0.56084840785E+03  0.00000000000E+00 0. -1.
<mgrwt>
<rscale>  1 0.30000000E+03</rscale>
<asrwt>0</asrwt>
<pdfrwt beam="1">  1       21 0.59475912E-02 0.30000000E+03</pdfrwt>
<pdfrwt beam="2">0</pdfrwt>
<totfact> 0.21392861E+04</totfact>
</mgrwt>
</event>
<event>
 6    1  0.6377696E-002  0.3000000E+03  0.7818608E-02  0.1093470E+00
         21   -1    0    0  501  502  0.00000000000E+00  0.00000000000E+00  0.24164223963E+01  0.24164223963E+01  0.00000000000E+00 0. -1.
         13   -1    0    0    0    0 -0.00000000000E+00 -0.00000000000E+00 -0.10000000000E+04  0.10000000000E+04  0.00000000000E+00 0.  1.
    9000005    2    1    2  501    0  0.29819334680E+02  0.25160820714E+02 -0.80321853311E+03  0.80417407036E+03  0.36964697295E+01 0.  0.
         13    1    3    3    0    0  0.17457333336E+01  0.17623368372E+01 -0.35807298586E+02  0.35893119787E+02  0.00000000000E+00 0.  1.
          3    1    3    3  501    0  0.28073601346E+02  0.23398483877E+02 -0.76741123453E+03  0.76828095058E+03  0.00000000000E+00 0.  1.
         -3    1    1    2    0  502 -0.29819334680E+02 -0.25160820714E+02 -0.19436504449E+03  0.19824235203E+03  0.00000000000E+00 0. -1.
<mgrwt>
<rscale>  1 0.30000000E+03</rscale>
<asrwt>0</asrwt>
<pdfrwt beam="1">  1       21 0.87870091E-02 0.30000000E+03</pdfrwt>
<pdfrwt beam="2">0</pdfrwt>
<totfact> 0.10827437E+04</totfact>
</mgrwt>
</event>
<event>
 6    1  0.6377696E-002  0.3000000E+03  0.7818608E-02  0.1093470E+00
         21   -1    0    0  501  502  0.00000000000E+00  0.00000000000E+00  0.23372141728E+01  0.23372141728E+01  0.00000000000E+00 0. -1.
         13   -1    0    0    0    0 -0.00000000000E+00 -0.00000000000E+00 -0.10000000000E+04  0.10000000000E+04  0.00000000000E+00 0.  1.
    9000005    2    1    2  501    0 -0.45862604696E+02  0.11785371386E+01 -0.34309462927E+03  0.34616327455E+03  0.32125620743E+01 0.  0.
         13    1    3    3    0    0 -0.38579350874E+02  0.18592168881E+01 -0.29417103585E+03  0.29669583976E+03  0.00000000000E+00 0.  1.
          3    1    3    3  501    0 -0.72832538225E+01 -0.68067974950E+00 -0.48923593418E+02  0.49467434784E+02  0.00000000000E+00 0.  1.
         -1    1    1    2    0  502  0.45862604696E+02 -0.11785371386E+01 -0.65456815656E+03  0.65617393963E+03  0.00000000000E+00 0. -1.
<mgrwt>
<rscale>  1 0.30000000E+03</rscale>
<asrwt>0</asrwt>
<pdfrwt beam="1">  1       21 0.84989786E-02 0.30000000E+03</pdfrwt>
<pdfrwt beam="2">0</pdfrwt>
<totfact> 0.11483695E+04</totfact>
</mgrwt>
</event>
<event>
 6    1  0.6377696E-002  0.3000000E+03  0.7818608E-02  0.1093470E+00
         21   -1    0    0  501  502  0.00000000000E+00  0.00000000000E+00  0.14551367812E+01  0.14551367812E+01  0.00000000000E+00 0. -1.
         13   -1    0    0    0    0 -0.00000000000E+00 -0.00000000000E+00 -0.10000000000E+04  0.10000000000E+04  0.00000000000E+00 0.  1.
    9000005    2    1    2  501    0 -0.41876003023E+01  0.36880041987E+02 -0.39960605122E+03  0.40136733152E+03  0.57502307887E+01 0.  0.
         13    1    3    3    0    0 -0.35831058461E+00  0.26159511827E+02 -0.28341213528E+03  0.28461708816E+03  0.00000000000E+00 0.  1.
          3    1    3    3  501    0 -0.38292897177E+01  0.10720530160E+02 -0.11619391593E+03  0.11675024337E+03  0.00000000000E+00 0.  1.
         -3    1    1    2    0  502  0.41876003023E+01 -0.36880041987E+02 -0.59893881200E+03  0.60008780526E+03  0.00000000000E+00 0. -1.
<mgrwt>
<rscale>  1 0.30000000E+03</rscale>
<asrwt>0</asrwt>
<pdfrwt beam="1">  1       21 0.52914176E-02 0.30000000E+03</pdfrwt>
<pdfrwt beam="2">0</pdfrwt>
<totfact> 0.26149240E+04</totfact>
</mgrwt>
</event>
<event>
 6    1  0.6377696E-002  0.3000000E+03  0.7818608E-02  0.1093470E+00
         21   -1    0    0  501  502  0.00000000000E+00  0.00000000000E+00  0.10230507510E+01  0.10230507510E+01  0.00000000000E+00 0. -1.
         13   -1    0    0    0    0 -0.00000000000E+00 -0.00000000000E+00 -0.10000000000E+04  0.10000000000E+04  0.00000000000E+00 0.  1.
    9000005    2    1    2  501    0 -0.63552238589E+01  0.30667889837E+02 -0.59485238110E+03  0.59568667819E+03  0.35149591963E+01 0.  0.
         13    1    3    3    0    0 -0.50041979696E+01  0.16148009606E+02 -0.33181526960E+03  0.33224565212E+03  0.00000000000E+00 0.  1.
          1    1    3    3  501    0 -0.13510258893E+01  0.14519880231E+02 -0.26303711150E+03  0.26344102607E+03  0.00000000000E+00 0.  1.
         -1    1    1    2    0  502  0.63552238589E+01 -0.30667889837E+02 -0.40412456815E+03  0.40533637256E+03  0.00000000000E+00 0. -1.
<mgrwt>
<rscale>  1 0.30000000E+03</rscale>
<asrwt>0</asrwt>
<pdfrwt beam="1">  1       21 0.37201924E-02 0.30000000E+03</pdfrwt>
<pdfrwt beam="2">0</pdfrwt>
<totfact> 0.47499494E+04</totfact>
</mgrwt>
</event>
<event>
 6    1  0.6377696E-002  0.3000000E+03  0.7818608E-02  0.1093470E+00
         21   -1    0    0  501  502  0.00000000000E+00  0.00000000000E+00  0.30617340935E+01  0.30617340935E+01  0.00000000000E+00 0. -1.
         13   -1    0    0    0    0 -0.00000000000E+00 -0.00000000000E+00 -0.10000000000E+04  0.10000000000E+04  0.00000000000E+00 0.  1.
    9000005    2    1    2  501    0 -0.53891598289E+02  0.80609694520E+00 -0.38685119225E+03  0.39059851756E+03  0.28987617748E+01 0.  0.
         13    1    3    3    0    0 -0.27411052785E+02  0.37635233863E+00 -0.20723628731E+03  0.20904158973E+03  0.00000000000E+00 0.  1.
          3    1    3    3  501    0 -0.26480545503E+02  0.42974460657E+00 -0.17961490493E+03  0.18155692783E+03  0.00000000000E+00 0.  1.
         -3    1    1    2    0  502  0.53891598289E+02 -0.80609694520E+00 -0.61008707366E+03  0.61246321653E+03  0.00000000000E+00 0. -1.
<mgrwt>
<rscale>  1 0.30000000E+03</rscale>
<asrwt>0</asrwt>
<pdfrwt beam="1">  1       21 0.11133602E-01 0.30000000E+03</pdfrwt>
<pdfrwt beam="2">0</pdfrwt>
<totfact> 0.70961265E+03</totfact>
</mgrwt>
</event>
<event>
 6    1  0.6377696E-002  0.3000000E+03  0.7818608E-02  0.1093470E+00
         21   -1    0    0  501  502  0.00000000000E+00  0.00000000000E+00  0.10643505542E+01  0.10643505542E+01  0.00000000000E+00 0. -1.
         13   -1    0    0    0    0 -0.00000000000E+00 -0.00000000000E+00 -0.10000000000E+04  0.10000000000E+04  0.00000000000E+00 0.  1.
    9000005    2    1    2  501    0  0.30238021056E+02  0.11707746326E+02 -0.54379649571E+03  0.54477161721E+03  0.31744176465E+01 0.  0.
         13    1    3    3    0    0  0.24816112807E+02  0.99517678393E+01 -0.46623301769E+03  0.46699904060E+03  0.00000000000E+00 0.  1.
          1    1    3    3  501    0  0.54219082487E+01  0.17559784867E+01 -0.77563478019E+02  0.77772576606E+02  0.00000000000E+00 0.  1.
         -1    1    1    2    0  502 -0.30238021056E+02 -0.11707746326E+02 -0.45513915373E+03  0.45629273334E+03  0.00000000000E+00 0. -1.
<mgrwt>
<rscale>  1 0.30000000E+03</rscale>
<asrwt>0</asrwt>
<pdfrwt beam="1">  1       21 0.38703738E-02 0.30000000E+03</pdfrwt>
<pdfrwt beam="2">0</pdfrwt>
<totfact> 0.44443970E+04</totfact>
</mgrwt>
</event>
<event>
 6    1  0.6377696E-002  0.3000000E+03  0.7818608E-02  0.1093470E+00
         21   -1    0    0  501  502  0.00000000000E+00  0.00000000000E+00  0.28056504409E+01  0.28056504409E+01  0.00000000000E+00 0. -1.
         13   -1    0    0    0    0 -0.00000000000E+00 -0.00000000000E+00 -0.10000000000E+04  0.10000000000E+04  0.00000000000E+00 0.  1.
    9000005    2    1    2  501    0 -0.41954101015E+01 -0.33445430457E+02 -0.88523758909E+03  0.88588467499E+03  0.31416507599E+01 0.  0.
         13    1    3    3    0    0 -0.29752978997E+01 -0.17114346110E+02 -0.42057304121E+03  0.42093162893E+03  0.00000000000E+00 0.  1.
          3    1    3    3  501    0 -0.12201122018E+01 -0.16331084348E+02 -0.46466454788E+03  0.46495304606E+03  0.00000000000E+00 0.  1.
         -1    1    1    2    0  502  0.41954101015E+01  0.33445430457E+02 -0.11195676047E+03  0.11692097545E+03  0.00000000000E+00 0. -1.
<mgrwt>
<rscale>  1 0.30000000E+03</rscale>
<asrwt>0</asrwt>
<pdfrwt beam="1">  1       21 0.10202387E-01 0.30000000E+03</pdfrwt>
<pdfrwt beam="2">0</pdfrwt>
<totfact> 0.83004516E+03</totfact>
</mgrwt>
</event>
<event>
 6    1  0.6377696E-002  0.3000000E+03  0.7818608E-02  0.1093470E+00
         21   -1    0    0  501  502  0.00000000000E+00  0.00000000000E+00  0.99480752360E+00  0.99480752360E+00  0.00000000000E+00 0. -1.
         13   -1    0    0    0    0 -0.00000000000E+00 -0.00000000000E+00 -0.10000000000E+04  0.10000000000E+04  0.00000000000E+00 0.  1.
    9000005    2    1    2  501    0  0.30904869246E+02 -0.55295005513E+01 -0.53266218992E+03  0.53359617429E+03  0.31909751492E+01 0.  0.
         13    1    3    3    0    0  0.14895656293E+02 -0.12378361871E+01 -0.23990430915E+03  0.24036948717E+03  0.00000000000E+00 0.  1.
          1    1    3    3  501    0  0.16009212952E+02 -0.42916643642E+01 -0.29275788077E+03  0.29322668712E+03  0.00000000000E+00 0.  1.
         -3    1    1    2    0  502 -0.30904869246E+02  0.55295005513E+01 -0.46634300255E+03  0.46739863324E+03  0.00000000000E+00 0. -1.
<mgrwt>
<rscale>  1 0.30000000E+03</rscale>
<asrwt>0</asrwt>
<pdfrwt beam="1">  1       21 0.36174895E-02 0.30000000E+03</pdfrwt>
<pdfrwt beam="2">0</pdfrwt>
<totfact> 0.49784025E+04</totfact>
</mgrwt>
</event>
<event>
 6    1  0.6377696E-002  0.3000000E+03  0.7818608E-02  0.1093470E+00
         21   -1    0    0  501  502  0.00000000000E+00  0.00000000000E+00  0.14453944263E+01  0.14453944263E+01  0.00000000000E+00 0. -1.
         13   -1    0    0    0    0 -0.00000000000E+00 -0.00000000000E+00 -0.10000000000E+04  0.10000000000E+04  0.00000000000E+00 0.  1.
    9000005    2    1    2  501    0 -0.37476285565E+02  0.52169864987E+01 -0.46372772789E+03  0.46528172723E+03  0.34628243991E+01 0.  0.
         13    1    3    3    0    0 -0.99994944644E+01  0.23222007813E+01 -0.14129234952E+03  0.14166478228E+03  0.00000000000E+00 0.  1.
          3    1    3    3  501    0 -0.27476791101E+02  0.28947857174E+01 -0.32243537837E+03  0.32361694495E+03  0.00000000000E+00 0.  1.
         -3    1    1    2    0  502  0.37476285565E+02 -0.52169864987E+01 -0.53482687769E+03  0.53616366720E+03  0.00000000000E+00 0. -1.
<mgrwt>
<rscale>  1 0.30000000E+03</rscale>
<asrwt>0</asrwt>
<pdfrwt beam="1">  1       21 0.52559908E-02 0.30000000E+03</pdfrwt>
<pdfrwt beam="2">0</pdfrwt>
<totfact> 0.26451316E+04</totfact>
</mgrwt>
</event>
<event>
 6    1  0.6377696E-002  0.3000000E+03  0.7818608E-02  0.1093470E+00
         21   -1    0    0  501  502  0.00000000000E+00  0.00000000000E+00  0.24470540489E+01  0.24470540489E+01  0.00000000000E+00 0. -1.
         13   -1    0    0    0    0 -0.00000000000E+00 -0.00000000000E+00 -0.10000000000E+04  0.10000000000E+04  0.00000000000E+00 0.  1.
    9000005    2    1    2  501    0  0.48164704946E+02 -0.20445554496E+01 -0.39358886289E+03  0.39656205453E+03  0.50250468289E+01 0.  0.
         13    1    3    3    0    0  0.38956561199E+02  0.24272850225E+00 -0.32133788911E+03  0.32369076532E+03  0.00000000000E+00 0.  1.
          3    1    3    3  501    0  0.92081437472E+01 -0.22872839519E+01 -0.72250973784E+02  0.72871289215E+02  0.00000000000E+00 0.  1.
         -3    1    1    2    0  502 -0.48164704946E+02  0.20445554496E+01 -0.60396408306E+03  0.60588499951E+03  0.00000000000E+00 0. -1.
<mgrwt>
<rscale>  1 0.30000000E+03</rscale>
<asrwt>0</asrwt>
<pdfrwt beam="1">  1       21 0.88983971E-02 0.30000000E+03</pdfrwt>
<pdfrwt beam="2">0</pdfrwt>
<totfact> 0.10588843E+04</totfact>
</mgrwt>
</event>
<event>
 6    1  0.6377696E-002  0.3000000E+03  0.7818608E-02  0.1093470E+00
         21   -1    0    0  501  502  0.00000000000E+00  0.00000000000E+00  0.26090796524E+01  0.26090796524E+01  0.00000000000E+00 0. -1.
         13   -1    0    0    0    0 -0.00000000000E+00 -0.00000000000E+00 -0.10000000000E+04  0.10000000000E+04  0.00000000000E+00 0.  1.
    9000005    2    1    2  501    0 -0.23315870430E+02 -0.42361983794E+02 -0.65914783177E+03  0.66092713039E+03  0.32619114946E+01 0.  0.
         13    1    3    3    0    0 -0.11135180181E+01 -0.27950171907E+01 -0.51524250424E+02  0.51612018224E+02  0.00000000000E+00 0.  1.
          3    1    3    3  501    0 -0.22202352412E+02 -0.39566966603E+02 -0.60762358135E+03  0.60931511216E+03  0.00000000000E+00 0.  1.
         -1    1    1    2    0  502  0.23315870430E+02  0.42361983794E+02 -0.33824308858E+03  0.34168194927E+03  0.00000000000E+00 0. -1.
<mgrwt>
<rscale>  1 0.30000000E+03</rscale>
<asrwt>0</asrwt>
<pdfrwt beam="1">  1       21 0.94875824E-02 0.30000000E+03</pdfrwt>
<pdfrwt beam="2">0</pdfrwt>
<totfact> 0.94497142E+03</totfact>
</mgrwt>
</event>
<event>
 6    1  0.6377696E-002  0.3000000E+03  0.7818608E-02  0.1093470E+00
         21   -1    0    0  501  502  0.00000000000E+00  0.00000000000E+00  0.21927074439E+01  0.21927074439E+01  0.00000000000E+00 0. -1.
         13   -1    0    0    0    0 -0.00000000000E+00 -0.00000000000E+00 -0.10000000000E+04  0.10000000000E+04  0.00000000000E+00 0.  1.
    9000005    2    1    2  501    0  0.45758754324E+02  0.17704877736E+01 -0.60062070477E+03  0.60237501931E+03  0.36653336736E+01 0.  0.
         13    1    3    3    0    0  0.28065603449E+01  0.10005896373E+01 -0.38109423591E+02  0.38225725984E+02  0.00000000000E+00 0.  1.
          3    1    3    3  501    0  0.42952193979E+02  0.76989813638E+00 -0.56251128118E+03  0.56414929333E+03  0.00000000000E+00 0.  1.
         -1    1    1    2    0  502 -0.45758754324E+02 -0.17704877736E+01 -0.39718658779E+03  0.39981768813E+03  0.00000000000E+00 0. -1.
<mgrwt>
<rscale>  1 0.30000000E+03</rscale>
<asrwt>0</asrwt>
<pdfrwt beam="1">  1       21 0.79734984E-02 0.30000000E+03</pdfrwt>
<pdfrwt beam="2">0</pdfrwt>
<totfact> 0.12848529E+04</totfact>
</mgrwt>
</event>
<event>
 6    1  0.6377696E-002  0.3000000E+03  0.7818608E-02  0.1093470E+00
         21   -1    0    0  501  502  0.00000000000E+00  0.00000000000E+00  0.13761518958E+01  0.13761518958E+01  0.00000000000E+00 0. -1.
         13   -1    0    0    0    0 -0.00000000000E+00 -0.00000000000E+00 -0.10000000000E+04  0.10000000000E+04  0.00000000000E+00 0.  1.
    9000005    2    1    2  501    0  0.10366522228E+02  0.35146485723E+02 -0.57176151361E+03  0.57294390188E+03  0.32781117784E+01 0.  0.
         13    1    3    3    0    0  0.34845943438E+01  0.17455712851E+02 -0.28244896592E+03  0.28300929783E+03  0.00000000000E+00 0.  1.
          3    1    3    3  501    0  0.68819278838E+01  0.17690772872E+02 -0.28931254769E+03  0.28993460405E+03  0.00000000000E+00 0.  1.
         -1    1    1    2    0  502 -0.10366522228E+02 -0.35146485723E+02 -0.42686233450E+03  0.42843225002E+03  0.00000000000E+00 0. -1.
<mgrwt>
<rscale>  1 0.30000000E+03</rscale>
<asrwt>0</asrwt>
<pdfrwt beam="1">  1       21 0.50041993E-02 0.30000000E+03</pdfrwt>
<pdfrwt beam="2">0</pdfrwt>
<totfact> 0.28763461E+04</totfact>
</mgrwt>
</event>
<event>
 6    1  0.6377696E-002  0.3000000E+03  0.7818608E-02  0.1093470E+00
         21   -1    0    0  501  502  0.00000000000E+00  0.00000000000E+00  0.12871533464E+01  0.12871533464E+01  0.00000000000E+00 0. -1.
         13   -1    0    0    0    0 -0.00000000000E+00 -0.00000000000E+00 -0.10000000000E+04  0.10000000000E+04  0.00000000000E+00 0.  1.
    9000005    2    1    2  501    0  0.35493495970E+02 -0.20595836035E+01 -0.54516767524E+03  0.54635061639E+03  0.52126545791E+01 0.  0.
         13    1    3    3    0    0  0.36689076210E+01  0.41225545997E-01 -0.84891776215E+02  0.84971031838E+02  0.00000000000E+00 0.  1.
          3    1    3    3  501    0  0.31824588350E+02 -0.21008091495E+01 -0.46027589902E+03  0.46137958456E+03  0.00000000000E+00 0.  1.
         -3    1    1    2    0  502 -0.35493495970E+02  0.20595836035E+01 -0.45354517141E+03  0.45493653695E+03  0.00000000000E+00 0. -1.
<mgrwt>
<rscale>  1 0.30000000E+03</rscale>
<asrwt>0</asrwt>
<pdfrwt beam="1">  1       21 0.46805675E-02 0.30000000E+03</pdfrwt>
<pdfrwt beam="2">0</pdfrwt>
<totfact> 0.32230559E+04</totfact>
</mgrwt>
</event>
<event>
 6    1  0.6377696E-002  0.3000000E+03  0.7818608E-02  0.1093470E+00
         21   -1    0    0  501  502  0.00000000000E+00  0.00000000000E+00  0.10087864829E+01  0.10087864829E+01  0.00000000000E+00 0. -1.
         13   -1    0    0    0    0 -0.00000000000E+00 -0.00000000000E+00 -0.10000000000E+04  0.10000000000E+04  0.00000000000E+00 0.  1.
    9000005    2    1    2  501    0 -0.28036705350E+02  0.14716263363E+02 -0.50732154554E+03  0.50832056086E+03  0.34665219344E+01 0.  0.
         13    1    3    3    0    0 -0.10439140123E+02  0.43083148781E+01 -0.16036233454E+03  0.16075949603E+03  0.00000000000E+00 0.  1.
          1    1    3    3  501    0 -0.17597565227E+02  0.10407948485E+02 -0.34695921100E+03  0.34756106483E+03  0.00000000000E+00 0.  1.
         -3    1    1    2    0  502  0.28036705350E+02 -0.14716263363E+02 -0.49166966798E+03  0.49268822562E+03  0.00000000000E+00 0. -1.
<mgrwt>
<rscale>  1 0.30000000E+03</rscale>
<asrwt>0</asrwt>
<pdfrwt beam="1">  1       21 0.36683222E-02 0.30000000E+03</pdfrwt>
<pdfrwt beam="2">0</pdfrwt>
<totfact> 0.48632159E+04</totfact>
</mgrwt>
</event>
<event>
 6    1  0.6377696E-002  0.3000000E+03  0.7818608E-02  0.1093470E+00
         21   -1    0    0  501  502  0.00000000000E+00  0.00000000000E+00  0.15084647612E+01  0.15084647612E+01  0.00000000000E+00 0. -1.
         13   -1    0    0    0    0 -0.00000000000E+00 -0.00000000000E+00 -0.10000000000E+04  0.10000000000E+04  0.00000000000E+00 0.  1.
    9000005    2    1    2  501    0  0.33023383112E+02  0.14266659040E+02 -0.68773104990E+03  0.68867278803E+03  0.14596486573E+01 0.  0.
         13    1    3    3    0    0  0.11662271995E+02  0.57775878857E+01 -0.25201100011E+03  0.25234685115E+03  0.00000000000E+00 0.  1.
          3    1    3    3  501    0  0.21361111117E+02  0.84890711540E+01 -0.43572004979E+03  0.43632593687E+03  0.00000000000E+00 0.  1.
         -3    1    1    2    0  502 -0.33023383112E+02 -0.14266659040E+02 -0.31076048534E+03  0.31283567674E+03  0.00000000000E+00 0. -1.
<mgrwt>
<rscale>  1 0.30000000E+03</rscale>
<asrwt>0</asrwt>
<pdfrwt beam="1">  1       21 0.54853380E-02 0.30000000E+03</pdfrwt>
<pdfrwt beam="2">0</pdfrwt>
<totfact> 0.24586416E+04</totfact>
</mgrwt>
</event>
<event>
 6    1  0.6377696E-002  0.3000000E+03  0.7818608E-02  0.1093470E+00
         21   -1    0    0  501  502  0.00000000000E+00  0.00000000000E+00  0.18962585655E+01  0.18962585655E+01  0.00000000000E+00 0. -1.
         13   -1    0    0    0    0 -0.00000000000E+00 -0.00000000000E+00 -0.10000000000E+04  0.10000000000E+04  0.00000000000E+00 0.  1.
    9000005    2    1    2  501    0 -0.46384115250E+01 -0.34076651695E+02 -0.19346164625E+03  0.19651955516E+03  0.31295265845E+01 0.  0.
         13    1    3    3    0    0 -0.19655135391E+01 -0.87690500769E+01 -0.57253126076E+02  0.57954119165E+02  0.00000000000E+00 0.  1.
          3    1    3    3  501    0 -0.26728979858E+01 -0.25307601618E+02 -0.13620852018E+03  0.13856543599E+03  0.00000000000E+00 0.  1.
         -3    1    1    2    0  502  0.46384115250E+01  0.34076651695E+02 -0.80464209518E+03  0.80537670341E+03  0.00000000000E+00 0. -1.
<mgrwt>
<rscale>  1 0.30000000E+03</rscale>
<asrwt>0</asrwt>
<pdfrwt beam="1">  1       21 0.68955002E-02 0.30000000E+03</pdfrwt>
<pdfrwt beam="2">0</pdfrwt>
<totfact> 0.16562970E+04</totfact>
</mgrwt>
</event>
<event>
 6    1  0.6377696E-002  0.3000000E+03  0.7818608E-02  0.1093470E+00
         21   -1    0    0  501  502  0.00000000000E+00  0.00000000000E+00  0.91125270914E+00  0.91125270914E+00  0.00000000000E+00 0. -1.
         13   -1    0    0    0    0 -0.00000000000E+00 -0.00000000000E+00 -0.10000000000E+04  0.10000000000E+04  0.00000000000E+00 0.  1.
    9000005    2    1    2  501    0  0.30042927554E+02 -0.16403674727E+01 -0.49059732809E+03  0.49153046027E+03  0.33446593428E+01 0.  0.
         13    1    3    3    0    0  0.22161333367E+00  0.25950357833E+00 -0.32438826929E+01  0.32617831782E+01  0.00000000000E+00 0.  1.
          3    1    3    3  501    0  0.29821314221E+02 -0.18998710511E+01 -0.48735344539E+03  0.48826867709E+03  0.00000000000E+00 0.  1.
         -1    1    1    2    0  502 -0.30042927554E+02  0.16403674727E+01 -0.50849141921E+03  0.50938079244E+03  0.00000000000E+00 0. -1.
<mgrwt>
<rscale>  1 0.30000000E+03</rscale>
<asrwt>0</asrwt>
<pdfrwt beam="1">  1       21 0.33136532E-02 0.30000000E+03</pdfrwt>
<pdfrwt beam="2">0</pdfrwt>
<totfact> 0.57655033E+04</totfact>
</mgrwt>
</event>
<event>
 6    1  0.6377696E-002  0.3000000E+03  0.7818608E-02  0.1093470E+00
         21   -1    0    0  501  502  0.00000000000E+00  0.00000000000E+00  0.19558557091E+01  0.19558557091E+01  0.00000000000E+00 0. -1.
         13   -1    0    0    0    0 -0.00000000000E+00 -0.00000000000E+00 -0.10000000000E+04  0.10000000000E+04  0.00000000000E+00 0.  1.
    9000005    2    1    2  501    0  0.38155723449E+02  0.21778789821E+02 -0.55149081936E+03  0.55324654343E+03  0.30723057102E+01 0.  0.
         13    1    3    3    0    0  0.33684155071E+02  0.19460093722E+02 -0.47521007372E+03  0.47679967672E+03  0.00000000000E+00 0.  1.
          1    1    3    3  501    0  0.44715683774E+01  0.23186960992E+01 -0.76280745635E+02  0.76446866711E+02  0.00000000000E+00 0.  1.
         -1    1    1    2    0  502 -0.38155723449E+02 -0.21778789821E+02 -0.44655332493E+03  0.44870931228E+03  0.00000000000E+00 0. -1.
<mgrwt>
<rscale>  1 0.30000000E+03</rscale>
<asrwt>0</asrwt>
<pdfrwt beam="1">  1       21 0.71122176E-02 0.30000000E+03</pdfrwt>
<pdfrwt beam="2">0</pdfrwt>
<totfact> 0.15694530E+04</totfact>
</mgrwt>
</event>
<event>
 6    1  0.6377696E-002  0.3000000E+03  0.7818608E-02  0.1093470E+00
         21   -1    0    0  501  502  0.00000000000E+00  0.00000000000E+00  0.16038968292E+01  0.16038968292E+01  0.00000000000E+00 0. -1.
         13   -1    0    0    0    0 -0.00000000000E+00 -0.00000000000E+00 -0.10000000000E+04  0.10000000000E+04  0.00000000000E+00 0.  1.
    9000005    2    1    2  501    0 -0.17886179577E+02  0.30926356381E+02 -0.29084549209E+03  0.29315190680E+03  0.84015029046E+01 0.  0.
         13    1    3    3    0    0 -0.46108222226E+01  0.13770390713E+02 -0.94060029149E+02  0.95174431574E+02  0.00000000000E+00 0.  1.
          1    1    3    3  501    0 -0.13275357355E+02  0.17155965668E+02 -0.19678546294E+03  0.19797747522E+03  0.00000000000E+00 0.  1.
         -3    1    1    2    0  502  0.17886179577E+02 -0.30926356381E+02 -0.70755061108E+03  0.70845199003E+03  0.00000000000E+00 0. -1.
<mgrwt>
<rscale>  1 0.30000000E+03</rscale>
<asrwt>0</asrwt>
<pdfrwt beam="1">  1       21 0.58323644E-02 0.30000000E+03</pdfrwt>
<pdfrwt beam="2">0</pdfrwt>
<totfact> 0.22126465E+04</totfact>
</mgrwt>
</event>
<event>
 6    1  0.6377696E-002  0.3000000E+03  0.7818608E-02  0.1093470E+00
         21   -1    0    0  501  502  0.00000000000E+00  0.00000000000E+00  0.23391109922E+01  0.23391109922E+01  0.00000000000E+00 0. -1.
         13   -1    0    0    0    0 -0.00000000000E+00 -0.00000000000E+00 -0.10000000000E+04  0.10000000000E+04  0.00000000000E+00 0.  1.
    9000005    2    1    2  501    0  0.42108205734E+02 -0.20308025742E+02 -0.62647169493E+03  0.62821756029E+03  0.22364276049E+01 0.  0.
         13    1    3    3    0    0  0.13616626760E+02 -0.71963779362E+01 -0.21837274950E+03  0.21891518473E+03  0.00000000000E+00 0.  1.
          3    1    3    3  501    0  0.28491578974E+02 -0.13111647806E+02 -0.40809894543E+03  0.40930237557E+03  0.00000000000E+00 0.  1.
         -3    1    1    2    0  502 -0.42108205734E+02  0.20308025742E+02 -0.37118919408E+03  0.37412155070E+03  0.00000000000E+00 0. -1.
<mgrwt>
<rscale>  1 0.30000000E+03</rscale>
<asrwt>0</asrwt>
<pdfrwt beam="1">  1       21 0.85058761E-02 0.30000000E+03</pdfrwt>
<pdfrwt beam="2">0</pdfrwt>
<totfact> 0.11467279E+04</totfact>
</mgrwt>
</event>
<event>
 6    1  0.6377696E-002  0.3000000E+03  0.7818608E-02  0.1093470E+00
         21   -1    0    0  501  502  0.00000000000E+00  0.00000000000E+00  0.13146965613E+01  0.13146965613E+01  0.00000000000E+00 0. -1.
         13   -1    0    0    0    0 -0.00000000000E+00 -0.00000000000E+00 -0.10000000000E+04  0.10000000000E+04  0.00000000000E+00 0.  1.
    9000005    2    1    2  501    0  0.19699050634E+01 -0.36101806156E+02 -0.49171262189E+03  0.49305440816E+03  0.37584494225E+01 0.  0.
         13    1    3    3    0    0 -0.54116025805E+00 -0.90362158422E+00 -0.12484643055E+02  0.12528994318E+02  0.00000000000E+00 0.  1.
          1    1    3    3  501    0  0.25110653214E+01 -0.35198184572E+02 -0.47922797884E+03  0.48052541384E+03  0.00000000000E+00 0.  1.
         -3    1    1    2    0  502 -0.19699050634E+01  0.36101806156E+02 -0.50697268155E+03  0.50826028840E+03  0.00000000000E+00 0. -1.
<mgrwt>
<rscale>  1 0.30000000E+03</rscale>
<asrwt>0</asrwt>
<pdfrwt beam="1">  1       21 0.47807248E-02 0.30000000E+03</pdfrwt>
<pdfrwt beam="2">0</pdfrwt>
<totfact> 0.31090670E+04</totfact>
</mgrwt>
</event>
<event>
 6    1  0.6377696E-002  0.3000000E+03  0.7818608E-02  0.1093470E+00
         21   -1    0    0  501  502  0.00000000000E+00  0.00000000000E+00  0.30043233003E+01  0.30043233003E+01  0.00000000000E+00 0. -1.
         13   -1    0    0    0    0 -0.00000000000E+00 -0.00000000000E+00 -0.10000000000E+04  0.10000000000E+04  0.00000000000E+00 0.  1.
    9000005    2    1    2  501    0 -0.43472578077E+00  0.52712022508E+02 -0.36260867758E+03  0.36643098820E+03  0.28053086505E+01 0.  0.
         13    1    3    3    0    0  0.11690536823E+01  0.21515851514E+02 -0.15008607160E+03  0.15162495652E+03  0.00000000000E+00 0.  1.
          1    1    3    3  501    0 -0.16037794631E+01  0.31196170994E+02 -0.21252260598E+03  0.21480603168E+03  0.00000000000E+00 0.  1.
         -1    1    1    2    0  502  0.43472578077E+00 -0.52712022508E+02 -0.63438699912E+03  0.63657333510E+03  0.00000000000E+00 0. -1.
<mgrwt>
<rscale>  1 0.30000000E+03</rscale>
<asrwt>0</asrwt>
<pdfrwt beam="1">  1       21 0.10924835E-01 0.30000000E+03</pdfrwt>
<pdfrwt beam="2">0</pdfrwt>
<totfact> 0.73420113E+03</totfact>
</mgrwt>
</event>
<event>
 6    1  0.6377696E-002  0.3000000E+03  0.7818608E-02  0.1093470E+00
         21   -1    0    0  501  502  0.00000000000E+00  0.00000000000E+00  0.16960469664E+01  0.16960469664E+01  0.00000000000E+00 0. -1.
         13   -1    0    0    0    0 -0.00000000000E+00 -0.00000000000E+00 -0.10000000000E+04  0.10000000000E+04  0.00000000000E+00 0.  1.
    9000005    2    1    2  501    0  0.35471112260E+01 -0.35015617862E+02 -0.24171099338E+03  0.24428494189E+03  0.35004317262E+01 0.  0.
         13    1    3    3    0    0  0.29625787607E+01 -0.34363848871E+02 -0.23608479943E+03  0.23859103819E+03  0.00000000000E+00 0.  1.
          3    1    3    3  501    0  0.58453246523E+00 -0.65176899027E+00 -0.56261939479E+01  0.56939037013E+01  0.00000000000E+00 0.  1.
         -1    1    1    2    0  502 -0.35471112260E+01  0.35015617862E+02 -0.75659295966E+03  0.75741110508E+03  0.00000000000E+00 0. -1.
<mgrwt>
<rscale>  1 0.30000000E+03</rscale>
<asrwt>0</asrwt>
<pdfrwt beam="1">  1       21 0.61674565E-02 0.30000000E+03</pdfrwt>
<pdfrwt beam="2">0</pdfrwt>
<totfact> 0.20094132E+04</totfact>
</mgrwt>
</event>
<event>
 6    1  0.6377696E-002  0.3000000E+03  0.7818608E-02  0.1093470E+00
         21   -1    0    0  501  502  0.00000000000E+00  0.00000000000E+00  0.14672111900E+01  0.14672111900E+01  0.00000000000E+00 0. -1.
         13   -1    0    0    0    0 -0.00000000000E+00 -0.00000000000E+00 -0.10000000000E+04  0.10000000000E+04  0.00000000000E+00 0.  1.
    9000005    2    1    2  501    0 -0.29590452987E+02  0.10470446214E+02 -0.21520154789E+03  0.21750735370E+03  0.35380147172E+01 0.  0.
         13    1    3    3    0    0 -0.19260913029E+02  0.83061034916E+01 -0.13683730469E+03  0.13843562432E+03  0.00000000000E+00 0.  1.
          1    1    3    3  501    0 -0.10329539957E+02  0.21643427228E+01 -0.78364243197E+02  0.79071729379E+02  0.00000000000E+00 0.  1.
         -3    1    1    2    0  502  0.29590452987E+02 -0.10470446214E+02 -0.78333124092E+03  0.78395985749E+03  0.00000000000E+00 0. -1.
<mgrwt>
<rscale>  1 0.30000000E+03</rscale>
<asrwt>0</asrwt>
<pdfrwt beam="1">  1       21 0.53353247E-02 0.30000000E+03</pdfrwt>
<pdfrwt beam="2">0</pdfrwt>
<totfact> 0.25782205E+04</totfact>
</mgrwt>
</event>
<event>
 6    1  0.6377696E-002  0.3000000E+03  0.7818608E-02  0.1093470E+00
         21   -1    0    0  501  502  0.00000000000E+00  0.00000000000E+00  0.22562401930E+01  0.22562401930E+01  0.00000000000E+00 0. -1.
         13   -1    0    0    0    0 -0.00000000000E+00 -0.00000000000E+00 -0.10000000000E+04  0.10000000000E+04  0.00000000000E+00 0.  1.
    9000005    2    1    2  501    0  0.10663848876E+02 -0.34691619611E+02 -0.82004749729E+03  0.82089144797E+03  0.82246824599E+01 0.  0.
         13    1    3    3    0    0  0.50142952151E+01 -0.23962729538E+02 -0.61356944287E+03  0.61405766569E+03  0.00000000000E+00 0.  1.
          1    1    3    3  501    0  0.56495536607E+01 -0.10728890073E+02 -0.20647805442E+03  0.20683378228E+03  0.00000000000E+00 0.  1.
         -1    1    1    2    0  502 -0.10663848876E+02  0.34691619611E+02 -0.17769626252E+03  0.18136479222E+03  0.00000000000E+00 0. -1.
<mgrwt>
<rscale>  1 0.30000000E+03</rscale>
<asrwt>0</asrwt>
<pdfrwt beam="1">  1       21 0.82045271E-02 0.30000000E+03</pdfrwt>
<pdfrwt beam="2">0</pdfrwt>
<totfact> 0.12219433E+04</totfact>
</mgrwt>
</event>
<event>
 6    1  0.6377696E-002  0.3000000E+03  0.7818608E-02  0.1093470E+00
         21   -1    0    0  501  502  0.00000000000E+00  0.00000000000E+00  0.10812553949E+01  0.10812553949E+01  0.00000000000E+00 0. -1.
         13   -1    0    0    0    0 -0.00000000000E+00 -0.00000000000E+00 -0.10000000000E+04  0.10000000000E+04  0.00000000000E+00 0.  1.
    9000005    2    1    2  501    0 -0.27926139924E+02  0.17190666523E+02 -0.49558634994E+03  0.49668172345E+03  0.33935020572E+01 0.  0.
         13    1    3    3    0    0 -0.14383425795E+02  0.71899334481E+01 -0.25617427391E+03  0.25667846948E+03  0.00000000000E+00 0.  1.
          3    1    3    3  501    0 -0.13542714128E+02  0.10000733075E+02 -0.23941207603E+03  0.24000325397E+03  0.00000000000E+00 0.  1.
         -1    1    1    2    0  502  0.27926139924E+02 -0.17190666523E+02 -0.50333239467E+03  0.50439953195E+03  0.00000000000E+00 0. -1.
<mgrwt>
<rscale>  1 0.30000000E+03</rscale>
<asrwt>0</asrwt>
<pdfrwt beam="1">  1       21 0.39318461E-02 0.30000000E+03</pdfrwt>
<pdfrwt beam="2">0</pdfrwt>
<totfact> 0.43281448E+04</totfact>
</mgrwt>
</event>
<event>
 6    1  0.6377696E-002  0.3000000E+03  0.7818608E-02  0.1093470E+00
         21   -1    0    0  501  502  0.00000000000E+00  0.00000000000E+00  0.19716677792E+01  0.19716677792E+01  0.00000000000E+00 0. -1.
         13   -1    0    0    0    0 -0.00000000000E+00 -0.00000000000E+00 -0.10000000000E+04  0.10000000000E+04  0.00000000000E+00 0.  1.
    9000005    2    1    2  501    0  0.79594397162E+01  0.42361932944E+02 -0.61753990217E+03  0.61904957198E+03  0.29926179167E+01 0.  0.
         13    1    3    3    0    0  0.20712975761E+01  0.11498237621E+02 -0.18709000917E+03  0.18745445119E+03  0.00000000000E+00 0.  1.
          1    1    3    3  501    0  0.58881421400E+01  0.30863695322E+02 -0.43044989300E+03  0.43159512079E+03  0.00000000000E+00 0.  1.
         -1    1    1    2    0  502 -0.79594397162E+01 -0.42361932944E+02 -0.38048843005E+03  0.38292209580E+03  0.00000000000E+00 0. -1.
<mgrwt>
<rscale>  1 0.30000000E+03</rscale>
<asrwt>0</asrwt>
<pdfrwt beam="1">  1       21 0.71697161E-02 0.30000000E+03</pdfrwt>
<pdfrwt beam="2">0</pdfrwt>
<totfact> 0.15475771E+04</totfact>
</mgrwt>
</event>
<event>
 6    1  0.6377696E-002  0.3000000E+03  0.7818608E-02  0.1093470E+00
         21   -1    0    0  501  502  0.00000000000E+00  0.00000000000E+00  0.94570949043E+00  0.94570949043E+00  0.00000000000E+00 0. -1.
         13   -1    0    0    0    0 -0.00000000000E+00 -0.00000000000E+00 -0.10000000000E+04  0.10000000000E+04  0.00000000000E+00 0.  1.
    9000005    2    1    2  501    0  0.25267203359E+01  0.30375492358E+02 -0.55715781916E+03  0.55799927227E+03  0.30491893084E+01 0.  0.
         13    1    3    3    0    0  0.20786331862E+01  0.28123753824E+02 -0.49908759647E+03  0.49988368167E+03  0.00000000000E+00 0.  1.
          3    1    3    3  501    0  0.44808714973E+00  0.22517385342E+01 -0.58070222690E+02  0.58115590608E+02  0.00000000000E+00 0.  1.
         -3    1    1    2    0  502 -0.25267203359E+01 -0.30375492358E+02 -0.44189647135E+03  0.44294643722E+03  0.00000000000E+00 0. -1.
<mgrwt>
<rscale>  1 0.30000000E+03</rscale>
<asrwt>0</asrwt>
<pdfrwt beam="1">  1       21 0.34389509E-02 0.30000000E+03</pdfrwt>
<pdfrwt beam="2">0</pdfrwt>
<totfact> 0.54189215E+04</totfact>
</mgrwt>
</event>
<event>
 6    1  0.6377696E-002  0.3000000E+03  0.7818608E-02  0.1093470E+00
         21   -1    0    0  501  502  0.00000000000E+00  0.00000000000E+00  0.11741710745E+01  0.11741710745E+01  0.00000000000E+00 0. -1.
         13   -1    0    0    0    0 -0.00000000000E+00 -0.00000000000E+00 -0.10000000000E+04  0.10000000000E+04  0.00000000000E+00 0.  1.
    9000005    2    1    2  501    0  0.28601970626E+02 -0.15964252365E+02 -0.64393683265E+03  0.64477673877E+03  0.30770660807E+01 0.  0.
         13    1    3    3    0    0  0.18255785966E+02 -0.11398278877E+02 -0.40187635729E+03  0.40245223447E+03  0.00000000000E+00 0.  1.
          1    1    3    3  501    0  0.10346184661E+02 -0.45659734880E+01 -0.24206047536E+03  0.24232450430E+03  0.00000000000E+00 0.  1.
         -1    1    1    2    0  502 -0.28601970626E+02  0.15964252365E+02 -0.35488899627E+03  0.35639743230E+03  0.00000000000E+00 0. -1.
<mgrwt>
<rscale>  1 0.30000000E+03</rscale>
<asrwt>0</asrwt>
<pdfrwt beam="1">  1       21 0.42697220E-02 0.30000000E+03</pdfrwt>
<pdfrwt beam="2">0</pdfrwt>
<totfact> 0.37664068E+04</totfact>
</mgrwt>
</event>
<event>
 6    1  0.6377696E-002  0.3000000E+03  0.7818608E-02  0.1093470E+00
         21   -1    0    0  501  502  0.00000000000E+00  0.00000000000E+00  0.20875846861E+01  0.20875846861E+01  0.00000000000E+00 0. -1.
         13   -1    0    0    0    0 -0.00000000000E+00 -0.00000000000E+00 -0.10000000000E+04  0.10000000000E+04  0.00000000000E+00 0.  1.
    9000005    2    1    2  501    0 -0.17163680293E+02  0.26989075984E+02 -0.14264352930E+03  0.14622084884E+03  0.32183910196E+01 0.  0.
         13    1    3    3    0    0 -0.64633019888E+01  0.10619693054E+02 -0.48541988730E+02  0.50108650181E+02  0.00000000000E+00 0.  1.
          1    1    3    3  501    0 -0.10700378305E+02  0.16369382930E+02 -0.94101540570E+02  0.96112198658E+02  0.00000000000E+00 0.  1.
         -3    1    1    2    0  502  0.17163680293E+02 -0.26989075984E+02 -0.85526888601E+03  0.85586673585E+03  0.00000000000E+00 0. -1.
<mgrwt>
<rscale>  1 0.30000000E+03</rscale>
<asrwt>0</asrwt>
<pdfrwt beam="1">  1       21 0.75912330E-02 0.30000000E+03</pdfrwt>
<pdfrwt beam="2">0</pdfrwt>
<totfact> 0.14004746E+04</totfact>
</mgrwt>
</event>
<event>
 6    1  0.6377696E-002  0.3000000E+03  0.7818608E-02  0.1093470E+00
         21   -1    0    0  501  502  0.00000000000E+00  0.00000000000E+00  0.10295934967E+01  0.10295934967E+01  0.00000000000E+00 0. -1.
         13   -1    0    0    0    0 -0.00000000000E+00 -0.00000000000E+00 -0.10000000000E+04  0.10000000000E+04  0.00000000000E+00 0.  1.
    9000005    2    1    2  501    0  0.22347889399E+02 -0.21561101527E+02 -0.37902862628E+03  0.38031055872E+03  0.30186552431E+01 0.  0.
         13    1    3    3    0    0  0.11460100464E+02 -0.97271040303E+01 -0.16894491759E+03  0.16961230980E+03  0.00000000000E+00 0.  1.
          3    1    3    3  501    0  0.10887788935E+02 -0.11833997497E+02 -0.21008370869E+03  0.21069824893E+03  0.00000000000E+00 0.  1.
         -3    1    1    2    0  502 -0.22347889399E+02  0.21561101527E+02 -0.61994178023E+03  0.62071903477E+03  0.00000000000E+00 0. -1.
<mgrwt>
<rscale>  1 0.30000000E+03</rscale>
<asrwt>0</asrwt>
<pdfrwt beam="1">  1       21 0.37439842E-02 0.30000000E+03</pdfrwt>
<pdfrwt beam="2">0</pdfrwt>
<totfact> 0.46993798E+04</totfact>
</mgrwt>
</event>
<event>
 6    1  0.6377696E-002  0.3000000E+03  0.7818608E-02  0.1093470E+00
         21   -1    0    0  501  502  0.00000000000E+00  0.00000000000E+00  0.21591621646E+02  0.21591621646E+02  0.00000000000E+00 0. -1.
         13   -1    0    0    0    0 -0.00000000000E+00 -0.00000000000E+00 -0.10000000000E+04  0.10000000000E+04  0.00000000000E+00 0.  1.
    9000005    2    1    2  501    0  0.37275072415E+02  0.10744590161E+03 -0.16593416032E+03  0.20119634633E+03  0.34309500243E+01 0.  0.
         13    1    3    3    0    0  0.70548487309E+01  0.22739850732E+02 -0.32725824582E+02  0.40470375542E+02  0.00000000000E+00 0.  1.
          1    1    3    3  501    0  0.30220223684E+02  0.84706050877E+02 -0.13320833574E+03  0.16072597078E+03  0.00000000000E+00 0.  1.
         -3    1    1    2    0  502 -0.37275072415E+02 -0.10744590161E+03 -0.81247421804E+03  0.82039527532E+03  0.00000000000E+00 0. -1.
<mgrwt>
<rscale>  1 0.30000000E+03</rscale>
<asrwt>0</asrwt>
<pdfrwt beam="1">  1       21 0.78515153E-01 0.30000000E+03</pdfrwt>
<pdfrwt beam="2">0</pdfrwt>
<totfact> 0.13460755E+02</totfact>
</mgrwt>
</event>
<event>
 6    1  0.6377696E-002  0.3000000E+03  0.7818608E-02  0.1093470E+00
         21   -1    0    0  501  502  0.00000000000E+00  0.00000000000E+00  0.10337158937E+01  0.10337158937E+01  0.00000000000E+00 0. -1.
         13   -1    0    0    0    0 -0.00000000000E+00 -0.00000000000E+00 -0.10000000000E+04  0.10000000000E+04  0.00000000000E+00 0.  1.
    9000005    2    1    2  501    0 -0.28779002194E+02 -0.13424507483E+02 -0.47004742166E+03  0.47116239999E+03  0.64015767238E+01 0.  0.
         13    1    3    3    0    0 -0.21013478131E+02 -0.66463815123E+01 -0.30809182746E+03  0.30887912652E+03  0.00000000000E+00 0.  1.
          1    1    3    3  501    0 -0.77655240625E+01 -0.67781259703E+01 -0.16195559420E+03  0.16228327347E+03  0.00000000000E+00 0.  1.
         -3    1    1    2    0  502  0.28779002194E+02  0.13424507483E+02 -0.52891886245E+03  0.52987131591E+03  0.00000000000E+00 0. -1.
<mgrwt>
<rscale>  1 0.30000000E+03</rscale>
<asrwt>0</asrwt>
<pdfrwt beam="1">  1       21 0.37589748E-02 0.30000000E+03</pdfrwt>
<pdfrwt beam="2">0</pdfrwt>
<totfact> 0.46679508E+04</totfact>
</mgrwt>
</event>
<event>
 6    1  0.6377696E-002  0.3000000E+03  0.7818608E-02  0.1093470E+00
         21   -1    0    0  501  502  0.00000000000E+00  0.00000000000E+00  0.13054293786E+01  0.13054293786E+01  0.00000000000E+00 0. -1.
         13   -1    0    0    0    0 -0.00000000000E+00 -0.00000000000E+00 -0.10000000000E+04  0.10000000000E+04  0.00000000000E+00 0.  1.
    9000005    2    1    2  501    0  0.33623596070E+02 -0.11636436758E+02 -0.57917003302E+03  0.58027480042E+03  0.38683302363E+01 0.  0.
         13    1    3    3    0    0  0.15445889581E+02 -0.46895067609E+01 -0.23331827771E+03  0.23387600496E+03  0.00000000000E+00 0.  1.
          1    1    3    3  501    0  0.18177706489E+02 -0.69469299968E+01 -0.34585175531E+03  0.34639879546E+03  0.00000000000E+00 0.  1.
         -1    1    1    2    0  502 -0.33623596070E+02  0.11636436758E+02 -0.41952453760E+03  0.42103062896E+03  0.00000000000E+00 0. -1.
<mgrwt>
<rscale>  1 0.30000000E+03</rscale>
<asrwt>0</asrwt>
<pdfrwt beam="1">  1       21 0.47470259E-02 0.30000000E+03</pdfrwt>
<pdfrwt beam="2">0</pdfrwt>
<totfact> 0.31467054E+04</totfact>
</mgrwt>
</event>
<event>
 6    1  0.6377696E-002  0.3000000E+03  0.7818608E-02  0.1093470E+00
         21   -1    0    0  501  502  0.00000000000E+00  0.00000000000E+00  0.12111264644E+01  0.12111264644E+01  0.00000000000E+00 0. -1.
         13   -1    0    0    0    0 -0.00000000000E+00 -0.00000000000E+00 -0.10000000000E+04  0.10000000000E+04  0.00000000000E+00 0.  1.
    9000005    2    1    2  501    0  0.33151449852E+02 -0.80149887131E+01 -0.41012868887E+03  0.41156371345E+03  0.39862410879E+01 0.  0.
         13    1    3    3    0    0  0.69291573892E+01 -0.10087070076E+01 -0.67763846623E+02  0.68124662356E+02  0.00000000000E+00 0.  1.
          3    1    3    3  501    0  0.26222292463E+02 -0.70062817055E+01 -0.34236484225E+03  0.34343905109E+03  0.00000000000E+00 0.  1.
         -1    1    1    2    0  502 -0.33151449852E+02  0.80149887131E+01 -0.58866018466E+03  0.58964741302E+03  0.00000000000E+00 0. -1.
<mgrwt>
<rscale>  1 0.30000000E+03</rscale>
<asrwt>0</asrwt>
<pdfrwt beam="1">  1       21 0.44041055E-02 0.30000000E+03</pdfrwt>
<pdfrwt beam="2">0</pdfrwt>
<totfact> 0.35739894E+04</totfact>
</mgrwt>
</event>
<event>
 6    1  0.6377696E-002  0.3000000E+03  0.7818608E-02  0.1093470E+00
         21   -1    0    0  501  502  0.00000000000E+00  0.00000000000E+00  0.42140152973E+01  0.42140152973E+01  0.00000000000E+00 0. -1.
         13   -1    0    0    0    0 -0.00000000000E+00 -0.00000000000E+00 -0.10000000000E+04  0.10000000000E+04  0.00000000000E+00 0.  1.
    9000005    2    1    2  501    0 -0.33707478904E+02 -0.41928264712E+02 -0.21793327414E+03  0.22450316323E+03  0.35475065985E+01 0.  0.
         13    1    3    3    0    0 -0.18093939515E+02 -0.20538751590E+02 -0.10545583640E+03  0.10895028405E+03  0.00000000000E+00 0.  1.
          3    1    3    3  501    0 -0.15613539389E+02 -0.21389513122E+02 -0.11247743775E+03  0.11555287918E+03  0.00000000000E+00 0.  1.
         -1    1    1    2    0  502  0.33707478904E+02  0.41928264712E+02 -0.77785271056E+03  0.77971085207E+03  0.00000000000E+00 0. -1.
<mgrwt>
<rscale>  1 0.30000000E+03</rscale>
<asrwt>0</asrwt>
<pdfrwt beam="1">  1       21 0.15323724E-01 0.30000000E+03</pdfrwt>
<pdfrwt beam="2">0</pdfrwt>
<totfact> 0.39582590E+03</totfact>
</mgrwt>
</event>
<event>
 6    1  0.6377696E-002  0.3000000E+03  0.7818608E-02  0.1093470E+00
         21   -1    0    0  501  502  0.00000000000E+00  0.00000000000E+00  0.18767425422E+01  0.18767425422E+01  0.00000000000E+00 0. -1.
         13   -1    0    0    0    0 -0.00000000000E+00 -0.00000000000E+00 -0.10000000000E+04  0.10000000000E+04  0.00000000000E+00 0.  1.
    9000005    2    1    2  501    0 -0.43878496670E+01 -0.42472156943E+02 -0.57830811161E+03  0.57989582589E+03  0.39698342870E+01 0.  0.
         13    1    3    3    0    0 -0.24966548717E+00 -0.17775613878E+02 -0.25587484077E+03  0.25649165468E+03  0.00000000000E+00 0.  1.
          1    1    3    3  501    0 -0.41381841798E+01 -0.24696543065E+02 -0.32243327084E+03  0.32340417121E+03  0.00000000000E+00 0.  1.
         -1    1    1    2    0  502  0.43878496670E+01  0.42472156943E+02 -0.41981514585E+03  0.42198091666E+03  0.00000000000E+00 0. -1.
<mgrwt>
<rscale>  1 0.30000000E+03</rscale>
<asrwt>0</asrwt>
<pdfrwt beam="1">  1       21 0.68245327E-02 0.30000000E+03</pdfrwt>
<pdfrwt beam="2">0</pdfrwt>
<totfact> 0.16863396E+04</totfact>
</mgrwt>
</event>
<event>
 6    1  0.6377696E-002  0.3000000E+03  0.7818608E-02  0.1093470E+00
         21   -1    0    0  501  502  0.00000000000E+00  0.00000000000E+00  0.17666274052E+01  0.17666274052E+01  0.00000000000E+00 0. -1.
         13   -1    0    0    0    0 -0.00000000000E+00 -0.00000000000E+00 -0.10000000000E+04  0.10000000000E+04  0.00000000000E+00 0.  1.
    9000005    2    1    2  501    0 -0.97790899555E+01 -0.39509462288E+02 -0.61120495947E+03  0.61260390979E+03  0.74444346159E+01 0.  0.
         13    1    3    3    0    0 -0.81394829161E+01 -0.35116421534E+02 -0.56864857221E+03  0.56978997264E+03  0.00000000000E+00 0.  1.
          1    1    3    3  501    0 -0.16396070394E+01 -0.43930407541E+01 -0.42556387251E+02  0.42813937149E+02  0.00000000000E+00 0.  1.
         -1    1    1    2    0  502  0.97790899555E+01  0.39509462288E+02 -0.38702841313E+03  0.38916271761E+03  0.00000000000E+00 0. -1.
<mgrwt>
<rscale>  1 0.30000000E+03</rscale>
<asrwt>0</asrwt>
<pdfrwt beam="1">  1       21 0.64241132E-02 0.30000000E+03</pdfrwt>
<pdfrwt beam="2">0</pdfrwt>
<totfact> 0.18726842E+04</totfact>
</mgrwt>
</event>
<event>
 6    1  0.6377696E-002  0.3000000E+03  0.7818608E-02  0.1093470E+00
         21   -1    0    0  501  502  0.00000000000E+00  0.00000000000E+00  0.21904118195E+01  0.21904118195E+01  0.00000000000E+00 0. -1.
         13   -1    0    0    0    0 -0.00000000000E+00 -0.00000000000E+00 -0.10000000000E+04  0.10000000000E+04  0.00000000000E+00 0.  1.
    9000005    2    1    2  501    0  0.81189821034E+01 -0.45985879949E+02 -0.52280909182E+03  0.52490004887E+03  0.31773865484E+01 0.  0.
         13    1    3    3    0    0  0.27347515924E+01 -0.23449143096E+02 -0.27259314956E+03  0.27361353469E+03  0.00000000000E+00 0.  1.
          3    1    3    3  501    0  0.53842305109E+01 -0.22536736854E+02 -0.25021594226E+03  0.25128651418E+03  0.00000000000E+00 0.  1.
         -3    1    1    2    0  502 -0.81189821034E+01  0.45985879949E+02 -0.47500049636E+03  0.47729036295E+03  0.00000000000E+00 0. -1.
<mgrwt>
<rscale>  1 0.30000000E+03</rscale>
<asrwt>0</asrwt>
<pdfrwt beam="1">  1       21 0.79651507E-02 0.30000000E+03</pdfrwt>
<pdfrwt beam="2">0</pdfrwt>
<totfact> 0.12872185E+04</totfact>
</mgrwt>
</event>
<event>
 6    1  0.6377696E-002  0.3000000E+03  0.7818608E-02  0.1093470E+00
         21   -1    0    0  501  502  0.00000000000E+00  0.00000000000E+00  0.96954555494E+00  0.96954555494E+00  0.00000000000E+00 0. -1.
         13   -1    0    0    0    0 -0.00000000000E+00 -0.00000000000E+00 -0.10000000000E+04  0.10000000000E+04  0.00000000000E+00 0.  1.
    9000005    2    1    2  501    0  0.17643137035E+02  0.25161105710E+02 -0.42729958395E+03  0.42841339128E+03  0.29559865262E+01 0.  0.
         13    1    3    3    0    0  0.17296494100E+02  0.25151092528E+02 -0.42212186448E+03  0.42322407143E+03  0.00000000000E+00 0.  1.
          3    1    3    3  501    0  0.34664293411E+00  0.10013181822E-01 -0.51777194714E+01  0.51893198506E+01  0.00000000000E+00 0.  1.
         -3    1    1    2    0  502 -0.17643137035E+02 -0.25161105710E+02 -0.57173087049E+03  0.57255615428E+03  0.00000000000E+00 0. -1.
<mgrwt>
<rscale>  1 0.30000000E+03</rscale>
<asrwt>0</asrwt>
<pdfrwt beam="1">  1       21 0.35256276E-02 0.30000000E+03</pdfrwt>
<pdfrwt beam="2">0</pdfrwt>
<totfact> 0.51977776E+04</totfact>
</mgrwt>
</event>
<event>
 6    1  0.6377696E-002  0.3000000E+03  0.7818608E-02  0.1093470E+00
         21   -1    0    0  501  502  0.00000000000E+00  0.00000000000E+00  0.10762511008E+01  0.10762511008E+01  0.00000000000E+00 0. -1.
         13   -1    0    0    0    0 -0.00000000000E+00 -0.00000000000E+00 -0.10000000000E+04  0.10000000000E+04  0.00000000000E+00 0.  1.
    9000005    2    1    2  501    0 -0.10174607735E+02 -0.31064017119E+02 -0.47842866062E+03  0.47955575033E+03  0.33523975232E+01 0.  0.
         13    1    3    3    0    0 -0.81484501119E+01 -0.23337438206E+02 -0.38030479868E+03  0.38110729875E+03  0.00000000000E+00 0.  1.
          1    1    3    3  501    0 -0.20261576232E+01 -0.77265789123E+01 -0.98123861937E+02  0.98448451577E+02  0.00000000000E+00 0.  1.
         -1    1    1    2    0  502  0.10174607735E+02  0.31064017119E+02 -0.52049508828E+03  0.52152050078E+03  0.00000000000E+00 0. -1.
<mgrwt>
<rscale>  1 0.30000000E+03</rscale>
<asrwt>0</asrwt>
<pdfrwt beam="1">  1       21 0.39136486E-02 0.30000000E+03</pdfrwt>
<pdfrwt beam="2">0</pdfrwt>
<totfact> 0.43620573E+04</totfact>
</mgrwt>
</event>
<event>
 6    1  0.6377696E-002  0.3000000E+03  0.7818608E-02  0.1093470E+00
         21   -1    0    0  501  502  0.00000000000E+00  0.00000000000E+00  0.20252057881E+01  0.20252057881E+01  0.00000000000E+00 0. -1.
         13   -1    0    0    0    0 -0.00000000000E+00 -0.00000000000E+00 -0.10000000000E+04  0.10000000000E+04  0.00000000000E+00 0.  1.
    9000005    2    1    2  501    0 -0.25209988896E+02  0.35674620669E+02 -0.61765356527E+03  0.61920349888E+03  0.29705602669E+01 0.  0.
         13    1    3    3    0    0 -0.12553741660E+02  0.15453595160E+02 -0.27196726600E+03  0.27269507478E+03  0.00000000000E+00 0.  1.
          3    1    3    3  501    0 -0.12656247236E+02  0.20221025509E+02 -0.34568629927E+03  0.34650842410E+03  0.00000000000E+00 0.  1.
         -3    1    1    2    0  502  0.25209988896E+02 -0.35674620669E+02 -0.38032122894E+03  0.38282170691E+03  0.00000000000E+00 0. -1.
<mgrwt>
<rscale>  1 0.30000000E+03</rscale>
<asrwt>0</asrwt>
<pdfrwt beam="1">  1       21 0.73644002E-02 0.30000000E+03</pdfrwt>
<pdfrwt beam="2">0</pdfrwt>
<totfact> 0.14768504E+04</totfact>
</mgrwt>
</event>
<event>
 6    1  0.6377696E-002  0.3000000E+03  0.7818608E-02  0.1093470E+00
         21   -1    0    0  501  502  0.00000000000E+00  0.00000000000E+00  0.11219091118E+01  0.11219091118E+01  0.00000000000E+00 0. -1.
         13   -1    0    0    0    0 -0.00000000000E+00 -0.00000000000E+00 -0.10000000000E+04  0.10000000000E+04  0.00000000000E+00 0.  1.
    9000005    2    1    2  501    0 -0.52583586216E+01 -0.32496252103E+02 -0.42031069744E+03  0.42161877237E+03  0.42012014137E+01 0.  0.
         13    1    3    3    0    0 -0.40614644552E+01 -0.16116712804E+02 -0.19190954422E+03  0.19262792396E+03  0.00000000000E+00 0.  1.
          1    1    3    3  501    0 -0.11968941663E+01 -0.16379539299E+02 -0.22840115322E+03  0.22899084841E+03  0.00000000000E+00 0.  1.
         -1    1    1    2    0  502  0.52583586216E+01  0.32496252103E+02 -0.57856739345E+03  0.57950313674E+03  0.00000000000E+00 0. -1.
<mgrwt>
<rscale>  1 0.30000000E+03</rscale>
<asrwt>0</asrwt>
<pdfrwt beam="1">  1       21 0.40796781E-02 0.30000000E+03</pdfrwt>
<pdfrwt beam="2">0</pdfrwt>
<totfact> 0.40672954E+04</totfact>
</mgrwt>
</event>
<event>
 6    1  0.6377696E-002  0.3000000E+03  0.7818608E-02  0.1093470E+00
         21   -1    0    0  501  502  0.00000000000E+00  0.00000000000E+00  0.26648255041E+01  0.26648255041E+01  0.00000000000E+00 0. -1.
         13   -1    0    0    0    0 -0.00000000000E+00 -0.00000000000E+00 -0.10000000000E+04  0.10000000000E+04  0.00000000000E+00 0.  1.
    9000005    2    1    2  501    0 -0.24580955324E+02  0.45125986514E+02 -0.54352167063E+03  0.54595126723E+03  0.25301617176E+01 0.  0.
         13    1    3    3    0    0 -0.14529024398E+01  0.34502439615E+01 -0.34217084031E+02  0.34421271744E+02  0.00000000000E+00 0.  1.
          1    1    3    3  501    0 -0.23128052884E+02  0.41675742553E+02 -0.50930458660E+03  0.51152999549E+03  0.00000000000E+00 0.  1.
         -1    1    1    2    0  502  0.24580955324E+02 -0.45125986514E+02 -0.45381350386E+03  0.45671355827E+03  0.00000000000E+00 0. -1.
<mgrwt>
<rscale>  1 0.30000000E+03</rscale>
<asrwt>0</asrwt>
<pdfrwt beam="1">  1       21 0.96902950E-02 0.30000000E+03</pdfrwt>
<pdfrwt beam="2">0</pdfrwt>
<totfact> 0.91002126E+03</totfact>
</mgrwt>
</event>
<event>
 6    1  0.6377696E-002  0.3000000E+03  0.7818608E-02  0.1093470E+00
         21   -1    0    0  501  502  0.00000000000E+00  0.00000000000E+00  0.98611218618E+00  0.98611218618E+00  0.00000000000E+00 0. -1.
         13   -1    0    0    0    0 -0.00000000000E+00 -0.00000000000E+00 -0.10000000000E+04  0.10000000000E+04  0.00000000000E+00 0.  1.
    9000005    2    1    2  501    0  0.29140689737E+02 -0.10987731900E+02 -0.44913993935E+03  0.45023093132E+03  0.33610040486E+01 0.  0.
         13    1    3    3    0    0  0.79441605952E+01 -0.15429432820E+01 -0.10826972777E+03  0.10857174730E+03  0.00000000000E+00 0.  1.
          3    1    3    3  501    0  0.21196529142E+02 -0.94447886178E+01 -0.34087021159E+03  0.34165918402E+03  0.00000000000E+00 0.  1.
         -1    1    1    2    0  502 -0.29140689737E+02  0.10987731900E+02 -0.54987394846E+03  0.55075518086E+03  0.00000000000E+00 0. -1.
<mgrwt>
<rscale>  1 0.30000000E+03</rscale>
<asrwt>0</asrwt>
<pdfrwt beam="1">  1       21 0.35858701E-02 0.30000000E+03</pdfrwt>
<pdfrwt beam="2">0</pdfrwt>
<totfact> 0.50522389E+04</totfact>
</mgrwt>
</event>
<event>
 6    1  0.6377696E-002  0.3000000E+03  0.7818608E-02  0.1093470E+00
         21   -1    0    0  501  502  0.00000000000E+00  0.00000000000E+00  0.16964879352E+01  0.16964879352E+01  0.00000000000E+00 0. -1.
         13   -1    0    0    0    0 -0.00000000000E+00 -0.00000000000E+00 -0.10000000000E+04  0.10000000000E+04  0.00000000000E+00 0.  1.
    9000005    2    1    2  501    0  0.95612790256E+01  0.37101696631E+02 -0.31854399898E+03  0.32085807130E+03  0.34159444873E+01 0.  0.
         13    1    3    3    0    0  0.17302161863E+01  0.29060060520E+01 -0.26921703552E+02  0.27133312392E+02  0.00000000000E+00 0.  1.
          1    1    3    3  501    0  0.78310628393E+01  0.34195690579E+02 -0.29162229543E+03  0.29372475890E+03  0.00000000000E+00 0.  1.
         -1    1    1    2    0  502 -0.95612790256E+01 -0.37101696631E+02 -0.67975951308E+03  0.68083841664E+03  0.00000000000E+00 0. -1.
<mgrwt>
<rscale>  1 0.30000000E+03</rscale>
<asrwt>0</asrwt>
<pdfrwt beam="1">  1       21 0.61690600E-02 0.30000000E+03</pdfrwt>
<pdfrwt beam="2">0</pdfrwt>
<totfact> 0.20085114E+04</totfact>
</mgrwt>
</event>
<event>
 6    1  0.6377696E-002  0.3000000E+03  0.7818608E-02  0.1093470E+00
         21   -1    0    0  501  502  0.00000000000E+00  0.00000000000E+00  0.33478662490E+01  0.33478662490E+01  0.00000000000E+00 0. -1.
         13   -1    0    0    0    0 -0.00000000000E+00 -0.00000000000E+00 -0.10000000000E+04  0.10000000000E+04  0.00000000000E+00 0.  1.
    9000005    2    1    2  501    0  0.36200355297E+02  0.33824946714E+02 -0.24051961224E+03  0.24559395974E+03  0.34808683741E+01 0.  0.
         13    1    3    3    0    0  0.30905629498E+02  0.30416954097E+02 -0.20870037515E+03  0.21315767784E+03  0.00000000000E+00 0.  1.
          3    1    3    3  501    0  0.52947257984E+01  0.34079926173E+01 -0.31819237083E+02  0.32436281901E+02  0.00000000000E+00 0.  1.
         -3    1    1    2    0  502 -0.36200355297E+02 -0.33824946714E+02 -0.75613252151E+03  0.75775390651E+03  0.00000000000E+00 0. -1.
<mgrwt>
<rscale>  1 0.30000000E+03</rscale>
<asrwt>0</asrwt>
<pdfrwt beam="1">  1       21 0.12174085E-01 0.30000000E+03</pdfrwt>
<pdfrwt beam="2">0</pdfrwt>
<totfact> 0.60370913E+03</totfact>
</mgrwt>
</event>
<event>
 6    1  0.6377696E-002  0.3000000E+03  0.7818608E-02  0.1093470E+00
         21   -1    0    0  501  502  0.00000000000E+00  0.00000000000E+00  0.14334526067E+01  0.14334526067E+01  0.00000000000E+00 0. -1.
         13   -1    0    0    0    0 -0.00000000000E+00 -0.00000000000E+00 -0.10000000000E+04  0.10000000000E+04  0.00000000000E+00 0.  1.
    9000005    2    1    2  501    0 -0.27761454548E+02 -0.24196406447E+02 -0.61480536470E+03  0.61590938100E+03  0.16014681407E+01 0.  0.
         13    1    3    3    0    0 -0.26936113035E+02 -0.23785889784E+02 -0.59791553100E+03  0.59899441145E+03  0.00000000000E+00 0.  1.
          1    1    3    3  501    0 -0.82534151350E+00 -0.41051666287E+00 -0.16889833699E+02  0.16914969552E+02  0.00000000000E+00 0.  1.
         -1    1    1    2    0  502  0.27761454548E+02  0.24196406447E+02 -0.38376118270E+03  0.38552407161E+03  0.00000000000E+00 0. -1.
<mgrwt>
<rscale>  1 0.30000000E+03</rscale>
<asrwt>0</asrwt>
<pdfrwt beam="1">  1       21 0.52125659E-02 0.30000000E+03</pdfrwt>
<pdfrwt beam="2">0</pdfrwt>
<totfact> 0.26829024E+04</totfact>
</mgrwt>
</event>
<event>
 6    1  0.6377696E-002  0.3000000E+03  0.7818608E-02  0.1093470E+00
         21   -1    0    0  501  502  0.00000000000E+00  0.00000000000E+00  0.10841459914E+01  0.10841459914E+01  0.00000000000E+00 0. -1.
         13   -1    0    0    0    0 -0.00000000000E+00 -0.00000000000E+00 -0.10000000000E+04  0.10000000000E+04  0.00000000000E+00 0.  1.
    9000005    2    1    2  501    0  0.31428972957E+02  0.43563743481E+01 -0.62993176513E+03  0.63073833977E+03  0.31727275697E+01 0.  0.
         13    1    3    3    0    0  0.20214946427E+02  0.28367379230E+01 -0.43443624590E+03  0.43491555835E+03  0.00000000000E+00 0.  1.
          1    1    3    3  501    0  0.11214026531E+02  0.15196364251E+01 -0.19549551923E+03  0.19582278143E+03  0.00000000000E+00 0.  1.
         -1    1    1    2    0  502 -0.31428972957E+02 -0.43563743481E+01 -0.36898408888E+03  0.37034580622E+03  0.00000000000E+00 0. -1.
<mgrwt>
<rscale>  1 0.30000000E+03</rscale>
<asrwt>0</asrwt>
<pdfrwt beam="1">  1       21 0.39423574E-02 0.30000000E+03</pdfrwt>
<pdfrwt beam="2">0</pdfrwt>
<totfact> 0.43087440E+04</totfact>
</mgrwt>
</event>
<event>
 6    1  0.6377696E-002  0.3000000E+03  0.7818608E-02  0.1093470E+00
         21   -1    0    0  501  502  0.00000000000E+00  0.00000000000E+00  0.14899607078E+01  0.14899607078E+01  0.00000000000E+00 0. -1.
         13   -1    0    0    0    0 -0.00000000000E+00 -0.00000000000E+00 -0.10000000000E+04  0.10000000000E+04  0.00000000000E+00 0.  1.
    9000005    2    1    2  501    0 -0.27451376542E+02  0.26886222910E+02 -0.45905172917E+03  0.46066492855E+03  0.26905908290E+01 0.  0.
         13    1    3    3    0    0 -0.91939453597E+01  0.81264400549E+01 -0.13381748426E+03  0.13437889252E+03  0.00000000000E+00 0.  1.
          1    1    3    3  501    0 -0.18257431182E+02  0.18759782856E+02 -0.32523424491E+03  0.32628603603E+03  0.00000000000E+00 0.  1.
         -3    1    1    2    0  502  0.27451376542E+02 -0.26886222910E+02 -0.53945831012E+03  0.54082503216E+03  0.00000000000E+00 0. -1.
<mgrwt>
<rscale>  1 0.30000000E+03</rscale>
<asrwt>0</asrwt>
<pdfrwt beam="1">  1       21 0.54180504E-02 0.30000000E+03</pdfrwt>
<pdfrwt beam="2">0</pdfrwt>
<totfact> 0.25111960E+04</totfact>
</mgrwt>
</event>
<event>
 6    1  0.6377696E-002  0.3000000E+03  0.7818608E-02  0.1093470E+00
         21   -1    0    0  501  502  0.00000000000E+00  0.00000000000E+00  0.29266274065E+01  0.29266274065E+01  0.00000000000E+00 0. -1.
         13   -1    0    0    0    0 -0.00000000000E+00 -0.00000000000E+00 -0.10000000000E+04  0.10000000000E+04  0.00000000000E+00 0.  1.
    9000005    2    1    2  501    0 -0.26525482910E+02 -0.46794234378E+02 -0.45020233681E+03  0.45341663533E+03  0.33465667318E+01 0.  0.
         13    1    3    3    0    0 -0.26019504757E+02 -0.46288732580E+02 -0.44644660375E+03  0.44959340675E+03  0.00000000000E+00 0.  1.
          3    1    3    3  501    0 -0.50597815311E+00 -0.50550179768E+00 -0.37557330613E+01  0.38232285815E+01  0.00000000000E+00 0.  1.
         -3    1    1    2    0  502  0.26525482910E+02  0.46794234378E+02 -0.54687103578E+03  0.54950999208E+03  0.00000000000E+00 0. -1.
<mgrwt>
<rscale>  1 0.30000000E+03</rscale>
<asrwt>0</asrwt>
<pdfrwt beam="1">  1       21 0.10642304E-01 0.30000000E+03</pdfrwt>
<pdfrwt beam="2">0</pdfrwt>
<totfact> 0.76958086E+03</totfact>
</mgrwt>
</event>
<event>
 6    1  0.6377696E-002  0.3000000E+03  0.7818608E-02  0.1093470E+00
         21   -1    0    0  501  502  0.00000000000E+00  0.00000000000E+00  0.34638849662E+01  0.34638849662E+01  0.00000000000E+00 0. -1.
         13   -1    0    0    0    0 -0.00000000000E+00 -0.00000000000E+00 -0.10000000000E+04  0.10000000000E+04  0.00000000000E+00 0.  1.
    9000005    2    1    2  501    0  0.26250396109E+02 -0.46934895698E+02 -0.29612958270E+03  0.30099589405E+03  0.37189720417E+01 0.  0.
         13    1    3    3    0    0  0.19615798062E+02 -0.32504305578E+02 -0.20227536601E+03  0.20580727176E+03  0.00000000000E+00 0.  1.
          3    1    3    3  501    0  0.66345980468E+01 -0.14430590120E+02 -0.93854216694E+02  0.95188622291E+02  0.00000000000E+00 0.  1.
         -1    1    1    2    0  502 -0.26250396109E+02  0.46934895698E+02 -0.70040653233E+03  0.70246799092E+03  0.00000000000E+00 0. -1.
<mgrwt>
<rscale>  1 0.30000000E+03</rscale>
<asrwt>0</asrwt>
<pdfrwt beam="1">  1       21 0.12595972E-01 0.30000000E+03</pdfrwt>
<pdfrwt beam="2">0</pdfrwt>
<totfact> 0.56740782E+03</totfact>
</mgrwt>
</event>
<event>
 6    1  0.6377696E-002  0.3000000E+03  0.7818608E-02  0.1093470E+00
         21   -1    0    0  501  502  0.00000000000E+00  0.00000000000E+00  0.17640967967E+01  0.17640967967E+01  0.00000000000E+00 0. -1.
         13   -1    0    0    0    0 -0.00000000000E+00 -0.00000000000E+00 -0.10000000000E+04  0.10000000000E+04  0.00000000000E+00 0.  1.
    9000005    2    1    2  501    0 -0.41383900524E+02 -0.44212705745E+01 -0.43711273593E+03  0.43909955756E+03  0.29500316910E+01 0.  0.
         13    1    3    3    0    0 -0.20176851833E+02 -0.16333404633E+01 -0.22708596700E+03  0.22798642407E+03  0.00000000000E+00 0.  1.
          1    1    3    3  501    0 -0.21207048690E+02 -0.27879301112E+01 -0.21002676893E+03  0.21111313350E+03  0.00000000000E+00 0.  1.
         -1    1    1    2    0  502  0.41383900524E+02  0.44212705745E+01 -0.56112316728E+03  0.56266453923E+03  0.00000000000E+00 0. -1.
<mgrwt>
<rscale>  1 0.30000000E+03</rscale>
<asrwt>0</asrwt>
<pdfrwt beam="1">  1       21 0.64149110E-02 0.30000000E+03</pdfrwt>
<pdfrwt beam="2">0</pdfrwt>
<totfact> 0.18773345E+04</totfact>
</mgrwt>
</event>
<event>
 6    1  0.6377696E-002  0.3000000E+03  0.7818608E-02  0.1093470E+00
         21   -1    0    0  501  502  0.00000000000E+00  0.00000000000E+00  0.13818076294E+01  0.13818076294E+01  0.00000000000E+00 0. -1.
         13   -1    0    0    0    0 -0.00000000000E+00 -0.00000000000E+00 -0.10000000000E+04  0.10000000000E+04  0.00000000000E+00 0.  1.
    9000005    2    1    2  501    0  0.29172478720E+02  0.16388987694E+02 -0.28439361640E+03  0.28637385148E+03  0.32590384886E+01 0.  0.
         13    1    3    3    0    0  0.18515342446E+02  0.97655286835E+01 -0.16493322443E+03  0.16625628403E+03  0.00000000000E+00 0.  1.
          1    1    3    3  501    0  0.10657136274E+02  0.66234590105E+01 -0.11946039197E+03  0.12011756746E+03  0.00000000000E+00 0.  1.
         -3    1    1    2    0  502 -0.29172478720E+02 -0.16388987694E+02 -0.71422457597E+03  0.71500795615E+03  0.00000000000E+00 0. -1.
<mgrwt>
<rscale>  1 0.30000000E+03</rscale>
<asrwt>0</asrwt>
<pdfrwt beam="1">  1       21 0.50247656E-02 0.30000000E+03</pdfrwt>
<pdfrwt beam="2">0</pdfrwt>
<totfact> 0.28563027E+04</totfact>
</mgrwt>
</event>
<event>
 6    1  0.6377696E-002  0.3000000E+03  0.7818608E-02  0.1093470E+00
         21   -1    0    0  501  502  0.00000000000E+00  0.00000000000E+00  0.25234547831E+01  0.25234547831E+01  0.00000000000E+00 0. -1.
         13   -1    0    0    0    0 -0.00000000000E+00 -0.00000000000E+00 -0.10000000000E+04  0.10000000000E+04  0.00000000000E+00 0.  1.
    9000005    2    1    2  501    0  0.25657187337E+02  0.37060779014E+02 -0.71910456554E+03  0.72052566814E+03  0.37509549362E+01 0.  0.
         13    1    3    3    0    0  0.19942235704E+02  0.29635296697E+02 -0.54528011938E+03  0.54644885595E+03  0.00000000000E+00 0.  1.
          1    1    3    3  501    0  0.57149516336E+01  0.74254823169E+01 -0.17382444616E+03  0.17407681219E+03  0.00000000000E+00 0.  1.
         -3    1    1    2    0  502 -0.25657187337E+02 -0.37060779014E+02 -0.27837197968E+03  0.28199778665E+03  0.00000000000E+00 0. -1.
<mgrwt>
<rscale>  1 0.30000000E+03</rscale>
<asrwt>0</asrwt>
<pdfrwt beam="1">  1       21 0.91762186E-02 0.30000000E+03</pdfrwt>
<pdfrwt beam="2">0</pdfrwt>
<totfact> 0.10027307E+04</totfact>
</mgrwt>
</event>
<event>
 6    1  0.6377696E-002  0.3000000E+03  0.7818608E-02  0.1093470E+00
         21   -1    0    0  501  502  0.00000000000E+00  0.00000000000E+00  0.12819668970E+01  0.12819668970E+01  0.00000000000E+00 0. -1.
         13   -1    0    0    0    0 -0.00000000000E+00 -0.00000000000E+00 -0.10000000000E+04  0.10000000000E+04  0.00000000000E+00 0.  1.
    9000005    2    1    2  501    0  0.89692889171E+01  0.34239635754E+02 -0.43108411275E+03  0.43254558830E+03  0.30615184272E+01 0.  0.
         13    1    3    3    0    0  0.36423964565E+00  0.57974641510E+01 -0.68502760756E+02  0.68748610839E+02  0.00000000000E+00 0.  1.
          1    1    3    3  501    0  0.86050492715E+01  0.28442171603E+02 -0.36258135199E+03  0.36379697746E+03  0.00000000000E+00 0.  1.
         -3    1    1    2    0  502 -0.89692889171E+01 -0.34239635754E+02 -0.56763392036E+03  0.56873637860E+03  0.00000000000E+00 0. -1.
<mgrwt>
<rscale>  1 0.30000000E+03</rscale>
<asrwt>0</asrwt>
<pdfrwt beam="1">  1       21 0.46617076E-02 0.30000000E+03</pdfrwt>
<pdfrwt beam="2">0</pdfrwt>
<totfact> 0.32452525E+04</totfact>
</mgrwt>
</event>
<event>
 6    1  0.6377696E-002  0.3000000E+03  0.7818608E-02  0.1093470E+00
         21   -1    0    0  501  502  0.00000000000E+00  0.00000000000E+00  0.38676622157E+01  0.38676622157E+01  0.00000000000E+00 0. -1.
         13   -1    0    0    0    0 -0.00000000000E+00 -0.00000000000E+00 -0.10000000000E+04  0.10000000000E+04  0.00000000000E+00 0.  1.
    9000005    2    1    2  501    0  0.26544969698E+02 -0.47032781185E+02 -0.74655917281E+03  0.74851793616E+03  0.34328299921E+01 0.  0.
         13    1    3    3    0    0  0.25561174100E+02 -0.45123518249E+02 -0.70619720635E+03  0.70809886300E+03  0.00000000000E+00 0.  1.
          1    1    3    3  501    0  0.98379559758E+00 -0.19092629363E+01 -0.40361966458E+02  0.40419073160E+02  0.00000000000E+00 0.  1.
         -3    1    1    2    0  502 -0.26544969698E+02  0.47032781185E+02 -0.24957316498E+03  0.25534972606E+03  0.00000000000E+00 0. -1.
<mgrwt>
<rscale>  1 0.30000000E+03</rscale>
<asrwt>0</asrwt>
<pdfrwt beam="1">  1       21 0.14064256E-01 0.30000000E+03</pdfrwt>
<pdfrwt beam="2">0</pdfrwt>
<totfact> 0.46374860E+03</totfact>
</mgrwt>
</event>
<event>
 6    1  0.6377696E-002  0.3000000E+03  0.7818608E-02  0.1093470E+00
         21   -1    0    0  501  502  0.00000000000E+00  0.00000000000E+00  0.81030882419E+01  0.81030882419E+01  0.00000000000E+00 0. -1.
         13   -1    0    0    0    0 -0.00000000000E+00 -0.00000000000E+00 -0.10000000000E+04  0.10000000000E+04  0.00000000000E+00 0.  1.
    9000005    2    1    2  501    0 -0.51641558360E+02 -0.64885961304E+02 -0.69175353500E+03  0.69671412707E+03  0.32531765839E+01 0.  0.
         13    1    3    3    0    0 -0.45547617271E+02 -0.58251511941E+02 -0.60977175184E+03  0.61423888954E+03  0.00000000000E+00 0.  1.
          3    1    3    3  501    0 -0.60939410893E+01 -0.66344493630E+01 -0.81981783158E+02  0.82475237533E+02  0.00000000000E+00 0.  1.
         -1    1    1    2    0  502  0.51641558360E+02  0.64885961304E+02 -0.30014337676E+03  0.31138896117E+03  0.00000000000E+00 0. -1.
<mgrwt>
<rscale>  1 0.30000000E+03</rscale>
<asrwt>0</asrwt>
<pdfrwt beam="1">  1       21 0.29465838E-01 0.30000000E+03</pdfrwt>
<pdfrwt beam="2">0</pdfrwt>
<totfact> 0.11270154E+03</totfact>
</mgrwt>
</event>
<event>
 6    1  0.6377696E-002  0.3000000E+03  0.7818608E-02  0.1093470E+00
         21   -1    0    0  501  502  0.00000000000E+00  0.00000000000E+00  0.93018730280E+00  0.93018730280E+00  0.00000000000E+00 0. -1.
         13   -1    0    0    0    0 -0.00000000000E+00 -0.00000000000E+00 -0.10000000000E+04  0.10000000000E+04  0.00000000000E+00 0.  1.
    9000005    2    1    2  501    0  0.17137160014E+02  0.25145846852E+02 -0.51565994223E+03  0.51656348869E+03  0.25818504805E+01 0.  0.
         13    1    3    3    0    0  0.14397035412E+02  0.20997912750E+02 -0.41403943681E+03  0.41482145823E+03  0.00000000000E+00 0.  1.
          3    1    3    3  501    0  0.27401246021E+01  0.41479341013E+01 -0.10162050542E+03  0.10174203046E+03  0.00000000000E+00 0.  1.
         -3    1    1    2    0  502 -0.17137160014E+02 -0.25145846852E+02 -0.48340987046E+03  0.48436669862E+03  0.00000000000E+00 0. -1.
<mgrwt>
<rscale>  1 0.30000000E+03</rscale>
<asrwt>0</asrwt>
<pdfrwt beam="1">  1       21 0.33825064E-02 0.30000000E+03</pdfrwt>
<pdfrwt beam="2">0</pdfrwt>
<totfact> 0.55709108E+04</totfact>
</mgrwt>
</event>
<event>
 6    1  0.6377696E-002  0.3000000E+03  0.7818608E-02  0.1093470E+00
         21   -1    0    0  501  502  0.00000000000E+00  0.00000000000E+00  0.17105438911E+01  0.17105438911E+01  0.00000000000E+00 0. -1.
         13   -1    0    0    0    0 -0.00000000000E+00 -0.00000000000E+00 -0.10000000000E+04  0.10000000000E+04  0.00000000000E+00 0.  1.
    9000005    2    1    2  501    0 -0.13923612628E+02  0.27834710730E+02 -0.17167230990E+03  0.17450770026E+03  0.35940718530E+01 0.  0.
         13    1    3    3    0    0 -0.13531816701E+02  0.25807164490E+02 -0.16363714067E+03  0.16621141239E+03  0.00000000000E+00 0.  1.
          1    1    3    3  501    0 -0.39179592736E+00  0.20275462402E+01 -0.80351692317E+01  0.82962878679E+01  0.00000000000E+00 0.  1.
         -1    1    1    2    0  502  0.13923612628E+02 -0.27834710730E+02 -0.82661714621E+03  0.82720284363E+03  0.00000000000E+00 0. -1.
<mgrwt>
<rscale>  1 0.30000000E+03</rscale>
<asrwt>0</asrwt>
<pdfrwt beam="1">  1       21 0.62201727E-02 0.30000000E+03</pdfrwt>
<pdfrwt beam="2">0</pdfrwt>
<totfact> 0.19800932E+04</totfact>
</mgrwt>
</event>
<event>
 6    1  0.6377696E-002  0.3000000E+03  0.7818608E-02  0.1093470E+00
         21   -1    0    0  501  502  0.00000000000E+00  0.00000000000E+00  0.12565884069E+01  0.12565884069E+01  0.00000000000E+00 0. -1.
         13   -1    0    0    0    0 -0.00000000000E+00 -0.00000000000E+00 -0.10000000000E+04  0.10000000000E+04  0.00000000000E+00 0.  1.
    9000005    2    1    2  501    0  0.53750108920E+01  0.31351266286E+02 -0.71797972866E+03  0.71869679245E+03  0.42890633519E+01 0.  0.
         13    1    3    3    0    0  0.30905338853E+01  0.25029948627E+02 -0.59372347057E+03  0.59425887392E+03  0.00000000000E+00 0.  1.
          3    1    3    3  501    0  0.22844770066E+01  0.63213176580E+01 -0.12425625810E+03  0.12443791853E+03  0.00000000000E+00 0.  1.
         -3    1    1    2    0  502 -0.53750108920E+01 -0.31351266286E+02 -0.28076368293E+03  0.28255979596E+03  0.00000000000E+00 0. -1.
<mgrwt>
<rscale>  1 0.30000000E+03</rscale>
<asrwt>0</asrwt>
<pdfrwt beam="1">  1       21 0.45694220E-02 0.30000000E+03</pdfrwt>
<pdfrwt beam="2">0</pdfrwt>
<totfact> 0.33574037E+04</totfact>
</mgrwt>
</event>
<event>
 6    1  0.6377696E-002  0.3000000E+03  0.7818608E-02  0.1093470E+00
         21   -1    0    0  501  502  0.00000000000E+00  0.00000000000E+00  0.16818510913E+01  0.16818510913E+01  0.00000000000E+00 0. -1.
         13   -1    0    0    0    0 -0.00000000000E+00 -0.00000000000E+00 -0.10000000000E+04  0.10000000000E+04  0.00000000000E+00 0.  1.
    9000005    2    1    2  501    0  0.20191179652E+02 -0.27649919972E+02 -0.77188696070E+03  0.77267686250E+03  0.69175082344E+01 0.  0.
         13    1    3    3    0    0  0.11277460080E+02 -0.10561453546E+02 -0.30241107512E+03  0.30280552135E+03  0.00000000000E+00 0.  1.
          3    1    3    3  501    0  0.89137195714E+01 -0.17088466426E+02 -0.46947588559E+03  0.46987134115E+03  0.00000000000E+00 0.  1.
         -1    1    1    2    0  502 -0.20191179652E+02  0.27649919972E+02 -0.22643118820E+03  0.22900498860E+03  0.00000000000E+00 0. -1.
<mgrwt>
<rscale>  1 0.30000000E+03</rscale>
<asrwt>0</asrwt>
<pdfrwt beam="1">  1       21 0.61158350E-02 0.30000000E+03</pdfrwt>
<pdfrwt beam="2">0</pdfrwt>
<totfact> 0.20387827E+04</totfact>
</mgrwt>
</event>
<event>
 6    1  0.6377696E-002  0.3000000E+03  0.7818608E-02  0.1093470E+00
         21   -1    0    0  501  502  0.00000000000E+00  0.00000000000E+00  0.24481228843E+01  0.24481228843E+01  0.00000000000E+00 0. -1.
         13   -1    0    0    0    0 -0.00000000000E+00 -0.00000000000E+00 -0.10000000000E+04  0.10000000000E+04  0.00000000000E+00 0.  1.
    9000005    2    1    2  501    0 -0.28965498977E+02  0.36046439405E+02 -0.32422977577E+03  0.32753998241E+03  0.43756888890E+01 0.  0.
         13    1    3    3    0    0 -0.14463785463E+02  0.19381765198E+02 -0.18354318294E+03  0.18512955981E+03  0.00000000000E+00 0.  1.
          3    1    3    3  501    0 -0.14501713513E+02  0.16664674208E+02 -0.14068659284E+03  0.14241042260E+03  0.00000000000E+00 0.  1.
         -1    1    1    2    0  502  0.28965498977E+02 -0.36046439405E+02 -0.67332210134E+03  0.67490814048E+03  0.00000000000E+00 0. -1.
<mgrwt>
<rscale>  1 0.30000000E+03</rscale>
<asrwt>0</asrwt>
<pdfrwt beam="1">  1       21 0.89022838E-02 0.30000000E+03</pdfrwt>
<pdfrwt beam="2">0</pdfrwt>
<totfact> 0.10580662E+04</totfact>
</mgrwt>
</event>
<event>
 6    1  0.6377696E-002  0.3000000E+03  0.7818608E-02  0.1093470E+00
         21   -1    0    0  501  502  0.00000000000E+00  0.00000000000E+00  0.26773789107E+01  0.26773789107E+01  0.00000000000E+00 0. -1.
         13   -1    0    0    0    0 -0.00000000000E+00 -0.00000000000E+00 -0.10000000000E+04  0.10000000000E+04  0.00000000000E+00 0.  1.
    9000005    2    1    2  501    0  0.33517264059E+02 -0.39037403697E+02 -0.45129392096E+03  0.45422987254E+03  0.33538241399E+01 0.  0.
         13    1    3    3    0    0  0.90594766933E+01 -0.12711657471E+02 -0.14226039763E+03  0.14311422392E+03  0.00000000000E+00 0.  1.
          1    1    3    3  501    0  0.24457787366E+02 -0.26325746227E+02 -0.30903352333E+03  0.31111564863E+03  0.00000000000E+00 0.  1.
         -3    1    1    2    0  502 -0.33517264059E+02  0.39037403697E+02 -0.54602870013E+03  0.54844750637E+03  0.00000000000E+00 0. -1.
<mgrwt>
<rscale>  1 0.30000000E+03</rscale>
<asrwt>0</asrwt>
<pdfrwt beam="1">  1       21 0.97359438E-02 0.30000000E+03</pdfrwt>
<pdfrwt beam="2">0</pdfrwt>
<totfact> 0.90242361E+03</totfact>
</mgrwt>
</event>
<event>
 6    1  0.6377696E-002  0.3000000E+03  0.7818608E-02  0.1093470E+00
         21   -1    0    0  501  502  0.00000000000E+00  0.00000000000E+00  0.26659745232E+01  0.26659745232E+01  0.00000000000E+00 0. -1.
         13   -1    0    0    0    0 -0.00000000000E+00 -0.00000000000E+00 -0.10000000000E+04  0.10000000000E+04  0.00000000000E+00 0.  1.
    9000005    2    1    2  501    0  0.31493428736E+02  0.40816282338E+02 -0.48448266874E+03  0.48722992702E+03  0.34264440004E+01 0.  0.
         13    1    3    3    0    0  0.20807488709E+02  0.24504847595E+02 -0.29486989654E+03  0.29661708485E+03  0.00000000000E+00 0.  1.
          3    1    3    3  501    0  0.10685940027E+02  0.16311434744E+02 -0.18961277220E+03  0.19061284217E+03  0.00000000000E+00 0.  1.
         -1    1    1    2    0  502 -0.31493428736E+02 -0.40816282338E+02 -0.51285135674E+03  0.51543604750E+03  0.00000000000E+00 0. -1.
<mgrwt>
<rscale>  1 0.30000000E+03</rscale>
<asrwt>0</asrwt>
<pdfrwt beam="1">  1       21 0.96944733E-02 0.30000000E+03</pdfrwt>
<pdfrwt beam="2">0</pdfrwt>
<totfact> 0.90932178E+03</totfact>
</mgrwt>
</event>
<event>
 6    1  0.6377696E-002  0.3000000E+03  0.7818608E-02  0.1093470E+00
         21   -1    0    0  501  502  0.00000000000E+00  0.00000000000E+00  0.23866321216E+01  0.23866321216E+01  0.00000000000E+00 0. -1.
         13   -1    0    0    0    0 -0.00000000000E+00 -0.00000000000E+00 -0.10000000000E+04  0.10000000000E+04  0.00000000000E+00 0.  1.
    9000005    2    1    2  501    0 -0.28735344375E+02  0.31800410229E+02 -0.25958351115E+03  0.26311330274E+03  0.28327923608E+01 0.  0.
         13    1    3    3    0    0 -0.22141644278E+02  0.24456006133E+02 -0.20681074126E+03  0.20942547922E+03  0.00000000000E+00 0.  1.
          1    1    3    3  501    0 -0.65937000976E+01  0.73444040958E+01 -0.52772769883E+02  0.53687823514E+02  0.00000000000E+00 0.  1.
         -3    1    1    2    0  502  0.28735344375E+02 -0.31800410229E+02 -0.73802985673E+03  0.73927332938E+03  0.00000000000E+00 0. -1.
<mgrwt>
<rscale>  1 0.30000000E+03</rscale>
<asrwt>0</asrwt>
<pdfrwt beam="1">  1       21 0.86786806E-02 0.30000000E+03</pdfrwt>
<pdfrwt beam="2">0</pdfrwt>
<totfact> 0.11067396E+04</totfact>
</mgrwt>
</event>
<event>
 6    1  0.6377696E-002  0.3000000E+03  0.7818608E-02  0.1093470E+00
         21   -1    0    0  501  502  0.00000000000E+00  0.00000000000E+00  0.21586778343E+01  0.21586778343E+01  0.00000000000E+00 0. -1.
         13   -1    0    0    0    0 -0.00000000000E+00 -0.00000000000E+00 -0.10000000000E+04  0.10000000000E+04  0.00000000000E+00 0.  1.
    9000005    2    1    2  501    0 -0.34143417578E+02  0.25014029326E+02 -0.29450609070E+03  0.29755104060E+03  0.33629861775E+01 0.  0.
         13    1    3    3    0    0 -0.26022241482E+00  0.58326505609E+00 -0.30029828582E+01  0.30701498135E+01  0.00000000000E+00 0.  1.
          3    1    3    3  501    0 -0.33883195164E+02  0.24430764270E+02 -0.29150310784E+03  0.29448089078E+03  0.00000000000E+00 0.  1.
         -1    1    1    2    0  502  0.34143417578E+02 -0.25014029326E+02 -0.70333523147E+03  0.70460763724E+03  0.00000000000E+00 0. -1.
<mgrwt>
<rscale>  1 0.30000000E+03</rscale>
<asrwt>0</asrwt>
<pdfrwt beam="1">  1       21 0.78497541E-02 0.30000000E+03</pdfrwt>
<pdfrwt beam="2">0</pdfrwt>
<totfact> 0.13206187E+04</totfact>
</mgrwt>
</event>
<event>
 6    1  0.6377696E-002  0.3000000E+03  0.7818608E-02  0.1093470E+00
         21   -1    0    0  501  502  0.00000000000E+00  0.00000000000E+00  0.31081778805E+01  0.31081778805E+01  0.00000000000E+00 0. -1.
         13   -1    0    0    0    0 -0.00000000000E+00 -0.00000000000E+00 -0.10000000000E+04  0.10000000000E+04  0.00000000000E+00 0.  1.
    9000005    2    1    2  501    0 -0.42439221250E+02 -0.33730912632E+02 -0.38367107326E+03  0.38749584142E+03  0.32669092572E+01 0.  0.
         13    1    3    3    0    0 -0.37074568801E+02 -0.28332674921E+02 -0.32464617190E+03  0.32798231819E+03  0.00000000000E+00 0.  1.
          3    1    3    3  501    0 -0.53646524490E+01 -0.53982377112E+01 -0.59024901362E+02  0.59513523228E+02  0.00000000000E+00 0.  1.
         -3    1    1    2    0  502  0.42439221250E+02  0.33730912632E+02 -0.61322074886E+03  0.61561233646E+03  0.00000000000E+00 0. -1.
<mgrwt>
<rscale>  1 0.30000000E+03</rscale>
<asrwt>0</asrwt>
<pdfrwt beam="1">  1       21 0.11302489E-01 0.30000000E+03</pdfrwt>
<pdfrwt beam="2">0</pdfrwt>
<totfact> 0.69061721E+03</totfact>
</mgrwt>
</event>
<event>
 6    1  0.6377696E-002  0.3000000E+03  0.7818608E-02  0.1093470E+00
         21   -1    0    0  501  502  0.00000000000E+00  0.00000000000E+00  0.99269946359E+00  0.99269946359E+00  0.00000000000E+00 0. -1.
         13   -1    0    0    0    0 -0.00000000000E+00 -0.00000000000E+00 -0.10000000000E+04  0.10000000000E+04  0.00000000000E+00 0.  1.
    9000005    2    1    2  501    0 -0.29859682563E+02 -0.98922481762E+01 -0.50361397628E+03  0.50460172157E+03  0.25304327205E+01 0.  0.
         13    1    3    3    0    0 -0.10582553798E+02 -0.40351995324E+01 -0.16392081448E+03  0.16431161463E+03  0.00000000000E+00 0.  1.
          1    1    3    3  501    0 -0.19277128765E+02 -0.58570486438E+01 -0.33969316180E+03  0.34029010694E+03  0.00000000000E+00 0.  1.
         -3    1    1    2    0  502  0.29859682563E+02  0.98922481762E+01 -0.49539332426E+03  0.49639097789E+03  0.00000000000E+00 0. -1.
<mgrwt>
<rscale>  1 0.30000000E+03</rscale>
<asrwt>0</asrwt>
<pdfrwt beam="1">  1       21 0.36098238E-02 0.30000000E+03</pdfrwt>
<pdfrwt beam="2">0</pdfrwt>
<totfact> 0.49961460E+04</totfact>
</mgrwt>
</event>
<event>
 6    1  0.6377696E-002  0.3000000E+03  0.7818608E-02  0.1093470E+00
         21   -1    0    0  501  502  0.00000000000E+00  0.00000000000E+00  0.17263824123E+01  0.17263824123E+01  0.00000000000E+00 0. -1.
         13   -1    0    0    0    0 -0.00000000000E+00 -0.00000000000E+00 -0.10000000000E+04  0.10000000000E+04  0.00000000000E+00 0.  1.
    9000005    2    1    2  501    0 -0.39199329747E+02 -0.60629310576E+01 -0.64584291624E+03  0.64707056921E+03  0.37286049700E+01 0.  0.
         13    1    3    3    0    0 -0.22465505346E+02 -0.51583251096E+01 -0.36108961780E+03  0.36182456983E+03  0.00000000000E+00 0.  1.
          3    1    3    3  501    0 -0.16733824400E+02 -0.90460594807E+00 -0.28475329844E+03  0.28524599938E+03  0.00000000000E+00 0.  1.
         -1    1    1    2    0  502  0.39199329747E+02  0.60629310576E+01 -0.35243070135E+03  0.35465581320E+03  0.00000000000E+00 0. -1.
<mgrwt>
<rscale>  1 0.30000000E+03</rscale>
<asrwt>0</asrwt>
<pdfrwt beam="1">  1       21 0.62777675E-02 0.30000000E+03</pdfrwt>
<pdfrwt beam="2">0</pdfrwt>
<totfact> 0.19488118E+04</totfact>
</mgrwt>
</event>
<event>
 6    1  0.6377696E-002  0.3000000E+03  0.7818608E-02  0.1093470E+00
         21   -1    0    0  501  502  0.00000000000E+00  0.00000000000E+00  0.17437909333E+01  0.17437909333E+01  0.00000000000E+00 0. -1.
         13   -1    0    0    0    0 -0.00000000000E+00 -0.00000000000E+00 -0.10000000000E+04  0.10000000000E+04  0.00000000000E+00 0.  1.
    9000005    2    1    2  501    0 -0.40244062244E+02 -0.84261114362E+01 -0.43056787934E+03  0.43256840179E+03  0.60116226643E+01 0.  0.
         13    1    3    3    0    0 -0.11991829023E+02 -0.27631131803E+01 -0.15924933808E+03  0.15972410725E+03  0.00000000000E+00 0.  1.
          1    1    3    3  501    0 -0.28252233221E+02 -0.56629982559E+01 -0.27131854126E+03  0.27284429454E+03  0.00000000000E+00 0.  1.
         -1    1    1    2    0  502  0.40244062244E+02  0.84261114362E+01 -0.56768832973E+03  0.56917538915E+03  0.00000000000E+00 0. -1.
<mgrwt>
<rscale>  1 0.30000000E+03</rscale>
<asrwt>0</asrwt>
<pdfrwt beam="1">  1       21 0.63410713E-02 0.30000000E+03</pdfrwt>
<pdfrwt beam="2">0</pdfrwt>
<totfact> 0.19153044E+04</totfact>
</mgrwt>
</event>
<event>
 6    1  0.6377696E-002  0.3000000E+03  0.7818608E-02  0.1093470E+00
         21   -1    0    0  501  502  0.00000000000E+00  0.00000000000E+00  0.46280774107E+01  0.46280774107E+01  0.00000000000E+00 0. -1.
         13   -1    0    0    0    0 -0.00000000000E+00 -0.00000000000E+00 -0.10000000000E+04  0.10000000000E+04  0.00000000000E+00 0.  1.
    9000005    2    1    2  501    0 -0.22013200603E+02  0.41246628396E+02 -0.13354711687E+03  0.14153604228E+03  0.34283355857E+01 0.  0.
         13    1    3    3    0    0 -0.18995844962E+02  0.35152932699E+02 -0.11748407448E+03  0.12409302381E+03  0.00000000000E+00 0.  1.
          1    1    3    3  501    0 -0.30173556403E+01  0.60936956969E+01 -0.16063042393E+02  0.17443018467E+02  0.00000000000E+00 0.  1.
         -1    1    1    2    0  502  0.22013200603E+02 -0.41246628396E+02 -0.86182480572E+03  0.86309203513E+03  0.00000000000E+00 0. -1.
<mgrwt>
<rscale>  1 0.30000000E+03</rscale>
<asrwt>0</asrwt>
<pdfrwt beam="1">  1       21 0.16829408E-01 0.30000000E+03</pdfrwt>
<pdfrwt beam="2">0</pdfrwt>
<totfact> 0.33236879E+03</totfact>
</mgrwt>
</event>
<event>
 6    1  0.6377696E-002  0.3000000E+03  0.7818608E-02  0.1093470E+00
         21   -1    0    0  501  502  0.00000000000E+00  0.00000000000E+00  0.17602140675E+01  0.17602140675E+01  0.00000000000E+00 0. -1.
         13   -1    0    0    0    0 -0.00000000000E+00 -0.00000000000E+00 -0.10000000000E+04  0.10000000000E+04  0.00000000000E+00 0.  1.
    9000005    2    1    2  501    0  0.41560719823E+02 -0.52377099468E+01 -0.49867556106E+03  0.50044280782E+03  0.33108396569E+01 0.  0.
         13    1    3    3    0    0  0.24149246877E+02 -0.14032940837E+01 -0.28504568975E+03  0.28607027215E+03  0.00000000000E+00 0.  1.
          1    1    3    3  501    0  0.17411472946E+02 -0.38344158631E+01 -0.21362987131E+03  0.21437253567E+03  0.00000000000E+00 0.  1.
         -1    1    1    2    0  502 -0.41560719823E+02  0.52377099468E+01 -0.49956422487E+03  0.50131740625E+03  0.00000000000E+00 0. -1.
<mgrwt>
<rscale>  1 0.30000000E+03</rscale>
<asrwt>0</asrwt>
<pdfrwt beam="1">  1       21 0.64007919E-02 0.30000000E+03</pdfrwt>
<pdfrwt beam="2">0</pdfrwt>
<totfact> 0.18845043E+04</totfact>
</mgrwt>
</event>
<event>
 6    1  0.6377696E-002  0.3000000E+03  0.7818608E-02  0.1093470E+00
         21   -1    0    0  501  502  0.00000000000E+00  0.00000000000E+00  0.15096026084E+01  0.15096026084E+01  0.00000000000E+00 0. -1.
         13   -1    0    0    0    0 -0.00000000000E+00 -0.00000000000E+00 -0.10000000000E+04  0.10000000000E+04  0.00000000000E+00 0.  1.
    9000005    2    1    2  501    0 -0.31757660692E+02 -0.10759529114E+02 -0.75175322681E+03  0.75250448654E+03  0.24024510502E+01 0.  0.
         13    1    3    3    0    0 -0.17359681009E+02 -0.47154390108E+01 -0.41281096020E+03  0.41320271387E+03  0.00000000000E+00 0.  1.
          1    1    3    3  501    0 -0.14397979683E+02 -0.60440901030E+01 -0.33894226660E+03  0.33930177267E+03  0.00000000000E+00 0.  1.
         -1    1    1    2    0  502  0.31757660692E+02  0.10759529114E+02 -0.24673717059E+03  0.24900511607E+03  0.00000000000E+00 0. -1.
<mgrwt>
<rscale>  1 0.30000000E+03</rscale>
<asrwt>0</asrwt>
<pdfrwt beam="1">  1       21 0.54894756E-02 0.30000000E+03</pdfrwt>
<pdfrwt beam="2">0</pdfrwt>
<totfact> 0.24554654E+04</totfact>
</mgrwt>
</event>
<event>
 6    1  0.6377696E-002  0.3000000E+03  0.7818608E-02  0.1093470E+00
         21   -1    0    0  501  502  0.00000000000E+00  0.00000000000E+00  0.11187222083E+01  0.11187222083E+01  0.00000000000E+00 0. -1.
         13   -1    0    0    0    0 -0.00000000000E+00 -0.00000000000E+00 -0.10000000000E+04  0.10000000000E+04  0.00000000000E+00 0.  1.
    9000005    2    1    2  501    0 -0.25482694831E+02  0.20845436061E+02 -0.42000737958E+03  0.42130936564E+03  0.33886175204E+01 0.  0.
         13    1    3    3    0    0 -0.14029606673E+02  0.10727752779E+02 -0.24523674893E+03  0.24587187226E+03  0.00000000000E+00 0.  1.
          3    1    3    3  501    0 -0.11453088159E+02  0.10117683281E+02 -0.17477063065E+03  0.17543749338E+03  0.00000000000E+00 0.  1.
         -1    1    1    2    0  502  0.25482694831E+02 -0.20845436061E+02 -0.57887389821E+03  0.57980935657E+03  0.00000000000E+00 0. -1.
<mgrwt>
<rscale>  1 0.30000000E+03</rscale>
<asrwt>0</asrwt>
<pdfrwt beam="1">  1       21 0.40680893E-02 0.30000000E+03</pdfrwt>
<pdfrwt beam="2">0</pdfrwt>
<totfact> 0.40868453E+04</totfact>
</mgrwt>
</event>
<event>
 6    1  0.6377696E-002  0.3000000E+03  0.7818608E-02  0.1093470E+00
         21   -1    0    0  501  502  0.00000000000E+00  0.00000000000E+00  0.11001425255E+01  0.11001425255E+01  0.00000000000E+00 0. -1.
         13   -1    0    0    0    0 -0.00000000000E+00 -0.00000000000E+00 -0.10000000000E+04  0.10000000000E+04  0.00000000000E+00 0.  1.
    9000005    2    1    2  501    0  0.31896981153E+02  0.86210957000E+01 -0.49192828845E+03  0.49305298674E+03  0.40082493485E+01 0.  0.
         13    1    3    3    0    0  0.26170337827E+02  0.62508197423E+01 -0.37816086054E+03  0.37911686295E+03  0.00000000000E+00 0.  1.
          1    1    3    3  501    0  0.57266433262E+01  0.23702759576E+01 -0.11376742791E+03  0.11393612379E+03  0.00000000000E+00 0.  1.
         -3    1    1    2    0  502 -0.31896981153E+02 -0.86210957000E+01 -0.50697156903E+03  0.50804715578E+03  0.00000000000E+00 0. -1.
<mgrwt>
<rscale>  1 0.30000000E+03</rscale>
<asrwt>0</asrwt>
<pdfrwt beam="1">  1       21 0.40005267E-02 0.30000000E+03</pdfrwt>
<pdfrwt beam="2">0</pdfrwt>
<totfact> 0.42038001E+04</totfact>
</mgrwt>
</event>
<event>
 6    1  0.6377696E-002  0.3000000E+03  0.7818608E-02  0.1093470E+00
         21   -1    0    0  501  502  0.00000000000E+00  0.00000000000E+00  0.14163690687E+01  0.14163690687E+01  0.00000000000E+00 0. -1.
         13   -1    0    0    0    0 -0.00000000000E+00 -0.00000000000E+00 -0.10000000000E+04  0.10000000000E+04  0.00000000000E+00 0.  1.
    9000005    2    1    2  501    0  0.98505464745E+01 -0.36149626293E+02 -0.46557065442E+03  0.46708813485E+03  0.33856638317E+01 0.  0.
         13    1    3    3    0    0  0.68214405320E+01 -0.28721706790E+02 -0.35321195423E+03  0.35444344133E+03  0.00000000000E+00 0.  1.
          3    1    3    3  501    0  0.30291059425E+01 -0.74279195031E+01 -0.11235870019E+03  0.11264469353E+03  0.00000000000E+00 0.  1.
         -3    1    1    2    0  502 -0.98505464745E+01  0.36149626293E+02 -0.53301297651E+03  0.53432823422E+03  0.00000000000E+00 0. -1.
<mgrwt>
<rscale>  1 0.30000000E+03</rscale>
<asrwt>0</asrwt>
<pdfrwt beam="1">  1       21 0.51504438E-02 0.30000000E+03</pdfrwt>
<pdfrwt beam="2">0</pdfrwt>
<totfact> 0.27384080E+04</totfact>
</mgrwt>
</event>
<event>
 6    1  0.6377696E-002  0.3000000E+03  0.7818608E-02  0.1093470E+00
         21   -1    0    0  501  502  0.00000000000E+00  0.00000000000E+00  0.10537035668E+01  0.10537035668E+01  0.00000000000E+00 0. -1.
         13   -1    0    0    0    0 -0.00000000000E+00 -0.00000000000E+00 -0.10000000000E+04  0.10000000000E+04  0.00000000000E+00 0.  1.
    9000005    2    1    2  501    0  0.21943060417E+02  0.22864628484E+02 -0.58996155390E+03  0.59084301531E+03  0.60452066055E+01 0.  0.
         13    1    3    3    0    0  0.72476587461E+00  0.24283505585E+01 -0.29896807225E+02  0.30004020635E+02  0.00000000000E+00 0.  1.
          3    1    3    3  501    0  0.21218294543E+02  0.20436277925E+02 -0.56006474668E+03  0.56083899468E+03  0.00000000000E+00 0.  1.
         -3    1    1    2    0  502 -0.21943060417E+02 -0.22864628484E+02 -0.40898474253E+03  0.41021068825E+03  0.00000000000E+00 0. -1.
<mgrwt>
<rscale>  1 0.30000000E+03</rscale>
<asrwt>0</asrwt>
<pdfrwt beam="1">  1       21 0.38316574E-02 0.30000000E+03</pdfrwt>
<pdfrwt beam="2">0</pdfrwt>
<totfact> 0.45201494E+04</totfact>
</mgrwt>
</event>
<event>
 6    1  0.6377696E-002  0.3000000E+03  0.7818608E-02  0.1093470E+00
         21   -1    0    0  501  502  0.00000000000E+00  0.00000000000E+00  0.16002166343E+01  0.16002166343E+01  0.00000000000E+00 0. -1.
         13   -1    0    0    0    0 -0.00000000000E+00 -0.00000000000E+00 -0.10000000000E+04  0.10000000000E+04  0.00000000000E+00 0.  1.
    9000005    2    1    2  501    0 -0.36407524672E+02  0.97851069075E+01 -0.66466567535E+03  0.66574353437E+03  0.35689486015E+01 0.  0.
         13    1    3    3    0    0 -0.23333615493E+02  0.80172253289E+01 -0.42929362500E+03  0.43000203486E+03  0.00000000000E+00 0.  1.
          1    1    3    3  501    0 -0.13073909179E+02  0.17678815786E+01 -0.23537205035E+03  0.23574149951E+03  0.00000000000E+00 0.  1.
         -1    1    1    2    0  502  0.36407524672E+02 -0.97851069075E+01 -0.33373410802E+03  0.33585668227E+03  0.00000000000E+00 0. -1.
<mgrwt>
<rscale>  1 0.30000000E+03</rscale>
<asrwt>0</asrwt>
<pdfrwt beam="1">  1       21 0.58189818E-02 0.30000000E+03</pdfrwt>
<pdfrwt beam="2">0</pdfrwt>
<totfact> 0.22214204E+04</totfact>
</mgrwt>
</event>
<event>
 6    1  0.6377696E-002  0.3000000E+03  0.7818608E-02  0.1093470E+00
         21   -1    0    0  501  502  0.00000000000E+00  0.00000000000E+00  0.15396920117E+01  0.15396920117E+01  0.00000000000E+00 0. -1.
         13   -1    0    0    0    0 -0.00000000000E+00 -0.00000000000E+00 -0.10000000000E+04  0.10000000000E+04  0.00000000000E+00 0.  1.
    9000005    2    1    2  501    0  0.27300597977E+02  0.18313829335E+02 -0.77175512186E+03  0.77246337195E+03  0.36019293184E+01 0.  0.
         13    1    3    3    0    0  0.23058527189E+02  0.16378409419E+02 -0.68392168004E+03  0.68450625447E+03  0.00000000000E+00 0.  1.
          3    1    3    3  501    0  0.42420707875E+01  0.19354199157E+01 -0.87833441814E+02  0.87957117482E+02  0.00000000000E+00 0.  1.
         -1    1    1    2    0  502 -0.27300597977E+02 -0.18313829335E+02 -0.22670518613E+03  0.22907632006E+03  0.00000000000E+00 0. -1.
<mgrwt>
<rscale>  1 0.30000000E+03</rscale>
<asrwt>0</asrwt>
<pdfrwt beam="1">  1       21 0.55988918E-02 0.30000000E+03</pdfrwt>
<pdfrwt beam="2">0</pdfrwt>
<totfact> 0.23737126E+04</totfact>
</mgrwt>
</event>
<event>
 6    1  0.6377696E-002  0.3000000E+03  0.7818608E-02  0.1093470E+00
         21   -1    0    0  501  502  0.00000000000E+00  0.00000000000E+00  0.20313146294E+01  0.20313146294E+01  0.00000000000E+00 0. -1.
         13   -1    0    0    0    0 -0.00000000000E+00 -0.00000000000E+00 -0.10000000000E+04  0.10000000000E+04  0.00000000000E+00 0.  1.
    9000005    2    1    2  501    0  0.29685085106E+02  0.11231757131E+02 -0.85455568729E+03  0.85514821599E+03  0.23857899891E+01 0.  0.
         13    1    3    3    0    0  0.19642846361E+02  0.75693854281E+01 -0.59609702931E+03  0.59646861222E+03  0.00000000000E+00 0.  1.
          3    1    3    3  501    0  0.10042238745E+02  0.36623717026E+01 -0.25845865798E+03  0.25867960377E+03  0.00000000000E+00 0.  1.
         -3    1    1    2    0  502 -0.29685085106E+02 -0.11231757131E+02 -0.14341299808E+03  0.14688309864E+03  0.00000000000E+00 0. -1.
<mgrwt>
<rscale>  1 0.30000000E+03</rscale>
<asrwt>0</asrwt>
<pdfrwt beam="1">  1       21 0.73866142E-02 0.30000000E+03</pdfrwt>
<pdfrwt beam="2">0</pdfrwt>
<totfact> 0.14690933E+04</totfact>
</mgrwt>
</event>
<event>
 6    1  0.6377696E-002  0.3000000E+03  0.7818608E-02  0.1093470E+00
         21   -1    0    0  501  502  0.00000000000E+00  0.00000000000E+00  0.63189467820E+01  0.63189467820E+01  0.00000000000E+00 0. -1.
         13   -1    0    0    0    0 -0.00000000000E+00 -0.00000000000E+00 -0.10000000000E+04  0.10000000000E+04  0.00000000000E+00 0.  1.
    9000005    2    1    2  501    0  0.35273287910E+02 -0.17856138945E+02 -0.60821806367E+02  0.72622303876E+02  0.34147258408E+01 0.  0.
         13    1    3    3    0    0  0.10406796762E+02 -0.70474612645E+01 -0.19227699507E+02  0.22971124427E+02  0.00000000000E+00 0.  1.
          3    1    3    3  501    0  0.24866491148E+02 -0.10808677681E+02 -0.41594106860E+02  0.49651179449E+02  0.00000000000E+00 0.  1.
         -1    1    1    2    0  502 -0.35273287910E+02  0.17856138945E+02 -0.93285924685E+03  0.93369664291E+03  0.00000000000E+00 0. -1.
<mgrwt>
<rscale>  1 0.30000000E+03</rscale>
<asrwt>0</asrwt>
<pdfrwt beam="1">  1       21 0.22978037E-01 0.30000000E+03</pdfrwt>
<pdfrwt beam="2">0</pdfrwt>
<totfact> 0.18376714E+03</totfact>
</mgrwt>
</event>
<event>
 6    1  0.6377696E-002  0.3000000E+03  0.7818608E-02  0.1093470E+00
         21   -1    0    0  501  502  0.00000000000E+00  0.00000000000E+00  0.96385430492E+00  0.96385430492E+00  0.00000000000E+00 0. -1.
         13   -1    0    0    0    0 -0.00000000000E+00 -0.00000000000E+00 -0.10000000000E+04  0.10000000000E+04  0.00000000000E+00 0.  1.
    9000005    2    1    2  501    0 -0.30598635261E+02  0.29669189736E+01 -0.55952404821E+03  0.56037792293E+03  0.33431865402E+01 0.  0.
         13    1    3    3    0    0 -0.24778545292E+02  0.37135524365E+01 -0.45436150671E+03  0.45505180536E+03  0.00000000000E+00 0.  1.
          3    1    3    3  501    0 -0.58200899684E+01 -0.74663346289E+00 -0.10516254150E+03  0.10532611757E+03  0.00000000000E+00 0.  1.
         -1    1    1    2    0  502  0.30598635261E+02 -0.29669189736E+01 -0.43951209749E+03  0.44058593138E+03  0.00000000000E+00 0. -1.
<mgrwt>
<rscale>  1 0.30000000E+03</rscale>
<asrwt>0</asrwt>
<pdfrwt beam="1">  1       21 0.35049321E-02 0.30000000E+03</pdfrwt>
<pdfrwt beam="2">0</pdfrwt>
<totfact> 0.52492878E+04</totfact>
</mgrwt>
</event>
<event>
 6    1  0.6377696E-002  0.3000000E+03  0.7818608E-02  0.1093470E+00
         21   -1    0    0  501  502  0.00000000000E+00  0.00000000000E+00  0.95141274741E+00  0.95141274741E+00  0.00000000000E+00 0. -1.
         13   -1    0    0    0    0 -0.00000000000E+00 -0.00000000000E+00 -0.10000000000E+04  0.10000000000E+04  0.00000000000E+00 0.  1.
    9000005    2    1    2  501    0 -0.13280057773E+02  0.27230660607E+02 -0.41396105360E+03  0.41508001829E+03  0.31303149684E+01 0.  0.
         13    1    3    3    0    0 -0.28212739074E+01  0.90850450259E+01 -0.12804264412E+03  0.12839554643E+03  0.00000000000E+00 0.  1.
          3    1    3    3  501    0 -0.10458783865E+02  0.18145615581E+02 -0.28591840948E+03  0.28668447185E+03  0.00000000000E+00 0.  1.
         -1    1    1    2    0  502  0.13280057773E+02 -0.27230660607E+02 -0.58508753365E+03  0.58587139446E+03  0.00000000000E+00 0. -1.
<mgrwt>
<rscale>  1 0.30000000E+03</rscale>
<asrwt>0</asrwt>
<pdfrwt beam="1">  1       21 0.34596900E-02 0.30000000E+03</pdfrwt>
<pdfrwt beam="2">0</pdfrwt>
<totfact> 0.53646944E+04</totfact>
</mgrwt>
</event>
<event>
 6    1  0.6377696E-002  0.3000000E+03  0.7818608E-02  0.1093470E+00
         21   -1    0    0  501  502  0.00000000000E+00  0.00000000000E+00  0.11442533109E+01  0.11442533109E+01  0.00000000000E+00 0. -1.
         13   -1    0    0    0    0 -0.00000000000E+00 -0.00000000000E+00 -0.10000000000E+04  0.10000000000E+04  0.00000000000E+00 0.  1.
    9000005    2    1    2  501    0  0.21132304241E+02 -0.23890974610E+02 -0.33814671730E+03  0.33966577712E+03  0.35049641889E+01 0.  0.
         13    1    3    3    0    0  0.20046600755E+02 -0.23163918821E+02 -0.31629070226E+03  0.31777073760E+03  0.00000000000E+00 0.  1.
          1    1    3    3  501    0  0.10857034853E+01 -0.72705578861E+00 -0.21856015036E+02  0.21895039517E+02  0.00000000000E+00 0.  1.
         -3    1    1    2    0  502 -0.21132304241E+02  0.23890974610E+02 -0.66070902939E+03  0.66147847619E+03  0.00000000000E+00 0. -1.
<mgrwt>
<rscale>  1 0.30000000E+03</rscale>
<asrwt>0</asrwt>
<pdfrwt beam="1">  1       21 0.41609299E-02 0.30000000E+03</pdfrwt>
<pdfrwt beam="2">0</pdfrwt>
<totfact> 0.39342307E+04</totfact>
</mgrwt>
</event>
<event>
 6    1  0.6377696E-002  0.3000000E+03  0.7818608E-02  0.1093470E+00
         21   -1    0    0  501  502  0.00000000000E+00  0.00000000000E+00  0.13571272181E+01  0.13571272181E+01  0.00000000000E+00 0. -1.
         13   -1    0    0    0    0 -0.00000000000E+00 -0.00000000000E+00 -0.10000000000E+04  0.10000000000E+04  0.00000000000E+00 0.  1.
    9000005    2    1    2  501    0  0.34202645192E+02 -0.27222463006E+01 -0.67957911842E+03  0.68045385377E+03  0.35266631695E+01 0.  0.
         13    1    3    3    0    0  0.91558071426E+01  0.22277718307E+00 -0.20651445265E+03  0.20671743417E+03  0.00000000000E+00 0.  1.
          1    1    3    3  501    0  0.25046838050E+02 -0.29450234837E+01 -0.47306466577E+03  0.47373641961E+03  0.00000000000E+00 0.  1.
         -3    1    1    2    0  502 -0.34202645192E+02  0.27222463006E+01 -0.31906375436E+03  0.32090327345E+03  0.00000000000E+00 0. -1.
<mgrwt>
<rscale>  1 0.30000000E+03</rscale>
<asrwt>0</asrwt>
<pdfrwt beam="1">  1       21 0.49350185E-02 0.30000000E+03</pdfrwt>
<pdfrwt beam="2">0</pdfrwt>
<totfact> 0.29454017E+04</totfact>
</mgrwt>
</event>
<event>
 6    1  0.6377696E-002  0.3000000E+03  0.7818608E-02  0.1093470E+00
         21   -1    0    0  501  502  0.00000000000E+00  0.00000000000E+00  0.12223052068E+01  0.12223052068E+01  0.00000000000E+00 0. -1.
         13   -1    0    0    0    0 -0.00000000000E+00 -0.00000000000E+00 -0.10000000000E+04  0.10000000000E+04  0.00000000000E+00 0.  1.
    9000005    2    1    2  501    0 -0.30042913565E+02  0.20924504070E+01 -0.24886436271E+03  0.25070451019E+03  0.35107545159E+01 0.  0.
         13    1    3    3    0    0 -0.11259347901E+02 -0.69702109955E+00 -0.99748790337E+02  0.10038465982E+03  0.00000000000E+00 0.  1.
          3    1    3    3  501    0 -0.18783565664E+02  0.27894715065E+01 -0.14911557237E+03  0.15031985037E+03  0.00000000000E+00 0.  1.
         -3    1    1    2    0  502  0.30042913565E+02 -0.20924504070E+01 -0.74991333208E+03  0.75051779502E+03  0.00000000000E+00 0. -1.
<mgrwt>
<rscale>  1 0.30000000E+03</rscale>
<asrwt>0</asrwt>
<pdfrwt beam="1">  1       21 0.44447556E-02 0.30000000E+03</pdfrwt>
<pdfrwt beam="2">0</pdfrwt>
<totfact> 0.35187730E+04</totfact>
</mgrwt>
</event>
<event>
 6    1  0.6377696E-002  0.3000000E+03  0.7818608E-02  0.1093470E+00
         21   -1    0    0  501  502  0.00000000000E+00  0.00000000000E+00  0.21403297116E+01  0.21403297116E+01  0.00000000000E+00 0. -1.
         13   -1    0    0    0    0 -0.00000000000E+00 -0.00000000000E+00 -0.10000000000E+04  0.10000000000E+04  0.00000000000E+00 0.  1.
    9000005    2    1    2  501    0 -0.31228755075E+01  0.45162310562E+02 -0.39984814983E+03  0.40241775614E+03  0.34815068606E+01 0.  0.
         13    1    3    3    0    0 -0.22834894763E+01  0.43190169666E+02 -0.37909640097E+03  0.38155561366E+03  0.00000000000E+00 0.  1.
          3    1    3    3  501    0 -0.83938603122E+00  0.19721408958E+01 -0.20751748857E+02  0.20862142489E+02  0.00000000000E+00 0.  1.
         -3    1    1    2    0  502  0.31228755075E+01 -0.45162310562E+02 -0.59801152046E+03  0.59972257357E+03  0.00000000000E+00 0. -1.
<mgrwt>
<rscale>  1 0.30000000E+03</rscale>
<asrwt>0</asrwt>
<pdfrwt beam="1">  1       21 0.77830335E-02 0.30000000E+03</pdfrwt>
<pdfrwt beam="2">0</pdfrwt>
<totfact> 0.13405429E+04</totfact>
</mgrwt>
</event>
<event>
 6    1  0.6377696E-002  0.3000000E+03  0.7818608E-02  0.1093470E+00
         21   -1    0    0  501  502  0.00000000000E+00  0.00000000000E+00  0.38659335634E+01  0.38659335634E+01  0.00000000000E+00 0. -1.
         13   -1    0    0    0    0 -0.00000000000E+00 -0.00000000000E+00 -0.10000000000E+04  0.10000000000E+04  0.00000000000E+00 0.  1.
    9000005    2    1    2  501    0 -0.88151210810E+01  0.45397443471E+02 -0.16324692446E+03  0.16969591162E+03  0.29171634508E+01 0.  0.
         13    1    3    3    0    0 -0.22861907172E+01  0.17535151822E+02 -0.65660336408E+02  0.67999911725E+02  0.00000000000E+00 0.  1.
          1    1    3    3  501    0 -0.65289303638E+01  0.27862291649E+02 -0.97586588050E+02  0.10169599990E+03  0.00000000000E+00 0.  1.
         -1    1    1    2    0  502  0.88151210810E+01 -0.45397443471E+02 -0.83288714198E+03  0.83417002194E+03  0.00000000000E+00 0. -1.
<mgrwt>
<rscale>  1 0.30000000E+03</rscale>
<asrwt>0</asrwt>
<pdfrwt beam="1">  1       21 0.14057970E-01 0.30000000E+03</pdfrwt>
<pdfrwt beam="2">0</pdfrwt>
<totfact> 0.46412983E+03</totfact>
</mgrwt>
</event>
<event>
 6    1  0.6377696E-002  0.3000000E+03  0.7818608E-02  0.1093470E+00
         21   -1    0    0  501  502  0.00000000000E+00  0.00000000000E+00  0.12229477789E+01  0.12229477789E+01  0.00000000000E+00 0. -1.
         13   -1    0    0    0    0 -0.00000000000E+00 -0.00000000000E+00 -0.10000000000E+04  0.10000000000E+04  0.00000000000E+00 0.  1.
    9000005    2    1    2  501    0 -0.54686328402E+01  0.33023185890E+02 -0.64174959939E+03  0.64262980949E+03  0.31760004249E+01 0.  0.
         13    1    3    3    0    0 -0.47175035159E+01  0.20608965004E+02 -0.38790714448E+03  0.38848286579E+03  0.00000000000E+00 0.  1.
          3    1    3    3  501    0 -0.75112932428E+00  0.12414220886E+02 -0.25384245491E+03  0.25414694370E+03  0.00000000000E+00 0.  1.
         -1    1    1    2    0  502  0.54686328402E+01 -0.33023185890E+02 -0.35702745283E+03  0.35859313829E+03  0.00000000000E+00 0. -1.
<mgrwt>
<rscale>  1 0.30000000E+03</rscale>
<asrwt>0</asrwt>
<pdfrwt beam="1">  1       21 0.44470922E-02 0.30000000E+03</pdfrwt>
<pdfrwt beam="2">0</pdfrwt>
<totfact> 0.35156392E+04</totfact>
</mgrwt>
</event>
<event>
 6    1  0.6377696E-002  0.3000000E+03  0.7818608E-02  0.1093470E+00
         21   -1    0    0  501  502  0.00000000000E+00  0.00000000000E+00  0.12419277261E+01  0.12419277261E+01  0.00000000000E+00 0. -1.
         13   -1    0    0    0    0 -0.00000000000E+00 -0.00000000000E+00 -0.10000000000E+04  0.10000000000E+04  0.00000000000E+00 0.  1.
    9000005    2    1    2  501    0  0.61706813206E+01  0.33556640213E+02 -0.62185545514E+03  0.62279812977E+03  0.30295123741E+01 0.  0.
         13    1    3    3    0    0  0.13631798798E+01  0.47219634216E+01 -0.10811297495E+03  0.10822463005E+03  0.00000000000E+00 0.  1.
          1    1    3    3  501    0  0.48075014408E+01  0.28834676791E+02 -0.51374248020E+03  0.51457349972E+03  0.00000000000E+00 0.  1.
         -3    1    1    2    0  502 -0.61706813206E+01 -0.33556640213E+02 -0.37690261713E+03  0.37844379795E+03  0.00000000000E+00 0. -1.
<mgrwt>
<rscale>  1 0.30000000E+03</rscale>
<asrwt>0</asrwt>
<pdfrwt beam="1">  1       21 0.45161103E-02 0.30000000E+03</pdfrwt>
<pdfrwt beam="2">0</pdfrwt>
<totfact> 0.34249830E+04</totfact>
</mgrwt>
</event>
<event>
 6    1  0.6377696E-002  0.3000000E+03  0.7818608E-02  0.1093470E+00
         21   -1    0    0  501  502  0.00000000000E+00  0.00000000000E+00  0.11995882550E+01  0.11995882550E+01  0.00000000000E+00 0. -1.
         13   -1    0    0    0    0 -0.00000000000E+00 -0.00000000000E+00 -0.10000000000E+04  0.10000000000E+04  0.00000000000E+00 0.  1.
    9000005    2    1    2  501    0  0.20037780078E+02 -0.26071338164E+02 -0.65401865074E+03  0.65485338858E+03  0.33671533211E+01 0.  0.
         13    1    3    3    0    0  0.17770772177E+02 -0.21800583734E+02 -0.57419097430E+03  0.57487941411E+03  0.00000000000E+00 0.  1.
          3    1    3    3  501    0  0.22670079010E+01 -0.42707544294E+01 -0.79827676437E+02  0.79973974476E+02  0.00000000000E+00 0.  1.
         -3    1    1    2    0  502 -0.20037780078E+02  0.26071338164E+02 -0.34478176101E+03  0.34634619967E+03  0.00000000000E+00 0. -1.
<mgrwt>
<rscale>  1 0.30000000E+03</rscale>
<asrwt>0</asrwt>
<pdfrwt beam="1">  1       21 0.43621483E-02 0.30000000E+03</pdfrwt>
<pdfrwt beam="2">0</pdfrwt>
<totfact> 0.36323993E+04</totfact>
</mgrwt>
</event>
<event>
 6    1  0.6377696E-002  0.3000000E+03  0.7818608E-02  0.1093470E+00
         21   -1    0    0  501  502  0.00000000000E+00  0.00000000000E+00  0.16141080665E+01  0.16141080665E+01  0.00000000000E+00 0. -1.
         13   -1    0    0    0    0 -0.00000000000E+00 -0.00000000000E+00 -0.10000000000E+04  0.10000000000E+04  0.00000000000E+00 0.  1.
    9000005    2    1    2  501    0  0.29172702675E+02  0.10146211236E+02 -0.81875919704E+03  0.81935127120E+03  0.39863138104E+01 0.  0.
         13    1    3    3    0    0  0.22326802696E+02  0.71050194411E+01 -0.57547063663E+03  0.57594741170E+03  0.00000000000E+00 0.  1.
          1    1    3    3  501    0  0.68458999783E+01  0.30411917947E+01 -0.24328856040E+03  0.24340385950E+03  0.00000000000E+00 0.  1.
         -3    1    1    2    0  502 -0.29172702675E+02 -0.10146211236E+02 -0.17962669490E+03  0.18226283687E+03  0.00000000000E+00 0. -1.
<mgrwt>
<rscale>  1 0.30000000E+03</rscale>
<asrwt>0</asrwt>
<pdfrwt beam="1">  1       21 0.58694963E-02 0.30000000E+03</pdfrwt>
<pdfrwt beam="2">0</pdfrwt>
<totfact> 0.21885830E+04</totfact>
</mgrwt>
</event>
<event>
 6    1  0.6377696E-002  0.3000000E+03  0.7818608E-02  0.1093470E+00
         21   -1    0    0  501  502  0.00000000000E+00  0.00000000000E+00  0.16665867351E+01  0.16665867351E+01  0.00000000000E+00 0. -1.
         13   -1    0    0    0    0 -0.00000000000E+00 -0.00000000000E+00 -0.10000000000E+04  0.10000000000E+04  0.00000000000E+00 0.  1.
    9000005    2    1    2  501    0 -0.31768413716E+02 -0.29356108008E+01 -0.18945354526E+03  0.19215779074E+03  0.37577668594E+01 0.  0.
         13    1    3    3    0    0 -0.18541313750E+02  0.14372372744E+00 -0.10840233766E+03  0.10997666926E+03  0.00000000000E+00 0.  1.
          1    1    3    3  501    0 -0.13227099966E+02 -0.30793345282E+01 -0.81051207598E+02  0.82181121480E+02  0.00000000000E+00 0.  1.
         -1    1    1    2    0  502  0.31768413716E+02  0.29356108008E+01 -0.80887986801E+03  0.80950879599E+03  0.00000000000E+00 0. -1.
<mgrwt>
<rscale>  1 0.30000000E+03</rscale>
<asrwt>0</asrwt>
<pdfrwt beam="1">  1       21 0.60603282E-02 0.30000000E+03</pdfrwt>
<pdfrwt beam="2">0</pdfrwt>
<totfact> 0.20711138E+04</totfact>
</mgrwt>
</event>
<event>
 6    1  0.6377696E-002  0.3000000E+03  0.7818608E-02  0.1093470E+00
         21   -1    0    0  501  502  0.00000000000E+00  0.00000000000E+00  0.57693760495E+01  0.57693760495E+01  0.00000000000E+00 0. -1.
         13   -1    0    0    0    0 -0.00000000000E+00 -0.00000000000E+00 -0.10000000000E+04  0.10000000000E+04  0.00000000000E+00 0.  1.
    9000005    2    1    2  501    0  0.52081183976E+01  0.64157312529E+02 -0.23113051518E+03  0.23995930740E+03  0.39835800078E+01 0.  0.
         13    1    3    3    0    0  0.24107671418E+01  0.17306527199E+02 -0.68276329468E+02  0.70476839086E+02  0.00000000000E+00 0.  1.
          3    1    3    3  501    0  0.27973512558E+01  0.46850785330E+02 -0.16285418572E+03  0.16948246831E+03  0.00000000000E+00 0.  1.
         -3    1    1    2    0  502 -0.52081183976E+01 -0.64157312529E+02 -0.76310010877E+03  0.76581006865E+03  0.00000000000E+00 0. -1.
<mgrwt>
<rscale>  1 0.30000000E+03</rscale>
<asrwt>0</asrwt>
<pdfrwt beam="1">  1       21 0.20979594E-01 0.30000000E+03</pdfrwt>
<pdfrwt beam="2">0</pdfrwt>
<totfact> 0.21894992E+03</totfact>
</mgrwt>
</event>
<event>
 6    1  0.6377696E-002  0.3000000E+03  0.7818608E-02  0.1093470E+00
         21   -1    0    0  501  502  0.00000000000E+00  0.00000000000E+00  0.39628841673E+01  0.39628841673E+01  0.00000000000E+00 0. -1.
         13   -1    0    0    0    0 -0.00000000000E+00 -0.00000000000E+00 -0.10000000000E+04  0.10000000000E+04  0.00000000000E+00 0.  1.
    9000005    2    1    2  501    0  0.15944492249E+02  0.60287921516E+02 -0.43200371433E+03  0.43649258686E+03  0.31159069476E+01 0.  0.
         13    1    3    3    0    0  0.14337962769E+02  0.52437683332E+02 -0.38275222322E+03  0.38659352321E+03  0.00000000000E+00 0.  1.
          1    1    3    3  501    0  0.16065294805E+01  0.78502381840E+01 -0.49251491108E+02  0.49899063648E+02  0.00000000000E+00 0.  1.
         -3    1    1    2    0  502 -0.15944492249E+02 -0.60287921516E+02 -0.56403340151E+03  0.56747029731E+03  0.00000000000E+00 0. -1.
<mgrwt>
<rscale>  1 0.30000000E+03</rscale>
<asrwt>0</asrwt>
<pdfrwt beam="1">  1       21 0.14410518E-01 0.30000000E+03</pdfrwt>
<pdfrwt beam="2">0</pdfrwt>
<totfact> 0.44344870E+03</totfact>
</mgrwt>
</event>
<event>
 6    1  0.6377696E-002  0.3000000E+03  0.7818608E-02  0.1093470E+00
         21   -1    0    0  501  502  0.00000000000E+00  0.00000000000E+00  0.17995815657E+01  0.17995815657E+01  0.00000000000E+00 0. -1.
         13   -1    0    0    0    0 -0.00000000000E+00 -0.00000000000E+00 -0.10000000000E+04  0.10000000000E+04  0.00000000000E+00 0.  1.
    9000005    2    1    2  501    0  0.39524042933E+02  0.35954193426E+01 -0.67459967397E+03  0.67577424693E+03  0.33219988021E+01 0.  0.
         13    1    3    3    0    0  0.89740325027E+01  0.21378878976E+01 -0.16457893759E+03  0.16483728499E+03  0.00000000000E+00 0.  1.
          3    1    3    3  501    0  0.30550010430E+02  0.14575314450E+01 -0.51002073639E+03  0.51093696194E+03  0.00000000000E+00 0.  1.
         -1    1    1    2    0  502 -0.39524042933E+02 -0.35954193426E+01 -0.32360074446E+03  0.32602533464E+03  0.00000000000E+00 0. -1.
<mgrwt>
<rscale>  1 0.30000000E+03</rscale>
<asrwt>0</asrwt>
<pdfrwt beam="1">  1       21 0.65439468E-02 0.30000000E+03</pdfrwt>
<pdfrwt beam="2">0</pdfrwt>
<totfact> 0.18137164E+04</totfact>
</mgrwt>
</event>
<event>
 6    1  0.6377696E-002  0.3000000E+03  0.7818608E-02  0.1093470E+00
         21   -1    0    0  501  502  0.00000000000E+00  0.00000000000E+00  0.15777037846E+01  0.15777037846E+01  0.00000000000E+00 0. -1.
         13   -1    0    0    0    0 -0.00000000000E+00 -0.00000000000E+00 -0.10000000000E+04  0.10000000000E+04  0.00000000000E+00 0.  1.
    9000005    2    1    2  501    0 -0.86221870629E+01 -0.31597298295E+02 -0.21828909172E+03  0.22075727108E+03  0.33036044618E+01 0.  0.
         13    1    3    3    0    0 -0.47131767590E+01 -0.14324799076E+02 -0.11020081051E+03  0.11122784067E+03  0.00000000000E+00 0.  1.
          3    1    3    3  501    0 -0.39090103038E+01 -0.17272499219E+02 -0.10808828121E+03  0.10952943041E+03  0.00000000000E+00 0.  1.
         -3    1    1    2    0  502  0.86221870629E+01  0.31597298295E+02 -0.78013320450E+03  0.78082043271E+03  0.00000000000E+00 0. -1.
<mgrwt>
<rscale>  1 0.30000000E+03</rscale>
<asrwt>0</asrwt>
<pdfrwt beam="1">  1       21 0.57371168E-02 0.30000000E+03</pdfrwt>
<pdfrwt beam="2">0</pdfrwt>
<totfact> 0.22762716E+04</totfact>
</mgrwt>
</event>
<event>
 6    1  0.6377696E-002  0.3000000E+03  0.7818608E-02  0.1093470E+00
         21   -1    0    0  501  502  0.00000000000E+00  0.00000000000E+00  0.15555288293E+01  0.15555288293E+01  0.00000000000E+00 0. -1.
         13   -1    0    0    0    0 -0.00000000000E+00 -0.00000000000E+00 -0.10000000000E+04  0.10000000000E+04  0.00000000000E+00 0.  1.
    9000005    2    1    2  501    0  0.10985168017E+02 -0.37684472930E+02 -0.53508166008E+03  0.53653306903E+03  0.38154674542E+01 0.  0.
         13    1    3    3    0    0  0.13511265210E+00 -0.18747861060E+01 -0.17494603905E+02  0.17595290398E+02  0.00000000000E+00 0.  1.
          3    1    3    3  501    0  0.10850055365E+02 -0.35809686824E+02 -0.51758705618E+03  0.51893777864E+03  0.00000000000E+00 0.  1.
         -3    1    1    2    0  502 -0.10985168017E+02  0.37684472930E+02 -0.46336281109E+03  0.46502245980E+03  0.00000000000E+00 0. -1.
<mgrwt>
<rscale>  1 0.30000000E+03</rscale>
<asrwt>0</asrwt>
<pdfrwt beam="1">  1       21 0.56564804E-02 0.30000000E+03</pdfrwt>
<pdfrwt beam="2">0</pdfrwt>
<totfact> 0.23323528E+04</totfact>
</mgrwt>
</event>
<event>
 6    1  0.6377696E-002  0.3000000E+03  0.7818608E-02  0.1093470E+00
         21   -1    0    0  501  502  0.00000000000E+00  0.00000000000E+00  0.35027634944E+01  0.35027634944E+01  0.00000000000E+00 0. -1.
         13   -1    0    0    0    0 -0.00000000000E+00 -0.00000000000E+00 -0.10000000000E+04  0.10000000000E+04  0.00000000000E+00 0.  1.
    9000005    2    1    2  501    0 -0.13044802879E+02  0.47354654089E+02 -0.21912828659E+03  0.22458356715E+03  0.28182445764E+01 0.  0.
         13    1    3    3    0    0 -0.29745428225E+01  0.15757779831E+02 -0.71862379806E+02  0.73629865962E+02  0.00000000000E+00 0.  1.
          1    1    3    3  501    0 -0.10070260056E+02  0.31596874258E+02 -0.14726590679E+03  0.15095370119E+03  0.00000000000E+00 0.  1.
         -1    1    1    2    0  502  0.13044802879E+02 -0.47354654089E+02 -0.77736894991E+03  0.77891919634E+03  0.00000000000E+00 0. -1.
<mgrwt>
<rscale>  1 0.30000000E+03</rscale>
<asrwt>0</asrwt>
<pdfrwt beam="1">  1       21 0.12737349E-01 0.30000000E+03</pdfrwt>
<pdfrwt beam="2">0</pdfrwt>
<totfact> 0.55597984E+03</totfact>
</mgrwt>
</event>
<event>
 6    1  0.6377696E-002  0.3000000E+03  0.7818608E-02  0.1093470E+00
         21   -1    0    0  501  502  0.00000000000E+00  0.00000000000E+00  0.12396507078E+01  0.12396507078E+01  0.00000000000E+00 0. -1.
         13   -1    0    0    0    0 -0.00000000000E+00 -0.00000000000E+00 -0.10000000000E+04  0.10000000000E+04  0.00000000000E+00 0.  1.
    9000005    2    1    2  501    0  0.56342130357E+01  0.33308350180E+02 -0.36306090010E+03  0.36464324775E+03  0.32078659960E+01 0.  0.
         13    1    3    3    0    0  0.47562413992E+01  0.21587787370E+02 -0.24829143902E+03  0.24927353066E+03  0.00000000000E+00 0.  1.
          1    1    3    3  501    0  0.87797163654E+00  0.11720562810E+02 -0.11476946107E+03  0.11536971709E+03  0.00000000000E+00 0.  1.
         -3    1    1    2    0  502 -0.56342130357E+01 -0.33308350180E+02 -0.63569944919E+03  0.63659640295E+03  0.00000000000E+00 0. -1.
<mgrwt>
<rscale>  1 0.30000000E+03</rscale>
<asrwt>0</asrwt>
<pdfrwt beam="1">  1       21 0.45078303E-02 0.30000000E+03</pdfrwt>
<pdfrwt beam="2">0</pdfrwt>
<totfact> 0.34356675E+04</totfact>
</mgrwt>
</event>
<event>
 6    1  0.6377696E-002  0.3000000E+03  0.7818608E-02  0.1093470E+00
         21   -1    0    0  501  502  0.00000000000E+00  0.00000000000E+00  0.25918893623E+01  0.25918893623E+01  0.00000000000E+00 0. -1.
         13   -1    0    0    0    0 -0.00000000000E+00 -0.00000000000E+00 -0.10000000000E+04  0.10000000000E+04  0.00000000000E+00 0.  1.
    9000005    2    1    2  501    0 -0.34255650521E+02 -0.20584647759E+01 -0.86879589064E+03  0.86947994398E+03  0.33743927659E+01 0.  0.
         13    1    3    3    0    0 -0.64995711171E+01 -0.15379681580E+01 -0.15198853321E+03  0.15213521616E+03  0.00000000000E+00 0.  1.
          3    1    3    3  501    0 -0.27756079403E+02 -0.52049661790E+00 -0.71680735743E+03  0.71734472782E+03  0.00000000000E+00 0.  1.
         -1    1    1    2    0  502  0.34255650521E+02  0.20584647759E+01 -0.12861222000E+03  0.13311194538E+03  0.00000000000E+00 0. -1.
<mgrwt>
<rscale>  1 0.30000000E+03</rscale>
<asrwt>0</asrwt>
<pdfrwt beam="1">  1       21 0.94250721E-02 0.30000000E+03</pdfrwt>
<pdfrwt beam="2">0</pdfrwt>
<totfact> 0.95615907E+03</totfact>
</mgrwt>
</event>
<event>
 6    1  0.6377696E-002  0.3000000E+03  0.7818608E-02  0.1093470E+00
         21   -1    0    0  501  502  0.00000000000E+00  0.00000000000E+00  0.38828758266E+01  0.38828758266E+01  0.00000000000E+00 0. -1.
         13   -1    0    0    0    0 -0.00000000000E+00 -0.00000000000E+00 -0.10000000000E+04  0.10000000000E+04  0.00000000000E+00 0.  1.
    9000005    2    1    2  501    0  0.30330851944E+02 -0.53768357512E+02 -0.56406858255E+03  0.56744623762E+03  0.32969563791E+01 0.  0.
         13    1    3    3    0    0  0.14391828409E+02 -0.24217624869E+02 -0.24351495084E+03  0.24513904088E+03  0.00000000000E+00 0.  1.
          3    1    3    3  501    0  0.15939023535E+02 -0.29550732643E+02 -0.32055363170E+03  0.32230719674E+03  0.00000000000E+00 0.  1.
         -1    1    1    2    0  502 -0.30330851944E+02  0.53768357512E+02 -0.43204854163E+03  0.43643663821E+03  0.00000000000E+00 0. -1.
<mgrwt>
<rscale>  1 0.30000000E+03</rscale>
<asrwt>0</asrwt>
<pdfrwt beam="1">  1       21 0.14119578E-01 0.30000000E+03</pdfrwt>
<pdfrwt beam="2">0</pdfrwt>
<totfact> 0.46041351E+03</totfact>
</mgrwt>
</event>
<event>
 6    1  0.6377696E-002  0.3000000E+03  0.7818608E-02  0.1093470E+00
         21   -1    0    0  501  502  0.00000000000E+00  0.00000000000E+00  0.26498023190E+01  0.26498023190E+01  0.00000000000E+00 0. -1.
         13   -1    0    0    0    0 -0.00000000000E+00 -0.00000000000E+00 -0.10000000000E+04  0.10000000000E+04  0.00000000000E+00 0.  1.
    9000005    2    1    2  501    0 -0.21314979351E+01 -0.48996949455E+02 -0.34839467717E+03  0.35184375445E+03  0.31515276792E+01 0.  0.
         13    1    3    3    0    0 -0.90320713617E+00 -0.39219196770E+01 -0.31981326428E+02  0.32233561348E+02  0.00000000000E+00 0.  1.
          3    1    3    3  501    0 -0.12282907989E+01 -0.45075029778E+02 -0.31641335074E+03  0.31961019310E+03  0.00000000000E+00 0.  1.
         -3    1    1    2    0  502  0.21314979351E+01  0.48996949455E+02 -0.64895552051E+03  0.65080604787E+03  0.00000000000E+00 0. -1.
<mgrwt>
<rscale>  1 0.30000000E+03</rscale>
<asrwt>0</asrwt>
<pdfrwt beam="1">  1       21 0.96356651E-02 0.30000000E+03</pdfrwt>
<pdfrwt beam="2">0</pdfrwt>
<totfact> 0.91924316E+03</totfact>
</mgrwt>
</event>
<event>
 6    1  0.6377696E-002  0.3000000E+03  0.7818608E-02  0.1093470E+00
         21   -1    0    0  501  502  0.00000000000E+00  0.00000000000E+00  0.17555484451E+01  0.17555484451E+01  0.00000000000E+00 0. -1.
         13   -1    0    0    0    0 -0.00000000000E+00 -0.00000000000E+00 -0.10000000000E+04  0.10000000000E+04  0.00000000000E+00 0.  1.
    9000005    2    1    2  501    0  0.13159752323E+02 -0.39247663318E+02 -0.55713548296E+03  0.55870850768E+03  0.64569359875E+01 0.  0.
         13    1    3    3    0    0  0.67641718736E+01 -0.20850170975E+02 -0.33749963040E+03  0.33821070972E+03  0.00000000000E+00 0.  1.
          1    1    3    3  501    0  0.63955804492E+01 -0.18397492343E+02 -0.21963585256E+03  0.22049779795E+03  0.00000000000E+00 0.  1.
         -3    1    1    2    0  502 -0.13159752323E+02  0.39247663318E+02 -0.44110896860E+03  0.44304704077E+03  0.00000000000E+00 0. -1.
<mgrwt>
<rscale>  1 0.30000000E+03</rscale>
<asrwt>0</asrwt>
<pdfrwt beam="1">  1       21 0.63838260E-02 0.30000000E+03</pdfrwt>
<pdfrwt beam="2">0</pdfrwt>
<totfact> 0.18931759E+04</totfact>
</mgrwt>
</event>
<event>
 6    1  0.6377696E-002  0.3000000E+03  0.7818608E-02  0.1093470E+00
         21   -1    0    0  501  502  0.00000000000E+00  0.00000000000E+00  0.67323498000E+01  0.67323498000E+01  0.00000000000E+00 0. -1.
         13   -1    0    0    0    0 -0.00000000000E+00 -0.00000000000E+00 -0.10000000000E+04  0.10000000000E+04  0.00000000000E+00 0.  1.
    9000005    2    1    2  501    0 -0.42451688867E+02  0.62874218015E+02 -0.30604575810E+03  0.31533576161E+03  0.41621293643E+01 0.  0.
         13    1    3    3    0    0 -0.59088061722E+01  0.91533806214E+01 -0.38274922045E+02  0.39795326670E+02  0.00000000000E+00 0.  1.
          3    1    3    3  501    0 -0.36542882694E+02  0.53720837394E+02 -0.26777083605E+03  0.27554043494E+03  0.00000000000E+00 0.  1.
         -1    1    1    2    0  502  0.42451688867E+02 -0.62874218015E+02 -0.68722189210E+03  0.69139658819E+03  0.00000000000E+00 0. -1.
<mgrwt>
<rscale>  1 0.30000000E+03</rscale>
<asrwt>0</asrwt>
<pdfrwt beam="1">  1       21 0.24481324E-01 0.30000000E+03</pdfrwt>
<pdfrwt beam="2">0</pdfrwt>
<totfact> 0.16248190E+03</totfact>
</mgrwt>
</event>
<event>
 6    1  0.6377696E-002  0.3000000E+03  0.7818608E-02  0.1093470E+00
         21   -1    0    0  501  502  0.00000000000E+00  0.00000000000E+00  0.26598472922E+01  0.26598472922E+01  0.00000000000E+00 0. -1.
         13   -1    0    0    0    0 -0.00000000000E+00 -0.00000000000E+00 -0.10000000000E+04  0.10000000000E+04  0.00000000000E+00 0.  1.
    9000005    2    1    2  501    0  0.44714602298E+02 -0.19336350629E+00 -0.74796620269E+03  0.74930870757E+03  0.32658589150E+01 0.  0.
         13    1    3    3    0    0  0.40048291027E+02 -0.99455588157E+00 -0.65879156647E+03  0.66000847177E+03  0.00000000000E+00 0.  1.
          1    1    3    3  501    0  0.46663112714E+01  0.80119237527E+00 -0.89174636221E+02  0.89300235808E+02  0.00000000000E+00 0.  1.
         -1    1    1    2    0  502 -0.44714602298E+02  0.19336350629E+00 -0.24937395002E+03  0.25335113972E+03  0.00000000000E+00 0. -1.
<mgrwt>
<rscale>  1 0.30000000E+03</rscale>
<asrwt>0</asrwt>
<pdfrwt beam="1">  1       21 0.96721924E-02 0.30000000E+03</pdfrwt>
<pdfrwt beam="2">0</pdfrwt>
<totfact> 0.91306135E+03</totfact>
</mgrwt>
</event>
<event>
 6    1  0.6377696E-002  0.3000000E+03  0.7818608E-02  0.1093470E+00
         21   -1    0    0  501  502  0.00000000000E+00  0.00000000000E+00  0.18487580776E+01  0.18487580776E+01  0.00000000000E+00 0. -1.
         13   -1    0    0    0    0 -0.00000000000E+00 -0.00000000000E+00 -0.10000000000E+04  0.10000000000E+04  0.00000000000E+00 0.  1.
    9000005    2    1    2  501    0 -0.32019998810E+02 -0.28592001289E+02 -0.50833657017E+03  0.51015658250E+03  0.32995807555E+01 0.  0.
         13    1    3    3    0    0 -0.16154509631E+01 -0.64144475180E+00 -0.17932580174E+02  0.18016619130E+02  0.00000000000E+00 0.  1.
          3    1    3    3  501    0 -0.30404547847E+02 -0.27950556537E+02 -0.49040399000E+03  0.49213996337E+03  0.00000000000E+00 0.  1.
         -3    1    1    2    0  502  0.32019998810E+02  0.28592001289E+02 -0.48981467175E+03  0.49169217558E+03  0.00000000000E+00 0. -1.
<mgrwt>
<rscale>  1 0.30000000E+03</rscale>
<asrwt>0</asrwt>
<pdfrwt beam="1">  1       21 0.67227708E-02 0.30000000E+03</pdfrwt>
<pdfrwt beam="2">0</pdfrwt>
<totfact> 0.17308994E+04</totfact>
</mgrwt>
</event>
<event>
 6    1  0.6377696E-002  0.3000000E+03  0.7818608E-02  0.1093470E+00
         21   -1    0    0  501  502  0.00000000000E+00  0.00000000000E+00  0.11197875085E+01  0.11197875085E+01  0.00000000000E+00 0. -1.
         13   -1    0    0    0    0 -0.00000000000E+00 -0.00000000000E+00 -0.10000000000E+04  0.10000000000E+04  0.00000000000E+00 0.  1.
    9000005    2    1    2  501    0 -0.21968503769E+02 -0.22623618043E+02 -0.33687175986E+03  0.33836067998E+03  0.33051349035E+01 0.  0.
         13    1    3    3    0    0 -0.39660123238E+01 -0.60575508740E+01 -0.78685859917E+02  0.79018274641E+02  0.00000000000E+00 0.  1.
          1    1    3    3  501    0 -0.18002491445E+02 -0.16566067169E+02 -0.25818589994E+03  0.25934240534E+03  0.00000000000E+00 0.  1.
         -3    1    1    2    0  502  0.21968503769E+02  0.22623618043E+02 -0.66200845263E+03  0.66275910753E+03  0.00000000000E+00 0. -1.
<mgrwt>
<rscale>  1 0.30000000E+03</rscale>
<asrwt>0</asrwt>
<pdfrwt beam="1">  1       21 0.40719632E-02 0.30000000E+03</pdfrwt>
<pdfrwt beam="2">0</pdfrwt>
<totfact> 0.40802940E+04</totfact>
</mgrwt>
</event>
<event>
 6    1  0.6377696E-002  0.3000000E+03  0.7818608E-02  0.1093470E+00
         21   -1    0    0  501  502  0.00000000000E+00  0.00000000000E+00  0.11182575247E+01  0.11182575247E+01  0.00000000000E+00 0. -1.
         13   -1    0    0    0    0 -0.00000000000E+00 -0.00000000000E+00 -0.10000000000E+04  0.10000000000E+04  0.00000000000E+00 0.  1.
    9000005    2    1    2  501    0 -0.30138744974E+02 -0.10013186541E+02 -0.65053701206E+03  0.65132880791E+03  0.47121227451E+01 0.  0.
         13    1    3    3    0    0 -0.22095513805E+02 -0.78693840484E+01 -0.51790039508E+03  0.51843124728E+03  0.00000000000E+00 0.  1.
          1    1    3    3  501    0 -0.80432311694E+01 -0.21438024924E+01 -0.13263661698E+03  0.13289756063E+03  0.00000000000E+00 0.  1.
         -3    1    1    2    0  502  0.30138744974E+02  0.10013186541E+02 -0.34834473041E+03  0.34978944961E+03  0.00000000000E+00 0. -1.
<mgrwt>
<rscale>  1 0.30000000E+03</rscale>
<asrwt>0</asrwt>
<pdfrwt beam="1">  1       21 0.40663996E-02 0.30000000E+03</pdfrwt>
<pdfrwt beam="2">0</pdfrwt>
<totfact> 0.40897081E+04</totfact>
</mgrwt>
</event>
<event>
 6    1  0.6377696E-002  0.3000000E+03  0.7818608E-02  0.1093470E+00
         21   -1    0    0  501  502  0.00000000000E+00  0.00000000000E+00  0.15497204129E+01  0.15497204129E+01  0.00000000000E+00 0. -1.
         13   -1    0    0    0    0 -0.00000000000E+00 -0.00000000000E+00 -0.10000000000E+04  0.10000000000E+04  0.00000000000E+00 0.  1.
    9000005    2    1    2  501    0  0.17380528385E+02  0.25583295065E+02 -0.80837960729E+03  0.80897908864E+03  0.36039733113E+01 0.  0.
         13    1    3    3    0    0  0.17370728801E+02  0.24492665925E+02 -0.78493283554E+03  0.78550696318E+03  0.00000000000E+00 0.  1.
          3    1    3    3  501    0  0.97995844077E-02  0.10906291403E+01 -0.23446771751E+02  0.23472125457E+02  0.00000000000E+00 0.  1.
         -3    1    1    2    0  502 -0.17380528385E+02 -0.25583295065E+02 -0.19007067230E+03  0.19257063177E+03  0.00000000000E+00 0. -1.
<mgrwt>
<rscale>  1 0.30000000E+03</rscale>
<asrwt>0</asrwt>
<pdfrwt beam="1">  1       21 0.56353588E-02 0.30000000E+03</pdfrwt>
<pdfrwt beam="2">0</pdfrwt>
<totfact> 0.23473928E+04</totfact>
</mgrwt>
</event>
<event>
 6    1  0.6377696E-002  0.3000000E+03  0.7818608E-02  0.1093470E+00
         21   -1    0    0  501  502  0.00000000000E+00  0.00000000000E+00  0.22243211335E+01  0.22243211335E+01  0.00000000000E+00 0. -1.
         13   -1    0    0    0    0 -0.00000000000E+00 -0.00000000000E+00 -0.10000000000E+04  0.10000000000E+04  0.00000000000E+00 0.  1.
    9000005    2    1    2  501    0  0.40276154890E+02  0.10666233178E+02 -0.26597773714E+03  0.26924126219E+03  0.32807664730E+01 0.  0.
         13    1    3    3    0    0  0.18712611841E+02  0.62300004708E+01 -0.11874947532E+03  0.12037612985E+03  0.00000000000E+00 0.  1.
          1    1    3    3  501    0  0.21563543050E+02  0.44362327070E+01 -0.14722826182E+03  0.14886513235E+03  0.00000000000E+00 0.  1.
         -3    1    1    2    0  502 -0.40276154890E+02 -0.10666233178E+02 -0.73179794172E+03  0.73298305894E+03  0.00000000000E+00 0. -1.
<mgrwt>
<rscale>  1 0.30000000E+03</rscale>
<asrwt>0</asrwt>
<pdfrwt beam="1">  1       21 0.80884575E-02 0.30000000E+03</pdfrwt>
<pdfrwt beam="2">0</pdfrwt>
<totfact> 0.12529433E+04</totfact>
</mgrwt>
</event>
<event>
 6    1  0.6377696E-002  0.3000000E+03  0.7818608E-02  0.1093470E+00
         21   -1    0    0  501  502  0.00000000000E+00  0.00000000000E+00  0.12738609122E+01  0.12738609122E+01  0.00000000000E+00 0. -1.
         13   -1    0    0    0    0 -0.00000000000E+00 -0.00000000000E+00 -0.10000000000E+04  0.10000000000E+04  0.00000000000E+00 0.  1.
    9000005    2    1    2  501    0 -0.66734024980E+01 -0.29830582748E+02 -0.75616160395E+03  0.75679083149E+03  0.41944455658E+01 0.  0.
         13    1    3    3    0    0 -0.46379266189E+01 -0.19816730168E+02 -0.45277566399E+03  0.45323284861E+03  0.00000000000E+00 0.  1.
          3    1    3    3  501    0 -0.20354758792E+01 -0.10013852580E+02 -0.30338593996E+03  0.30355798288E+03  0.00000000000E+00 0.  1.
         -3    1    1    2    0  502  0.66734024980E+01  0.29830582748E+02 -0.24256453514E+03  0.24448302942E+03  0.00000000000E+00 0. -1.
<mgrwt>
<rscale>  1 0.30000000E+03</rscale>
<asrwt>0</asrwt>
<pdfrwt beam="1">  1       21 0.46322313E-02 0.30000000E+03</pdfrwt>
<pdfrwt beam="2">0</pdfrwt>
<totfact> 0.32804271E+04</totfact>
</mgrwt>
</event>
<event>
 6    1  0.6377696E-002  0.3000000E+03  0.7818608E-02  0.1093470E+00
         21   -1    0    0  501  502  0.00000000000E+00  0.00000000000E+00  0.14739080924E+01  0.14739080924E+01  0.00000000000E+00 0. -1.
         13   -1    0    0    0    0 -0.00000000000E+00 -0.00000000000E+00 -0.10000000000E+04  0.10000000000E+04  0.00000000000E+00 0.  1.
    9000005    2    1    2  501    0 -0.14384718690E+02  0.29927725797E+02 -0.25351858509E+03  0.25572678331E+03  0.46825008326E+01 0.  0.
         13    1    3    3    0    0 -0.49179005963E+01  0.95023380975E+01 -0.65999124803E+02  0.66860785595E+02  0.00000000000E+00 0.  1.
          3    1    3    3  501    0 -0.94668180940E+01  0.20425387700E+02 -0.18751946028E+03  0.18886599771E+03  0.00000000000E+00 0.  1.
         -3    1    1    2    0  502  0.14384718690E+02 -0.29927725797E+02 -0.74500750682E+03  0.74574712478E+03  0.00000000000E+00 0. -1.
<mgrwt>
<rscale>  1 0.30000000E+03</rscale>
<asrwt>0</asrwt>
<pdfrwt beam="1">  1       21 0.53596771E-02 0.30000000E+03</pdfrwt>
<pdfrwt beam="2">0</pdfrwt>
<totfact> 0.25582058E+04</totfact>
</mgrwt>
</event>
<event>
 6    1  0.6377696E-002  0.3000000E+03  0.7818608E-02  0.1093470E+00
         21   -1    0    0  501  502  0.00000000000E+00  0.00000000000E+00  0.20268501288E+01  0.20268501288E+01  0.00000000000E+00 0. -1.
         13   -1    0    0    0    0 -0.00000000000E+00 -0.00000000000E+00 -0.10000000000E+04  0.10000000000E+04  0.00000000000E+00 0.  1.
    9000005    2    1    2  501    0 -0.17953200402E+02 -0.36955049309E+02 -0.70284396141E+03  0.70405163144E+03  0.33275458054E+01 0.  0.
         13    1    3    3    0    0 -0.14961344807E+02 -0.30784116963E+02 -0.60524858343E+03  0.60621559815E+03  0.00000000000E+00 0.  1.
          1    1    3    3  501    0 -0.29918555947E+01 -0.61709323452E+01 -0.97595377983E+02  0.97836033288E+02  0.00000000000E+00 0.  1.
         -1    1    1    2    0  502  0.17953200402E+02  0.36955049309E+02 -0.29512918846E+03  0.29797521869E+03  0.00000000000E+00 0. -1.
<mgrwt>
<rscale>  1 0.30000000E+03</rscale>
<asrwt>0</asrwt>
<pdfrwt beam="1">  1       21 0.73703796E-02 0.30000000E+03</pdfrwt>
<pdfrwt beam="2">0</pdfrwt>
<totfact> 0.14747563E+04</totfact>
</mgrwt>
</event>
<event>
 6    1  0.6377696E-002  0.3000000E+03  0.7818608E-02  0.1093470E+00
         21   -1    0    0  501  502  0.00000000000E+00  0.00000000000E+00  0.24486799562E+01  0.24486799562E+01  0.00000000000E+00 0. -1.
         13   -1    0    0    0    0 -0.00000000000E+00 -0.00000000000E+00 -0.10000000000E+04  0.10000000000E+04  0.00000000000E+00 0.  1.
    9000005    2    1    2  501    0 -0.17428061546E+02 -0.45211116411E+02 -0.40032585862E+03  0.40326086787E+03  0.32790397082E+01 0.  0.
         13    1    3    3    0    0 -0.16178707779E+02 -0.42880569673E+02 -0.38342333816E+03  0.38615275486E+03  0.00000000000E+00 0.  1.
          3    1    3    3  501    0 -0.12493537668E+01 -0.23305467379E+01 -0.16902520461E+02  0.17108113013E+02  0.00000000000E+00 0.  1.
         -1    1    1    2    0  502  0.17428061546E+02  0.45211116411E+02 -0.59722546142E+03  0.59918781208E+03  0.00000000000E+00 0. -1.
<mgrwt>
<rscale>  1 0.30000000E+03</rscale>
<asrwt>0</asrwt>
<pdfrwt beam="1">  1       21 0.89043095E-02 0.30000000E+03</pdfrwt>
<pdfrwt beam="2">0</pdfrwt>
<totfact> 0.10576402E+04</totfact>
</mgrwt>
</event>
<event>
 6    1  0.6377696E-002  0.3000000E+03  0.7818608E-02  0.1093470E+00
         21   -1    0    0  501  502  0.00000000000E+00  0.00000000000E+00  0.11480097951E+01  0.11480097951E+01  0.00000000000E+00 0. -1.
         13   -1    0    0    0    0 -0.00000000000E+00 -0.00000000000E+00 -0.10000000000E+04  0.10000000000E+04  0.00000000000E+00 0.  1.
    9000005    2    1    2  501    0 -0.14731573930E+02 -0.29136509757E+02 -0.38316756141E+03  0.38459852165E+03  0.57172779651E+01 0.  0.
         13    1    3    3    0    0 -0.19882391014E+00  0.24159645592E+00 -0.65378903866E+01  0.65453732134E+01  0.00000000000E+00 0.  1.
          3    1    3    3  501    0 -0.14532750020E+02 -0.29378106213E+02 -0.37662967103E+03  0.37805314844E+03  0.00000000000E+00 0.  1.
         -1    1    1    2    0  502  0.14731573930E+02  0.29136509757E+02 -0.61568442879E+03  0.61654948814E+03  0.00000000000E+00 0. -1.
<mgrwt>
<rscale>  1 0.30000000E+03</rscale>
<asrwt>0</asrwt>
<pdfrwt beam="1">  1       21 0.41745899E-02 0.30000000E+03</pdfrwt>
<pdfrwt beam="2">0</pdfrwt>
<totfact> 0.39125267E+04</totfact>
</mgrwt>
</event>
<event>
 6    1  0.6377696E-002  0.3000000E+03  0.7818608E-02  0.1093470E+00
         21   -1    0    0  501  502  0.00000000000E+00  0.00000000000E+00  0.25293407427E+01  0.25293407427E+01  0.00000000000E+00 0. -1.
         13   -1    0    0    0    0 -0.00000000000E+00 -0.00000000000E+00 -0.10000000000E+04  0.10000000000E+04  0.00000000000E+00 0.  1.
    9000005    2    1    2  501    0 -0.49883967218E+02  0.16418577334E+01 -0.44179382770E+03  0.44461550599E+03  0.31711335691E+01 0.  0.
         13    1    3    3    0    0 -0.29903770426E+02  0.24712852859E+01 -0.26911114355E+03  0.27077878484E+03  0.00000000000E+00 0.  1.
          1    1    3    3  501    0 -0.19980196792E+02 -0.82942755251E+00 -0.17268268416E+03  0.17383672115E+03  0.00000000000E+00 0.  1.
         -3    1    1    2    0  502  0.49883967218E+02 -0.16418577334E+01 -0.55567683155E+03  0.55791383475E+03  0.00000000000E+00 0. -1.
<mgrwt>
<rscale>  1 0.30000000E+03</rscale>
<asrwt>0</asrwt>
<pdfrwt beam="1">  1       21 0.91976221E-02 0.30000000E+03</pdfrwt>
<pdfrwt beam="2">0</pdfrwt>
<totfact> 0.99859233E+03</totfact>
</mgrwt>
</event>
<event>
 6    1  0.6377696E-002  0.3000000E+03  0.7818608E-02  0.1093470E+00
         21   -1    0    0  501  502  0.00000000000E+00  0.00000000000E+00  0.11239049169E+01  0.11239049169E+01  0.00000000000E+00 0. -1.
         13   -1    0    0    0    0 -0.00000000000E+00 -0.00000000000E+00 -0.10000000000E+04  0.10000000000E+04  0.00000000000E+00 0.  1.
    9000005    2    1    2  501    0 -0.28941749179E+02  0.12454419628E+02 -0.34386828378E+03  0.34535872569E+03  0.58749816109E+01 0.  0.
         13    1    3    3    0    0 -0.15856549736E+02  0.67299657560E+01 -0.15594956316E+03  0.15689802057E+03  0.00000000000E+00 0.  1.
          1    1    3    3  501    0 -0.13085199443E+02  0.57244538722E+01 -0.18791872062E+03  0.18846070512E+03  0.00000000000E+00 0.  1.
         -3    1    1    2    0  502  0.28941749179E+02 -0.12454419628E+02 -0.65500781131E+03  0.65576517923E+03  0.00000000000E+00 0. -1.
<mgrwt>
<rscale>  1 0.30000000E+03</rscale>
<asrwt>0</asrwt>
<pdfrwt beam="1">  1       21 0.40869356E-02 0.30000000E+03</pdfrwt>
<pdfrwt beam="2">0</pdfrwt>
<totfact> 0.40551265E+04</totfact>
</mgrwt>
</event>
<event>
 6    1  0.6377696E-002  0.3000000E+03  0.7818608E-02  0.1093470E+00
         21   -1    0    0  501  502  0.00000000000E+00  0.00000000000E+00  0.17807848680E+01  0.17807848680E+01  0.00000000000E+00 0. -1.
         13   -1    0    0    0    0 -0.00000000000E+00 -0.00000000000E+00 -0.10000000000E+04  0.10000000000E+04  0.00000000000E+00 0.  1.
    9000005    2    1    2  501    0  0.33940255162E+02  0.11638214116E+02 -0.76188516321E+03  0.76273858557E+03  0.37093188464E+01 0.  0.
         13    1    3    3    0    0  0.14522844962E+01  0.82986154874E+00 -0.53978048571E+02  0.54003958448E+02  0.00000000000E+00 0.  1.
          3    1    3    3  501    0  0.32487970666E+02  0.10808352568E+02 -0.70790711464E+03  0.70873462712E+03  0.00000000000E+00 0.  1.
         -3    1    1    2    0  502 -0.33940255162E+02 -0.11638214116E+02 -0.23633405192E+03  0.23904219930E+03  0.00000000000E+00 0. -1.
<mgrwt>
<rscale>  1 0.30000000E+03</rscale>
<asrwt>0</asrwt>
<pdfrwt beam="1">  1       21 0.64755950E-02 0.30000000E+03</pdfrwt>
<pdfrwt beam="2">0</pdfrwt>
<totfact> 0.18469935E+04</totfact>
</mgrwt>
</event>
<event>
 6    1  0.6377696E-002  0.3000000E+03  0.7818608E-02  0.1093470E+00
         21   -1    0    0  501  502  0.00000000000E+00  0.00000000000E+00  0.27542120195E+01  0.27542120195E+01  0.00000000000E+00 0. -1.
         13   -1    0    0    0    0 -0.00000000000E+00 -0.00000000000E+00 -0.10000000000E+04  0.10000000000E+04  0.00000000000E+00 0.  1.
    9000005    2    1    2  501    0  0.21510222297E+02 -0.30140671155E+02 -0.14447589049E+03  0.14918075426E+03  0.32349325430E+01 0.  0.
         13    1    3    3    0    0  0.19534110297E+01 -0.13867758163E+01 -0.92214835913E+01  0.95275768924E+01  0.00000000000E+00 0.  1.
          1    1    3    3  501    0  0.19556811267E+02 -0.28753895339E+02 -0.13525440689E+03  0.13965317737E+03  0.00000000000E+00 0.  1.
         -1    1    1    2    0  502 -0.21510222297E+02  0.30140671155E+02 -0.85276989749E+03  0.85357345776E+03  0.00000000000E+00 0. -1.
<mgrwt>
<rscale>  1 0.30000000E+03</rscale>
<asrwt>0</asrwt>
<pdfrwt beam="1">  1       21 0.10015338E-01 0.30000000E+03</pdfrwt>
<pdfrwt beam="2">0</pdfrwt>
<totfact> 0.85796692E+03</totfact>
</mgrwt>
</event>
<event>
 6    1  0.6377696E-002  0.3000000E+03  0.7818608E-02  0.1093470E+00
         21   -1    0    0  501  502  0.00000000000E+00  0.00000000000E+00  0.16324067055E+01  0.16324067055E+01  0.00000000000E+00 0. -1.
         13   -1    0    0    0    0 -0.00000000000E+00 -0.00000000000E+00 -0.10000000000E+04  0.10000000000E+04  0.00000000000E+00 0.  1.
    9000005    2    1    2  501    0 -0.33744526124E+02 -0.15757000089E+02 -0.69152380643E+03  0.69253681367E+03  0.38842421383E+01 0.  0.
         13    1    3    3    0    0 -0.14698549521E+02 -0.82124685258E+01 -0.28448674515E+03  0.28498456127E+03  0.00000000000E+00 0.  1.
          3    1    3    3  501    0 -0.19045976603E+02 -0.75445315632E+01 -0.40703706128E+03  0.40755225240E+03  0.00000000000E+00 0.  1.
         -1    1    1    2    0  502  0.33744526124E+02  0.15757000089E+02 -0.30684378687E+03  0.30909559303E+03  0.00000000000E+00 0. -1.
<mgrwt>
<rscale>  1 0.30000000E+03</rscale>
<asrwt>0</asrwt>
<pdfrwt beam="1">  1       21 0.59360369E-02 0.30000000E+03</pdfrwt>
<pdfrwt beam="2">0</pdfrwt>
<totfact> 0.21464699E+04</totfact>
</mgrwt>
</event>
<event>
 6    1  0.6377696E-002  0.3000000E+03  0.7818608E-02  0.1093470E+00
         21   -1    0    0  501  502  0.00000000000E+00  0.00000000000E+00  0.10450893861E+01  0.10450893861E+01  0.00000000000E+00 0. -1.
         13   -1    0    0    0    0 -0.00000000000E+00 -0.00000000000E+00 -0.10000000000E+04  0.10000000000E+04  0.00000000000E+00 0.  1.
    9000005    2    1    2  501    0  0.14643529412E+02 -0.28485499058E+02 -0.55453106803E+03  0.55546859935E+03  0.38474472408E+01 0.  0.
         13    1    3    3    0    0  0.11701574296E+02 -0.24979012474E+02 -0.48957463271E+03  0.49035109758E+03  0.00000000000E+00 0.  1.
          1    1    3    3  501    0  0.29419551158E+01 -0.35064865832E+01 -0.64956435317E+02  0.65117501773E+02  0.00000000000E+00 0.  1.
         -1    1    1    2    0  502 -0.14643529412E+02  0.28485499058E+02 -0.44442384259E+03  0.44557649003E+03  0.00000000000E+00 0. -1.
<mgrwt>
<rscale>  1 0.30000000E+03</rscale>
<asrwt>0</asrwt>
<pdfrwt beam="1">  1       21 0.38003331E-02 0.30000000E+03</pdfrwt>
<pdfrwt beam="2">0</pdfrwt>
<totfact> 0.45829332E+04</totfact>
</mgrwt>
</event>
<event>
 6    1  0.6377696E-002  0.3000000E+03  0.7818608E-02  0.1093470E+00
         21   -1    0    0  501  502  0.00000000000E+00  0.00000000000E+00  0.12798119967E+01  0.12798119967E+01  0.00000000000E+00 0. -1.
         13   -1    0    0    0    0 -0.00000000000E+00 -0.00000000000E+00 -0.10000000000E+04  0.10000000000E+04  0.00000000000E+00 0.  1.
    9000005    2    1    2  501    0  0.31793032851E+02  0.14433863512E+02 -0.60328855547E+03  0.60430965019E+03  0.37334705980E+01 0.  0.
         13    1    3    3    0    0  0.23698759067E+02  0.93392578985E+01 -0.42000288097E+03  0.42077461062E+03  0.00000000000E+00 0.  1.
          3    1    3    3  501    0  0.80942737833E+01  0.50946056131E+01 -0.18328567449E+03  0.18353503957E+03  0.00000000000E+00 0.  1.
         -1    1    1    2    0  502 -0.31793032851E+02 -0.14433863512E+02 -0.39543163254E+03  0.39697016180E+03  0.00000000000E+00 0. -1.
<mgrwt>
<rscale>  1 0.30000000E+03</rscale>
<asrwt>0</asrwt>
<pdfrwt beam="1">  1       21 0.46538716E-02 0.30000000E+03</pdfrwt>
<pdfrwt beam="2">0</pdfrwt>
<totfact> 0.32545454E+04</totfact>
</mgrwt>
</event>
<event>
 6    1  0.6377696E-002  0.3000000E+03  0.7818608E-02  0.1093470E+00
         21   -1    0    0  501  502  0.00000000000E+00  0.00000000000E+00  0.97299387832E+00  0.97299387832E+00  0.00000000000E+00 0. -1.
         13   -1    0    0    0    0 -0.00000000000E+00 -0.00000000000E+00 -0.10000000000E+04  0.10000000000E+04  0.00000000000E+00 0.  1.
    9000005    2    1    2  501    0 -0.29748935466E+02  0.89706458793E+01 -0.51710071810E+03  0.51804606490E+03  0.36195368482E+01 0.  0.
         13    1    3    3    0    0 -0.39443415748E+01  0.24125209649E+01 -0.85433172174E+02  0.85558196542E+02  0.00000000000E+00 0.  1.
          1    1    3    3  501    0 -0.25804593891E+02  0.65581249144E+01 -0.43166754593E+03  0.43248786835E+03  0.00000000000E+00 0.  1.
         -3    1    1    2    0  502  0.29748935466E+02 -0.89706458793E+01 -0.48192628802E+03  0.48292692898E+03  0.00000000000E+00 0. -1.
<mgrwt>
<rscale>  1 0.30000000E+03</rscale>
<asrwt>0</asrwt>
<pdfrwt beam="1">  1       21 0.35381670E-02 0.30000000E+03</pdfrwt>
<pdfrwt beam="2">0</pdfrwt>
<totfact> 0.51669483E+04</totfact>
</mgrwt>
</event>
<event>
 6    1  0.6377696E-002  0.3000000E+03  0.7818608E-02  0.1093470E+00
         21   -1    0    0  501  502  0.00000000000E+00  0.00000000000E+00  0.22211087256E+01  0.22211087256E+01  0.00000000000E+00 0. -1.
         13   -1    0    0    0    0 -0.00000000000E+00 -0.00000000000E+00 -0.10000000000E+04  0.10000000000E+04  0.00000000000E+00 0.  1.
    9000005    2    1    2  501    0  0.13100047762E+02 -0.39116794559E+02 -0.25818946622E+03  0.26148211791E+03  0.30598447293E+01 0.  0.
         13    1    3    3    0    0  0.70832891056E+01 -0.22239278090E+02 -0.15530766017E+03  0.15705167233E+03  0.00000000000E+00 0.  1.
          1    1    3    3  501    0  0.60167586563E+01 -0.16877516469E+02 -0.10288180606E+03  0.10443044558E+03  0.00000000000E+00 0.  1.
         -1    1    1    2    0  502 -0.13100047762E+02  0.39116794559E+02 -0.73958942505E+03  0.74073899081E+03  0.00000000000E+00 0. -1.
<mgrwt>
<rscale>  1 0.30000000E+03</rscale>
<asrwt>0</asrwt>
<pdfrwt beam="1">  1       21 0.80767760E-02 0.30000000E+03</pdfrwt>
<pdfrwt beam="2">0</pdfrwt>
<totfact> 0.12561299E+04</totfact>
</mgrwt>
</event>
<event>
 6    1  0.6377696E-002  0.3000000E+03  0.7818608E-02  0.1093470E+00
         21   -1    0    0  501  502  0.00000000000E+00  0.00000000000E+00  0.14400819109E+01  0.14400819109E+01  0.00000000000E+00 0. -1.
         13   -1    0    0    0    0 -0.00000000000E+00 -0.00000000000E+00 -0.10000000000E+04  0.10000000000E+04  0.00000000000E+00 0.  1.
    9000005    2    1    2  501    0 -0.21000252552E+02  0.25215675247E+02 -0.74967012989E+03  0.75039632566E+03  0.35356783475E+01 0.  0.
         13    1    3    3    0    0 -0.18165203527E+02  0.21347454602E+02 -0.66499795842E+03  0.66558844126E+03  0.00000000000E+00 0.  1.
          3    1    3    3  501    0 -0.28350490250E+01  0.38682206444E+01 -0.84672171473E+02  0.84807884397E+02  0.00000000000E+00 0.  1.
         -1    1    1    2    0  502  0.21000252552E+02 -0.25215675247E+02 -0.24888978820E+03  0.25104375625E+03  0.00000000000E+00 0. -1.
<mgrwt>
<rscale>  1 0.30000000E+03</rscale>
<asrwt>0</asrwt>
<pdfrwt beam="1">  1       21 0.52366725E-02 0.30000000E+03</pdfrwt>
<pdfrwt beam="2">0</pdfrwt>
<totfact> 0.26618321E+04</totfact>
</mgrwt>
</event>
<event>
 6    1  0.6377696E-002  0.3000000E+03  0.7818608E-02  0.1093470E+00
         21   -1    0    0  501  502  0.00000000000E+00  0.00000000000E+00  0.92892155024E+00  0.92892155024E+00  0.00000000000E+00 0. -1.
         13   -1    0    0    0    0 -0.00000000000E+00 -0.00000000000E+00 -0.10000000000E+04  0.10000000000E+04  0.00000000000E+00 0.  1.
    9000005    2    1    2  501    0  0.45644368040E+01  0.29932732722E+02 -0.53821076869E+03  0.53907501858E+03  0.37737988819E+01 0.  0.
         13    1    3    3    0    0  0.50158917827E+01  0.27944022768E+02 -0.49085321016E+03  0.49167357210E+03  0.00000000000E+00 0.  1.
          1    1    3    3  501    0 -0.45145497868E+00  0.19887099539E+01 -0.47357558524E+02  0.47401446479E+02  0.00000000000E+00 0.  1.
         -1    1    1    2    0  502 -0.45644368040E+01 -0.29932732722E+02 -0.46086030976E+03  0.46185390297E+03  0.00000000000E+00 0. -1.
<mgrwt>
<rscale>  1 0.30000000E+03</rscale>
<asrwt>0</asrwt>
<pdfrwt beam="1">  1       21 0.33779037E-02 0.30000000E+03</pdfrwt>
<pdfrwt beam="2">0</pdfrwt>
<totfact> 0.55835971E+04</totfact>
</mgrwt>
</event>
<event>
 6    1  0.6377696E-002  0.3000000E+03  0.7818608E-02  0.1093470E+00
         21   -1    0    0  501  502  0.00000000000E+00  0.00000000000E+00  0.15068991028E+01  0.15068991028E+01  0.00000000000E+00 0. -1.
         13   -1    0    0    0    0 -0.00000000000E+00 -0.00000000000E+00 -0.10000000000E+04  0.10000000000E+04  0.00000000000E+00 0.  1.
    9000005    2    1    2  501    0 -0.29551076686E+02 -0.24883850659E+02 -0.46162324693E+03  0.46324886409E+03  0.33190085418E+01 0.  0.
         13    1    3    3    0    0 -0.24653016885E+02 -0.21023938533E+02 -0.40043048025E+03  0.40173915262E+03  0.00000000000E+00 0.  1.
          1    1    3    3  501    0 -0.48980598014E+01 -0.38599121264E+01 -0.61192766677E+02  0.61509711470E+02  0.00000000000E+00 0.  1.
         -3    1    1    2    0  502  0.29551076686E+02  0.24883850659E+02 -0.53686985397E+03  0.53825803502E+03  0.00000000000E+00 0. -1.
<mgrwt>
<rscale>  1 0.30000000E+03</rscale>
<asrwt>0</asrwt>
<pdfrwt beam="1">  1       21 0.54796447E-02 0.30000000E+03</pdfrwt>
<pdfrwt beam="2">0</pdfrwt>
<totfact> 0.24630224E+04</totfact>
</mgrwt>
</event>
<event>
 6    1  0.6377696E-002  0.3000000E+03  0.7818608E-02  0.1093470E+00
         21   -1    0    0  501  502  0.00000000000E+00  0.00000000000E+00  0.86900567509E+01  0.86900567509E+01  0.00000000000E+00 0. -1.
         13   -1    0    0    0    0 -0.00000000000E+00 -0.00000000000E+00 -0.10000000000E+04  0.10000000000E+04  0.00000000000E+00 0.  1.
    9000005    2    1    2  501    0 -0.80516109380E+02  0.34662881154E+02 -0.66701412636E+03  0.67275533682E+03  0.27457719335E+01 0.  0.
         13    1    3    3    0    0 -0.29823238905E+02  0.14174850082E+02 -0.25510870729E+03  0.25723686456E+03  0.00000000000E+00 0.  1.
          1    1    3    3  501    0 -0.50692870475E+02  0.20488031072E+02 -0.41190541907E+03  0.41551847226E+03  0.00000000000E+00 0.  1.
         -3    1    1    2    0  502  0.80516109380E+02 -0.34662881154E+02 -0.32429581689E+03  0.33593471993E+03  0.00000000000E+00 0. -1.
<mgrwt>
<rscale>  1 0.30000000E+03</rscale>
<asrwt>0</asrwt>
<pdfrwt beam="1">  1       21 0.31600273E-01 0.30000000E+03</pdfrwt>
<pdfrwt beam="2">0</pdfrwt>
<totfact> 0.97951576E+02</totfact>
</mgrwt>
</event>
<event>
 6    1  0.6377696E-002  0.3000000E+03  0.7818608E-02  0.1093470E+00
         21   -1    0    0  501  502  0.00000000000E+00  0.00000000000E+00  0.47152692359E+01  0.47152692359E+01  0.00000000000E+00 0. -1.
         13   -1    0    0    0    0 -0.00000000000E+00 -0.00000000000E+00 -0.10000000000E+04  0.10000000000E+04  0.00000000000E+00 0.  1.
    9000005    2    1    2  501    0 -0.41269802466E+02  0.40366703183E+02 -0.76945937073E+03  0.77162781664E+03  0.30161055592E+01 0.  0.
         13    1    3    3    0    0 -0.21204195568E+02  0.22455161034E+02 -0.39961633978E+03  0.40080802286E+03  0.00000000000E+00 0.  1.
          3    1    3    3  501    0 -0.20065606898E+02  0.17911542149E+02 -0.36984303095E+03  0.37081979378E+03  0.00000000000E+00 0.  1.
         -3    1    1    2    0  502  0.41269802466E+02 -0.40366703183E+02 -0.22582536004E+03  0.23308745260E+03  0.00000000000E+00 0. -1.
<mgrwt>
<rscale>  1 0.30000000E+03</rscale>
<asrwt>0</asrwt>
<pdfrwt beam="1">  1       21 0.17146470E-01 0.30000000E+03</pdfrwt>
<pdfrwt beam="2">0</pdfrwt>
<totfact> 0.32095139E+03</totfact>
</mgrwt>
</event>
<event>
 6    1  0.6377696E-002  0.3000000E+03  0.7818608E-02  0.1093470E+00
         21   -1    0    0  501  502  0.00000000000E+00  0.00000000000E+00  0.14289322644E+01  0.14289322644E+01  0.00000000000E+00 0. -1.
         13   -1    0    0    0    0 -0.00000000000E+00 -0.00000000000E+00 -0.10000000000E+04  0.10000000000E+04  0.00000000000E+00 0.  1.
    9000005    2    1    2  501    0  0.28850845461E+02  0.14273130897E+02 -0.76109615288E+03  0.76178246612E+03  0.30130069745E+01 0.  0.
         13    1    3    3    0    0  0.25109640025E+02  0.12381962546E+02 -0.68353872759E+03  0.68411183233E+03  0.00000000000E+00 0.  1.
          3    1    3    3  501    0  0.37412054362E+01  0.18911683508E+01 -0.77557425289E+02  0.77670633789E+02  0.00000000000E+00 0.  1.
         -3    1    1    2    0  502 -0.28850845461E+02 -0.14273130897E+02 -0.23747491486E+03  0.23964646615E+03  0.00000000000E+00 0. -1.
<mgrwt>
<rscale>  1 0.30000000E+03</rscale>
<asrwt>0</asrwt>
<pdfrwt beam="1">  1       21 0.51961283E-02 0.30000000E+03</pdfrwt>
<pdfrwt beam="2">0</pdfrwt>
<totfact> 0.26974183E+04</totfact>
</mgrwt>
</event>
<event>
 6    1  0.6377696E-002  0.3000000E+03  0.7818608E-02  0.1093470E+00
         21   -1    0    0  501  502  0.00000000000E+00  0.00000000000E+00  0.20474829893E+01  0.20474829893E+01  0.00000000000E+00 0. -1.
         13   -1    0    0    0    0 -0.00000000000E+00 -0.00000000000E+00 -0.10000000000E+04  0.10000000000E+04  0.00000000000E+00 0.  1.
    9000005    2    1    2  501    0 -0.62304642861E+00  0.45156420174E+02 -0.48624623565E+03  0.48835223398E+03  0.36072538862E+01 0.  0.
         13    1    3    3    0    0  0.13769797487E+01  0.13704632302E+02 -0.15384328383E+03  0.15445863200E+03  0.00000000000E+00 0.  1.
          3    1    3    3  501    0 -0.20000261773E+01  0.31451787872E+02 -0.33240295182E+03  0.33389360198E+03  0.00000000000E+00 0.  1.
         -1    1    1    2    0  502  0.62304642861E+00 -0.45156420174E+02 -0.51170628136E+03  0.51369524901E+03  0.00000000000E+00 0. -1.
<mgrwt>
<rscale>  1 0.30000000E+03</rscale>
<asrwt>0</asrwt>
<pdfrwt beam="1">  1       21 0.74454084E-02 0.30000000E+03</pdfrwt>
<pdfrwt beam="2">0</pdfrwt>
<totfact> 0.14488576E+04</totfact>
</mgrwt>
</event>
<event>
 6    1  0.6377696E-002  0.3000000E+03  0.7818608E-02  0.1093470E+00
         21   -1    0    0  501  502  0.00000000000E+00  0.00000000000E+00  0.12087150627E+01  0.12087150627E+01  0.00000000000E+00 0. -1.
         13   -1    0    0    0    0 -0.00000000000E+00 -0.00000000000E+00 -0.10000000000E+04  0.10000000000E+04  0.00000000000E+00 0.  1.
    9000005    2    1    2  501    0 -0.33731931580E+02 -0.62292485682E+01 -0.42459936112E+03  0.42599309277E+03  0.29750434168E+01 0.  0.
         13    1    3    3    0    0 -0.29422844912E+02 -0.63680642543E+01 -0.36701059515E+03  0.36824317101E+03  0.00000000000E+00 0.  1.
          1    1    3    3  501    0 -0.43090866685E+01  0.13881568611E+00 -0.57588765971E+02  0.57749921764E+02  0.00000000000E+00 0.  1.
         -3    1    1    2    0  502  0.33731931580E+02  0.62292485682E+01 -0.57419192382E+03  0.57521562229E+03  0.00000000000E+00 0. -1.
<mgrwt>
<rscale>  1 0.30000000E+03</rscale>
<asrwt>0</asrwt>
<pdfrwt beam="1">  1       21 0.43953368E-02 0.30000000E+03</pdfrwt>
<pdfrwt beam="2">0</pdfrwt>
<totfact> 0.35860759E+04</totfact>
</mgrwt>
</event>
<event>
 6    1  0.6377696E-002  0.3000000E+03  0.7818608E-02  0.1093470E+00
         21   -1    0    0  501  502  0.00000000000E+00  0.00000000000E+00  0.43686831422E+01  0.43686831422E+01  0.00000000000E+00 0. -1.
         13   -1    0    0    0    0 -0.00000000000E+00 -0.00000000000E+00 -0.10000000000E+04  0.10000000000E+04  0.00000000000E+00 0.  1.
    9000005    2    1    2  501    0  0.35728000514E+02  0.55458759649E+02 -0.52517902470E+03  0.52931339874E+03  0.27389884244E+01 0.  0.
         13    1    3    3    0    0  0.17958495660E+02  0.30397137868E+02 -0.28043483780E+03  0.28264853053E+03  0.00000000000E+00 0.  1.
          3    1    3    3  501    0  0.17769504855E+02  0.25061621781E+02 -0.24474418690E+03  0.24666486821E+03  0.00000000000E+00 0.  1.
         -1    1    1    2    0  502 -0.35728000514E+02 -0.55458759649E+02 -0.47045229216E+03  0.47505528440E+03  0.00000000000E+00 0. -1.
<mgrwt>
<rscale>  1 0.30000000E+03</rscale>
<asrwt>0</asrwt>
<pdfrwt beam="1">  1       21 0.15886154E-01 0.30000000E+03</pdfrwt>
<pdfrwt beam="2">0</pdfrwt>
<totfact> 0.37015933E+03</totfact>
</mgrwt>
</event>
<event>
 6    1  0.6377696E-002  0.3000000E+03  0.7818608E-02  0.1093470E+00
         21   -1    0    0  501  502  0.00000000000E+00  0.00000000000E+00  0.16154042319E+01  0.16154042319E+01  0.00000000000E+00 0. -1.
         13   -1    0    0    0    0 -0.00000000000E+00 -0.00000000000E+00 -0.10000000000E+04  0.10000000000E+04  0.00000000000E+00 0.  1.
    9000005    2    1    2  501    0 -0.26924461178E+02 -0.29197959673E+02 -0.57039204685E+03  0.57178396123E+03  0.35162135591E+01 0.  0.
         13    1    3    3    0    0 -0.20784816707E+01 -0.18186440364E+01 -0.29124727174E+02  0.29255380448E+02  0.00000000000E+00 0.  1.
          3    1    3    3  501    0 -0.24845979507E+02 -0.27379315637E+02 -0.54126731967E+03  0.54252858079E+03  0.00000000000E+00 0.  1.
         -3    1    1    2    0  502  0.26924461178E+02  0.29197959673E+02 -0.42799254892E+03  0.42983144300E+03  0.00000000000E+00 0. -1.
<mgrwt>
<rscale>  1 0.30000000E+03</rscale>
<asrwt>0</asrwt>
<pdfrwt beam="1">  1       21 0.58742096E-02 0.30000000E+03</pdfrwt>
<pdfrwt beam="2">0</pdfrwt>
<totfact> 0.21855577E+04</totfact>
</mgrwt>
</event>
<event>
 6    1  0.6377696E-002  0.3000000E+03  0.7818608E-02  0.1093470E+00
         21   -1    0    0  501  502  0.00000000000E+00  0.00000000000E+00  0.11073767438E+01  0.11073767438E+01  0.00000000000E+00 0. -1.
         13   -1    0    0    0    0 -0.00000000000E+00 -0.00000000000E+00 -0.10000000000E+04  0.10000000000E+04  0.00000000000E+00 0.  1.
    9000005    2    1    2  501    0  0.28616937944E+02 -0.11575169779E+02 -0.31538028817E+03  0.31689832543E+03  0.26284591817E+01 0.  0.
         13    1    3    3    0    0  0.25205673131E+02 -0.11081588211E+02 -0.28054175785E+03  0.28188970441E+03  0.00000000000E+00 0.  1.
          3    1    3    3  501    0  0.34112648133E+01 -0.49358156819E+00 -0.34838530325E+02  0.35008621018E+02  0.00000000000E+00 0.  1.
         -3    1    1    2    0  502 -0.28616937944E+02  0.11575169779E+02 -0.68351233509E+03  0.68420905132E+03  0.00000000000E+00 0. -1.
<mgrwt>
<rscale>  1 0.30000000E+03</rscale>
<asrwt>0</asrwt>
<pdfrwt beam="1">  1       21 0.40268330E-02 0.30000000E+03</pdfrwt>
<pdfrwt beam="2">0</pdfrwt>
<totfact> 0.41576480E+04</totfact>
</mgrwt>
</event>
<event>
 6    1  0.6377696E-002  0.3000000E+03  0.7818608E-02  0.1093470E+00
         21   -1    0    0  501  502  0.00000000000E+00  0.00000000000E+00  0.12856933505E+01  0.12856933505E+01  0.00000000000E+00 0. -1.
         13   -1    0    0    0    0 -0.00000000000E+00 -0.00000000000E+00 -0.10000000000E+04  0.10000000000E+04  0.00000000000E+00 0.  1.
    9000005    2    1    2  501    0 -0.15139115987E+02  0.32263109411E+02 -0.45632239616E+03  0.45772421051E+03  0.33500133470E+01 0.  0.
         13    1    3    3    0    0 -0.13622740676E+02  0.26566853291E+02 -0.38922249566E+03  0.39036588976E+03  0.00000000000E+00 0.  1.
          1    1    3    3  501    0 -0.15163753114E+01  0.56962561201E+01 -0.67099900492E+02  0.67358320747E+02  0.00000000000E+00 0.  1.
         -3    1    1    2    0  502  0.15139115987E+02 -0.32263109411E+02 -0.54239191049E+03  0.54356148284E+03  0.00000000000E+00 0. -1.
<mgrwt>
<rscale>  1 0.30000000E+03</rscale>
<asrwt>0</asrwt>
<pdfrwt beam="1">  1       21 0.46752584E-02 0.30000000E+03</pdfrwt>
<pdfrwt beam="2">0</pdfrwt>
<totfact> 0.32292802E+04</totfact>
</mgrwt>
</event>
<event>
 6    1  0.6377696E-002  0.3000000E+03  0.7818608E-02  0.1093470E+00
         21   -1    0    0  501  502  0.00000000000E+00  0.00000000000E+00  0.12431218686E+01  0.12431218686E+01  0.00000000000E+00 0. -1.
         13   -1    0    0    0    0 -0.00000000000E+00 -0.00000000000E+00 -0.10000000000E+04  0.10000000000E+04  0.00000000000E+00 0.  1.
    9000005    2    1    2  501    0 -0.21821726408E+02  0.26238487396E+02 -0.37994186481E+03  0.38148779379E+03  0.35313191160E+01 0.  0.
         13    1    3    3    0    0 -0.20648061933E+02  0.24149855982E+02 -0.36085856601E+03  0.36225469309E+03  0.00000000000E+00 0.  1.
          1    1    3    3  501    0 -0.11736644757E+01  0.20886314143E+01 -0.19083298799E+02  0.19233100700E+02  0.00000000000E+00 0.  1.
         -3    1    1    2    0  502  0.21821726408E+02 -0.26238487396E+02 -0.61881501332E+03  0.61975532807E+03  0.00000000000E+00 0. -1.
<mgrwt>
<rscale>  1 0.30000000E+03</rscale>
<asrwt>0</asrwt>
<pdfrwt beam="1">  1       21 0.45204527E-02 0.30000000E+03</pdfrwt>
<pdfrwt beam="2">0</pdfrwt>
<totfact> 0.34194002E+04</totfact>
</mgrwt>
</event>
<event>
 6    1  0.6377696E-002  0.3000000E+03  0.7818608E-02  0.1093470E+00
         21   -1    0    0  501  502  0.00000000000E+00  0.00000000000E+00  0.11902574850E+01  0.11902574850E+01  0.00000000000E+00 0. -1.
         13   -1    0    0    0    0 -0.00000000000E+00 -0.00000000000E+00 -0.10000000000E+04  0.10000000000E+04  0.00000000000E+00 0.  1.
    9000005    2    1    2  501    0 -0.31564382328E+02  0.13492554444E+02 -0.47163951540E+03  0.47290358568E+03  0.39508985142E+01 0.  0.
         13    1    3    3    0    0 -0.24693718451E+02  0.12259837631E+02 -0.37347677738E+03  0.37449297268E+03  0.00000000000E+00 0.  1.
          1    1    3    3  501    0 -0.68706638772E+01  0.12327168121E+01 -0.98162738024E+02  0.98410612991E+02  0.00000000000E+00 0.  1.
         -1    1    1    2    0  502  0.31564382328E+02 -0.13492554444E+02 -0.52717022711E+03  0.52828667181E+03  0.00000000000E+00 0. -1.
<mgrwt>
<rscale>  1 0.30000000E+03</rscale>
<asrwt>0</asrwt>
<pdfrwt beam="1">  1       21 0.43282182E-02 0.30000000E+03</pdfrwt>
<pdfrwt beam="2">0</pdfrwt>
<totfact> 0.36807227E+04</totfact>
</mgrwt>
</event>
<event>
 6    1  0.6377696E-002  0.3000000E+03  0.7818608E-02  0.1093470E+00
         21   -1    0    0  501  502  0.00000000000E+00  0.00000000000E+00  0.12550878388E+02  0.12550878388E+02  0.00000000000E+00 0. -1.
         13   -1    0    0    0    0 -0.00000000000E+00 -0.00000000000E+00 -0.10000000000E+04  0.10000000000E+04  0.00000000000E+00 0.  1.
    9000005    2    1    2  501    0 -0.58473995040E+01 -0.10108322924E+03 -0.71022443270E+03  0.71741440240E+03  0.35593057212E+01 0.  0.
         13    1    3    3    0    0 -0.25035226528E+01 -0.65411382034E+02 -0.46689773504E+03  0.47146411476E+03  0.00000000000E+00 0.  1.
          1    1    3    3  501    0 -0.33438768512E+01 -0.35671847207E+02 -0.24332669766E+03  0.24595028764E+03  0.00000000000E+00 0.  1.
         -1    1    1    2    0  502  0.58473995040E+01  0.10108322924E+03 -0.27722468891E+03  0.29513647599E+03  0.00000000000E+00 0. -1.
<mgrwt>
<rscale>  1 0.30000000E+03</rscale>
<asrwt>0</asrwt>
<pdfrwt beam="1">  1       21 0.45639654E-01 0.30000000E+03</pdfrwt>
<pdfrwt beam="2">0</pdfrwt>
<totfact> 0.45713664E+02</totfact>
</mgrwt>
</event>
<event>
 6    1  0.6377696E-002  0.3000000E+03  0.7818608E-02  0.1093470E+00
         21   -1    0    0  501  502  0.00000000000E+00  0.00000000000E+00  0.12587104583E+01  0.12587104583E+01  0.00000000000E+00 0. -1.
         13   -1    0    0    0    0 -0.00000000000E+00 -0.00000000000E+00 -0.10000000000E+04  0.10000000000E+04  0.00000000000E+00 0.  1.
    9000005    2    1    2  501    0  0.30937663235E+02  0.72245477668E+01 -0.72155823085E+03  0.72226089483E+03  0.22774115941E+01 0.  0.
         13    1    3    3    0    0  0.21174310472E+01  0.85454851196E+00 -0.42092159085E+02  0.42154046351E+02  0.00000000000E+00 0.  1.
          3    1    3    3  501    0  0.28820232188E+02  0.63699992549E+01 -0.67946607176E+03  0.68010684848E+03  0.00000000000E+00 0.  1.
         -3    1    1    2    0  502 -0.30937663235E+02 -0.72245477668E+01 -0.27718305870E+03  0.27899781563E+03  0.00000000000E+00 0. -1.
<mgrwt>
<rscale>  1 0.30000000E+03</rscale>
<asrwt>0</asrwt>
<pdfrwt beam="1">  1       21 0.45771386E-02 0.30000000E+03</pdfrwt>
<pdfrwt beam="2">0</pdfrwt>
<totfact> 0.33477946E+04</totfact>
</mgrwt>
</event>
<event>
 6    1  0.6377696E-002  0.3000000E+03  0.7818608E-02  0.1093470E+00
         21   -1    0    0  501  502  0.00000000000E+00  0.00000000000E+00  0.13691089699E+01  0.13691089699E+01  0.00000000000E+00 0. -1.
         13   -1    0    0    0    0 -0.00000000000E+00 -0.00000000000E+00 -0.10000000000E+04  0.10000000000E+04  0.00000000000E+00 0.  1.
    9000005    2    1    2  501    0  0.29933779058E+02  0.13694281771E+02 -0.30155626299E+03  0.30351769102E+03  0.10160931541E+02 0.  0.
         13    1    3    3    0    0  0.22513784387E+01  0.41012022824E+01 -0.62061639128E+02  0.62237734665E+02  0.00000000000E+00 0.  1.
          3    1    3    3  501    0  0.27682400619E+02  0.95930794891E+01 -0.23949462386E+03  0.24127995635E+03  0.00000000000E+00 0.  1.
         -1    1    1    2    0  502 -0.29933779058E+02 -0.13694281771E+02 -0.69707462804E+03  0.69785141795E+03  0.00000000000E+00 0. -1.
<mgrwt>
<rscale>  1 0.30000000E+03</rscale>
<asrwt>0</asrwt>
<pdfrwt beam="1">  1       21 0.49785886E-02 0.30000000E+03</pdfrwt>
<pdfrwt beam="2">0</pdfrwt>
<totfact> 0.29016135E+04</totfact>
</mgrwt>
</event>
<event>
 6    1  0.6377696E-002  0.3000000E+03  0.7818608E-02  0.1093470E+00
         21   -1    0    0  501  502  0.00000000000E+00  0.00000000000E+00  0.14437977026E+01  0.14437977026E+01  0.00000000000E+00 0. -1.
         13   -1    0    0    0    0 -0.00000000000E+00 -0.00000000000E+00 -0.10000000000E+04  0.10000000000E+04  0.00000000000E+00 0.  1.
    9000005    2    1    2  501    0 -0.31311799294E+02  0.20370139527E+02 -0.47548456467E+03  0.47704003203E+03  0.92870642479E+01 0.  0.
         13    1    3    3    0    0 -0.84511569832E+01  0.62947567310E+01 -0.88455050550E+02  0.89080536507E+02  0.00000000000E+00 0.  1.
          1    1    3    3  501    0 -0.22860642311E+02  0.14075382796E+02 -0.38702951412E+03  0.38795949552E+03  0.00000000000E+00 0.  1.
         -3    1    1    2    0  502  0.31311799294E+02 -0.20370139527E+02 -0.52307163763E+03  0.52440376567E+03  0.00000000000E+00 0. -1.
<mgrwt>
<rscale>  1 0.30000000E+03</rscale>
<asrwt>0</asrwt>
<pdfrwt beam="1">  1       21 0.52501845E-02 0.30000000E+03</pdfrwt>
<pdfrwt beam="2">0</pdfrwt>
<totfact> 0.26501340E+04</totfact>
</mgrwt>
</event>
<event>
 6    1  0.6377696E-002  0.3000000E+03  0.7818608E-02  0.1093470E+00
         21   -1    0    0  501  502  0.00000000000E+00  0.00000000000E+00  0.18521390065E+01  0.18521390065E+01  0.00000000000E+00 0. -1.
         13   -1    0    0    0    0 -0.00000000000E+00 -0.00000000000E+00 -0.10000000000E+04  0.10000000000E+04  0.00000000000E+00 0.  1.
    9000005    2    1    2  501    0  0.38194389784E+02 -0.11223331318E+02 -0.31151318971E+03  0.31406442002E+03  0.33493258760E+01 0.  0.
         13    1    3    3    0    0  0.76954578265E+01 -0.14820706495E+01 -0.53042138761E+02  0.53617954912E+02  0.00000000000E+00 0.  1.
          3    1    3    3  501    0  0.30498931957E+02 -0.97412606681E+01 -0.25847105094E+03  0.26044646511E+03  0.00000000000E+00 0.  1.
         -1    1    1    2    0  502 -0.38194389784E+02  0.11223331318E+02 -0.68663467129E+03  0.68778771899E+03  0.00000000000E+00 0. -1.
<mgrwt>
<rscale>  1 0.30000000E+03</rscale>
<asrwt>0</asrwt>
<pdfrwt beam="1">  1       21 0.67350651E-02 0.30000000E+03</pdfrwt>
<pdfrwt beam="2">0</pdfrwt>
<totfact> 0.17254205E+04</totfact>
</mgrwt>
</event>
<event>
 6    1  0.6377696E-002  0.3000000E+03  0.7818608E-02  0.1093470E+00
         21   -1    0    0  501  502  0.00000000000E+00  0.00000000000E+00  0.11155491144E+01  0.11155491144E+01  0.00000000000E+00 0. -1.
         13   -1    0    0    0    0 -0.00000000000E+00 -0.00000000000E+00 -0.10000000000E+04  0.10000000000E+04  0.00000000000E+00 0.  1.
    9000005    2    1    2  501    0  0.20682171551E+02 -0.24817861634E+02 -0.38028063287E+03  0.38166872965E+03  0.37391153384E+01 0.  0.
         13    1    3    3    0    0  0.77743169858E+01 -0.10912890628E+02 -0.17574720605E+03  0.17625723140E+03  0.00000000000E+00 0.  1.
          3    1    3    3  501    0  0.12907854566E+02 -0.13904971006E+02 -0.20453342682E+03  0.20541149825E+03  0.00000000000E+00 0.  1.
         -1    1    1    2    0  502 -0.20682171551E+02  0.24817861634E+02 -0.61860381802E+03  0.61944681946E+03  0.00000000000E+00 0. -1.
<mgrwt>
<rscale>  1 0.30000000E+03</rscale>
<asrwt>0</asrwt>
<pdfrwt beam="1">  1       21 0.40565508E-02 0.30000000E+03</pdfrwt>
<pdfrwt beam="2">0</pdfrwt>
<totfact> 0.41064565E+04</totfact>
</mgrwt>
</event>
<event>
 6    1  0.6377696E-002  0.3000000E+03  0.7818608E-02  0.1093470E+00
         21   -1    0    0  501  502  0.00000000000E+00  0.00000000000E+00  0.11879068081E+01  0.11879068081E+01  0.00000000000E+00 0. -1.
         13   -1    0    0    0    0 -0.00000000000E+00 -0.00000000000E+00 -0.10000000000E+04  0.10000000000E+04  0.00000000000E+00 0.  1.
    9000005    2    1    2  501    0  0.11583188083E+02  0.30679688482E+02 -0.65056645053E+03  0.65140162754E+03  0.34583629779E+01 0.  0.
         13    1    3    3    0    0  0.87952749478E+01  0.20929801994E+02 -0.47562129964E+03  0.47616282314E+03  0.00000000000E+00 0.  1.
          1    1    3    3  501    0  0.27879131356E+01  0.97498864885E+01 -0.17494515090E+03  0.17523880440E+03  0.00000000000E+00 0.  1.
         -3    1    1    2    0  502 -0.11583188083E+02 -0.30679688482E+02 -0.34824564266E+03  0.34978627926E+03  0.00000000000E+00 0. -1.
<mgrwt>
<rscale>  1 0.30000000E+03</rscale>
<asrwt>0</asrwt>
<pdfrwt beam="1">  1       21 0.43196702E-02 0.30000000E+03</pdfrwt>
<pdfrwt beam="2">0</pdfrwt>
<totfact> 0.36930538E+04</totfact>
</mgrwt>
</event>
<event>
 6    1  0.6377696E-002  0.3000000E+03  0.7818608E-02  0.1093470E+00
         21   -1    0    0  501  502  0.00000000000E+00  0.00000000000E+00  0.81969002592E+01  0.81969002592E+01  0.00000000000E+00 0. -1.
         13   -1    0    0    0    0 -0.00000000000E+00 -0.00000000000E+00 -0.10000000000E+04  0.10000000000E+04  0.00000000000E+00 0.  1.
    9000005    2    1    2  501    0 -0.70741629096E+02 -0.42998942591E+02 -0.69972985463E+03  0.70461813344E+03  0.33996128670E+01 0.  0.
         13    1    3    3    0    0 -0.21119917942E+02 -0.14539291143E+02 -0.22166284193E+03  0.22314089140E+03  0.00000000000E+00 0.  1.
          3    1    3    3  501    0 -0.49621711154E+02 -0.28459651448E+02 -0.47806701270E+03  0.48147724205E+03  0.00000000000E+00 0.  1.
         -1    1    1    2    0  502  0.70741629096E+02  0.42998942591E+02 -0.29207324511E+03  0.30357876682E+03  0.00000000000E+00 0. -1.
<mgrwt>
<rscale>  1 0.30000000E+03</rscale>
<asrwt>0</asrwt>
<pdfrwt beam="1">  1       21 0.29806973E-01 0.30000000E+03</pdfrwt>
<pdfrwt beam="2">0</pdfrwt>
<totfact> 0.11014040E+03</totfact>
</mgrwt>
</event>
<event>
 6    1  0.6377696E-002  0.3000000E+03  0.7818608E-02  0.1093470E+00
         21   -1    0    0  501  502  0.00000000000E+00  0.00000000000E+00  0.13925900786E+01  0.13925900786E+01  0.00000000000E+00 0. -1.
         13   -1    0    0    0    0 -0.00000000000E+00 -0.00000000000E+00 -0.10000000000E+04  0.10000000000E+04  0.00000000000E+00 0.  1.
    9000005    2    1    2  501    0 -0.18261433091E+02 -0.26141740630E+02 -0.75848779590E+03  0.75916480559E+03  0.32549918040E+01 0.  0.
         13    1    3    3    0    0  0.62185710243E-01 -0.53600751063E-02 -0.59897674355E+01  0.59900926307E+01  0.00000000000E+00 0.  1.
          1    1    3    3  501    0 -0.18323618801E+02 -0.26136380555E+02 -0.75249802847E+03  0.75317471296E+03  0.00000000000E+00 0.  1.
         -3    1    1    2    0  502  0.18261433091E+02  0.26141740630E+02 -0.24011961402E+03  0.24222778449E+03  0.00000000000E+00 0. -1.
<mgrwt>
<rscale>  1 0.30000000E+03</rscale>
<asrwt>0</asrwt>
<pdfrwt beam="1">  1       21 0.50639746E-02 0.30000000E+03</pdfrwt>
<pdfrwt beam="2">0</pdfrwt>
<totfact> 0.28186880E+04</totfact>
</mgrwt>
</event>
<event>
 6    1  0.6377696E-002  0.3000000E+03  0.7818608E-02  0.1093470E+00
         21   -1    0    0  501  502  0.00000000000E+00  0.00000000000E+00  0.17495016030E+01  0.17495016030E+01  0.00000000000E+00 0. -1.
         13   -1    0    0    0    0 -0.00000000000E+00 -0.00000000000E+00 -0.10000000000E+04  0.10000000000E+04  0.00000000000E+00 0.  1.
    9000005    2    1    2  501    0  0.28651523055E+02 -0.21963842721E+02 -0.75122291004E+03  0.75209784515E+03  0.34623618015E+01 0.  0.
         13    1    3    3    0    0  0.11206581869E+02 -0.10740930632E+02 -0.32465326581E+03  0.32502414998E+03  0.00000000000E+00 0.  1.
          3    1    3    3  501    0  0.17444941186E+02 -0.11222912090E+02 -0.42656964423E+03  0.42707369517E+03  0.00000000000E+00 0.  1.
         -3    1    1    2    0  502 -0.28651523055E+02  0.21963842721E+02 -0.24702758836E+03  0.24965165645E+03  0.00000000000E+00 0. -1.
<mgrwt>
<rscale>  1 0.30000000E+03</rscale>
<asrwt>0</asrwt>
<pdfrwt beam="1">  1       21 0.63618374E-02 0.30000000E+03</pdfrwt>
<pdfrwt beam="2">0</pdfrwt>
<totfact> 0.19045068E+04</totfact>
</mgrwt>
</event>
<event>
 6    1  0.6377696E-002  0.3000000E+03  0.7818608E-02  0.1093470E+00
         21   -1    0    0  501  502  0.00000000000E+00  0.00000000000E+00  0.26942029078E+01  0.26942029078E+01  0.00000000000E+00 0. -1.
         13   -1    0    0    0    0 -0.00000000000E+00 -0.00000000000E+00 -0.10000000000E+04  0.10000000000E+04  0.00000000000E+00 0.  1.
    9000005    2    1    2  501    0 -0.16193861399E+02  0.48141731435E+02 -0.39805013259E+03  0.40128983072E+03  0.31229359873E+01 0.  0.
         13    1    3    3    0    0 -0.77957292419E+01  0.25193206379E+02 -0.21779040357E+03  0.21938124562E+03  0.00000000000E+00 0.  1.
          3    1    3    3  501    0 -0.83981321568E+01  0.22948525055E+02 -0.18025972902E+03  0.18190858510E+03  0.00000000000E+00 0.  1.
         -3    1    1    2    0  502  0.16193861399E+02 -0.48141731435E+02 -0.59925566450E+03  0.60140437219E+03  0.00000000000E+00 0. -1.
<mgrwt>
<rscale>  1 0.30000000E+03</rscale>
<asrwt>0</asrwt>
<pdfrwt beam="1">  1       21 0.97971221E-02 0.30000000E+03</pdfrwt>
<pdfrwt beam="2">0</pdfrwt>
<totfact> 0.89239257E+03</totfact>
</mgrwt>
</event>
<event>
 6    1  0.6377696E-002  0.3000000E+03  0.7818608E-02  0.1093470E+00
         21   -1    0    0  501  502  0.00000000000E+00  0.00000000000E+00  0.24523453457E+01  0.24523453457E+01  0.00000000000E+00 0. -1.
         13   -1    0    0    0    0 -0.00000000000E+00 -0.00000000000E+00 -0.10000000000E+04  0.10000000000E+04  0.00000000000E+00 0.  1.
    9000005    2    1    2  501    0  0.48581233422E+02 -0.31952462970E+01 -0.58776942385E+03  0.58979201979E+03  0.33741910407E+01 0.  0.
         13    1    3    3    0    0  0.42051962948E+02 -0.16039538340E+01 -0.50713493218E+03  0.50887796149E+03  0.00000000000E+00 0.  1.
          1    1    3    3  501    0  0.65292704742E+01 -0.15912924630E+01 -0.80634491668E+02  0.80914058304E+02  0.00000000000E+00 0.  1.
         -1    1    1    2    0  502 -0.48581233422E+02  0.31952462970E+01 -0.40977823081E+03  0.41266032555E+03  0.00000000000E+00 0. -1.
<mgrwt>
<rscale>  1 0.30000000E+03</rscale>
<asrwt>0</asrwt>
<pdfrwt beam="1">  1       21 0.89176382E-02 0.30000000E+03</pdfrwt>
<pdfrwt beam="2">0</pdfrwt>
<totfact> 0.10548437E+04</totfact>
</mgrwt>
</event>
<event>
 6    1  0.6377696E-002  0.3000000E+03  0.7818608E-02  0.1093470E+00
         21   -1    0    0  501  502  0.00000000000E+00  0.00000000000E+00  0.14935510312E+01  0.14935510312E+01  0.00000000000E+00 0. -1.
         13   -1    0    0    0    0 -0.00000000000E+00 -0.00000000000E+00 -0.10000000000E+04  0.10000000000E+04  0.00000000000E+00 0.  1.
    9000005    2    1    2  501    0 -0.14896739203E+02 -0.34137961693E+02 -0.62993113278E+03  0.63104102105E+03  0.34964170424E+01 0.  0.
         13    1    3    3    0    0 -0.68357770301E+01 -0.11623350116E+02 -0.23479560284E+03  0.23518249345E+03  0.00000000000E+00 0.  1.
          1    1    3    3  501    0 -0.80609621733E+01 -0.22514611577E+02 -0.39513552994E+03  0.39585852759E+03  0.00000000000E+00 0.  1.
         -3    1    1    2    0  502  0.14896739203E+02  0.34137961693E+02 -0.36857531619E+03  0.37045252998E+03  0.00000000000E+00 0. -1.
<mgrwt>
<rscale>  1 0.30000000E+03</rscale>
<asrwt>0</asrwt>
<pdfrwt beam="1">  1       21 0.54311061E-02 0.30000000E+03</pdfrwt>
<pdfrwt beam="2">0</pdfrwt>
<totfact> 0.25008643E+04</totfact>
</mgrwt>
</event>
<event>
 6    1  0.6377696E-002  0.3000000E+03  0.7818608E-02  0.1093470E+00
         21   -1    0    0  501  502  0.00000000000E+00  0.00000000000E+00  0.12362501625E+01  0.12362501625E+01  0.00000000000E+00 0. -1.
         13   -1    0    0    0    0 -0.00000000000E+00 -0.00000000000E+00 -0.10000000000E+04  0.10000000000E+04  0.00000000000E+00 0.  1.
    9000005    2    1    2  501    0  0.30749706528E+02  0.13543725299E+02 -0.64403614206E+03  0.64492086646E+03  0.33756131271E+01 0.  0.
         13    1    3    3    0    0  0.30863028712E+01  0.34822211573E+00 -0.54085300798E+02  0.54174406194E+02  0.00000000000E+00 0.  1.
          1    1    3    3  501    0  0.27663403657E+02  0.13195503183E+02 -0.58995084126E+03  0.59074646026E+03  0.00000000000E+00 0.  1.
         -1    1    1    2    0  502 -0.30749706528E+02 -0.13543725299E+02 -0.35472760778E+03  0.35631538371E+03  0.00000000000E+00 0. -1.
<mgrwt>
<rscale>  1 0.30000000E+03</rscale>
<asrwt>0</asrwt>
<pdfrwt beam="1">  1       21 0.44954646E-02 0.30000000E+03</pdfrwt>
<pdfrwt beam="2">0</pdfrwt>
<totfact> 0.34517199E+04</totfact>
</mgrwt>
</event>
<event>
 6    1  0.6377696E-002  0.3000000E+03  0.7818608E-02  0.1093470E+00
         21   -1    0    0  501  502  0.00000000000E+00  0.00000000000E+00  0.37230163240E+01  0.37230163240E+01  0.00000000000E+00 0. -1.
         13   -1    0    0    0    0 -0.00000000000E+00 -0.00000000000E+00 -0.10000000000E+04  0.10000000000E+04  0.00000000000E+00 0.  1.
    9000005    2    1    2  501    0  0.32109006137E+02  0.45988019677E+02 -0.30207904267E+03  0.30726291874E+03  0.35870578007E+01 0.  0.
         13    1    3    3    0    0  0.29659773805E+02  0.41195545349E+02 -0.26872170419E+03  0.27347418423E+03  0.00000000000E+00 0.  1.
          1    1    3    3  501    0  0.24492323319E+01  0.47924743280E+01 -0.33357338484E+02  0.33788734513E+02  0.00000000000E+00 0.  1.
         -1    1    1    2    0  502 -0.32109006137E+02 -0.45988019677E+02 -0.69419794100E+03  0.69646009758E+03  0.00000000000E+00 0. -1.
<mgrwt>
<rscale>  1 0.30000000E+03</rscale>
<asrwt>0</asrwt>
<pdfrwt beam="1">  1       21 0.13538270E-01 0.30000000E+03</pdfrwt>
<pdfrwt beam="2">0</pdfrwt>
<totfact> 0.49734467E+03</totfact>
</mgrwt>
</event>
<event>
 6    1  0.6377696E-002  0.3000000E+03  0.7818608E-02  0.1093470E+00
         21   -1    0    0  501  502  0.00000000000E+00  0.00000000000E+00  0.55540807410E+01  0.55540807410E+01  0.00000000000E+00 0. -1.
         13   -1    0    0    0    0 -0.00000000000E+00 -0.00000000000E+00 -0.10000000000E+04  0.10000000000E+04  0.00000000000E+00 0.  1.
    9000005    2    1    2  501    0  0.63070903280E+02  0.38650722567E+02 -0.54946291147E+03  0.55446462795E+03  0.70509130315E+01 0.  0.
         13    1    3    3    0    0  0.48210185036E+02  0.32187927801E+02 -0.41510363762E+03  0.41913161967E+03  0.00000000000E+00 0.  1.
          1    1    3    3  501    0  0.14860718244E+02  0.64627947660E+01 -0.13435927385E+03  0.13533300829E+03  0.00000000000E+00 0.  1.
         -1    1    1    2    0  502 -0.63070903280E+02 -0.38650722567E+02 -0.44498300779E+03  0.45108945279E+03  0.00000000000E+00 0. -1.
<mgrwt>
<rscale>  1 0.30000000E+03</rscale>
<asrwt>0</asrwt>
<pdfrwt beam="1">  1       21 0.20196700E-01 0.30000000E+03</pdfrwt>
<pdfrwt beam="2">0</pdfrwt>
<totfact> 0.23547900E+03</totfact>
</mgrwt>
</event>
<event>
 6    1  0.6377696E-002  0.3000000E+03  0.7818608E-02  0.1093470E+00
         21   -1    0    0  501  502  0.00000000000E+00  0.00000000000E+00  0.16373981249E+01  0.16373981249E+01  0.00000000000E+00 0. -1.
         13   -1    0    0    0    0 -0.00000000000E+00 -0.00000000000E+00 -0.10000000000E+04  0.10000000000E+04  0.00000000000E+00 0.  1.
    9000005    2    1    2  501    0 -0.34457302368E+02  0.19542450352E+02 -0.59410519678E+03  0.59544377111E+03  0.48048581524E+01 0.  0.
         13    1    3    3    0    0 -0.18805403416E+02  0.86742341356E+01 -0.28452767802E+03  0.28528036227E+03  0.00000000000E+00 0.  1.
          3    1    3    3  501    0 -0.15651898952E+02  0.10868216217E+02 -0.30957751876E+03  0.31016340885E+03  0.00000000000E+00 0.  1.
         -1    1    1    2    0  502  0.34457302368E+02 -0.19542450352E+02 -0.40425740509E+03  0.40619362701E+03  0.00000000000E+00 0. -1.
<mgrwt>
<rscale>  1 0.30000000E+03</rscale>
<asrwt>0</asrwt>
<pdfrwt beam="1">  1       21 0.59541876E-02 0.30000000E+03</pdfrwt>
<pdfrwt beam="2">0</pdfrwt>
<totfact> 0.21352016E+04</totfact>
</mgrwt>
</event>
<event>
 6    1  0.6377696E-002  0.3000000E+03  0.7818608E-02  0.1093470E+00
         21   -1    0    0  501  502  0.00000000000E+00  0.00000000000E+00  0.12181957507E+01  0.12181957507E+01  0.00000000000E+00 0. -1.
         13   -1    0    0    0    0 -0.00000000000E+00 -0.00000000000E+00 -0.10000000000E+04  0.10000000000E+04  0.00000000000E+00 0.  1.
    9000005    2    1    2  501    0  0.26222146071E+02 -0.22809022922E+02 -0.53125341460E+03  0.53239984329E+03  0.33985504626E+01 0.  0.
         13    1    3    3    0    0  0.42383177025E+01 -0.27447085383E+01 -0.92922219771E+02  0.93059312747E+02  0.00000000000E+00 0.  1.
          3    1    3    3  501    0  0.21983828368E+02 -0.20064314384E+02 -0.43833119483E+03  0.43934053055E+03  0.00000000000E+00 0.  1.
         -3    1    1    2    0  502 -0.26222146071E+02  0.22809022922E+02 -0.46752838965E+03  0.46881835246E+03  0.00000000000E+00 0. -1.
<mgrwt>
<rscale>  1 0.30000000E+03</rscale>
<asrwt>0</asrwt>
<pdfrwt beam="1">  1       21 0.44298121E-02 0.30000000E+03</pdfrwt>
<pdfrwt beam="2">0</pdfrwt>
<totfact> 0.35389171E+04</totfact>
</mgrwt>
</event>
<event>
 6    1  0.6377696E-002  0.3000000E+03  0.7818608E-02  0.1093470E+00
         21   -1    0    0  501  502  0.00000000000E+00  0.00000000000E+00  0.97461369191E+00  0.97461369191E+00  0.00000000000E+00 0. -1.
         13   -1    0    0    0    0 -0.00000000000E+00 -0.00000000000E+00 -0.10000000000E+04  0.10000000000E+04  0.00000000000E+00 0.  1.
    9000005    2    1    2  501    0  0.42891832337E+01  0.30019019101E+02 -0.39197224846E+03  0.39316456872E+03  0.40738104286E+01 0.  0.
         13    1    3    3    0    0  0.44536204587E+01  0.23232943579E+02 -0.28715299744E+03  0.28812575092E+03  0.00000000000E+00 0.  1.
          3    1    3    3  501    0 -0.16443722498E+00  0.67860755223E+01 -0.10481925102E+03  0.10503881780E+03  0.00000000000E+00 0.  1.
         -1    1    1    2    0  502 -0.42891832337E+01 -0.30019019101E+02 -0.60705313785E+03  0.60781004498E+03  0.00000000000E+00 0. -1.
<mgrwt>
<rscale>  1 0.30000000E+03</rscale>
<asrwt>0</asrwt>
<pdfrwt beam="1">  1       21 0.35440573E-02 0.30000000E+03</pdfrwt>
<pdfrwt beam="2">0</pdfrwt>
<totfact> 0.51525644E+04</totfact>
</mgrwt>
</event>
<event>
 6    1  0.6377696E-002  0.3000000E+03  0.7818608E-02  0.1093470E+00
         21   -1    0    0  501  502  0.00000000000E+00  0.00000000000E+00  0.12212847638E+01  0.12212847638E+01  0.00000000000E+00 0. -1.
         13   -1    0    0    0    0 -0.00000000000E+00 -0.00000000000E+00 -0.10000000000E+04  0.10000000000E+04  0.00000000000E+00 0.  1.
    9000005    2    1    2  501    0 -0.43782217411E+01  0.32814253533E+02 -0.37240541329E+03  0.37397375990E+03  0.86392814072E+01 0.  0.
         13    1    3    3    0    0 -0.59503096839E+01  0.31638890134E+02 -0.34538690969E+03  0.34688404827E+03  0.00000000000E+00 0.  1.
          1    1    3    3  501    0  0.15720879428E+01  0.11753633995E+01 -0.27018503596E+02  0.27089711629E+02  0.00000000000E+00 0.  1.
         -1    1    1    2    0  502  0.43782217411E+01 -0.32814253533E+02 -0.62637330195E+03  0.62724752487E+03  0.00000000000E+00 0. -1.
<mgrwt>
<rscale>  1 0.30000000E+03</rscale>
<asrwt>0</asrwt>
<pdfrwt beam="1">  1       21 0.44410449E-02 0.30000000E+03</pdfrwt>
<pdfrwt beam="2">0</pdfrwt>
<totfact> 0.35237586E+04</totfact>
</mgrwt>
</event>
<event>
 6    1  0.6377696E-002  0.3000000E+03  0.7818608E-02  0.1093470E+00
         21   -1    0    0  501  502  0.00000000000E+00  0.00000000000E+00  0.12828878372E+01  0.12828878372E+01  0.00000000000E+00 0. -1.
         13   -1    0    0    0    0 -0.00000000000E+00 -0.00000000000E+00 -0.10000000000E+04  0.10000000000E+04  0.00000000000E+00 0.  1.
    9000005    2    1    2  501    0 -0.32551831646E+02  0.57150437654E+01 -0.69058024157E+03  0.69137868572E+03  0.33366986103E+01 0.  0.
         13    1    3    3    0    0 -0.15254960043E+02  0.18083146561E+01 -0.35042867169E+03  0.35076521742E+03  0.00000000000E+00 0.  1.
          1    1    3    3  501    0 -0.17296871603E+02  0.39067291094E+01 -0.34015156988E+03  0.34061346831E+03  0.00000000000E+00 0.  1.
         -1    1    1    2    0  502  0.32551831646E+02 -0.57150437654E+01 -0.30813687059E+03  0.30990420211E+03  0.00000000000E+00 0. -1.
<mgrwt>
<rscale>  1 0.30000000E+03</rscale>
<asrwt>0</asrwt>
<pdfrwt beam="1">  1       21 0.46650565E-02 0.30000000E+03</pdfrwt>
<pdfrwt beam="2">0</pdfrwt>
<totfact> 0.32412937E+04</totfact>
</mgrwt>
</event>
<event>
 6    1  0.6377696E-002  0.3000000E+03  0.7818608E-02  0.1093470E+00
         21   -1    0    0  501  502  0.00000000000E+00  0.00000000000E+00  0.12833162321E+01  0.12833162321E+01  0.00000000000E+00 0. -1.
         13   -1    0    0    0    0 -0.00000000000E+00 -0.00000000000E+00 -0.10000000000E+04  0.10000000000E+04  0.00000000000E+00 0.  1.
    9000005    2    1    2  501    0 -0.59863677082E+01 -0.32359726748E+02 -0.69530140869E+03  0.69608859533E+03  0.35064389531E+01 0.  0.
         13    1    3    3    0    0 -0.19587941324E+01 -0.10121830418E+02 -0.25346506661E+03  0.25367465053E+03  0.00000000000E+00 0.  1.
          3    1    3    3  501    0 -0.40275735758E+01 -0.22237896330E+02 -0.44183634208E+03  0.44241394481E+03  0.00000000000E+00 0.  1.
         -1    1    1    2    0  502  0.59863677082E+01  0.32359726748E+02 -0.30341527508E+03  0.30519472090E+03  0.00000000000E+00 0. -1.
<mgrwt>
<rscale>  1 0.30000000E+03</rscale>
<asrwt>0</asrwt>
<pdfrwt beam="1">  1       21 0.46666143E-02 0.30000000E+03</pdfrwt>
<pdfrwt beam="2">0</pdfrwt>
<totfact> 0.32394547E+04</totfact>
</mgrwt>
</event>
<event>
 6    1  0.6377696E-002  0.3000000E+03  0.7818608E-02  0.1093470E+00
         21   -1    0    0  501  502  0.00000000000E+00  0.00000000000E+00  0.60022402404E+01  0.60022402404E+01  0.00000000000E+00 0. -1.
         13   -1    0    0    0    0 -0.00000000000E+00 -0.00000000000E+00 -0.10000000000E+04  0.10000000000E+04  0.00000000000E+00 0.  1.
    9000005    2    1    2  501    0 -0.22790226055E+02 -0.59114800016E+02 -0.20830997585E+03  0.21776417483E+03  0.37730377996E+01 0.  0.
         13    1    3    3    0    0 -0.83114083073E+01 -0.23784266605E+02 -0.77162853046E+02  0.81171896221E+02  0.00000000000E+00 0.  1.
          3    1    3    3  501    0 -0.14478817747E+02 -0.35330533411E+02 -0.13114712281E+03  0.13659227861E+03  0.00000000000E+00 0.  1.
         -1    1    1    2    0  502  0.22790226055E+02  0.59114800016E+02 -0.78568778391E+03  0.78823806541E+03  0.00000000000E+00 0. -1.
<mgrwt>
<rscale>  1 0.30000000E+03</rscale>
<asrwt>0</asrwt>
<pdfrwt beam="1">  1       21 0.21826374E-01 0.30000000E+03</pdfrwt>
<pdfrwt beam="2">0</pdfrwt>
<totfact> 0.20293041E+03</totfact>
</mgrwt>
</event>
<event>
 6    1  0.6377696E-002  0.3000000E+03  0.7818608E-02  0.1093470E+00
         21   -1    0    0  501  502  0.00000000000E+00  0.00000000000E+00  0.99756723212E+00  0.99756723212E+00  0.00000000000E+00 0. -1.
         13   -1    0    0    0    0 -0.00000000000E+00 -0.00000000000E+00 -0.10000000000E+04  0.10000000000E+04  0.00000000000E+00 0.  1.
    9000005    2    1    2  501    0 -0.16684656716E+02 -0.26121580564E+02 -0.58897393036E+03  0.58979921178E+03  0.34791996136E+01 0.  0.
         13    1    3    3    0    0 -0.11669338391E+02 -0.15274934672E+02 -0.37277629317E+03  0.37327156580E+03  0.00000000000E+00 0.  1.
          1    1    3    3  501    0 -0.50153183252E+01 -0.10846645892E+02 -0.21619763719E+03  0.21652764598E+03  0.00000000000E+00 0.  1.
         -3    1    1    2    0  502  0.16684656716E+02  0.26121580564E+02 -0.41002850241E+03  0.41119835545E+03  0.00000000000E+00 0. -1.
<mgrwt>
<rscale>  1 0.30000000E+03</rscale>
<asrwt>0</asrwt>
<pdfrwt beam="1">  1       21 0.36275249E-02 0.30000000E+03</pdfrwt>
<pdfrwt beam="2">0</pdfrwt>
<totfact> 0.49553239E+04</totfact>
</mgrwt>
</event>
<event>
 6    1  0.6377696E-002  0.3000000E+03  0.7818608E-02  0.1093470E+00
         21   -1    0    0  501  502  0.00000000000E+00  0.00000000000E+00  0.17077506660E+01  0.17077506660E+01  0.00000000000E+00 0. -1.
         13   -1    0    0    0    0 -0.00000000000E+00 -0.00000000000E+00 -0.10000000000E+04  0.10000000000E+04  0.00000000000E+00 0.  1.
    9000005    2    1    2  501    0 -0.24284204215E+02 -0.33307150347E+02 -0.52216534948E+03  0.52379990013E+03  0.32548949234E+01 0.  0.
         13    1    3    3    0    0 -0.19150806608E+02 -0.25848988803E+02 -0.42341221853E+03  0.42463258285E+03  0.00000000000E+00 0.  1.
          3    1    3    3  501    0 -0.51333976070E+01 -0.74581615440E+01 -0.98753130948E+02  0.99167317281E+02  0.00000000000E+00 0.  1.
         -1    1    1    2    0  502  0.24284204215E+02  0.33307150347E+02 -0.47612689986E+03  0.47790785054E+03  0.00000000000E+00 0. -1.
<mgrwt>
<rscale>  1 0.30000000E+03</rscale>
<asrwt>0</asrwt>
<pdfrwt beam="1">  1       21 0.62100155E-02 0.30000000E+03</pdfrwt>
<pdfrwt beam="2">0</pdfrwt>
<totfact> 0.19856906E+04</totfact>
</mgrwt>
</event>
<event>
 6    1  0.6377696E-002  0.3000000E+03  0.7818608E-02  0.1093470E+00
         21   -1    0    0  501  502  0.00000000000E+00  0.00000000000E+00  0.94650796262E+00  0.94650796262E+00  0.00000000000E+00 0. -1.
         13   -1    0    0    0    0 -0.00000000000E+00 -0.00000000000E+00 -0.10000000000E+04  0.10000000000E+04  0.00000000000E+00 0.  1.
    9000005    2    1    2  501    0 -0.16894649435E+02 -0.25550581622E+02 -0.46779162941E+03  0.46880232817E+03  0.28901478174E+01 0.  0.
         13    1    3    3    0    0 -0.10952573729E+02 -0.13980750023E+02 -0.27137314657E+03  0.27195368158E+03  0.00000000000E+00 0.  1.
          1    1    3    3  501    0 -0.59420757069E+01 -0.11569831598E+02 -0.19641848284E+03  0.19684864660E+03  0.00000000000E+00 0.  1.
         -1    1    1    2    0  502  0.16894649435E+02  0.25550581622E+02 -0.53126186263E+03  0.53214417979E+03  0.00000000000E+00 0. -1.
<mgrwt>
<rscale>  1 0.30000000E+03</rscale>
<asrwt>0</asrwt>
<pdfrwt beam="1">  1       21 0.34418544E-02 0.30000000E+03</pdfrwt>
<pdfrwt beam="2">0</pdfrwt>
<totfact> 0.54112783E+04</totfact>
</mgrwt>
</event>
<event>
 6    1  0.6377696E-002  0.3000000E+03  0.7818608E-02  0.1093470E+00
         21   -1    0    0  501  502  0.00000000000E+00  0.00000000000E+00  0.28801801995E+01  0.28801801995E+01  0.00000000000E+00 0. -1.
         13   -1    0    0    0    0 -0.00000000000E+00 -0.00000000000E+00 -0.10000000000E+04  0.10000000000E+04  0.00000000000E+00 0.  1.
    9000005    2    1    2  501    0 -0.15855697928E+02 -0.46988363572E+02 -0.30845445294E+03  0.31243156011E+03  0.31655564078E+01 0.  0.
         13    1    3    3    0    0 -0.11123556710E+02 -0.35037797693E+02 -0.23597490288E+03  0.23882113719E+03  0.00000000000E+00 0.  1.
          1    1    3    3  501    0 -0.47321412179E+01 -0.11950565878E+02 -0.72479550056E+02  0.73610422915E+02  0.00000000000E+00 0.  1.
         -1    1    1    2    0  502  0.15855697928E+02  0.46988363572E+02 -0.68866536686E+03  0.69044862009E+03  0.00000000000E+00 0. -1.
<mgrwt>
<rscale>  1 0.30000000E+03</rscale>
<asrwt>0</asrwt>
<pdfrwt beam="1">  1       21 0.10473405E-01 0.30000000E+03</pdfrwt>
<pdfrwt beam="2">0</pdfrwt>
<totfact> 0.79197882E+03</totfact>
</mgrwt>
</event>
<event>
 6    1  0.6377696E-002  0.3000000E+03  0.7818608E-02  0.1093470E+00
         21   -1    0    0  501  502  0.00000000000E+00  0.00000000000E+00  0.24762465870E+01  0.24762465870E+01  0.00000000000E+00 0. -1.
         13   -1    0    0    0    0 -0.00000000000E+00 -0.00000000000E+00 -0.10000000000E+04  0.10000000000E+04  0.00000000000E+00 0.  1.
    9000005    2    1    2  501    0  0.36385059079E+02  0.31766113547E+02 -0.38057628038E+03  0.38364093491E+03  0.30171606155E+01 0.  0.
         13    1    3    3    0    0  0.29427259478E+02  0.27199243527E+02 -0.31553134728E+03  0.31806570636E+03  0.00000000000E+00 0.  1.
          1    1    3    3  501    0  0.69577996004E+01  0.45668700204E+01 -0.65044933101E+02  0.65575228548E+02  0.00000000000E+00 0.  1.
         -3    1    1    2    0  502 -0.36385059079E+02 -0.31766113547E+02 -0.61694747303E+03  0.61883531167E+03  0.00000000000E+00 0. -1.
<mgrwt>
<rscale>  1 0.30000000E+03</rscale>
<asrwt>0</asrwt>
<pdfrwt beam="1">  1       21 0.90045520E-02 0.30000000E+03</pdfrwt>
<pdfrwt beam="2">0</pdfrwt>
<totfact> 0.10368796E+04</totfact>
</mgrwt>
</event>
<event>
 6    1  0.6377696E-002  0.3000000E+03  0.7818608E-02  0.1093470E+00
         21   -1    0    0  501  502  0.00000000000E+00  0.00000000000E+00  0.10239187815E+01  0.10239187815E+01  0.00000000000E+00 0. -1.
         13   -1    0    0    0    0 -0.00000000000E+00 -0.00000000000E+00 -0.10000000000E+04  0.10000000000E+04  0.00000000000E+00 0.  1.
    9000005    2    1    2  501    0 -0.21089359617E+02 -0.23782491532E+02 -0.47902124055E+03  0.48009839212E+03  0.47696148659E+01 0.  0.
         13    1    3    3    0    0 -0.33130926345E+01 -0.32538666177E+01 -0.48589771598E+02  0.48811168135E+02  0.00000000000E+00 0.  1.
          1    1    3    3  501    0 -0.17776266983E+02 -0.20528624914E+02 -0.43043146895E+03  0.43128722399E+03  0.00000000000E+00 0.  1.
         -3    1    1    2    0  502  0.21089359617E+02  0.23782491532E+02 -0.51995484067E+03  0.52092552666E+03  0.00000000000E+00 0. -1.
<mgrwt>
<rscale>  1 0.30000000E+03</rscale>
<asrwt>0</asrwt>
<pdfrwt beam="1">  1       21 0.37233489E-02 0.30000000E+03</pdfrwt>
<pdfrwt beam="2">0</pdfrwt>
<totfact> 0.47431912E+04</totfact>
</mgrwt>
</event>
<event>
 6    1  0.6377696E-002  0.3000000E+03  0.7818608E-02  0.1093470E+00
         21   -1    0    0  501  502  0.00000000000E+00  0.00000000000E+00  0.18365635672E+01  0.18365635672E+01  0.00000000000E+00 0. -1.
         13   -1    0    0    0    0 -0.00000000000E+00 -0.00000000000E+00 -0.10000000000E+04  0.10000000000E+04  0.00000000000E+00 0.  1.
    9000005    2    1    2  501    0  0.41225962678E+02  0.11294038257E+02 -0.51601941420E+03  0.51780144761E+03  0.38946146406E+01 0.  0.
         13    1    3    3    0    0  0.26352166403E+02  0.85331100553E+01 -0.34986305705E+03  0.35095784552E+03  0.00000000000E+00 0.  1.
          3    1    3    3  501    0  0.14873796275E+02  0.27609282014E+01 -0.16615635714E+03  0.16684360209E+03  0.00000000000E+00 0.  1.
         -3    1    1    2    0  502 -0.41225962678E+02 -0.11294038257E+02 -0.48214402224E+03  0.48403511595E+03  0.00000000000E+00 0. -1.
<mgrwt>
<rscale>  1 0.30000000E+03</rscale>
<asrwt>0</asrwt>
<pdfrwt beam="1">  1       21 0.66784271E-02 0.30000000E+03</pdfrwt>
<pdfrwt beam="2">0</pdfrwt>
<totfact> 0.17508849E+04</totfact>
</mgrwt>
</event>
<event>
 6    1  0.6377696E-002  0.3000000E+03  0.7818608E-02  0.1093470E+00
         21   -1    0    0  501  502  0.00000000000E+00  0.00000000000E+00  0.18626787614E+01  0.18626787614E+01  0.00000000000E+00 0. -1.
         13   -1    0    0    0    0 -0.00000000000E+00 -0.00000000000E+00 -0.10000000000E+04  0.10000000000E+04  0.00000000000E+00 0.  1.
    9000005    2    1    2  501    0  0.20022261722E+01  0.33432074279E+02 -0.18529961354E+03  0.18833526585E+03  0.35373838958E+01 0.  0.
         13    1    3    3    0    0 -0.77010398147E+00  0.14305988335E+02 -0.82537315181E+02  0.83771491330E+02  0.00000000000E+00 0.  1.
          1    1    3    3  501    0  0.27723301537E+01  0.19126085943E+02 -0.10276229836E+03  0.10456377452E+03  0.00000000000E+00 0.  1.
         -3    1    1    2    0  502 -0.20022261722E+01 -0.33432074279E+02 -0.81283770770E+03  0.81352741291E+03  0.00000000000E+00 0. -1.
<mgrwt>
<rscale>  1 0.30000000E+03</rscale>
<asrwt>0</asrwt>
<pdfrwt beam="1">  1       21 0.67733916E-02 0.30000000E+03</pdfrwt>
<pdfrwt beam="2">0</pdfrwt>
<totfact> 0.17085104E+04</totfact>
</mgrwt>
</event>
<event>
 6    1  0.6377696E-002  0.3000000E+03  0.7818608E-02  0.1093470E+00
         21   -1    0    0  501  502  0.00000000000E+00  0.00000000000E+00  0.49134316201E+01  0.49134316201E+01  0.00000000000E+00 0. -1.
         13   -1    0    0    0    0 -0.00000000000E+00 -0.00000000000E+00 -0.10000000000E+04  0.10000000000E+04  0.00000000000E+00 0.  1.
    9000005    2    1    2  501    0 -0.11719565856E+02  0.66426732323E+02 -0.36213931425E+03  0.36838213977E+03  0.32648103593E+01 0.  0.
         13    1    3    3    0    0 -0.61727310498E+01  0.34366622038E+02 -0.17856434998E+03  0.18194613050E+03  0.00000000000E+00 0.  1.
          1    1    3    3  501    0 -0.55468348062E+01  0.32060110285E+02 -0.18357496427E+03  0.18643600927E+03  0.00000000000E+00 0.  1.
         -3    1    1    2    0  502  0.11719565856E+02 -0.66426732323E+02 -0.63294725413E+03  0.63653129185E+03  0.00000000000E+00 0. -1.
<mgrwt>
<rscale>  1 0.30000000E+03</rscale>
<asrwt>0</asrwt>
<pdfrwt beam="1">  1       21 0.17867062E-01 0.30000000E+03</pdfrwt>
<pdfrwt beam="2">0</pdfrwt>
<totfact> 0.29707236E+03</totfact>
</mgrwt>
</event>
<event>
 6    1  0.6377696E-002  0.3000000E+03  0.7818608E-02  0.1093470E+00
         21   -1    0    0  501  502  0.00000000000E+00  0.00000000000E+00  0.19198319825E+01  0.19198319825E+01  0.00000000000E+00 0. -1.
         13   -1    0    0    0    0 -0.00000000000E+00 -0.00000000000E+00 -0.10000000000E+04  0.10000000000E+04  0.00000000000E+00 0.  1.
    9000005    2    1    2  501    0 -0.31841523556E+02 -0.23920602131E+02 -0.29199499205E+03  0.29471239880E+03  0.28713750998E+01 0.  0.
         13    1    3    3    0    0 -0.16866998233E+02 -0.14354082649E+02 -0.15849538600E+03  0.16003537953E+03  0.00000000000E+00 0.  1.
          3    1    3    3  501    0 -0.14974525323E+02 -0.95665194814E+01 -0.13349960605E+03  0.13467701926E+03  0.00000000000E+00 0.  1.
         -1    1    1    2    0  502  0.31841523556E+02  0.23920602131E+02 -0.70608517597E+03  0.70720743319E+03  0.00000000000E+00 0. -1.
<mgrwt>
<rscale>  1 0.30000000E+03</rscale>
<asrwt>0</asrwt>
<pdfrwt beam="1">  1       21 0.69812219E-02 0.30000000E+03</pdfrwt>
<pdfrwt beam="2">0</pdfrwt>
<totfact> 0.16210885E+04</totfact>
</mgrwt>
</event>
<event>
 6    1  0.6377696E-002  0.3000000E+03  0.7818608E-02  0.1093470E+00
         21   -1    0    0  501  502  0.00000000000E+00  0.00000000000E+00  0.23298451447E+01  0.23298451447E+01  0.00000000000E+00 0. -1.
         13   -1    0    0    0    0 -0.00000000000E+00 -0.00000000000E+00 -0.10000000000E+04  0.10000000000E+04  0.00000000000E+00 0.  1.
    9000005    2    1    2  501    0 -0.14431607013E+02  0.45707847055E+02 -0.44492160680E+03  0.44750695815E+03  0.31245520792E+01 0.  0.
         13    1    3    3    0    0 -0.11254565383E+02  0.31018384255E+02 -0.30197240862E+03  0.30376988161E+03  0.00000000000E+00 0.  1.
          3    1    3    3  501    0 -0.31770416297E+01  0.14689462800E+02 -0.14294919818E+03  0.14373707654E+03  0.00000000000E+00 0.  1.
         -3    1    1    2    0  502  0.14431607013E+02 -0.45707847055E+02 -0.55274854805E+03  0.55482288700E+03  0.00000000000E+00 0. -1.
<mgrwt>
<rscale>  1 0.30000000E+03</rscale>
<asrwt>0</asrwt>
<pdfrwt beam="1">  1       21 0.84721820E-02 0.30000000E+03</pdfrwt>
<pdfrwt beam="2">0</pdfrwt>
<totfact> 0.11547813E+04</totfact>
</mgrwt>
</event>
<event>
 6    1  0.6377696E-002  0.3000000E+03  0.7818608E-02  0.1093470E+00
         21   -1    0    0  501  502  0.00000000000E+00  0.00000000000E+00  0.13354565102E+01  0.13354565102E+01  0.00000000000E+00 0. -1.
         13   -1    0    0    0    0 -0.00000000000E+00 -0.00000000000E+00 -0.10000000000E+04  0.10000000000E+04  0.00000000000E+00 0.  1.
    9000005    2    1    2  501    0 -0.29038963931E+02  0.20257378070E+02 -0.61379442905E+03  0.61484014246E+03  0.55836240241E+01 0.  0.
         13    1    3    3    0    0 -0.24229338362E+02  0.14418956254E+02 -0.46586222183E+03  0.46671466322E+03  0.00000000000E+00 0.  1.
          1    1    3    3  501    0 -0.48096255693E+01  0.58384218155E+01 -0.14793220722E+03  0.14812547924E+03  0.00000000000E+00 0.  1.
         -3    1    1    2    0  502  0.29038963931E+02 -0.20257378070E+02 -0.38487011444E+03  0.38649531405E+03  0.00000000000E+00 0. -1.
<mgrwt>
<rscale>  1 0.30000000E+03</rscale>
<asrwt>0</asrwt>
<pdfrwt beam="1">  1       21 0.48562157E-02 0.30000000E+03</pdfrwt>
<pdfrwt beam="2">0</pdfrwt>
<totfact> 0.30272630E+04</totfact>
</mgrwt>
</event>
<event>
 6    1  0.6377696E-002  0.3000000E+03  0.7818608E-02  0.1093470E+00
         21   -1    0    0  501  502  0.00000000000E+00  0.00000000000E+00  0.14973814308E+01  0.14973814308E+01  0.00000000000E+00 0. -1.
         13   -1    0    0    0    0 -0.00000000000E+00 -0.00000000000E+00 -0.10000000000E+04  0.10000000000E+04  0.00000000000E+00 0.  1.
    9000005    2    1    2  501    0  0.47464330539E+00 -0.38321524562E+02 -0.43695559635E+03  0.43864409442E+03  0.31118901859E+01 0.  0.
         13    1    3    3    0    0  0.10863584940E+01 -0.63896803477E+01 -0.67298160719E+02  0.67609545375E+02  0.00000000000E+00 0.  1.
          3    1    3    3  501    0 -0.61171518865E+00 -0.31931844214E+02 -0.36965743563E+03  0.37103454905E+03  0.00000000000E+00 0.  1.
         -3    1    1    2    0  502 -0.47464330539E+00  0.38321524562E+02 -0.56154702222E+03  0.56285328701E+03  0.00000000000E+00 0. -1.
<mgrwt>
<rscale>  1 0.30000000E+03</rscale>
<asrwt>0</asrwt>
<pdfrwt beam="1">  1       21 0.54450349E-02 0.30000000E+03</pdfrwt>
<pdfrwt beam="2">0</pdfrwt>
<totfact> 0.24899138E+04</totfact>
</mgrwt>
</event>
<event>
 6    1  0.6377696E-002  0.3000000E+03  0.7818608E-02  0.1093470E+00
         21   -1    0    0  501  502  0.00000000000E+00  0.00000000000E+00  0.14342671647E+01  0.14342671647E+01  0.00000000000E+00 0. -1.
         13   -1    0    0    0    0 -0.00000000000E+00 -0.00000000000E+00 -0.10000000000E+04  0.10000000000E+04  0.00000000000E+00 0.  1.
    9000005    2    1    2  501    0  0.19811794933E+02  0.23890744877E+02 -0.22940409355E+03  0.23164669760E+03  0.84071078265E+01 0.  0.
         13    1    3    3    0    0 -0.51003781391E+00  0.15741222897E+01 -0.64512045947E+01  0.66600330538E+01  0.00000000000E+00 0.  1.
          3    1    3    3  501    0  0.20321832746E+02  0.22316622587E+02 -0.22295288896E+03  0.22498666455E+03  0.00000000000E+00 0.  1.
         -3    1    1    2    0  502 -0.19811794933E+02 -0.23890744877E+02 -0.76916163928E+03  0.76978756956E+03  0.00000000000E+00 0. -1.
<mgrwt>
<rscale>  1 0.30000000E+03</rscale>
<asrwt>0</asrwt>
<pdfrwt beam="1">  1       21 0.52155280E-02 0.30000000E+03</pdfrwt>
<pdfrwt beam="2">0</pdfrwt>
<totfact> 0.26802996E+04</totfact>
</mgrwt>
</event>
<event>
 6    1  0.6377696E-002  0.3000000E+03  0.7818608E-02  0.1093470E+00
         21   -1    0    0  501  502  0.00000000000E+00  0.00000000000E+00  0.17507304393E+01  0.17507304393E+01  0.00000000000E+00 0. -1.
         13   -1    0    0    0    0 -0.00000000000E+00 -0.00000000000E+00 -0.10000000000E+04  0.10000000000E+04  0.00000000000E+00 0.  1.
    9000005    2    1    2  501    0 -0.15412694143E+01  0.41709873448E+02 -0.48046892911E+03  0.48229084747E+03  0.34613091954E+01 0.  0.
         13    1    3    3    0    0 -0.20892613436E+01  0.21804150631E+02 -0.26498168667E+03  0.26588546457E+03  0.00000000000E+00 0.  1.
          3    1    3    3  501    0  0.54799192922E+00  0.19905722816E+02 -0.21548724244E+03  0.21640538291E+03  0.00000000000E+00 0.  1.
         -3    1    1    2    0  502  0.15412694143E+01 -0.41709873448E+02 -0.51778034045E+03  0.51945988297E+03  0.00000000000E+00 0. -1.
<mgrwt>
<rscale>  1 0.30000000E+03</rscale>
<asrwt>0</asrwt>
<pdfrwt beam="1">  1       21 0.63663059E-02 0.30000000E+03</pdfrwt>
<pdfrwt beam="2">0</pdfrwt>
<totfact> 0.19021957E+04</totfact>
</mgrwt>
</event>
<event>
 6    1  0.6377696E-002  0.3000000E+03  0.7818608E-02  0.1093470E+00
         21   -1    0    0  501  502  0.00000000000E+00  0.00000000000E+00  0.12439553049E+01  0.12439553049E+01  0.00000000000E+00 0. -1.
         13   -1    0    0    0    0 -0.00000000000E+00 -0.00000000000E+00 -0.10000000000E+04  0.10000000000E+04  0.00000000000E+00 0.  1.
    9000005    2    1    2  501    0  0.20820961239E+02  0.27329815882E+02 -0.39624619749E+03  0.39775530815E+03  0.42195823197E+01 0.  0.
         13    1    3    3    0    0  0.19584511234E+02  0.24053494779E+02 -0.34621863774E+03  0.34760533484E+03  0.00000000000E+00 0.  1.
          1    1    3    3  501    0  0.12364500055E+01  0.32763211031E+01 -0.50027559751E+02  0.50149973312E+02  0.00000000000E+00 0.  1.
         -1    1    1    2    0  502 -0.20820961239E+02 -0.27329815882E+02 -0.60250984721E+03  0.60348864715E+03  0.00000000000E+00 0. -1.
<mgrwt>
<rscale>  1 0.30000000E+03</rscale>
<asrwt>0</asrwt>
<pdfrwt beam="1">  1       21 0.45234834E-02 0.30000000E+03</pdfrwt>
<pdfrwt beam="2">0</pdfrwt>
<totfact> 0.34155120E+04</totfact>
</mgrwt>
</event>
<event>
 6    1  0.6377696E-002  0.3000000E+03  0.7818608E-02  0.1093470E+00
         21   -1    0    0  501  502  0.00000000000E+00  0.00000000000E+00  0.14732034762E+01  0.14732034762E+01  0.00000000000E+00 0. -1.
         13   -1    0    0    0    0 -0.00000000000E+00 -0.00000000000E+00 -0.10000000000E+04  0.10000000000E+04  0.00000000000E+00 0.  1.
    9000005    2    1    2  501    0  0.23157942539E+01 -0.30519159422E+02 -0.19937220854E+03  0.20173272214E+03  0.31672777569E+01 0.  0.
         13    1    3    3    0    0  0.13713864410E+01 -0.11014299718E+02 -0.81858787292E+02  0.82607848028E+02  0.00000000000E+00 0.  1.
          1    1    3    3  501    0  0.94440781289E+00 -0.19504859704E+02 -0.11751342125E+03  0.11912487411E+03  0.00000000000E+00 0.  1.
         -1    1    1    2    0  502 -0.23157942539E+01  0.30519159422E+02 -0.79915458799E+03  0.79974048134E+03  0.00000000000E+00 0. -1.
<mgrwt>
<rscale>  1 0.30000000E+03</rscale>
<asrwt>0</asrwt>
<pdfrwt beam="1">  1       21 0.53571148E-02 0.30000000E+03</pdfrwt>
<pdfrwt beam="2">0</pdfrwt>
<totfact> 0.25603004E+04</totfact>
</mgrwt>
</event>
<event>
 6    1  0.6377696E-002  0.3000000E+03  0.7818608E-02  0.1093470E+00
         21   -1    0    0  501  502  0.00000000000E+00  0.00000000000E+00  0.37030508214E+01  0.37030508214E+01  0.00000000000E+00 0. -1.
         13   -1    0    0    0    0 -0.00000000000E+00 -0.00000000000E+00 -0.10000000000E+04  0.10000000000E+04  0.00000000000E+00 0.  1.
    9000005    2    1    2  501    0  0.46731818890E+02  0.31579409795E+02 -0.31028684531E+03  0.31537828399E+03  0.21008622209E+01 0.  0.
         13    1    3    3    0    0  0.89159082912E+01  0.50591011548E+01 -0.57044882210E+02  0.57958662092E+02  0.00000000000E+00 0.  1.
          3    1    3    3  501    0  0.37815910599E+02  0.26520308641E+02 -0.25324196310E+03  0.25741962190E+03  0.00000000000E+00 0.  1.
         -3    1    1    2    0  502 -0.46731818890E+02 -0.31579409795E+02 -0.68601010387E+03  0.68832476683E+03  0.00000000000E+00 0. -1.
<mgrwt>
<rscale>  1 0.30000000E+03</rscale>
<asrwt>0</asrwt>
<pdfrwt beam="1">  1       21 0.13465668E-01 0.30000000E+03</pdfrwt>
<pdfrwt beam="2">0</pdfrwt>
<totfact> 0.50226679E+03</totfact>
</mgrwt>
</event>
<event>
 6    1  0.6377696E-002  0.3000000E+03  0.7818608E-02  0.1093470E+00
         21   -1    0    0  501  502  0.00000000000E+00  0.00000000000E+00  0.30436903596E+01  0.30436903596E+01  0.00000000000E+00 0. -1.
         13   -1    0    0    0    0 -0.00000000000E+00 -0.00000000000E+00 -0.10000000000E+04  0.10000000000E+04  0.00000000000E+00 0.  1.
    9000005    2    1    2  501    0  0.54752493565E+02 -0.50574228133E+01 -0.46388721599E+03  0.46714624525E+03  0.32942690708E+01 0.  0.
         13    1    3    3    0    0  0.94023412196E+01 -0.24095638205E+00 -0.88813950417E+02  0.89310580946E+02  0.00000000000E+00 0.  1.
          3    1    3    3  501    0  0.45350152346E+02 -0.48164664312E+01 -0.37507326558E+03  0.37783566430E+03  0.00000000000E+00 0.  1.
         -3    1    1    2    0  502 -0.54752493565E+02  0.50574228133E+01 -0.53306909365E+03  0.53589744511E+03  0.00000000000E+00 0. -1.
<mgrwt>
<rscale>  1 0.30000000E+03</rscale>
<asrwt>0</asrwt>
<pdfrwt beam="1">  1       21 0.11067988E-01 0.30000000E+03</pdfrwt>
<pdfrwt beam="2">0</pdfrwt>
<totfact> 0.71720514E+03</totfact>
</mgrwt>
</event>
<event>
 6    1  0.6377696E-002  0.3000000E+03  0.7818608E-02  0.1093470E+00
         21   -1    0    0  501  502  0.00000000000E+00  0.00000000000E+00  0.11575087737E+01  0.11575087737E+01  0.00000000000E+00 0. -1.
         13   -1    0    0    0    0 -0.00000000000E+00 -0.00000000000E+00 -0.10000000000E+04  0.10000000000E+04  0.00000000000E+00 0.  1.
    9000005    2    1    2  501    0  0.22804681760E+02 -0.24605687533E+02 -0.57625208632E+03  0.57723753556E+03  0.33484480160E+01 0.  0.
         13    1    3    3    0    0  0.56677806805E+00 -0.49173370572E+00 -0.24297848356E+02  0.24309431794E+02  0.00000000000E+00 0.  1.
          3    1    3    3  501    0  0.22237903692E+02 -0.24113953828E+02 -0.55195423796E+03  0.55292810377E+03  0.00000000000E+00 0.  1.
         -3    1    1    2    0  502 -0.22804681760E+02  0.24605687533E+02 -0.42259040491E+03  0.42391997321E+03  0.00000000000E+00 0. -1.
<mgrwt>
<rscale>  1 0.30000000E+03</rscale>
<asrwt>0</asrwt>
<pdfrwt beam="1">  1       21 0.42091317E-02 0.30000000E+03</pdfrwt>
<pdfrwt beam="2">0</pdfrwt>
<totfact> 0.38584681E+04</totfact>
</mgrwt>
</event>
<event>
 6    1  0.6377696E-002  0.3000000E+03  0.7818608E-02  0.1093470E+00
         21   -1    0    0  501  502  0.00000000000E+00  0.00000000000E+00  0.11428950245E+01  0.11428950245E+01  0.00000000000E+00 0. -1.
         13   -1    0    0    0    0 -0.00000000000E+00 -0.00000000000E+00 -0.10000000000E+04  0.10000000000E+04  0.00000000000E+00 0.  1.
    9000005    2    1    2  501    0 -0.19838798793E+02 -0.27037556947E+02 -0.44959963771E+03  0.45086262756E+03  0.35591109291E+01 0.  0.
         13    1    3    3    0    0 -0.12468613054E+01 -0.31254846350E+01 -0.54375493487E+02  0.54479515502E+02  0.00000000000E+00 0.  1.
          3    1    3    3  501    0 -0.18591937487E+02 -0.23912072312E+02 -0.39522414423E+03  0.39638311205E+03  0.00000000000E+00 0.  1.
         -3    1    1    2    0  502  0.19838798793E+02  0.27037556947E+02 -0.54925746726E+03  0.55028026747E+03  0.00000000000E+00 0. -1.
<mgrwt>
<rscale>  1 0.30000000E+03</rscale>
<asrwt>0</asrwt>
<pdfrwt beam="1">  1       21 0.41559907E-02 0.30000000E+03</pdfrwt>
<pdfrwt beam="2">0</pdfrwt>
<totfact> 0.39421247E+04</totfact>
</mgrwt>
</event>
<event>
 6    1  0.6377696E-002  0.3000000E+03  0.7818608E-02  0.1093470E+00
         21   -1    0    0  501  502  0.00000000000E+00  0.00000000000E+00  0.16038533341E+01  0.16038533341E+01  0.00000000000E+00 0. -1.
         13   -1    0    0    0    0 -0.00000000000E+00 -0.00000000000E+00 -0.10000000000E+04  0.10000000000E+04  0.00000000000E+00 0.  1.
    9000005    2    1    2  501    0 -0.20317802465E+02 -0.29947452864E+02 -0.28754402760E+03  0.28983113806E+03  0.32951099893E+01 0.  0.
         13    1    3    3    0    0 -0.12604176452E+01 -0.31786845985E+01 -0.22609164101E+02  0.22866285001E+02  0.00000000000E+00 0.  1.
          3    1    3    3  501    0 -0.19057384820E+02 -0.26768768266E+02 -0.26493486350E+03  0.26696485306E+03  0.00000000000E+00 0.  1.
         -3    1    1    2    0  502  0.20317802465E+02  0.29947452864E+02 -0.71085211906E+03  0.71177271527E+03  0.00000000000E+00 0. -1.
<mgrwt>
<rscale>  1 0.30000000E+03</rscale>
<asrwt>0</asrwt>
<pdfrwt beam="1">  1       21 0.58322062E-02 0.30000000E+03</pdfrwt>
<pdfrwt beam="2">0</pdfrwt>
<totfact> 0.22127498E+04</totfact>
</mgrwt>
</event>
<event>
 6    1  0.6377696E-002  0.3000000E+03  0.7818608E-02  0.1093470E+00
         21   -1    0    0  501  502  0.00000000000E+00  0.00000000000E+00  0.15535631008E+01  0.15535631008E+01  0.00000000000E+00 0. -1.
         13   -1    0    0    0    0 -0.00000000000E+00 -0.00000000000E+00 -0.10000000000E+04  0.10000000000E+04  0.00000000000E+00 0.  1.
    9000005    2    1    2  501    0 -0.32937461011E+02 -0.10267958883E+02 -0.74063608396E+03  0.74144496001E+03  0.29176271419E+01 0.  0.
         13    1    3    3    0    0 -0.15790405204E+02 -0.63333589701E+01 -0.35213569430E+03  0.35254644450E+03  0.00000000000E+00 0.  1.
          3    1    3    3  501    0 -0.17147055807E+02 -0.39345999126E+01 -0.38850038966E+03  0.38889851551E+03  0.00000000000E+00 0.  1.
         -3    1    1    2    0  502  0.32937461011E+02  0.10267958883E+02 -0.25781035294E+03  0.26010860309E+03  0.00000000000E+00 0. -1.
<mgrwt>
<rscale>  1 0.30000000E+03</rscale>
<asrwt>0</asrwt>
<pdfrwt beam="1">  1       21 0.56493323E-02 0.30000000E+03</pdfrwt>
<pdfrwt beam="2">0</pdfrwt>
<totfact> 0.23374261E+04</totfact>
</mgrwt>
</event>
<event>
 6    1  0.6377696E-002  0.3000000E+03  0.7818608E-02  0.1093470E+00
         21   -1    0    0  501  502  0.00000000000E+00  0.00000000000E+00  0.95907176038E+00  0.95907176038E+00  0.00000000000E+00 0. -1.
         13   -1    0    0    0    0 -0.00000000000E+00 -0.00000000000E+00 -0.10000000000E+04  0.10000000000E+04  0.00000000000E+00 0.  1.
    9000005    2    1    2  501    0  0.42742382802E+01 -0.30300895596E+02 -0.56512892097E+03  0.56596936678E+03  0.37700701531E+01 0.  0.
         13    1    3    3    0    0  0.19669659083E+01 -0.23716535591E+02 -0.45089537804E+03  0.45152296172E+03  0.00000000000E+00 0.  1.
          1    1    3    3  501    0  0.23072723719E+01 -0.65843600058E+01 -0.11423354293E+03  0.11444640507E+03  0.00000000000E+00 0.  1.
         -1    1    1    2    0  502 -0.42742382802E+01  0.30300895596E+02 -0.43391200727E+03  0.43498970498E+03  0.00000000000E+00 0. -1.
<mgrwt>
<rscale>  1 0.30000000E+03</rscale>
<asrwt>0</asrwt>
<pdfrwt beam="1">  1       21 0.34875410E-02 0.30000000E+03</pdfrwt>
<pdfrwt beam="2">0</pdfrwt>
<totfact> 0.52931894E+04</totfact>
</mgrwt>
</event>
<event>
 6    1  0.6377696E-002  0.3000000E+03  0.7818608E-02  0.1093470E+00
         21   -1    0    0  501  502  0.00000000000E+00  0.00000000000E+00  0.10067084137E+01  0.10067084137E+01  0.00000000000E+00 0. -1.
         13   -1    0    0    0    0 -0.00000000000E+00 -0.00000000000E+00 -0.10000000000E+04  0.10000000000E+04  0.00000000000E+00 0.  1.
    9000005    2    1    2  501    0 -0.29467644852E+02  0.90430248700E+01 -0.38640631965E+03  0.38764472999E+03  0.29110874789E+01 0.  0.
         13    1    3    3    0    0 -0.23209696911E+02  0.83020405914E+01 -0.31156296486E+03  0.31253654984E+03  0.00000000000E+00 0.  1.
          3    1    3    3  501    0 -0.62579479401E+01  0.74098427862E+00 -0.74843354789E+02  0.75108180155E+02  0.00000000000E+00 0.  1.
         -3    1    1    2    0  502  0.29467644852E+02 -0.90430248700E+01 -0.61258697193E+03  0.61336197842E+03  0.00000000000E+00 0. -1.
<mgrwt>
<rscale>  1 0.30000000E+03</rscale>
<asrwt>0</asrwt>
<pdfrwt beam="1">  1       21 0.36607656E-02 0.30000000E+03</pdfrwt>
<pdfrwt beam="2">0</pdfrwt>
<totfact> 0.48800718E+04</totfact>
</mgrwt>
</event>
<event>
 6    1  0.6377696E-002  0.3000000E+03  0.7818608E-02  0.1093470E+00
         21   -1    0    0  501  502  0.00000000000E+00  0.00000000000E+00  0.16631445267E+01  0.16631445267E+01  0.00000000000E+00 0. -1.
         13   -1    0    0    0    0 -0.00000000000E+00 -0.00000000000E+00 -0.10000000000E+04  0.10000000000E+04  0.00000000000E+00 0.  1.
    9000005    2    1    2  501    0  0.28579124149E+02 -0.26917329734E+02 -0.36831986652E+03  0.37042411266E+03  0.36318304580E+01 0.  0.
         13    1    3    3    0    0  0.39915056124E+01 -0.54546417745E+01 -0.68890822501E+02  0.69221605433E+02  0.00000000000E+00 0.  1.
          1    1    3    3  501    0  0.24587618536E+02 -0.21462687959E+02 -0.29942904402E+03  0.30120250723E+03  0.00000000000E+00 0.  1.
         -1    1    1    2    0  502 -0.28579124149E+02  0.26917329734E+02 -0.63001698895E+03  0.63123903186E+03  0.00000000000E+00 0. -1.
<mgrwt>
<rscale>  1 0.30000000E+03</rscale>
<asrwt>0</asrwt>
<pdfrwt beam="1">  1       21 0.60478110E-02 0.30000000E+03</pdfrwt>
<pdfrwt beam="2">0</pdfrwt>
<totfact> 0.20785149E+04</totfact>
</mgrwt>
</event>
<event>
 6    1  0.6377696E-002  0.3000000E+03  0.7818608E-02  0.1093470E+00
         21   -1    0    0  501  502  0.00000000000E+00  0.00000000000E+00  0.16057911521E+01  0.16057911521E+01  0.00000000000E+00 0. -1.
         13   -1    0    0    0    0 -0.00000000000E+00 -0.00000000000E+00 -0.10000000000E+04  0.10000000000E+04  0.00000000000E+00 0.  1.
    9000005    2    1    2  501    0 -0.34992371649E+02 -0.56737761696E+01 -0.26822528886E+03  0.27057685224E+03  0.32201824185E+01 0.  0.
         13    1    3    3    0    0 -0.20040161692E+02 -0.21480761328E+01 -0.16100638312E+03  0.16226298937E+03  0.00000000000E+00 0.  1.
          3    1    3    3  501    0 -0.14952209957E+02 -0.35257000368E+01 -0.10721890573E+03  0.10831386287E+03  0.00000000000E+00 0.  1.
         -1    1    1    2    0  502  0.34992371649E+02  0.56737761696E+01 -0.73016891999E+03  0.73102893892E+03  0.00000000000E+00 0. -1.
<mgrwt>
<rscale>  1 0.30000000E+03</rscale>
<asrwt>0</asrwt>
<pdfrwt beam="1">  1       21 0.58392529E-02 0.30000000E+03</pdfrwt>
<pdfrwt beam="2">0</pdfrwt>
<totfact> 0.22081513E+04</totfact>
</mgrwt>
</event>
<event>
 6    1  0.6377696E-002  0.3000000E+03  0.7818608E-02  0.1093470E+00
         21   -1    0    0  501  502  0.00000000000E+00  0.00000000000E+00  0.17810015168E+01  0.17810015168E+01  0.00000000000E+00 0. -1.
         13   -1    0    0    0    0 -0.00000000000E+00 -0.00000000000E+00 -0.10000000000E+04  0.10000000000E+04  0.00000000000E+00 0.  1.
    9000005    2    1    2  501    0 -0.33645045559E+02 -0.22065987992E+02 -0.64463112403E+03  0.64591124742E+03  0.57581738233E+01 0.  0.
         13    1    3    3    0    0 -0.39344688876E+01 -0.42957162588E+01 -0.72475449174E+02  0.72709173813E+02  0.00000000000E+00 0.  1.
          3    1    3    3  501    0 -0.29710576672E+02 -0.17770271733E+02 -0.57215567485E+03  0.57320207361E+03  0.00000000000E+00 0.  1.
         -3    1    1    2    0  502  0.33645045559E+02  0.22065987992E+02 -0.35358787446E+03  0.35586975409E+03  0.00000000000E+00 0. -1.
<mgrwt>
<rscale>  1 0.30000000E+03</rscale>
<asrwt>0</asrwt>
<pdfrwt beam="1">  1       21 0.64763828E-02 0.30000000E+03</pdfrwt>
<pdfrwt beam="2">0</pdfrwt>
<totfact> 0.18466046E+04</totfact>
</mgrwt>
</event>
<event>
 6    1  0.6377696E-002  0.3000000E+03  0.7818608E-02  0.1093470E+00
         21   -1    0    0  501  502  0.00000000000E+00  0.00000000000E+00  0.18382331270E+01  0.18382331270E+01  0.00000000000E+00 0. -1.
         13   -1    0    0    0    0 -0.00000000000E+00 -0.00000000000E+00 -0.10000000000E+04  0.10000000000E+04  0.00000000000E+00 0.  1.
    9000005    2    1    2  501    0  0.85037206888E+01  0.38536325859E+02 -0.30394707878E+03  0.30650277823E+03  0.16627345143E+01 0.  0.
         13    1    3    3    0    0  0.46438867255E+00  0.10648053768E+01 -0.77241624296E+01  0.78110276257E+01  0.00000000000E+00 0.  1.
          1    1    3    3  501    0  0.80393320163E+01  0.37471520482E+02 -0.29622291635E+03  0.29869175060E+03  0.00000000000E+00 0.  1.
         -3    1    1    2    0  502 -0.85037206888E+01 -0.38536325859E+02 -0.69421468809E+03  0.69533545490E+03  0.00000000000E+00 0. -1.
<mgrwt>
<rscale>  1 0.30000000E+03</rscale>
<asrwt>0</asrwt>
<pdfrwt beam="1">  1       21 0.66844982E-02 0.30000000E+03</pdfrwt>
<pdfrwt beam="2">0</pdfrwt>
<totfact> 0.17481278E+04</totfact>
</mgrwt>
</event>
<event>
 6    1  0.6377696E-002  0.3000000E+03  0.7818608E-02  0.1093470E+00
         21   -1    0    0  501  502  0.00000000000E+00  0.00000000000E+00  0.53930516086E+01  0.53930516086E+01  0.00000000000E+00 0. -1.
         13   -1    0    0    0    0 -0.00000000000E+00 -0.00000000000E+00 -0.10000000000E+04  0.10000000000E+04  0.00000000000E+00 0.  1.
    9000005    2    1    2  501    0 -0.51327719784E+02 -0.36287117901E+02 -0.23815896219E+03  0.24633781939E+03  0.33675276318E+01 0.  0.
         13    1    3    3    0    0 -0.28958893884E+02 -0.18590724037E+02 -0.13283803384E+03  0.13722308767E+03  0.00000000000E+00 0.  1.
          3    1    3    3  501    0 -0.22368825899E+02 -0.17696393865E+02 -0.10532092835E+03  0.10911473171E+03  0.00000000000E+00 0.  1.
         -3    1    1    2    0  502  0.51327719784E+02  0.36287117901E+02 -0.75644798620E+03  0.75905523222E+03  0.00000000000E+00 0. -1.
<mgrwt>
<rscale>  1 0.30000000E+03</rscale>
<asrwt>0</asrwt>
<pdfrwt beam="1">  1       21 0.19611138E-01 0.30000000E+03</pdfrwt>
<pdfrwt beam="2">0</pdfrwt>
<totfact> 0.24907220E+03</totfact>
</mgrwt>
</event>
<event>
 6    1  0.6377696E-002  0.3000000E+03  0.7818608E-02  0.1093470E+00
         21   -1    0    0  501  502  0.00000000000E+00  0.00000000000E+00  0.18722218984E+01  0.18722218984E+01  0.00000000000E+00 0. -1.
         13   -1    0    0    0    0 -0.00000000000E+00 -0.00000000000E+00 -0.10000000000E+04  0.10000000000E+04  0.00000000000E+00 0.  1.
    9000005    2    1    2  501    0  0.39426735218E+02 -0.10179601940E+02 -0.33234628401E+03  0.33484666795E+03  0.31854036137E+01 0.  0.
         13    1    3    3    0    0  0.37501263465E+02 -0.10343382071E+02 -0.31496072021E+03  0.31735403824E+03  0.00000000000E+00 0.  1.
          3    1    3    3  501    0  0.19254717536E+01  0.16378013049E+00 -0.17385563805E+02  0.17492629712E+02  0.00000000000E+00 0.  1.
         -1    1    1    2    0  502 -0.39426735218E+02  0.10179601940E+02 -0.66578149409E+03  0.66702555395E+03  0.00000000000E+00 0. -1.
<mgrwt>
<rscale>  1 0.30000000E+03</rscale>
<asrwt>0</asrwt>
<pdfrwt beam="1">  1       21 0.68080940E-02 0.30000000E+03</pdfrwt>
<pdfrwt beam="2">0</pdfrwt>
<totfact> 0.16934177E+04</totfact>
</mgrwt>
</event>
<event>
 6    1  0.6377696E-002  0.3000000E+03  0.7818608E-02  0.1093470E+00
         21   -1    0    0  501  502  0.00000000000E+00  0.00000000000E+00  0.11018406607E+01  0.11018406607E+01  0.00000000000E+00 0. -1.
         13   -1    0    0    0    0 -0.00000000000E+00 -0.00000000000E+00 -0.10000000000E+04  0.10000000000E+04  0.00000000000E+00 0.  1.
    9000005    2    1    2  501    0 -0.18178168818E+02  0.25541995284E+02 -0.66139103839E+03  0.66214181937E+03  0.32930147013E+01 0.  0.
         13    1    3    3    0    0 -0.94212204556E+01  0.11138180985E+02 -0.28380313935E+03  0.28417783230E+03  0.00000000000E+00 0.  1.
          3    1    3    3  501    0 -0.87569483622E+01  0.14403814299E+02 -0.37758789904E+03  0.37796398706E+03  0.00000000000E+00 0.  1.
         -1    1    1    2    0  502  0.18178168818E+02 -0.25541995284E+02 -0.33750712095E+03  0.33896002129E+03  0.00000000000E+00 0. -1.
<mgrwt>
<rscale>  1 0.30000000E+03</rscale>
<asrwt>0</asrwt>
<pdfrwt beam="1">  1       21 0.40067018E-02 0.30000000E+03</pdfrwt>
<pdfrwt beam="2">0</pdfrwt>
<totfact> 0.41928948E+04</totfact>
</mgrwt>
</event>
<event>
 6    1  0.6377696E-002  0.3000000E+03  0.7818608E-02  0.1093470E+00
         21   -1    0    0  501  502  0.00000000000E+00  0.00000000000E+00  0.17929137024E+01  0.17929137024E+01  0.00000000000E+00 0. -1.
         13   -1    0    0    0    0 -0.00000000000E+00 -0.00000000000E+00 -0.10000000000E+04  0.10000000000E+04  0.00000000000E+00 0.  1.
    9000005    2    1    2  501    0 -0.23338331480E+02 -0.26240043440E+02 -0.22126501140E+03  0.22405760825E+03  0.32231894537E+01 0.  0.
         13    1    3    3    0    0 -0.20399683581E+02 -0.21481289931E+02 -0.19018134716E+03  0.19247477163E+03  0.00000000000E+00 0.  1.
          1    1    3    3  501    0 -0.29386478989E+01 -0.47587535085E+01 -0.31083664239E+02  0.31582836620E+02  0.00000000000E+00 0.  1.
         -3    1    1    2    0  502  0.23338331480E+02  0.26240043440E+02 -0.77694207490E+03  0.77773530545E+03  0.00000000000E+00 0. -1.
<mgrwt>
<rscale>  1 0.30000000E+03</rscale>
<asrwt>0</asrwt>
<pdfrwt beam="1">  1       21 0.65196999E-02 0.30000000E+03</pdfrwt>
<pdfrwt beam="2">0</pdfrwt>
<totfact> 0.18254143E+04</totfact>
</mgrwt>
</event>
<event>
 6    1  0.6377696E-002  0.3000000E+03  0.7818608E-02  0.1093470E+00
         21   -1    0    0  501  502  0.00000000000E+00  0.00000000000E+00  0.96816271554E+00  0.96816271554E+00  0.00000000000E+00 0. -1.
         13   -1    0    0    0    0 -0.00000000000E+00 -0.00000000000E+00 -0.10000000000E+04  0.10000000000E+04  0.00000000000E+00 0.  1.
    9000005    2    1    2  501    0  0.68633130364E-01  0.30452039427E+02 -0.41705576206E+03  0.41819592286E+03  0.49989810155E+01 0.  0.
         13    1    3    3    0    0  0.23813882459E+01  0.20134937838E+02 -0.26869705248E+03  0.26946092990E+03  0.00000000000E+00 0.  1.
          1    1    3    3  501    0 -0.23127551155E+01  0.10317101589E+02 -0.14835870959E+03  0.14873499296E+03  0.00000000000E+00 0.  1.
         -3    1    1    2    0  502 -0.68633130364E-01 -0.30452039427E+02 -0.58197607522E+03  0.58277223985E+03  0.00000000000E+00 0. -1.
<mgrwt>
<rscale>  1 0.30000000E+03</rscale>
<asrwt>0</asrwt>
<pdfrwt beam="1">  1       21 0.35205991E-02 0.30000000E+03</pdfrwt>
<pdfrwt beam="2">0</pdfrwt>
<totfact> 0.52102209E+04</totfact>
</mgrwt>
</event>
<event>
 6    1  0.6377696E-002  0.3000000E+03  0.7818608E-02  0.1093470E+00
         21   -1    0    0  501  502  0.00000000000E+00  0.00000000000E+00  0.98869848211E+00  0.98869848211E+00  0.00000000000E+00 0. -1.
         13   -1    0    0    0    0 -0.00000000000E+00 -0.00000000000E+00 -0.10000000000E+04  0.10000000000E+04  0.00000000000E+00 0.  1.
    9000005    2    1    2  501    0 -0.54184419224E+01  0.29972006740E+02 -0.38331898928E+03  0.38454348271E+03  0.35442700674E+01 0.  0.
         13    1    3    3    0    0 -0.75352003863E+00  0.11163439358E+01 -0.11871244900E+02  0.11947404392E+02  0.00000000000E+00 0.  1.
          3    1    3    3  501    0 -0.46649218838E+01  0.28855662804E+02 -0.37144774438E+03  0.37259607832E+03  0.00000000000E+00 0.  1.
         -1    1    1    2    0  502  0.54184419224E+01 -0.29972006740E+02 -0.61569231223E+03  0.61644521577E+03  0.00000000000E+00 0. -1.
<mgrwt>
<rscale>  1 0.30000000E+03</rscale>
<asrwt>0</asrwt>
<pdfrwt beam="1">  1       21 0.35952748E-02 0.30000000E+03</pdfrwt>
<pdfrwt beam="2">0</pdfrwt>
<totfact> 0.50300977E+04</totfact>
</mgrwt>
</event>
<event>
 6    1  0.6377696E-002  0.3000000E+03  0.7818608E-02  0.1093470E+00
         21   -1    0    0  501  502  0.00000000000E+00  0.00000000000E+00  0.10595053023E+01  0.10595053023E+01  0.00000000000E+00 0. -1.
         13   -1    0    0    0    0 -0.00000000000E+00 -0.00000000000E+00 -0.10000000000E+04  0.10000000000E+04  0.00000000000E+00 0.  1.
    9000005    2    1    2  501    0 -0.25607043048E+02  0.17745987254E+02 -0.63901933401E+03  0.63979245363E+03  0.42466173523E+01 0.  0.
         13    1    3    3    0    0 -0.24908424823E+01  0.17359711173E+01 -0.40912293414E+02  0.41024793045E+02  0.00000000000E+00 0.  1.
          3    1    3    3  501    0 -0.23116200566E+02  0.16010016136E+02 -0.59810704060E+03  0.59876766058E+03  0.00000000000E+00 0.  1.
         -1    1    1    2    0  502  0.25607043048E+02 -0.17745987254E+02 -0.35992116068E+03  0.36126705167E+03  0.00000000000E+00 0. -1.
<mgrwt>
<rscale>  1 0.30000000E+03</rscale>
<asrwt>0</asrwt>
<pdfrwt beam="1">  1       21 0.38527547E-02 0.30000000E+03</pdfrwt>
<pdfrwt beam="2">0</pdfrwt>
<totfact> 0.44786216E+04</totfact>
</mgrwt>
</event>
<event>
 6    1  0.6377696E-002  0.3000000E+03  0.7818608E-02  0.1093470E+00
         21   -1    0    0  501  502  0.00000000000E+00  0.00000000000E+00  0.23264084294E+01  0.23264084294E+01  0.00000000000E+00 0. -1.
         13   -1    0    0    0    0 -0.00000000000E+00 -0.00000000000E+00 -0.10000000000E+04  0.10000000000E+04  0.00000000000E+00 0.  1.
    9000005    2    1    2  501    0 -0.40979079371E+02  0.19715571231E+02 -0.34707554474E+03  0.35014099980E+03  0.83244991568E+01 0.  0.
         13    1    3    3    0    0 -0.29493644530E+02  0.17393922519E+02 -0.24101254648E+03  0.24343268303E+03  0.00000000000E+00 0.  1.
          1    1    3    3  501    0 -0.11485434840E+02  0.23216487126E+01 -0.10606299826E+03  0.10670831677E+03  0.00000000000E+00 0.  1.
         -1    1    1    2    0  502  0.40979079371E+02 -0.19715571231E+02 -0.65059804683E+03  0.65218540863E+03  0.00000000000E+00 0. -1.
<mgrwt>
<rscale>  1 0.30000000E+03</rscale>
<asrwt>0</asrwt>
<pdfrwt beam="1">  1       21 0.84596849E-02 0.30000000E+03</pdfrwt>
<pdfrwt beam="2">0</pdfrwt>
<totfact> 0.11577903E+04</totfact>
</mgrwt>
</event>
<event>
 6    1  0.6377696E-002  0.3000000E+03  0.7818608E-02  0.1093470E+00
         21   -1    0    0  501  502  0.00000000000E+00  0.00000000000E+00  0.14063970977E+01  0.14063970977E+01  0.00000000000E+00 0. -1.
         13   -1    0    0    0    0 -0.00000000000E+00 -0.00000000000E+00 -0.10000000000E+04  0.10000000000E+04  0.00000000000E+00 0.  1.
    9000005    2    1    2  501    0 -0.30801496087E+02  0.12847288692E+02 -0.72635016351E+03  0.72712501734E+03  0.35278644202E+01 0.  0.
         13    1    3    3    0    0 -0.22255687995E+02  0.75332999983E+01 -0.50833053883E+03  0.50887326808E+03  0.00000000000E+00 0.  1.
          1    1    3    3  501    0 -0.85458080923E+01  0.53139886932E+01 -0.21801962467E+03  0.21825174926E+03  0.00000000000E+00 0.  1.
         -3    1    1    2    0  502  0.30801496087E+02 -0.12847288692E+02 -0.27224343940E+03  0.27428137976E+03  0.00000000000E+00 0. -1.
<mgrwt>
<rscale>  1 0.30000000E+03</rscale>
<asrwt>0</asrwt>
<pdfrwt beam="1">  1       21 0.51141820E-02 0.30000000E+03</pdfrwt>
<pdfrwt beam="2">0</pdfrwt>
<totfact> 0.27716361E+04</totfact>
</mgrwt>
</event>
<event>
 6    1  0.6377696E-002  0.3000000E+03  0.7818608E-02  0.1093470E+00
         21   -1    0    0  501  502  0.00000000000E+00  0.00000000000E+00  0.10102676241E+01  0.10102676241E+01  0.00000000000E+00 0. -1.
         13   -1    0    0    0    0 -0.00000000000E+00 -0.00000000000E+00 -0.10000000000E+04  0.10000000000E+04  0.00000000000E+00 0.  1.
    9000005    2    1    2  501    0 -0.31537883174E+02 -0.10398388366E+01 -0.54615107531E+03  0.54707352239E+03  0.35668611734E+01 0.  0.
         13    1    3    3    0    0 -0.99528641699E+01 -0.11300634256E+01 -0.14902560782E+03  0.14936187042E+03  0.00000000000E+00 0.  1.
          3    1    3    3  501    0 -0.21585019004E+02  0.90224588993E-01 -0.39712546749E+03  0.39771165197E+03  0.00000000000E+00 0.  1.
         -3    1    1    2    0  502  0.31537883174E+02  0.10398388366E+01 -0.45283865706E+03  0.45393674523E+03  0.00000000000E+00 0. -1.
<mgrwt>
<rscale>  1 0.30000000E+03</rscale>
<asrwt>0</asrwt>
<pdfrwt beam="1">  1       21 0.36737082E-02 0.30000000E+03</pdfrwt>
<pdfrwt beam="2">0</pdfrwt>
<totfact> 0.48512579E+04</totfact>
</mgrwt>
</event>
<event>
 6    1  0.6377696E-002  0.3000000E+03  0.7818608E-02  0.1093470E+00
         21   -1    0    0  501  502  0.00000000000E+00  0.00000000000E+00  0.64550686934E+01  0.64550686934E+01  0.00000000000E+00 0. -1.
         13   -1    0    0    0    0 -0.00000000000E+00 -0.00000000000E+00 -0.10000000000E+04  0.10000000000E+04  0.00000000000E+00 0.  1.
    9000005    2    1    2  501    0 -0.60381589474E+02 -0.39812747280E+02 -0.27832753630E+03  0.28759005124E+03  0.32907321353E+01 0.  0.
         13    1    3    3    0    0 -0.23615530643E+02 -0.17493115111E+02 -0.11373539545E+03  0.11747102852E+03  0.00000000000E+00 0.  1.
          3    1    3    3  501    0 -0.36766058831E+02 -0.22319632168E+02 -0.16459214085E+03  0.17011902272E+03  0.00000000000E+00 0.  1.
         -1    1    1    2    0  502  0.60381589474E+02  0.39812747280E+02 -0.71521739501E+03  0.71886501745E+03  0.00000000000E+00 0. -1.
<mgrwt>
<rscale>  1 0.30000000E+03</rscale>
<asrwt>0</asrwt>
<pdfrwt beam="1">  1       21 0.23473027E-01 0.30000000E+03</pdfrwt>
<pdfrwt beam="2">0</pdfrwt>
<totfact> 0.17633431E+03</totfact>
</mgrwt>
</event>
<event>
 6    1  0.6377696E-002  0.3000000E+03  0.7818608E-02  0.1093470E+00
         21   -1    0    0  501  502  0.00000000000E+00  0.00000000000E+00  0.11017471503E+02  0.11017471503E+02  0.00000000000E+00 0. -1.
         13   -1    0    0    0    0 -0.00000000000E+00 -0.00000000000E+00 -0.10000000000E+04  0.10000000000E+04  0.00000000000E+00 0.  1.
    9000005    2    1    2  501    0 -0.53114033970E+02  0.90153561600E+02 -0.53105751047E+03  0.54128979784E+03  0.48785798655E+01 0.  0.
         13    1    3    3    0    0 -0.18497937816E+02  0.27490159683E+02 -0.17376656839E+03  0.17689743603E+03  0.00000000000E+00 0.  1.
          3    1    3    3  501    0 -0.34616096154E+02  0.62663401917E+02 -0.35729094208E+03  0.36439236181E+03  0.00000000000E+00 0.  1.
         -1    1    1    2    0  502  0.53114033970E+02 -0.90153561600E+02 -0.45792501803E+03  0.46972767367E+03  0.00000000000E+00 0. -1.
<mgrwt>
<rscale>  1 0.30000000E+03</rscale>
<asrwt>0</asrwt>
<pdfrwt beam="1">  1       21 0.40063617E-01 0.30000000E+03</pdfrwt>
<pdfrwt beam="2">0</pdfrwt>
<totfact> 0.60201760E+02</totfact>
</mgrwt>
</event>
<event>
 6    1  0.6377696E-002  0.3000000E+03  0.7818608E-02  0.1093470E+00
         21   -1    0    0  501  502  0.00000000000E+00  0.00000000000E+00  0.20176581060E+01  0.20176581060E+01  0.00000000000E+00 0. -1.
         13   -1    0    0    0    0 -0.00000000000E+00 -0.00000000000E+00 -0.10000000000E+04  0.10000000000E+04  0.00000000000E+00 0.  1.
    9000005    2    1    2  501    0  0.33754552044E+02  0.10802240351E+02 -0.19274641577E+03  0.19600217755E+03  0.31007467848E+01 0.  0.
         13    1    3    3    0    0  0.82857957219E+01  0.14198054709E+01 -0.42370490140E+02  0.43196396759E+02  0.00000000000E+00 0.  1.
          3    1    3    3  501    0  0.25468756322E+02  0.93824348796E+01 -0.15037592563E+03  0.15280578079E+03  0.00000000000E+00 0.  1.
         -1    1    1    2    0  502 -0.33754552044E+02 -0.10802240351E+02 -0.80523592612E+03  0.80601548056E+03  0.00000000000E+00 0. -1.
<mgrwt>
<rscale>  1 0.30000000E+03</rscale>
<asrwt>0</asrwt>
<pdfrwt beam="1">  1       21 0.73369540E-02 0.30000000E+03</pdfrwt>
<pdfrwt beam="2">0</pdfrwt>
<totfact> 0.14865206E+04</totfact>
</mgrwt>
</event>
<event>
 6    1  0.6377696E-002  0.3000000E+03  0.7818608E-02  0.1093470E+00
         21   -1    0    0  501  502  0.00000000000E+00  0.00000000000E+00  0.11097097891E+01  0.11097097891E+01  0.00000000000E+00 0. -1.
         13   -1    0    0    0    0 -0.00000000000E+00 -0.00000000000E+00 -0.10000000000E+04  0.10000000000E+04  0.00000000000E+00 0.  1.
    9000005    2    1    2  501    0  0.10835887975E+02 -0.30381125244E+02 -0.38213368545E+03  0.38351021274E+03  0.36743000558E+01 0.  0.
         13    1    3    3    0    0  0.17607874781E+01 -0.53102213041E+01 -0.51416063381E+02  0.51719535927E+02  0.00000000000E+00 0.  1.
          1    1    3    3  501    0  0.90751004969E+01 -0.25070903939E+02 -0.33071762206E+03  0.33179067681E+03  0.00000000000E+00 0.  1.
         -1    1    1    2    0  502 -0.10835887975E+02  0.30381125244E+02 -0.61675660477E+03  0.61759949705E+03  0.00000000000E+00 0. -1.
<mgrwt>
<rscale>  1 0.30000000E+03</rscale>
<asrwt>0</asrwt>
<pdfrwt beam="1">  1       21 0.40353168E-02 0.30000000E+03</pdfrwt>
<pdfrwt beam="2">0</pdfrwt>
<totfact> 0.41429327E+04</totfact>
</mgrwt>
</event>
<event>
 6    1  0.6377696E-002  0.3000000E+03  0.7818608E-02  0.1093470E+00
         21   -1    0    0  501  502  0.00000000000E+00  0.00000000000E+00  0.11174616058E+01  0.11174616058E+01  0.00000000000E+00 0. -1.
         13   -1    0    0    0    0 -0.00000000000E+00 -0.00000000000E+00 -0.10000000000E+04  0.10000000000E+04  0.00000000000E+00 0.  1.
    9000005    2    1    2  501    0 -0.28620211521E+02 -0.12570237070E+02 -0.67526441919E+03  0.67599315546E+03  0.27537322932E+01 0.  0.
         13    1    3    3    0    0 -0.19996819468E+02 -0.77154465279E+01 -0.47937868885E+03  0.47985761245E+03  0.00000000000E+00 0.  1.
          1    1    3    3  501    0 -0.86233920523E+01 -0.48547905424E+01 -0.19588573034E+03  0.19613554301E+03  0.00000000000E+00 0.  1.
         -3    1    1    2    0  502  0.28620211521E+02  0.12570237070E+02 -0.32361811920E+03  0.32512430614E+03  0.00000000000E+00 0. -1.
<mgrwt>
<rscale>  1 0.30000000E+03</rscale>
<asrwt>0</asrwt>
<pdfrwt beam="1">  1       21 0.40635053E-02 0.30000000E+03</pdfrwt>
<pdfrwt beam="2">0</pdfrwt>
<totfact> 0.40946189E+04</totfact>
</mgrwt>
</event>
<event>
 6    1  0.6377696E-002  0.3000000E+03  0.7818608E-02  0.1093470E+00
         21   -1    0    0  501  502  0.00000000000E+00  0.00000000000E+00  0.11684315284E+01  0.11684315284E+01  0.00000000000E+00 0. -1.
         13   -1    0    0    0    0 -0.00000000000E+00 -0.00000000000E+00 -0.10000000000E+04  0.10000000000E+04  0.00000000000E+00 0.  1.
    9000005    2    1    2  501    0 -0.29842216553E+02 -0.14069499467E+02 -0.62817182037E+03  0.62904324081E+03  0.26559741254E+01 0.  0.
         13    1    3    3    0    0 -0.29503969127E+02 -0.13550983486E+02 -0.61858758354E+03  0.61943902998E+03  0.00000000000E+00 0.  1.
          3    1    3    3  501    0 -0.33824742540E+00 -0.51851598097E+00 -0.95842368302E+01  0.96042108349E+01  0.00000000000E+00 0.  1.
         -1    1    1    2    0  502  0.29842216553E+02  0.14069499467E+02 -0.37065974810E+03  0.37212519072E+03  0.00000000000E+00 0. -1.
<mgrwt>
<rscale>  1 0.30000000E+03</rscale>
<asrwt>0</asrwt>
<pdfrwt beam="1">  1       21 0.42488509E-02 0.30000000E+03</pdfrwt>
<pdfrwt beam="2">0</pdfrwt>
<totfact> 0.37977295E+04</totfact>
</mgrwt>
</event>
<event>
 6    1  0.6377696E-002  0.3000000E+03  0.7818608E-02  0.1093470E+00
         21   -1    0    0  501  502  0.00000000000E+00  0.00000000000E+00  0.10026427213E+01  0.10026427213E+01  0.00000000000E+00 0. -1.
         13   -1    0    0    0    0 -0.00000000000E+00 -0.00000000000E+00 -0.10000000000E+04  0.10000000000E+04  0.00000000000E+00 0.  1.
    9000005    2    1    2  501    0 -0.20298380003E+02 -0.22103314823E+02 -0.35259481748E+03  0.35390386802E+03  0.49256199137E+01 0.  0.
         13    1    3    3    0    0 -0.35456723050E+01 -0.39244976003E+01 -0.87175717681E+02  0.87336013343E+02  0.00000000000E+00 0.  1.
          1    1    3    3  501    0 -0.16752707698E+02 -0.18178817222E+02 -0.26541909980E+03  0.26656785468E+03  0.00000000000E+00 0.  1.
         -3    1    1    2    0  502  0.20298380003E+02  0.22103314823E+02 -0.64640253980E+03  0.64709877470E+03  0.00000000000E+00 0. -1.
<mgrwt>
<rscale>  1 0.30000000E+03</rscale>
<asrwt>0</asrwt>
<pdfrwt beam="1">  1       21 0.36459812E-02 0.30000000E+03</pdfrwt>
<pdfrwt beam="2">0</pdfrwt>
<totfact> 0.49133174E+04</totfact>
</mgrwt>
</event>
<event>
 6    1  0.6377696E-002  0.3000000E+03  0.7818608E-02  0.1093470E+00
         21   -1    0    0  501  502  0.00000000000E+00  0.00000000000E+00  0.11091873119E+01  0.11091873119E+01  0.00000000000E+00 0. -1.
         13   -1    0    0    0    0 -0.00000000000E+00 -0.00000000000E+00 -0.10000000000E+04  0.10000000000E+04  0.00000000000E+00 0.  1.
    9000005    2    1    2  501    0  0.22112879990E+02 -0.21395363730E+02 -0.68797492394E+03  0.68867450466E+03  0.40418240510E+01 0.  0.
         13    1    3    3    0    0  0.12813996712E+02 -0.12542830552E+02 -0.35577261573E+03  0.35622419235E+03  0.00000000000E+00 0.  1.
          1    1    3    3  501    0  0.92988832775E+01 -0.88525331779E+01 -0.33220230821E+03  0.33245031231E+03  0.00000000000E+00 0.  1.
         -1    1    1    2    0  502 -0.22112879990E+02  0.21395363730E+02 -0.31091588874E+03  0.31243468265E+03  0.00000000000E+00 0. -1.
<mgrwt>
<rscale>  1 0.30000000E+03</rscale>
<asrwt>0</asrwt>
<pdfrwt beam="1">  1       21 0.40334169E-02 0.30000000E+03</pdfrwt>
<pdfrwt beam="2">0</pdfrwt>
<totfact> 0.41462210E+04</totfact>
</mgrwt>
</event>
<event>
 6    1  0.6377696E-002  0.3000000E+03  0.7818608E-02  0.1093470E+00
         21   -1    0    0  501  502  0.00000000000E+00  0.00000000000E+00  0.17584620787E+01  0.17584620787E+01  0.00000000000E+00 0. -1.
         13   -1    0    0    0    0 -0.00000000000E+00 -0.00000000000E+00 -0.10000000000E+04  0.10000000000E+04  0.00000000000E+00 0.  1.
    9000005    2    1    2  501    0  0.18059428762E+02  0.27938446260E+02 -0.19649519468E+03  0.19932223493E+03  0.35060029771E+01 0.  0.
         13    1    3    3    0    0  0.40378032075E+01  0.39341785334E+01 -0.30999500419E+02  0.31507945692E+02  0.00000000000E+00 0.  1.
          3    1    3    3  501    0  0.14021625554E+02  0.24004267726E+02 -0.16549569426E+03  0.16781428924E+03  0.00000000000E+00 0.  1.
         -3    1    1    2    0  502 -0.18059428762E+02 -0.27938446260E+02 -0.80174634324E+03  0.80243622715E+03  0.00000000000E+00 0. -1.
<mgrwt>
<rscale>  1 0.30000000E+03</rscale>
<asrwt>0</asrwt>
<pdfrwt beam="1">  1       21 0.63944210E-02 0.30000000E+03</pdfrwt>
<pdfrwt beam="2">0</pdfrwt>
<totfact> 0.18877533E+04</totfact>
</mgrwt>
</event>
<event>
 6    1  0.6377696E-002  0.3000000E+03  0.7818608E-02  0.1093470E+00
         21   -1    0    0  501  502  0.00000000000E+00  0.00000000000E+00  0.91936344140E+00  0.91936344140E+00  0.00000000000E+00 0. -1.
         13   -1    0    0    0    0 -0.00000000000E+00 -0.00000000000E+00 -0.10000000000E+04  0.10000000000E+04  0.00000000000E+00 0.  1.
    9000005    2    1    2  501    0  0.26984133385E+02  0.13538577400E+02 -0.48288522015E+03  0.48384186011E+03  0.36569414340E+01 0.  0.
         13    1    3    3    0    0  0.10816824330E+02  0.36890563609E+01 -0.19551572069E+03  0.19584945714E+03  0.00000000000E+00 0.  1.
          1    1    3    3  501    0  0.16167309055E+02  0.98495210386E+01 -0.28736949946E+03  0.28799240297E+03  0.00000000000E+00 0.  1.
         -3    1    1    2    0  502 -0.26984133385E+02 -0.13538577400E+02 -0.51619541640E+03  0.51707750333E+03  0.00000000000E+00 0. -1.
<mgrwt>
<rscale>  1 0.30000000E+03</rscale>
<asrwt>0</asrwt>
<pdfrwt beam="1">  1       21 0.33431468E-02 0.30000000E+03</pdfrwt>
<pdfrwt beam="2">0</pdfrwt>
<totfact> 0.56808688E+04</totfact>
</mgrwt>
</event>
<event>
 6    1  0.6377696E-002  0.3000000E+03  0.7818608E-02  0.1093470E+00
         21   -1    0    0  501  502  0.00000000000E+00  0.00000000000E+00  0.11904377022E+01  0.11904377022E+01  0.00000000000E+00 0. -1.
         13   -1    0    0    0    0 -0.00000000000E+00 -0.00000000000E+00 -0.10000000000E+04  0.10000000000E+04  0.00000000000E+00 0.  1.
    9000005    2    1    2  501    0 -0.26037391278E+02 -0.20524508301E+02 -0.63520184288E+03  0.63607432630E+03  0.31569279191E+01 0.  0.
         13    1    3    3    0    0 -0.44534727203E+01 -0.49732870386E+01 -0.11773324556E+03  0.11792236477E+03  0.00000000000E+00 0.  1.
          1    1    3    3  501    0 -0.21583918557E+02 -0.15551221263E+02 -0.51746859732E+03  0.51815196153E+03  0.00000000000E+00 0.  1.
         -1    1    1    2    0  502  0.26037391278E+02  0.20524508301E+02 -0.36360771942E+03  0.36511611140E+03  0.00000000000E+00 0. -1.
<mgrwt>
<rscale>  1 0.30000000E+03</rscale>
<asrwt>0</asrwt>
<pdfrwt beam="1">  1       21 0.43288735E-02 0.30000000E+03</pdfrwt>
<pdfrwt beam="2">0</pdfrwt>
<totfact> 0.36797800E+04</totfact>
</mgrwt>
</event>
<event>
 6    1  0.6377696E-002  0.3000000E+03  0.7818608E-02  0.1093470E+00
         21   -1    0    0  501  502  0.00000000000E+00  0.00000000000E+00  0.15592237965E+01  0.15592237965E+01  0.00000000000E+00 0. -1.
         13   -1    0    0    0    0 -0.00000000000E+00 -0.00000000000E+00 -0.10000000000E+04  0.10000000000E+04  0.00000000000E+00 0.  1.
    9000005    2    1    2  501    0 -0.38158979958E+02 -0.63167338903E+01 -0.40435872702E+03  0.40621941324E+03  0.34960967517E+01 0.  0.
         13    1    3    3    0    0 -0.17114698423E+02 -0.42741016284E+01 -0.19447829307E+03  0.19527669426E+03  0.00000000000E+00 0.  1.
          3    1    3    3  501    0 -0.21044281535E+02 -0.20426322619E+01 -0.20988043396E+03  0.21094271898E+03  0.00000000000E+00 0.  1.
         -3    1    1    2    0  502  0.38158979958E+02  0.63167338903E+01 -0.59408204918E+03  0.59533981056E+03  0.00000000000E+00 0. -1.
<mgrwt>
<rscale>  1 0.30000000E+03</rscale>
<asrwt>0</asrwt>
<pdfrwt beam="1">  1       21 0.56699167E-02 0.30000000E+03</pdfrwt>
<pdfrwt beam="2">0</pdfrwt>
<totfact> 0.23228620E+04</totfact>
</mgrwt>
</event>
<event>
 6    1  0.6377696E-002  0.3000000E+03  0.7818608E-02  0.1093470E+00
         21   -1    0    0  501  502  0.00000000000E+00  0.00000000000E+00  0.13163970707E+01  0.13163970707E+01  0.00000000000E+00 0. -1.
         13   -1    0    0    0    0 -0.00000000000E+00 -0.00000000000E+00 -0.10000000000E+04  0.10000000000E+04  0.00000000000E+00 0.  1.
    9000005    2    1    2  501    0 -0.19035474789E+01  0.36124392430E+02 -0.51488720171E+03  0.51616945741E+03  0.36719293581E+01 0.  0.
         13    1    3    3    0    0 -0.25486238627E+01  0.34682200812E+02 -0.49415948813E+03  0.49538162082E+03  0.00000000000E+00 0.  1.
          1    1    3    3  501    0  0.64507638379E+00  0.14421916182E+01 -0.20727713579E+02  0.20787836598E+02  0.00000000000E+00 0.  1.
         -1    1    1    2    0  502  0.19035474789E+01 -0.36124392430E+02 -0.48379640122E+03  0.48514693966E+03  0.00000000000E+00 0. -1.
<mgrwt>
<rscale>  1 0.30000000E+03</rscale>
<asrwt>0</asrwt>
<pdfrwt beam="1">  1       21 0.47869085E-02 0.30000000E+03</pdfrwt>
<pdfrwt beam="2">0</pdfrwt>
<totfact> 0.31022369E+04</totfact>
</mgrwt>
</event>
<event>
 6    1  0.6377696E-002  0.3000000E+03  0.7818608E-02  0.1093470E+00
         21   -1    0    0  501  502  0.00000000000E+00  0.00000000000E+00  0.47380985848E+01  0.47380985848E+01  0.00000000000E+00 0. -1.
         13   -1    0    0    0    0 -0.00000000000E+00 -0.00000000000E+00 -0.10000000000E+04  0.10000000000E+04  0.00000000000E+00 0.  1.
    9000005    2    1    2  501    0 -0.32919860859E+02 -0.39529589225E+02 -0.16438942661E+03  0.17227466092E+03  0.28930174453E+01 0.  0.
         13    1    3    3    0    0 -0.19949387109E+02 -0.25055177036E+02 -0.10631421091E+03  0.11103355972E+03  0.00000000000E+00 0.  1.
          1    1    3    3  501    0 -0.12970473750E+02 -0.14474412189E+02 -0.58075215694E+02  0.61241101194E+02  0.00000000000E+00 0.  1.
         -3    1    1    2    0  502  0.32919860859E+02  0.39529589225E+02 -0.83087247481E+03  0.83246343767E+03  0.00000000000E+00 0. -1.
<mgrwt>
<rscale>  1 0.30000000E+03</rscale>
<asrwt>0</asrwt>
<pdfrwt beam="1">  1       21 0.17229486E-01 0.30000000E+03</pdfrwt>
<pdfrwt beam="2">0</pdfrwt>
<totfact> 0.31805826E+03</totfact>
</mgrwt>
</event>
<event>
 6    1  0.6377696E-002  0.3000000E+03  0.7818608E-02  0.1093470E+00
         21   -1    0    0  501  502  0.00000000000E+00  0.00000000000E+00  0.24345180854E+01  0.24345180854E+01  0.00000000000E+00 0. -1.
         13   -1    0    0    0    0 -0.00000000000E+00 -0.00000000000E+00 -0.10000000000E+04  0.10000000000E+04  0.00000000000E+00 0.  1.
    9000005    2    1    2  501    0 -0.34553243488E+02 -0.45655103052E+01 -0.14491212673E+03  0.14906911298E+03  0.27028599499E+01 0.  0.
         13    1    3    3    0    0 -0.13828698786E+02 -0.90009896078E+00 -0.53525661708E+02  0.55290501441E+02  0.00000000000E+00 0.  1.
          1    1    3    3  501    0 -0.20724544701E+02 -0.36654113444E+01 -0.91386465019E+02  0.93778611538E+02  0.00000000000E+00 0.  1.
         -3    1    1    2    0  502  0.34553243488E+02  0.45655103052E+01 -0.85265335519E+03  0.85336540511E+03  0.00000000000E+00 0. -1.
<mgrwt>
<rscale>  1 0.30000000E+03</rscale>
<asrwt>0</asrwt>
<pdfrwt beam="1">  1       21 0.88528117E-02 0.30000000E+03</pdfrwt>
<pdfrwt beam="2">0</pdfrwt>
<totfact> 0.10685514E+04</totfact>
</mgrwt>
</event>
<event>
 6    1  0.6377696E-002  0.3000000E+03  0.7818608E-02  0.1093470E+00
         21   -1    0    0  501  502  0.00000000000E+00  0.00000000000E+00  0.28376454006E+01  0.28376454006E+01  0.00000000000E+00 0. -1.
         13   -1    0    0    0    0 -0.00000000000E+00 -0.00000000000E+00 -0.10000000000E+04  0.10000000000E+04  0.00000000000E+00 0.  1.
    9000005    2    1    2  501    0 -0.30226857069E+02  0.41219821366E+02 -0.63735500423E+03  0.63941768731E+03  0.45651791853E+01 0.  0.
         13    1    3    3    0    0 -0.11869972835E+02  0.19584972259E+02 -0.27158364829E+03  0.27254751038E+03  0.00000000000E+00 0.  1.
          1    1    3    3  501    0 -0.18356884234E+02  0.21634849107E+02 -0.36577135594E+03  0.36687017693E+03  0.00000000000E+00 0.  1.
         -3    1    1    2    0  502  0.30226857069E+02 -0.41219821366E+02 -0.35980735037E+03  0.36341995810E+03  0.00000000000E+00 0. -1.
<mgrwt>
<rscale>  1 0.30000000E+03</rscale>
<asrwt>0</asrwt>
<pdfrwt beam="1">  1       21 0.10318732E-01 0.30000000E+03</pdfrwt>
<pdfrwt beam="2">0</pdfrwt>
<totfact> 0.81336999E+03</totfact>
</mgrwt>
</event>
<event>
 6    1  0.6377696E-002  0.3000000E+03  0.7818608E-02  0.1093470E+00
         21   -1    0    0  501  502  0.00000000000E+00  0.00000000000E+00  0.10866963517E+01  0.10866963517E+01  0.00000000000E+00 0. -1.
         13   -1    0    0    0    0 -0.00000000000E+00 -0.00000000000E+00 -0.10000000000E+04  0.10000000000E+04  0.00000000000E+00 0.  1.
    9000005    2    1    2  501    0  0.26859325025E+02 -0.18894500541E+02 -0.47290758691E+03  0.47405686842E+03  0.31469421298E+01 0.  0.
         13    1    3    3    0    0  0.25280935835E+02 -0.17139804711E+02 -0.44683358918E+03  0.44787627202E+03  0.00000000000E+00 0.  1.
          3    1    3    3  501    0  0.15783891901E+01 -0.17546958305E+01 -0.26073997734E+02  0.26180596397E+02  0.00000000000E+00 0.  1.
         -3    1    1    2    0  502 -0.26859325025E+02  0.18894500541E+02 -0.52600571674E+03  0.52702982794E+03  0.00000000000E+00 0. -1.
<mgrwt>
<rscale>  1 0.30000000E+03</rscale>
<asrwt>0</asrwt>
<pdfrwt beam="1">  1       21 0.39516314E-02 0.30000000E+03</pdfrwt>
<pdfrwt beam="2">0</pdfrwt>
<totfact> 0.42917395E+04</totfact>
</mgrwt>
</event>
<event>
 6    1  0.6377696E-002  0.3000000E+03  0.7818608E-02  0.1093470E+00
         21   -1    0    0  501  502  0.00000000000E+00  0.00000000000E+00  0.19846791088E+01  0.19846791088E+01  0.00000000000E+00 0. -1.
         13   -1    0    0    0    0 -0.00000000000E+00 -0.00000000000E+00 -0.10000000000E+04  0.10000000000E+04  0.00000000000E+00 0.  1.
    9000005    2    1    2  501    0  0.20566136173E+01 -0.44095054734E+02 -0.56110480967E+03  0.56284984978E+03  0.35696574521E+01 0.  0.
         13    1    3    3    0    0 -0.11200503985E+00 -0.16048303099E+02 -0.18531221375E+03  0.18600585245E+03  0.00000000000E+00 0.  1.
          3    1    3    3  501    0  0.21686186572E+01 -0.28046751635E+02 -0.37579259591E+03  0.37684399734E+03  0.00000000000E+00 0.  1.
         -3    1    1    2    0  502 -0.20566136173E+01  0.44095054734E+02 -0.43691051122E+03  0.43913482933E+03  0.00000000000E+00 0. -1.
<mgrwt>
<rscale>  1 0.30000000E+03</rscale>
<asrwt>0</asrwt>
<pdfrwt beam="1">  1       21 0.72170302E-02 0.30000000E+03</pdfrwt>
<pdfrwt beam="2">0</pdfrwt>
<totfact> 0.15299222E+04</totfact>
</mgrwt>
</event>
<event>
 6    1  0.6377696E-002  0.3000000E+03  0.7818608E-02  0.1093470E+00
         21   -1    0    0  501  502  0.00000000000E+00  0.00000000000E+00  0.10615384421E+01  0.10615384421E+01  0.00000000000E+00 0. -1.
         13   -1    0    0    0    0 -0.00000000000E+00 -0.00000000000E+00 -0.10000000000E+04  0.10000000000E+04  0.00000000000E+00 0.  1.
    9000005    2    1    2  501    0 -0.31588084255E+02 -0.72545749825E+01 -0.49821215819E+03  0.49928741914E+03  0.47049346474E+01 0.  0.
         13    1    3    3    0    0 -0.15518135157E+02 -0.40827153354E+01 -0.21156839468E+03  0.21217602765E+03  0.00000000000E+00 0.  1.
          3    1    3    3  501    0 -0.16069949098E+02 -0.31718596470E+01 -0.28664376352E+03  0.28711139149E+03  0.00000000000E+00 0.  1.
         -3    1    1    2    0  502  0.31588084255E+02  0.72545749825E+01 -0.50072630336E+03  0.50177411931E+03  0.00000000000E+00 0. -1.
<mgrwt>
<rscale>  1 0.30000000E+03</rscale>
<asrwt>0</asrwt>
<pdfrwt beam="1">  1       21 0.38601479E-02 0.30000000E+03</pdfrwt>
<pdfrwt beam="2">0</pdfrwt>
<totfact> 0.44642102E+04</totfact>
</mgrwt>
</event>
<event>
 6    1  0.6377696E-002  0.3000000E+03  0.7818608E-02  0.1093470E+00
         21   -1    0    0  501  502  0.00000000000E+00  0.00000000000E+00  0.93112719764E+00  0.93112719764E+00  0.00000000000E+00 0. -1.
         13   -1    0    0    0    0 -0.00000000000E+00 -0.00000000000E+00 -0.10000000000E+04  0.10000000000E+04  0.00000000000E+00 0.  1.
    9000005    2    1    2  501    0 -0.30079570437E+02 -0.30789441282E+01 -0.44909074622E+03  0.45012244883E+03  0.36688061625E+01 0.  0.
         13    1    3    3    0    0 -0.17153475690E+02 -0.11624093043E+00 -0.24129551982E+03  0.24190449174E+03  0.00000000000E+00 0.  1.
          3    1    3    3  501    0 -0.12926094747E+02 -0.29627031977E+01 -0.20779522641E+03  0.20821795708E+03  0.00000000000E+00 0.  1.
         -1    1    1    2    0  502  0.30079570437E+02  0.30789441282E+01 -0.54997812658E+03  0.55080867837E+03  0.00000000000E+00 0. -1.
<mgrwt>
<rscale>  1 0.30000000E+03</rscale>
<asrwt>0</asrwt>
<pdfrwt beam="1">  1       21 0.33859242E-02 0.30000000E+03</pdfrwt>
<pdfrwt beam="2">0</pdfrwt>
<totfact> 0.55615196E+04</totfact>
</mgrwt>
</event>
<event>
 6    1  0.6377696E-002  0.3000000E+03  0.7818608E-02  0.1093470E+00
         21   -1    0    0  501  502  0.00000000000E+00  0.00000000000E+00  0.16020439427E+01  0.16020439427E+01  0.00000000000E+00 0. -1.
         13   -1    0    0    0    0 -0.00000000000E+00 -0.00000000000E+00 -0.10000000000E+04  0.10000000000E+04  0.00000000000E+00 0.  1.
    9000005    2    1    2  501    0 -0.17340499380E+02  0.33711268939E+02 -0.34142950237E+03  0.34354073090E+03  0.29976878185E+01 0.  0.
         13    1    3    3    0    0 -0.14429079601E+02  0.26777364237E+02 -0.28269822383E+03  0.28432993393E+03  0.00000000000E+00 0.  1.
          1    1    3    3  501    0 -0.29114197794E+01  0.69339047013E+01 -0.58731278540E+02  0.59210796975E+02  0.00000000000E+00 0.  1.
         -3    1    1    2    0  502  0.17340499380E+02 -0.33711268939E+02 -0.65696845369E+03  0.65806131304E+03  0.00000000000E+00 0. -1.
<mgrwt>
<rscale>  1 0.30000000E+03</rscale>
<asrwt>0</asrwt>
<pdfrwt beam="1">  1       21 0.58256266E-02 0.30000000E+03</pdfrwt>
<pdfrwt beam="2">0</pdfrwt>
<totfact> 0.22170572E+04</totfact>
</mgrwt>
</event>
<event>
 6    1  0.6377696E-002  0.3000000E+03  0.7818608E-02  0.1093470E+00
         21   -1    0    0  501  502  0.00000000000E+00  0.00000000000E+00  0.41635254444E+01  0.41635254444E+01  0.00000000000E+00 0. -1.
         13   -1    0    0    0    0 -0.00000000000E+00 -0.00000000000E+00 -0.10000000000E+04  0.10000000000E+04  0.00000000000E+00 0.  1.
    9000005    2    1    2  501    0  0.20014030124E+02  0.60230495163E+02 -0.58711890729E+03  0.59054737037E+03  0.30514587968E+01 0.  0.
         13    1    3    3    0    0  0.19345588084E+02  0.55753310220E+02 -0.54610295440E+03  0.54928236835E+03  0.00000000000E+00 0.  1.
          3    1    3    3  501    0  0.66844203991E+00  0.44771849430E+01 -0.41015952890E+02  0.41265002014E+02  0.00000000000E+00 0.  1.
         -3    1    1    2    0  502 -0.20014030124E+02 -0.60230495163E+02 -0.40871756727E+03  0.41361615508E+03  0.00000000000E+00 0. -1.
<mgrwt>
<rscale>  1 0.30000000E+03</rscale>
<asrwt>0</asrwt>
<pdfrwt beam="1">  1       21 0.15140124E-01 0.30000000E+03</pdfrwt>
<pdfrwt beam="2">0</pdfrwt>
<totfact> 0.40477315E+03</totfact>
</mgrwt>
</event>
<event>
 6    1  0.6377696E-002  0.3000000E+03  0.7818608E-02  0.1093470E+00
         21   -1    0    0  501  502  0.00000000000E+00  0.00000000000E+00  0.13693242686E+01  0.13693242686E+01  0.00000000000E+00 0. -1.
         13   -1    0    0    0    0 -0.00000000000E+00 -0.00000000000E+00 -0.10000000000E+04  0.10000000000E+04  0.00000000000E+00 0.  1.
    9000005    2    1    2  501    0  0.22937560297E+02 -0.21907824874E+02 -0.24397554967E+03  0.24604790675E+03  0.30690583070E+01 0.  0.
         13    1    3    3    0    0  0.19980079689E+02 -0.17521607897E+02 -0.20453756949E+03  0.20625670331E+03  0.00000000000E+00 0.  1.
          3    1    3    3  501    0  0.29574806083E+01 -0.43862169769E+01 -0.39437980173E+02  0.39791203438E+02  0.00000000000E+00 0.  1.
         -1    1    1    2    0  502 -0.22937560297E+02  0.21907824874E+02 -0.75465512607E+03  0.75532141752E+03  0.00000000000E+00 0. -1.
<mgrwt>
<rscale>  1 0.30000000E+03</rscale>
<asrwt>0</asrwt>
<pdfrwt beam="1">  1       21 0.49793715E-02 0.30000000E+03</pdfrwt>
<pdfrwt beam="2">0</pdfrwt>
<totfact> 0.29008359E+04</totfact>
</mgrwt>
</event>
<event>
 6    1  0.6377696E-002  0.3000000E+03  0.7818608E-02  0.1093470E+00
         21   -1    0    0  501  502  0.00000000000E+00  0.00000000000E+00  0.10547825460E+01  0.10547825460E+01  0.00000000000E+00 0. -1.
         13   -1    0    0    0    0 -0.00000000000E+00 -0.00000000000E+00 -0.10000000000E+04  0.10000000000E+04  0.00000000000E+00 0.  1.
    9000005    2    1    2  501    0 -0.13427851787E+02 -0.26830085020E+02 -0.68940932006E+03  0.69006823550E+03  0.29662096859E+01 0.  0.
         13    1    3    3    0    0 -0.97032425145E+01 -0.16273343581E+02 -0.42573413055E+03  0.42615551685E+03  0.00000000000E+00 0.  1.
          3    1    3    3  501    0 -0.37246092721E+01 -0.10556741439E+02 -0.26367518950E+03  0.26391271865E+03  0.00000000000E+00 0.  1.
         -1    1    1    2    0  502  0.13427851787E+02  0.26830085020E+02 -0.30953589740E+03  0.31098654704E+03  0.00000000000E+00 0. -1.
<mgrwt>
<rscale>  1 0.30000000E+03</rscale>
<asrwt>0</asrwt>
<pdfrwt beam="1">  1       21 0.38355810E-02 0.30000000E+03</pdfrwt>
<pdfrwt beam="2">0</pdfrwt>
<totfact> 0.45123806E+04</totfact>
</mgrwt>
</event>
<event>
 6    1  0.6377696E-002  0.3000000E+03  0.7818608E-02  0.1093470E+00
         21   -1    0    0  501  502  0.00000000000E+00  0.00000000000E+00  0.18828410595E+01  0.18828410595E+01  0.00000000000E+00 0. -1.
         13   -1    0    0    0    0 -0.00000000000E+00 -0.00000000000E+00 -0.10000000000E+04  0.10000000000E+04  0.00000000000E+00 0.  1.
    9000005    2    1    2  501    0 -0.42514624406E+02  0.70855200997E+01 -0.54907848162E+03  0.55078037863E+03  0.37614649065E+01 0.  0.
         13    1    3    3    0    0 -0.31575510303E+02  0.58387538056E+01 -0.42759567891E+03  0.42879968345E+03  0.00000000000E+00 0.  1.
          3    1    3    3  501    0 -0.10939114103E+02  0.12467662941E+01 -0.12148280271E+03  0.12198069518E+03  0.00000000000E+00 0.  1.
         -1    1    1    2    0  502  0.42514624406E+02 -0.70855200997E+01 -0.44903867732E+03  0.45110246243E+03  0.00000000000E+00 0. -1.
<mgrwt>
<rscale>  1 0.30000000E+03</rscale>
<asrwt>0</asrwt>
<pdfrwt beam="1">  1       21 0.68467092E-02 0.30000000E+03</pdfrwt>
<pdfrwt beam="2">0</pdfrwt>
<totfact> 0.16768625E+04</totfact>
</mgrwt>
</event>
<event>
 6    1  0.6377696E-002  0.3000000E+03  0.7818608E-02  0.1093470E+00
         21   -1    0    0  501  502  0.00000000000E+00  0.00000000000E+00  0.15078371235E+01  0.15078371235E+01  0.00000000000E+00 0. -1.
         13   -1    0    0    0    0 -0.00000000000E+00 -0.00000000000E+00 -0.10000000000E+04  0.10000000000E+04  0.00000000000E+00 0.  1.
    9000005    2    1    2  501    0  0.76930836301E+01 -0.36783694959E+02 -0.37773670163E+03  0.37961591209E+03  0.33168065056E+01 0.  0.
         13    1    3    3    0    0  0.20499822033E+01 -0.16002828817E+02 -0.17234473714E+03  0.17309824198E+03  0.00000000000E+00 0.  1.
          1    1    3    3  501    0  0.56431014267E+01 -0.20780866142E+02 -0.20539196449E+03  0.20651767011E+03  0.00000000000E+00 0.  1.
         -3    1    1    2    0  502 -0.76930836301E+01  0.36783694959E+02 -0.62075546125E+03  0.62189192503E+03  0.00000000000E+00 0. -1.
<mgrwt>
<rscale>  1 0.30000000E+03</rscale>
<asrwt>0</asrwt>
<pdfrwt beam="1">  1       21 0.54830556E-02 0.30000000E+03</pdfrwt>
<pdfrwt beam="2">0</pdfrwt>
<totfact> 0.24603963E+04</totfact>
</mgrwt>
</event>
<event>
 6    1  0.6377696E-002  0.3000000E+03  0.7818608E-02  0.1093470E+00
         21   -1    0    0  501  502  0.00000000000E+00  0.00000000000E+00  0.15577551934E+01  0.15577551934E+01  0.00000000000E+00 0. -1.
         13   -1    0    0    0    0 -0.00000000000E+00 -0.00000000000E+00 -0.10000000000E+04  0.10000000000E+04  0.00000000000E+00 0.  1.
    9000005    2    1    2  501    0  0.21500289218E+02  0.32897612500E+02 -0.53429791247E+03  0.53575256353E+03  0.34691078904E+01 0.  0.
         13    1    3    3    0    0  0.20617875520E+02  0.32151107390E+02 -0.51062015668E+03  0.51204661399E+03  0.00000000000E+00 0.  1.
          1    1    3    3  501    0  0.88241369851E+00  0.74650510922E+00 -0.23677755797E+02  0.23705949536E+02  0.00000000000E+00 0.  1.
         -3    1    1    2    0  502 -0.21500289218E+02 -0.32897612500E+02 -0.46414433233E+03  0.46580519167E+03  0.00000000000E+00 0. -1.
<mgrwt>
<rscale>  1 0.30000000E+03</rscale>
<asrwt>0</asrwt>
<pdfrwt beam="1">  1       21 0.56645763E-02 0.30000000E+03</pdfrwt>
<pdfrwt beam="2">0</pdfrwt>
<totfact> 0.23266271E+04</totfact>
</mgrwt>
</event>
<event>
 6    1  0.6377696E-002  0.3000000E+03  0.7818608E-02  0.1093470E+00
         21   -1    0    0  501  502  0.00000000000E+00  0.00000000000E+00  0.95615241804E+00  0.95615241804E+00  0.00000000000E+00 0. -1.
         13   -1    0    0    0    0 -0.00000000000E+00 -0.00000000000E+00 -0.10000000000E+04  0.10000000000E+04  0.00000000000E+00 0.  1.
    9000005    2    1    2  501    0  0.27851371379E+02  0.11959153904E+02 -0.59235364438E+03  0.59313800467E+03  0.33365142471E+01 0.  0.
         13    1    3    3    0    0  0.15172716060E+02  0.80780477643E+01 -0.35025552900E+03  0.35067706193E+03  0.00000000000E+00 0.  1.
          1    1    3    3  501    0  0.12678655319E+02  0.38811061399E+01 -0.24209811538E+03  0.24246094274E+03  0.00000000000E+00 0.  1.
         -1    1    1    2    0  502 -0.27851371379E+02 -0.11959153904E+02 -0.40669020320E+03  0.40781814775E+03  0.00000000000E+00 0. -1.
<mgrwt>
<rscale>  1 0.30000000E+03</rscale>
<asrwt>0</asrwt>
<pdfrwt beam="1">  1       21 0.34769252E-02 0.30000000E+03</pdfrwt>
<pdfrwt beam="2">0</pdfrwt>
<totfact> 0.53202688E+04</totfact>
</mgrwt>
</event>
<event>
 6    1  0.6377696E-002  0.3000000E+03  0.7818608E-02  0.1093470E+00
         21   -1    0    0  501  502  0.00000000000E+00  0.00000000000E+00  0.10155506083E+01  0.10155506083E+01  0.00000000000E+00 0. -1.
         13   -1    0    0    0    0 -0.00000000000E+00 -0.00000000000E+00 -0.10000000000E+04  0.10000000000E+04  0.00000000000E+00 0.  1.
    9000005    2    1    2  501    0 -0.20324321718E+02 -0.24438698380E+02 -0.49764706565E+03  0.49867154460E+03  0.32217100232E+01 0.  0.
         13    1    3    3    0    0 -0.88502066357E+01 -0.94111126011E+01 -0.18093741210E+03  0.18139802175E+03  0.00000000000E+00 0.  1.
          3    1    3    3  501    0 -0.11474115082E+02 -0.15027585779E+02 -0.31670965355E+03  0.31727352285E+03  0.00000000000E+00 0.  1.
         -3    1    1    2    0  502  0.20324321718E+02  0.24438698380E+02 -0.50133738374E+03  0.50234400601E+03  0.00000000000E+00 0. -1.
<mgrwt>
<rscale>  1 0.30000000E+03</rscale>
<asrwt>0</asrwt>
<pdfrwt beam="1">  1       21 0.36929191E-02 0.30000000E+03</pdfrwt>
<pdfrwt beam="2">0</pdfrwt>
<totfact> 0.48089805E+04</totfact>
</mgrwt>
</event>
<event>
 6    1  0.6377696E-002  0.3000000E+03  0.7818608E-02  0.1093470E+00
         21   -1    0    0  501  502  0.00000000000E+00  0.00000000000E+00  0.11794983281E+01  0.11794983281E+01  0.00000000000E+00 0. -1.
         13   -1    0    0    0    0 -0.00000000000E+00 -0.00000000000E+00 -0.10000000000E+04  0.10000000000E+04  0.00000000000E+00 0.  1.
    9000005    2    1    2  501    0  0.16513684781E+02  0.26077938777E+02 -0.28325283768E+03  0.28494640609E+03  0.30860346745E+01 0.  0.
         13    1    3    3    0    0  0.75878627826E+01  0.10110798496E+02 -0.12636587736E+03  0.12699660968E+03  0.00000000000E+00 0.  1.
          3    1    3    3  501    0  0.89258219988E+01  0.15967140281E+02 -0.15688696032E+03  0.15794979641E+03  0.00000000000E+00 0.  1.
         -1    1    1    2    0  502 -0.16513684781E+02 -0.26077938777E+02 -0.71556766399E+03  0.71623309224E+03  0.00000000000E+00 0. -1.
<mgrwt>
<rscale>  1 0.30000000E+03</rscale>
<asrwt>0</asrwt>
<pdfrwt beam="1">  1       21 0.42890939E-02 0.30000000E+03</pdfrwt>
<pdfrwt beam="2">0</pdfrwt>
<totfact> 0.37376915E+04</totfact>
</mgrwt>
</event>
<event>
 6    1  0.6377696E-002  0.3000000E+03  0.7818608E-02  0.1093470E+00
         21   -1    0    0  501  502  0.00000000000E+00  0.00000000000E+00  0.16016461884E+01  0.16016461884E+01  0.00000000000E+00 0. -1.
         13   -1    0    0    0    0 -0.00000000000E+00 -0.00000000000E+00 -0.10000000000E+04  0.10000000000E+04  0.00000000000E+00 0.  1.
    9000005    2    1    2  501    0 -0.29747821504E+02 -0.26316647981E+02 -0.44519349895E+03  0.44697284213E+03  0.31577289605E+01 0.  0.
         13    1    3    3    0    0 -0.26439858043E+02 -0.23803047199E+02 -0.38732990781E+03  0.38896029185E+03  0.00000000000E+00 0.  1.
          1    1    3    3  501    0 -0.33079634615E+01 -0.25136007818E+01 -0.57863591136E+02  0.58012550282E+02  0.00000000000E+00 0.  1.
         -3    1    1    2    0  502  0.29747821504E+02  0.26316647981E+02 -0.55320485486E+03  0.55462880406E+03  0.00000000000E+00 0. -1.
<mgrwt>
<rscale>  1 0.30000000E+03</rscale>
<asrwt>0</asrwt>
<pdfrwt beam="1">  1       21 0.58241802E-02 0.30000000E+03</pdfrwt>
<pdfrwt beam="2">0</pdfrwt>
<totfact> 0.22180058E+04</totfact>
</mgrwt>
</event>
<event>
 6    1  0.6377696E-002  0.3000000E+03  0.7818608E-02  0.1093470E+00
         21   -1    0    0  501  502  0.00000000000E+00  0.00000000000E+00  0.93329892174E+00  0.93329892174E+00  0.00000000000E+00 0. -1.
         13   -1    0    0    0    0 -0.00000000000E+00 -0.00000000000E+00 -0.10000000000E+04  0.10000000000E+04  0.00000000000E+00 0.  1.
    9000005    2    1    2  501    0 -0.27481201784E+02 -0.12925931692E+02 -0.54034898963E+03  0.54121138846E+03  0.32311366037E+01 0.  0.
         13    1    3    3    0    0 -0.69628860013E+00 -0.94510915250E+00 -0.25374966912E+02  0.25402106112E+02  0.00000000000E+00 0.  1.
          3    1    3    3  501    0 -0.26784913184E+02 -0.11980822540E+02 -0.51497402272E+03  0.51580928235E+03  0.00000000000E+00 0.  1.
         -1    1    1    2    0  502  0.27481201784E+02  0.12925931692E+02 -0.45871771145E+03  0.45972191046E+03  0.00000000000E+00 0. -1.
<mgrwt>
<rscale>  1 0.30000000E+03</rscale>
<asrwt>0</asrwt>
<pdfrwt beam="1">  1       21 0.33938214E-02 0.30000000E+03</pdfrwt>
<pdfrwt beam="2">0</pdfrwt>
<totfact> 0.55399144E+04</totfact>
</mgrwt>
</event>
<event>
 6    1  0.6377696E-002  0.3000000E+03  0.7818608E-02  0.1093470E+00
         21   -1    0    0  501  502  0.00000000000E+00  0.00000000000E+00  0.16596738452E+01  0.16596738452E+01  0.00000000000E+00 0. -1.
         13   -1    0    0    0    0 -0.00000000000E+00 -0.00000000000E+00 -0.10000000000E+04  0.10000000000E+04  0.00000000000E+00 0.  1.
    9000005    2    1    2  501    0 -0.11218889833E+02 -0.29544860275E+02 -0.81476807763E+03  0.81538693648E+03  0.31738929835E+01 0.  0.
         13    1    3    3    0    0 -0.38984309280E+01 -0.94500524232E+01 -0.30228790593E+03  0.30246070708E+03  0.00000000000E+00 0.  1.
          3    1    3    3  501    0 -0.73204589049E+01 -0.20094807852E+02 -0.51248017170E+03  0.51292622940E+03  0.00000000000E+00 0.  1.
         -1    1    1    2    0  502  0.11218889833E+02  0.29544860275E+02 -0.18357224852E+03  0.18627273736E+03  0.00000000000E+00 0. -1.
<mgrwt>
<rscale>  1 0.30000000E+03</rscale>
<asrwt>0</asrwt>
<pdfrwt beam="1">  1       21 0.60351903E-02 0.30000000E+03</pdfrwt>
<pdfrwt beam="2">0</pdfrwt>
<totfact> 0.20860189E+04</totfact>
</mgrwt>
</event>
<event>
 6    1  0.6377696E-002  0.3000000E+03  0.7818608E-02  0.1093470E+00
         21   -1    0    0  501  502  0.00000000000E+00  0.00000000000E+00  0.47759629608E+01  0.47759629608E+01  0.00000000000E+00 0. -1.
         13   -1    0    0    0    0 -0.00000000000E+00 -0.00000000000E+00 -0.10000000000E+04  0.10000000000E+04  0.00000000000E+00 0.  1.
    9000005    2    1    2  501    0  0.17401419819E+02  0.43966928337E+02 -0.13262591675E+03  0.14088278824E+03  0.47356129541E+01 0.  0.
         13    1    3    3    0    0  0.10196342418E+02  0.20707185914E+02 -0.60207559758E+02  0.64480254336E+02  0.00000000000E+00 0.  1.
          1    1    3    3  501    0  0.72050774009E+01  0.23259742423E+02 -0.72418356993E+02  0.76402533908E+02  0.00000000000E+00 0.  1.
         -1    1    1    2    0  502 -0.17401419819E+02 -0.43966928337E+02 -0.86259812029E+03  0.86389317472E+03  0.00000000000E+00 0. -1.
<mgrwt>
<rscale>  1 0.30000000E+03</rscale>
<asrwt>0</asrwt>
<pdfrwt beam="1">  1       21 0.17367175E-01 0.30000000E+03</pdfrwt>
<pdfrwt beam="2">0</pdfrwt>
<totfact> 0.31334437E+03</totfact>
</mgrwt>
</event>
<event>
 6    1  0.6377696E-002  0.3000000E+03  0.7818608E-02  0.1093470E+00
         21   -1    0    0  501  502  0.00000000000E+00  0.00000000000E+00  0.14103330427E+01  0.14103330427E+01  0.00000000000E+00 0. -1.
         13   -1    0    0    0    0 -0.00000000000E+00 -0.00000000000E+00 -0.10000000000E+04  0.10000000000E+04  0.00000000000E+00 0.  1.
    9000005    2    1    2  501    0  0.34078315048E+02 -0.14027531625E+02 -0.40807679252E+03  0.40974864079E+03  0.30293296254E+01 0.  0.
         13    1    3    3    0    0  0.29039959890E+02 -0.11249665317E+02 -0.35365833042E+03  0.35502688478E+03  0.00000000000E+00 0.  1.
          3    1    3    3  501    0  0.50383551577E+01 -0.27778663089E+01 -0.54418462102E+02  0.54721756016E+02  0.00000000000E+00 0.  1.
         -3    1    1    2    0  502 -0.34078315048E+02  0.14027531625E+02 -0.59051287444E+03  0.59166169225E+03  0.00000000000E+00 0. -1.
<mgrwt>
<rscale>  1 0.30000000E+03</rscale>
<asrwt>0</asrwt>
<pdfrwt beam="1">  1       21 0.51284946E-02 0.30000000E+03</pdfrwt>
<pdfrwt beam="2">0</pdfrwt>
<totfact> 0.27584465E+04</totfact>
</mgrwt>
</event>
<event>
 6    1  0.6377696E-002  0.3000000E+03  0.7818608E-02  0.1093470E+00
         21   -1    0    0  501  502  0.00000000000E+00  0.00000000000E+00  0.30622250076E+01  0.30622250076E+01  0.00000000000E+00 0. -1.
         13   -1    0    0    0    0 -0.00000000000E+00 -0.00000000000E+00 -0.10000000000E+04  0.10000000000E+04  0.00000000000E+00 0.  1.
    9000005    2    1    2  501    0  0.36538385230E+02  0.40421358140E+02 -0.41390689740E+03  0.41749075711E+03  0.32669203079E+01 0.  0.
         13    1    3    3    0    0  0.15694923504E+02  0.19776364912E+02 -0.19285408677E+03  0.19449970184E+03  0.00000000000E+00 0.  1.
          1    1    3    3  501    0  0.20843461726E+02  0.20644993227E+02 -0.22105281063E+03  0.22299105527E+03  0.00000000000E+00 0.  1.
         -1    1    1    2    0  502 -0.36538385230E+02 -0.40421358140E+02 -0.58303087759E+03  0.58557146790E+03  0.00000000000E+00 0. -1.
<mgrwt>
<rscale>  1 0.30000000E+03</rscale>
<asrwt>0</asrwt>
<pdfrwt beam="1">  1       21 0.11135387E-01 0.30000000E+03</pdfrwt>
<pdfrwt beam="2">0</pdfrwt>
<totfact> 0.70940777E+03</totfact>
</mgrwt>
</event>
<event>
 6    1  0.6377696E-002  0.3000000E+03  0.7818608E-02  0.1093470E+00
         21   -1    0    0  501  502  0.00000000000E+00  0.00000000000E+00  0.15535348614E+01  0.15535348614E+01  0.00000000000E+00 0. -1.
         13   -1    0    0    0    0 -0.00000000000E+00 -0.00000000000E+00 -0.10000000000E+04  0.10000000000E+04  0.00000000000E+00 0.  1.
    9000005    2    1    2  501    0 -0.37576578569E+02  0.12216587900E+01 -0.35199500341E+03  0.35400972624E+03  0.29853212342E+01 0.  0.
         13    1    3    3    0    0 -0.29171088820E+02  0.20154221246E+01 -0.26696031887E+03  0.26855693289E+03  0.00000000000E+00 0.  1.
          1    1    3    3  501    0 -0.84054897494E+01 -0.79376333458E+00 -0.85034684535E+02  0.85452793355E+02  0.00000000000E+00 0.  1.
         -1    1    1    2    0  502  0.37576578569E+02 -0.12216587900E+01 -0.64645146173E+03  0.64754380862E+03  0.00000000000E+00 0. -1.
<mgrwt>
<rscale>  1 0.30000000E+03</rscale>
<asrwt>0</asrwt>
<pdfrwt beam="1">  1       21 0.56492296E-02 0.30000000E+03</pdfrwt>
<pdfrwt beam="2">0</pdfrwt>
<totfact> 0.23374991E+04</totfact>
</mgrwt>
</event>
<event>
 6    1  0.6377696E-002  0.3000000E+03  0.7818608E-02  0.1093470E+00
         21   -1    0    0  501  502  0.00000000000E+00  0.00000000000E+00  0.18268273359E+01  0.18268273359E+01  0.00000000000E+00 0. -1.
         13   -1    0    0    0    0 -0.00000000000E+00 -0.00000000000E+00 -0.10000000000E+04  0.10000000000E+04  0.00000000000E+00 0.  1.
    9000005    2    1    2  501    0  0.31500771714E+02 -0.81087486986E+01 -0.17591311787E+03  0.17892364461E+03  0.31929827917E+01 0.  0.
         13    1    3    3    0    0  0.13620834113E+02 -0.18849360541E+01 -0.73258894175E+02  0.74538216249E+02  0.00000000000E+00 0.  1.
          1    1    3    3  501    0  0.17879937602E+02 -0.62238126445E+01 -0.10265422370E+03  0.10438542837E+03  0.00000000000E+00 0.  1.
         -1    1    1    2    0  502 -0.31500771714E+02  0.81087486986E+01 -0.82226005479E+03  0.82290318272E+03  0.00000000000E+00 0. -1.
<mgrwt>
<rscale>  1 0.30000000E+03</rscale>
<asrwt>0</asrwt>
<pdfrwt beam="1">  1       21 0.66430225E-02 0.30000000E+03</pdfrwt>
<pdfrwt beam="2">0</pdfrwt>
<totfact> 0.17670976E+04</totfact>
</mgrwt>
</event>
<event>
 6    1  0.6377696E-002  0.3000000E+03  0.7818608E-02  0.1093470E+00
         21   -1    0    0  501  502  0.00000000000E+00  0.00000000000E+00  0.21543646423E+01  0.21543646423E+01  0.00000000000E+00 0. -1.
         13   -1    0    0    0    0 -0.00000000000E+00 -0.00000000000E+00 -0.10000000000E+04  0.10000000000E+04  0.00000000000E+00 0.  1.
    9000005    2    1    2  501    0 -0.22134677658E+01 -0.45768252006E+02 -0.53558269956E+03  0.53762594339E+03  0.96537358438E+01 0.  0.
         13    1    3    3    0    0 -0.29721990155E+00  0.28040909278E+00 -0.13920232930E+01  0.14507576564E+01  0.00000000000E+00 0.  1.
          1    1    3    3  501    0 -0.19162478642E+01 -0.46048661098E+02 -0.53419067626E+03  0.53617518574E+03  0.00000000000E+00 0.  1.
         -1    1    1    2    0  502  0.22134677658E+01  0.45768252006E+02 -0.46226293580E+03  0.46452842125E+03  0.00000000000E+00 0. -1.
<mgrwt>
<rscale>  1 0.30000000E+03</rscale>
<asrwt>0</asrwt>
<pdfrwt beam="1">  1       21 0.78340698E-02 0.30000000E+03</pdfrwt>
<pdfrwt beam="2">0</pdfrwt>
<totfact> 0.13252612E+04</totfact>
</mgrwt>
</event>
<event>
 6    1  0.6377696E-002  0.3000000E+03  0.7818608E-02  0.1093470E+00
         21   -1    0    0  501  502  0.00000000000E+00  0.00000000000E+00  0.17386559818E+01  0.17386559818E+01  0.00000000000E+00 0. -1.
         13   -1    0    0    0    0 -0.00000000000E+00 -0.00000000000E+00 -0.10000000000E+04  0.10000000000E+04  0.00000000000E+00 0.  1.
    9000005    2    1    2  501    0 -0.29677374526E+02 -0.74326771722E+01 -0.83910620433E+03  0.83966968999E+03  0.31583053548E+01 0.  0.
         13    1    3    3    0    0 -0.13625803819E+02 -0.18245334983E+01 -0.38345323606E+03  0.38369959043E+03  0.00000000000E+00 0.  1.
          1    1    3    3  501    0 -0.16051570708E+02 -0.56081436739E+01 -0.45565296827E+03  0.45597009956E+03  0.00000000000E+00 0.  1.
         -1    1    1    2    0  502  0.29677374526E+02  0.74326771722E+01 -0.15915513969E+03  0.16206896599E+03  0.00000000000E+00 0. -1.
<mgrwt>
<rscale>  1 0.30000000E+03</rscale>
<asrwt>0</asrwt>
<pdfrwt beam="1">  1       21 0.63223987E-02 0.30000000E+03</pdfrwt>
<pdfrwt beam="2">0</pdfrwt>
<totfact> 0.19250947E+04</totfact>
</mgrwt>
</event>
<event>
 6    1  0.6377696E-002  0.3000000E+03  0.7818608E-02  0.1093470E+00
         21   -1    0    0  501  502  0.00000000000E+00  0.00000000000E+00  0.16769824582E+01  0.16769824582E+01  0.00000000000E+00 0. -1.
         13   -1    0    0    0    0 -0.00000000000E+00 -0.00000000000E+00 -0.10000000000E+04  0.10000000000E+04  0.00000000000E+00 0.  1.
    9000005    2    1    2  501    0  0.17711039472E+02  0.36588771159E+02 -0.44679353902E+03  0.44865149953E+03  0.33589317716E+01 0.  0.
         13    1    3    3    0    0  0.13984602819E+02  0.29653953462E+02 -0.34525249610E+03  0.34680572679E+03  0.00000000000E+00 0.  1.
          1    1    3    3  501    0  0.37264366531E+01  0.69348176972E+01 -0.10154104292E+03  0.10184577274E+03  0.00000000000E+00 0.  1.
         -1    1    1    2    0  502 -0.17711039472E+02 -0.36588771159E+02 -0.55152947852E+03  0.55302548293E+03  0.00000000000E+00 0. -1.
<mgrwt>
<rscale>  1 0.30000000E+03</rscale>
<asrwt>0</asrwt>
<pdfrwt beam="1">  1       21 0.60981309E-02 0.30000000E+03</pdfrwt>
<pdfrwt beam="2">0</pdfrwt>
<totfact> 0.20490092E+04</totfact>
</mgrwt>
</event>
<event>
 6    1  0.6377696E-002  0.3000000E+03  0.7818608E-02  0.1093470E+00
         21   -1    0    0  501  502  0.00000000000E+00  0.00000000000E+00  0.18971281425E+01  0.18971281425E+01  0.00000000000E+00 0. -1.
         13   -1    0    0    0    0 -0.00000000000E+00 -0.00000000000E+00 -0.10000000000E+04  0.10000000000E+04  0.00000000000E+00 0.  1.
    9000005    2    1    2  501    0 -0.15824003566E+02  0.37121159228E+02 -0.68660635515E+03  0.68779768613E+03  0.29984267271E+01 0.  0.
         13    1    3    3    0    0 -0.94741343999E+01  0.18484700284E+02 -0.35771576186E+03  0.35831830773E+03  0.00000000000E+00 0.  1.
          3    1    3    3  501    0 -0.63498691661E+01  0.18636458945E+02 -0.32889059329E+03  0.32947937840E+03  0.00000000000E+00 0.  1.
         -1    1    1    2    0  502  0.15824003566E+02 -0.37121159228E+02 -0.31149651671E+03  0.31409944201E+03  0.00000000000E+00 0. -1.
<mgrwt>
<rscale>  1 0.30000000E+03</rscale>
<asrwt>0</asrwt>
<pdfrwt beam="1">  1       21 0.68986623E-02 0.30000000E+03</pdfrwt>
<pdfrwt beam="2">0</pdfrwt>
<totfact> 0.16549775E+04</totfact>
</mgrwt>
</event>
<event>
 6    1  0.6377696E-002  0.3000000E+03  0.7818608E-02  0.1093470E+00
         21   -1    0    0  501  502  0.00000000000E+00  0.00000000000E+00  0.21643869395E+01  0.21643869395E+01  0.00000000000E+00 0. -1.
         13   -1    0    0    0    0 -0.00000000000E+00 -0.00000000000E+00 -0.10000000000E+04  0.10000000000E+04  0.00000000000E+00 0.  1.
    9000005    2    1    2  501    0 -0.27900968088E+02  0.29066436971E+02 -0.74874706525E+03  0.74983835493E+03  0.34740506346E+01 0.  0.
         13    1    3    3    0    0 -0.11237793462E+02  0.10888310978E+02 -0.32079974370E+03  0.32118113094E+03  0.00000000000E+00 0.  1.
          1    1    3    3  501    0 -0.16663174626E+02  0.18178125992E+02 -0.42794732155E+03  0.42865722399E+03  0.00000000000E+00 0.  1.
         -3    1    1    2    0  502  0.27900968088E+02 -0.29066436971E+02 -0.24908854781E+03  0.25232603201E+03  0.00000000000E+00 0. -1.
<mgrwt>
<rscale>  1 0.30000000E+03</rscale>
<asrwt>0</asrwt>
<pdfrwt beam="1">  1       21 0.78705146E-02 0.30000000E+03</pdfrwt>
<pdfrwt beam="2">0</pdfrwt>
<totfact> 0.13145121E+04</totfact>
</mgrwt>
</event>
<event>
 6    1  0.6377696E-002  0.3000000E+03  0.7818608E-02  0.1093470E+00
         21   -1    0    0  501  502  0.00000000000E+00  0.00000000000E+00  0.64603831513E+01  0.64603831513E+01  0.00000000000E+00 0. -1.
         13   -1    0    0    0    0 -0.00000000000E+00 -0.00000000000E+00 -0.10000000000E+04  0.10000000000E+04  0.00000000000E+00 0.  1.
    9000005    2    1    2  501    0 -0.52632477040E+02  0.67231955326E+01 -0.11927833964E+03  0.13059043857E+03  0.33408592801E+01 0.  0.
         13    1    3    3    0    0 -0.48547723895E+02  0.52992854361E+01 -0.10916828135E+03  0.11959380241E+03  0.00000000000E+00 0.  1.
          3    1    3    3  501    0 -0.40847531449E+01  0.14239100964E+01 -0.10110058294E+02  0.10996636164E+02  0.00000000000E+00 0.  1.
         -1    1    1    2    0  502  0.52632477040E+02 -0.67231955326E+01 -0.87426127721E+03  0.87586994458E+03  0.00000000000E+00 0. -1.
<mgrwt>
<rscale>  1 0.30000000E+03</rscale>
<asrwt>0</asrwt>
<pdfrwt beam="1">  1       21 0.23492352E-01 0.30000000E+03</pdfrwt>
<pdfrwt beam="2">0</pdfrwt>
<totfact> 0.17605302E+03</totfact>
</mgrwt>
</event>
<event>
 6    1  0.6377696E-002  0.3000000E+03  0.7818608E-02  0.1093470E+00
         21   -1    0    0  501  502  0.00000000000E+00  0.00000000000E+00  0.12739984919E+01  0.12739984919E+01  0.00000000000E+00 0. -1.
         13   -1    0    0    0    0 -0.00000000000E+00 -0.00000000000E+00 -0.10000000000E+04  0.10000000000E+04  0.00000000000E+00 0.  1.
    9000005    2    1    2  501    0 -0.16949266270E+02 -0.27576315138E+02 -0.29183508912E+03  0.29364239038E+03  0.32254305257E+01 0.  0.
         13    1    3    3    0    0 -0.13935726287E+01 -0.40809732615E+01 -0.34139534602E+02  0.34410815310E+02  0.00000000000E+00 0.  1.
          1    1    3    3  501    0 -0.15555693641E+02 -0.23495341877E+02 -0.25769555452E+03  0.25923157507E+03  0.00000000000E+00 0.  1.
         -3    1    1    2    0  502  0.16949266270E+02  0.27576315138E+02 -0.70689091239E+03  0.70763160811E+03  0.00000000000E+00 0. -1.
<mgrwt>
<rscale>  1 0.30000000E+03</rscale>
<asrwt>0</asrwt>
<pdfrwt beam="1">  1       21 0.46327316E-02 0.30000000E+03</pdfrwt>
<pdfrwt beam="2">0</pdfrwt>
<totfact> 0.32798251E+04</totfact>
</mgrwt>
</event>
<event>
 6    1  0.6377696E-002  0.3000000E+03  0.7818608E-02  0.1093470E+00
         21   -1    0    0  501  502  0.00000000000E+00  0.00000000000E+00  0.14445582926E+01  0.14445582926E+01  0.00000000000E+00 0. -1.
         13   -1    0    0    0    0 -0.00000000000E+00 -0.00000000000E+00 -0.10000000000E+04  0.10000000000E+04  0.00000000000E+00 0.  1.
    9000005    2    1    2  501    0 -0.67264049591E+01  0.36934211586E+02 -0.42842796931E+03  0.43008240056E+03  0.33114759799E+01 0.  0.
         13    1    3    3    0    0 -0.34244788601E+01  0.12833515298E+02 -0.16488972507E+03  0.16542384231E+03  0.00000000000E+00 0.  1.
          1    1    3    3  501    0 -0.33019260990E+01  0.24100696289E+02 -0.26353824424E+03  0.26465855825E+03  0.00000000000E+00 0.  1.
         -3    1    1    2    0  502  0.67264049591E+01 -0.36934211586E+02 -0.57012747240E+03  0.57136215773E+03  0.00000000000E+00 0. -1.
<mgrwt>
<rscale>  1 0.30000000E+03</rscale>
<asrwt>0</asrwt>
<pdfrwt beam="1">  1       21 0.52529503E-02 0.30000000E+03</pdfrwt>
<pdfrwt beam="2">0</pdfrwt>
<totfact> 0.26477493E+04</totfact>
</mgrwt>
</event>
<event>
 6    1  0.6377696E-002  0.3000000E+03  0.7818608E-02  0.1093470E+00
         21   -1    0    0  501  502  0.00000000000E+00  0.00000000000E+00  0.36361018877E+01  0.36361018877E+01  0.00000000000E+00 0. -1.
         13   -1    0    0    0    0 -0.00000000000E+00 -0.00000000000E+00 -0.10000000000E+04  0.10000000000E+04  0.00000000000E+00 0.  1.
    9000005    2    1    2  501    0 -0.21216464147E+02 -0.30193696900E+02 -0.89496138607E+03  0.89572749643E+03  0.31729513915E+01 0.  0.
         13    1    3    3    0    0 -0.12300206012E+00 -0.95837838385E-01 -0.12628625141E+02  0.12629587775E+02  0.00000000000E+00 0.  1.
          3    1    3    3  501    0 -0.21093462087E+02 -0.30097859062E+02 -0.88233276093E+03  0.88309790866E+03  0.00000000000E+00 0.  1.
         -3    1    1    2    0  502  0.21216464147E+02  0.30193696900E+02 -0.10140251204E+03  0.10790860546E+03  0.00000000000E+00 0. -1.
<mgrwt>
<rscale>  1 0.30000000E+03</rscale>
<asrwt>0</asrwt>
<pdfrwt beam="1">  1       21 0.13222217E-01 0.30000000E+03</pdfrwt>
<pdfrwt beam="2">0</pdfrwt>
<totfact> 0.51931713E+03</totfact>
</mgrwt>
</event>
<event>
 6    1  0.6377696E-002  0.3000000E+03  0.7818608E-02  0.1093470E+00
         21   -1    0    0  501  502  0.00000000000E+00  0.00000000000E+00  0.11495217174E+01  0.11495217174E+01  0.00000000000E+00 0. -1.
         13   -1    0    0    0    0 -0.00000000000E+00 -0.00000000000E+00 -0.10000000000E+04  0.10000000000E+04  0.00000000000E+00 0.  1.
    9000005    2    1    2  501    0 -0.12077607176E+02  0.31472142886E+02 -0.46254782534E+03  0.46378846998E+03  0.35902346797E+01 0.  0.
         13    1    3    3    0    0 -0.17070830984E+00  0.21965475542E+01 -0.39798343317E+02  0.39859278634E+02  0.00000000000E+00 0.  1.
          3    1    3    3  501    0 -0.11906898866E+02  0.29275595332E+02 -0.42274948203E+03  0.42392919135E+03  0.00000000000E+00 0.  1.
         -1    1    1    2    0  502  0.12077607176E+02 -0.31472142886E+02 -0.53630265294E+03  0.53736105174E+03  0.00000000000E+00 0. -1.
<mgrwt>
<rscale>  1 0.30000000E+03</rscale>
<asrwt>0</asrwt>
<pdfrwt beam="1">  1       21 0.41800878E-02 0.30000000E+03</pdfrwt>
<pdfrwt beam="2">0</pdfrwt>
<totfact> 0.39038438E+04</totfact>
</mgrwt>
</event>
<event>
 6    1  0.6377696E-002  0.3000000E+03  0.7818608E-02  0.1093470E+00
         21   -1    0    0  501  502  0.00000000000E+00  0.00000000000E+00  0.32280258071E+01  0.32280258071E+01  0.00000000000E+00 0. -1.
         13   -1    0    0    0    0 -0.00000000000E+00 -0.00000000000E+00 -0.10000000000E+04  0.10000000000E+04  0.00000000000E+00 0.  1.
    9000005    2    1    2  501    0  0.14931229819E+02  0.51102913610E+02 -0.67259998001E+03  0.67471329065E+03  0.35835828372E+01 0.  0.
         13    1    3    3    0    0  0.24120155851E+01  0.92489092530E+01 -0.10461969648E+03  0.10505541886E+03  0.00000000000E+00 0.  1.
          3    1    3    3  501    0  0.12519214234E+02  0.41854004357E+02 -0.56798028353E+03  0.56965787178E+03  0.00000000000E+00 0.  1.
         -3    1    1    2    0  502 -0.14931229819E+02 -0.51102913610E+02 -0.32417199419E+03  0.32851473516E+03  0.00000000000E+00 0. -1.
<mgrwt>
<rscale>  1 0.30000000E+03</rscale>
<asrwt>0</asrwt>
<pdfrwt beam="1">  1       21 0.11738300E-01 0.30000000E+03</pdfrwt>
<pdfrwt beam="2">0</pdfrwt>
<totfact> 0.64498245E+03</totfact>
</mgrwt>
</event>
<event>
 6    1  0.6377696E-002  0.3000000E+03  0.7818608E-02  0.1093470E+00
         21   -1    0    0  501  502  0.00000000000E+00  0.00000000000E+00  0.21016891942E+01  0.21016891942E+01  0.00000000000E+00 0. -1.
         13   -1    0    0    0    0 -0.00000000000E+00 -0.00000000000E+00 -0.10000000000E+04  0.10000000000E+04  0.00000000000E+00 0.  1.
    9000005    2    1    2  501    0  0.42232543858E+02  0.17226144150E+02 -0.54241317972E+03  0.54433861462E+03  0.34845415662E+01 0.  0.
         13    1    3    3    0    0  0.51372850925E+00  0.61322220305E+00 -0.69684771618E+01  0.70142449634E+01  0.00000000000E+00 0.  1.
          1    1    3    3  501    0  0.41718815349E+02  0.16612921947E+02 -0.53544470256E+03  0.53732436966E+03  0.00000000000E+00 0.  1.
         -1    1    1    2    0  502 -0.42232543858E+02 -0.17226144150E+02 -0.45548513108E+03  0.45776307457E+03  0.00000000000E+00 0. -1.
<mgrwt>
<rscale>  1 0.30000000E+03</rscale>
<asrwt>0</asrwt>
<pdfrwt beam="1">  1       21 0.76425223E-02 0.30000000E+03</pdfrwt>
<pdfrwt beam="2">0</pdfrwt>
<totfact> 0.13840492E+04</totfact>
</mgrwt>
</event>
<event>
 6    1  0.6377696E-002  0.3000000E+03  0.7818608E-02  0.1093470E+00
         21   -1    0    0  501  502  0.00000000000E+00  0.00000000000E+00  0.16634272473E+01  0.16634272473E+01  0.00000000000E+00 0. -1.
         13   -1    0    0    0    0 -0.00000000000E+00 -0.00000000000E+00 -0.10000000000E+04  0.10000000000E+04  0.00000000000E+00 0.  1.
    9000005    2    1    2  501    0 -0.22496967985E+02  0.31911547076E+02 -0.35757609779E+03  0.35971448326E+03  0.30632261888E+01 0.  0.
         13    1    3    3    0    0 -0.21294879433E+02  0.31111990795E+02 -0.34212462175E+03  0.34419570693E+03  0.00000000000E+00 0.  1.
          3    1    3    3  501    0 -0.12020885526E+01  0.79955628117E+00 -0.15451476033E+02  0.15518776329E+02  0.00000000000E+00 0.  1.
         -1    1    1    2    0  502  0.22496967985E+02 -0.31911547076E+02 -0.64076047497E+03  0.64194894399E+03  0.00000000000E+00 0. -1.
<mgrwt>
<rscale>  1 0.30000000E+03</rscale>
<asrwt>0</asrwt>
<pdfrwt beam="1">  1       21 0.60488391E-02 0.30000000E+03</pdfrwt>
<pdfrwt beam="2">0</pdfrwt>
<totfact> 0.20779055E+04</totfact>
</mgrwt>
</event>
<event>
 6    1  0.6377696E-002  0.3000000E+03  0.7818608E-02  0.1093470E+00
         21   -1    0    0  501  502  0.00000000000E+00  0.00000000000E+00  0.10650980511E+01  0.10650980511E+01  0.00000000000E+00 0. -1.
         13   -1    0    0    0    0 -0.00000000000E+00 -0.00000000000E+00 -0.10000000000E+04  0.10000000000E+04  0.00000000000E+00 0.  1.
    9000005    2    1    2  501    0  0.11564471350E+02 -0.29621158604E+02 -0.59842161647E+03  0.59929147786E+03  0.55402477336E+01 0.  0.
         13    1    3    3    0    0  0.53230959234E+01 -0.20804889200E+02 -0.39638717456E+03  0.39696847598E+03  0.00000000000E+00 0.  1.
          1    1    3    3  501    0  0.62413754262E+01 -0.88162694045E+01 -0.20203444191E+03  0.20232300188E+03  0.00000000000E+00 0.  1.
         -3    1    1    2    0  502 -0.11564471350E+02  0.29621158604E+02 -0.40051328548E+03  0.40177362019E+03  0.00000000000E+00 0. -1.
<mgrwt>
<rscale>  1 0.30000000E+03</rscale>
<asrwt>0</asrwt>
<pdfrwt beam="1">  1       21 0.38730920E-02 0.30000000E+03</pdfrwt>
<pdfrwt beam="2">0</pdfrwt>
<totfact> 0.44391536E+04</totfact>
</mgrwt>
</event>
<event>
 6    1  0.6377696E-002  0.3000000E+03  0.7818608E-02  0.1093470E+00
         21   -1    0    0  501  502  0.00000000000E+00  0.00000000000E+00  0.28687422993E+01  0.28687422993E+01  0.00000000000E+00 0. -1.
         13   -1    0    0    0    0 -0.00000000000E+00 -0.00000000000E+00 -0.10000000000E+04  0.10000000000E+04  0.00000000000E+00 0.  1.
    9000005    2    1    2  501    0 -0.48470102261E+02 -0.18113457747E+02 -0.37132389556E+03  0.37492582875E+03  0.32393651923E+01 0.  0.
         13    1    3    3    0    0 -0.47059267318E+02 -0.17158806102E+02 -0.35574950263E+03  0.35925855298E+03  0.00000000000E+00 0.  1.
          1    1    3    3  501    0 -0.14108349423E+01 -0.95465164506E+00 -0.15574392926E+02  0.15667275768E+02  0.00000000000E+00 0.  1.
         -1    1    1    2    0  502  0.48470102261E+02  0.18113457747E+02 -0.62580736214E+03  0.62794291355E+03  0.00000000000E+00 0. -1.
<mgrwt>
<rscale>  1 0.30000000E+03</rscale>
<asrwt>0</asrwt>
<pdfrwt beam="1">  1       21 0.10431812E-01 0.30000000E+03</pdfrwt>
<pdfrwt beam="2">0</pdfrwt>
<totfact> 0.79764626E+03</totfact>
</mgrwt>
</event>
<event>
 6    1  0.6377696E-002  0.3000000E+03  0.7818608E-02  0.1093470E+00
         21   -1    0    0  501  502  0.00000000000E+00  0.00000000000E+00  0.11028873537E+01  0.11028873537E+01  0.00000000000E+00 0. -1.
         13   -1    0    0    0    0 -0.00000000000E+00 -0.00000000000E+00 -0.10000000000E+04  0.10000000000E+04  0.00000000000E+00 0.  1.
    9000005    2    1    2  501    0  0.32999791141E+02  0.85466207569E+00 -0.47194022574E+03  0.47311304150E+03  0.43193410150E+01 0.  0.
         13    1    3    3    0    0  0.65325316292E+00 -0.17844725315E+00 -0.41705822927E+01  0.42252029273E+01  0.00000000000E+00 0.  1.
          3    1    3    3  501    0  0.32346537978E+02  0.10331093288E+01 -0.46776964345E+03  0.46888783858E+03  0.00000000000E+00 0.  1.
         -3    1    1    2    0  502 -0.32999791141E+02 -0.85466207569E+00 -0.52695688691E+03  0.52798984585E+03  0.00000000000E+00 0. -1.
<mgrwt>
<rscale>  1 0.30000000E+03</rscale>
<asrwt>0</asrwt>
<pdfrwt beam="1">  1       21 0.40105079E-02 0.30000000E+03</pdfrwt>
<pdfrwt beam="2">0</pdfrwt>
<totfact> 0.41861951E+04</totfact>
</mgrwt>
</event>
<event>
 6    1  0.6377696E-002  0.3000000E+03  0.7818608E-02  0.1093470E+00
         21   -1    0    0  501  502  0.00000000000E+00  0.00000000000E+00  0.36978837960E+01  0.36978837960E+01  0.00000000000E+00 0. -1.
         13   -1    0    0    0    0 -0.00000000000E+00 -0.00000000000E+00 -0.10000000000E+04  0.10000000000E+04  0.00000000000E+00 0.  1.
    9000005    2    1    2  501    0  0.37169573699E+02 -0.38811167861E+02 -0.73150588372E+03  0.73350364126E+03  0.62329664675E+01 0.  0.
         13    1    3    3    0    0  0.32923841740E+02 -0.36705604957E+02 -0.67590532515E+03  0.67770147510E+03  0.00000000000E+00 0.  1.
          1    1    3    3  501    0  0.42457319593E+01 -0.21055629036E+01 -0.55600558571E+02  0.55802166162E+02  0.00000000000E+00 0.  1.
         -3    1    1    2    0  502 -0.37169573699E+02  0.38811167861E+02 -0.26479623248E+03  0.27019424253E+03  0.00000000000E+00 0. -1.
<mgrwt>
<rscale>  1 0.30000000E+03</rscale>
<asrwt>0</asrwt>
<pdfrwt beam="1">  1       21 0.13446879E-01 0.30000000E+03</pdfrwt>
<pdfrwt beam="2">0</pdfrwt>
<totfact> 0.50355253E+03</totfact>
</mgrwt>
</event>
<event>
 6    1  0.6377696E-002  0.3000000E+03  0.7818608E-02  0.1093470E+00
         21   -1    0    0  501  502  0.00000000000E+00  0.00000000000E+00  0.15596775858E+01  0.15596775858E+01  0.00000000000E+00 0. -1.
         13   -1    0    0    0    0 -0.00000000000E+00 -0.00000000000E+00 -0.10000000000E+04  0.10000000000E+04  0.00000000000E+00 0.  1.
    9000005    2    1    2  501    0  0.64802435628E+01  0.38797699428E+02 -0.52015316565E+03  0.52165775076E+03  0.44986846285E+01 0.  0.
         13    1    3    3    0    0  0.59943236379E+01  0.34769453400E+02 -0.48194360457E+03  0.48323336473E+03  0.00000000000E+00 0.  1.
          1    1    3    3  501    0  0.48591992495E+00  0.40282460276E+01 -0.38209561078E+02  0.38424386033E+02  0.00000000000E+00 0.  1.
         -1    1    1    2    0  502 -0.64802435628E+01 -0.38797699428E+02 -0.47828715677E+03  0.47990192682E+03  0.00000000000E+00 0. -1.
<mgrwt>
<rscale>  1 0.30000000E+03</rscale>
<asrwt>0</asrwt>
<pdfrwt beam="1">  1       21 0.56715668E-02 0.30000000E+03</pdfrwt>
<pdfrwt beam="2">0</pdfrwt>
<totfact> 0.23217005E+04</totfact>
</mgrwt>
</event>
<event>
 6    1  0.6377696E-002  0.3000000E+03  0.7818608E-02  0.1093470E+00
         21   -1    0    0  501  502  0.00000000000E+00  0.00000000000E+00  0.17409469938E+01  0.17409469938E+01  0.00000000000E+00 0. -1.
         13   -1    0    0    0    0 -0.00000000000E+00 -0.00000000000E+00 -0.10000000000E+04  0.10000000000E+04  0.00000000000E+00 0.  1.
    9000005    2    1    2  501    0 -0.14756950637E+02 -0.38723713566E+02 -0.52318351962E+03  0.52486144858E+03  0.64227268231E+01 0.  0.
         13    1    3    3    0    0 -0.36370880650E+01 -0.14686603387E+02 -0.22246077796E+03  0.22297471260E+03  0.00000000000E+00 0.  1.
          1    1    3    3  501    0 -0.11119862572E+02 -0.24037110180E+02 -0.30072274166E+03  0.30188673598E+03  0.00000000000E+00 0.  1.
         -3    1    1    2    0  502  0.14756950637E+02  0.38723713566E+02 -0.47507553339E+03  0.47687949842E+03  0.00000000000E+00 0. -1.
<mgrwt>
<rscale>  1 0.30000000E+03</rscale>
<asrwt>0</asrwt>
<pdfrwt beam="1">  1       21 0.63307297E-02 0.30000000E+03</pdfrwt>
<pdfrwt beam="2">0</pdfrwt>
<totfact> 0.19207171E+04</totfact>
</mgrwt>
</event>
<event>
 6    1  0.6377696E-002  0.3000000E+03  0.7818608E-02  0.1093470E+00
         21   -1    0    0  501  502  0.00000000000E+00  0.00000000000E+00  0.14721362347E+01  0.14721362347E+01  0.00000000000E+00 0. -1.
         13   -1    0    0    0    0 -0.00000000000E+00 -0.00000000000E+00 -0.10000000000E+04  0.10000000000E+04  0.00000000000E+00 0.  1.
    9000005    2    1    2  501    0 -0.30299211216E+02 -0.17791979931E+02 -0.30273526045E+03  0.30479291050E+03  0.39349228266E+01 0.  0.
         13    1    3    3    0    0 -0.45640835430E+01 -0.11416086170E+01 -0.40323658424E+02  0.40597186572E+02  0.00000000000E+00 0.  1.
          1    1    3    3  501    0 -0.25735127673E+02 -0.16650371314E+02 -0.26241160203E+03  0.26419572393E+03  0.00000000000E+00 0.  1.
         -3    1    1    2    0  502  0.30299211216E+02  0.17791979931E+02 -0.69579260331E+03  0.69667922574E+03  0.00000000000E+00 0. -1.
<mgrwt>
<rscale>  1 0.30000000E+03</rscale>
<asrwt>0</asrwt>
<pdfrwt beam="1">  1       21 0.53532340E-02 0.30000000E+03</pdfrwt>
<pdfrwt beam="2">0</pdfrwt>
<totfact> 0.25634779E+04</totfact>
</mgrwt>
</event>
<event>
 6    1  0.6377696E-002  0.3000000E+03  0.7818608E-02  0.1093470E+00
         21   -1    0    0  501  502  0.00000000000E+00  0.00000000000E+00  0.18131997094E+01  0.18131997094E+01  0.00000000000E+00 0. -1.
         13   -1    0    0    0    0 -0.00000000000E+00 -0.00000000000E+00 -0.10000000000E+04  0.10000000000E+04  0.00000000000E+00 0.  1.
    9000005    2    1    2  501    0  0.39391471741E+01  0.34523739053E+02 -0.21150764055E+03  0.21436700739E+03  0.32134723877E+01 0.  0.
         13    1    3    3    0    0  0.31606537800E+00  0.37915264332E+01 -0.17685934075E+02  0.18090545434E+02  0.00000000000E+00 0.  1.
          3    1    3    3  501    0  0.36230817961E+01  0.30732212620E+02 -0.19382170648E+03  0.19627646195E+03  0.00000000000E+00 0.  1.
         -3    1    1    2    0  502 -0.39391471741E+01 -0.34523739053E+02 -0.78667915974E+03  0.78744619232E+03  0.00000000000E+00 0. -1.
<mgrwt>
<rscale>  1 0.30000000E+03</rscale>
<asrwt>0</asrwt>
<pdfrwt beam="1">  1       21 0.65934674E-02 0.30000000E+03</pdfrwt>
<pdfrwt beam="2">0</pdfrwt>
<totfact> 0.17901813E+04</totfact>
</mgrwt>
</event>
<event>
 6    1  0.6377696E-002  0.3000000E+03  0.7818608E-02  0.1093470E+00
         21   -1    0    0  501  502  0.00000000000E+00  0.00000000000E+00  0.15132782668E+01  0.15132782668E+01  0.00000000000E+00 0. -1.
         13   -1    0    0    0    0 -0.00000000000E+00 -0.00000000000E+00 -0.10000000000E+04  0.10000000000E+04  0.00000000000E+00 0.  1.
    9000005    2    1    2  501    0 -0.15655471495E+02 -0.31005386197E+02 -0.27667006885E+03  0.27886142008E+03  0.33070909668E+01 0.  0.
         13    1    3    3    0    0 -0.12385019744E+01 -0.50059024936E+01 -0.42560828465E+02  0.42872101261E+02  0.00000000000E+00 0.  1.
          1    1    3    3  501    0 -0.14416969521E+02 -0.25999483704E+02 -0.23410924038E+03  0.23598931882E+03  0.00000000000E+00 0.  1.
         -1    1    1    2    0  502  0.15655471495E+02  0.31005386197E+02 -0.72181665288E+03  0.72265185819E+03  0.00000000000E+00 0. -1.
<mgrwt>
<rscale>  1 0.30000000E+03</rscale>
<asrwt>0</asrwt>
<pdfrwt beam="1">  1       21 0.55028417E-02 0.30000000E+03</pdfrwt>
<pdfrwt beam="2">0</pdfrwt>
<totfact> 0.24452482E+04</totfact>
</mgrwt>
</event>
<event>
 6    1  0.6377696E-002  0.3000000E+03  0.7818608E-02  0.1093470E+00
         21   -1    0    0  501  502  0.00000000000E+00  0.00000000000E+00  0.45691085995E+01  0.45691085995E+01  0.00000000000E+00 0. -1.
         13   -1    0    0    0    0 -0.00000000000E+00 -0.00000000000E+00 -0.10000000000E+04  0.10000000000E+04  0.00000000000E+00 0.  1.
    9000005    2    1    2  501    0  0.47894922926E+02 -0.27404995979E+02 -0.78753126163E+03  0.78947096006E+03  0.37351420047E+01 0.  0.
         13    1    3    3    0    0  0.28244353935E+02 -0.14981917943E+02 -0.47767427180E+03  0.47874305356E+03  0.00000000000E+00 0.  1.
          1    1    3    3  501    0  0.19650568990E+02 -0.12423078036E+02 -0.30985698984E+03  0.31072790650E+03  0.00000000000E+00 0.  1.
         -1    1    1    2    0  502 -0.47894922926E+02  0.27404995979E+02 -0.20789962977E+03  0.21509814854E+03  0.00000000000E+00 0. -1.
<mgrwt>
<rscale>  1 0.30000000E+03</rscale>
<asrwt>0</asrwt>
<pdfrwt beam="1">  1       21 0.16614975E-01 0.30000000E+03</pdfrwt>
<pdfrwt beam="2">0</pdfrwt>
<totfact> 0.34043657E+03</totfact>
</mgrwt>
</event>
<event>
 6    1  0.6377696E-002  0.3000000E+03  0.7818608E-02  0.1093470E+00
         21   -1    0    0  501  502  0.00000000000E+00  0.00000000000E+00  0.99696933635E+00  0.99696933635E+00  0.00000000000E+00 0. -1.
         13   -1    0    0    0    0 -0.00000000000E+00 -0.00000000000E+00 -0.10000000000E+04  0.10000000000E+04  0.00000000000E+00 0.  1.
    9000005    2    1    2  501    0 -0.10946114219E+02 -0.29523074211E+02 -0.49066962534E+03  0.49168932135E+03  0.32059589889E+01 0.  0.
         13    1    3    3    0    0 -0.37188590948E+01 -0.64639844193E+01 -0.10728168288E+03  0.10754056206E+03  0.00000000000E+00 0.  1.
          1    1    3    3  501    0 -0.72272551238E+01 -0.23059089791E+02 -0.38338794246E+03  0.38414875929E+03  0.00000000000E+00 0.  1.
         -1    1    1    2    0  502  0.10946114219E+02  0.29523074211E+02 -0.50833340533E+03  0.50930764799E+03  0.00000000000E+00 0. -1.
<mgrwt>
<rscale>  1 0.30000000E+03</rscale>
<asrwt>0</asrwt>
<pdfrwt beam="1">  1       21 0.36253507E-02 0.30000000E+03</pdfrwt>
<pdfrwt beam="2">0</pdfrwt>
<totfact> 0.49603096E+04</totfact>
</mgrwt>
</event>
<event>
 6    1  0.6377696E-002  0.3000000E+03  0.7818608E-02  0.1093470E+00
         21   -1    0    0  501  502  0.00000000000E+00  0.00000000000E+00  0.16906030413E+01  0.16906030413E+01  0.00000000000E+00 0. -1.
         13   -1    0    0    0    0 -0.00000000000E+00 -0.00000000000E+00 -0.10000000000E+04  0.10000000000E+04  0.00000000000E+00 0.  1.
    9000005    2    1    2  501    0 -0.38353948096E+02  0.53113359091E+01 -0.34277654035E+03  0.34501521770E+03  0.63646055996E+01 0.  0.
         13    1    3    3    0    0 -0.29385615821E+02  0.13496672523E+01 -0.26160853602E+03  0.26325721669E+03  0.00000000000E+00 0.  1.
          1    1    3    3  501    0 -0.89683322755E+01  0.39616686568E+01 -0.81168004330E+02  0.81758001011E+02  0.00000000000E+00 0.  1.
         -3    1    1    2    0  502  0.38353948096E+02 -0.53113359091E+01 -0.65553285661E+03  0.65667538534E+03  0.00000000000E+00 0. -1.
<mgrwt>
<rscale>  1 0.30000000E+03</rscale>
<asrwt>0</asrwt>
<pdfrwt beam="1">  1       21 0.61476604E-02 0.30000000E+03</pdfrwt>
<pdfrwt beam="2">0</pdfrwt>
<totfact> 0.20205978E+04</totfact>
</mgrwt>
</event>
<event>
 6    1  0.6377696E-002  0.3000000E+03  0.7818608E-02  0.1093470E+00
         21   -1    0    0  501  502  0.00000000000E+00  0.00000000000E+00  0.26606274311E+01  0.26606274311E+01  0.00000000000E+00 0. -1.
         13   -1    0    0    0    0 -0.00000000000E+00 -0.00000000000E+00 -0.10000000000E+04  0.10000000000E+04  0.00000000000E+00 0.  1.
    9000005    2    1    2  501    0  0.53641031837E+00  0.44729129282E+02 -0.25093446881E+03  0.25491651137E+03  0.36520394205E+01 0.  0.
         13    1    3    3    0    0  0.20981733070E+01  0.28447043441E+02 -0.15930629728E+03  0.16183983739E+03  0.00000000000E+00 0.  1.
          3    1    3    3  501    0 -0.15617629887E+01  0.16282085841E+02 -0.91628171524E+02  0.93076673984E+02  0.00000000000E+00 0.  1.
         -1    1    1    2    0  502 -0.53641031837E+00 -0.44729129282E+02 -0.74640490376E+03  0.74774411606E+03  0.00000000000E+00 0. -1.
<mgrwt>
<rscale>  1 0.30000000E+03</rscale>
<asrwt>0</asrwt>
<pdfrwt beam="1">  1       21 0.96750292E-02 0.30000000E+03</pdfrwt>
<pdfrwt beam="2">0</pdfrwt>
<totfact> 0.91258391E+03</totfact>
</mgrwt>
</event>
<event>
 6    1  0.6377696E-002  0.3000000E+03  0.7818608E-02  0.1093470E+00
         21   -1    0    0  501  502  0.00000000000E+00  0.00000000000E+00  0.13203575649E+01  0.13203575649E+01  0.00000000000E+00 0. -1.
         13   -1    0    0    0    0 -0.00000000000E+00 -0.00000000000E+00 -0.10000000000E+04  0.10000000000E+04  0.00000000000E+00 0.  1.
    9000005    2    1    2  501    0 -0.19607934804E+02  0.29444630983E+02 -0.61021586955E+03  0.61124913299E+03  0.32615522932E+01 0.  0.
         13    1    3    3    0    0 -0.61970170897E+01  0.11248310530E+02 -0.24106325599E+03  0.24140509708E+03  0.00000000000E+00 0.  1.
          3    1    3    3  501    0 -0.13410917715E+02  0.18196320452E+02 -0.36915261356E+03  0.36984403590E+03  0.00000000000E+00 0.  1.
         -1    1    1    2    0  502  0.19607934804E+02 -0.29444630983E+02 -0.38846377288E+03  0.39007122458E+03  0.00000000000E+00 0. -1.
<mgrwt>
<rscale>  1 0.30000000E+03</rscale>
<asrwt>0</asrwt>
<pdfrwt beam="1">  1       21 0.48013104E-02 0.30000000E+03</pdfrwt>
<pdfrwt beam="2">0</pdfrwt>
<totfact> 0.30864203E+04</totfact>
</mgrwt>
</event>
<event>
 6    1  0.6377696E-002  0.3000000E+03  0.7818608E-02  0.1093470E+00
         21   -1    0    0  501  502  0.00000000000E+00  0.00000000000E+00  0.15961393026E+01  0.15961393026E+01  0.00000000000E+00 0. -1.
         13   -1    0    0    0    0 -0.00000000000E+00 -0.00000000000E+00 -0.10000000000E+04  0.10000000000E+04  0.00000000000E+00 0.  1.
    9000005    2    1    2  501    0 -0.14809977657E+02  0.36712936466E+02 -0.56113345415E+03  0.56253739200E+03  0.32231797699E+01 0.  0.
         13    1    3    3    0    0 -0.45662138664E+01  0.15509978459E+02 -0.23158099821E+03  0.23214471450E+03  0.00000000000E+00 0.  1.
          1    1    3    3  501    0 -0.10243763790E+02  0.21202958007E+02 -0.32955245594E+03  0.33039267750E+03  0.00000000000E+00 0.  1.
         -3    1    1    2    0  502  0.14809977657E+02 -0.36712936466E+02 -0.43727040654E+03  0.43905874730E+03  0.00000000000E+00 0. -1.
<mgrwt>
<rscale>  1 0.30000000E+03</rscale>
<asrwt>0</asrwt>
<pdfrwt beam="1">  1       21 0.58041552E-02 0.30000000E+03</pdfrwt>
<pdfrwt beam="2">0</pdfrwt>
<totfact> 0.22312037E+04</totfact>
</mgrwt>
</event>
<event>
 6    1  0.6377696E-002  0.3000000E+03  0.7818608E-02  0.1093470E+00
         21   -1    0    0  501  502  0.00000000000E+00  0.00000000000E+00  0.14017174831E+01  0.14017174831E+01  0.00000000000E+00 0. -1.
         13   -1    0    0    0    0 -0.00000000000E+00 -0.00000000000E+00 -0.10000000000E+04  0.10000000000E+04  0.00000000000E+00 0.  1.
    9000005    2    1    2  501    0  0.25146088169E+02 -0.27578349249E+02 -0.52441719841E+03  0.52575416769E+03  0.33400239276E+01 0.  0.
         13    1    3    3    0    0  0.63837025713E+01 -0.71631352411E+01 -0.15627337110E+03  0.15656764889E+03  0.00000000000E+00 0.  1.
          1    1    3    3  501    0  0.18762385598E+02 -0.20415214007E+02 -0.36814382731E+03  0.36918651880E+03  0.00000000000E+00 0.  1.
         -1    1    1    2    0  502 -0.25146088169E+02  0.27578349249E+02 -0.47418108410E+03  0.47564754979E+03  0.00000000000E+00 0. -1.
<mgrwt>
<rscale>  1 0.30000000E+03</rscale>
<asrwt>0</asrwt>
<pdfrwt beam="1">  1       21 0.50971652E-02 0.30000000E+03</pdfrwt>
<pdfrwt beam="2">0</pdfrwt>
<totfact> 0.27874458E+04</totfact>
</mgrwt>
</event>
<event>
 6    1  0.6377696E-002  0.3000000E+03  0.7818608E-02  0.1093470E+00
         21   -1    0    0  501  502  0.00000000000E+00  0.00000000000E+00  0.12640608765E+01  0.12640608765E+01  0.00000000000E+00 0. -1.
         13   -1    0    0    0    0 -0.00000000000E+00 -0.00000000000E+00 -0.10000000000E+04  0.10000000000E+04  0.00000000000E+00 0.  1.
    9000005    2    1    2  501    0 -0.26444363711E+02  0.23466053985E+02 -0.54249580239E+03  0.54365612560E+03  0.32136007311E+01 0.  0.
         13    1    3    3    0    0 -0.56390546939E+00  0.14846812311E+00 -0.14993540257E+02  0.15004875261E+02  0.00000000000E+00 0.  1.
          1    1    3    3  501    0 -0.25880458241E+02  0.23317585862E+02 -0.52750226213E+03  0.52865125034E+03  0.00000000000E+00 0.  1.
         -1    1    1    2    0  502  0.26444363711E+02 -0.23466053985E+02 -0.45624013673E+03  0.45760793528E+03  0.00000000000E+00 0. -1.
<mgrwt>
<rscale>  1 0.30000000E+03</rscale>
<asrwt>0</asrwt>
<pdfrwt beam="1">  1       21 0.45965947E-02 0.30000000E+03</pdfrwt>
<pdfrwt beam="2">0</pdfrwt>
<totfact> 0.33237576E+04</totfact>
</mgrwt>
</event>
<event>
 6    1  0.6377696E-002  0.3000000E+03  0.7818608E-02  0.1093470E+00
         21   -1    0    0  501  502  0.00000000000E+00  0.00000000000E+00  0.11220194268E+01  0.11220194268E+01  0.00000000000E+00 0. -1.
         13   -1    0    0    0    0 -0.00000000000E+00 -0.00000000000E+00 -0.10000000000E+04  0.10000000000E+04  0.00000000000E+00 0.  1.
    9000005    2    1    2  501    0 -0.30579999430E+02 -0.11648237619E+02 -0.59979565442E+03  0.60070034063E+03  0.39056835430E+01 0.  0.
         13    1    3    3    0    0 -0.26718559617E+02 -0.10968845606E+02 -0.54483720495E+03  0.54560221489E+03  0.00000000000E+00 0.  1.
          3    1    3    3  501    0 -0.38614398132E+01 -0.67939201286E+00 -0.54958449471E+02  0.55098125733E+02  0.00000000000E+00 0.  1.
         -3    1    1    2    0  502  0.30579999430E+02  0.11648237619E+02 -0.39908232615E+03  0.40042167880E+03  0.00000000000E+00 0. -1.
<mgrwt>
<rscale>  1 0.30000000E+03</rscale>
<asrwt>0</asrwt>
<pdfrwt beam="1">  1       21 0.40800792E-02 0.30000000E+03</pdfrwt>
<pdfrwt beam="2">0</pdfrwt>
<totfact> 0.40666213E+04</totfact>
</mgrwt>
</event>
<event>
 6    1  0.6377696E-002  0.3000000E+03  0.7818608E-02  0.1093470E+00
         21   -1    0    0  501  502  0.00000000000E+00  0.00000000000E+00  0.93768025592E+00  0.93768025592E+00  0.00000000000E+00 0. -1.
         13   -1    0    0    0    0 -0.00000000000E+00 -0.00000000000E+00 -0.10000000000E+04  0.10000000000E+04  0.00000000000E+00 0.  1.
    9000005    2    1    2  501    0 -0.17483341771E+02 -0.24888994532E+02 -0.54395235058E+03  0.54481246354E+03  0.33662208185E+01 0.  0.
         13    1    3    3    0    0 -0.12919693183E+02 -0.15711847978E+02 -0.35480750568E+03  0.35539013313E+03  0.00000000000E+00 0.  1.
          3    1    3    3  501    0 -0.45636485881E+01 -0.91771465543E+01 -0.18914484490E+03  0.18942233041E+03  0.00000000000E+00 0.  1.
         -1    1    1    2    0  502  0.17483341771E+02  0.24888994532E+02 -0.45510996916E+03  0.45612521671E+03  0.00000000000E+00 0. -1.
<mgrwt>
<rscale>  1 0.30000000E+03</rscale>
<asrwt>0</asrwt>
<pdfrwt beam="1">  1       21 0.34097536E-02 0.30000000E+03</pdfrwt>
<pdfrwt beam="2">0</pdfrwt>
<totfact> 0.54967234E+04</totfact>
</mgrwt>
</event>
<event>
 6    1  0.6377696E-002  0.3000000E+03  0.7818608E-02  0.1093470E+00
         21   -1    0    0  501  502  0.00000000000E+00  0.00000000000E+00  0.14133190777E+01  0.14133190777E+01  0.00000000000E+00 0. -1.
         13   -1    0    0    0    0 -0.00000000000E+00 -0.00000000000E+00 -0.10000000000E+04  0.10000000000E+04  0.00000000000E+00 0.  1.
    9000005    2    1    2  501    0 -0.36906465511E+02  0.60773181730E+01 -0.53393592035E+03  0.53525953512E+03  0.40226744715E+01 0.  0.
         13    1    3    3    0    0 -0.20439005328E+02  0.18067571510E+01 -0.31003772066E+03  0.31071595637E+03  0.00000000000E+00 0.  1.
          3    1    3    3  501    0 -0.16467460183E+02  0.42705610220E+01 -0.22389819969E+03  0.22454357875E+03  0.00000000000E+00 0.  1.
         -1    1    1    2    0  502  0.36906465511E+02 -0.60773181730E+01 -0.46465076058E+03  0.46615378396E+03  0.00000000000E+00 0. -1.
<mgrwt>
<rscale>  1 0.30000000E+03</rscale>
<asrwt>0</asrwt>
<pdfrwt beam="1">  1       21 0.51393529E-02 0.30000000E+03</pdfrwt>
<pdfrwt beam="2">0</pdfrwt>
<totfact> 0.27485051E+04</totfact>
</mgrwt>
</event>
<event>
 6    1  0.6377696E-002  0.3000000E+03  0.7818608E-02  0.1093470E+00
         21   -1    0    0  501  502  0.00000000000E+00  0.00000000000E+00  0.15685931352E+01  0.15685931352E+01  0.00000000000E+00 0. -1.
         13   -1    0    0    0    0 -0.00000000000E+00 -0.00000000000E+00 -0.10000000000E+04  0.10000000000E+04  0.00000000000E+00 0.  1.
    9000005    2    1    2  501    0  0.31051268020E+02  0.14773123578E+02 -0.74678272614E+03  0.74758141838E+03  0.33332613408E+01 0.  0.
         13    1    3    3    0    0 -0.46370113541E-01  0.19818718411E+00 -0.41548715016E+01  0.41598540290E+01  0.00000000000E+00 0.  1.
          3    1    3    3  501    0  0.31097638133E+02  0.14574936394E+02 -0.74262785463E+03  0.74342156435E+03  0.00000000000E+00 0.  1.
         -1    1    1    2    0  502 -0.31051268020E+02 -0.14773123578E+02 -0.25164868073E+03  0.25398717475E+03  0.00000000000E+00 0. -1.
<mgrwt>
<rscale>  1 0.30000000E+03</rscale>
<asrwt>0</asrwt>
<pdfrwt beam="1">  1       21 0.57039871E-02 0.30000000E+03</pdfrwt>
<pdfrwt beam="2">0</pdfrwt>
<totfact> 0.22990600E+04</totfact>
</mgrwt>
</event>
<event>
 6    1  0.6377696E-002  0.3000000E+03  0.7818608E-02  0.1093470E+00
         21   -1    0    0  501  502  0.00000000000E+00  0.00000000000E+00  0.17990337211E+01  0.17990337211E+01  0.00000000000E+00 0. -1.
         13   -1    0    0    0    0 -0.00000000000E+00 -0.00000000000E+00 -0.10000000000E+04  0.10000000000E+04  0.00000000000E+00 0.  1.
    9000005    2    1    2  501    0  0.26276335780E+02 -0.22402218767E+02 -0.21037519102E+03  0.21321691537E+03  0.33803511071E+01 0.  0.
         13    1    3    3    0    0  0.19568192242E+02 -0.14934214555E+02 -0.14466176768E+03  0.14674117330E+03  0.00000000000E+00 0.  1.
          1    1    3    3  501    0  0.67081435383E+01 -0.74680042112E+01 -0.65713423343E+02  0.66475742072E+02  0.00000000000E+00 0.  1.
         -1    1    1    2    0  502 -0.26276335780E+02  0.22402218767E+02 -0.78782577526E+03  0.78858211835E+03  0.00000000000E+00 0. -1.
<mgrwt>
<rscale>  1 0.30000000E+03</rscale>
<asrwt>0</asrwt>
<pdfrwt beam="1">  1       21 0.65419546E-02 0.30000000E+03</pdfrwt>
<pdfrwt beam="2">0</pdfrwt>
<totfact> 0.18146731E+04</totfact>
</mgrwt>
</event>
<event>
 6    1  0.6377696E-002  0.3000000E+03  0.7818608E-02  0.1093470E+00
         21   -1    0    0  501  502  0.00000000000E+00  0.00000000000E+00  0.26598844792E+01  0.26598844792E+01  0.00000000000E+00 0. -1.
         13   -1    0    0    0    0 -0.00000000000E+00 -0.00000000000E+00 -0.10000000000E+04  0.10000000000E+04  0.00000000000E+00 0.  1.
    9000005    2    1    2  501    0 -0.36783889895E+01  0.46235430603E+02 -0.28367761906E+03  0.28749178924E+03  0.52241495125E+01 0.  0.
         13    1    3    3    0    0 -0.46959160162E+01  0.40641779874E+02 -0.25413243982E+03  0.25740455098E+03  0.00000000000E+00 0.  1.
          1    1    3    3  501    0  0.10175270267E+01  0.55936507294E+01 -0.29545179244E+02  0.30087238263E+02  0.00000000000E+00 0.  1.
         -3    1    1    2    0  502  0.36783889895E+01 -0.46235430603E+02 -0.71366249646E+03  0.71516809524E+03  0.00000000000E+00 0. -1.
<mgrwt>
<rscale>  1 0.30000000E+03</rscale>
<asrwt>0</asrwt>
<pdfrwt beam="1">  1       21 0.96723276E-02 0.30000000E+03</pdfrwt>
<pdfrwt beam="2">0</pdfrwt>
<totfact> 0.91303858E+03</totfact>
</mgrwt>
</event>
<event>
 6    1  0.6377696E-002  0.3000000E+03  0.7818608E-02  0.1093470E+00
         21   -1    0    0  501  502  0.00000000000E+00  0.00000000000E+00  0.11709459519E+01  0.11709459519E+01  0.00000000000E+00 0. -1.
         13   -1    0    0    0    0 -0.00000000000E+00 -0.00000000000E+00 -0.10000000000E+04  0.10000000000E+04  0.00000000000E+00 0.  1.
    9000005    2    1    2  501    0 -0.10049529313E+02  0.32285721336E+02 -0.42971322435E+03  0.43105149492E+03  0.29283514993E+01 0.  0.
         13    1    3    3    0    0 -0.78333055267E+01  0.27052731740E+02 -0.36874121113E+03  0.36981521298E+03  0.00000000000E+00 0.  1.
          3    1    3    3  501    0 -0.22162237858E+01  0.52329895967E+01 -0.60972013226E+02  0.61236281932E+02  0.00000000000E+00 0.  1.
         -3    1    1    2    0  502  0.10049529313E+02 -0.32285721336E+02 -0.56911582969E+03  0.57011945104E+03  0.00000000000E+00 0. -1.
<mgrwt>
<rscale>  1 0.30000000E+03</rscale>
<asrwt>0</asrwt>
<pdfrwt beam="1">  1       21 0.42579943E-02 0.30000000E+03</pdfrwt>
<pdfrwt beam="2">0</pdfrwt>
<totfact> 0.37839578E+04</totfact>
</mgrwt>
</event>
<event>
 6    1  0.6377696E-002  0.3000000E+03  0.7818608E-02  0.1093470E+00
         21   -1    0    0  501  502  0.00000000000E+00  0.00000000000E+00  0.12425231516E+01  0.12425231516E+01  0.00000000000E+00 0. -1.
         13   -1    0    0    0    0 -0.00000000000E+00 -0.00000000000E+00 -0.10000000000E+04  0.10000000000E+04  0.00000000000E+00 0.  1.
    9000005    2    1    2  501    0  0.34042317447E+02 -0.85114389203E+01 -0.47344062230E+03  0.47475499088E+03  0.38671110024E+01 0.  0.
         13    1    3    3    0    0  0.17400971607E+01  0.35904904920E+00 -0.20043852462E+02  0.20122447064E+02  0.00000000000E+00 0.  1.
          1    1    3    3  501    0  0.32302220287E+02 -0.88704879695E+01 -0.45339676984E+03  0.45463254381E+03  0.00000000000E+00 0.  1.
         -3    1    1    2    0  502 -0.34042317447E+02  0.85114389203E+01 -0.52531685454E+03  0.52648753227E+03  0.00000000000E+00 0. -1.
<mgrwt>
<rscale>  1 0.30000000E+03</rscale>
<asrwt>0</asrwt>
<pdfrwt beam="1">  1       21 0.45182755E-02 0.30000000E+03</pdfrwt>
<pdfrwt beam="2">0</pdfrwt>
<totfact> 0.34221975E+04</totfact>
</mgrwt>
</event>
<event>
 6    1  0.6377696E-002  0.3000000E+03  0.7818608E-02  0.1093470E+00
         21   -1    0    0  501  502  0.00000000000E+00  0.00000000000E+00  0.88902417577E+01  0.88902417577E+01  0.00000000000E+00 0. -1.
         13   -1    0    0    0    0 -0.00000000000E+00 -0.00000000000E+00 -0.10000000000E+04  0.10000000000E+04  0.00000000000E+00 0.  1.
    9000005    2    1    2  501    0  0.37436202224E+02 -0.84276635180E+02 -0.60047344193E+03  0.60751666005E+03  0.20291120080E+01 0.  0.
         13    1    3    3    0    0  0.20338002209E+02 -0.44779305782E+02 -0.31412413345E+03  0.31795092667E+03  0.00000000000E+00 0.  1.
          1    1    3    3  501    0  0.17098200015E+02 -0.39497329399E+02 -0.28634930849E+03  0.28956573337E+03  0.00000000000E+00 0.  1.
         -1    1    1    2    0  502 -0.37436202224E+02  0.84276635180E+02 -0.39063631631E+03  0.40137358171E+03  0.00000000000E+00 0. -1.
<mgrwt>
<rscale>  1 0.30000000E+03</rscale>
<asrwt>0</asrwt>
<pdfrwt beam="1">  1       21 0.32328220E-01 0.30000000E+03</pdfrwt>
<pdfrwt beam="2">0</pdfrwt>
<totfact> 0.93545267E+02</totfact>
</mgrwt>
</event>
<event>
 6    1  0.6377696E-002  0.3000000E+03  0.7818608E-02  0.1093470E+00
         21   -1    0    0  501  502  0.00000000000E+00  0.00000000000E+00  0.16680047179E+01  0.16680047179E+01  0.00000000000E+00 0. -1.
         13   -1    0    0    0    0 -0.00000000000E+00 -0.00000000000E+00 -0.10000000000E+04  0.10000000000E+04  0.00000000000E+00 0.  1.
    9000005    2    1    2  501    0  0.40529030978E+01  0.39729349801E+02 -0.59186080395E+03  0.59323970422E+03  0.62680267845E+01 0.  0.
         13    1    3    3    0    0 -0.36588393548E+00  0.55043383098E+01 -0.11474741562E+03  0.11487994169E+03  0.00000000000E+00 0.  1.
          3    1    3    3  501    0  0.44187870333E+01  0.34225011491E+02 -0.47711338833E+03  0.47835976253E+03  0.00000000000E+00 0.  1.
         -1    1    1    2    0  502 -0.40529030978E+01 -0.39729349801E+02 -0.40647119133E+03  0.40842830049E+03  0.00000000000E+00 0. -1.
<mgrwt>
<rscale>  1 0.30000000E+03</rscale>
<asrwt>0</asrwt>
<pdfrwt beam="1">  1       21 0.60654845E-02 0.30000000E+03</pdfrwt>
<pdfrwt beam="2">0</pdfrwt>
<totfact> 0.20680770E+04</totfact>
</mgrwt>
</event>
<event>
 6    1  0.6377696E-002  0.3000000E+03  0.7818608E-02  0.1093470E+00
         21   -1    0    0  501  502  0.00000000000E+00  0.00000000000E+00  0.78115405783E+01  0.78115405783E+01  0.00000000000E+00 0. -1.
         13   -1    0    0    0    0 -0.00000000000E+00 -0.00000000000E+00 -0.10000000000E+04  0.10000000000E+04  0.00000000000E+00 0.  1.
    9000005    2    1    2  501    0 -0.66094235420E+02 -0.51974181722E+02 -0.65099517267E+03  0.65641059800E+03  0.32240973406E+01 0.  0.
         13    1    3    3    0    0 -0.14614578831E+02 -0.12622504537E+02 -0.15760584130E+03  0.15878449152E+03  0.00000000000E+00 0.  1.
          3    1    3    3  501    0 -0.51479656589E+02 -0.39351677185E+02 -0.49338933137E+03  0.49762610648E+03  0.00000000000E+00 0.  1.
         -1    1    1    2    0  502  0.66094235420E+02  0.51974181722E+02 -0.34119328675E+03  0.35140094258E+03  0.00000000000E+00 0. -1.
<mgrwt>
<rscale>  1 0.30000000E+03</rscale>
<asrwt>0</asrwt>
<pdfrwt beam="1">  1       21 0.28405662E-01 0.30000000E+03</pdfrwt>
<pdfrwt beam="2">0</pdfrwt>
<totfact> 0.12122971E+03</totfact>
</mgrwt>
</event>
<event>
 6    1  0.6377696E-002  0.3000000E+03  0.7818608E-02  0.1093470E+00
         21   -1    0    0  501  502  0.00000000000E+00  0.00000000000E+00  0.28913206827E+01  0.28913206827E+01  0.00000000000E+00 0. -1.
         13   -1    0    0    0    0 -0.00000000000E+00 -0.00000000000E+00 -0.10000000000E+04  0.10000000000E+04  0.00000000000E+00 0.  1.
    9000005    2    1    2  501    0  0.38833482961E+02 -0.15311576408E+02 -0.81434304527E+03  0.81541929407E+03  0.33979409051E+01 0.  0.
         13    1    3    3    0    0  0.11394595227E+02 -0.38971028538E+01 -0.20784183703E+03  0.20819042588E+03  0.00000000000E+00 0.  1.
          3    1    3    3  501    0  0.27438887734E+02 -0.11414473554E+02 -0.60650120824E+03  0.60722886819E+03  0.00000000000E+00 0.  1.
         -3    1    1    2    0  502 -0.38833482961E+02  0.15311576408E+02 -0.18276563405E+03  0.18747202661E+03  0.00000000000E+00 0. -1.
<mgrwt>
<rscale>  1 0.30000000E+03</rscale>
<asrwt>0</asrwt>
<pdfrwt beam="1">  1       21 0.10513916E-01 0.30000000E+03</pdfrwt>
<pdfrwt beam="2">0</pdfrwt>
<totfact> 0.78651730E+03</totfact>
</mgrwt>
</event>
<event>
 6    1  0.6377696E-002  0.3000000E+03  0.7818608E-02  0.1093470E+00
         21   -1    0    0  501  502  0.00000000000E+00  0.00000000000E+00  0.13036357055E+01  0.13036357055E+01  0.00000000000E+00 0. -1.
         13   -1    0    0    0    0 -0.00000000000E+00 -0.00000000000E+00 -0.10000000000E+04  0.10000000000E+04  0.00000000000E+00 0.  1.
    9000005    2    1    2  501    0  0.15119716177E+01 -0.35775967000E+02 -0.44354500585E+03  0.44499865042E+03  0.30693299542E+01 0.  0.
         13    1    3    3    0    0  0.17751069717E+01 -0.97008345705E+01 -0.12307735428E+03  0.12347182809E+03  0.00000000000E+00 0.  1.
          3    1    3    3  501    0 -0.26313535399E+00 -0.26075132430E+02 -0.32046765157E+03  0.32152682233E+03  0.00000000000E+00 0.  1.
         -3    1    1    2    0  502 -0.15119716177E+01  0.35775967000E+02 -0.55515135845E+03  0.55630498529E+03  0.00000000000E+00 0. -1.
<mgrwt>
<rscale>  1 0.30000000E+03</rscale>
<asrwt>0</asrwt>
<pdfrwt beam="1">  1       21 0.47405035E-02 0.30000000E+03</pdfrwt>
<pdfrwt beam="2">0</pdfrwt>
<totfact> 0.31540727E+04</totfact>
</mgrwt>
</event>
<event>
 6    1  0.6377696E-002  0.3000000E+03  0.7818608E-02  0.1093470E+00
         21   -1    0    0  501  502  0.00000000000E+00  0.00000000000E+00  0.57248767097E+01  0.57248767097E+01  0.00000000000E+00 0. -1.
         13   -1    0    0    0    0 -0.00000000000E+00 -0.00000000000E+00 -0.10000000000E+04  0.10000000000E+04  0.00000000000E+00 0.  1.
    9000005    2    1    2  501    0 -0.71060117898E+01  0.73673661154E+02 -0.60044483678E+03  0.60499978600E+03  0.35263711023E+01 0.  0.
         13    1    3    3    0    0 -0.41437585499E+01  0.25555538481E+02 -0.21128704293E+03  0.21286726097E+03  0.00000000000E+00 0.  1.
          1    1    3    3  501    0 -0.29622532399E+01  0.48118122673E+02 -0.38915779384E+03  0.39213252503E+03  0.00000000000E+00 0.  1.
         -1    1    1    2    0  502  0.71060117898E+01 -0.73673661154E+02 -0.39383028651E+03  0.40072509071E+03  0.00000000000E+00 0. -1.
<mgrwt>
<rscale>  1 0.30000000E+03</rscale>
<asrwt>0</asrwt>
<pdfrwt beam="1">  1       21 0.20817777E-01 0.30000000E+03</pdfrwt>
<pdfrwt beam="2">0</pdfrwt>
<totfact> 0.22222248E+03</totfact>
</mgrwt>
</event>
<event>
 6    1  0.6377696E-002  0.3000000E+03  0.7818608E-02  0.1093470E+00
         21   -1    0    0  501  502  0.00000000000E+00  0.00000000000E+00  0.20701829830E+01  0.20701829830E+01  0.00000000000E+00 0. -1.
         13   -1    0    0    0    0 -0.00000000000E+00 -0.00000000000E+00 -0.10000000000E+04  0.10000000000E+04  0.00000000000E+00 0.  1.
    9000005    2    1    2  501    0  0.16341136698E+02 -0.36272324435E+02 -0.74137220873E+03  0.74244637699E+03  0.33401436244E+01 0.  0.
         13    1    3    3    0    0  0.15757001672E+02 -0.35522372117E+02 -0.71295486304E+03  0.71401313626E+03  0.00000000000E+00 0.  1.
          1    1    3    3  501    0  0.58413502581E+00 -0.74995231889E+00 -0.28417345685E+02  0.28433240722E+02  0.00000000000E+00 0.  1.
         -3    1    1    2    0  502 -0.16341136698E+02  0.36272324435E+02 -0.25655760829E+03  0.25962380600E+03  0.00000000000E+00 0. -1.
<mgrwt>
<rscale>  1 0.30000000E+03</rscale>
<asrwt>0</asrwt>
<pdfrwt beam="1">  1       21 0.75279540E-02 0.30000000E+03</pdfrwt>
<pdfrwt beam="2">0</pdfrwt>
<totfact> 0.14211583E+04</totfact>
</mgrwt>
</event>
<event>
 6    1  0.6377696E-002  0.3000000E+03  0.7818608E-02  0.1093470E+00
         21   -1    0    0  501  502  0.00000000000E+00  0.00000000000E+00  0.11919913736E+01  0.11919913736E+01  0.00000000000E+00 0. -1.
         13   -1    0    0    0    0 -0.00000000000E+00 -0.00000000000E+00 -0.10000000000E+04  0.10000000000E+04  0.00000000000E+00 0.  1.
    9000005    2    1    2  501    0  0.29455985608E+02 -0.98093795353E+01 -0.28635694639E+03  0.28806479718E+03  0.41409677810E+01 0.  0.
         13    1    3    3    0    0  0.11458774286E+01 -0.96073274609E+00 -0.86422335560E+01  0.87706466881E+01  0.00000000000E+00 0.  1.
          3    1    3    3  501    0  0.28310108179E+02 -0.88486467892E+01 -0.27771471284E+03  0.27929415049E+03  0.00000000000E+00 0.  1.
         -1    1    1    2    0  502 -0.29455985608E+02  0.98093795353E+01 -0.71245106224E+03  0.71312719419E+03  0.00000000000E+00 0. -1.
<mgrwt>
<rscale>  1 0.30000000E+03</rscale>
<asrwt>0</asrwt>
<pdfrwt beam="1">  1       21 0.43345232E-02 0.30000000E+03</pdfrwt>
<pdfrwt beam="2">0</pdfrwt>
<totfact> 0.36716679E+04</totfact>
</mgrwt>
</event>
<event>
 6    1  0.6377696E-002  0.3000000E+03  0.7818608E-02  0.1093470E+00
         21   -1    0    0  501  502  0.00000000000E+00  0.00000000000E+00  0.96136811247E+01  0.96136811247E+01  0.00000000000E+00 0. -1.
         13   -1    0    0    0    0 -0.00000000000E+00 -0.00000000000E+00 -0.10000000000E+04  0.10000000000E+04  0.00000000000E+00 0.  1.
    9000005    2    1    2  501    0 -0.12934468967E+02  0.53882094302E+02 -0.79017654926E+02  0.96561972730E+02  0.31375489811E+01 0.  0.
         13    1    3    3    0    0 -0.21721276270E+01  0.50680521230E+01 -0.76562741097E+01  0.94351377304E+01  0.00000000000E+00 0.  1.
          3    1    3    3  501    0 -0.10762341340E+02  0.48814042179E+02 -0.71361380816E+02  0.87126834999E+02  0.00000000000E+00 0.  1.
         -1    1    1    2    0  502  0.12934468967E+02 -0.53882094302E+02 -0.91136866395E+03  0.91305170839E+03  0.00000000000E+00 0. -1.
<mgrwt>
<rscale>  1 0.30000000E+03</rscale>
<asrwt>0</asrwt>
<pdfrwt beam="1">  1       21 0.34958914E-01 0.30000000E+03</pdfrwt>
<pdfrwt beam="2">0</pdfrwt>
<totfact> 0.79770849E+02</totfact>
</mgrwt>
</event>
<event>
 6    1  0.6377696E-002  0.3000000E+03  0.7818608E-02  0.1093470E+00
         21   -1    0    0  501  502  0.00000000000E+00  0.00000000000E+00  0.53841687516E+01  0.53841687516E+01  0.00000000000E+00 0. -1.
         13   -1    0    0    0    0 -0.00000000000E+00 -0.00000000000E+00 -0.10000000000E+04  0.10000000000E+04  0.00000000000E+00 0.  1.
    9000005    2    1    2  501    0  0.33501354884E+02  0.57148075374E+02 -0.28196449346E+03  0.28966063795E+03  0.33266056010E+01 0.  0.
         13    1    3    3    0    0  0.30352173213E+02  0.51380912606E+02 -0.25798722587E+03  0.26479928495E+03  0.00000000000E+00 0.  1.
          1    1    3    3  501    0  0.31491816712E+01  0.57671627677E+01 -0.23977267596E+02  0.24861352999E+02  0.00000000000E+00 0.  1.
         -3    1    1    2    0  502 -0.33501354884E+02 -0.57148075374E+02 -0.71265133778E+03  0.71572353080E+03  0.00000000000E+00 0. -1.
<mgrwt>
<rscale>  1 0.30000000E+03</rscale>
<asrwt>0</asrwt>
<pdfrwt beam="1">  1       21 0.19578837E-01 0.30000000E+03</pdfrwt>
<pdfrwt beam="2">0</pdfrwt>
<totfact> 0.24985488E+03</totfact>
</mgrwt>
</event>
<event>
 6    1  0.6377696E-002  0.3000000E+03  0.7818608E-02  0.1093470E+00
         21   -1    0    0  501  502  0.00000000000E+00  0.00000000000E+00  0.42608774046E+01  0.42608774046E+01  0.00000000000E+00 0. -1.
         13   -1    0    0    0    0 -0.00000000000E+00 -0.00000000000E+00 -0.10000000000E+04  0.10000000000E+04  0.00000000000E+00 0.  1.
    9000005    2    1    2  501    0 -0.62291494143E+02 -0.92537905735E+01 -0.38039388475E+03  0.38570156366E+03  0.10016275315E+02 0.  0.
         13    1    3    3    0    0 -0.22815862823E+02  0.10778648703E+01 -0.14806883782E+03  0.14982024603E+03  0.00000000000E+00 0.  1.
          3    1    3    3  501    0 -0.39475631320E+02 -0.10331655444E+02 -0.23232504694E+03  0.23588131763E+03  0.00000000000E+00 0.  1.
         -1    1    1    2    0  502  0.62291494143E+02  0.92537905735E+01 -0.61534523784E+03  0.61855931374E+03  0.00000000000E+00 0. -1.
<mgrwt>
<rscale>  1 0.30000000E+03</rscale>
<asrwt>0</asrwt>
<pdfrwt beam="1">  1       21 0.15494132E-01 0.30000000E+03</pdfrwt>
<pdfrwt beam="2">0</pdfrwt>
<totfact> 0.38777918E+03</totfact>
</mgrwt>
</event>
<event>
 6    1  0.6377696E-002  0.3000000E+03  0.7818608E-02  0.1093470E+00
         21   -1    0    0  501  502  0.00000000000E+00  0.00000000000E+00  0.96411722186E+00  0.96411722186E+00  0.00000000000E+00 0. -1.
         13   -1    0    0    0    0 -0.00000000000E+00 -0.00000000000E+00 -0.10000000000E+04  0.10000000000E+04  0.00000000000E+00 0.  1.
    9000005    2    1    2  501    0  0.18669618816E+02  0.24537504108E+02 -0.54378564166E+03  0.54467098138E+03  0.36069532412E+01 0.  0.
         13    1    3    3    0    0  0.56130445882E+01  0.91566619362E+01 -0.21306340860E+03  0.21333393263E+03  0.00000000000E+00 0.  1.
          1    1    3    3  501    0  0.13056574228E+02  0.15380842172E+02 -0.33072223306E+03  0.33133704876E+03  0.00000000000E+00 0.  1.
         -1    1    1    2    0  502 -0.18669618816E+02 -0.24537504108E+02 -0.45525024112E+03  0.45629313584E+03  0.00000000000E+00 0. -1.
<mgrwt>
<rscale>  1 0.30000000E+03</rscale>
<asrwt>0</asrwt>
<pdfrwt beam="1">  1       21 0.35058882E-02 0.30000000E+03</pdfrwt>
<pdfrwt beam="2">0</pdfrwt>
<totfact> 0.52468908E+04</totfact>
</mgrwt>
</event>
<event>
 6    1  0.6377696E-002  0.3000000E+03  0.7818608E-02  0.1093470E+00
         21   -1    0    0  501  502  0.00000000000E+00  0.00000000000E+00  0.12026307658E+01  0.12026307658E+01  0.00000000000E+00 0. -1.
         13   -1    0    0    0    0 -0.00000000000E+00 -0.00000000000E+00 -0.10000000000E+04  0.10000000000E+04  0.00000000000E+00 0.  1.
    9000005    2    1    2  501    0 -0.33280839413E+02  0.80020319271E+01 -0.55889652197E+03  0.55997207628E+03  0.56353489305E+01 0.  0.
         13    1    3    3    0    0 -0.11656499887E+02  0.13502932404E+01 -0.22921928070E+03  0.22951944564E+03  0.00000000000E+00 0.  1.
          3    1    3    3  501    0 -0.21624339526E+02  0.66517386866E+01 -0.32967724127E+03  0.33045263064E+03  0.00000000000E+00 0.  1.
         -3    1    1    2    0  502  0.33280839413E+02 -0.80020319271E+01 -0.43990084726E+03  0.44123055448E+03  0.00000000000E+00 0. -1.
<mgrwt>
<rscale>  1 0.30000000E+03</rscale>
<asrwt>0</asrwt>
<pdfrwt beam="1">  1       21 0.43732120E-02 0.30000000E+03</pdfrwt>
<pdfrwt beam="2">0</pdfrwt>
<totfact> 0.36168545E+04</totfact>
</mgrwt>
</event>
<event>
 6    1  0.6377696E-002  0.3000000E+03  0.7818608E-02  0.1093470E+00
         21   -1    0    0  501  502  0.00000000000E+00  0.00000000000E+00  0.21457234326E+01  0.21457234326E+01  0.00000000000E+00 0. -1.
         13   -1    0    0    0    0 -0.00000000000E+00 -0.00000000000E+00 -0.10000000000E+04  0.10000000000E+04  0.00000000000E+00 0.  1.
    9000005    2    1    2  501    0 -0.28314078425E+02  0.33571203793E+02 -0.34208562683E+03  0.34490814482E+03  0.32155122135E+01 0.  0.
         13    1    3    3    0    0 -0.17088929511E+02  0.22478869561E+02 -0.21487967144E+03  0.21672702712E+03  0.00000000000E+00 0.  1.
          3    1    3    3  501    0 -0.11225148914E+02  0.11092334232E+02 -0.12720595539E+03  0.12818111769E+03  0.00000000000E+00 0.  1.
         -3    1    1    2    0  502  0.28314078425E+02 -0.33571203793E+02 -0.65576864974E+03  0.65723757861E+03  0.00000000000E+00 0. -1.
<mgrwt>
<rscale>  1 0.30000000E+03</rscale>
<asrwt>0</asrwt>
<pdfrwt beam="1">  1       21 0.78026471E-02 0.30000000E+03</pdfrwt>
<pdfrwt beam="2">0</pdfrwt>
<totfact> 0.13346381E+04</totfact>
</mgrwt>
</event>
<event>
 6    1  0.6377696E-002  0.3000000E+03  0.7818608E-02  0.1093470E+00
         21   -1    0    0  501  502  0.00000000000E+00  0.00000000000E+00  0.13500214916E+01  0.13500214916E+01  0.00000000000E+00 0. -1.
         13   -1    0    0    0    0 -0.00000000000E+00 -0.00000000000E+00 -0.10000000000E+04  0.10000000000E+04  0.00000000000E+00 0.  1.
    9000005    2    1    2  501    0 -0.44756365102E+01 -0.36387996912E+02 -0.50447771298E+03  0.50581965345E+03  0.34119310675E+01 0.  0.
         13    1    3    3    0    0 -0.19846688035E+01 -0.27618828338E+02 -0.37330360907E+03  0.37432916415E+03  0.00000000000E+00 0.  1.
          1    1    3    3  501    0 -0.24909677068E+01 -0.87691685746E+01 -0.13117410391E+03  0.13149048930E+03  0.00000000000E+00 0.  1.
         -3    1    1    2    0  502  0.44756365102E+01  0.36387996912E+02 -0.49417226553E+03  0.49553036805E+03  0.00000000000E+00 0. -1.
<mgrwt>
<rscale>  1 0.30000000E+03</rscale>
<asrwt>0</asrwt>
<pdfrwt beam="1">  1       21 0.49091794E-02 0.30000000E+03</pdfrwt>
<pdfrwt beam="2">0</pdfrwt>
<totfact> 0.29718590E+04</totfact>
</mgrwt>
</event>
<event>
 6    1  0.6377696E-002  0.3000000E+03  0.7818608E-02  0.1093470E+00
         21   -1    0    0  501  502  0.00000000000E+00  0.00000000000E+00  0.18458338675E+01  0.18458338675E+01  0.00000000000E+00 0. -1.
         13   -1    0    0    0    0 -0.00000000000E+00 -0.00000000000E+00 -0.10000000000E+04  0.10000000000E+04  0.00000000000E+00 0.  1.
    9000005    2    1    2  501    0 -0.29367598690E+01  0.35613795017E+02 -0.22283942609E+03  0.22570801551E+03  0.31195339969E+01 0.  0.
         13    1    3    3    0    0 -0.24007341144E+01  0.11363353288E+02 -0.72019701405E+02  0.72950165954E+02  0.00000000000E+00 0.  1.
          3    1    3    3  501    0 -0.53602575462E+00  0.24250441729E+02 -0.15081972468E+03  0.15275784956E+03  0.00000000000E+00 0.  1.
         -1    1    1    2    0  502  0.29367598690E+01 -0.35613795017E+02 -0.77531474004E+03  0.77613781836E+03  0.00000000000E+00 0. -1.
<mgrwt>
<rscale>  1 0.30000000E+03</rscale>
<asrwt>0</asrwt>
<pdfrwt beam="1">  1       21 0.67121373E-02 0.30000000E+03</pdfrwt>
<pdfrwt beam="2">0</pdfrwt>
<totfact> 0.17356598E+04</totfact>
</mgrwt>
</event>
<event>
 6    1  0.6377696E-002  0.3000000E+03  0.7818608E-02  0.1093470E+00
         21   -1    0    0  501  502  0.00000000000E+00  0.00000000000E+00  0.14533188830E+01  0.14533188830E+01  0.00000000000E+00 0. -1.
         13   -1    0    0    0    0 -0.00000000000E+00 -0.00000000000E+00 -0.10000000000E+04  0.10000000000E+04  0.00000000000E+00 0.  1.
    9000005    2    1    2  501    0  0.94285855648E+01  0.32694283437E+02 -0.72225511251E+03  0.72307435904E+03  0.51251118515E+01 0.  0.
         13    1    3    3    0    0  0.41128889869E+01  0.22901269287E+02 -0.48747748935E+03  0.48803246471E+03  0.00000000000E+00 0.  1.
          1    1    3    3  501    0  0.53156965779E+01  0.97930141502E+01 -0.23477762316E+03  0.23504189433E+03  0.00000000000E+00 0.  1.
         -3    1    1    2    0  502 -0.94285855648E+01 -0.32694283437E+02 -0.27629156861E+03  0.27837895984E+03  0.00000000000E+00 0. -1.
<mgrwt>
<rscale>  1 0.30000000E+03</rscale>
<asrwt>0</asrwt>
<pdfrwt beam="1">  1       21 0.52848071E-02 0.30000000E+03</pdfrwt>
<pdfrwt beam="2">0</pdfrwt>
<totfact> 0.26205200E+04</totfact>
</mgrwt>
</event>
<event>
 6    1  0.6377696E-002  0.3000000E+03  0.7818608E-02  0.1093470E+00
         21   -1    0    0  501  502  0.00000000000E+00  0.00000000000E+00  0.32366250444E+01  0.32366250444E+01  0.00000000000E+00 0. -1.
         13   -1    0    0    0    0 -0.00000000000E+00 -0.00000000000E+00 -0.10000000000E+04  0.10000000000E+04  0.00000000000E+00 0.  1.
    9000005    2    1    2  501    0 -0.23123055720E+02  0.36244750900E+02 -0.17097900785E+03  0.17633386254E+03  0.33841218768E+01 0.  0.
         13    1    3    3    0    0 -0.35337064445E+01  0.35374151948E+01 -0.20101908211E+02  0.20714417714E+02  0.00000000000E+00 0.  1.
          3    1    3    3  501    0 -0.19589349275E+02  0.32707335705E+02 -0.15087709964E+03  0.15561944483E+03  0.00000000000E+00 0.  1.
         -3    1    1    2    0  502  0.23123055720E+02 -0.36244750900E+02 -0.82578436711E+03  0.82690276250E+03  0.00000000000E+00 0. -1.
<mgrwt>
<rscale>  1 0.30000000E+03</rscale>
<asrwt>0</asrwt>
<pdfrwt beam="1">  1       21 0.11769570E-01 0.30000000E+03</pdfrwt>
<pdfrwt beam="2">0</pdfrwt>
<totfact> 0.64188293E+03</totfact>
</mgrwt>
</event>
<event>
 6    1  0.6377696E-002  0.3000000E+03  0.7818608E-02  0.1093470E+00
         21   -1    0    0  501  502  0.00000000000E+00  0.00000000000E+00  0.21976590239E+01  0.21976590239E+01  0.00000000000E+00 0. -1.
         13   -1    0    0    0    0 -0.00000000000E+00 -0.00000000000E+00 -0.10000000000E+04  0.10000000000E+04  0.00000000000E+00 0.  1.
    9000005    2    1    2  501    0 -0.10183710087E+01 -0.45287626568E+02 -0.62641804609E+03  0.62806091840E+03  0.29904095796E+01 0.  0.
         13    1    3    3    0    0  0.59300254041E+00 -0.11611631819E+02 -0.17467941977E+03  0.17506593426E+03  0.00000000000E+00 0.  1.
          1    1    3    3  501    0 -0.16113735491E+01 -0.33675994749E+02 -0.45173862632E+03  0.45299498414E+03  0.00000000000E+00 0.  1.
         -1    1    1    2    0  502  0.10183710087E+01  0.45287626568E+02 -0.37138429489E+03  0.37413674063E+03  0.00000000000E+00 0. -1.
<mgrwt>
<rscale>  1 0.30000000E+03</rscale>
<asrwt>0</asrwt>
<pdfrwt beam="1">  1       21 0.79915042E-02 0.30000000E+03</pdfrwt>
<pdfrwt beam="2">0</pdfrwt>
<totfact> 0.12797730E+04</totfact>
</mgrwt>
</event>
<event>
 6    1  0.6377696E-002  0.3000000E+03  0.7818608E-02  0.1093470E+00
         21   -1    0    0  501  502  0.00000000000E+00  0.00000000000E+00  0.94205111781E+00  0.94205111781E+00  0.00000000000E+00 0. -1.
         13   -1    0    0    0    0 -0.00000000000E+00 -0.00000000000E+00 -0.10000000000E+04  0.10000000000E+04  0.00000000000E+00 0.  1.
    9000005    2    1    2  501    0 -0.11048239200E+02 -0.27985412264E+02 -0.45127312536E+03  0.45233157020E+03  0.71532398673E+01 0.  0.
         13    1    3    3    0    0 -0.54241480599E+01 -0.84123192599E+01 -0.19149454276E+03  0.19175596054E+03  0.00000000000E+00 0.  1.
          3    1    3    3  501    0 -0.56240911397E+01 -0.19573093004E+02 -0.25977858260E+03  0.26057560965E+03  0.00000000000E+00 0.  1.
         -1    1    1    2    0  502  0.11048239200E+02  0.27985412264E+02 -0.54778482353E+03  0.54861048092E+03  0.00000000000E+00 0. -1.
<mgrwt>
<rscale>  1 0.30000000E+03</rscale>
<asrwt>0</asrwt>
<pdfrwt beam="1">  1       21 0.34256477E-02 0.30000000E+03</pdfrwt>
<pdfrwt beam="2">0</pdfrwt>
<totfact> 0.54541563E+04</totfact>
</mgrwt>
</event>
<event>
 6    1  0.6377696E-002  0.3000000E+03  0.7818608E-02  0.1093470E+00
         21   -1    0    0  501  502  0.00000000000E+00  0.00000000000E+00  0.21966795169E+01  0.21966795169E+01  0.00000000000E+00 0. -1.
         13   -1    0    0    0    0 -0.00000000000E+00 -0.00000000000E+00 -0.10000000000E+04  0.10000000000E+04  0.00000000000E+00 0.  1.
    9000005    2    1    2  501    0  0.33070930475E+02  0.18225626721E+02 -0.20370218813E+03  0.20719827178E+03  0.32684039988E+01 0.  0.
         13    1    3    3    0    0  0.31646985189E+02  0.17837217997E+02 -0.19819153482E+03  0.20149338077E+03  0.00000000000E+00 0.  1.
          3    1    3    3  501    0  0.14239452863E+01  0.38840872374E+00 -0.55106533095E+01  0.57048910079E+01  0.00000000000E+00 0.  1.
         -3    1    1    2    0  502 -0.33070930475E+02 -0.18225626721E+02 -0.79410113235E+03  0.79499840774E+03  0.00000000000E+00 0. -1.
<mgrwt>
<rscale>  1 0.30000000E+03</rscale>
<asrwt>0</asrwt>
<pdfrwt beam="1">  1       21 0.79879424E-02 0.30000000E+03</pdfrwt>
<pdfrwt beam="2">0</pdfrwt>
<totfact> 0.12807754E+04</totfact>
</mgrwt>
</event>
<event>
 6    1  0.6377696E-002  0.3000000E+03  0.7818608E-02  0.1093470E+00
         21   -1    0    0  501  502  0.00000000000E+00  0.00000000000E+00  0.40616421605E+01  0.40616421605E+01  0.00000000000E+00 0. -1.
         13   -1    0    0    0    0 -0.00000000000E+00 -0.00000000000E+00 -0.10000000000E+04  0.10000000000E+04  0.00000000000E+00 0.  1.
    9000005    2    1    2  501    0 -0.58317805869E+02  0.95438373718E+01 -0.31138222914E+03  0.31695965216E+03  0.35323029674E+01 0.  0.
         13    1    3    3    0    0 -0.24458371501E+02  0.35098266999E+01 -0.13922248852E+03  0.14139813340E+03  0.00000000000E+00 0.  1.
          1    1    3    3  501    0 -0.33859434368E+02  0.60340106719E+01 -0.17215974062E+03  0.17556151876E+03  0.00000000000E+00 0.  1.
         -1    1    1    2    0  502  0.58317805869E+02 -0.95438373718E+01 -0.68455612870E+03  0.68710199000E+03  0.00000000000E+00 0. -1.
<mgrwt>
<rscale>  1 0.30000000E+03</rscale>
<asrwt>0</asrwt>
<pdfrwt beam="1">  1       21 0.14769639E-01 0.30000000E+03</pdfrwt>
<pdfrwt beam="2">0</pdfrwt>
<totfact> 0.42375940E+03</totfact>
</mgrwt>
</event>
<event>
 6    1  0.6377696E-002  0.3000000E+03  0.7818608E-02  0.1093470E+00
         21   -1    0    0  501  502  0.00000000000E+00  0.00000000000E+00  0.16585220285E+01  0.16585220285E+01  0.00000000000E+00 0. -1.
         13   -1    0    0    0    0 -0.00000000000E+00 -0.00000000000E+00 -0.10000000000E+04  0.10000000000E+04  0.00000000000E+00 0.  1.
    9000005    2    1    2  501    0 -0.26700334336E+02  0.30655310860E+02 -0.50319033163E+03  0.50484133869E+03  0.34075601687E+01 0.  0.
         13    1    3    3    0    0 -0.40195241893E+01  0.32973747137E+01 -0.55655060477E+02  0.55897361399E+02  0.00000000000E+00 0.  1.
          1    1    3    3  501    0 -0.22680810147E+02  0.27357936146E+02 -0.44753527116E+03  0.44894397729E+03  0.00000000000E+00 0.  1.
         -1    1    1    2    0  502  0.26700334336E+02 -0.30655310860E+02 -0.49515114634E+03  0.49681718334E+03  0.00000000000E+00 0. -1.
<mgrwt>
<rscale>  1 0.30000000E+03</rscale>
<asrwt>0</asrwt>
<pdfrwt beam="1">  1       21 0.60310019E-02 0.30000000E+03</pdfrwt>
<pdfrwt beam="2">0</pdfrwt>
<totfact> 0.20885186E+04</totfact>
</mgrwt>
</event>
<event>
 6    1  0.6377696E-002  0.3000000E+03  0.7818608E-02  0.1093470E+00
         21   -1    0    0  501  502  0.00000000000E+00  0.00000000000E+00  0.21753398420E+01  0.21753398420E+01  0.00000000000E+00 0. -1.
         13   -1    0    0    0    0 -0.00000000000E+00 -0.00000000000E+00 -0.10000000000E+04  0.10000000000E+04  0.00000000000E+00 0.  1.
    9000005    2    1    2  501    0 -0.22680065859E+02 -0.38812697926E+02 -0.63002399063E+03  0.63163769882E+03  0.38913873833E+01 0.  0.
         13    1    3    3    0    0 -0.10686590253E+02 -0.21164022414E+02 -0.31344683849E+03  0.31434223327E+03  0.00000000000E+00 0.  1.
          1    1    3    3  501    0 -0.11993475606E+02 -0.17648675512E+02 -0.31657715214E+03  0.31729546555E+03  0.00000000000E+00 0.  1.
         -3    1    1    2    0  502  0.22680065859E+02  0.38812697926E+02 -0.36780066953E+03  0.37053764102E+03  0.00000000000E+00 0. -1.
<mgrwt>
<rscale>  1 0.30000000E+03</rscale>
<asrwt>0</asrwt>
<pdfrwt beam="1">  1       21 0.79103434E-02 0.30000000E+03</pdfrwt>
<pdfrwt beam="2">0</pdfrwt>
<totfact> 0.13029177E+04</totfact>
</mgrwt>
</event>
<event>
 6    1  0.6377696E-002  0.3000000E+03  0.7818608E-02  0.1093470E+00
         21   -1    0    0  501  502  0.00000000000E+00  0.00000000000E+00  0.11080086048E+01  0.11080086048E+01  0.00000000000E+00 0. -1.
         13   -1    0    0    0    0 -0.00000000000E+00 -0.00000000000E+00 -0.10000000000E+04  0.10000000000E+04  0.00000000000E+00 0.  1.
    9000005    2    1    2  501    0  0.29141487239E+02  0.12939372204E+02 -0.64154876686E+03  0.64234508723E+03  0.23952449921E+01 0.  0.
         13    1    3    3    0    0  0.60769527848E+01  0.32880078313E+01 -0.15623327281E+03  0.15638598365E+03  0.00000000000E+00 0.  1.
          1    1    3    3  501    0  0.23064534454E+02  0.96513643728E+01 -0.48531549405E+03  0.48595910358E+03  0.00000000000E+00 0.  1.
         -3    1    1    2    0  502 -0.29141487239E+02 -0.12939372204E+02 -0.35734322454E+03  0.35876292138E+03  0.00000000000E+00 0. -1.
<mgrwt>
<rscale>  1 0.30000000E+03</rscale>
<asrwt>0</asrwt>
<pdfrwt beam="1">  1       21 0.40291307E-02 0.30000000E+03</pdfrwt>
<pdfrwt beam="2">0</pdfrwt>
<totfact> 0.41536546E+04</totfact>
</mgrwt>
</event>
<event>
 6    1  0.6377696E-002  0.3000000E+03  0.7818608E-02  0.1093470E+00
         21   -1    0    0  501  502  0.00000000000E+00  0.00000000000E+00  0.33654612489E+01  0.33654612489E+01  0.00000000000E+00 0. -1.
         13   -1    0    0    0    0 -0.00000000000E+00 -0.00000000000E+00 -0.10000000000E+04  0.10000000000E+04  0.00000000000E+00 0.  1.
    9000005    2    1    2  501    0  0.48490804896E+02  0.62831898151E-01 -0.22391772484E+03  0.22912865212E+03  0.30707683115E+01 0.  0.
         13    1    3    3    0    0  0.12314375258E+02 -0.10593620489E+01 -0.60828263229E+02  0.62071279134E+02  0.00000000000E+00 0.  1.
          1    1    3    3  501    0  0.36176429638E+02  0.11221939470E+01 -0.16308946161E+03  0.16705737299E+03  0.00000000000E+00 0.  1.
         -1    1    1    2    0  502 -0.48490804896E+02 -0.62831898151E-01 -0.77271681391E+03  0.77423680913E+03  0.00000000000E+00 0. -1.
<mgrwt>
<rscale>  1 0.30000000E+03</rscale>
<asrwt>0</asrwt>
<pdfrwt beam="1">  1       21 0.12238067E-01 0.30000000E+03</pdfrwt>
<pdfrwt beam="2">0</pdfrwt>
<totfact> 0.59798139E+03</totfact>
</mgrwt>
</event>
<event>
 6    1  0.6377696E-002  0.3000000E+03  0.7818608E-02  0.1093470E+00
         21   -1    0    0  501  502  0.00000000000E+00  0.00000000000E+00  0.11143347898E+01  0.11143347898E+01  0.00000000000E+00 0. -1.
         13   -1    0    0    0    0 -0.00000000000E+00 -0.00000000000E+00 -0.10000000000E+04  0.10000000000E+04  0.00000000000E+00 0.  1.
    9000005    2    1    2  501    0  0.29034073287E+02 -0.15527927712E+02 -0.42597919905E+03  0.42726251340E+03  0.32989965371E+01 0.  0.
         13    1    3    3    0    0  0.28567303257E+02 -0.14670285730E+02 -0.41349111396E+03  0.41473631313E+03  0.00000000000E+00 0.  1.
          1    1    3    3  501    0  0.46677002979E+00 -0.85764198162E+00 -0.12488085091E+02  0.12526200273E+02  0.00000000000E+00 0.  1.
         -1    1    1    2    0  502 -0.29034073287E+02  0.15527927712E+02 -0.57290646616E+03  0.57385182139E+03  0.00000000000E+00 0. -1.
<mgrwt>
<rscale>  1 0.30000000E+03</rscale>
<asrwt>0</asrwt>
<pdfrwt beam="1">  1       21 0.40521351E-02 0.30000000E+03</pdfrwt>
<pdfrwt beam="2">0</pdfrwt>
<totfact> 0.41140006E+04</totfact>
</mgrwt>
</event>
<event>
 6    1  0.6377696E-002  0.3000000E+03  0.7818608E-02  0.1093470E+00
         21   -1    0    0  501  502  0.00000000000E+00  0.00000000000E+00  0.14758368192E+01  0.14758368192E+01  0.00000000000E+00 0. -1.
         13   -1    0    0    0    0 -0.00000000000E+00 -0.00000000000E+00 -0.10000000000E+04  0.10000000000E+04  0.00000000000E+00 0.  1.
    9000005    2    1    2  501    0  0.23776105016E+02  0.29780677550E+02 -0.55495252840E+03  0.55627028080E+03  0.34820400105E+01 0.  0.
         13    1    3    3    0    0  0.20412676757E+02  0.24537356054E+02 -0.47941537481E+03  0.48047670164E+03  0.00000000000E+00 0.  1.
          1    1    3    3  501    0  0.33634282587E+01  0.52433214959E+01 -0.75537153595E+02  0.75793579168E+02  0.00000000000E+00 0.  1.
         -3    1    1    2    0  502 -0.23776105016E+02 -0.29780677550E+02 -0.44357163478E+03  0.44520555601E+03  0.00000000000E+00 0. -1.
<mgrwt>
<rscale>  1 0.30000000E+03</rscale>
<asrwt>0</asrwt>
<pdfrwt beam="1">  1       21 0.53666907E-02 0.30000000E+03</pdfrwt>
<pdfrwt beam="2">0</pdfrwt>
<totfact> 0.25524860E+04</totfact>
</mgrwt>
</event>
<event>
 6    1  0.6377696E-002  0.3000000E+03  0.7818608E-02  0.1093470E+00
         21   -1    0    0  501  502  0.00000000000E+00  0.00000000000E+00  0.17579193336E+01  0.17579193336E+01  0.00000000000E+00 0. -1.
         13   -1    0    0    0    0 -0.00000000000E+00 -0.00000000000E+00 -0.10000000000E+04  0.10000000000E+04  0.00000000000E+00 0.  1.
    9000005    2    1    2  501    0  0.36213025944E+01  0.39325663964E+02 -0.66420320076E+03  0.66539264918E+03  0.46758955976E+01 0.  0.
         13    1    3    3    0    0  0.33226779645E+01  0.27231677869E+02 -0.42597668061E+03  0.42685915346E+03  0.00000000000E+00 0.  1.
          3    1    3    3  501    0  0.29862462992E+00  0.12093986095E+02 -0.23822652015E+03  0.23853349572E+03  0.00000000000E+00 0.  1.
         -1    1    1    2    0  502 -0.36213025944E+01 -0.39325663964E+02 -0.33403887990E+03  0.33636527015E+03  0.00000000000E+00 0. -1.
<mgrwt>
<rscale>  1 0.30000000E+03</rscale>
<asrwt>0</asrwt>
<pdfrwt beam="1">  1       21 0.63924474E-02 0.30000000E+03</pdfrwt>
<pdfrwt beam="2">0</pdfrwt>
<totfact> 0.18887616E+04</totfact>
</mgrwt>
</event>
<event>
 6    1  0.6377696E-002  0.3000000E+03  0.7818608E-02  0.1093470E+00
         21   -1    0    0  501  502  0.00000000000E+00  0.00000000000E+00  0.11013873567E+01  0.11013873567E+01  0.00000000000E+00 0. -1.
         13   -1    0    0    0    0 -0.00000000000E+00 -0.00000000000E+00 -0.10000000000E+04  0.10000000000E+04  0.00000000000E+00 0.  1.
    9000005    2    1    2  501    0  0.73594311073E+01  0.32023207014E+02 -0.46560506516E+03  0.46679655413E+03  0.55945722537E+01 0.  0.
         13    1    3    3    0    0  0.38468614121E+01  0.20162879856E+02 -0.25260138787E+03  0.25343401748E+03  0.00000000000E+00 0.  1.
          1    1    3    3  501    0  0.35125696952E+01  0.11860327158E+02 -0.21300367729E+03  0.21336253665E+03  0.00000000000E+00 0.  1.
         -3    1    1    2    0  502 -0.73594311073E+01 -0.32023207014E+02 -0.53329354749E+03  0.53430483322E+03  0.00000000000E+00 0. -1.
<mgrwt>
<rscale>  1 0.30000000E+03</rscale>
<asrwt>0</asrwt>
<pdfrwt beam="1">  1       21 0.40050534E-02 0.30000000E+03</pdfrwt>
<pdfrwt beam="2">0</pdfrwt>
<totfact> 0.41958016E+04</totfact>
</mgrwt>
</event>
<event>
 6    1  0.6377696E-002  0.3000000E+03  0.7818608E-02  0.1093470E+00
         21   -1    0    0  501  502  0.00000000000E+00  0.00000000000E+00  0.29799370963E+01  0.29799370963E+01  0.00000000000E+00 0. -1.
         13   -1    0    0    0    0 -0.00000000000E+00 -0.00000000000E+00 -0.10000000000E+04  0.10000000000E+04  0.00000000000E+00 0.  1.
    9000005    2    1    2  501    0 -0.36290598430E+02  0.36297405673E+02 -0.32939551099E+03  0.33338524513E+03  0.31320626195E+01 0.  0.
         13    1    3    3    0    0 -0.25098184059E+02  0.26951138808E+02 -0.23938596632E+03  0.24220223698E+03  0.00000000000E+00 0.  1.
          3    1    3    3  501    0 -0.11192414371E+02  0.93462668648E+01 -0.90009544666E+02  0.91183008147E+02  0.00000000000E+00 0.  1.
         -3    1    1    2    0  502  0.36290598430E+02 -0.36297405673E+02 -0.66762455192E+03  0.66959469197E+03  0.00000000000E+00 0. -1.
<mgrwt>
<rscale>  1 0.30000000E+03</rscale>
<asrwt>0</asrwt>
<pdfrwt beam="1">  1       21 0.10836158E-01 0.30000000E+03</pdfrwt>
<pdfrwt beam="2">0</pdfrwt>
<totfact> 0.74503618E+03</totfact>
</mgrwt>
</event>
<event>
 6    1  0.6377696E-002  0.3000000E+03  0.7818608E-02  0.1093470E+00
         21   -1    0    0  501  502  0.00000000000E+00  0.00000000000E+00  0.23710126444E+01  0.23710126444E+01  0.00000000000E+00 0. -1.
         13   -1    0    0    0    0 -0.00000000000E+00 -0.00000000000E+00 -0.10000000000E+04  0.10000000000E+04  0.00000000000E+00 0.  1.
    9000005    2    1    2  501    0 -0.34726113642E+02 -0.25994493415E+02 -0.72574469723E+03  0.72704814060E+03  0.34664864104E+01 0.  0.
         13    1    3    3    0    0 -0.71285664788E+01 -0.38103320966E+01 -0.12566670946E+03  0.12592639499E+03  0.00000000000E+00 0.  1.
          3    1    3    3  501    0 -0.27597547164E+02 -0.22184161318E+02 -0.60007798778E+03  0.60112174560E+03  0.00000000000E+00 0.  1.
         -3    1    1    2    0  502  0.34726113642E+02  0.25994493415E+02 -0.27188429012E+03  0.27532287205E+03  0.00000000000E+00 0. -1.
<mgrwt>
<rscale>  1 0.30000000E+03</rscale>
<asrwt>0</asrwt>
<pdfrwt beam="1">  1       21 0.86218823E-02 0.30000000E+03</pdfrwt>
<pdfrwt beam="2">0</pdfrwt>
<totfact> 0.11196457E+04</totfact>
</mgrwt>
</event>
<event>
 6    1  0.6377696E-002  0.3000000E+03  0.7818608E-02  0.1093470E+00
         21   -1    0    0  501  502  0.00000000000E+00  0.00000000000E+00  0.17161217899E+01  0.17161217899E+01  0.00000000000E+00 0. -1.
         13   -1    0    0    0    0 -0.00000000000E+00 -0.00000000000E+00 -0.10000000000E+04  0.10000000000E+04  0.00000000000E+00 0.  1.
    9000005    2    1    2  501    0  0.27705160456E+02  0.27798708959E+02 -0.65597134664E+03  0.65716102691E+03  0.46758469694E+01 0.  0.
         13    1    3    3    0    0  0.15554211477E+02  0.14681650265E+02 -0.31974849047E+03  0.32046307355E+03  0.00000000000E+00 0.  1.
          3    1    3    3  501    0  0.12150948979E+02  0.13117058695E+02 -0.33622285617E+03  0.33669795337E+03  0.00000000000E+00 0.  1.
         -1    1    1    2    0  502 -0.27705160456E+02 -0.27798708959E+02 -0.34231253157E+03  0.34455509488E+03  0.00000000000E+00 0. -1.
<mgrwt>
<rscale>  1 0.30000000E+03</rscale>
<asrwt>0</asrwt>
<pdfrwt beam="1">  1       21 0.62404560E-02 0.30000000E+03</pdfrwt>
<pdfrwt beam="2">0</pdfrwt>
<totfact> 0.19689885E+04</totfact>
</mgrwt>
</event>
<event>
 6    1  0.6377696E-002  0.3000000E+03  0.7818608E-02  0.1093470E+00
         21   -1    0    0  501  502  0.00000000000E+00  0.00000000000E+00  0.13284650241E+01  0.13284650241E+01  0.00000000000E+00 0. -1.
         13   -1    0    0    0    0 -0.00000000000E+00 -0.00000000000E+00 -0.10000000000E+04  0.10000000000E+04  0.00000000000E+00 0.  1.
    9000005    2    1    2  501    0  0.11816054993E+02  0.33612827262E+02 -0.41627198461E+03  0.41784009532E+03  0.62079605869E+01 0.  0.
         13    1    3    3    0    0  0.11881313963E+02  0.26665882952E+02 -0.32986208390E+03  0.33115136922E+03  0.00000000000E+00 0.  1.
          1    1    3    3  501    0 -0.65258969432E-01  0.69469443098E+01 -0.86409900707E+02  0.86688726108E+02  0.00000000000E+00 0.  1.
         -3    1    1    2    0  502 -0.11816054993E+02 -0.33612827262E+02 -0.58239955036E+03  0.58348836970E+03  0.00000000000E+00 0. -1.
<mgrwt>
<rscale>  1 0.30000000E+03</rscale>
<asrwt>0</asrwt>
<pdfrwt beam="1">  1       21 0.48307921E-02 0.30000000E+03</pdfrwt>
<pdfrwt beam="2">0</pdfrwt>
<totfact> 0.30544331E+04</totfact>
</mgrwt>
</event>
<event>
 6    1  0.6377696E-002  0.3000000E+03  0.7818608E-02  0.1093470E+00
         21   -1    0    0  501  502  0.00000000000E+00  0.00000000000E+00  0.27531666267E+01  0.27531666267E+01  0.00000000000E+00 0. -1.
         13   -1    0    0    0    0 -0.00000000000E+00 -0.00000000000E+00 -0.10000000000E+04  0.10000000000E+04  0.00000000000E+00 0.  1.
    9000005    2    1    2  501    0 -0.77329518046E+01 -0.50602529636E+02 -0.39368444067E+03  0.39702387360E+03  0.44836180373E+01 0.  0.
         13    1    3    3    0    0 -0.43786129407E+01 -0.36654943145E+02 -0.29553001497E+03  0.29782670609E+03  0.00000000000E+00 0.  1.
          3    1    3    3  501    0 -0.33543388639E+01 -0.13947586491E+02 -0.98154425699E+02  0.99197167512E+02  0.00000000000E+00 0.  1.
         -3    1    1    2    0  502  0.77329518046E+01  0.50602529636E+02 -0.60356239270E+03  0.60572929303E+03  0.00000000000E+00 0. -1.
<mgrwt>
<rscale>  1 0.30000000E+03</rscale>
<asrwt>0</asrwt>
<pdfrwt beam="1">  1       21 0.10011536E-01 0.30000000E+03</pdfrwt>
<pdfrwt beam="2">0</pdfrwt>
<totfact> 0.85854916E+03</totfact>
</mgrwt>
</event>
<event>
 6    1  0.6377696E-002  0.3000000E+03  0.7818608E-02  0.1093470E+00
         21   -1    0    0  501  502  0.00000000000E+00  0.00000000000E+00  0.20480107757E+01  0.20480107757E+01  0.00000000000E+00 0. -1.
         13   -1    0    0    0    0 -0.00000000000E+00 -0.00000000000E+00 -0.10000000000E+04  0.10000000000E+04  0.00000000000E+00 0.  1.
    9000005    2    1    2  501    0  0.15091587602E+02 -0.40923641013E+02 -0.36944260320E+03  0.37202694071E+03  0.37023158061E+01 0.  0.
         13    1    3    3    0    0 -0.16185351552E-01 -0.67921628723E+00 -0.99916095528E+01  0.10014682131E+02  0.00000000000E+00 0.  1.
          3    1    3    3  501    0  0.15107772953E+02 -0.40244424726E+02 -0.35945099365E+03  0.36201225858E+03  0.00000000000E+00 0.  1.
         -3    1    1    2    0  502 -0.15091587602E+02  0.40923641013E+02 -0.62850938602E+03  0.63002107007E+03  0.00000000000E+00 0. -1.
<mgrwt>
<rscale>  1 0.30000000E+03</rscale>
<asrwt>0</asrwt>
<pdfrwt beam="1">  1       21 0.74473276E-02 0.30000000E+03</pdfrwt>
<pdfrwt beam="2">0</pdfrwt>
<totfact> 0.14482042E+04</totfact>
</mgrwt>
</event>
<event>
 6    1  0.6377696E-002  0.3000000E+03  0.7818608E-02  0.1093470E+00
         21   -1    0    0  501  502  0.00000000000E+00  0.00000000000E+00  0.20191363366E+01  0.20191363366E+01  0.00000000000E+00 0. -1.
         13   -1    0    0    0    0 -0.00000000000E+00 -0.00000000000E+00 -0.10000000000E+04  0.10000000000E+04  0.00000000000E+00 0.  1.
    9000005    2    1    2  501    0  0.13931603134E+02 -0.37491703264E+02 -0.72542000824E+03  0.72653930533E+03  0.50454397711E+01 0.  0.
         13    1    3    3    0    0  0.11378889670E+01 -0.82451822202E+01 -0.13367389072E+03  0.13393277000E+03  0.00000000000E+00 0.  1.
          1    1    3    3  501    0  0.12793714167E+02 -0.29246521043E+02 -0.59174611752E+03  0.59260653533E+03  0.00000000000E+00 0.  1.
         -1    1    1    2    0  502 -0.13931603134E+02  0.37491703264E+02 -0.27256085542E+03  0.27547983100E+03  0.00000000000E+00 0. -1.
<mgrwt>
<rscale>  1 0.30000000E+03</rscale>
<asrwt>0</asrwt>
<pdfrwt beam="1">  1       21 0.73423294E-02 0.30000000E+03</pdfrwt>
<pdfrwt beam="2">0</pdfrwt>
<totfact> 0.14846191E+04</totfact>
</mgrwt>
</event>
<event>
 6    1  0.6377696E-002  0.3000000E+03  0.7818608E-02  0.1093470E+00
         21   -1    0    0  501  502  0.00000000000E+00  0.00000000000E+00  0.12414243436E+01  0.12414243436E+01  0.00000000000E+00 0. -1.
         13   -1    0    0    0    0 -0.00000000000E+00 -0.00000000000E+00 -0.10000000000E+04  0.10000000000E+04  0.00000000000E+00 0.  1.
    9000005    2    1    2  501    0  0.27170613586E+02 -0.20598358106E+02 -0.37904928283E+03  0.38059487258E+03  0.34005325654E+01 0.  0.
         13    1    3    3    0    0  0.47114731717E+01 -0.20570362994E+01 -0.56215831078E+02  0.56450412236E+02  0.00000000000E+00 0.  1.
          3    1    3    3  501    0  0.22459140415E+02 -0.18541321807E+02 -0.32283345175E+03  0.32414446034E+03  0.00000000000E+00 0.  1.
         -3    1    1    2    0  502 -0.27170613586E+02  0.20598358106E+02 -0.61970929283E+03  0.62064655177E+03  0.00000000000E+00 0. -1.
<mgrwt>
<rscale>  1 0.30000000E+03</rscale>
<asrwt>0</asrwt>
<pdfrwt beam="1">  1       21 0.45142799E-02 0.30000000E+03</pdfrwt>
<pdfrwt beam="2">0</pdfrwt>
<totfact> 0.34273406E+04</totfact>
</mgrwt>
</event>
<event>
 6    1  0.6377696E-002  0.3000000E+03  0.7818608E-02  0.1093470E+00
         21   -1    0    0  501  502  0.00000000000E+00  0.00000000000E+00  0.10951805392E+02  0.10951805392E+02  0.00000000000E+00 0. -1.
         13   -1    0    0    0    0 -0.00000000000E+00 -0.00000000000E+00 -0.10000000000E+04  0.10000000000E+04  0.00000000000E+00 0.  1.
    9000005    2    1    2  501    0  0.22161931465E+02  0.10183489337E+03 -0.45021381560E+03  0.46213126576E+03  0.33660552314E+01 0.  0.
         13    1    3    3    0    0  0.15239013480E+02  0.63522081763E+02 -0.27826152571E+03  0.28582644926E+03  0.00000000000E+00 0.  1.
          1    1    3    3  501    0  0.69229179843E+01  0.38312811608E+02 -0.17195228988E+03  0.17630481650E+03  0.00000000000E+00 0.  1.
         -1    1    1    2    0  502 -0.22161931465E+02 -0.10183489337E+03 -0.53883437901E+03  0.54882053963E+03  0.00000000000E+00 0. -1.
<mgrwt>
<rscale>  1 0.30000000E+03</rscale>
<asrwt>0</asrwt>
<pdfrwt beam="1">  1       21 0.39824831E-01 0.30000000E+03</pdfrwt>
<pdfrwt beam="2">0</pdfrwt>
<totfact> 0.60957656E+02</totfact>
</mgrwt>
</event>
<event>
 6    1  0.6377696E-002  0.3000000E+03  0.7818608E-02  0.1093470E+00
         21   -1    0    0  501  502  0.00000000000E+00  0.00000000000E+00  0.42730041084E+01  0.42730041084E+01  0.00000000000E+00 0. -1.
         13   -1    0    0    0    0 -0.00000000000E+00 -0.00000000000E+00 -0.10000000000E+04  0.10000000000E+04  0.00000000000E+00 0.  1.
    9000005    2    1    2  501    0 -0.34122577351E+02 -0.49078144686E+02 -0.29556485280E+03  0.30156393117E+03  0.30344359099E+01 0.  0.
         13    1    3    3    0    0 -0.17651706697E+02 -0.27925239787E+02 -0.16102144888E+03  0.16437551146E+03  0.00000000000E+00 0.  1.
          3    1    3    3  501    0 -0.16470870653E+02 -0.21152904900E+02 -0.13454340391E+03  0.13718841971E+03  0.00000000000E+00 0.  1.
         -3    1    1    2    0  502  0.34122577351E+02  0.49078144686E+02 -0.70016214309E+03  0.70270907294E+03  0.00000000000E+00 0. -1.
<mgrwt>
<rscale>  1 0.30000000E+03</rscale>
<asrwt>0</asrwt>
<pdfrwt beam="1">  1       21 0.15538230E-01 0.30000000E+03</pdfrwt>
<pdfrwt beam="2">0</pdfrwt>
<totfact> 0.38573599E+03</totfact>
</mgrwt>
</event>
<event>
 6    1  0.6377696E-002  0.3000000E+03  0.7818608E-02  0.1093470E+00
         21   -1    0    0  501  502  0.00000000000E+00  0.00000000000E+00  0.46176408161E+01  0.46176408161E+01  0.00000000000E+00 0. -1.
         13   -1    0    0    0    0 -0.00000000000E+00 -0.00000000000E+00 -0.10000000000E+04  0.10000000000E+04  0.00000000000E+00 0.  1.
    9000005    2    1    2  501    0  0.13446993675E+02 -0.63510637662E+02 -0.64479456223E+03  0.64806999167E+03  0.45015434182E+01 0.  0.
         13    1    3    3    0    0  0.57839889051E+01 -0.17532580049E+02 -0.18364099603E+03  0.18456668527E+03  0.00000000000E+00 0.  1.
          3    1    3    3  501    0  0.76630047699E+01 -0.45978057613E+02 -0.46115356620E+03  0.46350330640E+03  0.00000000000E+00 0.  1.
         -3    1    1    2    0  502 -0.13446993675E+02  0.63510637662E+02 -0.35058779695E+03  0.35654764914E+03  0.00000000000E+00 0. -1.
<mgrwt>
<rscale>  1 0.30000000E+03</rscale>
<asrwt>0</asrwt>
<pdfrwt beam="1">  1       21 0.16791457E-01 0.30000000E+03</pdfrwt>
<pdfrwt beam="2">0</pdfrwt>
<totfact> 0.33377578E+03</totfact>
</mgrwt>
</event>
<event>
 6    1  0.6377696E-002  0.3000000E+03  0.7818608E-02  0.1093470E+00
         21   -1    0    0  501  502  0.00000000000E+00  0.00000000000E+00  0.11311092771E+01  0.11311092771E+01  0.00000000000E+00 0. -1.
         13   -1    0    0    0    0 -0.00000000000E+00 -0.00000000000E+00 -0.10000000000E+04  0.10000000000E+04  0.00000000000E+00 0.  1.
    9000005    2    1    2  501    0 -0.84033582736E+00  0.32343361612E+02 -0.59573472892E+03  0.59670070535E+03  0.10250137761E+02 0.  0.
         13    1    3    3    0    0 -0.47721493861E+01  0.17574555431E+02 -0.37119966185E+03  0.37164610501E+03  0.00000000000E+00 0.  1.
          1    1    3    3  501    0  0.39318135588E+01  0.14768806181E+02 -0.22453506706E+03  0.22505460034E+03  0.00000000000E+00 0.  1.
         -1    1    1    2    0  502  0.84033582736E+00 -0.32343361612E+02 -0.40313416181E+03  0.40443040393E+03  0.00000000000E+00 0. -1.
<mgrwt>
<rscale>  1 0.30000000E+03</rscale>
<asrwt>0</asrwt>
<pdfrwt beam="1">  1       21 0.41131333E-02 0.30000000E+03</pdfrwt>
<pdfrwt beam="2">0</pdfrwt>
<totfact> 0.40116689E+04</totfact>
</mgrwt>
</event>
<event>
 6    1  0.6377696E-002  0.3000000E+03  0.7818608E-02  0.1093470E+00
         21   -1    0    0  501  502  0.00000000000E+00  0.00000000000E+00  0.11851826151E+01  0.11851826151E+01  0.00000000000E+00 0. -1.
         13   -1    0    0    0    0 -0.00000000000E+00 -0.00000000000E+00 -0.10000000000E+04  0.10000000000E+04  0.00000000000E+00 0.  1.
    9000005    2    1    2  501    0 -0.32860725008E+02  0.19246413203E+01 -0.35950980803E+03  0.36103330495E+03  0.37701088743E+01 0.  0.
         13    1    3    3    0    0 -0.30820172535E+02  0.13007489624E+01 -0.32624485793E+03  0.32769998827E+03  0.00000000000E+00 0.  1.
          1    1    3    3  501    0 -0.20405524731E+01  0.62389235785E+00 -0.33264950097E+02  0.33333316682E+02  0.00000000000E+00 0.  1.
         -1    1    1    2    0  502  0.32860725008E+02 -0.19246413203E+01 -0.63930500936E+03  0.64015187767E+03  0.00000000000E+00 0. -1.
<mgrwt>
<rscale>  1 0.30000000E+03</rscale>
<asrwt>0</asrwt>
<pdfrwt beam="1">  1       21 0.43097641E-02 0.30000000E+03</pdfrwt>
<pdfrwt beam="2">0</pdfrwt>
<totfact> 0.37074247E+04</totfact>
</mgrwt>
</event>
<event>
 6    1  0.6377696E-002  0.3000000E+03  0.7818608E-02  0.1093470E+00
         21   -1    0    0  501  502  0.00000000000E+00  0.00000000000E+00  0.10018610621E+01  0.10018610621E+01  0.00000000000E+00 0. -1.
         13   -1    0    0    0    0 -0.00000000000E+00 -0.00000000000E+00 -0.10000000000E+04  0.10000000000E+04  0.00000000000E+00 0.  1.
    9000005    2    1    2  501    0 -0.29019194257E+02 -0.98914191006E+01 -0.62086428114E+03  0.62162715418E+03  0.28123680208E+01 0.  0.
         13    1    3    3    0    0 -0.21674199101E+02 -0.75326343223E+01 -0.43885955732E+03  0.43945901121E+03  0.00000000000E+00 0.  1.
          3    1    3    3  501    0 -0.73449951560E+01 -0.23587847784E+01 -0.18200472382E+03  0.18216814297E+03  0.00000000000E+00 0.  1.
         -1    1    1    2    0  502  0.29019194257E+02  0.98914191006E+01 -0.37813385780E+03  0.37937470688E+03  0.00000000000E+00 0. -1.
<mgrwt>
<rscale>  1 0.30000000E+03</rscale>
<asrwt>0</asrwt>
<pdfrwt beam="1">  1       21 0.36431388E-02 0.30000000E+03</pdfrwt>
<pdfrwt beam="2">0</pdfrwt>
<totfact> 0.49197500E+04</totfact>
</mgrwt>
</event>
<event>
 6    1  0.6377696E-002  0.3000000E+03  0.7818608E-02  0.1093470E+00
         21   -1    0    0  501  502  0.00000000000E+00  0.00000000000E+00  0.20118590142E+01  0.20118590142E+01  0.00000000000E+00 0. -1.
         13   -1    0    0    0    0 -0.00000000000E+00 -0.00000000000E+00 -0.10000000000E+04  0.10000000000E+04  0.00000000000E+00 0.  1.
    9000005    2    1    2  501    0  0.39782811476E+02  0.96446431017E+01 -0.70271402070E+03  0.70391372527E+03  0.34418759097E+01 0.  0.
         13    1    3    3    0    0  0.15968233596E+02  0.55283510159E+01 -0.29818071549E+03  0.29865914725E+03  0.00000000000E+00 0.  1.
          3    1    3    3  501    0  0.23814577879E+02  0.41162920858E+01 -0.40453330521E+03  0.40525457802E+03  0.00000000000E+00 0.  1.
         -1    1    1    2    0  502 -0.39782811476E+02 -0.96446431017E+01 -0.29527412029E+03  0.29809813374E+03  0.00000000000E+00 0. -1.
<mgrwt>
<rscale>  1 0.30000000E+03</rscale>
<asrwt>0</asrwt>
<pdfrwt beam="1">  1       21 0.73158664E-02 0.30000000E+03</pdfrwt>
<pdfrwt beam="2">0</pdfrwt>
<totfact> 0.14940159E+04</totfact>
</mgrwt>
</event>
<event>
 6    1  0.6377696E-002  0.3000000E+03  0.7818608E-02  0.1093470E+00
         21   -1    0    0  501  502  0.00000000000E+00  0.00000000000E+00  0.12669254742E+01  0.12669254742E+01  0.00000000000E+00 0. -1.
         13   -1    0    0    0    0 -0.00000000000E+00 -0.00000000000E+00 -0.10000000000E+04  0.10000000000E+04  0.00000000000E+00 0.  1.
    9000005    2    1    2  501    0  0.10259975188E+02  0.32459868198E+02 -0.64306422103E+03  0.64397258815E+03  0.31924582994E+01 0.  0.
         13    1    3    3    0    0  0.94902666208E+01  0.26223064585E+02 -0.51592467069E+03  0.51667783009E+03  0.00000000000E+00 0.  1.
          3    1    3    3  501    0  0.76970856766E+00  0.62368036133E+01 -0.12713955034E+03  0.12729475806E+03  0.00000000000E+00 0.  1.
         -1    1    1    2    0  502 -0.10259975188E+02 -0.32459868198E+02 -0.35566885350E+03  0.35729433732E+03  0.00000000000E+00 0. -1.
<mgrwt>
<rscale>  1 0.30000000E+03</rscale>
<asrwt>0</asrwt>
<pdfrwt beam="1">  1       21 0.46070114E-02 0.30000000E+03</pdfrwt>
<pdfrwt beam="2">0</pdfrwt>
<totfact> 0.33109994E+04</totfact>
</mgrwt>
</event>
<event>
 6    1  0.6377696E-002  0.3000000E+03  0.7818608E-02  0.1093470E+00
         21   -1    0    0  501  502  0.00000000000E+00  0.00000000000E+00  0.69519883495E+01  0.69519883495E+01  0.00000000000E+00 0. -1.
         13   -1    0    0    0    0 -0.00000000000E+00 -0.00000000000E+00 -0.10000000000E+04  0.10000000000E+04  0.00000000000E+00 0.  1.
    9000005    2    1    2  501    0  0.75070342248E+02  0.14911926263E+01 -0.27795824871E+03  0.28793102273E+03  0.23886989282E+01 0.  0.
         13    1    3    3    0    0  0.65973980895E+01 -0.53225066970E+00 -0.25005387209E+02  0.25866548703E+02  0.00000000000E+00 0.  1.
          1    1    3    3  501    0  0.68472944159E+02  0.20234432960E+01 -0.25295286150E+03  0.26206447402E+03  0.00000000000E+00 0.  1.
         -1    1    1    2    0  502 -0.75070342248E+02 -0.14911926263E+01 -0.71508976294E+03  0.71902096562E+03  0.00000000000E+00 0. -1.
<mgrwt>
<rscale>  1 0.30000000E+03</rscale>
<asrwt>0</asrwt>
<pdfrwt beam="1">  1       21 0.25280011E-01 0.30000000E+03</pdfrwt>
<pdfrwt beam="2">0</pdfrwt>
<totfact> 0.15259364E+03</totfact>
</mgrwt>
</event>
<event>
 6    1  0.6377696E-002  0.3000000E+03  0.7818608E-02  0.1093470E+00
         21   -1    0    0  501  502  0.00000000000E+00  0.00000000000E+00  0.26843303357E+01  0.26843303357E+01  0.00000000000E+00 0. -1.
         13   -1    0    0    0    0 -0.00000000000E+00 -0.00000000000E+00 -0.10000000000E+04  0.10000000000E+04  0.00000000000E+00 0.  1.
    9000005    2    1    2  501    0  0.44377699973E+02  0.12985919669E+02 -0.72402240784E+03  0.72550709223E+03  0.37522605559E+01 0.  0.
         13    1    3    3    0    0  0.33579372669E+01  0.66205448666E-01 -0.46510813760E+02  0.46631919567E+02  0.00000000000E+00 0.  1.
          1    1    3    3  501    0  0.41019762706E+02  0.12919714221E+02 -0.67751159408E+03  0.67887517266E+03  0.00000000000E+00 0.  1.
         -1    1    1    2    0  502 -0.44377699973E+02 -0.12985919669E+02 -0.27329326183E+03  0.27717723811E+03  0.00000000000E+00 0. -1.
<mgrwt>
<rscale>  1 0.30000000E+03</rscale>
<asrwt>0</asrwt>
<pdfrwt beam="1">  1       21 0.97612218E-02 0.30000000E+03</pdfrwt>
<pdfrwt beam="2">0</pdfrwt>
<totfact> 0.89825812E+03</totfact>
</mgrwt>
</event>
<event>
 6    1  0.6377696E-002  0.3000000E+03  0.7818608E-02  0.1093470E+00
         21   -1    0    0  501  502  0.00000000000E+00  0.00000000000E+00  0.10980443986E+01  0.10980443986E+01  0.00000000000E+00 0. -1.
         13   -1    0    0    0    0 -0.00000000000E+00 -0.00000000000E+00 -0.10000000000E+04  0.10000000000E+04  0.00000000000E+00 0.  1.
    9000005    2    1    2  501    0 -0.30090486175E+02 -0.64156788206E+00 -0.70758564757E+03  0.70823111165E+03  0.28301777853E+01 0.  0.
         13    1    3    3    0    0 -0.29723303104E+02 -0.92246005131E+00 -0.70001394239E+03  0.70064530629E+03  0.00000000000E+00 0.  1.
          1    1    3    3  501    0 -0.36718307049E+00  0.28089216925E+00 -0.75717051727E+01  0.75858053653E+01  0.00000000000E+00 0.  1.
         -1    1    1    2    0  502  0.30090486175E+02  0.64156788206E+00 -0.29131630804E+03  0.29286693274E+03  0.00000000000E+00 0. -1.
<mgrwt>
<rscale>  1 0.30000000E+03</rscale>
<asrwt>0</asrwt>
<pdfrwt beam="1">  1       21 0.39928971E-02 0.30000000E+03</pdfrwt>
<pdfrwt beam="2">0</pdfrwt>
<totfact> 0.42173355E+04</totfact>
</mgrwt>
</event>
<event>
 6    1  0.6377696E-002  0.3000000E+03  0.7818608E-02  0.1093470E+00
         21   -1    0    0  501  502  0.00000000000E+00  0.00000000000E+00  0.15029485694E+01  0.15029485694E+01  0.00000000000E+00 0. -1.
         13   -1    0    0    0    0 -0.00000000000E+00 -0.00000000000E+00 -0.10000000000E+04  0.10000000000E+04  0.00000000000E+00 0.  1.
    9000005    2    1    2  501    0 -0.31927380008E+02  0.21491820266E+02 -0.55440216975E+03  0.55574346200E+03  0.27881532719E+01 0.  0.
         13    1    3    3    0    0 -0.51985080289E+01  0.40193286190E+01 -0.10919827456E+03  0.10939580730E+03  0.00000000000E+00 0.  1.
          3    1    3    3  501    0 -0.26728871979E+02  0.17472491647E+02 -0.44520389520E+03  0.44634765470E+03  0.00000000000E+00 0.  1.
         -1    1    1    2    0  502  0.31927380008E+02 -0.21491820266E+02 -0.44409488168E+03  0.44575948657E+03  0.00000000000E+00 0. -1.
<mgrwt>
<rscale>  1 0.30000000E+03</rscale>
<asrwt>0</asrwt>
<pdfrwt beam="1">  1       21 0.54652790E-02 0.30000000E+03</pdfrwt>
<pdfrwt beam="2">0</pdfrwt>
<totfact> 0.24741297E+04</totfact>
</mgrwt>
</event>
<event>
 6    1  0.6377696E-002  0.3000000E+03  0.7818608E-02  0.1093470E+00
         21   -1    0    0  501  502  0.00000000000E+00  0.00000000000E+00  0.11014168535E+01  0.11014168535E+01  0.00000000000E+00 0. -1.
         13   -1    0    0    0    0 -0.00000000000E+00 -0.00000000000E+00 -0.10000000000E+04  0.10000000000E+04  0.00000000000E+00 0.  1.
    9000005    2    1    2  501    0 -0.28895377216E+02  0.14766163821E+02 -0.48891122505E+03  0.49008274025E+03  0.96914340286E+01 0.  0.
         13    1    3    3    0    0 -0.18681503993E+02  0.14403917389E+02 -0.35374934162E+03  0.35453500267E+03  0.00000000000E+00 0.  1.
          3    1    3    3  501    0 -0.10213873223E+02  0.36224643249E+00 -0.13516188343E+03  0.13554773757E+03  0.00000000000E+00 0.  1.
         -1    1    1    2    0  502  0.28895377216E+02 -0.14766163821E+02 -0.50998735810E+03  0.51101867660E+03  0.00000000000E+00 0. -1.
<mgrwt>
<rscale>  1 0.30000000E+03</rscale>
<asrwt>0</asrwt>
<pdfrwt beam="1">  1       21 0.40051606E-02 0.30000000E+03</pdfrwt>
<pdfrwt beam="2">0</pdfrwt>
<totfact> 0.41956123E+04</totfact>
</mgrwt>
</event>
<event>
 6    1  0.6377696E-002  0.3000000E+03  0.7818608E-02  0.1093470E+00
         21   -1    0    0  501  502  0.00000000000E+00  0.00000000000E+00  0.31377233733E+01  0.31377233733E+01  0.00000000000E+00 0. -1.
         13   -1    0    0    0    0 -0.00000000000E+00 -0.00000000000E+00 -0.10000000000E+04  0.10000000000E+04  0.00000000000E+00 0.  1.
    9000005    2    1    2  501    0  0.31779517218E+02 -0.45431778652E+02 -0.56649709638E+03  0.56921587259E+03  0.37101435510E+01 0.  0.
         13    1    3    3    0    0  0.10444946344E+02 -0.12119573210E+02 -0.15836025618E+03  0.15916642767E+03  0.00000000000E+00 0.  1.
          3    1    3    3  501    0  0.21334570874E+02 -0.33312205442E+02 -0.40813684020E+03  0.41004944492E+03  0.00000000000E+00 0.  1.
         -3    1    1    2    0  502 -0.31779517218E+02  0.45431778652E+02 -0.43036518024E+03  0.43392185079E+03  0.00000000000E+00 0. -1.
<mgrwt>
<rscale>  1 0.30000000E+03</rscale>
<asrwt>0</asrwt>
<pdfrwt beam="1">  1       21 0.11409927E-01 0.30000000E+03</pdfrwt>
<pdfrwt beam="2">0</pdfrwt>
<totfact> 0.67892801E+03</totfact>
</mgrwt>
</event>
<event>
 6    1  0.6377696E-002  0.3000000E+03  0.7818608E-02  0.1093470E+00
         21   -1    0    0  501  502  0.00000000000E+00  0.00000000000E+00  0.10284114361E+01  0.10284114361E+01  0.00000000000E+00 0. -1.
         13   -1    0    0    0    0 -0.00000000000E+00 -0.00000000000E+00 -0.10000000000E+04  0.10000000000E+04  0.00000000000E+00 0.  1.
    9000005    2    1    2  501    0  0.26018980823E+02  0.15348908335E+02 -0.66476932172E+03  0.66546361663E+03  0.33162640070E+01 0.  0.
         13    1    3    3    0    0  0.11743881388E+02  0.60744205695E+01 -0.25877903883E+03  0.25911659205E+03  0.00000000000E+00 0.  1.
          3    1    3    3  501    0  0.14275099435E+02  0.92744877656E+01 -0.40599028288E+03  0.40634702458E+03  0.00000000000E+00 0.  1.
         -3    1    1    2    0  502 -0.26018980823E+02 -0.15348908335E+02 -0.33420226685E+03  0.33556479481E+03  0.00000000000E+00 0. -1.
<mgrwt>
<rscale>  1 0.30000000E+03</rscale>
<asrwt>0</asrwt>
<pdfrwt beam="1">  1       21 0.37396858E-02 0.30000000E+03</pdfrwt>
<pdfrwt beam="2">0</pdfrwt>
<totfact> 0.47084532E+04</totfact>
</mgrwt>
</event>
<event>
 6    1  0.6377696E-002  0.3000000E+03  0.7818608E-02  0.1093470E+00
         21   -1    0    0  501  502  0.00000000000E+00  0.00000000000E+00  0.11462527841E+01  0.11462527841E+01  0.00000000000E+00 0. -1.
         13   -1    0    0    0    0 -0.00000000000E+00 -0.00000000000E+00 -0.10000000000E+04  0.10000000000E+04  0.00000000000E+00 0.  1.
    9000005    2    1    2  501    0 -0.18462972684E+01  0.32579885576E+02 -0.37198335474E+03  0.37342709049E+03  0.33642153410E+01 0.  0.
         13    1    3    3    0    0 -0.12885111493E+00  0.23940129742E+02 -0.28129779114E+03  0.28231470687E+03  0.00000000000E+00 0.  1.
          3    1    3    3  501    0 -0.17174461535E+01  0.86397558338E+01 -0.90685563600E+02  0.91112383613E+02  0.00000000000E+00 0.  1.
         -1    1    1    2    0  502  0.18462972684E+01 -0.32579885576E+02 -0.62687039247E+03  0.62771916230E+03  0.00000000000E+00 0. -1.
<mgrwt>
<rscale>  1 0.30000000E+03</rscale>
<asrwt>0</asrwt>
<pdfrwt beam="1">  1       21 0.41682007E-02 0.30000000E+03</pdfrwt>
<pdfrwt beam="2">0</pdfrwt>
<totfact> 0.39226550E+04</totfact>
</mgrwt>
</event>
<event>
 6    1  0.6377696E-002  0.3000000E+03  0.7818608E-02  0.1093470E+00
         21   -1    0    0  501  502  0.00000000000E+00  0.00000000000E+00  0.14063284744E+01  0.14063284744E+01  0.00000000000E+00 0. -1.
         13   -1    0    0    0    0 -0.00000000000E+00 -0.00000000000E+00 -0.10000000000E+04  0.10000000000E+04  0.00000000000E+00 0.  1.
    9000005    2    1    2  501    0  0.37369676649E+02 -0.15785913528E+01 -0.51712147183E+03  0.51848349430E+03  0.33959614996E+01 0.  0.
         13    1    3    3    0    0  0.53536392362E+01 -0.46353691291E+00 -0.59550535522E+02  0.59792496189E+02  0.00000000000E+00 0.  1.
          1    1    3    3  501    0  0.32016037413E+02 -0.11150544399E+01 -0.45757093631E+03  0.45869099811E+03  0.00000000000E+00 0.  1.
         -1    1    1    2    0  502 -0.37369676649E+02  0.15785913528E+01 -0.48147219970E+03  0.48292283417E+03  0.00000000000E+00 0. -1.
<mgrwt>
<rscale>  1 0.30000000E+03</rscale>
<asrwt>0</asrwt>
<pdfrwt beam="1">  1       21 0.51139325E-02 0.30000000E+03</pdfrwt>
<pdfrwt beam="2">0</pdfrwt>
<totfact> 0.27718670E+04</totfact>
</mgrwt>
</event>
<event>
 6    1  0.6377696E-002  0.3000000E+03  0.7818608E-02  0.1093470E+00
         21   -1    0    0  501  502  0.00000000000E+00  0.00000000000E+00  0.26008058752E+01  0.26008058752E+01  0.00000000000E+00 0. -1.
         13   -1    0    0    0    0 -0.00000000000E+00 -0.00000000000E+00 -0.10000000000E+04  0.10000000000E+04  0.00000000000E+00 0.  1.
    9000005    2    1    2  501    0  0.46095869041E+01 -0.42794899745E+02 -0.76713313746E+03  0.76834643860E+03  0.32167349931E+01 0.  0.
         13    1    3    3    0    0  0.48353746546E+01 -0.31935655970E+02 -0.57659857610E+03  0.57750254106E+03  0.00000000000E+00 0.  1.
          1    1    3    3  501    0 -0.22578775050E+00 -0.10859243775E+02 -0.19053456137E+03  0.19084389754E+03  0.00000000000E+00 0.  1.
         -3    1    1    2    0  502 -0.46095869041E+01  0.42794899745E+02 -0.23026605666E+03  0.23425436727E+03  0.00000000000E+00 0. -1.
<mgrwt>
<rscale>  1 0.30000000E+03</rscale>
<asrwt>0</asrwt>
<pdfrwt beam="1">  1       21 0.94574959E-02 0.30000000E+03</pdfrwt>
<pdfrwt beam="2">0</pdfrwt>
<totfact> 0.95033144E+03</totfact>
</mgrwt>
</event>
<event>
 6    1  0.6377696E-002  0.3000000E+03  0.7818608E-02  0.1093470E+00
         21   -1    0    0  501  502  0.00000000000E+00  0.00000000000E+00  0.12779074736E+01  0.12779074736E+01  0.00000000000E+00 0. -1.
         13   -1    0    0    0    0 -0.00000000000E+00 -0.00000000000E+00 -0.10000000000E+04  0.10000000000E+04  0.00000000000E+00 0.  1.
    9000005    2    1    2  501    0 -0.33515133919E+02  0.55951332164E+01 -0.63318160467E+03  0.63416155265E+03  0.93466918547E+01 0.  0.
         13    1    3    3    0    0 -0.33990783930E+02  0.55643487952E+01 -0.60756931497E+03  0.60854482814E+03  0.00000000000E+00 0.  1.
          3    1    3    3  501    0  0.47565001088E+00  0.30784421172E-01 -0.25612289708E+02  0.25616724512E+02  0.00000000000E+00 0.  1.
         -1    1    1    2    0  502  0.33515133919E+02 -0.55951332164E+01 -0.36554048785E+03  0.36711635482E+03  0.00000000000E+00 0. -1.
<mgrwt>
<rscale>  1 0.30000000E+03</rscale>
<asrwt>0</asrwt>
<pdfrwt beam="1">  1       21 0.46469461E-02 0.30000000E+03</pdfrwt>
<pdfrwt beam="2">0</pdfrwt>
<totfact> 0.32627934E+04</totfact>
</mgrwt>
</event>
<event>
 6    1  0.6377696E-002  0.3000000E+03  0.7818608E-02  0.1093470E+00
         21   -1    0    0  501  502  0.00000000000E+00  0.00000000000E+00  0.18469602191E+01  0.18469602191E+01  0.00000000000E+00 0. -1.
         13   -1    0    0    0    0 -0.00000000000E+00 -0.00000000000E+00 -0.10000000000E+04  0.10000000000E+04  0.00000000000E+00 0.  1.
    9000005    2    1    2  501    0  0.15184474576E+02  0.39899603545E+02 -0.55067191180E+03  0.55233399430E+03  0.32772216420E+01 0.  0.
         13    1    3    3    0    0  0.12746771061E+02  0.31043959419E+02 -0.41856806604E+03  0.41991122097E+03  0.00000000000E+00 0.  1.
          1    1    3    3  501    0  0.24377035151E+01  0.88556441260E+01 -0.13210384576E+03  0.13242277333E+03  0.00000000000E+00 0.  1.
         -1    1    1    2    0  502 -0.15184474576E+02 -0.39899603545E+02 -0.44748112798E+03  0.44951296592E+03  0.00000000000E+00 0. -1.
<mgrwt>
<rscale>  1 0.30000000E+03</rscale>
<asrwt>0</asrwt>
<pdfrwt beam="1">  1       21 0.67162331E-02 0.30000000E+03</pdfrwt>
<pdfrwt beam="2">0</pdfrwt>
<totfact> 0.17338238E+04</totfact>
</mgrwt>
</event>
<event>
 6    1  0.6377696E-002  0.3000000E+03  0.7818608E-02  0.1093470E+00
         21   -1    0    0  501  502  0.00000000000E+00  0.00000000000E+00  0.10881290850E+01  0.10881290850E+01  0.00000000000E+00 0. -1.
         13   -1    0    0    0    0 -0.00000000000E+00 -0.00000000000E+00 -0.10000000000E+04  0.10000000000E+04  0.00000000000E+00 0.  1.
    9000005    2    1    2  501    0 -0.25254343806E+02 -0.20311275947E+02 -0.49418811459E+03  0.49532494339E+03  0.86358048060E+01 0.  0.
         13    1    3    3    0    0 -0.24592754851E+02 -0.16480238391E+02 -0.42779666517E+03  0.42881976235E+03  0.00000000000E+00 0.  1.
          3    1    3    3  501    0 -0.66158895526E+00 -0.38310375560E+01 -0.66391449424E+02  0.66505181041E+02  0.00000000000E+00 0.  1.
         -1    1    1    2    0  502  0.25254343806E+02  0.20311275947E+02 -0.50472375632E+03  0.50576318570E+03  0.00000000000E+00 0. -1.
<mgrwt>
<rscale>  1 0.30000000E+03</rscale>
<asrwt>0</asrwt>
<pdfrwt beam="1">  1       21 0.39568414E-02 0.30000000E+03</pdfrwt>
<pdfrwt beam="2">0</pdfrwt>
<totfact> 0.42822329E+04</totfact>
</mgrwt>
</event>
<event>
 6    1  0.6377696E-002  0.3000000E+03  0.7818608E-02  0.1093470E+00
         21   -1    0    0  501  502  0.00000000000E+00  0.00000000000E+00  0.13883237876E+01  0.13883237876E+01  0.00000000000E+00 0. -1.
         13   -1    0    0    0    0 -0.00000000000E+00 -0.00000000000E+00 -0.10000000000E+04  0.10000000000E+04  0.00000000000E+00 0.  1.
    9000005    2    1    2  501    0 -0.35108173966E+02  0.54781536609E-01 -0.33567264732E+03  0.33752030761E+03  0.33533576304E+01 0.  0.
         13    1    3    3    0    0 -0.89183620017E+01 -0.12466928751E+01 -0.93079068928E+02  0.93513659411E+02  0.00000000000E+00 0.  1.
          1    1    3    3  501    0 -0.26189811964E+02  0.13014744117E+01 -0.24259357839E+03  0.24400664819E+03  0.00000000000E+00 0.  1.
         -3    1    1    2    0  502  0.35108173966E+02 -0.54781536609E-01 -0.66293902889E+03  0.66386801618E+03  0.00000000000E+00 0. -1.
<mgrwt>
<rscale>  1 0.30000000E+03</rscale>
<asrwt>0</asrwt>
<pdfrwt beam="1">  1       21 0.50484608E-02 0.30000000E+03</pdfrwt>
<pdfrwt beam="2">0</pdfrwt>
<totfact> 0.28334783E+04</totfact>
</mgrwt>
</event>
<event>
 6    1  0.6377696E-002  0.3000000E+03  0.7818608E-02  0.1093470E+00
         21   -1    0    0  501  502  0.00000000000E+00  0.00000000000E+00  0.93638111598E+00  0.93638111598E+00  0.00000000000E+00 0. -1.
         13   -1    0    0    0    0 -0.00000000000E+00 -0.00000000000E+00 -0.10000000000E+04  0.10000000000E+04  0.00000000000E+00 0.  1.
    9000005    2    1    2  501    0 -0.11198302859E+02 -0.28365957242E+02 -0.50588629886E+03  0.50681706505E+03  0.35440853299E+01 0.  0.
         13    1    3    3    0    0 -0.36445234589E+01 -0.12418844229E+02 -0.23583945631E+03  0.23619432550E+03  0.00000000000E+00 0.  1.
          1    1    3    3  501    0 -0.75537794004E+01 -0.15947113014E+02 -0.27004684254E+03  0.27062273955E+03  0.00000000000E+00 0.  1.
         -1    1    1    2    0  502  0.11198302859E+02  0.28365957242E+02 -0.49317732003E+03  0.49411931606E+03  0.00000000000E+00 0. -1.
<mgrwt>
<rscale>  1 0.30000000E+03</rscale>
<asrwt>0</asrwt>
<pdfrwt beam="1">  1       21 0.34050294E-02 0.30000000E+03</pdfrwt>
<pdfrwt beam="2">0</pdfrwt>
<totfact> 0.55094753E+04</totfact>
</mgrwt>
</event>
<event>
 6    1  0.6377696E-002  0.3000000E+03  0.7818608E-02  0.1093470E+00
         21   -1    0    0  501  502  0.00000000000E+00  0.00000000000E+00  0.34698874659E+01  0.34698874659E+01  0.00000000000E+00 0. -1.
         13   -1    0    0    0    0 -0.00000000000E+00 -0.00000000000E+00 -0.10000000000E+04  0.10000000000E+04  0.00000000000E+00 0.  1.
    9000005    2    1    2  501    0 -0.41750012194E+02 -0.41073552141E+02 -0.44855124293E+03  0.45237013086E+03  0.32276233305E+01 0.  0.
         13    1    3    3    0    0 -0.18252008705E+02 -0.16594849219E+02 -0.19863748239E+03  0.20016336891E+03  0.00000000000E+00 0.  1.
          3    1    3    3  501    0 -0.23498003488E+02 -0.24478702923E+02 -0.24991376054E+03  0.25220676195E+03  0.00000000000E+00 0.  1.
         -1    1    1    2    0  502  0.41750012194E+02  0.41073552141E+02 -0.54797886960E+03  0.55109975661E+03  0.00000000000E+00 0. -1.
<mgrwt>
<rscale>  1 0.30000000E+03</rscale>
<asrwt>0</asrwt>
<pdfrwt beam="1">  1       21 0.12617799E-01 0.30000000E+03</pdfrwt>
<pdfrwt beam="2">0</pdfrwt>
<totfact> 0.56562037E+03</totfact>
</mgrwt>
</event>
<event>
 6    1  0.6377696E-002  0.3000000E+03  0.7818608E-02  0.1093470E+00
         21   -1    0    0  501  502  0.00000000000E+00  0.00000000000E+00  0.15772367548E+01  0.15772367548E+01  0.00000000000E+00 0. -1.
         13   -1    0    0    0    0 -0.00000000000E+00 -0.00000000000E+00 -0.10000000000E+04  0.10000000000E+04  0.00000000000E+00 0.  1.
    9000005    2    1    2  501    0 -0.32800219850E+02  0.14788719920E+02 -0.28987698429E+03  0.29211851242E+03  0.31620592197E+01 0.  0.
         13    1    3    3    0    0 -0.10220571166E+01  0.10262989894E+01 -0.14646775504E+02  0.14718217386E+02  0.00000000000E+00 0.  1.
          1    1    3    3  501    0 -0.31778162733E+02  0.13762420931E+02 -0.27523020878E+03  0.27740029503E+03  0.00000000000E+00 0.  1.
         -1    1    1    2    0  502  0.32800219850E+02 -0.14788719920E+02 -0.70854577896E+03  0.70945872434E+03  0.00000000000E+00 0. -1.
<mgrwt>
<rscale>  1 0.30000000E+03</rscale>
<asrwt>0</asrwt>
<pdfrwt beam="1">  1       21 0.57354185E-02 0.30000000E+03</pdfrwt>
<pdfrwt beam="2">0</pdfrwt>
<totfact> 0.22774314E+04</totfact>
</mgrwt>
</event>
<event>
 6    1  0.6377696E-002  0.3000000E+03  0.7818608E-02  0.1093470E+00
         21   -1    0    0  501  502  0.00000000000E+00  0.00000000000E+00  0.10112785111E+01  0.10112785111E+01  0.00000000000E+00 0. -1.
         13   -1    0    0    0    0 -0.00000000000E+00 -0.00000000000E+00 -0.10000000000E+04  0.10000000000E+04  0.00000000000E+00 0.  1.
    9000005    2    1    2  501    0 -0.20418825796E+02 -0.23258612429E+02 -0.39160758042E+03  0.39284210630E+03  0.32452954493E+01 0.  0.
         13    1    3    3    0    0 -0.43004774774E+01 -0.30741537053E+01 -0.68518708178E+02  0.68722324597E+02  0.00000000000E+00 0.  1.
          3    1    3    3  501    0 -0.16118348318E+02 -0.20184458724E+02 -0.32308887224E+03  0.32411978171E+03  0.00000000000E+00 0.  1.
         -3    1    1    2    0  502  0.20418825796E+02  0.23258612429E+02 -0.60738114107E+03  0.60816917221E+03  0.00000000000E+00 0. -1.
<mgrwt>
<rscale>  1 0.30000000E+03</rscale>
<asrwt>0</asrwt>
<pdfrwt beam="1">  1       21 0.36773842E-02 0.30000000E+03</pdfrwt>
<pdfrwt beam="2">0</pdfrwt>
<totfact> 0.48431230E+04</totfact>
</mgrwt>
</event>
<event>
 6    1  0.6377696E-002  0.3000000E+03  0.7818608E-02  0.1093470E+00
         21   -1    0    0  501  502  0.00000000000E+00  0.00000000000E+00  0.20830140722E+01  0.20830140722E+01  0.00000000000E+00 0. -1.
         13   -1    0    0    0    0 -0.00000000000E+00 -0.00000000000E+00 -0.10000000000E+04  0.10000000000E+04  0.00000000000E+00 0.  1.
    9000005    2    1    2  501    0 -0.30009735811E+01 -0.45449944277E+02 -0.49365267016E+03  0.49576571885E+03  0.39982446952E+01 0.  0.
         13    1    3    3    0    0 -0.80910174241E+00 -0.30833195568E+02 -0.31800484199E+03  0.31949713633E+03  0.00000000000E+00 0.  1.
          1    1    3    3  501    0 -0.21918718387E+01 -0.14616748709E+02 -0.17564782817E+03  0.17626858252E+03  0.00000000000E+00 0.  1.
         -1    1    1    2    0  502  0.30009735811E+01  0.45449944277E+02 -0.50426431577E+03  0.50631729522E+03  0.00000000000E+00 0. -1.
<mgrwt>
<rscale>  1 0.30000000E+03</rscale>
<asrwt>0</asrwt>
<pdfrwt beam="1">  1       21 0.75746126E-02 0.30000000E+03</pdfrwt>
<pdfrwt beam="2">0</pdfrwt>
<totfact> 0.14058620E+04</totfact>
</mgrwt>
</event>
<event>
 6    1  0.6377696E-002  0.3000000E+03  0.7818608E-02  0.1093470E+00
         21   -1    0    0  501  502  0.00000000000E+00  0.00000000000E+00  0.50558982846E+01  0.50558982846E+01  0.00000000000E+00 0. -1.
         13   -1    0    0    0    0 -0.00000000000E+00 -0.00000000000E+00 -0.10000000000E+04  0.10000000000E+04  0.00000000000E+00 0.  1.
    9000005    2    1    2  501    0  0.19951692109E+02 -0.65431902390E+02 -0.36520724825E+03  0.37161457623E+03  0.64540860773E+01 0.  0.
         13    1    3    3    0    0  0.81710814899E+01 -0.23254209411E+02 -0.14772866471E+03  0.14977076886E+03  0.00000000000E+00 0.  1.
          3    1    3    3  501    0  0.11780610619E+02 -0.42177692979E+02 -0.21747858354E+03  0.22184380738E+03  0.00000000000E+00 0.  1.
         -3    1    1    2    0  502 -0.19951692109E+02  0.65431902390E+02 -0.62973685347E+03  0.63344132205E+03  0.00000000000E+00 0. -1.
<mgrwt>
<rscale>  1 0.30000000E+03</rscale>
<asrwt>0</asrwt>
<pdfrwt beam="1">  1       21 0.18385123E-01 0.30000000E+03</pdfrwt>
<pdfrwt beam="2">0</pdfrwt>
<totfact> 0.28149127E+03</totfact>
</mgrwt>
</event>
<event>
 6    1  0.6377696E-002  0.3000000E+03  0.7818608E-02  0.1093470E+00
         21   -1    0    0  501  502  0.00000000000E+00  0.00000000000E+00  0.17704437444E+01  0.17704437444E+01  0.00000000000E+00 0. -1.
         13   -1    0    0    0    0 -0.00000000000E+00 -0.00000000000E+00 -0.10000000000E+04  0.10000000000E+04  0.00000000000E+00 0.  1.
    9000005    2    1    2  501    0 -0.77437040416E+01 -0.39297186835E+02 -0.65098737373E+03  0.65222592988E+03  0.31414981241E+01 0.  0.
         13    1    3    3    0    0 -0.66450347888E+01 -0.34441268402E+02 -0.55186602292E+03  0.55297962413E+03  0.00000000000E+00 0.  1.
          1    1    3    3  501    0 -0.10986692528E+01 -0.48559184329E+01 -0.99121350812E+02  0.99246305748E+02  0.00000000000E+00 0.  1.
         -3    1    1    2    0  502  0.77437040416E+01  0.39297186835E+02 -0.34724218253E+03  0.34954451386E+03  0.00000000000E+00 0. -1.
<mgrwt>
<rscale>  1 0.30000000E+03</rscale>
<asrwt>0</asrwt>
<pdfrwt beam="1">  1       21 0.64379908E-02 0.30000000E+03</pdfrwt>
<pdfrwt beam="2">0</pdfrwt>
<totfact> 0.18657048E+04</totfact>
</mgrwt>
</event>
<event>
 6    1  0.6377696E-002  0.3000000E+03  0.7818608E-02  0.1093470E+00
         21   -1    0    0  501  502  0.00000000000E+00  0.00000000000E+00  0.17809674072E+01  0.17809674072E+01  0.00000000000E+00 0. -1.
         13   -1    0    0    0    0 -0.00000000000E+00 -0.00000000000E+00 -0.10000000000E+04  0.10000000000E+04  0.00000000000E+00 0.  1.
    9000005    2    1    2  501    0  0.14137358533E+02 -0.35599254400E+02 -0.70840302794E+03  0.70944470833E+03  0.31260771684E+01 0.  0.
         13    1    3    3    0    0  0.14011304557E+02 -0.34535882302E+02 -0.67888460292E+03  0.67990686708E+03  0.00000000000E+00 0.  1.
          1    1    3    3  501    0  0.12605397576E+00 -0.10633720980E+01 -0.29518425016E+02  0.29537841243E+02  0.00000000000E+00 0.  1.
         -3    1    1    2    0  502 -0.14137358533E+02  0.35599254400E+02 -0.28981600465E+03  0.29233625908E+03  0.00000000000E+00 0. -1.
<mgrwt>
<rscale>  1 0.30000000E+03</rscale>
<asrwt>0</asrwt>
<pdfrwt beam="1">  1       21 0.64762588E-02 0.30000000E+03</pdfrwt>
<pdfrwt beam="2">0</pdfrwt>
<totfact> 0.18466658E+04</totfact>
</mgrwt>
</event>
<event>
 6    1  0.6377696E-002  0.3000000E+03  0.7818608E-02  0.1093470E+00
         21   -1    0    0  501  502  0.00000000000E+00  0.00000000000E+00  0.10576597846E+01  0.10576597846E+01  0.00000000000E+00 0. -1.
         13   -1    0    0    0    0 -0.00000000000E+00 -0.00000000000E+00 -0.10000000000E+04  0.10000000000E+04  0.00000000000E+00 0.  1.
    9000005    2    1    2  501    0 -0.23702834193E+01 -0.30277919611E+02 -0.65570596094E+03  0.65648026250E+03  0.96776641819E+01 0.  0.
         13    1    3    3    0    0 -0.72410671860E+00 -0.34938582875E+01 -0.16700406763E+03  0.16704218025E+03  0.00000000000E+00 0.  1.
          3    1    3    3  501    0 -0.16461767007E+01 -0.26784061323E+02 -0.48870189331E+03  0.48943808226E+03  0.00000000000E+00 0.  1.
         -3    1    1    2    0  502  0.23702834193E+01  0.30277919611E+02 -0.34323637928E+03  0.34457739728E+03  0.00000000000E+00 0. -1.
<mgrwt>
<rscale>  1 0.30000000E+03</rscale>
<asrwt>0</asrwt>
<pdfrwt beam="1">  1       21 0.38460437E-02 0.30000000E+03</pdfrwt>
<pdfrwt beam="2">0</pdfrwt>
<totfact> 0.44917663E+04</totfact>
</mgrwt>
</event>
<event>
 6    1  0.6377696E-002  0.3000000E+03  0.7818608E-02  0.1093470E+00
         21   -1    0    0  501  502  0.00000000000E+00  0.00000000000E+00  0.16097308158E+01  0.16097308158E+01  0.00000000000E+00 0. -1.
         13   -1    0    0    0    0 -0.00000000000E+00 -0.00000000000E+00 -0.10000000000E+04  0.10000000000E+04  0.00000000000E+00 0.  1.
    9000005    2    1    2  501    0 -0.35402085941E+02 -0.12299112072E+02 -0.67080953754E+03  0.67189210679E+03  0.69994049178E+01 0.  0.
         13    1    3    3    0    0 -0.49169442568E+01 -0.43253310361E+01 -0.10121625261E+03  0.10142787892E+03  0.00000000000E+00 0.  1.
          3    1    3    3  501    0 -0.30485141684E+02 -0.79737810362E+01 -0.56959328493E+03  0.57046422787E+03  0.00000000000E+00 0.  1.
         -1    1    1    2    0  502  0.35402085941E+02  0.12299112072E+02 -0.32758073164E+03  0.32971762402E+03  0.00000000000E+00 0. -1.
<mgrwt>
<rscale>  1 0.30000000E+03</rscale>
<asrwt>0</asrwt>
<pdfrwt beam="1">  1       21 0.58535789E-02 0.30000000E+03</pdfrwt>
<pdfrwt beam="2">0</pdfrwt>
<totfact> 0.21988480E+04</totfact>
</mgrwt>
</event>
<event>
 6    1  0.6377696E-002  0.3000000E+03  0.7818608E-02  0.1093470E+00
         21   -1    0    0  501  502  0.00000000000E+00  0.00000000000E+00  0.15475185599E+01  0.15475185599E+01  0.00000000000E+00 0. -1.
         13   -1    0    0    0    0 -0.00000000000E+00 -0.00000000000E+00 -0.10000000000E+04  0.10000000000E+04  0.00000000000E+00 0.  1.
    9000005    2    1    2  501    0  0.78900986808E+01  0.33565791270E+02 -0.73362462285E+03  0.73448439739E+03  0.85631048324E+01 0.  0.
         13    1    3    3    0    0  0.19378200738E+01  0.74416172255E+01 -0.10084192764E+03  0.10113469822E+03  0.00000000000E+00 0.  1.
          3    1    3    3  501    0  0.59522786070E+01  0.26124174045E+02 -0.63278269521E+03  0.63334969917E+03  0.00000000000E+00 0.  1.
         -3    1    1    2    0  502 -0.78900986808E+01 -0.33565791270E+02 -0.26482785859E+03  0.26706312117E+03  0.00000000000E+00 0. -1.
<mgrwt>
<rscale>  1 0.30000000E+03</rscale>
<asrwt>0</asrwt>
<pdfrwt beam="1">  1       21 0.56273521E-02 0.30000000E+03</pdfrwt>
<pdfrwt beam="2">0</pdfrwt>
<totfact> 0.23531331E+04</totfact>
</mgrwt>
</event>
<event>
 6    1  0.6377696E-002  0.3000000E+03  0.7818608E-02  0.1093470E+00
         21   -1    0    0  501  502  0.00000000000E+00  0.00000000000E+00  0.40146445256E+01  0.40146445256E+01  0.00000000000E+00 0. -1.
         13   -1    0    0    0    0 -0.00000000000E+00 -0.00000000000E+00 -0.10000000000E+04  0.10000000000E+04  0.00000000000E+00 0.  1.
    9000005    2    1    2  501    0 -0.23436210617E+01  0.37850325755E+02 -0.96669124602E+02  0.10389919480E+03  0.34616917596E+01 0.  0.
         13    1    3    3    0    0 -0.24551001872E+01  0.21262291041E+02 -0.57943542878E+02  0.61770273582E+02  0.00000000000E+00 0.  1.
          1    1    3    3  501    0  0.11147912551E+00  0.16588034714E+02 -0.38725581725E+02  0.42128921221E+02  0.00000000000E+00 0.  1.
         -1    1    1    2    0  502  0.23436210617E+01 -0.37850325755E+02 -0.89931623087E+03  0.90011544972E+03  0.00000000000E+00 0. -1.
<mgrwt>
<rscale>  1 0.30000000E+03</rscale>
<asrwt>0</asrwt>
<pdfrwt beam="1">  1       21 0.14598738E-01 0.30000000E+03</pdfrwt>
<pdfrwt beam="2">0</pdfrwt>
<totfact> 0.43296404E+03</totfact>
</mgrwt>
</event>
<event>
 6    1  0.6377696E-002  0.3000000E+03  0.7818608E-02  0.1093470E+00
         21   -1    0    0  501  502  0.00000000000E+00  0.00000000000E+00  0.14758023491E+01  0.14758023491E+01  0.00000000000E+00 0. -1.
         13   -1    0    0    0    0 -0.00000000000E+00 -0.00000000000E+00 -0.10000000000E+04  0.10000000000E+04  0.00000000000E+00 0.  1.
    9000005    2    1    2  501    0  0.28064002818E+02  0.14861685607E+02 -0.78027187855E+03  0.78092528037E+03  0.34104411075E+01 0.  0.
         13    1    3    3    0    0  0.20510462086E+02  0.12075578489E+02 -0.60700454950E+03  0.60747100487E+03  0.00000000000E+00 0.  1.
          1    1    3    3  501    0  0.75535407327E+01  0.27861071178E+01 -0.17326732905E+03  0.17345427550E+03  0.00000000000E+00 0.  1.
         -3    1    1    2    0  502 -0.28064002818E+02 -0.14861685607E+02 -0.21825231910E+03  0.22055052198E+03  0.00000000000E+00 0. -1.
<mgrwt>
<rscale>  1 0.30000000E+03</rscale>
<asrwt>0</asrwt>
<pdfrwt beam="1">  1       21 0.53665653E-02 0.30000000E+03</pdfrwt>
<pdfrwt beam="2">0</pdfrwt>
<totfact> 0.25525881E+04</totfact>
</mgrwt>
</event>
<event>
 6    1  0.6377696E-002  0.3000000E+03  0.7818608E-02  0.1093470E+00
         21   -1    0    0  501  502  0.00000000000E+00  0.00000000000E+00  0.11031343921E+01  0.11031343921E+01  0.00000000000E+00 0. -1.
         13   -1    0    0    0    0 -0.00000000000E+00 -0.00000000000E+00 -0.10000000000E+04  0.10000000000E+04  0.00000000000E+00 0.  1.
    9000005    2    1    2  501    0 -0.31995796846E+01  0.32952458884E+02 -0.48983210637E+03  0.49096292724E+03  0.36057780089E+01 0.  0.
         13    1    3    3    0    0 -0.14591370640E+01  0.35552345682E+01 -0.60796168982E+02  0.60917509278E+02  0.00000000000E+00 0.  1.
          1    1    3    3  501    0 -0.17404426207E+01  0.29397224316E+02 -0.42903593739E+03  0.43004541796E+03  0.00000000000E+00 0.  1.
         -1    1    1    2    0  502  0.31995796846E+01 -0.32952458884E+02 -0.50906475924E+03  0.51014020716E+03  0.00000000000E+00 0. -1.
<mgrwt>
<rscale>  1 0.30000000E+03</rscale>
<asrwt>0</asrwt>
<pdfrwt beam="1">  1       21 0.40114062E-02 0.30000000E+03</pdfrwt>
<pdfrwt beam="2">0</pdfrwt>
<totfact> 0.41846163E+04</totfact>
</mgrwt>
</event>
<event>
 6    1  0.6377696E-002  0.3000000E+03  0.7818608E-02  0.1093470E+00
         21   -1    0    0  501  502  0.00000000000E+00  0.00000000000E+00  0.18626423901E+01  0.18626423901E+01  0.00000000000E+00 0. -1.
         13   -1    0    0    0    0 -0.00000000000E+00 -0.00000000000E+00 -0.10000000000E+04  0.10000000000E+04  0.00000000000E+00 0.  1.
    9000005    2    1    2  501    0  0.72934231779E+01  0.41217264563E+02 -0.61923981315E+03  0.62066006355E+03  0.29851919754E+01 0.  0.
         13    1    3    3    0    0  0.70192328180E+01  0.32846386048E+02 -0.49686636555E+03  0.49800034128E+03  0.00000000000E+00 0.  1.
          3    1    3    3  501    0  0.27419035993E+00  0.83708785146E+01 -0.12237344761E+03  0.12265972227E+03  0.00000000000E+00 0.  1.
         -3    1    1    2    0  502 -0.72934231779E+01 -0.41217264563E+02 -0.37889754446E+03  0.38120257884E+03  0.00000000000E+00 0. -1.
<mgrwt>
<rscale>  1 0.30000000E+03</rscale>
<asrwt>0</asrwt>
<pdfrwt beam="1">  1       21 0.67732593E-02 0.30000000E+03</pdfrwt>
<pdfrwt beam="2">0</pdfrwt>
<totfact> 0.17085683E+04</totfact>
</mgrwt>
</event>
<event>
 6    1  0.6377696E-002  0.3000000E+03  0.7818608E-02  0.1093470E+00
         21   -1    0    0  501  502  0.00000000000E+00  0.00000000000E+00  0.10429353933E+01  0.10429353933E+01  0.00000000000E+00 0. -1.
         13   -1    0    0    0    0 -0.00000000000E+00 -0.00000000000E+00 -0.10000000000E+04  0.10000000000E+04  0.00000000000E+00 0.  1.
    9000005    2    1    2  501    0 -0.31914971637E+02  0.20299319216E+01 -0.55792672207E+03  0.55885468467E+03  0.36939601385E+01 0.  0.
         13    1    3    3    0    0 -0.18238961996E+02  0.16984431425E+01 -0.28858378225E+03  0.28916456184E+03  0.00000000000E+00 0.  1.
          3    1    3    3  501    0 -0.13676009641E+02  0.33148877911E+00 -0.26934293981E+03  0.26969012283E+03  0.00000000000E+00 0.  1.
         -1    1    1    2    0  502  0.31914971637E+02 -0.20299319216E+01 -0.44103034254E+03  0.44218825072E+03  0.00000000000E+00 0. -1.
<mgrwt>
<rscale>  1 0.30000000E+03</rscale>
<asrwt>0</asrwt>
<pdfrwt beam="1">  1       21 0.37925003E-02 0.30000000E+03</pdfrwt>
<pdfrwt beam="2">0</pdfrwt>
<totfact> 0.45988467E+04</totfact>
</mgrwt>
</event>
<event>
 6    1  0.6377696E-002  0.3000000E+03  0.7818608E-02  0.1093470E+00
         21   -1    0    0  501  502  0.00000000000E+00  0.00000000000E+00  0.98022045632E+00  0.98022045632E+00  0.00000000000E+00 0. -1.
         13   -1    0    0    0    0 -0.00000000000E+00 -0.00000000000E+00 -0.10000000000E+04  0.10000000000E+04  0.00000000000E+00 0.  1.
    9000005    2    1    2  501    0  0.29698092736E+02  0.67768311219E+01 -0.39159196224E+03  0.39278908653E+03  0.33315842901E+01 0.  0.
         13    1    3    3    0    0  0.14565659322E+02  0.21355143803E+01 -0.20406937940E+03  0.20459968344E+03  0.00000000000E+00 0.  1.
          3    1    3    3  501    0  0.15132433414E+02  0.46413167416E+01 -0.18752258284E+03  0.18818940309E+03  0.00000000000E+00 0.  1.
         -1    1    1    2    0  502 -0.29698092736E+02 -0.67768311219E+01 -0.60742781730E+03  0.60819113392E+03  0.00000000000E+00 0. -1.
<mgrwt>
<rscale>  1 0.30000000E+03</rscale>
<asrwt>0</asrwt>
<pdfrwt beam="1">  1       21 0.35644455E-02 0.30000000E+03</pdfrwt>
<pdfrwt beam="2">0</pdfrwt>
<totfact> 0.51032559E+04</totfact>
</mgrwt>
</event>
<event>
 6    1  0.6377696E-002  0.3000000E+03  0.7818608E-02  0.1093470E+00
         21   -1    0    0  501  502  0.00000000000E+00  0.00000000000E+00  0.20596020807E+01  0.20596020807E+01  0.00000000000E+00 0. -1.
         13   -1    0    0    0    0 -0.00000000000E+00 -0.00000000000E+00 -0.10000000000E+04  0.10000000000E+04  0.00000000000E+00 0.  1.
    9000005    2    1    2  501    0  0.15496092131E+02  0.42243656845E+02 -0.43833218426E+03  0.44064530924E+03  0.29205100436E+01 0.  0.
         13    1    3    3    0    0  0.17747780058E+01  0.27039640515E+01 -0.32912447785E+02  0.33070991485E+02  0.00000000000E+00 0.  1.
          3    1    3    3  501    0  0.13721314126E+02  0.39539692793E+02 -0.40541973648E+03  0.40757431775E+03  0.00000000000E+00 0.  1.
         -3    1    1    2    0  502 -0.15496092131E+02 -0.42243656845E+02 -0.55960821366E+03  0.56141429284E+03  0.00000000000E+00 0. -1.
<mgrwt>
<rscale>  1 0.30000000E+03</rscale>
<asrwt>0</asrwt>
<pdfrwt beam="1">  1       21 0.74894779E-02 0.30000000E+03</pdfrwt>
<pdfrwt beam="2">0</pdfrwt>
<totfact> 0.14339667E+04</totfact>
</mgrwt>
</event>
<event>
 6    1  0.6377696E-002  0.3000000E+03  0.7818608E-02  0.1093470E+00
         21   -1    0    0  501  502  0.00000000000E+00  0.00000000000E+00  0.20675582245E+01  0.20675582245E+01  0.00000000000E+00 0. -1.
         13   -1    0    0    0    0 -0.00000000000E+00 -0.00000000000E+00 -0.10000000000E+04  0.10000000000E+04  0.00000000000E+00 0.  1.
    9000005    2    1    2  501    0 -0.24814093244E+02  0.35702238396E+02 -0.35490086083E+03  0.35756774974E+03  0.31121668564E+01 0.  0.
         13    1    3    3    0    0 -0.67581886985E+01  0.10066198029E+02 -0.11069671851E+03  0.11135872191E+03  0.00000000000E+00 0.  1.
          1    1    3    3  501    0 -0.18055904545E+02  0.25636040367E+02 -0.24420414232E+03  0.24620902782E+03  0.00000000000E+00 0.  1.
         -1    1    1    2    0  502  0.24814093244E+02 -0.35702238396E+02 -0.64303158095E+03  0.64449980849E+03  0.00000000000E+00 0. -1.
<mgrwt>
<rscale>  1 0.30000000E+03</rscale>
<asrwt>0</asrwt>
<pdfrwt beam="1">  1       21 0.75184094E-02 0.30000000E+03</pdfrwt>
<pdfrwt beam="2">0</pdfrwt>
<totfact> 0.14243191E+04</totfact>
</mgrwt>
</event>
<event>
 6    1  0.6377696E-002  0.3000000E+03  0.7818608E-02  0.1093470E+00
         21   -1    0    0  501  502  0.00000000000E+00  0.00000000000E+00  0.19964923385E+01  0.19964923385E+01  0.00000000000E+00 0. -1.
         13   -1    0    0    0    0 -0.00000000000E+00 -0.00000000000E+00 -0.10000000000E+04  0.10000000000E+04  0.00000000000E+00 0.  1.
    9000005    2    1    2  501    0 -0.26779911076E+02  0.33734014313E+02 -0.63039166910E+03  0.63187001233E+03  0.33028233427E+01 0.  0.
         13    1    3    3    0    0 -0.20825793641E+02  0.28273340820E+02 -0.50936330122E+03  0.51057229470E+03  0.00000000000E+00 0.  1.
          3    1    3    3  501    0 -0.59541174355E+01  0.54606734933E+01 -0.12102836789E+03  0.12129771763E+03  0.00000000000E+00 0.  1.
         -1    1    1    2    0  502  0.26779911076E+02 -0.33734014313E+02 -0.36761183856E+03  0.37012648001E+03  0.00000000000E+00 0. -1.
<mgrwt>
<rscale>  1 0.30000000E+03</rscale>
<asrwt>0</asrwt>
<pdfrwt beam="1">  1       21 0.72599874E-02 0.30000000E+03</pdfrwt>
<pdfrwt beam="2">0</pdfrwt>
<totfact> 0.15141568E+04</totfact>
</mgrwt>
</event>
<event>
 6    1  0.6377696E-002  0.3000000E+03  0.7818608E-02  0.1093470E+00
         21   -1    0    0  501  502  0.00000000000E+00  0.00000000000E+00  0.53104109526E+01  0.53104109526E+01  0.00000000000E+00 0. -1.
         13   -1    0    0    0    0 -0.00000000000E+00 -0.00000000000E+00 -0.10000000000E+04  0.10000000000E+04  0.00000000000E+00 0.  1.
    9000005    2    1    2  501    0 -0.60543942865E+02 -0.26185256613E+02 -0.71045318402E+03  0.71352012560E+03  0.40007842730E+01 0.  0.
         13    1    3    3    0    0 -0.18977471951E+02 -0.98520249412E+01 -0.24213762370E+03  0.24307989560E+03  0.00000000000E+00 0.  1.
          1    1    3    3  501    0 -0.41566470914E+02 -0.16333231672E+02 -0.46831556032E+03  0.47044023000E+03  0.00000000000E+00 0.  1.
         -1    1    1    2    0  502  0.60543942865E+02  0.26185256613E+02 -0.28423640503E+03  0.29179028535E+03  0.00000000000E+00 0. -1.
<mgrwt>
<rscale>  1 0.30000000E+03</rscale>
<asrwt>0</asrwt>
<pdfrwt beam="1">  1       21 0.19310626E-01 0.30000000E+03</pdfrwt>
<pdfrwt beam="2">0</pdfrwt>
<totfact> 0.25649406E+03</totfact>
</mgrwt>
</event>
<event>
 6    1  0.6377696E-002  0.3000000E+03  0.7818608E-02  0.1093470E+00
         21   -1    0    0  501  502  0.00000000000E+00  0.00000000000E+00  0.15493676954E+01  0.15493676954E+01  0.00000000000E+00 0. -1.
         13   -1    0    0    0    0 -0.00000000000E+00 -0.00000000000E+00 -0.10000000000E+04  0.10000000000E+04  0.00000000000E+00 0.  1.
    9000005    2    1    2  501    0 -0.26915210290E+02  0.25215531732E+02 -0.66937251144E+03  0.67041093559E+03  0.55688330678E+01 0.  0.
         13    1    3    3    0    0 -0.59167772671E+01  0.53515277093E+01 -0.19035391010E+03  0.19052101772E+03  0.00000000000E+00 0.  1.
          1    1    3    3  501    0 -0.20998433023E+02  0.19864004022E+02 -0.47901860134E+03  0.47988991787E+03  0.00000000000E+00 0.  1.
         -1    1    1    2    0  502  0.26915210290E+02 -0.25215531732E+02 -0.32907812087E+03  0.33113843211E+03  0.00000000000E+00 0. -1.
<mgrwt>
<rscale>  1 0.30000000E+03</rscale>
<asrwt>0</asrwt>
<pdfrwt beam="1">  1       21 0.56340762E-02 0.30000000E+03</pdfrwt>
<pdfrwt beam="2">0</pdfrwt>
<totfact> 0.23483109E+04</totfact>
</mgrwt>
</event>
<event>
 6    1  0.6377696E-002  0.3000000E+03  0.7818608E-02  0.1093470E+00
         21   -1    0    0  501  502  0.00000000000E+00  0.00000000000E+00  0.16319926526E+01  0.16319926526E+01  0.00000000000E+00 0. -1.
         13   -1    0    0    0    0 -0.00000000000E+00 -0.00000000000E+00 -0.10000000000E+04  0.10000000000E+04  0.00000000000E+00 0.  1.
    9000005    2    1    2  501    0 -0.16397408523E+02 -0.36452566457E+02 -0.56578492251E+03  0.56720617632E+03  0.35501140761E+01 0.  0.
         13    1    3    3    0    0 -0.39361744611E+01 -0.60599232065E+01 -0.11382801071E+03  0.11405714428E+03  0.00000000000E+00 0.  1.
          3    1    3    3  501    0 -0.12461234062E+02 -0.30392643251E+02 -0.45195691179E+03  0.45314903204E+03  0.00000000000E+00 0.  1.
         -1    1    1    2    0  502  0.16397408523E+02  0.36452566457E+02 -0.43258308484E+03  0.43442581633E+03  0.00000000000E+00 0. -1.
<mgrwt>
<rscale>  1 0.30000000E+03</rscale>
<asrwt>0</asrwt>
<pdfrwt beam="1">  1       21 0.59345313E-02 0.30000000E+03</pdfrwt>
<pdfrwt beam="2">0</pdfrwt>
<totfact> 0.21474088E+04</totfact>
</mgrwt>
</event>
<event>
 6    1  0.6377696E-002  0.3000000E+03  0.7818608E-02  0.1093470E+00
         21   -1    0    0  501  502  0.00000000000E+00  0.00000000000E+00  0.17471211447E+01  0.17471211447E+01  0.00000000000E+00 0. -1.
         13   -1    0    0    0    0 -0.00000000000E+00 -0.00000000000E+00 -0.10000000000E+04  0.10000000000E+04  0.00000000000E+00 0.  1.
    9000005    2    1    2  501    0 -0.14467634674E+02 -0.36885852158E+02 -0.34868665191E+03  0.35097361083E+03  0.54968840851E+01 0.  0.
         13    1    3    3    0    0 -0.44383169460E-01 -0.30108847478E+01 -0.18937481898E+02  0.19175390934E+02  0.00000000000E+00 0.  1.
          3    1    3    3  501    0 -0.14423251504E+02 -0.33874967411E+02 -0.32974917001E+03  0.33179821990E+03  0.00000000000E+00 0.  1.
         -3    1    1    2    0  502  0.14467634674E+02  0.36885852158E+02 -0.64956622694E+03  0.65077351032E+03  0.00000000000E+00 0. -1.
<mgrwt>
<rscale>  1 0.30000000E+03</rscale>
<asrwt>0</asrwt>
<pdfrwt beam="1">  1       21 0.63531812E-02 0.30000000E+03</pdfrwt>
<pdfrwt beam="2">0</pdfrwt>
<totfact> 0.19089963E+04</totfact>
</mgrwt>
</event>
<event>
 6    1  0.6377696E-002  0.3000000E+03  0.7818608E-02  0.1093470E+00
         21   -1    0    0  501  502  0.00000000000E+00  0.00000000000E+00  0.28034822952E+01  0.28034822952E+01  0.00000000000E+00 0. -1.
         13   -1    0    0    0    0 -0.00000000000E+00 -0.00000000000E+00 -0.10000000000E+04  0.10000000000E+04  0.00000000000E+00 0.  1.
    9000005    2    1    2  501    0  0.26579060413E+02 -0.43277073272E+02 -0.63876180158E+03  0.64078856928E+03  0.37416354787E+01 0.  0.
         13    1    3    3    0    0  0.13920156318E+02 -0.19611591618E+02 -0.31407251249E+03  0.31499194971E+03  0.00000000000E+00 0.  1.
          3    1    3    3  501    0  0.12658904095E+02 -0.23665481655E+02 -0.32468928909E+03  0.32579661957E+03  0.00000000000E+00 0.  1.
         -1    1    1    2    0  502 -0.26579060413E+02  0.43277073272E+02 -0.35843471612E+03  0.36201491302E+03  0.00000000000E+00 0. -1.
<mgrwt>
<rscale>  1 0.30000000E+03</rscale>
<asrwt>0</asrwt>
<pdfrwt beam="1">  1       21 0.10194503E-01 0.30000000E+03</pdfrwt>
<pdfrwt beam="2">0</pdfrwt>
<totfact> 0.83119394E+03</totfact>
</mgrwt>
</event>
<event>
 6    1  0.6377696E-002  0.3000000E+03  0.7818608E-02  0.1093470E+00
         21   -1    0    0  501  502  0.00000000000E+00  0.00000000000E+00  0.15159040132E+01  0.15159040132E+01  0.00000000000E+00 0. -1.
         13   -1    0    0    0    0 -0.00000000000E+00 -0.00000000000E+00 -0.10000000000E+04  0.10000000000E+04  0.00000000000E+00 0.  1.
    9000005    2    1    2  501    0  0.24970649823E+02 -0.28814045172E+02 -0.59643734172E+03  0.59766521977E+03  0.35255873485E+01 0.  0.
         13    1    3    3    0    0  0.16806878475E+02 -0.21187701858E+02 -0.43862545802E+03  0.43945839654E+03  0.00000000000E+00 0.  1.
          1    1    3    3  501    0  0.81637713478E+01 -0.76263433145E+01 -0.15781188371E+03  0.15820682322E+03  0.00000000000E+00 0.  1.
         -3    1    1    2    0  502 -0.24970649823E+02  0.28814045172E+02 -0.40204675427E+03  0.40385068425E+03  0.00000000000E+00 0. -1.
<mgrwt>
<rscale>  1 0.30000000E+03</rscale>
<asrwt>0</asrwt>
<pdfrwt beam="1">  1       21 0.55123899E-02 0.30000000E+03</pdfrwt>
<pdfrwt beam="2">0</pdfrwt>
<totfact> 0.24379895E+04</totfact>
</mgrwt>
</event>
<event>
 6    1  0.6377696E-002  0.3000000E+03  0.7818608E-02  0.1093470E+00
         21   -1    0    0  501  502  0.00000000000E+00  0.00000000000E+00  0.14364447272E+02  0.14364447272E+02  0.00000000000E+00 0. -1.
         13   -1    0    0    0    0 -0.00000000000E+00 -0.00000000000E+00 -0.10000000000E+04  0.10000000000E+04  0.00000000000E+00 0.  1.
    9000005    2    1    2  501    0 -0.64099612277E+02  0.10117073338E+03 -0.50920402989E+03  0.52310965235E+03  0.32690568378E+01 0.  0.
         13    1    3    3    0    0 -0.57590610960E+02  0.92636373758E+02 -0.46386322817E+03  0.47651576119E+03  0.00000000000E+00 0.  1.
          1    1    3    3  501    0 -0.65090013173E+01  0.85343596191E+01 -0.45340801727E+02  0.46593891160E+02  0.00000000000E+00 0.  1.
         -1    1    1    2    0  502  0.64099612277E+02 -0.10117073338E+03 -0.47643152283E+03  0.49125479492E+03  0.00000000000E+00 0. -1.
<mgrwt>
<rscale>  1 0.30000000E+03</rscale>
<asrwt>0</asrwt>
<pdfrwt beam="1">  1       21 0.52234464E-01 0.30000000E+03</pdfrwt>
<pdfrwt beam="2">0</pdfrwt>
<totfact> 0.34159186E+02</totfact>
</mgrwt>
</event>
<event>
 6    1  0.6377696E-002  0.3000000E+03  0.7818608E-02  0.1093470E+00
         21   -1    0    0  501  502  0.00000000000E+00  0.00000000000E+00  0.12221507088E+01  0.12221507088E+01  0.00000000000E+00 0. -1.
         13   -1    0    0    0    0 -0.00000000000E+00 -0.00000000000E+00 -0.10000000000E+04  0.10000000000E+04  0.00000000000E+00 0.  1.
    9000005    2    1    2  501    0 -0.24870661140E+02  0.24295730597E+02 -0.54034889193E+03  0.54147663278E+03  0.33446259959E+01 0.  0.
         13    1    3    3    0    0 -0.97154673826E+01  0.10379790203E+02 -0.19768084629E+03  0.19819144114E+03  0.00000000000E+00 0.  1.
          3    1    3    3  501    0 -0.15155193758E+02  0.13915940394E+02 -0.34266804564E+03  0.34328519164E+03  0.00000000000E+00 0.  1.
         -3    1    1    2    0  502  0.24870661140E+02 -0.24295730597E+02 -0.45842895736E+03  0.45974551793E+03  0.00000000000E+00 0. -1.
<mgrwt>
<rscale>  1 0.30000000E+03</rscale>
<asrwt>0</asrwt>
<pdfrwt beam="1">  1       21 0.44441938E-02 0.30000000E+03</pdfrwt>
<pdfrwt beam="2">0</pdfrwt>
<totfact> 0.35195272E+04</totfact>
</mgrwt>
</event>
<event>
 6    1  0.6377696E-002  0.3000000E+03  0.7818608E-02  0.1093470E+00
         21   -1    0    0  501  502  0.00000000000E+00  0.00000000000E+00  0.20021694360E+01  0.20021694360E+01  0.00000000000E+00 0. -1.
         13   -1    0    0    0    0 -0.00000000000E+00 -0.00000000000E+00 -0.10000000000E+04  0.10000000000E+04  0.00000000000E+00 0.  1.
    9000005    2    1    2  501    0  0.17310549389E+02 -0.37643447923E+02 -0.31221799215E+03  0.31497184182E+03  0.32407135702E+01 0.  0.
         13    1    3    3    0    0  0.14808057609E+02 -0.30582444039E+02 -0.26333717617E+03  0.26552030583E+03  0.00000000000E+00 0.  1.
          3    1    3    3  501    0  0.25024917797E+01 -0.70610038838E+01 -0.48880815976E+02  0.49451535987E+02  0.00000000000E+00 0.  1.
         -3    1    1    2    0  502 -0.17310549389E+02  0.37643447923E+02 -0.68577983841E+03  0.68703032762E+03  0.00000000000E+00 0. -1.
<mgrwt>
<rscale>  1 0.30000000E+03</rscale>
<asrwt>0</asrwt>
<pdfrwt beam="1">  1       21 0.72806315E-02 0.30000000E+03</pdfrwt>
<pdfrwt beam="2">0</pdfrwt>
<totfact> 0.15066682E+04</totfact>
</mgrwt>
</event>
<event>
 6    1  0.6377696E-002  0.3000000E+03  0.7818608E-02  0.1093470E+00
         21   -1    0    0  501  502  0.00000000000E+00  0.00000000000E+00  0.15100858035E+01  0.15100858035E+01  0.00000000000E+00 0. -1.
         13   -1    0    0    0    0 -0.00000000000E+00 -0.00000000000E+00 -0.10000000000E+04  0.10000000000E+04  0.00000000000E+00 0.  1.
    9000005    2    1    2  501    0 -0.23525046857E+02  0.28438446039E+02 -0.34627733685E+03  0.34825407236E+03  0.32759519403E+01 0.  0.
         13    1    3    3    0    0 -0.19619188069E+02  0.23645525449E+02 -0.27584371656E+03  0.27754959806E+03  0.00000000000E+00 0.  1.
          1    1    3    3  501    0 -0.39058587878E+01  0.47929205901E+01 -0.70433620281E+02  0.70704474304E+02  0.00000000000E+00 0.  1.
         -1    1    1    2    0  502  0.23525046857E+02 -0.28438446039E+02 -0.65221257735E+03  0.65325601344E+03  0.00000000000E+00 0. -1.
<mgrwt>
<rscale>  1 0.30000000E+03</rscale>
<asrwt>0</asrwt>
<pdfrwt beam="1">  1       21 0.54912327E-02 0.30000000E+03</pdfrwt>
<pdfrwt beam="2">0</pdfrwt>
<totfact> 0.24541185E+04</totfact>
</mgrwt>
</event>
<event>
 6    1  0.6377696E-002  0.3000000E+03  0.7818608E-02  0.1093470E+00
         21   -1    0    0  501  502  0.00000000000E+00  0.00000000000E+00  0.10177052065E+01  0.10177052065E+01  0.00000000000E+00 0. -1.
         13   -1    0    0    0    0 -0.00000000000E+00 -0.00000000000E+00 -0.10000000000E+04  0.10000000000E+04  0.00000000000E+00 0.  1.
    9000005    2    1    2  501    0 -0.13904054263E+02  0.27607198091E+02 -0.60226853670E+03  0.60310152563E+03  0.69699212329E+01 0.  0.
         13    1    3    3    0    0 -0.11874150796E+02  0.22863278344E+02 -0.44220221552E+03  0.44295205651E+03  0.00000000000E+00 0.  1.
          3    1    3    3  501    0 -0.20299034674E+01  0.47439197476E+01 -0.16006632118E+03  0.16014946912E+03  0.00000000000E+00 0.  1.
         -1    1    1    2    0  502  0.13904054263E+02 -0.27607198091E+02 -0.39671375809E+03  0.39791617958E+03  0.00000000000E+00 0. -1.
<mgrwt>
<rscale>  1 0.30000000E+03</rscale>
<asrwt>0</asrwt>
<pdfrwt beam="1">  1       21 0.37007540E-02 0.30000000E+03</pdfrwt>
<pdfrwt beam="2">0</pdfrwt>
<totfact> 0.47919047E+04</totfact>
</mgrwt>
</event>
<event>
 6    1  0.6377696E-002  0.3000000E+03  0.7818608E-02  0.1093470E+00
         21   -1    0    0  501  502  0.00000000000E+00  0.00000000000E+00  0.17440130735E+01  0.17440130735E+01  0.00000000000E+00 0. -1.
         13   -1    0    0    0    0 -0.00000000000E+00 -0.00000000000E+00 -0.10000000000E+04  0.10000000000E+04  0.00000000000E+00 0.  1.
    9000005    2    1    2  501    0  0.21623786911E+02  0.32868415301E+02 -0.33446849658E+03  0.33679156874E+03  0.33859540807E+01 0.  0.
         13    1    3    3    0    0  0.87586279363E+01  0.10796095772E+02 -0.11081935800E+03  0.11168795528E+03  0.00000000000E+00 0.  1.
          3    1    3    3  501    0  0.12865158975E+02  0.22072319529E+02 -0.22364913857E+03  0.22510361345E+03  0.00000000000E+00 0.  1.
         -1    1    1    2    0  502 -0.21623786911E+02 -0.32868415301E+02 -0.66378749035E+03  0.66495244434E+03  0.00000000000E+00 0. -1.
<mgrwt>
<rscale>  1 0.30000000E+03</rscale>
<asrwt>0</asrwt>
<pdfrwt beam="1">  1       21 0.63418791E-02 0.30000000E+03</pdfrwt>
<pdfrwt beam="2">0</pdfrwt>
<totfact> 0.19148827E+04</totfact>
</mgrwt>
</event>
<event>
 6    1  0.6377696E-002  0.3000000E+03  0.7818608E-02  0.1093470E+00
         21   -1    0    0  501  502  0.00000000000E+00  0.00000000000E+00  0.18121670055E+01  0.18121670055E+01  0.00000000000E+00 0. -1.
         13   -1    0    0    0    0 -0.00000000000E+00 -0.00000000000E+00 -0.10000000000E+04  0.10000000000E+04  0.00000000000E+00 0.  1.
    9000005    2    1    2  501    0  0.40472709918E+02  0.53986786587E+01 -0.36107939142E+03  0.36339666570E+03  0.34093629321E+01 0.  0.
         13    1    3    3    0    0  0.22073016849E+01  0.88669856113E+00 -0.16714742052E+02  0.16883157790E+02  0.00000000000E+00 0.  1.
          1    1    3    3  501    0  0.38265408233E+02  0.45119800976E+01 -0.34436464936E+03  0.34651350791E+03  0.00000000000E+00 0.  1.
         -3    1    1    2    0  502 -0.40472709918E+02 -0.53986786587E+01 -0.63710844158E+03  0.63841550131E+03  0.00000000000E+00 0. -1.
<mgrwt>
<rscale>  1 0.30000000E+03</rscale>
<asrwt>0</asrwt>
<pdfrwt beam="1">  1       21 0.65897121E-02 0.30000000E+03</pdfrwt>
<pdfrwt beam="2">0</pdfrwt>
<totfact> 0.17919495E+04</totfact>
</mgrwt>
</event>
<event>
 6    1  0.6377696E-002  0.3000000E+03  0.7818608E-02  0.1093470E+00
         21   -1    0    0  501  502  0.00000000000E+00  0.00000000000E+00  0.22301211598E+01  0.22301211598E+01  0.00000000000E+00 0. -1.
         13   -1    0    0    0    0 -0.00000000000E+00 -0.00000000000E+00 -0.10000000000E+04  0.10000000000E+04  0.00000000000E+00 0.  1.
    9000005    2    1    2  501    0 -0.20892516824E+02  0.36885656232E+02 -0.71880673596E+03  0.72006441810E+03  0.35487553063E+01 0.  0.
         13    1    3    3    0    0 -0.83691942198E+01  0.18361678883E+02 -0.34316838484E+03  0.34376115984E+03  0.00000000000E+00 0.  1.
          1    1    3    3  501    0 -0.12523322604E+02  0.18523977349E+02 -0.37563835112E+03  0.37630325826E+03  0.00000000000E+00 0.  1.
         -3    1    1    2    0  502  0.20892516824E+02 -0.36885656232E+02 -0.27896314288E+03  0.28216570305E+03  0.00000000000E+00 0. -1.
<mgrwt>
<rscale>  1 0.30000000E+03</rscale>
<asrwt>0</asrwt>
<pdfrwt beam="1">  1       21 0.81095486E-02 0.30000000E+03</pdfrwt>
<pdfrwt beam="2">0</pdfrwt>
<totfact> 0.12472212E+04</totfact>
</mgrwt>
</event>
<event>
 6    1  0.6377696E-002  0.3000000E+03  0.7818608E-02  0.1093470E+00
         21   -1    0    0  501  502  0.00000000000E+00  0.00000000000E+00  0.16777348840E+02  0.16777348840E+02  0.00000000000E+00 0. -1.
         13   -1    0    0    0    0 -0.00000000000E+00 -0.00000000000E+00 -0.10000000000E+04  0.10000000000E+04  0.00000000000E+00 0.  1.
    9000005    2    1    2  501    0 -0.12627634796E+03  0.25145483426E+02 -0.43699973904E+03  0.45558443983E+03  0.32246715465E+01 0.  0.
         13    1    3    3    0    0 -0.84238108587E+02  0.17063693245E+02 -0.29694470622E+03  0.30913328375E+03  0.00000000000E+00 0.  1.
          3    1    3    3  501    0 -0.42038239378E+02  0.80817901809E+01 -0.14005503282E+03  0.14645115609E+03  0.00000000000E+00 0.  1.
         -1    1    1    2    0  502  0.12627634796E+03 -0.25145483426E+02 -0.54622291212E+03  0.56119290901E+03  0.00000000000E+00 0. -1.
<mgrwt>
<rscale>  1 0.30000000E+03</rscale>
<asrwt>0</asrwt>
<pdfrwt beam="1">  1       21 0.61008670E-01 0.30000000E+03</pdfrwt>
<pdfrwt beam="2">0</pdfrwt>
<totfact> 0.24185867E+02</totfact>
</mgrwt>
</event>
<event>
 6    1  0.6377696E-002  0.3000000E+03  0.7818608E-02  0.1093470E+00
         21   -1    0    0  501  502  0.00000000000E+00  0.00000000000E+00  0.10388063621E+01  0.10388063621E+01  0.00000000000E+00 0. -1.
         13   -1    0    0    0    0 -0.00000000000E+00 -0.00000000000E+00 -0.10000000000E+04  0.10000000000E+04  0.00000000000E+00 0.  1.
    9000005    2    1    2  501    0  0.67113224695E+01  0.30720589633E+02 -0.59040484883E+03  0.59127413809E+03  0.61987403655E+01 0.  0.
         13    1    3    3    0    0  0.11750696087E+01  0.20739597777E+01 -0.23937400863E+02  0.24055794683E+02  0.00000000000E+00 0.  1.
          1    1    3    3  501    0  0.55362528608E+01  0.28646629855E+02 -0.56646744797E+03  0.56721834341E+03  0.00000000000E+00 0.  1.
         -3    1    1    2    0  502 -0.67113224695E+01 -0.30720589633E+02 -0.40855634481E+03  0.40976466827E+03  0.00000000000E+00 0. -1.
<mgrwt>
<rscale>  1 0.30000000E+03</rscale>
<asrwt>0</asrwt>
<pdfrwt beam="1">  1       21 0.37774856E-02 0.30000000E+03</pdfrwt>
<pdfrwt beam="2">0</pdfrwt>
<totfact> 0.46295953E+04</totfact>
</mgrwt>
</event>
<event>
 6    1  0.6377696E-002  0.3000000E+03  0.7818608E-02  0.1093470E+00
         21   -1    0    0  501  502  0.00000000000E+00  0.00000000000E+00  0.23969275525E+01  0.23969275525E+01  0.00000000000E+00 0. -1.
         13   -1    0    0    0    0 -0.00000000000E+00 -0.00000000000E+00 -0.10000000000E+04  0.10000000000E+04  0.00000000000E+00 0.  1.
    9000005    2    1    2  501    0 -0.44941777420E+02  0.18608753234E+02 -0.44714763703E+03  0.44979649738E+03  0.31353934753E+01 0.  0.
         13    1    3    3    0    0 -0.41203554727E+02  0.17562078667E+02 -0.41752845087E+03  0.41992400124E+03  0.00000000000E+00 0.  1.
          1    1    3    3  501    0 -0.37382226936E+01  0.10466745677E+01 -0.29619186162E+02  0.29872496137E+02  0.00000000000E+00 0.  1.
         -3    1    1    2    0  502  0.44941777420E+02 -0.18608753234E+02 -0.55045543541E+03  0.55260043018E+03  0.00000000000E+00 0. -1.
<mgrwt>
<rscale>  1 0.30000000E+03</rscale>
<asrwt>0</asrwt>
<pdfrwt beam="1">  1       21 0.87161186E-02 0.30000000E+03</pdfrwt>
<pdfrwt beam="2">0</pdfrwt>
<totfact> 0.10983561E+04</totfact>
</mgrwt>
</event>
<event>
 6    1  0.6377696E-002  0.3000000E+03  0.7818608E-02  0.1093470E+00
         21   -1    0    0  501  502  0.00000000000E+00  0.00000000000E+00  0.24118716748E+01  0.24118716748E+01  0.00000000000E+00 0. -1.
         13   -1    0    0    0    0 -0.00000000000E+00 -0.00000000000E+00 -0.10000000000E+04  0.10000000000E+04  0.00000000000E+00 0.  1.
    9000005    2    1    2  501    0  0.24252124089E+02 -0.42452289963E+02 -0.45728029229E+03  0.45989650772E+03  0.30281430672E+01 0.  0.
         13    1    3    3    0    0  0.17987030424E+02 -0.33932602359E+02 -0.35593126075E+03  0.35799723064E+03  0.00000000000E+00 0.  1.
          3    1    3    3  501    0  0.62650936657E+01 -0.85196876033E+01 -0.10134903154E+03  0.10189927708E+03  0.00000000000E+00 0.  1.
         -3    1    1    2    0  502 -0.24252124089E+02  0.42452289963E+02 -0.54030783603E+03  0.54251536395E+03  0.00000000000E+00 0. -1.
<mgrwt>
<rscale>  1 0.30000000E+03</rscale>
<asrwt>0</asrwt>
<pdfrwt beam="1">  1       21 0.87704609E-02 0.30000000E+03</pdfrwt>
<pdfrwt beam="2">0</pdfrwt>
<totfact> 0.10863578E+04</totfact>
</mgrwt>
</event>
<event>
 6    1  0.6377696E-002  0.3000000E+03  0.7818608E-02  0.1093470E+00
         21   -1    0    0  501  502  0.00000000000E+00  0.00000000000E+00  0.14253592749E+01  0.14253592749E+01  0.00000000000E+00 0. -1.
         13   -1    0    0    0    0 -0.00000000000E+00 -0.00000000000E+00 -0.10000000000E+04  0.10000000000E+04  0.00000000000E+00 0.  1.
    9000005    2    1    2  501    0  0.35489805286E+02 -0.12273016470E+02 -0.45787533391E+03  0.45942361241E+03  0.31750630889E+01 0.  0.
         13    1    3    3    0    0  0.12198053203E+02 -0.58109134550E+01 -0.16695652547E+03  0.16750236002E+03  0.00000000000E+00 0.  1.
          1    1    3    3  501    0  0.23291752083E+02 -0.64621030149E+01 -0.29091880844E+03  0.29192125239E+03  0.00000000000E+00 0.  1.
         -1    1    1    2    0  502 -0.35489805286E+02  0.12273016470E+02 -0.54069930682E+03  0.54200174687E+03  0.00000000000E+00 0. -1.
<mgrwt>
<rscale>  1 0.30000000E+03</rscale>
<asrwt>0</asrwt>
<pdfrwt beam="1">  1       21 0.51831356E-02 0.30000000E+03</pdfrwt>
<pdfrwt beam="2">0</pdfrwt>
<totfact> 0.27089785E+04</totfact>
</mgrwt>
</event>
<event>
 6    1  0.6377696E-002  0.3000000E+03  0.7818608E-02  0.1093470E+00
         21   -1    0    0  501  502  0.00000000000E+00  0.00000000000E+00  0.13200615707E+01  0.13200615707E+01  0.00000000000E+00 0. -1.
         13   -1    0    0    0    0 -0.00000000000E+00 -0.00000000000E+00 -0.10000000000E+04  0.10000000000E+04  0.00000000000E+00 0.  1.
    9000005    2    1    2  501    0  0.33576864255E+02 -0.18170973333E+01 -0.31402002352E+03  0.31583489999E+03  0.35215377054E+01 0.  0.
         13    1    3    3    0    0  0.20218633686E+02 -0.43339312532E-01 -0.20101046845E+03  0.20202475950E+03  0.00000000000E+00 0.  1.
          3    1    3    3  501    0  0.13358230569E+02 -0.17737580208E+01 -0.11300955507E+03  0.11381014049E+03  0.00000000000E+00 0.  1.
         -1    1    1    2    0  502 -0.33576864255E+02  0.18170973333E+01 -0.68465991491E+03  0.68548516158E+03  0.00000000000E+00 0. -1.
<mgrwt>
<rscale>  1 0.30000000E+03</rscale>
<asrwt>0</asrwt>
<pdfrwt beam="1">  1       21 0.48002340E-02 0.30000000E+03</pdfrwt>
<pdfrwt beam="2">0</pdfrwt>
<totfact> 0.30875980E+04</totfact>
</mgrwt>
</event>
<event>
 6    1  0.6377696E-002  0.3000000E+03  0.7818608E-02  0.1093470E+00
         21   -1    0    0  501  502  0.00000000000E+00  0.00000000000E+00  0.13517950166E+01  0.13517950166E+01  0.00000000000E+00 0. -1.
         13   -1    0    0    0    0 -0.00000000000E+00 -0.00000000000E+00 -0.10000000000E+04  0.10000000000E+04  0.00000000000E+00 0.  1.
    9000005    2    1    2  501    0  0.36387928716E+02  0.27482466431E+01 -0.45243352448E+03  0.45391950568E+03  0.38973508322E+01 0.  0.
         13    1    3    3    0    0  0.10334756356E+02  0.17845659753E+00 -0.10861484343E+03  0.10910556012E+03  0.00000000000E+00 0.  1.
          1    1    3    3  501    0  0.26053172360E+02  0.25697900456E+01 -0.34381868105E+03  0.34481394556E+03  0.00000000000E+00 0.  1.
         -1    1    1    2    0  502 -0.36387928716E+02 -0.27482466431E+01 -0.54621468050E+03  0.54743228934E+03  0.00000000000E+00 0. -1.
<mgrwt>
<rscale>  1 0.30000000E+03</rscale>
<asrwt>0</asrwt>
<pdfrwt beam="1">  1       21 0.49156286E-02 0.30000000E+03</pdfrwt>
<pdfrwt beam="2">0</pdfrwt>
<totfact> 0.29652209E+04</totfact>
</mgrwt>
</event>
<event>
 6    1  0.6377696E-002  0.3000000E+03  0.7818608E-02  0.1093470E+00
         21   -1    0    0  501  502  0.00000000000E+00  0.00000000000E+00  0.11924911294E+01  0.11924911294E+01  0.00000000000E+00 0. -1.
         13   -1    0    0    0    0 -0.00000000000E+00 -0.00000000000E+00 -0.10000000000E+04  0.10000000000E+04  0.00000000000E+00 0.  1.
    9000005    2    1    2  501    0 -0.65318565913E+01  0.33325165936E+02 -0.43544737117E+03  0.43680975168E+03  0.59257295909E+01 0.  0.
         13    1    3    3    0    0 -0.15285543918E+01  0.13544965398E+02 -0.20953476979E+03  0.20997767100E+03  0.00000000000E+00 0.  1.
          1    1    3    3  501    0 -0.50033021995E+01  0.19780200538E+02 -0.22591260138E+03  0.22683208068E+03  0.00000000000E+00 0.  1.
         -3    1    1    2    0  502  0.65318565913E+01 -0.33325165936E+02 -0.56336013770E+03  0.56438273945E+03  0.00000000000E+00 0. -1.
<mgrwt>
<rscale>  1 0.30000000E+03</rscale>
<asrwt>0</asrwt>
<pdfrwt beam="1">  1       21 0.43363405E-02 0.30000000E+03</pdfrwt>
<pdfrwt beam="2">0</pdfrwt>
<totfact> 0.36690645E+04</totfact>
</mgrwt>
</event>
<event>
 6    1  0.6377696E-002  0.3000000E+03  0.7818608E-02  0.1093470E+00
         21   -1    0    0  501  502  0.00000000000E+00  0.00000000000E+00  0.14777598185E+01  0.14777598185E+01  0.00000000000E+00 0. -1.
         13   -1    0    0    0    0 -0.00000000000E+00 -0.00000000000E+00 -0.10000000000E+04  0.10000000000E+04  0.00000000000E+00 0.  1.
    9000005    2    1    2  501    0 -0.29063197768E+01  0.33005623060E+02 -0.24770304489E+03  0.24992784008E+03  0.30510569491E+01 0.  0.
         13    1    3    3    0    0 -0.10339144928E+01  0.77245462103E+01 -0.68121437710E+02  0.68565792266E+02  0.00000000000E+00 0.  1.
          1    1    3    3  501    0 -0.18724052840E+01  0.25281076850E+02 -0.17958160718E+03  0.18136204781E+03  0.00000000000E+00 0.  1.
         -3    1    1    2    0  502  0.29063197768E+01 -0.33005623060E+02 -0.75081919529E+03  0.75154991974E+03  0.00000000000E+00 0. -1.
<mgrwt>
<rscale>  1 0.30000000E+03</rscale>
<asrwt>0</asrwt>
<pdfrwt beam="1">  1       21 0.53736834E-02 0.30000000E+03</pdfrwt>
<pdfrwt beam="2">0</pdfrwt>
<totfact> 0.25468029E+04</totfact>
</mgrwt>
</event>
<event>
 6    1  0.6377696E-002  0.3000000E+03  0.7818608E-02  0.1093470E+00
         21   -1    0    0  501  502  0.00000000000E+00  0.00000000000E+00  0.16051754204E+01  0.16051754204E+01  0.00000000000E+00 0. -1.
         13   -1    0    0    0    0 -0.00000000000E+00 -0.00000000000E+00 -0.10000000000E+04  0.10000000000E+04  0.00000000000E+00 0.  1.
    9000005    2    1    2  501    0 -0.36443345961E+02  0.50029427058E+01 -0.30313657344E+03  0.30537447897E+03  0.29399573829E+01 0.  0.
         13    1    3    3    0    0 -0.24009644620E+02  0.37813331039E+01 -0.21076292130E+03  0.21215977590E+03  0.00000000000E+00 0.  1.
          1    1    3    3  501    0 -0.12433701340E+02  0.12216096019E+01 -0.92373652140E+02  0.93214703071E+02  0.00000000000E+00 0.  1.
         -3    1    1    2    0  502  0.36443345961E+02 -0.50029427058E+01 -0.69525825114E+03  0.69623069645E+03  0.00000000000E+00 0. -1.
<mgrwt>
<rscale>  1 0.30000000E+03</rscale>
<asrwt>0</asrwt>
<pdfrwt beam="1">  1       21 0.58370138E-02 0.30000000E+03</pdfrwt>
<pdfrwt beam="2">0</pdfrwt>
<totfact> 0.22096108E+04</totfact>
</mgrwt>
</event>
<event>
 6    1  0.6377696E-002  0.3000000E+03  0.7818608E-02  0.1093470E+00
         21   -1    0    0  501  502  0.00000000000E+00  0.00000000000E+00  0.18822945530E+01  0.18822945530E+01  0.00000000000E+00 0. -1.
         13   -1    0    0    0    0 -0.00000000000E+00 -0.00000000000E+00 -0.10000000000E+04  0.10000000000E+04  0.00000000000E+00 0.  1.
    9000005    2    1    2  501    0  0.19209026932E+02 -0.37210199382E+02 -0.37213656206E+03  0.37450204499E+03  0.35461575262E+01 0.  0.
         13    1    3    3    0    0  0.15781265730E+01 -0.23118843779E+01 -0.18495345891E+02  0.18705964623E+02  0.00000000000E+00 0.  1.
          1    1    3    3  501    0  0.17630900359E+02 -0.34898315004E+02 -0.35364121616E+03  0.35579608037E+03  0.00000000000E+00 0.  1.
         -3    1    1    2    0  502 -0.19209026932E+02  0.37210199382E+02 -0.62598114339E+03  0.62738024956E+03  0.00000000000E+00 0. -1.
<mgrwt>
<rscale>  1 0.30000000E+03</rscale>
<asrwt>0</asrwt>
<pdfrwt beam="1">  1       21 0.68447219E-02 0.30000000E+03</pdfrwt>
<pdfrwt beam="2">0</pdfrwt>
<totfact> 0.16777084E+04</totfact>
</mgrwt>
</event>
<event>
 6    1  0.6377696E-002  0.3000000E+03  0.7818608E-02  0.1093470E+00
         21   -1    0    0  501  502  0.00000000000E+00  0.00000000000E+00  0.10155144115E+01  0.10155144115E+01  0.00000000000E+00 0. -1.
         13   -1    0    0    0    0 -0.00000000000E+00 -0.00000000000E+00 -0.10000000000E+04  0.10000000000E+04  0.00000000000E+00 0.  1.
    9000005    2    1    2  501    0 -0.30655642306E+02  0.39678750274E+01 -0.38498895551E+03  0.38624236650E+03  0.33402660102E+01 0.  0.
         13    1    3    3    0    0 -0.24492133850E+02  0.40993352834E+01 -0.29575146206E+03  0.29679217726E+03  0.00000000000E+00 0.  1.
          3    1    3    3  501    0 -0.61635084553E+01 -0.13146025601E+00 -0.89237493450E+02  0.89450189243E+02  0.00000000000E+00 0.  1.
         -1    1    1    2    0  502  0.30655642306E+02 -0.39678750274E+01 -0.61399553008E+03  0.61477314791E+03  0.00000000000E+00 0. -1.
<mgrwt>
<rscale>  1 0.30000000E+03</rscale>
<asrwt>0</asrwt>
<pdfrwt beam="1">  1       21 0.36927875E-02 0.30000000E+03</pdfrwt>
<pdfrwt beam="2">0</pdfrwt>
<totfact> 0.48092682E+04</totfact>
</mgrwt>
</event>
<event>
 6    1  0.6377696E-002  0.3000000E+03  0.7818608E-02  0.1093470E+00
         21   -1    0    0  501  502  0.00000000000E+00  0.00000000000E+00  0.28249717063E+01  0.28249717063E+01  0.00000000000E+00 0. -1.
         13   -1    0    0    0    0 -0.00000000000E+00 -0.00000000000E+00 -0.10000000000E+04  0.10000000000E+04  0.00000000000E+00 0.  1.
    9000005    2    1    2  501    0 -0.43786783260E+02  0.29941070038E+02 -0.52261933093E+03  0.52531386193E+03  0.31525238581E+01 0.  0.
         13    1    3    3    0    0 -0.12833688792E+01  0.11748929328E+01 -0.22868699187E+02  0.22934794780E+02  0.00000000000E+00 0.  1.
          3    1    3    3  501    0 -0.42503414381E+02  0.28766177105E+02 -0.49975063174E+03  0.50237906715E+03  0.00000000000E+00 0.  1.
         -1    1    1    2    0  502  0.43786783260E+02 -0.29941070038E+02 -0.47455569736E+03  0.47751110978E+03  0.00000000000E+00 0. -1.
<mgrwt>
<rscale>  1 0.30000000E+03</rscale>
<asrwt>0</asrwt>
<pdfrwt beam="1">  1       21 0.10272646E-01 0.30000000E+03</pdfrwt>
<pdfrwt beam="2">0</pdfrwt>
<totfact> 0.81991377E+03</totfact>
</mgrwt>
</event>
<event>
 6    1  0.6377696E-002  0.3000000E+03  0.7818608E-02  0.1093470E+00
         21   -1    0    0  501  502  0.00000000000E+00  0.00000000000E+00  0.23941028739E+01  0.23941028739E+01  0.00000000000E+00 0. -1.
         13   -1    0    0    0    0 -0.00000000000E+00 -0.00000000000E+00 -0.10000000000E+04  0.10000000000E+04  0.00000000000E+00 0.  1.
    9000005    2    1    2  501    0 -0.41037757710E+02  0.48249456255E+01 -0.23123627625E+03  0.23491135163E+03  0.23979181768E+01 0.  0.
         13    1    3    3    0    0 -0.11892844934E+02  0.23759335876E+01 -0.64985477554E+02  0.66107466401E+02  0.00000000000E+00 0.  1.
          1    1    3    3  501    0 -0.29144912776E+02  0.24490120379E+01 -0.16625079869E+03  0.16880388523E+03  0.00000000000E+00 0.  1.
         -1    1    1    2    0  502  0.41037757710E+02 -0.48249456255E+01 -0.76636962088E+03  0.76748275125E+03  0.00000000000E+00 0. -1.
<mgrwt>
<rscale>  1 0.30000000E+03</rscale>
<asrwt>0</asrwt>
<pdfrwt beam="1">  1       21 0.87058470E-02 0.30000000E+03</pdfrwt>
<pdfrwt beam="2">0</pdfrwt>
<totfact> 0.11006466E+04</totfact>
</mgrwt>
</event>
<event>
 6    1  0.6377696E-002  0.3000000E+03  0.7818608E-02  0.1093470E+00
         21   -1    0    0  501  502  0.00000000000E+00  0.00000000000E+00  0.34655614039E+01  0.34655614039E+01  0.00000000000E+00 0. -1.
         13   -1    0    0    0    0 -0.00000000000E+00 -0.00000000000E+00 -0.10000000000E+04  0.10000000000E+04  0.00000000000E+00 0.  1.
    9000005    2    1    2  501    0 -0.48271113307E+02  0.33331566181E+02 -0.48759534667E+03  0.49115696985E+03  0.66972575937E+01 0.  0.
         13    1    3    3    0    0 -0.34666285535E+02  0.20374522380E+02 -0.32336890873E+03  0.32585936176E+03  0.00000000000E+00 0.  1.
          3    1    3    3  501    0 -0.13604827772E+02  0.12957043801E+02 -0.16422643794E+03  0.16529760809E+03  0.00000000000E+00 0.  1.
         -1    1    1    2    0  502  0.48271113307E+02 -0.33331566181E+02 -0.50893909193E+03  0.51230859155E+03  0.00000000000E+00 0. -1.
<mgrwt>
<rscale>  1 0.30000000E+03</rscale>
<asrwt>0</asrwt>
<pdfrwt beam="1">  1       21 0.12602068E-01 0.30000000E+03</pdfrwt>
<pdfrwt beam="2">0</pdfrwt>
<totfact> 0.56690775E+03</totfact>
</mgrwt>
</event>
<event>
 6    1  0.6377696E-002  0.3000000E+03  0.7818608E-02  0.1093470E+00
         21   -1    0    0  501  502  0.00000000000E+00  0.00000000000E+00  0.94903142901E+00  0.94903142901E+00  0.00000000000E+00 0. -1.
         13   -1    0    0    0    0 -0.00000000000E+00 -0.00000000000E+00 -0.10000000000E+04  0.10000000000E+04  0.00000000000E+00 0.  1.
    9000005    2    1    2  501    0 -0.12737818058E+02 -0.27937392223E+02 -0.51791394549E+03  0.51883329338E+03  0.32220328564E+01 0.  0.
         13    1    3    3    0    0 -0.74213235633E+01 -0.14888691071E+02 -0.30539337289E+03  0.30584614003E+03  0.00000000000E+00 0.  1.
          3    1    3    3  501    0 -0.53164944951E+01 -0.13048701152E+02 -0.21252057260E+03  0.21298715335E+03  0.00000000000E+00 0.  1.
         -3    1    1    2    0  502  0.12737818058E+02  0.27937392223E+02 -0.48113702308E+03  0.48211573805E+03  0.00000000000E+00 0. -1.
<mgrwt>
<rscale>  1 0.30000000E+03</rscale>
<asrwt>0</asrwt>
<pdfrwt beam="1">  1       21 0.34510307E-02 0.30000000E+03</pdfrwt>
<pdfrwt beam="2">0</pdfrwt>
<totfact> 0.53872331E+04</totfact>
</mgrwt>
</event>
<event>
 6    1  0.6377696E-002  0.3000000E+03  0.7818608E-02  0.1093470E+00
         21   -1    0    0  501  502  0.00000000000E+00  0.00000000000E+00  0.26645375216E+01  0.26645375216E+01  0.00000000000E+00 0. -1.
         13   -1    0    0    0    0 -0.00000000000E+00 -0.00000000000E+00 -0.10000000000E+04  0.10000000000E+04  0.00000000000E+00 0.  1.
    9000005    2    1    2  501    0 -0.36673462154E+02  0.20915887527E+02 -0.78562411846E+03  0.78678468584E+03  0.65168384694E+01 0.  0.
         13    1    3    3    0    0 -0.12777357355E+02  0.74898223673E+01 -0.22106195779E+03  0.22155754892E+03  0.00000000000E+00 0.  1.
          1    1    3    3  501    0 -0.23896104799E+02  0.13426065160E+02 -0.56456216067E+03  0.56522713692E+03  0.00000000000E+00 0.  1.
         -1    1    1    2    0  502  0.36673462154E+02 -0.20915887527E+02 -0.21171134402E+03  0.21587985168E+03  0.00000000000E+00 0. -1.
<mgrwt>
<rscale>  1 0.30000000E+03</rscale>
<asrwt>0</asrwt>
<pdfrwt beam="1">  1       21 0.96892478E-02 0.30000000E+03</pdfrwt>
<pdfrwt beam="2">0</pdfrwt>
<totfact> 0.91019670E+03</totfact>
</mgrwt>
</event>
<event>
 6    1  0.6377696E-002  0.3000000E+03  0.7818608E-02  0.1093470E+00
         21   -1    0    0  501  502  0.00000000000E+00  0.00000000000E+00  0.10196379636E+01  0.10196379636E+01  0.00000000000E+00 0. -1.
         13   -1    0    0    0    0 -0.00000000000E+00 -0.00000000000E+00 -0.10000000000E+04  0.10000000000E+04  0.00000000000E+00 0.  1.
    9000005    2    1    2  501    0  0.27928883975E+02  0.15227392355E+02 -0.47978172300E+03  0.48084743300E+03  0.34432631580E+01 0.  0.
         13    1    3    3    0    0  0.34373192856E+01  0.16890785021E+01 -0.43033804917E+02  0.43203894682E+02  0.00000000000E+00 0.  1.
          1    1    3    3  501    0  0.24491564689E+02  0.13538313853E+02 -0.43674791808E+03  0.43764353832E+03  0.00000000000E+00 0.  1.
         -1    1    1    2    0  502 -0.27928883975E+02 -0.15227392355E+02 -0.51919863904E+03  0.52017220497E+03  0.00000000000E+00 0. -1.
<mgrwt>
<rscale>  1 0.30000000E+03</rscale>
<asrwt>0</asrwt>
<pdfrwt beam="1">  1       21 0.37077822E-02 0.30000000E+03</pdfrwt>
<pdfrwt beam="2">0</pdfrwt>
<totfact> 0.47766680E+04</totfact>
</mgrwt>
</event>
<event>
 6    1  0.6377696E-002  0.3000000E+03  0.7818608E-02  0.1093470E+00
         21   -1    0    0  501  502  0.00000000000E+00  0.00000000000E+00  0.12078839376E+01  0.12078839376E+01  0.00000000000E+00 0. -1.
         13   -1    0    0    0    0 -0.00000000000E+00 -0.00000000000E+00 -0.10000000000E+04  0.10000000000E+04  0.00000000000E+00 0.  1.
    9000005    2    1    2  501    0  0.66596493393E+01 -0.30227573885E+02 -0.72591916319E+03  0.72658504154E+03  0.30222448823E+01 0.  0.
         13    1    3    3    0    0  0.22789449121E+01 -0.11605844663E+02 -0.24439609677E+03  0.24468212304E+03  0.00000000000E+00 0.  1.
          1    1    3    3  501    0  0.43807044272E+01 -0.18621729222E+02 -0.48152306642E+03  0.48190291850E+03  0.00000000000E+00 0.  1.
         -3    1    1    2    0  502 -0.66596493393E+01  0.30227573885E+02 -0.27287295288E+03  0.27462284239E+03  0.00000000000E+00 0. -1.
<mgrwt>
<rscale>  1 0.30000000E+03</rscale>
<asrwt>0</asrwt>
<pdfrwt beam="1">  1       21 0.43923145E-02 0.30000000E+03</pdfrwt>
<pdfrwt beam="2">0</pdfrwt>
<totfact> 0.35902564E+04</totfact>
</mgrwt>
</event>
<event>
 6    1  0.6377696E-002  0.3000000E+03  0.7818608E-02  0.1093470E+00
         21   -1    0    0  501  502  0.00000000000E+00  0.00000000000E+00  0.15587725718E+01  0.15587725718E+01  0.00000000000E+00 0. -1.
         13   -1    0    0    0    0 -0.00000000000E+00 -0.00000000000E+00 -0.10000000000E+04  0.10000000000E+04  0.00000000000E+00 0.  1.
    9000005    2    1    2  501    0  0.10746354424E+02  0.32743654626E+02 -0.25604256234E+03  0.25836067719E+03  0.21942510677E+01 0.  0.
         13    1    3    3    0    0  0.68852779248E+01  0.21319905723E+02 -0.15850804908E+03  0.16008356273E+03  0.00000000000E+00 0.  1.
          1    1    3    3  501    0  0.38610764989E+01  0.11423748903E+02 -0.97534513261E+02  0.98277114466E+02  0.00000000000E+00 0.  1.
         -3    1    1    2    0  502 -0.10746354424E+02 -0.32743654626E+02 -0.74239866509E+03  0.74319809538E+03  0.00000000000E+00 0. -1.
<mgrwt>
<rscale>  1 0.30000000E+03</rscale>
<asrwt>0</asrwt>
<pdfrwt beam="1">  1       21 0.56682759E-02 0.30000000E+03</pdfrwt>
<pdfrwt beam="2">0</pdfrwt>
<totfact> 0.23240178E+04</totfact>
</mgrwt>
</event>
<event>
 6    1  0.6377696E-002  0.3000000E+03  0.7818608E-02  0.1093470E+00
         21   -1    0    0  501  502  0.00000000000E+00  0.00000000000E+00  0.49827148197E+01  0.49827148197E+01  0.00000000000E+00 0. -1.
         13   -1    0    0    0    0 -0.00000000000E+00 -0.00000000000E+00 -0.10000000000E+04  0.10000000000E+04  0.00000000000E+00 0.  1.
    9000005    2    1    2  501    0 -0.56766877230E+02  0.29265612559E+02 -0.71062549709E+03  0.71350776982E+03  0.50779968043E+01 0.  0.
         13    1    3    3    0    0 -0.52599687275E+02  0.26865462622E+02 -0.64045122782E+03  0.64316891670E+03  0.00000000000E+00 0.  1.
          1    1    3    3  501    0 -0.41671899549E+01  0.24001499370E+01 -0.70174269261E+02  0.70338853119E+02  0.00000000000E+00 0.  1.
         -1    1    1    2    0  502  0.56766877230E+02 -0.29265612559E+02 -0.28439178809E+03  0.29147494500E+03  0.00000000000E+00 0. -1.
<mgrwt>
<rscale>  1 0.30000000E+03</rscale>
<asrwt>0</asrwt>
<pdfrwt beam="1">  1       21 0.18119001E-01 0.30000000E+03</pdfrwt>
<pdfrwt beam="2">0</pdfrwt>
<totfact> 0.28934066E+03</totfact>
</mgrwt>
</event>
<event>
 6    1  0.6377696E-002  0.3000000E+03  0.7818608E-02  0.1093470E+00
         21   -1    0    0  501  502  0.00000000000E+00  0.00000000000E+00  0.92511399047E+00  0.92511399047E+00  0.00000000000E+00 0. -1.
         13   -1    0    0    0    0 -0.00000000000E+00 -0.00000000000E+00 -0.10000000000E+04  0.10000000000E+04  0.00000000000E+00 0.  1.
    9000005    2    1    2  501    0  0.12433325375E+02  0.27546931516E+02 -0.45847177275E+03  0.45947784317E+03  0.31781971927E+01 0.  0.
         13    1    3    3    0    0  0.84459331842E+01  0.21164578990E+02 -0.32999368336E+03  0.33077954025E+03  0.00000000000E+00 0.  1.
          3    1    3    3  501    0  0.39873921910E+01  0.63823525264E+01 -0.12847808938E+03  0.12869830291E+03  0.00000000000E+00 0.  1.
         -1    1    1    2    0  502 -0.12433325375E+02 -0.27546931516E+02 -0.54060311326E+03  0.54144727082E+03  0.00000000000E+00 0. -1.
<mgrwt>
<rscale>  1 0.30000000E+03</rscale>
<asrwt>0</asrwt>
<pdfrwt beam="1">  1       21 0.33640580E-02 0.30000000E+03</pdfrwt>
<pdfrwt beam="2">0</pdfrwt>
<totfact> 0.56220323E+04</totfact>
</mgrwt>
</event>
<event>
 6    1  0.6377696E-002  0.3000000E+03  0.7818608E-02  0.1093470E+00
         21   -1    0    0  501  502  0.00000000000E+00  0.00000000000E+00  0.14691028581E+01  0.14691028581E+01  0.00000000000E+00 0. -1.
         13   -1    0    0    0    0 -0.00000000000E+00 -0.00000000000E+00 -0.10000000000E+04  0.10000000000E+04  0.00000000000E+00 0.  1.
    9000005    2    1    2  501    0  0.13829791148E+02  0.31819825785E+02 -0.71082757449E+03  0.71168130757E+03  0.32677890039E+01 0.  0.
         13    1    3    3    0    0  0.37524971529E+00  0.32216441560E+01 -0.67103321362E+02  0.67181660751E+02  0.00000000000E+00 0.  1.
          3    1    3    3  501    0  0.13454541433E+02  0.28598181629E+02 -0.64372425313E+03  0.64449964682E+03  0.00000000000E+00 0.  1.
         -3    1    1    2    0  502 -0.13829791148E+02 -0.31819825785E+02 -0.28770332265E+03  0.28978779529E+03  0.00000000000E+00 0. -1.
<mgrwt>
<rscale>  1 0.30000000E+03</rscale>
<asrwt>0</asrwt>
<pdfrwt beam="1">  1       21 0.53422035E-02 0.30000000E+03</pdfrwt>
<pdfrwt beam="2">0</pdfrwt>
<totfact> 0.25725425E+04</totfact>
</mgrwt>
</event>
<event>
 6    1  0.6377696E-002  0.3000000E+03  0.7818608E-02  0.1093470E+00
         21   -1    0    0  501  502  0.00000000000E+00  0.00000000000E+00  0.13051490349E+01  0.13051490349E+01  0.00000000000E+00 0. -1.
         13   -1    0    0    0    0 -0.00000000000E+00 -0.00000000000E+00 -0.10000000000E+04  0.10000000000E+04  0.00000000000E+00 0.  1.
    9000005    2    1    2  501    0  0.28345871702E+02 -0.15072702987E+02 -0.27294839861E+03  0.27484896459E+03  0.32326788324E+01 0.  0.
         13    1    3    3    0    0  0.58990176326E+01 -0.28660310761E+01 -0.67474203062E+02  0.67792187028E+02  0.00000000000E+00 0.  1.
          3    1    3    3  501    0  0.22446854069E+02 -0.12206671911E+02 -0.20547419555E+03  0.20705677756E+03  0.00000000000E+00 0.  1.
         -1    1    1    2    0  502 -0.28345871702E+02  0.15072702987E+02 -0.72574645235E+03  0.72645618445E+03  0.00000000000E+00 0. -1.
<mgrwt>
<rscale>  1 0.30000000E+03</rscale>
<asrwt>0</asrwt>
<pdfrwt beam="1">  1       21 0.47460065E-02 0.30000000E+03</pdfrwt>
<pdfrwt beam="2">0</pdfrwt>
<totfact> 0.31478551E+04</totfact>
</mgrwt>
</event>
<event>
 6    1  0.6377696E-002  0.3000000E+03  0.7818608E-02  0.1093470E+00
         21   -1    0    0  501  502  0.00000000000E+00  0.00000000000E+00  0.28890097199E+01  0.28890097199E+01  0.00000000000E+00 0. -1.
         13   -1    0    0    0    0 -0.00000000000E+00 -0.00000000000E+00 -0.10000000000E+04  0.10000000000E+04  0.00000000000E+00 0.  1.
    9000005    2    1    2  501    0  0.41645570474E+02  0.23356074484E+02 -0.26975362018E+03  0.27396610324E+03  0.32481329649E+01 0.  0.
         13    1    3    3    0    0  0.56538236067E+01  0.43779655076E+01 -0.37656750170E+02  0.38329663927E+02  0.00000000000E+00 0.  1.
          1    1    3    3  501    0  0.35991746867E+02  0.18978108976E+02 -0.23209687001E+03  0.23563643931E+03  0.00000000000E+00 0.  1.
         -3    1    1    2    0  502 -0.41645570474E+02 -0.23356074484E+02 -0.72735737010E+03  0.72892290648E+03  0.00000000000E+00 0. -1.
<mgrwt>
<rscale>  1 0.30000000E+03</rscale>
<asrwt>0</asrwt>
<pdfrwt beam="1">  1       21 0.10505512E-01 0.30000000E+03</pdfrwt>
<pdfrwt beam="2">0</pdfrwt>
<totfact> 0.78764552E+03</totfact>
</mgrwt>
</event>
<event>
 6    1  0.6377696E-002  0.3000000E+03  0.7818608E-02  0.1093470E+00
         21   -1    0    0  501  502  0.00000000000E+00  0.00000000000E+00  0.20644326786E+01  0.20644326786E+01  0.00000000000E+00 0. -1.
         13   -1    0    0    0    0 -0.00000000000E+00 -0.00000000000E+00 -0.10000000000E+04  0.10000000000E+04  0.00000000000E+00 0.  1.
    9000005    2    1    2  501    0  0.86205402112E+01 -0.44150746252E+02 -0.43504523109E+03  0.43737944729E+03  0.35812991494E+01 0.  0.
         13    1    3    3    0    0  0.51478112664E+01 -0.17709509546E+02 -0.17216769514E+03  0.17315265502E+03  0.00000000000E+00 0.  1.
          3    1    3    3  501    0  0.34727289447E+01 -0.26441236706E+02 -0.26287753595E+03  0.26422679226E+03  0.00000000000E+00 0.  1.
         -3    1    1    2    0  502 -0.86205402112E+01  0.44150746252E+02 -0.56289033623E+03  0.56468498539E+03  0.00000000000E+00 0. -1.
<mgrwt>
<rscale>  1 0.30000000E+03</rscale>
<asrwt>0</asrwt>
<pdfrwt beam="1">  1       21 0.75070438E-02 0.30000000E+03</pdfrwt>
<pdfrwt beam="2">0</pdfrwt>
<totfact> 0.14280971E+04</totfact>
</mgrwt>
</event>
<event>
 6    1  0.6377696E-002  0.3000000E+03  0.7818608E-02  0.1093470E+00
         21   -1    0    0  501  502  0.00000000000E+00  0.00000000000E+00  0.44062165533E+01  0.44062165533E+01  0.00000000000E+00 0. -1.
         13   -1    0    0    0    0 -0.00000000000E+00 -0.00000000000E+00 -0.10000000000E+04  0.10000000000E+04  0.00000000000E+00 0.  1.
    9000005    2    1    2  501    0  0.55712350304E+02  0.35953093999E+02 -0.50983795261E+03  0.51414585905E+03  0.38386866528E+01 0.  0.
         13    1    3    3    0    0  0.44228881831E+01  0.41376311663E+01 -0.48270444009E+02  0.48648922869E+02  0.00000000000E+00 0.  1.
          1    1    3    3  501    0  0.51289462121E+02  0.31815462833E+02 -0.46156750860E+03  0.46549693618E+03  0.00000000000E+00 0.  1.
         -3    1    1    2    0  502 -0.55712350304E+02 -0.35953093999E+02 -0.48575583084E+03  0.49026035750E+03  0.00000000000E+00 0. -1.
<mgrwt>
<rscale>  1 0.30000000E+03</rscale>
<asrwt>0</asrwt>
<pdfrwt beam="1">  1       21 0.16022639E-01 0.30000000E+03</pdfrwt>
<pdfrwt beam="2">0</pdfrwt>
<totfact> 0.36430500E+03</totfact>
</mgrwt>
</event>
<event>
 6    1  0.6377696E-002  0.3000000E+03  0.7818608E-02  0.1093470E+00
         21   -1    0    0  501  502  0.00000000000E+00  0.00000000000E+00  0.11033306425E+01  0.11033306425E+01  0.00000000000E+00 0. -1.
         13   -1    0    0    0    0 -0.00000000000E+00 -0.00000000000E+00 -0.10000000000E+04  0.10000000000E+04  0.00000000000E+00 0.  1.
    9000005    2    1    2  501    0 -0.14645132513E+02 -0.29224099975E+02 -0.41901805151E+03  0.42030410599E+03  0.32994077160E+01 0.  0.
         13    1    3    3    0    0 -0.76378744530E+01 -0.13020672739E+02 -0.17649384449E+03  0.17713822904E+03  0.00000000000E+00 0.  1.
          1    1    3    3  501    0 -0.70072580597E+01 -0.16203427236E+02 -0.24252420703E+03  0.24316587695E+03  0.00000000000E+00 0.  1.
         -3    1    1    2    0  502  0.14645132513E+02  0.29224099975E+02 -0.57987861784E+03  0.58079922465E+03  0.00000000000E+00 0. -1.
<mgrwt>
<rscale>  1 0.30000000E+03</rscale>
<asrwt>0</asrwt>
<pdfrwt beam="1">  1       21 0.40121199E-02 0.30000000E+03</pdfrwt>
<pdfrwt beam="2">0</pdfrwt>
<totfact> 0.41833627E+04</totfact>
</mgrwt>
</event>
<event>
 6    1  0.6377696E-002  0.3000000E+03  0.7818608E-02  0.1093470E+00
         21   -1    0    0  501  502  0.00000000000E+00  0.00000000000E+00  0.10072870720E+01  0.10072870720E+01  0.00000000000E+00 0. -1.
         13   -1    0    0    0    0 -0.00000000000E+00 -0.00000000000E+00 -0.10000000000E+04  0.10000000000E+04  0.00000000000E+00 0.  1.
    9000005    2    1    2  501    0 -0.73240932811E+01 -0.30267181788E+02 -0.58961873090E+03  0.59045058965E+03  0.34505586743E+01 0.  0.
         13    1    3    3    0    0 -0.18417720092E+01 -0.52116906292E+01 -0.12894285422E+03  0.12906127807E+03  0.00000000000E+00 0.  1.
          3    1    3    3  501    0 -0.54823212719E+01 -0.25055491159E+02 -0.46067587668E+03  0.46138931158E+03  0.00000000000E+00 0.  1.
         -1    1    1    2    0  502  0.73240932811E+01  0.30267181788E+02 -0.40937398203E+03  0.41055669742E+03  0.00000000000E+00 0. -1.
<mgrwt>
<rscale>  1 0.30000000E+03</rscale>
<asrwt>0</asrwt>
<pdfrwt beam="1">  1       21 0.36628698E-02 0.30000000E+03</pdfrwt>
<pdfrwt beam="2">0</pdfrwt>
<totfact> 0.48753689E+04</totfact>
</mgrwt>
</event>
<event>
 6    1  0.6377696E-002  0.3000000E+03  0.7818608E-02  0.1093470E+00
         21   -1    0    0  501  502  0.00000000000E+00  0.00000000000E+00  0.94518378677E+01  0.94518378677E+01  0.00000000000E+00 0. -1.
         13   -1    0    0    0    0 -0.00000000000E+00 -0.00000000000E+00 -0.10000000000E+04  0.10000000000E+04  0.00000000000E+00 0.  1.
    9000005    2    1    2  501    0 -0.72505345652E+02 -0.41379442011E+01 -0.16008309143E+03  0.17581739676E+03  0.33186012362E+01 0.  0.
         13    1    3    3    0    0 -0.56782421095E+02 -0.31920138381E+01 -0.12857540865E+03  0.14059184901E+03  0.00000000000E+00 0.  1.
          3    1    3    3  501    0 -0.15722924557E+02 -0.94593036301E+00 -0.31507682775E+02  0.35225547756E+02  0.00000000000E+00 0.  1.
         -3    1    1    2    0  502  0.72505345652E+02  0.41379442011E+01 -0.83046507071E+03  0.83363444110E+03  0.00000000000E+00 0. -1.
<mgrwt>
<rscale>  1 0.30000000E+03</rscale>
<asrwt>0</asrwt>
<pdfrwt beam="1">  1       21 0.34370392E-01 0.30000000E+03</pdfrwt>
<pdfrwt beam="2">0</pdfrwt>
<totfact> 0.82586527E+02</totfact>
</mgrwt>
</event>
<event>
 6    1  0.6377696E-002  0.3000000E+03  0.7818608E-02  0.1093470E+00
         21   -1    0    0  501  502  0.00000000000E+00  0.00000000000E+00  0.11700800719E+01  0.11700800719E+01  0.00000000000E+00 0. -1.
         13   -1    0    0    0    0 -0.00000000000E+00 -0.00000000000E+00 -0.10000000000E+04  0.10000000000E+04  0.00000000000E+00 0.  1.
    9000005    2    1    2  501    0  0.24874163513E+02  0.22475090467E+02 -0.59359779100E+03  0.59455363670E+03  0.34403103587E+01 0.  0.
         13    1    3    3    0    0  0.17065902427E+02  0.14487174017E+02 -0.42103149026E+03  0.42162618400E+03  0.00000000000E+00 0.  1.
          1    1    3    3  501    0  0.78082610860E+01  0.79879164504E+01 -0.17256630073E+03  0.17292745270E+03  0.00000000000E+00 0.  1.
         -1    1    1    2    0  502 -0.24874163513E+02 -0.22475090467E+02 -0.40523212893E+03  0.40661644337E+03  0.00000000000E+00 0. -1.
<mgrwt>
<rscale>  1 0.30000000E+03</rscale>
<asrwt>0</asrwt>
<pdfrwt beam="1">  1       21 0.42548456E-02 0.30000000E+03</pdfrwt>
<pdfrwt beam="2">0</pdfrwt>
<totfact> 0.37886916E+04</totfact>
</mgrwt>
</event>
<event>
 6    1  0.6377696E-002  0.3000000E+03  0.7818608E-02  0.1093470E+00
         21   -1    0    0  501  502  0.00000000000E+00  0.00000000000E+00  0.17950682052E+01  0.17950682052E+01  0.00000000000E+00 0. -1.
         13   -1    0    0    0    0 -0.00000000000E+00 -0.00000000000E+00 -0.10000000000E+04  0.10000000000E+04  0.00000000000E+00 0.  1.
    9000005    2    1    2  501    0 -0.19977506875E+01  0.40976173741E+02 -0.62164713433E+03  0.62300909611E+03  0.34837331292E+01 0.  0.
         13    1    3    3    0    0 -0.97693446324E-01  0.23857675947E+02 -0.38122510515E+03  0.38197091387E+03  0.00000000000E+00 0.  1.
          3    1    3    3  501    0 -0.19000572412E+01  0.17118497794E+02 -0.24042202918E+03  0.24103818224E+03  0.00000000000E+00 0.  1.
         -3    1    1    2    0  502  0.19977506875E+01 -0.40976173741E+02 -0.37655779747E+03  0.37878597209E+03  0.00000000000E+00 0. -1.
<mgrwt>
<rscale>  1 0.30000000E+03</rscale>
<asrwt>0</asrwt>
<pdfrwt beam="1">  1       21 0.65275345E-02 0.30000000E+03</pdfrwt>
<pdfrwt beam="2">0</pdfrwt>
<totfact> 0.18216218E+04</totfact>
</mgrwt>
</event>
<event>
 6    1  0.6377696E-002  0.3000000E+03  0.7818608E-02  0.1093470E+00
         21   -1    0    0  501  502  0.00000000000E+00  0.00000000000E+00  0.19195416163E+01  0.19195416163E+01  0.00000000000E+00 0. -1.
         13   -1    0    0    0    0 -0.00000000000E+00 -0.00000000000E+00 -0.10000000000E+04  0.10000000000E+04  0.00000000000E+00 0.  1.
    9000005    2    1    2  501    0  0.22001118154E+02  0.31625159305E+02 -0.73688043386E+03  0.73789368548E+03  0.31807788294E+01 0.  0.
         13    1    3    3    0    0  0.63983394137E+01  0.11186427119E+02 -0.22766910548E+03  0.22803354246E+03  0.00000000000E+00 0.  1.
          1    1    3    3  501    0  0.15602778740E+02  0.20438732186E+02 -0.50921132838E+03  0.50986014301E+03  0.00000000000E+00 0.  1.
         -1    1    1    2    0  502 -0.22001118154E+02 -0.31625159305E+02 -0.26120002452E+03  0.26402585614E+03  0.00000000000E+00 0. -1.
<mgrwt>
<rscale>  1 0.30000000E+03</rscale>
<asrwt>0</asrwt>
<pdfrwt beam="1">  1       21 0.69801661E-02 0.30000000E+03</pdfrwt>
<pdfrwt beam="2">0</pdfrwt>
<totfact> 0.16215152E+04</totfact>
</mgrwt>
</event>
<event>
 6    1  0.6377696E-002  0.3000000E+03  0.7818608E-02  0.1093470E+00
         21   -1    0    0  501  502  0.00000000000E+00  0.00000000000E+00  0.19857015590E+01  0.19857015590E+01  0.00000000000E+00 0. -1.
         13   -1    0    0    0    0 -0.00000000000E+00 -0.00000000000E+00 -0.10000000000E+04  0.10000000000E+04  0.00000000000E+00 0.  1.
    9000005    2    1    2  501    0  0.58560864509E+01  0.43815727041E+02 -0.44651099956E+03  0.44871361627E+03  0.42101083516E+01 0.  0.
         13    1    3    3    0    0 -0.43494619308E+00  0.68957485949E+01 -0.77079050950E+02  0.77388116803E+02  0.00000000000E+00 0.  1.
          1    1    3    3  501    0  0.62910326440E+01  0.36919978446E+02 -0.36943194861E+03  0.37132549947E+03  0.00000000000E+00 0.  1.
         -1    1    1    2    0  502 -0.58560864509E+01 -0.43815727041E+02 -0.55150329888E+03  0.55327208529E+03  0.00000000000E+00 0. -1.
<mgrwt>
<rscale>  1 0.30000000E+03</rscale>
<asrwt>0</asrwt>
<pdfrwt beam="1">  1       21 0.72207482E-02 0.30000000E+03</pdfrwt>
<pdfrwt beam="2">0</pdfrwt>
<totfact> 0.15285478E+04</totfact>
</mgrwt>
</event>
<event>
 6    1  0.6377696E-002  0.3000000E+03  0.7818608E-02  0.1093470E+00
         21   -1    0    0  501  502  0.00000000000E+00  0.00000000000E+00  0.16637995523E+01  0.16637995523E+01  0.00000000000E+00 0. -1.
         13   -1    0    0    0    0 -0.00000000000E+00 -0.00000000000E+00 -0.10000000000E+04  0.10000000000E+04  0.00000000000E+00 0.  1.
    9000005    2    1    2  501    0 -0.20718991816E+02  0.35061009331E+02 -0.49415509873E+03  0.49584057517E+03  0.31722838790E+01 0.  0.
         13    1    3    3    0    0 -0.74112586054E+01  0.11113986344E+02 -0.14657926882E+03  0.14718671643E+03  0.00000000000E+00 0.  1.
          1    1    3    3  501    0 -0.13307733211E+02  0.23947022987E+02 -0.34757582991E+03  0.34865385873E+03  0.00000000000E+00 0.  1.
         -1    1    1    2    0  502  0.20718991816E+02 -0.35061009331E+02 -0.50418110172E+03  0.50582322439E+03  0.00000000000E+00 0. -1.
<mgrwt>
<rscale>  1 0.30000000E+03</rscale>
<asrwt>0</asrwt>
<pdfrwt beam="1">  1       21 0.60501929E-02 0.30000000E+03</pdfrwt>
<pdfrwt beam="2">0</pdfrwt>
<totfact> 0.20771034E+04</totfact>
</mgrwt>
</event>
<event>
 6    1  0.6377696E-002  0.3000000E+03  0.7818608E-02  0.1093470E+00
         21   -1    0    0  501  502  0.00000000000E+00  0.00000000000E+00  0.14851385650E+01  0.14851385650E+01  0.00000000000E+00 0. -1.
         13   -1    0    0    0    0 -0.00000000000E+00 -0.00000000000E+00 -0.10000000000E+04  0.10000000000E+04  0.00000000000E+00 0.  1.
    9000005    2    1    2  501    0 -0.13257435738E+02 -0.34722989200E+02 -0.62878851174E+03  0.62989528505E+03  0.34105780355E+01 0.  0.
         13    1    3    3    0    0 -0.15812143787E+00  0.45433340463E-01 -0.21554645438E+01  0.21617340209E+01  0.00000000000E+00 0.  1.
          3    1    3    3  501    0 -0.13099314300E+02 -0.34768422540E+02 -0.62663304720E+03  0.62773355103E+03  0.00000000000E+00 0.  1.
         -3    1    1    2    0  502  0.13257435738E+02  0.34722989200E+02 -0.36972634969E+03  0.37158985352E+03  0.00000000000E+00 0. -1.
<mgrwt>
<rscale>  1 0.30000000E+03</rscale>
<asrwt>0</asrwt>
<pdfrwt beam="1">  1       21 0.54005153E-02 0.30000000E+03</pdfrwt>
<pdfrwt beam="2">0</pdfrwt>
<totfact> 0.25251765E+04</totfact>
</mgrwt>
</event>
<event>
 6    1  0.6377696E-002  0.3000000E+03  0.7818608E-02  0.1093470E+00
         21   -1    0    0  501  502  0.00000000000E+00  0.00000000000E+00  0.92028614501E+00  0.92028614501E+00  0.00000000000E+00 0. -1.
         13   -1    0    0    0    0 -0.00000000000E+00 -0.00000000000E+00 -0.10000000000E+04  0.10000000000E+04  0.00000000000E+00 0.  1.
    9000005    2    1    2  501    0 -0.25282366753E+02  0.16464382334E+02 -0.46782309413E+03  0.46880763834E+03  0.34467968707E+01 0.  0.
         13    1    3    3    0    0 -0.96223507115E+01  0.71669029098E+01 -0.20958322333E+03  0.20992637193E+03  0.00000000000E+00 0.  1.
          1    1    3    3  501    0 -0.15660016042E+02  0.92974794240E+01 -0.25823987081E+03  0.25888126641E+03  0.00000000000E+00 0.  1.
         -1    1    1    2    0  502  0.25282366753E+02 -0.16464382334E+02 -0.53125661972E+03  0.53211264780E+03  0.00000000000E+00 0. -1.
<mgrwt>
<rscale>  1 0.30000000E+03</rscale>
<asrwt>0</asrwt>
<pdfrwt beam="1">  1       21 0.33465021E-02 0.30000000E+03</pdfrwt>
<pdfrwt beam="2">0</pdfrwt>
<totfact> 0.56713636E+04</totfact>
</mgrwt>
</event>
<event>
 6    1  0.6377696E-002  0.3000000E+03  0.7818608E-02  0.1093470E+00
         21   -1    0    0  501  502  0.00000000000E+00  0.00000000000E+00  0.10994916029E+01  0.10994916029E+01  0.00000000000E+00 0. -1.
         13   -1    0    0    0    0 -0.00000000000E+00 -0.00000000000E+00 -0.10000000000E+04  0.10000000000E+04  0.00000000000E+00 0.  1.
    9000005    2    1    2  501    0 -0.19964190206E+02  0.26348551824E+02 -0.48451677369E+03  0.48565459483E+03  0.33266233229E+01 0.  0.
         13    1    3    3    0    0 -0.48161414128E+01  0.49454443451E+01 -0.86483328333E+02  0.86758392778E+02  0.00000000000E+00 0.  1.
          3    1    3    3  501    0 -0.15148048793E+02  0.21403107479E+02 -0.39803344536E+03  0.39889620205E+03  0.00000000000E+00 0.  1.
         -1    1    1    2    0  502  0.19964190206E+02 -0.26348551824E+02 -0.51438373471E+03  0.51544489677E+03  0.00000000000E+00 0. -1.
<mgrwt>
<rscale>  1 0.30000000E+03</rscale>
<asrwt>0</asrwt>
<pdfrwt beam="1">  1       21 0.39981597E-02 0.30000000E+03</pdfrwt>
<pdfrwt beam="2">0</pdfrwt>
<totfact> 0.42079920E+04</totfact>
</mgrwt>
</event>
<event>
 6    1  0.6377696E-002  0.3000000E+03  0.7818608E-02  0.1093470E+00
         21   -1    0    0  501  502  0.00000000000E+00  0.00000000000E+00  0.34372955572E+01  0.34372955572E+01  0.00000000000E+00 0. -1.
         13   -1    0    0    0    0 -0.00000000000E+00 -0.00000000000E+00 -0.10000000000E+04  0.10000000000E+04  0.00000000000E+00 0.  1.
    9000005    2    1    2  501    0 -0.60300177951E+01  0.58240408944E+02 -0.50586927633E+03  0.50926288632E+03  0.40812134251E+01 0.  0.
         13    1    3    3    0    0 -0.12055228033E+01  0.78065471521E+01 -0.80683042099E+02  0.81068790209E+02  0.00000000000E+00 0.  1.
          3    1    3    3  501    0 -0.48244949918E+01  0.50433861792E+02 -0.42518623423E+03  0.42819409612E+03  0.00000000000E+00 0.  1.
         -3    1    1    2    0  502  0.60300177951E+01 -0.58240408944E+02 -0.49069342811E+03  0.49417440923E+03  0.00000000000E+00 0. -1.
<mgrwt>
<rscale>  1 0.30000000E+03</rscale>
<asrwt>0</asrwt>
<pdfrwt beam="1">  1       21 0.12499283E-01 0.30000000E+03</pdfrwt>
<pdfrwt beam="2">0</pdfrwt>
<totfact> 0.57542954E+03</totfact>
</mgrwt>
</event>
<event>
 6    1  0.6377696E-002  0.3000000E+03  0.7818608E-02  0.1093470E+00
         21   -1    0    0  501  502  0.00000000000E+00  0.00000000000E+00  0.11761254195E+01  0.11761254195E+01  0.00000000000E+00 0. -1.
         13   -1    0    0    0    0 -0.00000000000E+00 -0.00000000000E+00 -0.10000000000E+04  0.10000000000E+04  0.00000000000E+00 0.  1.
    9000005    2    1    2  501    0  0.16637077583E+02 -0.28348368459E+02 -0.61231377766E+03  0.61327088265E+03  0.96224140421E+01 0.  0.
         13    1    3    3    0    0 -0.10414985983E+01 -0.31566648203E+01 -0.78938863584E+02  0.79008818723E+02  0.00000000000E+00 0.  1.
          1    1    3    3  501    0  0.17678576182E+02 -0.25191703638E+02 -0.53337491407E+03  0.53426206393E+03  0.00000000000E+00 0.  1.
         -1    1    1    2    0  502 -0.16637077583E+02  0.28348368459E+02 -0.38651009692E+03  0.38790524277E+03  0.00000000000E+00 0. -1.
<mgrwt>
<rscale>  1 0.30000000E+03</rscale>
<asrwt>0</asrwt>
<pdfrwt beam="1">  1       21 0.42768287E-02 0.30000000E+03</pdfrwt>
<pdfrwt beam="2">0</pdfrwt>
<totfact> 0.37558327E+04</totfact>
</mgrwt>
</event>
<event>
 6    1  0.6377696E-002  0.3000000E+03  0.7818608E-02  0.1093470E+00
         21   -1    0    0  501  502  0.00000000000E+00  0.00000000000E+00  0.14464704612E+02  0.14464704612E+02  0.00000000000E+00 0. -1.
         13   -1    0    0    0    0 -0.00000000000E+00 -0.00000000000E+00 -0.10000000000E+04  0.10000000000E+04  0.00000000000E+00 0.  1.
    9000005    2    1    2  501    0 -0.10922992083E+03 -0.73345020213E+01 -0.70224028748E+03  0.71075261721E+03  0.65491218944E+01 0.  0.
         13    1    3    3    0    0 -0.38736406453E+01  0.15742871375E+00 -0.33323836668E+02  0.33548591117E+02  0.00000000000E+00 0.  1.
          1    1    3    3  501    0 -0.10535628018E+03 -0.74919307350E+01 -0.66891645081E+03  0.67720402610E+03  0.00000000000E+00 0.  1.
         -1    1    1    2    0  502  0.10922992083E+03  0.73345020213E+01 -0.28329500791E+03  0.30371208740E+03  0.00000000000E+00 0. -1.
<mgrwt>
<rscale>  1 0.30000000E+03</rscale>
<asrwt>0</asrwt>
<pdfrwt beam="1">  1       21 0.52599037E-01 0.30000000E+03</pdfrwt>
<pdfrwt beam="2">0</pdfrwt>
<totfact> 0.33642472E+02</totfact>
</mgrwt>
</event>
<event>
 6    1  0.6377696E-002  0.3000000E+03  0.7818608E-02  0.1093470E+00
         21   -1    0    0  501  502  0.00000000000E+00  0.00000000000E+00  0.12984753679E+01  0.12984753679E+01  0.00000000000E+00 0. -1.
         13   -1    0    0    0    0 -0.00000000000E+00 -0.00000000000E+00 -0.10000000000E+04  0.10000000000E+04  0.00000000000E+00 0.  1.
    9000005    2    1    2  501    0  0.32433628202E+02  0.71707781238E+01 -0.30938044541E+03  0.31117753628E+03  0.34407543658E+01 0.  0.
         13    1    3    3    0    0  0.15989969937E+02  0.50228856416E+01 -0.14691959514E+03  0.14787249898E+03  0.00000000000E+00 0.  1.
          3    1    3    3  501    0  0.16443658265E+02  0.21478924822E+01 -0.16246085027E+03  0.16330503730E+03  0.00000000000E+00 0.  1.
         -3    1    1    2    0  502 -0.32433628202E+02 -0.71707781238E+01 -0.68932107923E+03  0.69012093908E+03  0.00000000000E+00 0. -1.
<mgrwt>
<rscale>  1 0.30000000E+03</rscale>
<asrwt>0</asrwt>
<pdfrwt beam="1">  1       21 0.47217386E-02 0.30000000E+03</pdfrwt>
<pdfrwt beam="2">0</pdfrwt>
<totfact> 0.31754195E+04</totfact>
</mgrwt>
</event>
<event>
 6    1  0.6377696E-002  0.3000000E+03  0.7818608E-02  0.1093470E+00
         21   -1    0    0  501  502  0.00000000000E+00  0.00000000000E+00  0.13044251602E+01  0.13044251602E+01  0.00000000000E+00 0. -1.
         13   -1    0    0    0    0 -0.00000000000E+00 -0.00000000000E+00 -0.10000000000E+04  0.10000000000E+04  0.00000000000E+00 0.  1.
    9000005    2    1    2  501    0 -0.13332861896E+02 -0.28464446640E+02 -0.73700905857E+03  0.73773693338E+03  0.92434042147E+01 0.  0.
         13    1    3    3    0    0 -0.13744796697E+02 -0.19886863808E+02 -0.54667279315E+03  0.54720704451E+03  0.00000000000E+00 0.  1.
          3    1    3    3  501    0  0.41193480140E+00 -0.85775828323E+01 -0.19033626542E+03  0.19052988887E+03  0.00000000000E+00 0.  1.
         -1    1    1    2    0  502  0.13332861896E+02  0.28464446640E+02 -0.26168651627E+03  0.26356749178E+03  0.00000000000E+00 0. -1.
<mgrwt>
<rscale>  1 0.30000000E+03</rscale>
<asrwt>0</asrwt>
<pdfrwt beam="1">  1       21 0.47433742E-02 0.30000000E+03</pdfrwt>
<pdfrwt beam="2">0</pdfrwt>
<totfact> 0.31508268E+04</totfact>
</mgrwt>
</event>
<event>
 6    1  0.6377696E-002  0.3000000E+03  0.7818608E-02  0.1093470E+00
         21   -1    0    0  501  502  0.00000000000E+00  0.00000000000E+00  0.18374783440E+01  0.18374783440E+01  0.00000000000E+00 0. -1.
         13   -1    0    0    0    0 -0.00000000000E+00 -0.00000000000E+00 -0.10000000000E+04  0.10000000000E+04  0.00000000000E+00 0.  1.
    9000005    2    1    2  501    0 -0.34942968581E+02  0.24689491822E+02 -0.48796573751E+03  0.48984984117E+03  0.34240118470E+01 0.  0.
         13    1    3    3    0    0 -0.18941743182E+02  0.13877513639E+02 -0.28650692804E+03  0.28746755441E+03  0.00000000000E+00 0.  1.
          1    1    3    3  501    0 -0.16001225399E+02  0.10811978184E+02 -0.20145880946E+03  0.20238228677E+03  0.00000000000E+00 0.  1.
         -1    1    1    2    0  502  0.34942968581E+02 -0.24689491822E+02 -0.51019678415E+03  0.51198763717E+03  0.00000000000E+00 0. -1.
<mgrwt>
<rscale>  1 0.30000000E+03</rscale>
<asrwt>0</asrwt>
<pdfrwt beam="1">  1       21 0.66817535E-02 0.30000000E+03</pdfrwt>
<pdfrwt beam="2">0</pdfrwt>
<totfact> 0.17493734E+04</totfact>
</mgrwt>
</event>
<event>
 6    1  0.6377696E-002  0.3000000E+03  0.7818608E-02  0.1093470E+00
         21   -1    0    0  501  502  0.00000000000E+00  0.00000000000E+00  0.19474578532E+01  0.19474578532E+01  0.00000000000E+00 0. -1.
         13   -1    0    0    0    0 -0.00000000000E+00 -0.00000000000E+00 -0.10000000000E+04  0.10000000000E+04  0.00000000000E+00 0.  1.
    9000005    2    1    2  501    0  0.17866182546E+02  0.38653953983E+02 -0.37160415109E+03  0.37405342595E+03  0.36044032948E+01 0.  0.
         13    1    3    3    0    0  0.18030612994E+02  0.38464744354E+02 -0.36977162540E+03  0.37220383463E+03  0.00000000000E+00 0.  1.
          3    1    3    3  501    0 -0.16443044835E+00  0.18920962882E+00 -0.18325256902E+01  0.18495913227E+01  0.00000000000E+00 0.  1.
         -1    1    1    2    0  502 -0.17866182546E+02 -0.38653953983E+02 -0.62644839106E+03  0.62789403190E+03  0.00000000000E+00 0. -1.
<mgrwt>
<rscale>  1 0.30000000E+03</rscale>
<asrwt>0</asrwt>
<pdfrwt beam="1">  1       21 0.70816799E-02 0.30000000E+03</pdfrwt>
<pdfrwt beam="2">0</pdfrwt>
<totfact> 0.15812636E+04</totfact>
</mgrwt>
</event>
<event>
 6    1  0.6377696E-002  0.3000000E+03  0.7818608E-02  0.1093470E+00
         21   -1    0    0  501  502  0.00000000000E+00  0.00000000000E+00  0.14470145113E+01  0.14470145113E+01  0.00000000000E+00 0. -1.
         13   -1    0    0    0    0 -0.00000000000E+00 -0.00000000000E+00 -0.10000000000E+04  0.10000000000E+04  0.00000000000E+00 0.  1.
    9000005    2    1    2  501    0  0.31563669711E+02 -0.18634866773E+02 -0.37421222385E+03  0.37603122469E+03  0.46010828259E+01 0.  0.
         13    1    3    3    0    0  0.17769230529E+02 -0.12729914167E+02 -0.20974188814E+03  0.21087782223E+03  0.00000000000E+00 0.  1.
          1    1    3    3  501    0  0.13794439182E+02 -0.59049526062E+01 -0.16447033570E+03  0.16515340246E+03  0.00000000000E+00 0.  1.
         -1    1    1    2    0  502 -0.31563669711E+02  0.18634866773E+02 -0.62434076164E+03  0.62541578982E+03  0.00000000000E+00 0. -1.
<mgrwt>
<rscale>  1 0.30000000E+03</rscale>
<asrwt>0</asrwt>
<pdfrwt beam="1">  1       21 0.52618820E-02 0.30000000E+03</pdfrwt>
<pdfrwt beam="2">0</pdfrwt>
<totfact> 0.26400710E+04</totfact>
</mgrwt>
</event>
<event>
 6    1  0.6377696E-002  0.3000000E+03  0.7818608E-02  0.1093470E+00
         21   -1    0    0  501  502  0.00000000000E+00  0.00000000000E+00  0.26768479562E+01  0.26768479562E+01  0.00000000000E+00 0. -1.
         13   -1    0    0    0    0 -0.00000000000E+00 -0.00000000000E+00 -0.10000000000E+04  0.10000000000E+04  0.00000000000E+00 0.  1.
    9000005    2    1    2  501    0 -0.27300110543E+02 -0.40259162163E+02 -0.66864736938E+03  0.67042112373E+03  0.30136997663E+01 0.  0.
         13    1    3    3    0    0 -0.27030114575E+02 -0.39123125337E+02 -0.64981951460E+03  0.65155709465E+03  0.00000000000E+00 0.  1.
          1    1    3    3  501    0 -0.26999596863E+00 -0.11360368259E+01 -0.18827854779E+02  0.18864029079E+02  0.00000000000E+00 0.  1.
         -3    1    1    2    0  502  0.27300110543E+02  0.40259162163E+02 -0.32867578266E+03  0.33225572423E+03  0.00000000000E+00 0. -1.
<mgrwt>
<rscale>  1 0.30000000E+03</rscale>
<asrwt>0</asrwt>
<pdfrwt beam="1">  1       21 0.97340131E-02 0.30000000E+03</pdfrwt>
<pdfrwt beam="2">0</pdfrwt>
<totfact> 0.90274299E+03</totfact>
</mgrwt>
</event>
<event>
 6    1  0.6377696E-002  0.3000000E+03  0.7818608E-02  0.1093470E+00
         21   -1    0    0  501  502  0.00000000000E+00  0.00000000000E+00  0.21106389155E+01  0.21106389155E+01  0.00000000000E+00 0. -1.
         13   -1    0    0    0    0 -0.00000000000E+00 -0.00000000000E+00 -0.10000000000E+04  0.10000000000E+04  0.00000000000E+00 0.  1.
    9000005    2    1    2  501    0 -0.15085090266E+02 -0.33657088261E+02 -0.79725878034E+03  0.79811801781E+03  0.32323325446E+01 0.  0.
         13    1    3    3    0    0 -0.61241109845E+01 -0.99902732370E+01 -0.25247631490E+03  0.25274809570E+03  0.00000000000E+00 0.  1.
          3    1    3    3  501    0 -0.89609792816E+01 -0.23666815024E+02 -0.54478246544E+03  0.54536992210E+03  0.00000000000E+00 0.  1.
         -1    1    1    2    0  502  0.15085090266E+02  0.33657088261E+02 -0.20063058074E+03  0.20399262111E+03  0.00000000000E+00 0. -1.
<mgrwt>
<rscale>  1 0.30000000E+03</rscale>
<asrwt>0</asrwt>
<pdfrwt beam="1">  1       21 0.76750668E-02 0.30000000E+03</pdfrwt>
<pdfrwt beam="2">0</pdfrwt>
<totfact> 0.13737806E+04</totfact>
</mgrwt>
</event>
<event>
 6    1  0.6377696E-002  0.3000000E+03  0.7818608E-02  0.1093470E+00
         21   -1    0    0  501  502  0.00000000000E+00  0.00000000000E+00  0.11410544117E+01  0.11410544117E+01  0.00000000000E+00 0. -1.
         13   -1    0    0    0    0 -0.00000000000E+00 -0.00000000000E+00 -0.10000000000E+04  0.10000000000E+04  0.00000000000E+00 0.  1.
    9000005    2    1    2  501    0  0.26389565485E+02 -0.14286058538E+02 -0.27866032315E+03  0.28031752788E+03  0.50833163689E+01 0.  0.
         13    1    3    3    0    0  0.11958371488E+02 -0.87355336579E+01 -0.15092288329E+03  0.15164771313E+03  0.00000000000E+00 0.  1.
          3    1    3    3  501    0  0.14431193997E+02 -0.55505248806E+01 -0.12773743986E+03  0.12866981475E+03  0.00000000000E+00 0.  1.
         -3    1    1    2    0  502 -0.26389565485E+02  0.14286058538E+02 -0.72019862244E+03  0.72082352653E+03  0.00000000000E+00 0. -1.
<mgrwt>
<rscale>  1 0.30000000E+03</rscale>
<asrwt>0</asrwt>
<pdfrwt beam="1">  1       21 0.41492975E-02 0.30000000E+03</pdfrwt>
<pdfrwt beam="2">0</pdfrwt>
<totfact> 0.39528613E+04</totfact>
</mgrwt>
</event>
<event>
 6    1  0.6377696E-002  0.3000000E+03  0.7818608E-02  0.1093470E+00
         21   -1    0    0  501  502  0.00000000000E+00  0.00000000000E+00  0.13054092228E+01  0.13054092228E+01  0.00000000000E+00 0. -1.
         13   -1    0    0    0    0 -0.00000000000E+00 -0.00000000000E+00 -0.10000000000E+04  0.10000000000E+04  0.00000000000E+00 0.  1.
    9000005    2    1    2  501    0 -0.28214410364E+01 -0.35733829131E+02 -0.55462156815E+03  0.55578805097E+03  0.32259381224E+01 0.  0.
         13    1    3    3    0    0 -0.13293221821E+01 -0.12784465705E+02 -0.22283242673E+03  0.22320282270E+03  0.00000000000E+00 0.  1.
          1    1    3    3  501    0 -0.14921188543E+01 -0.22949363425E+02 -0.33178914142E+03  0.33258522827E+03  0.00000000000E+00 0.  1.
         -1    1    1    2    0  502  0.28214410364E+01  0.35733829131E+02 -0.44407302263E+03  0.44551735825E+03  0.00000000000E+00 0. -1.
<mgrwt>
<rscale>  1 0.30000000E+03</rscale>
<asrwt>0</asrwt>
<pdfrwt beam="1">  1       21 0.47469526E-02 0.30000000E+03</pdfrwt>
<pdfrwt beam="2">0</pdfrwt>
<totfact> 0.31467880E+04</totfact>
</mgrwt>
</event>
<event>
 6    1  0.6377696E-002  0.3000000E+03  0.7818608E-02  0.1093470E+00
         21   -1    0    0  501  502  0.00000000000E+00  0.00000000000E+00  0.12615772715E+01  0.12615772715E+01  0.00000000000E+00 0. -1.
         13   -1    0    0    0    0 -0.00000000000E+00 -0.00000000000E+00 -0.10000000000E+04  0.10000000000E+04  0.00000000000E+00 0.  1.
    9000005    2    1    2  501    0 -0.30553359403E+02  0.54163329715E+01 -0.74190442086E+03  0.74255991715E+03  0.31963155262E+01 0.  0.
         13    1    3    3    0    0 -0.12634212586E+02  0.12963914879E+01 -0.27339651181E+03  0.27369135285E+03  0.00000000000E+00 0.  1.
          1    1    3    3  501    0 -0.17919146817E+02  0.41199414837E+01 -0.46850790905E+03  0.46886856429E+03  0.00000000000E+00 0.  1.
         -1    1    1    2    0  502  0.30553359403E+02 -0.54163329715E+01 -0.25683400187E+03  0.25870166012E+03  0.00000000000E+00 0. -1.
<mgrwt>
<rscale>  1 0.30000000E+03</rscale>
<asrwt>0</asrwt>
<pdfrwt beam="1">  1       21 0.45875634E-02 0.30000000E+03</pdfrwt>
<pdfrwt beam="2">0</pdfrwt>
<totfact> 0.33348815E+04</totfact>
</mgrwt>
</event>
<event>
 6    1  0.6377696E-002  0.3000000E+03  0.7818608E-02  0.1093470E+00
         21   -1    0    0  501  502  0.00000000000E+00  0.00000000000E+00  0.57850132817E+01  0.57850132817E+01  0.00000000000E+00 0. -1.
         13   -1    0    0    0    0 -0.00000000000E+00 -0.00000000000E+00 -0.10000000000E+04  0.10000000000E+04  0.00000000000E+00 0.  1.
    9000005    2    1    2  501    0 -0.73917012042E+01  0.53037915230E+02 -0.14054246806E+03  0.15043454312E+03  0.32724204812E+01 0.  0.
         13    1    3    3    0    0 -0.53146617452E+01  0.44130601864E+02 -0.11390812380E+03  0.12227353073E+03  0.00000000000E+00 0.  1.
          1    1    3    3  501    0 -0.20770394590E+01  0.89073133663E+01 -0.26634344268E+02  0.28161012391E+02  0.00000000000E+00 0.  1.
         -3    1    1    2    0  502  0.73917012042E+01 -0.53037915230E+02 -0.85367251865E+03  0.85535047016E+03  0.00000000000E+00 0. -1.
<mgrwt>
<rscale>  1 0.30000000E+03</rscale>
<asrwt>0</asrwt>
<pdfrwt beam="1">  1       21 0.21036456E-01 0.30000000E+03</pdfrwt>
<pdfrwt beam="2">0</pdfrwt>
<totfact> 0.21781681E+03</totfact>
</mgrwt>
</event>
<event>
 6    1  0.6377696E-002  0.3000000E+03  0.7818608E-02  0.1093470E+00
         21   -1    0    0  501  502  0.00000000000E+00  0.00000000000E+00  0.18991282234E+01  0.18991282234E+01  0.00000000000E+00 0. -1.
         13   -1    0    0    0    0 -0.00000000000E+00 -0.00000000000E+00 -0.10000000000E+04  0.10000000000E+04  0.00000000000E+00 0.  1.
    9000005    2    1    2  501    0 -0.41316425968E+02 -0.87498274833E+01 -0.61994452619E+03  0.62139179815E+03  0.35978762441E+01 0.  0.
         13    1    3    3    0    0 -0.28378734017E+02 -0.76967584968E+01 -0.42782478552E+03  0.42883404685E+03  0.00000000000E+00 0.  1.
          3    1    3    3  501    0 -0.12937691951E+02 -0.10530689865E+01 -0.19211974068E+03  0.19255775130E+03  0.00000000000E+00 0.  1.
         -1    1    1    2    0  502  0.41316425968E+02  0.87498274833E+01 -0.37815634558E+03  0.38050733007E+03  0.00000000000E+00 0. -1.
<mgrwt>
<rscale>  1 0.30000000E+03</rscale>
<asrwt>0</asrwt>
<pdfrwt beam="1">  1       21 0.69059354E-02 0.30000000E+03</pdfrwt>
<pdfrwt beam="2">0</pdfrwt>
<totfact> 0.16519487E+04</totfact>
</mgrwt>
</event>
<event>
 6    1  0.6377696E-002  0.3000000E+03  0.7818608E-02  0.1093470E+00
         21   -1    0    0  501  502  0.00000000000E+00  0.00000000000E+00  0.23694297343E+01  0.23694297343E+01  0.00000000000E+00 0. -1.
         13   -1    0    0    0    0 -0.00000000000E+00 -0.00000000000E+00 -0.10000000000E+04  0.10000000000E+04  0.00000000000E+00 0.  1.
    9000005    2    1    2  501    0  0.97549489851E+01  0.45318779430E+02 -0.65060960489E+03  0.65226587190E+03  0.29931372009E+01 0.  0.
         13    1    3    3    0    0  0.61685132898E+01  0.27537830003E+02 -0.41600353749E+03  0.41695962135E+03  0.00000000000E+00 0.  1.
          1    1    3    3  501    0  0.35864356952E+01  0.17780949426E+02 -0.23460606740E+03  0.23530625055E+03  0.00000000000E+00 0.  1.
         -3    1    1    2    0  502 -0.97549489851E+01 -0.45318779430E+02 -0.34702096537E+03  0.35010355783E+03  0.00000000000E+00 0. -1.
<mgrwt>
<rscale>  1 0.30000000E+03</rscale>
<asrwt>0</asrwt>
<pdfrwt beam="1">  1       21 0.86161263E-02 0.30000000E+03</pdfrwt>
<pdfrwt beam="2">0</pdfrwt>
<totfact> 0.11209663E+04</totfact>
</mgrwt>
</event>
<event>
 6    1  0.6377696E-002  0.3000000E+03  0.7818608E-02  0.1093470E+00
         21   -1    0    0  501  502  0.00000000000E+00  0.00000000000E+00  0.96604636808E+00  0.96604636808E+00  0.00000000000E+00 0. -1.
         13   -1    0    0    0    0 -0.00000000000E+00 -0.00000000000E+00 -0.10000000000E+04  0.10000000000E+04  0.00000000000E+00 0.  1.
    9000005    2    1    2  501    0  0.97610483007E+01  0.28585323905E+02 -0.38898029888E+03  0.39016504728E+03  0.32699232676E+01 0.  0.
         13    1    3    3    0    0  0.22582139191E+01  0.35222949728E+01 -0.60563509168E+02  0.60707863863E+02  0.00000000000E+00 0.  1.
          3    1    3    3  501    0  0.75028343816E+01  0.25063028932E+02 -0.32841678971E+03  0.32945718342E+03  0.00000000000E+00 0.  1.
         -3    1    1    2    0  502 -0.97610483007E+01 -0.28585323905E+02 -0.61005365475E+03  0.61080099908E+03  0.00000000000E+00 0. -1.
<mgrwt>
<rscale>  1 0.30000000E+03</rscale>
<asrwt>0</asrwt>
<pdfrwt beam="1">  1       21 0.35129033E-02 0.30000000E+03</pdfrwt>
<pdfrwt beam="2">0</pdfrwt>
<totfact> 0.52293545E+04</totfact>
</mgrwt>
</event>
<event>
 6    1  0.6377696E-002  0.3000000E+03  0.7818608E-02  0.1093470E+00
         21   -1    0    0  501  502  0.00000000000E+00  0.00000000000E+00  0.12725417998E+01  0.12725417998E+01  0.00000000000E+00 0. -1.
         13   -1    0    0    0    0 -0.00000000000E+00 -0.00000000000E+00 -0.10000000000E+04  0.10000000000E+04  0.00000000000E+00 0.  1.
    9000005    2    1    2  501    0 -0.20370815726E+02  0.27569621170E+02 -0.63555511993E+03  0.63648602693E+03  0.30162668520E+01 0.  0.
         13    1    3    3    0    0 -0.11507735652E+02  0.15020923290E+02 -0.37759590521E+03  0.37806973398E+03  0.00000000000E+00 0.  1.
          3    1    3    3  501    0 -0.88630800742E+01  0.12548697879E+02 -0.25795921472E+03  0.25841629296E+03  0.00000000000E+00 0.  1.
         -3    1    1    2    0  502  0.20370815726E+02 -0.27569621170E+02 -0.36317233827E+03  0.36478651487E+03  0.00000000000E+00 0. -1.
<mgrwt>
<rscale>  1 0.30000000E+03</rscale>
<asrwt>0</asrwt>
<pdfrwt beam="1">  1       21 0.46274345E-02 0.30000000E+03</pdfrwt>
<pdfrwt beam="2">0</pdfrwt>
<totfact> 0.32862077E+04</totfact>
</mgrwt>
</event>
<event>
 6    1  0.6377696E-002  0.3000000E+03  0.7818608E-02  0.1093470E+00
         21   -1    0    0  501  502  0.00000000000E+00  0.00000000000E+00  0.20688215732E+01  0.20688215732E+01  0.00000000000E+00 0. -1.
         13   -1    0    0    0    0 -0.00000000000E+00 -0.00000000000E+00 -0.10000000000E+04  0.10000000000E+04  0.00000000000E+00 0.  1.
    9000005    2    1    2  501    0  0.27901929103E+02 -0.21333432920E+02 -0.81668107236E+03  0.81744695408E+03  0.42327029248E+01 0.  0.
         13    1    3    3    0    0  0.13551898661E+01 -0.93830041785E-01 -0.26393301738E+02  0.26428237177E+02  0.00000000000E+00 0.  1.
          3    1    3    3  501    0  0.26546739237E+02 -0.21239602878E+02 -0.79028777062E+03  0.79101871690E+03  0.00000000000E+00 0.  1.
         -1    1    1    2    0  502 -0.27901929103E+02  0.21333432920E+02 -0.18125010607E+03  0.18462186750E+03  0.00000000000E+00 0. -1.
<mgrwt>
<rscale>  1 0.30000000E+03</rscale>
<asrwt>0</asrwt>
<pdfrwt beam="1">  1       21 0.75230034E-02 0.30000000E+03</pdfrwt>
<pdfrwt beam="2">0</pdfrwt>
<totfact> 0.14227964E+04</totfact>
</mgrwt>
</event>
<event>
 6    1  0.6377696E-002  0.3000000E+03  0.7818608E-02  0.1093470E+00
         21   -1    0    0  501  502  0.00000000000E+00  0.00000000000E+00  0.14088032725E+01  0.14088032725E+01  0.00000000000E+00 0. -1.
         13   -1    0    0    0    0 -0.00000000000E+00 -0.00000000000E+00 -0.10000000000E+04  0.10000000000E+04  0.00000000000E+00 0.  1.
    9000005    2    1    2  501    0 -0.55480792843E+01  0.30486831477E+02 -0.21947417459E+03  0.22167579623E+03  0.33192239715E+01 0.  0.
         13    1    3    3    0    0  0.95486934431E-01  0.55614394787E+01 -0.44068478539E+02  0.44418121613E+02  0.00000000000E+00 0.  1.
          1    1    3    3  501    0 -0.56435662187E+01  0.24925391999E+02 -0.17540569605E+03  0.17725767462E+03  0.00000000000E+00 0.  1.
         -1    1    1    2    0  502  0.55480792843E+01 -0.30486831477E+02 -0.77911702214E+03  0.77973300704E+03  0.00000000000E+00 0. -1.
<mgrwt>
<rscale>  1 0.30000000E+03</rscale>
<asrwt>0</asrwt>
<pdfrwt beam="1">  1       21 0.51229318E-02 0.30000000E+03</pdfrwt>
<pdfrwt beam="2">0</pdfrwt>
<totfact> 0.27635613E+04</totfact>
</mgrwt>
</event>
<event>
 6    1  0.6377696E-002  0.3000000E+03  0.7818608E-02  0.1093470E+00
         21   -1    0    0  501  502  0.00000000000E+00  0.00000000000E+00  0.45873776610E+01  0.45873776610E+01  0.00000000000E+00 0. -1.
         13   -1    0    0    0    0 -0.00000000000E+00 -0.00000000000E+00 -0.10000000000E+04  0.10000000000E+04  0.00000000000E+00 0.  1.
    9000005    2    1    2  501    0 -0.35898681770E+02 -0.50068117592E+02 -0.70590393557E+03  0.70859614220E+03  0.35489072672E+01 0.  0.
         13    1    3    3    0    0 -0.32685722109E+02 -0.44082257001E+02 -0.61997767986E+03  0.62240173951E+03  0.00000000000E+00 0.  1.
          1    1    3    3  501    0 -0.32129596607E+01 -0.59858605909E+01 -0.85926255703E+02  0.86194402695E+02  0.00000000000E+00 0.  1.
         -3    1    1    2    0  502  0.35898681770E+02  0.50068117592E+02 -0.28950868677E+03  0.29599123546E+03  0.00000000000E+00 0. -1.
<mgrwt>
<rscale>  1 0.30000000E+03</rscale>
<asrwt>0</asrwt>
<pdfrwt beam="1">  1       21 0.16681408E-01 0.30000000E+03</pdfrwt>
<pdfrwt beam="2">0</pdfrwt>
<totfact> 0.33790618E+03</totfact>
</mgrwt>
</event>
<event>
 6    1  0.6377696E-002  0.3000000E+03  0.7818608E-02  0.1093470E+00
         21   -1    0    0  501  502  0.00000000000E+00  0.00000000000E+00  0.12482774715E+01  0.12482774715E+01  0.00000000000E+00 0. -1.
         13   -1    0    0    0    0 -0.00000000000E+00 -0.00000000000E+00 -0.10000000000E+04  0.10000000000E+04  0.00000000000E+00 0.  1.
    9000005    2    1    2  501    0 -0.10010826108E+01 -0.35114537840E+02 -0.46924441028E+03  0.47057697934E+03  0.42829864681E+01 0.  0.
         13    1    3    3    0    0 -0.53899812012E+00 -0.40115951752E+00 -0.92861563515E+01  0.93104321982E+01  0.00000000000E+00 0.  1.
          1    1    3    3  501    0 -0.46208449072E+00 -0.34713378323E+02 -0.45995825393E+03  0.46126654714E+03  0.00000000000E+00 0.  1.
         -3    1    1    2    0  502  0.10010826108E+01  0.35114537840E+02 -0.52950731225E+03  0.53067129813E+03  0.00000000000E+00 0. -1.
<mgrwt>
<rscale>  1 0.30000000E+03</rscale>
<asrwt>0</asrwt>
<pdfrwt beam="1">  1       21 0.45392004E-02 0.30000000E+03</pdfrwt>
<pdfrwt beam="2">0</pdfrwt>
<totfact> 0.33954570E+04</totfact>
</mgrwt>
</event>
<event>
 6    1  0.6377696E-002  0.3000000E+03  0.7818608E-02  0.1093470E+00
         21   -1    0    0  501  502  0.00000000000E+00  0.00000000000E+00  0.15552729232E+01  0.15552729232E+01  0.00000000000E+00 0. -1.
         13   -1    0    0    0    0 -0.00000000000E+00 -0.00000000000E+00 -0.10000000000E+04  0.10000000000E+04  0.00000000000E+00 0.  1.
    9000005    2    1    2  501    0 -0.12274799022E+02 -0.35544750118E+02 -0.35565072086E+03  0.35766224270E+03  0.45546292212E+01 0.  0.
         13    1    3    3    0    0 -0.11129848197E+02 -0.28745839826E+02 -0.27698988730E+03  0.27869982866E+03  0.00000000000E+00 0.  1.
          1    1    3    3  501    0 -0.11449508241E+01 -0.67989102916E+01 -0.78660833566E+02  0.78962414039E+02  0.00000000000E+00 0.  1.
         -3    1    1    2    0  502  0.12274799022E+02  0.35544750118E+02 -0.64279400621E+03  0.64389303023E+03  0.00000000000E+00 0. -1.
<mgrwt>
<rscale>  1 0.30000000E+03</rscale>
<asrwt>0</asrwt>
<pdfrwt beam="1">  1       21 0.56555498E-02 0.30000000E+03</pdfrwt>
<pdfrwt beam="2">0</pdfrwt>
<totfact> 0.23330123E+04</totfact>
</mgrwt>
</event>
<event>
 6    1  0.6377696E-002  0.3000000E+03  0.7818608E-02  0.1093470E+00
         21   -1    0    0  501  502  0.00000000000E+00  0.00000000000E+00  0.14883884059E+01  0.14883884059E+01  0.00000000000E+00 0. -1.
         13   -1    0    0    0    0 -0.00000000000E+00 -0.00000000000E+00 -0.10000000000E+04  0.10000000000E+04  0.00000000000E+00 0.  1.
    9000005    2    1    2  501    0 -0.24052471275E+02  0.23247197185E+02 -0.25322617115E+03  0.25545263773E+03  0.36881995138E+01 0.  0.
         13    1    3    3    0    0 -0.49372808830E+01  0.32775659251E+01 -0.51981271246E+02  0.52317986785E+02  0.00000000000E+00 0.  1.
          3    1    3    3  501    0 -0.19115190392E+02  0.19969631260E+02 -0.20124489991E+03  0.20313465095E+03  0.00000000000E+00 0.  1.
         -1    1    1    2    0  502  0.24052471275E+02 -0.23247197185E+02 -0.74528544044E+03  0.74603575067E+03  0.00000000000E+00 0. -1.
<mgrwt>
<rscale>  1 0.30000000E+03</rscale>
<asrwt>0</asrwt>
<pdfrwt beam="1">  1       21 0.54123329E-02 0.30000000E+03</pdfrwt>
<pdfrwt beam="2">0</pdfrwt>
<totfact> 0.25157413E+04</totfact>
</mgrwt>
</event>
<event>
 6    1  0.6377696E-002  0.3000000E+03  0.7818608E-02  0.1093470E+00
         21   -1    0    0  501  502  0.00000000000E+00  0.00000000000E+00  0.12754205785E+01  0.12754205785E+01  0.00000000000E+00 0. -1.
         13   -1    0    0    0    0 -0.00000000000E+00 -0.00000000000E+00 -0.10000000000E+04  0.10000000000E+04  0.00000000000E+00 0.  1.
    9000005    2    1    2  501    0 -0.27382383075E+02  0.14742485550E+02 -0.74417794806E+03  0.74483610354E+03  0.35870576248E+01 0.  0.
         13    1    3    3    0    0 -0.22495871272E+02  0.12549463430E+02 -0.64415965979E+03  0.64467450745E+03  0.00000000000E+00 0.  1.
          3    1    3    3  501    0 -0.48865118027E+01  0.21930221199E+01 -0.10001828826E+03  0.10016159609E+03  0.00000000000E+00 0.  1.
         -1    1    1    2    0  502  0.27382383075E+02 -0.14742485550E+02 -0.25454663137E+03  0.25643931704E+03  0.00000000000E+00 0. -1.
<mgrwt>
<rscale>  1 0.30000000E+03</rscale>
<asrwt>0</asrwt>
<pdfrwt beam="1">  1       21 0.46379028E-02 0.30000000E+03</pdfrwt>
<pdfrwt beam="2">0</pdfrwt>
<totfact> 0.32736129E+04</totfact>
</mgrwt>
</event>
<event>
 6    1  0.6377696E-002  0.3000000E+03  0.7818608E-02  0.1093470E+00
         21   -1    0    0  501  502  0.00000000000E+00  0.00000000000E+00  0.14621239158E+01  0.14621239158E+01  0.00000000000E+00 0. -1.
         13   -1    0    0    0    0 -0.00000000000E+00 -0.00000000000E+00 -0.10000000000E+04  0.10000000000E+04  0.00000000000E+00 0.  1.
    9000005    2    1    2  501    0 -0.10240266854E+02 -0.36437768951E+02 -0.56451949341E+03  0.56579650607E+03  0.32945064807E+01 0.  0.
         13    1    3    3    0    0 -0.77211800850E+01 -0.21654142551E+02 -0.33662433517E+03  0.33740844912E+03  0.00000000000E+00 0.  1.
          1    1    3    3  501    0 -0.25190867694E+01 -0.14783626400E+02 -0.22789515824E+03  0.22838805695E+03  0.00000000000E+00 0.  1.
         -1    1    1    2    0  502  0.10240266854E+02  0.36437768951E+02 -0.43401838268E+03  0.43566561785E+03  0.00000000000E+00 0. -1.
<mgrwt>
<rscale>  1 0.30000000E+03</rscale>
<asrwt>0</asrwt>
<pdfrwt beam="1">  1       21 0.53168255E-02 0.30000000E+03</pdfrwt>
<pdfrwt beam="2">0</pdfrwt>
<totfact> 0.25935870E+04</totfact>
</mgrwt>
</event>
<event>
 6    1  0.6377696E-002  0.3000000E+03  0.7818608E-02  0.1093470E+00
         21   -1    0    0  501  502  0.00000000000E+00  0.00000000000E+00  0.13529477276E+01  0.13529477276E+01  0.00000000000E+00 0. -1.
         13   -1    0    0    0    0 -0.00000000000E+00 -0.00000000000E+00 -0.10000000000E+04  0.10000000000E+04  0.00000000000E+00 0.  1.
    9000005    2    1    2  501    0  0.24432034467E+02  0.25819586948E+02 -0.62520015661E+03  0.62621809296E+03  0.32076085203E+01 0.  0.
         13    1    3    3    0    0  0.19794354101E+02  0.21140013075E+02 -0.52952621742E+03  0.53031757612E+03  0.00000000000E+00 0.  1.
          3    1    3    3  501    0  0.46376803660E+01  0.46795738733E+01 -0.95673939187E+02  0.95900516841E+02  0.00000000000E+00 0.  1.
         -1    1    1    2    0  502 -0.24432034467E+02 -0.25819586948E+02 -0.37344689566E+03  0.37513485477E+03  0.00000000000E+00 0. -1.
<mgrwt>
<rscale>  1 0.30000000E+03</rscale>
<asrwt>0</asrwt>
<pdfrwt beam="1">  1       21 0.49198203E-02 0.30000000E+03</pdfrwt>
<pdfrwt beam="2">0</pdfrwt>
<totfact> 0.29609188E+04</totfact>
</mgrwt>
</event>
<event>
 6    1  0.6377696E-002  0.3000000E+03  0.7818608E-02  0.1093470E+00
         21   -1    0    0  501  502  0.00000000000E+00  0.00000000000E+00  0.15864385101E+01  0.15864385101E+01  0.00000000000E+00 0. -1.
         13   -1    0    0    0    0 -0.00000000000E+00 -0.00000000000E+00 -0.10000000000E+04  0.10000000000E+04  0.00000000000E+00 0.  1.
    9000005    2    1    2  501    0 -0.32957120564E+02 -0.21733870716E+02 -0.44165945862E+03  0.44343443055E+03  0.35332524209E+01 0.  0.
         13    1    3    3    0    0 -0.30731317728E+02 -0.20151070102E+02 -0.41969652209E+03  0.42130232633E+03  0.00000000000E+00 0.  1.
          3    1    3    3  501    0 -0.22258028363E+01 -0.15828006138E+01 -0.21962936532E+02  0.22132104219E+02  0.00000000000E+00 0.  1.
         -3    1    1    2    0  502  0.32957120564E+02  0.21733870716E+02 -0.55675410287E+03  0.55815200796E+03  0.00000000000E+00 0. -1.
<mgrwt>
<rscale>  1 0.30000000E+03</rscale>
<asrwt>0</asrwt>
<pdfrwt beam="1">  1       21 0.57688795E-02 0.30000000E+03</pdfrwt>
<pdfrwt beam="2">0</pdfrwt>
<totfact> 0.22547466E+04</totfact>
</mgrwt>
</event>
<event>
 6    1  0.6377696E-002  0.3000000E+03  0.7818608E-02  0.1093470E+00
         21   -1    0    0  501  502  0.00000000000E+00  0.00000000000E+00  0.11499574615E+01  0.11499574615E+01  0.00000000000E+00 0. -1.
         13   -1    0    0    0    0 -0.00000000000E+00 -0.00000000000E+00 -0.10000000000E+04  0.10000000000E+04  0.00000000000E+00 0.  1.
    9000005    2    1    2  501    0 -0.28430615947E+02 -0.11190977529E+02 -0.71519758565E+03  0.71585667994E+03  0.31083422048E+01 0.  0.
         13    1    3    3    0    0 -0.13644421656E+02 -0.39198414330E+01 -0.31333256031E+03  0.31365399527E+03  0.00000000000E+00 0.  1.
          3    1    3    3  501    0 -0.14786194292E+02 -0.72711360958E+01 -0.40186502534E+03  0.40220268467E+03  0.00000000000E+00 0.  1.
         -1    1    1    2    0  502  0.28430615947E+02  0.11190977529E+02 -0.28365245689E+03  0.28529327752E+03  0.00000000000E+00 0. -1.
<mgrwt>
<rscale>  1 0.30000000E+03</rscale>
<asrwt>0</asrwt>
<pdfrwt beam="1">  1       21 0.41816723E-02 0.30000000E+03</pdfrwt>
<pdfrwt beam="2">0</pdfrwt>
<totfact> 0.39013469E+04</totfact>
</mgrwt>
</event>
<event>
 6    1  0.6377696E-002  0.3000000E+03  0.7818608E-02  0.1093470E+00
         21   -1    0    0  501  502  0.00000000000E+00  0.00000000000E+00  0.12043902245E+01  0.12043902245E+01  0.00000000000E+00 0. -1.
         13   -1    0    0    0    0 -0.00000000000E+00 -0.00000000000E+00 -0.10000000000E+04  0.10000000000E+04  0.00000000000E+00 0.  1.
    9000005    2    1    2  501    0  0.65156705982E+01  0.33961539777E+02 -0.49904652624E+03  0.50026029490E+03  0.41336608969E+01 0.  0.
         13    1    3    3    0    0  0.14497688462E+01  0.17000561666E+02 -0.26004551787E+03  0.26060466668E+03  0.00000000000E+00 0.  1.
          3    1    3    3  501    0  0.50659017521E+01  0.16960978112E+02 -0.23900100836E+03  0.23965562822E+03  0.00000000000E+00 0.  1.
         -1    1    1    2    0  502 -0.65156705982E+01 -0.33961539777E+02 -0.49974908354E+03  0.50094409533E+03  0.00000000000E+00 0. -1.
<mgrwt>
<rscale>  1 0.30000000E+03</rscale>
<asrwt>0</asrwt>
<pdfrwt beam="1">  1       21 0.43796101E-02 0.30000000E+03</pdfrwt>
<pdfrwt beam="2">0</pdfrwt>
<totfact> 0.36079121E+04</totfact>
</mgrwt>
</event>
<event>
 6    1  0.6377696E-002  0.3000000E+03  0.7818608E-02  0.1093470E+00
         21   -1    0    0  501  502  0.00000000000E+00  0.00000000000E+00  0.11908957400E+01  0.11908957400E+01  0.00000000000E+00 0. -1.
         13   -1    0    0    0    0 -0.00000000000E+00 -0.00000000000E+00 -0.10000000000E+04  0.10000000000E+04  0.00000000000E+00 0.  1.
    9000005    2    1    2  501    0 -0.33956505408E+02 -0.43680700740E+01 -0.45144446918E+03  0.45275660794E+03  0.37832508047E+01 0.  0.
         13    1    3    3    0    0 -0.52541040929E+01 -0.18780475734E+01 -0.64303915461E+02  0.64545535990E+02  0.00000000000E+00 0.  1.
          3    1    3    3  501    0 -0.28702401315E+02 -0.24900225007E+01 -0.38714055372E+03  0.38821107195E+03  0.00000000000E+00 0.  1.
         -1    1    1    2    0  502  0.33956505408E+02  0.43680700740E+01 -0.54736463508E+03  0.54843428780E+03  0.00000000000E+00 0. -1.
<mgrwt>
<rscale>  1 0.30000000E+03</rscale>
<asrwt>0</asrwt>
<pdfrwt beam="1">  1       21 0.43305391E-02 0.30000000E+03</pdfrwt>
<pdfrwt beam="2">0</pdfrwt>
<totfact> 0.36773856E+04</totfact>
</mgrwt>
</event>
<event>
 6    1  0.6377696E-002  0.3000000E+03  0.7818608E-02  0.1093470E+00
         21   -1    0    0  501  502  0.00000000000E+00  0.00000000000E+00  0.15586568900E+01  0.15586568900E+01  0.00000000000E+00 0. -1.
         13   -1    0    0    0    0 -0.00000000000E+00 -0.00000000000E+00 -0.10000000000E+04  0.10000000000E+04  0.00000000000E+00 0.  1.
    9000005    2    1    2  501    0  0.33343961942E+02  0.10844145384E+02 -0.72879044319E+03  0.72963767000E+03  0.24908033440E+01 0.  0.
         13    1    3    3    0    0  0.11815388662E+01  0.22284204051E+00 -0.35468953054E+02  0.35489326894E+02  0.00000000000E+00 0.  1.
          1    1    3    3  501    0  0.32162423076E+02  0.10621303344E+02 -0.69332149014E+03  0.69414834310E+03  0.00000000000E+00 0.  1.
         -1    1    1    2    0  502 -0.33343961942E+02 -0.10844145384E+02 -0.26965089992E+03  0.27192098689E+03  0.00000000000E+00 0. -1.
<mgrwt>
<rscale>  1 0.30000000E+03</rscale>
<asrwt>0</asrwt>
<pdfrwt beam="1">  1       21 0.56678552E-02 0.30000000E+03</pdfrwt>
<pdfrwt beam="2">0</pdfrwt>
<totfact> 0.23243143E+04</totfact>
</mgrwt>
</event>
<event>
 6    1  0.6377696E-002  0.3000000E+03  0.7818608E-02  0.1093470E+00
         21   -1    0    0  501  502  0.00000000000E+00  0.00000000000E+00  0.48624639610E+01  0.48624639610E+01  0.00000000000E+00 0. -1.
         13   -1    0    0    0    0 -0.00000000000E+00 -0.00000000000E+00 -0.10000000000E+04  0.10000000000E+04  0.00000000000E+00 0.  1.
    9000005    2    1    2  501    0  0.62207682831E+02 -0.31180719763E+02 -0.46847901501E+03  0.47362689393E+03  0.27953650766E+01 0.  0.
         13    1    3    3    0    0  0.19676042966E+02 -0.84299763737E+01 -0.14504358015E+03  0.14661463539E+03  0.00000000000E+00 0.  1.
          3    1    3    3  501    0  0.42531639865E+02 -0.22750743389E+02 -0.32343543485E+03  0.32701225854E+03  0.00000000000E+00 0.  1.
         -1    1    1    2    0  502 -0.62207682831E+02  0.31180719763E+02 -0.52665852103E+03  0.53123557003E+03  0.00000000000E+00 0. -1.
<mgrwt>
<rscale>  1 0.30000000E+03</rscale>
<asrwt>0</asrwt>
<pdfrwt beam="1">  1       21 0.17681724E-01 0.30000000E+03</pdfrwt>
<pdfrwt beam="2">0</pdfrwt>
<totfact> 0.30295635E+03</totfact>
</mgrwt>
</event>
<event>
 6    1  0.6377696E-002  0.3000000E+03  0.7818608E-02  0.1093470E+00
         21   -1    0    0  501  502  0.00000000000E+00  0.00000000000E+00  0.97438727241E+00  0.97438727241E+00  0.00000000000E+00 0. -1.
         13   -1    0    0    0    0 -0.00000000000E+00 -0.00000000000E+00 -0.10000000000E+04  0.10000000000E+04  0.00000000000E+00 0.  1.
    9000005    2    1    2  501    0  0.95317843078E+01 -0.29446877492E+02 -0.55293540920E+03  0.55381172873E+03  0.34482795900E+01 0.  0.
         13    1    3    3    0    0  0.70499852853E+01 -0.18721113140E+02 -0.33189520347E+03  0.33249753150E+03  0.00000000000E+00 0.  1.
          3    1    3    3  501    0  0.24817990225E+01 -0.10725764353E+02 -0.22104020573E+03  0.22131419723E+03  0.00000000000E+00 0.  1.
         -1    1    1    2    0  502 -0.95317843078E+01  0.29446877492E+02 -0.44609020353E+03  0.44716265854E+03  0.00000000000E+00 0. -1.
<mgrwt>
<rscale>  1 0.30000000E+03</rscale>
<asrwt>0</asrwt>
<pdfrwt beam="1">  1       21 0.35432339E-02 0.30000000E+03</pdfrwt>
<pdfrwt beam="2">0</pdfrwt>
<totfact> 0.51545712E+04</totfact>
</mgrwt>
</event>
<event>
 6    1  0.6377696E-002  0.3000000E+03  0.7818608E-02  0.1093470E+00
         21   -1    0    0  501  502  0.00000000000E+00  0.00000000000E+00  0.16693289904E+01  0.16693289904E+01  0.00000000000E+00 0. -1.
         13   -1    0    0    0    0 -0.00000000000E+00 -0.00000000000E+00 -0.10000000000E+04  0.10000000000E+04  0.00000000000E+00 0.  1.
    9000005    2    1    2  501    0 -0.95300376830E+01  0.30922387456E+02 -0.80316578154E+03  0.80384023672E+03  0.60694216823E+01 0.  0.
         13    1    3    3    0    0  0.73879297210E+00  0.18737359044E+01 -0.66351268410E+02  0.66381831256E+02  0.00000000000E+00 0.  1.
          1    1    3    3  501    0 -0.10268830655E+02  0.29048651552E+02 -0.73681451313E+03  0.73745840547E+03  0.00000000000E+00 0.  1.
         -1    1    1    2    0  502  0.95300376830E+01 -0.30922387456E+02 -0.19516488947E+03  0.19782909227E+03  0.00000000000E+00 0. -1.
<mgrwt>
<rscale>  1 0.30000000E+03</rscale>
<asrwt>0</asrwt>
<pdfrwt beam="1">  1       21 0.60703000E-02 0.30000000E+03</pdfrwt>
<pdfrwt beam="2">0</pdfrwt>
<totfact> 0.20652470E+04</totfact>
</mgrwt>
</event>
<event>
 6    1  0.6377696E-002  0.3000000E+03  0.7818608E-02  0.1093470E+00
         21   -1    0    0  501  502  0.00000000000E+00  0.00000000000E+00  0.25042869825E+01  0.25042869825E+01  0.00000000000E+00 0. -1.
         13   -1    0    0    0    0 -0.00000000000E+00 -0.00000000000E+00 -0.10000000000E+04  0.10000000000E+04  0.00000000000E+00 0.  1.
    9000005    2    1    2  501    0  0.90694286180E+01  0.41044436032E+02 -0.22788984572E+03  0.23175134911E+03  0.28294462547E+01 0.  0.
         13    1    3    3    0    0  0.41513367776E+01  0.20286591713E+02 -0.11983193894E+03  0.12160786566E+03  0.00000000000E+00 0.  1.
          1    1    3    3  501    0  0.49180918403E+01  0.20757844319E+02 -0.10805790678E+03  0.11014348345E+03  0.00000000000E+00 0.  1.
         -1    1    1    2    0  502 -0.90694286180E+01 -0.41044436032E+02 -0.76960586729E+03  0.77075293787E+03  0.00000000000E+00 0. -1.
<mgrwt>
<rscale>  1 0.30000000E+03</rscale>
<asrwt>0</asrwt>
<pdfrwt beam="1">  1       21 0.91065173E-02 0.30000000E+03</pdfrwt>
<pdfrwt beam="2">0</pdfrwt>
<totfact> 0.10163883E+04</totfact>
</mgrwt>
</event>
<event>
 6    1  0.6377696E-002  0.3000000E+03  0.7818608E-02  0.1093470E+00
         21   -1    0    0  501  502  0.00000000000E+00  0.00000000000E+00  0.13131619718E+01  0.13131619718E+01  0.00000000000E+00 0. -1.
         13   -1    0    0    0    0 -0.00000000000E+00 -0.00000000000E+00 -0.10000000000E+04  0.10000000000E+04  0.00000000000E+00 0.  1.
    9000005    2    1    2  501    0  0.26394008370E+02  0.23320458429E+02 -0.38673142382E+03  0.38834504173E+03  0.31921472362E+01 0.  0.
         13    1    3    3    0    0  0.74595335509E+01  0.47812757841E+01 -0.99833272151E+02  0.10022568267E+03  0.00000000000E+00 0.  1.
          1    1    3    3  501    0  0.18934474819E+02  0.18539182645E+02 -0.28689815167E+03  0.28811935905E+03  0.00000000000E+00 0.  1.
         -3    1    1    2    0  502 -0.26394008370E+02 -0.23320458429E+02 -0.61195541421E+03  0.61296812024E+03  0.00000000000E+00 0. -1.
<mgrwt>
<rscale>  1 0.30000000E+03</rscale>
<asrwt>0</asrwt>
<pdfrwt beam="1">  1       21 0.47751445E-02 0.30000000E+03</pdfrwt>
<pdfrwt beam="2">0</pdfrwt>
<totfact> 0.31152508E+04</totfact>
</mgrwt>
</event>
<event>
 6    1  0.6377696E-002  0.3000000E+03  0.7818608E-02  0.1093470E+00
         21   -1    0    0  501  502  0.00000000000E+00  0.00000000000E+00  0.16049024029E+02  0.16049024029E+02  0.00000000000E+00 0. -1.
         13   -1    0    0    0    0 -0.00000000000E+00 -0.00000000000E+00 -0.10000000000E+04  0.10000000000E+04  0.00000000000E+00 0.  1.
    9000005    2    1    2  501    0 -0.10188976323E+03 -0.63343896160E+02 -0.32922226381E+03  0.35041875161E+03  0.34683512875E+01 0.  0.
         13    1    3    3    0    0 -0.34169929637E+02 -0.19328879645E+02 -0.10787906952E+03  0.11480018868E+03  0.00000000000E+00 0.  1.
          3    1    3    3  501    0 -0.67719833589E+02 -0.44015016515E+02 -0.22134319428E+03  0.23561856293E+03  0.00000000000E+00 0.  1.
         -3    1    1    2    0  502  0.10188976323E+03  0.63343896160E+02 -0.65472871217E+03  0.66563027242E+03  0.00000000000E+00 0. -1.
<mgrwt>
<rscale>  1 0.30000000E+03</rscale>
<asrwt>0</asrwt>
<pdfrwt beam="1">  1       21 0.58360210E-01 0.30000000E+03</pdfrwt>
<pdfrwt beam="2">0</pdfrwt>
<totfact> 0.26720724E+02</totfact>
</mgrwt>
</event>
<event>
 6    1  0.6377696E-002  0.3000000E+03  0.7818608E-02  0.1093470E+00
         21   -1    0    0  501  502  0.00000000000E+00  0.00000000000E+00  0.15646450315E+01  0.15646450315E+01  0.00000000000E+00 0. -1.
         13   -1    0    0    0    0 -0.00000000000E+00 -0.00000000000E+00 -0.10000000000E+04  0.10000000000E+04  0.00000000000E+00 0.  1.
    9000005    2    1    2  501    0 -0.33930005490E+01 -0.38305633682E+02 -0.42480105514E+03  0.42664278603E+03  0.94496769304E+01 0.  0.
         13    1    3    3    0    0 -0.50528964591E+01 -0.20003975743E+02 -0.26096252044E+03  0.26177686660E+03  0.00000000000E+00 0.  1.
          3    1    3    3  501    0  0.16598959101E+01 -0.18301657939E+02 -0.16383853470E+03  0.16486591943E+03  0.00000000000E+00 0.  1.
         -1    1    1    2    0  502  0.33930005490E+01  0.38305633682E+02 -0.57363429982E+03  0.57492185900E+03  0.00000000000E+00 0. -1.
<mgrwt>
<rscale>  1 0.30000000E+03</rscale>
<asrwt>0</asrwt>
<pdfrwt beam="1">  1       21 0.56896303E-02 0.30000000E+03</pdfrwt>
<pdfrwt beam="2">0</pdfrwt>
<totfact> 0.23090440E+04</totfact>
</mgrwt>
</event>
<event>
 6    1  0.6377696E-002  0.3000000E+03  0.7818608E-02  0.1093470E+00
         21   -1    0    0  501  502  0.00000000000E+00  0.00000000000E+00  0.12481649310E+01  0.12481649310E+01  0.00000000000E+00 0. -1.
         13   -1    0    0    0    0 -0.00000000000E+00 -0.00000000000E+00 -0.10000000000E+04  0.10000000000E+04  0.00000000000E+00 0.  1.
    9000005    2    1    2  501    0  0.96776765584E+01  0.30302293746E+02 -0.28603189100E+03  0.28781869742E+03  0.36706252151E+01 0.  0.
         13    1    3    3    0    0  0.54747159230E+01  0.13374527292E+02 -0.14250534925E+03  0.14323625609E+03  0.00000000000E+00 0.  1.
          1    1    3    3  501    0  0.42029606355E+01  0.16927766454E+02 -0.14352654175E+03  0.14458244133E+03  0.00000000000E+00 0.  1.
         -1    1    1    2    0  502 -0.96776765584E+01 -0.30302293746E+02 -0.71271994407E+03  0.71342946751E+03  0.00000000000E+00 0. -1.
<mgrwt>
<rscale>  1 0.30000000E+03</rscale>
<asrwt>0</asrwt>
<pdfrwt beam="1">  1       21 0.45387911E-02 0.30000000E+03</pdfrwt>
<pdfrwt beam="2">0</pdfrwt>
<totfact> 0.33959769E+04</totfact>
</mgrwt>
</event>
<event>
 6    1  0.6377696E-002  0.3000000E+03  0.7818608E-02  0.1093470E+00
         21   -1    0    0  501  502  0.00000000000E+00  0.00000000000E+00  0.19972965627E+01  0.19972965627E+01  0.00000000000E+00 0. -1.
         13   -1    0    0    0    0 -0.00000000000E+00 -0.00000000000E+00 -0.10000000000E+04  0.10000000000E+04  0.00000000000E+00 0.  1.
    9000005    2    1    2  501    0 -0.10362627652E+02  0.32435929260E+02 -0.82312757507E+03  0.82383786212E+03  0.32163124986E+01 0.  0.
         13    1    3    3    0    0 -0.60213252307E+01  0.21744849786E+02 -0.51394716025E+03  0.51444220120E+03  0.00000000000E+00 0.  1.
          3    1    3    3  501    0 -0.43413024212E+01  0.10691079474E+02 -0.30918041482E+03  0.30939566092E+03  0.00000000000E+00 0.  1.
         -3    1    1    2    0  502  0.10362627652E+02 -0.32435929260E+02 -0.17487512837E+03  0.17815943444E+03  0.00000000000E+00 0. -1.
<mgrwt>
<rscale>  1 0.30000000E+03</rscale>
<asrwt>0</asrwt>
<pdfrwt beam="1">  1       21 0.72629119E-02 0.30000000E+03</pdfrwt>
<pdfrwt beam="2">0</pdfrwt>
<totfact> 0.15130926E+04</totfact>
</mgrwt>
</event>
<event>
 6    1  0.6377696E-002  0.3000000E+03  0.7818608E-02  0.1093470E+00
         21   -1    0    0  501  502  0.00000000000E+00  0.00000000000E+00  0.93665290500E+00  0.93665290500E+00  0.00000000000E+00 0. -1.
         13   -1    0    0    0    0 -0.00000000000E+00 -0.00000000000E+00 -0.10000000000E+04  0.10000000000E+04  0.00000000000E+00 0.  1.
    9000005    2    1    2  501    0 -0.18612485219E+02 -0.23719824073E+02 -0.57634964403E+03  0.57714905349E+03  0.36142923637E+01 0.  0.
         13    1    3    3    0    0 -0.35428245336E+01 -0.38853023280E+01 -0.77789678930E+02  0.77967181095E+02  0.00000000000E+00 0.  1.
          1    1    3    3  501    0 -0.15069660686E+02 -0.19834521745E+02 -0.49855996510E+03  0.49918187240E+03  0.00000000000E+00 0.  1.
         -1    1    1    2    0  502  0.18612485219E+02  0.23719824073E+02 -0.42271370306E+03  0.42378759941E+03  0.00000000000E+00 0. -1.
<mgrwt>
<rscale>  1 0.30000000E+03</rscale>
<asrwt>0</asrwt>
<pdfrwt beam="1">  1       21 0.34060177E-02 0.30000000E+03</pdfrwt>
<pdfrwt beam="2">0</pdfrwt>
<totfact> 0.55068037E+04</totfact>
</mgrwt>
</event>
<event>
 6    1  0.6377696E-002  0.3000000E+03  0.7818608E-02  0.1093470E+00
         21   -1    0    0  501  502  0.00000000000E+00  0.00000000000E+00  0.10357580392E+01  0.10357580392E+01  0.00000000000E+00 0. -1.
         13   -1    0    0    0    0 -0.00000000000E+00 -0.00000000000E+00 -0.10000000000E+04  0.10000000000E+04  0.00000000000E+00 0.  1.
    9000005    2    1    2  501    0 -0.30739308273E+02 -0.54012545904E+01 -0.61561145618E+03  0.61641459769E+03  0.39258933013E+01 0.  0.
         13    1    3    3    0    0 -0.14183497540E+02 -0.14448814338E+01 -0.24835067251E+03  0.24875955423E+03  0.00000000000E+00 0.  1.
          3    1    3    3  501    0 -0.16555810733E+02 -0.39563731566E+01 -0.36726078367E+03  0.36765504346E+03  0.00000000000E+00 0.  1.
         -3    1    1    2    0  502  0.30739308273E+02  0.54012545904E+01 -0.38335278578E+03  0.38462116035E+03  0.00000000000E+00 0. -1.
<mgrwt>
<rscale>  1 0.30000000E+03</rscale>
<asrwt>0</asrwt>
<pdfrwt beam="1">  1       21 0.37664008E-02 0.30000000E+03</pdfrwt>
<pdfrwt beam="2">0</pdfrwt>
<totfact> 0.46525039E+04</totfact>
</mgrwt>
</event>
<event>
 6    1  0.6377696E-002  0.3000000E+03  0.7818608E-02  0.1093470E+00
         21   -1    0    0  501  502  0.00000000000E+00  0.00000000000E+00  0.10953004281E+01  0.10953004281E+01  0.00000000000E+00 0. -1.
         13   -1    0    0    0    0 -0.00000000000E+00 -0.00000000000E+00 -0.10000000000E+04  0.10000000000E+04  0.00000000000E+00 0.  1.
    9000005    2    1    2  501    0  0.39039641838E+01  0.30656756497E+02 -0.32581027348E+03  0.32729178004E+03  0.35351548167E+01 0.  0.
         13    1    3    3    0    0  0.66218799434E+00  0.80962440091E+01 -0.10249257752E+03  0.10281398790E+03  0.00000000000E+00 0.  1.
          3    1    3    3  501    0  0.32417761895E+01  0.22560512488E+02 -0.22331769596E+03  0.22447779214E+03  0.00000000000E+00 0.  1.
         -1    1    1    2    0  502 -0.39039641838E+01 -0.30656756497E+02 -0.67309442609E+03  0.67380352039E+03  0.00000000000E+00 0. -1.
<mgrwt>
<rscale>  1 0.30000000E+03</rscale>
<asrwt>0</asrwt>
<pdfrwt beam="1">  1       21 0.39829190E-02 0.30000000E+03</pdfrwt>
<pdfrwt beam="2">0</pdfrwt>
<totfact> 0.42351404E+04</totfact>
</mgrwt>
</event>
<event>
 6    1  0.6377696E-002  0.3000000E+03  0.7818608E-02  0.1093470E+00
         21   -1    0    0  501  502  0.00000000000E+00  0.00000000000E+00  0.41294636579E+01  0.41294636579E+01  0.00000000000E+00 0. -1.
         13   -1    0    0    0    0 -0.00000000000E+00 -0.00000000000E+00 -0.10000000000E+04  0.10000000000E+04  0.00000000000E+00 0.  1.
    9000005    2    1    2  501    0  0.23823978129E+02  0.41464707490E+02 -0.16907669070E+03  0.17595377753E+03  0.92682570098E+01 0.  0.
         13    1    3    3    0    0  0.44595711400E+01  0.23105390887E+01 -0.18419462883E+02  0.19091961097E+02  0.00000000000E+00 0.  1.
          1    1    3    3  501    0  0.19364406989E+02  0.39154168402E+02 -0.15065722782E+03  0.15686181643E+03  0.00000000000E+00 0.  1.
         -1    1    1    2    0  502 -0.23823978129E+02 -0.41464707490E+02 -0.82679384564E+03  0.82817568613E+03  0.00000000000E+00 0. -1.
<mgrwt>
<rscale>  1 0.30000000E+03</rscale>
<asrwt>0</asrwt>
<pdfrwt beam="1">  1       21 0.15016263E-01 0.30000000E+03</pdfrwt>
<pdfrwt beam="2">0</pdfrwt>
<totfact> 0.41097844E+03</totfact>
</mgrwt>
</event>
<event>
 6    1  0.6377696E-002  0.3000000E+03  0.7818608E-02  0.1093470E+00
         21   -1    0    0  501  502  0.00000000000E+00  0.00000000000E+00  0.10047041333E+01  0.10047041333E+01  0.00000000000E+00 0. -1.
         13   -1    0    0    0    0 -0.00000000000E+00 -0.00000000000E+00 -0.10000000000E+04  0.10000000000E+04  0.00000000000E+00 0.  1.
    9000005    2    1    2  501    0 -0.20219327458E+02  0.22337761089E+02 -0.65313306845E+03  0.65383258958E+03  0.25403374150E+01 0.  0.
         13    1    3    3    0    0 -0.48733466089E+01  0.40363492656E+01 -0.14789262258E+03  0.14802793465E+03  0.00000000000E+00 0.  1.
          1    1    3    3  501    0 -0.15345980849E+02  0.18301411823E+02 -0.50524044587E+03  0.50580465493E+03  0.00000000000E+00 0.  1.
         -1    1    1    2    0  502  0.20219327458E+02 -0.22337761089E+02 -0.34586222741E+03  0.34717211456E+03  0.00000000000E+00 0. -1.
<mgrwt>
<rscale>  1 0.30000000E+03</rscale>
<asrwt>0</asrwt>
<pdfrwt beam="1">  1       21 0.36534773E-02 0.30000000E+03</pdfrwt>
<pdfrwt beam="2">0</pdfrwt>
<totfact> 0.48964165E+04</totfact>
</mgrwt>
</event>
<event>
 6    1  0.6377696E-002  0.3000000E+03  0.7818608E-02  0.1093470E+00
         21   -1    0    0  501  502  0.00000000000E+00  0.00000000000E+00  0.10768110605E+01  0.10768110605E+01  0.00000000000E+00 0. -1.
         13   -1    0    0    0    0 -0.00000000000E+00 -0.00000000000E+00 -0.10000000000E+04  0.10000000000E+04  0.00000000000E+00 0.  1.
    9000005    2    1    2  501    0  0.29785182908E+02 -0.11640730670E+02 -0.39385642195E+03  0.39516555002E+03  0.32042293833E+01 0.  0.
         13    1    3    3    0    0  0.13516876785E+02 -0.56639496124E+01 -0.16147126015E+03  0.16213498739E+03  0.00000000000E+00 0.  1.
          3    1    3    3  501    0  0.16268306124E+02 -0.59767810581E+01 -0.23238516180E+03  0.23303056263E+03  0.00000000000E+00 0.  1.
         -1    1    1    2    0  502 -0.29785182908E+02  0.11640730670E+02 -0.60506676699E+03  0.60591126104E+03  0.00000000000E+00 0. -1.
<mgrwt>
<rscale>  1 0.30000000E+03</rscale>
<asrwt>0</asrwt>
<pdfrwt beam="1">  1       21 0.39156848E-02 0.30000000E+03</pdfrwt>
<pdfrwt beam="2">0</pdfrwt>
<totfact> 0.43582420E+04</totfact>
</mgrwt>
</event>
<event>
 6    1  0.6377696E-002  0.3000000E+03  0.7818608E-02  0.1093470E+00
         21   -1    0    0  501  502  0.00000000000E+00  0.00000000000E+00  0.18032124987E+01  0.18032124987E+01  0.00000000000E+00 0. -1.
         13   -1    0    0    0    0 -0.00000000000E+00 -0.00000000000E+00 -0.10000000000E+04  0.10000000000E+04  0.00000000000E+00 0.  1.
    9000005    2    1    2  501    0  0.12276701858E+02 -0.39526996133E+02 -0.39069609158E+03  0.39289419107E+03  0.30509947779E+01 0.  0.
         13    1    3    3    0    0  0.11426111017E+02 -0.36398953421E+02 -0.36695835324E+03  0.36893613653E+03  0.00000000000E+00 0.  1.
          3    1    3    3  501    0  0.85059084034E+00 -0.31280427122E+01 -0.23737738338E+02  0.23958054541E+02  0.00000000000E+00 0.  1.
         -3    1    1    2    0  502 -0.12276701858E+02  0.39526996133E+02 -0.60750069592E+03  0.60890902143E+03  0.00000000000E+00 0. -1.
<mgrwt>
<rscale>  1 0.30000000E+03</rscale>
<asrwt>0</asrwt>
<pdfrwt beam="1">  1       21 0.65571502E-02 0.30000000E+03</pdfrwt>
<pdfrwt beam="2">0</pdfrwt>
<totfact> 0.18073949E+04</totfact>
</mgrwt>
</event>
<event>
 6    1  0.6377696E-002  0.3000000E+03  0.7818608E-02  0.1093470E+00
         21   -1    0    0  501  502  0.00000000000E+00  0.00000000000E+00  0.23932677698E+01  0.23932677698E+01  0.00000000000E+00 0. -1.
         13   -1    0    0    0    0 -0.00000000000E+00 -0.00000000000E+00 -0.10000000000E+04  0.10000000000E+04  0.00000000000E+00 0.  1.
    9000005    2    1    2  501    0  0.19959050309E+02 -0.41638069009E+02 -0.66317624017E+03  0.66479017759E+03  0.33409897714E+01 0.  0.
         13    1    3    3    0    0  0.14561559059E+02 -0.26733048675E+02 -0.43360560280E+03  0.43467288123E+03  0.00000000000E+00 0.  1.
          3    1    3    3  501    0  0.53974912505E+01 -0.14905020334E+02 -0.22957063737E+03  0.23011729636E+03  0.00000000000E+00 0.  1.
         -3    1    1    2    0  502 -0.19959050309E+02  0.41638069009E+02 -0.33443049206E+03  0.33760309018E+03  0.00000000000E+00 0. -1.
<mgrwt>
<rscale>  1 0.30000000E+03</rscale>
<asrwt>0</asrwt>
<pdfrwt beam="1">  1       21 0.87028102E-02 0.30000000E+03</pdfrwt>
<pdfrwt beam="2">0</pdfrwt>
<totfact> 0.11013251E+04</totfact>
</mgrwt>
</event>
<event>
 6    1  0.6377696E-002  0.3000000E+03  0.7818608E-02  0.1093470E+00
         21   -1    0    0  501  502  0.00000000000E+00  0.00000000000E+00  0.11241561780E+01  0.11241561780E+01  0.00000000000E+00 0. -1.
         13   -1    0    0    0    0 -0.00000000000E+00 -0.00000000000E+00 -0.10000000000E+04  0.10000000000E+04  0.00000000000E+00 0.  1.
    9000005    2    1    2  501    0  0.79181304875E+01  0.31814780738E+02 -0.40112307718E+03  0.40247296634E+03  0.31446026774E+01 0.  0.
         13    1    3    3    0    0  0.43718458102E+01  0.23238669863E+02 -0.29226385787E+03  0.29321887973E+03  0.00000000000E+00 0.  1.
          1    1    3    3  501    0  0.35462846773E+01  0.85761108752E+01 -0.10885921930E+03  0.10925408661E+03  0.00000000000E+00 0.  1.
         -1    1    1    2    0  502 -0.79181304875E+01 -0.31814780738E+02 -0.59775276665E+03  0.59865118984E+03  0.00000000000E+00 0. -1.
<mgrwt>
<rscale>  1 0.30000000E+03</rscale>
<asrwt>0</asrwt>
<pdfrwt beam="1">  1       21 0.40878493E-02 0.30000000E+03</pdfrwt>
<pdfrwt beam="2">0</pdfrwt>
<totfact> 0.40535985E+04</totfact>
</mgrwt>
</event>
<event>
 6    1  0.6377696E-002  0.3000000E+03  0.7818608E-02  0.1093470E+00
         21   -1    0    0  501  502  0.00000000000E+00  0.00000000000E+00  0.14053229023E+01  0.14053229023E+01  0.00000000000E+00 0. -1.
         13   -1    0    0    0    0 -0.00000000000E+00 -0.00000000000E+00 -0.10000000000E+04  0.10000000000E+04  0.00000000000E+00 0.  1.
    9000005    2    1    2  501    0 -0.34764419520E+02  0.71976165385E+01 -0.65792955041E+03  0.65889532438E+03  0.33741125309E+01 0.  0.
         13    1    3    3    0    0 -0.91267967457E+01  0.21010507442E+01 -0.14767473686E+03  0.14797141865E+03  0.00000000000E+00 0.  1.
          3    1    3    3  501    0 -0.25637622774E+02  0.50965657944E+01 -0.51025481356E+03  0.51092390573E+03  0.00000000000E+00 0.  1.
         -3    1    1    2    0  502  0.34764419520E+02 -0.71976165385E+01 -0.34066512668E+03  0.34250999852E+03  0.00000000000E+00 0. -1.
<mgrwt>
<rscale>  1 0.30000000E+03</rscale>
<asrwt>0</asrwt>
<pdfrwt beam="1">  1       21 0.51102759E-02 0.30000000E+03</pdfrwt>
<pdfrwt beam="2">0</pdfrwt>
<totfact> 0.27752529E+04</totfact>
</mgrwt>
</event>
<event>
 6    1  0.6377696E-002  0.3000000E+03  0.7818608E-02  0.1093470E+00
         21   -1    0    0  501  502  0.00000000000E+00  0.00000000000E+00  0.98374668928E+01  0.98374668928E+01  0.00000000000E+00 0. -1.
         13   -1    0    0    0    0 -0.00000000000E+00 -0.00000000000E+00 -0.10000000000E+04  0.10000000000E+04  0.00000000000E+00 0.  1.
    9000005    2    1    2  501    0  0.96088787610E+02  0.13159505081E+02 -0.60020207777E+03  0.60799746838E+03  0.34870787334E+01 0.  0.
         13    1    3    3    0    0  0.15632940291E+02  0.26679638298E+01 -0.10574235153E+03  0.10692498193E+03  0.00000000000E+00 0.  1.
          3    1    3    3  501    0  0.80455847320E+02  0.10491541251E+02 -0.49445972624E+03  0.50107248645E+03  0.00000000000E+00 0.  1.
         -1    1    1    2    0  502 -0.96088787610E+02 -0.13159505081E+02 -0.38996045534E+03  0.40183999851E+03  0.00000000000E+00 0. -1.
<mgrwt>
<rscale>  1 0.30000000E+03</rscale>
<asrwt>0</asrwt>
<pdfrwt beam="1">  1       21 0.35772682E-01 0.30000000E+03</pdfrwt>
<pdfrwt beam="2">0</pdfrwt>
<totfact> 0.76098570E+02</totfact>
</mgrwt>
</event>
<event>
 6    1  0.6377696E-002  0.3000000E+03  0.7818608E-02  0.1093470E+00
         21   -1    0    0  501  502  0.00000000000E+00  0.00000000000E+00  0.14048787863E+01  0.14048787863E+01  0.00000000000E+00 0. -1.
         13   -1    0    0    0    0 -0.00000000000E+00 -0.00000000000E+00 -0.10000000000E+04  0.10000000000E+04  0.00000000000E+00 0.  1.
    9000005    2    1    2  501    0  0.27818633209E+02 -0.24980934618E+02 -0.47783205244E+03  0.47930134762E+03  0.28962134152E+01 0.  0.
         13    1    3    3    0    0  0.12265166615E+02 -0.12812348153E+02 -0.21909907755E+03  0.21981582373E+03  0.00000000000E+00 0.  1.
          1    1    3    3  501    0  0.15553466594E+02 -0.12168586465E+02 -0.25873297489E+03  0.25948552390E+03  0.00000000000E+00 0.  1.
         -3    1    1    2    0  502 -0.27818633209E+02  0.24980934618E+02 -0.52076306878E+03  0.52210353116E+03  0.00000000000E+00 0. -1.
<mgrwt>
<rscale>  1 0.30000000E+03</rscale>
<asrwt>0</asrwt>
<pdfrwt beam="1">  1       21 0.51086609E-02 0.30000000E+03</pdfrwt>
<pdfrwt beam="2">0</pdfrwt>
<totfact> 0.27767503E+04</totfact>
</mgrwt>
</event>
<event>
 6    1  0.6377696E-002  0.3000000E+03  0.7818608E-02  0.1093470E+00
         21   -1    0    0  501  502  0.00000000000E+00  0.00000000000E+00  0.97240373976E+00  0.97240373976E+00  0.00000000000E+00 0. -1.
         13   -1    0    0    0    0 -0.00000000000E+00 -0.00000000000E+00 -0.10000000000E+04  0.10000000000E+04  0.00000000000E+00 0.  1.
    9000005    2    1    2  501    0 -0.23100235915E+02  0.20790216302E+02 -0.50455655103E+03  0.50552566738E+03  0.36101530125E+01 0.  0.
         13    1    3    3    0    0 -0.15666622334E+02  0.14104126790E+02 -0.31376384496E+03  0.31447117492E+03  0.00000000000E+00 0.  1.
          3    1    3    3  501    0 -0.74336135816E+01  0.66860895127E+01 -0.19079270606E+03  0.19105449246E+03  0.00000000000E+00 0.  1.
         -3    1    1    2    0  502  0.23100235915E+02 -0.20790216302E+02 -0.49447104524E+03  0.49544673636E+03  0.00000000000E+00 0. -1.
<mgrwt>
<rscale>  1 0.30000000E+03</rscale>
<asrwt>0</asrwt>
<pdfrwt beam="1">  1       21 0.35360211E-02 0.30000000E+03</pdfrwt>
<pdfrwt beam="2">0</pdfrwt>
<totfact> 0.51722042E+04</totfact>
</mgrwt>
</event>
<event>
 6    1  0.6377696E-002  0.3000000E+03  0.7818608E-02  0.1093470E+00
         21   -1    0    0  501  502  0.00000000000E+00  0.00000000000E+00  0.10647980781E+01  0.10647980781E+01  0.00000000000E+00 0. -1.
         13   -1    0    0    0    0 -0.00000000000E+00 -0.00000000000E+00 -0.10000000000E+04  0.10000000000E+04  0.00000000000E+00 0.  1.
    9000005    2    1    2  501    0 -0.95488835068E+01 -0.30371691354E+02 -0.39942183351E+03  0.40070665521E+03  0.37949476278E+01 0.  0.
         13    1    3    3    0    0 -0.35882964390E+00 -0.21172698003E+01 -0.17590175561E+02  0.17720774994E+02  0.00000000000E+00 0.  1.
          1    1    3    3  501    0 -0.91900538629E+01 -0.28254421554E+02 -0.38183165795E+03  0.38298588021E+03  0.00000000000E+00 0.  1.
         -3    1    1    2    0  502  0.95488835068E+01  0.30371691354E+02 -0.59951336841E+03  0.60035814287E+03  0.00000000000E+00 0. -1.
<mgrwt>
<rscale>  1 0.30000000E+03</rscale>
<asrwt>0</asrwt>
<pdfrwt beam="1">  1       21 0.38720012E-02 0.30000000E+03</pdfrwt>
<pdfrwt beam="2">0</pdfrwt>
<totfact> 0.44412567E+04</totfact>
</mgrwt>
</event>
<event>
 6    1  0.6377696E-002  0.3000000E+03  0.7818608E-02  0.1093470E+00
         21   -1    0    0  501  502  0.00000000000E+00  0.00000000000E+00  0.11053055302E+01  0.11053055302E+01  0.00000000000E+00 0. -1.
         13   -1    0    0    0    0 -0.00000000000E+00 -0.00000000000E+00 -0.10000000000E+04  0.10000000000E+04  0.00000000000E+00 0.  1.
    9000005    2    1    2  501    0  0.14322060841E+01 -0.30880004618E+02 -0.68143514568E+03  0.68214419346E+03  0.33491781951E+01 0.  0.
         13    1    3    3    0    0 -0.72303465356E+00 -0.16344138251E+02 -0.37603856237E+03  0.37639428000E+03  0.00000000000E+00 0.  1.
          1    1    3    3  501    0  0.21552407376E+01 -0.14535866368E+02 -0.30539658332E+03  0.30574991345E+03  0.00000000000E+00 0.  1.
         -3    1    1    2    0  502 -0.14322060841E+01  0.30880004618E+02 -0.31745954879E+03  0.31896111207E+03  0.00000000000E+00 0. -1.
<mgrwt>
<rscale>  1 0.30000000E+03</rscale>
<asrwt>0</asrwt>
<pdfrwt beam="1">  1       21 0.40193013E-02 0.30000000E+03</pdfrwt>
<pdfrwt beam="2">0</pdfrwt>
<totfact> 0.41707805E+04</totfact>
</mgrwt>
</event>
<event>
 6    1  0.6377696E-002  0.3000000E+03  0.7818608E-02  0.1093470E+00
         21   -1    0    0  501  502  0.00000000000E+00  0.00000000000E+00  0.11415388838E+01  0.11415388838E+01  0.00000000000E+00 0. -1.
         13   -1    0    0    0    0 -0.00000000000E+00 -0.00000000000E+00 -0.10000000000E+04  0.10000000000E+04  0.00000000000E+00 0.  1.
    9000005    2    1    2  501    0  0.31743261810E+02  0.23574074044E+01 -0.66475993264E+03  0.66553012852E+03  0.33751854952E+01 0.  0.
         13    1    3    3    0    0  0.50116010208E-01 -0.17265857437E-01 -0.12540410956E+00  0.13614666727E+00  0.00000000000E+00 0.  1.
          3    1    3    3  501    0  0.31693145800E+02  0.23746732619E+01 -0.66463452853E+03  0.66539398185E+03  0.00000000000E+00 0.  1.
         -1    1    1    2    0  502 -0.31743261810E+02 -0.23574074044E+01 -0.33409852847E+03  0.33561141037E+03  0.00000000000E+00 0. -1.
<mgrwt>
<rscale>  1 0.30000000E+03</rscale>
<asrwt>0</asrwt>
<pdfrwt beam="1">  1       21 0.41510592E-02 0.30000000E+03</pdfrwt>
<pdfrwt beam="2">0</pdfrwt>
<totfact> 0.39500308E+04</totfact>
</mgrwt>
</event>
<event>
 6    1  0.6377696E-002  0.3000000E+03  0.7818608E-02  0.1093470E+00
         21   -1    0    0  501  502  0.00000000000E+00  0.00000000000E+00  0.23193099018E+01  0.23193099018E+01  0.00000000000E+00 0. -1.
         13   -1    0    0    0    0 -0.00000000000E+00 -0.00000000000E+00 -0.10000000000E+04  0.10000000000E+04  0.00000000000E+00 0.  1.
    9000005    2    1    2  501    0  0.17246196403E+02 -0.31233415257E+02 -0.83512098368E+03  0.83589029900E+03  0.35464151862E+01 0.  0.
         13    1    3    3    0    0  0.14140379218E+02 -0.23438639647E+02 -0.61299078254E+03  0.61360167832E+03  0.00000000000E+00 0.  1.
          3    1    3    3  501    0  0.31058171841E+01 -0.77947756100E+01 -0.22213020114E+03  0.22228862068E+03  0.00000000000E+00 0.  1.
         -1    1    1    2    0  502 -0.17246196403E+02  0.31233415257E+02 -0.16255970642E+03  0.16642901090E+03  0.00000000000E+00 0. -1.
<mgrwt>
<rscale>  1 0.30000000E+03</rscale>
<asrwt>0</asrwt>
<pdfrwt beam="1">  1       21 0.84338720E-02 0.30000000E+03</pdfrwt>
<pdfrwt beam="2">0</pdfrwt>
<totfact> 0.11640433E+04</totfact>
</mgrwt>
</event>
<event>
 6    1  0.6377696E-002  0.3000000E+03  0.7818608E-02  0.1093470E+00
         21   -1    0    0  501  502  0.00000000000E+00  0.00000000000E+00  0.11892391772E+01  0.11892391772E+01  0.00000000000E+00 0. -1.
         13   -1    0    0    0    0 -0.00000000000E+00 -0.00000000000E+00 -0.10000000000E+04  0.10000000000E+04  0.00000000000E+00 0.  1.
    9000005    2    1    2  501    0  0.11135543068E+02 -0.29520541256E+02 -0.30065996048E+03  0.30232587436E+03  0.30099487496E+01 0.  0.
         13    1    3    3    0    0  0.29797575607E+01 -0.98267943800E+01 -0.86328431308E+02  0.86937005326E+02  0.00000000000E+00 0.  1.
          3    1    3    3  501    0  0.81557855075E+01 -0.19693746876E+02 -0.21433152918E+03  0.21538886903E+03  0.00000000000E+00 0.  1.
         -3    1    1    2    0  502 -0.11135543068E+02  0.29520541256E+02 -0.69815080034E+03  0.69886336482E+03  0.00000000000E+00 0. -1.
<mgrwt>
<rscale>  1 0.30000000E+03</rscale>
<asrwt>0</asrwt>
<pdfrwt beam="1">  1       21 0.43245152E-02 0.30000000E+03</pdfrwt>
<pdfrwt beam="2">0</pdfrwt>
<totfact> 0.36860567E+04</totfact>
</mgrwt>
</event>
<event>
 6    1  0.6377696E-002  0.3000000E+03  0.7818608E-02  0.1093470E+00
         21   -1    0    0  501  502  0.00000000000E+00  0.00000000000E+00  0.14813620069E+01  0.14813620069E+01  0.00000000000E+00 0. -1.
         13   -1    0    0    0    0 -0.00000000000E+00 -0.00000000000E+00 -0.10000000000E+04  0.10000000000E+04  0.00000000000E+00 0.  1.
    9000005    2    1    2  501    0  0.34123563293E+02 -0.37963426154E+01 -0.72447522069E+03  0.72529551089E+03  0.32253583897E+01 0.  0.
         13    1    3    3    0    0  0.21934207049E+02 -0.29585760360E+01 -0.43535332803E+03  0.43591556848E+03  0.00000000000E+00 0.  1.
          1    1    3    3  501    0  0.12189356244E+02 -0.83776657938E+00 -0.28912189265E+03  0.28937994241E+03  0.00000000000E+00 0.  1.
         -3    1    1    2    0  502 -0.34123563293E+02  0.37963426154E+01 -0.27404341731E+03  0.27618585112E+03  0.00000000000E+00 0. -1.
<mgrwt>
<rscale>  1 0.30000000E+03</rscale>
<asrwt>0</asrwt>
<pdfrwt beam="1">  1       21 0.53867823E-02 0.30000000E+03</pdfrwt>
<pdfrwt beam="2">0</pdfrwt>
<totfact> 0.25362096E+04</totfact>
</mgrwt>
</event>
<event>
 6    1  0.6377696E-002  0.3000000E+03  0.7818608E-02  0.1093470E+00
         21   -1    0    0  501  502  0.00000000000E+00  0.00000000000E+00  0.96625582978E+00  0.96625582978E+00  0.00000000000E+00 0. -1.
         13   -1    0    0    0    0 -0.00000000000E+00 -0.00000000000E+00 -0.10000000000E+04  0.10000000000E+04  0.00000000000E+00 0.  1.
    9000005    2    1    2  501    0  0.22122444162E+02  0.20351744327E+02 -0.62344957130E+03  0.62418108237E+03  0.30099160103E+01 0.  0.
         13    1    3    3    0    0  0.52493673532E+01  0.41830478655E+01 -0.16457825061E+03  0.16471507011E+03  0.00000000000E+00 0.  1.
          3    1    3    3  501    0  0.16873076809E+02  0.16168696461E+02 -0.45887132070E+03  0.45946601226E+03  0.00000000000E+00 0.  1.
         -1    1    1    2    0  502 -0.22122444162E+02 -0.20351744327E+02 -0.37558417287E+03  0.37678517346E+03  0.00000000000E+00 0. -1.
<mgrwt>
<rscale>  1 0.30000000E+03</rscale>
<asrwt>0</asrwt>
<pdfrwt beam="1">  1       21 0.35136650E-02 0.30000000E+03</pdfrwt>
<pdfrwt beam="2">0</pdfrwt>
<totfact> 0.52274559E+04</totfact>
</mgrwt>
</event>
<event>
 6    1  0.6377696E-002  0.3000000E+03  0.7818608E-02  0.1093470E+00
         21   -1    0    0  501  502  0.00000000000E+00  0.00000000000E+00  0.19655149487E+01  0.19655149487E+01  0.00000000000E+00 0. -1.
         13   -1    0    0    0    0 -0.00000000000E+00 -0.00000000000E+00 -0.10000000000E+04  0.10000000000E+04  0.00000000000E+00 0.  1.
    9000005    2    1    2  501    0 -0.27416018864E+02  0.30738241840E+02 -0.68360248751E+03  0.68484730564E+03  0.26445228407E+01 0.  0.
         13    1    3    3    0    0 -0.50516271557E+01  0.43091406606E+01 -0.10417925781E+03  0.10439063841E+03  0.00000000000E+00 0.  1.
          1    1    3    3  501    0 -0.22364391709E+02  0.26429101179E+02 -0.57942322970E+03  0.58045666723E+03  0.00000000000E+00 0.  1.
         -3    1    1    2    0  502  0.27416018864E+02 -0.30738241840E+02 -0.31443199754E+03  0.31711820931E+03  0.00000000000E+00 0. -1.
<mgrwt>
<rscale>  1 0.30000000E+03</rscale>
<asrwt>0</asrwt>
<pdfrwt beam="1">  1       21 0.71473422E-02 0.30000000E+03</pdfrwt>
<pdfrwt beam="2">0</pdfrwt>
<totfact> 0.15560340E+04</totfact>
</mgrwt>
</event>
<event>
 6    1  0.6377696E-002  0.3000000E+03  0.7818608E-02  0.1093470E+00
         21   -1    0    0  501  502  0.00000000000E+00  0.00000000000E+00  0.12032492290E+01  0.12032492290E+01  0.00000000000E+00 0. -1.
         13   -1    0    0    0    0 -0.00000000000E+00 -0.00000000000E+00 -0.10000000000E+04  0.10000000000E+04  0.00000000000E+00 0.  1.
    9000005    2    1    2  501    0 -0.74477823794E+01  0.32054613403E+02 -0.64241712512E+03  0.64330744696E+03  0.78575418332E+01 0.  0.
         13    1    3    3    0    0 -0.23143084260E+00  0.14279849209E+01 -0.95846212451E+01  0.96931762380E+01  0.00000000000E+00 0.  1.
          1    1    3    3  501    0 -0.72163515368E+01  0.30626628482E+02 -0.63283250388E+03  0.63361427072E+03  0.00000000000E+00 0.  1.
         -3    1    1    2    0  502  0.74477823794E+01 -0.32054613403E+02 -0.35637962565E+03  0.35789580227E+03  0.00000000000E+00 0. -1.
<mgrwt>
<rscale>  1 0.30000000E+03</rscale>
<asrwt>0</asrwt>
<pdfrwt beam="1">  1       21 0.43754610E-02 0.30000000E+03</pdfrwt>
<pdfrwt beam="2">0</pdfrwt>
<totfact> 0.36137073E+04</totfact>
</mgrwt>
</event>
<event>
 6    1  0.6377696E-002  0.3000000E+03  0.7818608E-02  0.1093470E+00
         21   -1    0    0  501  502  0.00000000000E+00  0.00000000000E+00  0.22621464907E+01  0.22621464907E+01  0.00000000000E+00 0. -1.
         13   -1    0    0    0    0 -0.00000000000E+00 -0.00000000000E+00 -0.10000000000E+04  0.10000000000E+04  0.00000000000E+00 0.  1.
    9000005    2    1    2  501    0 -0.34961096057E+02 -0.55710519260E+01 -0.16747986456E+03  0.17124972596E+03  0.48629982809E+01 0.  0.
         13    1    3    3    0    0 -0.24786694488E+02 -0.21374772977E+01 -0.12314691518E+03  0.12563483495E+03  0.00000000000E+00 0.  1.
          3    1    3    3  501    0 -0.10174401569E+02 -0.34335746284E+01 -0.44332949374E+02  0.45614891014E+02  0.00000000000E+00 0.  1.
         -3    1    1    2    0  502  0.34961096057E+02  0.55710519260E+01 -0.83025798895E+03  0.83101242053E+03  0.00000000000E+00 0. -1.
<mgrwt>
<rscale>  1 0.30000000E+03</rscale>
<asrwt>0</asrwt>
<pdfrwt beam="1">  1       21 0.82260046E-02 0.30000000E+03</pdfrwt>
<pdfrwt beam="2">0</pdfrwt>
<totfact> 0.12163361E+04</totfact>
</mgrwt>
</event>
<event>
 6    1  0.6377696E-002  0.3000000E+03  0.7818608E-02  0.1093470E+00
         21   -1    0    0  501  502  0.00000000000E+00  0.00000000000E+00  0.17836641607E+01  0.17836641607E+01  0.00000000000E+00 0. -1.
         13   -1    0    0    0    0 -0.00000000000E+00 -0.00000000000E+00 -0.10000000000E+04  0.10000000000E+04  0.00000000000E+00 0.  1.
    9000005    2    1    2  501    0 -0.38274174958E+02 -0.15909290734E+02 -0.56940619066E+03  0.57097493792E+03  0.84232870860E+01 0.  0.
         13    1    3    3    0    0 -0.99630782067E+01 -0.72991358319E+01 -0.20328494437E+03  0.20365978720E+03  0.00000000000E+00 0.  1.
          3    1    3    3  501    0 -0.28311096751E+02 -0.86101549019E+01 -0.36612124629E+03  0.36731515072E+03  0.00000000000E+00 0.  1.
         -3    1    1    2    0  502  0.38274174958E+02  0.15909290734E+02 -0.42881014517E+03  0.43080872624E+03  0.00000000000E+00 0. -1.
<mgrwt>
<rscale>  1 0.30000000E+03</rscale>
<asrwt>0</asrwt>
<pdfrwt beam="1">  1       21 0.64860652E-02 0.30000000E+03</pdfrwt>
<pdfrwt beam="2">0</pdfrwt>
<totfact> 0.18418352E+04</totfact>
</mgrwt>
</event>
<event>
 6    1  0.6377696E-002  0.3000000E+03  0.7818608E-02  0.1093470E+00
         21   -1    0    0  501  502  0.00000000000E+00  0.00000000000E+00  0.34614055077E+01  0.34614055077E+01  0.00000000000E+00 0. -1.
         13   -1    0    0    0    0 -0.00000000000E+00 -0.00000000000E+00 -0.10000000000E+04  0.10000000000E+04  0.00000000000E+00 0.  1.
    9000005    2    1    2  501    0 -0.28086679280E+02 -0.41625573649E+02 -0.23750604952E+03  0.24276964516E+03  0.25351760749E+01 0.  0.
         13    1    3    3    0    0 -0.17665219046E+02 -0.27936415379E+02 -0.15952257633E+03  0.16291088247E+03  0.00000000000E+00 0.  1.
          3    1    3    3  501    0 -0.10421460233E+02 -0.13689158269E+02 -0.77983473192E+02  0.79858762691E+02  0.00000000000E+00 0.  1.
         -1    1    1    2    0  502  0.28086679280E+02  0.41625573649E+02 -0.75903254497E+03  0.76069176035E+03  0.00000000000E+00 0. -1.
<mgrwt>
<rscale>  1 0.30000000E+03</rscale>
<asrwt>0</asrwt>
<pdfrwt beam="1">  1       21 0.12586956E-01 0.30000000E+03</pdfrwt>
<pdfrwt beam="2">0</pdfrwt>
<totfact> 0.56814867E+03</totfact>
</mgrwt>
</event>
<event>
 6    1  0.6377696E-002  0.3000000E+03  0.7818608E-02  0.1093470E+00
         21   -1    0    0  501  502  0.00000000000E+00  0.00000000000E+00  0.32686489532E+01  0.32686489532E+01  0.00000000000E+00 0. -1.
         13   -1    0    0    0    0 -0.00000000000E+00 -0.00000000000E+00 -0.10000000000E+04  0.10000000000E+04  0.00000000000E+00 0.  1.
    9000005    2    1    2  501    0 -0.11476008087E+02  0.52215736281E+02 -0.67517268306E+03  0.67729601385E+03  0.36819225268E+01 0.  0.
         13    1    3    3    0    0 -0.39035308663E+00  0.51711990259E+00 -0.12785630091E+02  0.12802035985E+02  0.00000000000E+00 0.  1.
          3    1    3    3  501    0 -0.11085655001E+02  0.51698616378E+02 -0.66238705297E+03  0.66449397786E+03  0.00000000000E+00 0.  1.
         -1    1    1    2    0  502  0.11476008087E+02 -0.52215736281E+02 -0.32155866799E+03  0.32597263510E+03  0.00000000000E+00 0. -1.
<mgrwt>
<rscale>  1 0.30000000E+03</rscale>
<asrwt>0</asrwt>
<pdfrwt beam="1">  1       21 0.11886021E-01 0.30000000E+03</pdfrwt>
<pdfrwt beam="2">0</pdfrwt>
<totfact> 0.63053348E+03</totfact>
</mgrwt>
</event>
<event>
 6    1  0.6377696E-002  0.3000000E+03  0.7818608E-02  0.1093470E+00
         21   -1    0    0  501  502  0.00000000000E+00  0.00000000000E+00  0.22714025643E+01  0.22714025643E+01  0.00000000000E+00 0. -1.
         13   -1    0    0    0    0 -0.00000000000E+00 -0.00000000000E+00 -0.10000000000E+04  0.10000000000E+04  0.00000000000E+00 0.  1.
    9000005    2    1    2  501    0  0.44491855225E+02 -0.16450484419E+02 -0.46179359269E+03  0.46424122411E+03  0.40556493835E+01 0.  0.
         13    1    3    3    0    0  0.22331513217E+02 -0.95391052353E+01 -0.25199070922E+03  0.25315807028E+03  0.00000000000E+00 0.  1.
          1    1    3    3  501    0  0.22160342008E+02 -0.69113791832E+01 -0.20980288347E+03  0.21108315383E+03  0.00000000000E+00 0.  1.
         -1    1    1    2    0  502 -0.44491855225E+02  0.16450484419E+02 -0.53593500475E+03  0.53803017846E+03  0.00000000000E+00 0. -1.
<mgrwt>
<rscale>  1 0.30000000E+03</rscale>
<asrwt>0</asrwt>
<pdfrwt beam="1">  1       21 0.82596631E-02 0.30000000E+03</pdfrwt>
<pdfrwt beam="2">0</pdfrwt>
<totfact> 0.12076276E+04</totfact>
</mgrwt>
</event>
<event>
 6    1  0.6377696E-002  0.3000000E+03  0.7818608E-02  0.1093470E+00
         21   -1    0    0  501  502  0.00000000000E+00  0.00000000000E+00  0.13937644374E+01  0.13937644374E+01  0.00000000000E+00 0. -1.
         13   -1    0    0    0    0 -0.00000000000E+00 -0.00000000000E+00 -0.10000000000E+04  0.10000000000E+04  0.00000000000E+00 0.  1.
    9000005    2    1    2  501    0 -0.32360253838E+02  0.18420470418E+02 -0.48083087392E+03  0.48228122858E+03  0.32178204510E+01 0.  0.
         13    1    3    3    0    0 -0.47557170015E+00  0.88076831285E-01 -0.31950180590E+01  0.32314186308E+01  0.00000000000E+00 0.  1.
          1    1    3    3  501    0 -0.31884682137E+02  0.18332393586E+02 -0.47763585586E+03  0.47904980995E+03  0.00000000000E+00 0.  1.
         -1    1    1    2    0  502  0.32360253838E+02 -0.18420470418E+02 -0.51777536164E+03  0.51911253586E+03  0.00000000000E+00 0. -1.
<mgrwt>
<rscale>  1 0.30000000E+03</rscale>
<asrwt>0</asrwt>
<pdfrwt beam="1">  1       21 0.50682450E-02 0.30000000E+03</pdfrwt>
<pdfrwt beam="2">0</pdfrwt>
<totfact> 0.28146379E+04</totfact>
</mgrwt>
</event>
<event>
 6    1  0.6377696E-002  0.3000000E+03  0.7818608E-02  0.1093470E+00
         21   -1    0    0  501  502  0.00000000000E+00  0.00000000000E+00  0.26355809365E+01  0.26355809365E+01  0.00000000000E+00 0. -1.
         13   -1    0    0    0    0 -0.00000000000E+00 -0.00000000000E+00 -0.10000000000E+04  0.10000000000E+04  0.00000000000E+00 0.  1.
    9000005    2    1    2  501    0 -0.45806945390E+02 -0.14790811803E+01 -0.27439686186E+03  0.27821681206E+03  0.32392574608E+01 0.  0.
         13    1    3    3    0    0 -0.11903059963E+02 -0.12187090918E+01 -0.64811021143E+02  0.65906270945E+02  0.00000000000E+00 0.  1.
          3    1    3    3  501    0 -0.33903885426E+02 -0.26037208849E+00 -0.20958584071E+03  0.21231054112E+03  0.00000000000E+00 0.  1.
         -3    1    1    2    0  502  0.45806945390E+02  0.14790811803E+01 -0.72296755721E+03  0.72441876888E+03  0.00000000000E+00 0. -1.
<mgrwt>
<rscale>  1 0.30000000E+03</rscale>
<asrwt>0</asrwt>
<pdfrwt beam="1">  1       21 0.95839509E-02 0.30000000E+03</pdfrwt>
<pdfrwt beam="2">0</pdfrwt>
<totfact> 0.92810546E+03</totfact>
</mgrwt>
</event>
<event>
 6    1  0.6377696E-002  0.3000000E+03  0.7818608E-02  0.1093470E+00
         21   -1    0    0  501  502  0.00000000000E+00  0.00000000000E+00  0.12246494855E+01  0.12246494855E+01  0.00000000000E+00 0. -1.
         13   -1    0    0    0    0 -0.00000000000E+00 -0.00000000000E+00 -0.10000000000E+04  0.10000000000E+04  0.00000000000E+00 0.  1.
    9000005    2    1    2  501    0 -0.31808223169E+01  0.34067560044E+02 -0.60054677497E+03  0.60152887185E+03  0.31366329978E+01 0.  0.
         13    1    3    3    0    0 -0.34118854090E+01  0.33314528077E+02 -0.57896649362E+03  0.57993421995E+03  0.00000000000E+00 0.  1.
          1    1    3    3  501    0  0.23106309210E+00  0.75303196743E+00 -0.21580281356E+02  0.21594651900E+02  0.00000000000E+00 0.  1.
         -1    1    1    2    0  502  0.31808223169E+01 -0.34067560044E+02 -0.39822857554E+03  0.39969577763E+03  0.00000000000E+00 0. -1.
<mgrwt>
<rscale>  1 0.30000000E+03</rscale>
<asrwt>0</asrwt>
<pdfrwt beam="1">  1       21 0.44532802E-02 0.30000000E+03</pdfrwt>
<pdfrwt beam="2">0</pdfrwt>
<totfact> 0.35073609E+04</totfact>
</mgrwt>
</event>
<event>
 6    1  0.6377696E-002  0.3000000E+03  0.7818608E-02  0.1093470E+00
         21   -1    0    0  501  502  0.00000000000E+00  0.00000000000E+00  0.17065217223E+01  0.17065217223E+01  0.00000000000E+00 0. -1.
         13   -1    0    0    0    0 -0.00000000000E+00 -0.00000000000E+00 -0.10000000000E+04  0.10000000000E+04  0.00000000000E+00 0.  1.
    9000005    2    1    2  501    0  0.27473473026E+02 -0.30707758723E+02 -0.48333266599E+03  0.48509990508E+03  0.37005040692E+01 0.  0.
         13    1    3    3    0    0  0.66272794405E+01 -0.53177886862E+01 -0.10575507328E+03  0.10609587755E+03  0.00000000000E+00 0.  1.
          3    1    3    3  501    0  0.20846193585E+02 -0.25389970037E+02 -0.37757759271E+03  0.37900402753E+03  0.00000000000E+00 0.  1.
         -1    1    1    2    0  502 -0.27473473026E+02  0.30707758723E+02 -0.51496081229E+03  0.51660661664E+03  0.00000000000E+00 0. -1.
<mgrwt>
<rscale>  1 0.30000000E+03</rscale>
<asrwt>0</asrwt>
<pdfrwt beam="1">  1       21 0.62055466E-02 0.30000000E+03</pdfrwt>
<pdfrwt beam="2">0</pdfrwt>
<totfact> 0.19881611E+04</totfact>
</mgrwt>
</event>
<event>
 6    1  0.6377696E-002  0.3000000E+03  0.7818608E-02  0.1093470E+00
         21   -1    0    0  501  502  0.00000000000E+00  0.00000000000E+00  0.27525616999E+01  0.27525616999E+01  0.00000000000E+00 0. -1.
         13   -1    0    0    0    0 -0.00000000000E+00 -0.00000000000E+00 -0.10000000000E+04  0.10000000000E+04  0.00000000000E+00 0.  1.
    9000005    2    1    2  501    0  0.48467885403E+02  0.63700819548E+01 -0.31862602943E+03  0.32237271894E+03  0.34510035842E+01 0.  0.
         13    1    3    3    0    0  0.74269245220E+01  0.70425148207E+00 -0.41156614644E+02  0.41827289022E+02  0.00000000000E+00 0.  1.
          3    1    3    3  501    0  0.41040960881E+02  0.56658304727E+01 -0.27746941479E+03  0.28054542992E+03  0.00000000000E+00 0.  1.
         -3    1    1    2    0  502 -0.48467885403E+02 -0.63700819548E+01 -0.67862140887E+03  0.68037984276E+03  0.00000000000E+00 0. -1.
<mgrwt>
<rscale>  1 0.30000000E+03</rscale>
<asrwt>0</asrwt>
<pdfrwt beam="1">  1       21 0.10009336E-01 0.30000000E+03</pdfrwt>
<pdfrwt beam="2">0</pdfrwt>
<totfact> 0.85888636E+03</totfact>
</mgrwt>
</event>
<event>
 6    1  0.6377696E-002  0.3000000E+03  0.7818608E-02  0.1093470E+00
         21   -1    0    0  501  502  0.00000000000E+00  0.00000000000E+00  0.49773623075E+01  0.49773623075E+01  0.00000000000E+00 0. -1.
         13   -1    0    0    0    0 -0.00000000000E+00 -0.00000000000E+00 -0.10000000000E+04  0.10000000000E+04  0.00000000000E+00 0.  1.
    9000005    2    1    2  501    0 -0.20506395302E+02 -0.59393774447E+02 -0.26999437213E+03  0.27723144610E+03  0.34901337737E+01 0.  0.
         13    1    3    3    0    0 -0.46457659634E+01 -0.15093224574E+02 -0.61782806357E+02  0.63769144034E+02  0.00000000000E+00 0.  1.
          3    1    3    3  501    0 -0.15860629338E+02 -0.44300549873E+02 -0.20821156578E+03  0.21346230207E+03  0.00000000000E+00 0.  1.
         -1    1    1    2    0  502  0.20506395302E+02  0.59393774447E+02 -0.72502826556E+03  0.72774591620E+03  0.00000000000E+00 0. -1.
<mgrwt>
<rscale>  1 0.30000000E+03</rscale>
<asrwt>0</asrwt>
<pdfrwt beam="1">  1       21 0.18099537E-01 0.30000000E+03</pdfrwt>
<pdfrwt beam="2">0</pdfrwt>
<totfact> 0.28992735E+03</totfact>
</mgrwt>
</event>
<event>
 6    1  0.6377696E-002  0.3000000E+03  0.7818608E-02  0.1093470E+00
         21   -1    0    0  501  502  0.00000000000E+00  0.00000000000E+00  0.99393035619E+00  0.99393035619E+00  0.00000000000E+00 0. -1.
         13   -1    0    0    0    0 -0.00000000000E+00 -0.00000000000E+00 -0.10000000000E+04  0.10000000000E+04  0.00000000000E+00 0.  1.
    9000005    2    1    2  501    0 -0.31226402797E+02  0.29200421056E+01 -0.45537804073E+03  0.45646197657E+03  0.21820160683E+01 0.  0.
         13    1    3    3    0    0 -0.20679102082E+00  0.11465052748E+00 -0.17442390741E+01  0.17601923808E+01  0.00000000000E+00 0.  1.
          3    1    3    3  501    0 -0.31019611777E+02  0.28053915781E+01 -0.45363380166E+03  0.45470178419E+03  0.00000000000E+00 0.  1.
         -1    1    1    2    0  502  0.31226402797E+02 -0.29200421056E+01 -0.54362802891E+03  0.54453195379E+03  0.00000000000E+00 0. -1.
<mgrwt>
<rscale>  1 0.30000000E+03</rscale>
<asrwt>0</asrwt>
<pdfrwt beam="1">  1       21 0.36142998E-02 0.30000000E+03</pdfrwt>
<pdfrwt beam="2">0</pdfrwt>
<totfact> 0.49857735E+04</totfact>
</mgrwt>
</event>
<event>
 6    1  0.6377696E-002  0.3000000E+03  0.7818608E-02  0.1093470E+00
         21   -1    0    0  501  502  0.00000000000E+00  0.00000000000E+00  0.12075882437E+01  0.12075882437E+01  0.00000000000E+00 0. -1.
         13   -1    0    0    0    0 -0.00000000000E+00 -0.00000000000E+00 -0.10000000000E+04  0.10000000000E+04  0.00000000000E+00 0.  1.
    9000005    2    1    2  501    0 -0.11591193586E+02  0.30733293365E+02 -0.38189910024E+03  0.38344044045E+03  0.10037804775E+02 0.  0.
         13    1    3    3    0    0 -0.31658470218E+01  0.13480178661E+02 -0.11072902480E+03  0.11159146355E+03  0.00000000000E+00 0.  1.
          3    1    3    3  501    0 -0.84253465646E+01  0.17253114703E+02 -0.27117007543E+03  0.27184897690E+03  0.00000000000E+00 0.  1.
         -1    1    1    2    0  502  0.11591193586E+02 -0.30733293365E+02 -0.61689331152E+03  0.61776714779E+03  0.00000000000E+00 0. -1.
<mgrwt>
<rscale>  1 0.30000000E+03</rscale>
<asrwt>0</asrwt>
<pdfrwt beam="1">  1       21 0.43912392E-02 0.30000000E+03</pdfrwt>
<pdfrwt beam="2">0</pdfrwt>
<totfact> 0.35917455E+04</totfact>
</mgrwt>
</event>
<event>
 6    1  0.6377696E-002  0.3000000E+03  0.7818608E-02  0.1093470E+00
         21   -1    0    0  501  502  0.00000000000E+00  0.00000000000E+00  0.13250231123E+01  0.13250231123E+01  0.00000000000E+00 0. -1.
         13   -1    0    0    0    0 -0.00000000000E+00 -0.00000000000E+00 -0.10000000000E+04  0.10000000000E+04  0.00000000000E+00 0.  1.
    9000005    2    1    2  501    0  0.25166403021E+02 -0.24839309574E+02 -0.38697141581E+03  0.38860030044E+03  0.36024582309E+01 0.  0.
         13    1    3    3    0    0  0.10693014569E+02 -0.12728669592E+02 -0.19126173819E+03  0.19198284321E+03  0.00000000000E+00 0.  1.
          1    1    3    3  501    0  0.14473388452E+02 -0.12110639983E+02 -0.19570967762E+03  0.19661745723E+03  0.00000000000E+00 0.  1.
         -3    1    1    2    0  502 -0.25166403021E+02  0.24839309574E+02 -0.61170356108E+03  0.61272472267E+03  0.00000000000E+00 0. -1.
<mgrwt>
<rscale>  1 0.30000000E+03</rscale>
<asrwt>0</asrwt>
<pdfrwt beam="1">  1       21 0.48182760E-02 0.30000000E+03</pdfrwt>
<pdfrwt beam="2">0</pdfrwt>
<totfact> 0.30679493E+04</totfact>
</mgrwt>
</event>
<event>
 6    1  0.6377696E-002  0.3000000E+03  0.7818608E-02  0.1093470E+00
         21   -1    0    0  501  502  0.00000000000E+00  0.00000000000E+00  0.10365053797E+01  0.10365053797E+01  0.00000000000E+00 0. -1.
         13   -1    0    0    0    0 -0.00000000000E+00 -0.00000000000E+00 -0.10000000000E+04  0.10000000000E+04  0.00000000000E+00 0.  1.
    9000005    2    1    2  501    0 -0.17291547715E+02 -0.26257702619E+02 -0.39997882188E+03  0.40122728342E+03  0.34366320057E+01 0.  0.
         13    1    3    3    0    0 -0.13577462740E+02 -0.17778487080E+02 -0.28318681217E+03  0.28406899283E+03  0.00000000000E+00 0.  1.
          3    1    3    3  501    0 -0.37140849748E+01 -0.84792155388E+01 -0.11679200971E+03  0.11715829060E+03  0.00000000000E+00 0.  1.
         -1    1    1    2    0  502  0.17291547715E+02  0.26257702619E+02 -0.59898467274E+03  0.59980922196E+03  0.00000000000E+00 0. -1.
<mgrwt>
<rscale>  1 0.30000000E+03</rscale>
<asrwt>0</asrwt>
<pdfrwt beam="1">  1       21 0.37691184E-02 0.30000000E+03</pdfrwt>
<pdfrwt beam="2">0</pdfrwt>
<totfact> 0.46468711E+04</totfact>
</mgrwt>
</event>
<event>
 6    1  0.6377696E-002  0.3000000E+03  0.7818608E-02  0.1093470E+00
         21   -1    0    0  501  502  0.00000000000E+00  0.00000000000E+00  0.93870351270E+00  0.93870351270E+00  0.00000000000E+00 0. -1.
         13   -1    0    0    0    0 -0.00000000000E+00 -0.00000000000E+00 -0.10000000000E+04  0.10000000000E+04  0.00000000000E+00 0.  1.
    9000005    2    1    2  501    0 -0.28448663346E+02  0.10685918912E+02 -0.55256071506E+03  0.55340514664E+03  0.32244681123E+01 0.  0.
         13    1    3    3    0    0 -0.24004820108E+02  0.10048748768E+02 -0.45972005563E+03  0.46045601125E+03  0.00000000000E+00 0.  1.
          3    1    3    3  501    0 -0.44438432381E+01  0.63717014462E+00 -0.92840659421E+02  0.92949135392E+02  0.00000000000E+00 0.  1.
         -1    1    1    2    0  502  0.28448663346E+02 -0.10685918912E+02 -0.44650058143E+03  0.44753355687E+03  0.00000000000E+00 0. -1.
<mgrwt>
<rscale>  1 0.30000000E+03</rscale>
<asrwt>0</asrwt>
<pdfrwt beam="1">  1       21 0.34134745E-02 0.30000000E+03</pdfrwt>
<pdfrwt beam="2">0</pdfrwt>
<totfact> 0.54867118E+04</totfact>
</mgrwt>
</event>
<event>
 6    1  0.6377696E-002  0.3000000E+03  0.7818608E-02  0.1093470E+00
         21   -1    0    0  501  502  0.00000000000E+00  0.00000000000E+00  0.58163512866E+01  0.58163512866E+01  0.00000000000E+00 0. -1.
         13   -1    0    0    0    0 -0.00000000000E+00 -0.00000000000E+00 -0.10000000000E+04  0.10000000000E+04  0.00000000000E+00 0.  1.
    9000005    2    1    2  501    0  0.71570667525E+02  0.18453774997E+02 -0.62037455742E+03  0.62477023991E+03  0.32185278698E+01 0.  0.
         13    1    3    3    0    0  0.68078616979E+02  0.17638285302E+02 -0.58393099348E+03  0.58815067146E+03  0.00000000000E+00 0.  1.
          1    1    3    3  501    0  0.34920505462E+01  0.81548969598E+00 -0.36443563941E+02  0.36619568446E+02  0.00000000000E+00 0.  1.
         -1    1    1    2    0  502 -0.71570667525E+02 -0.18453774997E+02 -0.37380909129E+03  0.38104611138E+03  0.00000000000E+00 0. -1.
<mgrwt>
<rscale>  1 0.30000000E+03</rscale>
<asrwt>0</asrwt>
<pdfrwt beam="1">  1       21 0.21150413E-01 0.30000000E+03</pdfrwt>
<pdfrwt beam="2">0</pdfrwt>
<totfact> 0.21557188E+03</totfact>
</mgrwt>
</event>
<event>
 6    1  0.6377696E-002  0.3000000E+03  0.7818608E-02  0.1093470E+00
         21   -1    0    0  501  502  0.00000000000E+00  0.00000000000E+00  0.14811593369E+02  0.14811593369E+02  0.00000000000E+00 0. -1.
         13   -1    0    0    0    0 -0.00000000000E+00 -0.00000000000E+00 -0.10000000000E+04  0.10000000000E+04  0.00000000000E+00 0.  1.
    9000005    2    1    2  501    0  0.94322010890E+02 -0.76858998162E+02 -0.49227088049E+03  0.50709943582E+03  0.39077746187E+01 0.  0.
         13    1    3    3    0    0  0.32275019723E+02 -0.26412639118E+02 -0.16109555711E+03  0.16640637886E+03  0.00000000000E+00 0.  1.
          1    1    3    3  501    0  0.62046991167E+02 -0.50446359045E+02 -0.33117532337E+03  0.34069305697E+03  0.00000000000E+00 0.  1.
         -3    1    1    2    0  502 -0.94322010890E+02  0.76858998162E+02 -0.49291752615E+03  0.50771215754E+03  0.00000000000E+00 0. -1.
<mgrwt>
<rscale>  1 0.30000000E+03</rscale>
<asrwt>0</asrwt>
<pdfrwt beam="1">  1       21 0.53860453E-01 0.30000000E+03</pdfrwt>
<pdfrwt beam="2">0</pdfrwt>
<totfact> 0.31933323E+02</totfact>
</mgrwt>
</event>
<event>
 6    1  0.6377696E-002  0.3000000E+03  0.7818608E-02  0.1093470E+00
         21   -1    0    0  501  502  0.00000000000E+00  0.00000000000E+00  0.16836986721E+01  0.16836986721E+01  0.00000000000E+00 0. -1.
         13   -1    0    0    0    0 -0.00000000000E+00 -0.00000000000E+00 -0.10000000000E+04  0.10000000000E+04  0.00000000000E+00 0.  1.
    9000005    2    1    2  501    0  0.31209782913E+02 -0.20470084034E+02 -0.31277107346E+03  0.31512318835E+03  0.91544824446E+01 0.  0.
         13    1    3    3    0    0  0.21257962409E+02 -0.12780063800E+02 -0.23945438159E+03  0.24073560572E+03  0.00000000000E+00 0.  1.
          3    1    3    3  501    0  0.99518205042E+01 -0.76900202342E+01 -0.73316691875E+02  0.74387582633E+02  0.00000000000E+00 0.  1.
         -1    1    1    2    0  502 -0.31209782913E+02  0.20470084034E+02 -0.68554522786E+03  0.68656051032E+03  0.00000000000E+00 0. -1.
<mgrwt>
<rscale>  1 0.30000000E+03</rscale>
<asrwt>0</asrwt>
<pdfrwt beam="1">  1       21 0.61225535E-02 0.30000000E+03</pdfrwt>
<pdfrwt beam="2">0</pdfrwt>
<totfact> 0.20349227E+04</totfact>
</mgrwt>
</event>
<event>
 6    1  0.6377696E-002  0.3000000E+03  0.7818608E-02  0.1093470E+00
         21   -1    0    0  501  502  0.00000000000E+00  0.00000000000E+00  0.99412305239E+00  0.99412305239E+00  0.00000000000E+00 0. -1.
         13   -1    0    0    0    0 -0.00000000000E+00 -0.00000000000E+00 -0.10000000000E+04  0.10000000000E+04  0.00000000000E+00 0.  1.
    9000005    2    1    2  501    0  0.29721160443E+02 -0.10242276524E+02 -0.51738708496E+03  0.51835045283E+03  0.30894438150E+01 0.  0.
         13    1    3    3    0    0  0.10866173831E+01 -0.10578028041E+01 -0.24817533016E+02  0.24863821692E+02  0.00000000000E+00 0.  1.
          1    1    3    3  501    0  0.28634543060E+02 -0.91844737197E+01 -0.49256955194E+03  0.49348663114E+03  0.00000000000E+00 0.  1.
         -1    1    1    2    0  502 -0.29721160443E+02  0.10242276524E+02 -0.48161879199E+03  0.48264367022E+03  0.00000000000E+00 0. -1.
<mgrwt>
<rscale>  1 0.30000000E+03</rscale>
<asrwt>0</asrwt>
<pdfrwt beam="1">  1       21 0.36150005E-02 0.30000000E+03</pdfrwt>
<pdfrwt beam="2">0</pdfrwt>
<totfact> 0.49841528E+04</totfact>
</mgrwt>
</event>
<event>
 6    1  0.6377696E-002  0.3000000E+03  0.7818608E-02  0.1093470E+00
         21   -1    0    0  501  502  0.00000000000E+00  0.00000000000E+00  0.25290210274E+01  0.25290210274E+01  0.00000000000E+00 0. -1.
         13   -1    0    0    0    0 -0.00000000000E+00 -0.00000000000E+00 -0.10000000000E+04  0.10000000000E+04  0.00000000000E+00 0.  1.
    9000005    2    1    2  501    0  0.29581703929E+02  0.19572145482E+02 -0.14465418422E+03  0.14897490353E+03  0.32469652020E+01 0.  0.
         13    1    3    3    0    0  0.16491441973E+02  0.11759589036E+02 -0.88503290237E+02  0.90791453207E+02  0.00000000000E+00 0.  1.
          3    1    3    3  501    0  0.13090261956E+02  0.78125564460E+01 -0.56150893981E+02  0.58183450320E+02  0.00000000000E+00 0.  1.
         -3    1    1    2    0  502 -0.29581703929E+02 -0.19572145482E+02 -0.85281679475E+03  0.85355411750E+03  0.00000000000E+00 0. -1.
<mgrwt>
<rscale>  1 0.30000000E+03</rscale>
<asrwt>0</asrwt>
<pdfrwt beam="1">  1       21 0.91964595E-02 0.30000000E+03</pdfrwt>
<pdfrwt beam="2">0</pdfrwt>
<totfact> 0.99881646E+03</totfact>
</mgrwt>
</event>
<event>
 6    1  0.6377696E-002  0.3000000E+03  0.7818608E-02  0.1093470E+00
         21   -1    0    0  501  502  0.00000000000E+00  0.00000000000E+00  0.11311062506E+01  0.11311062506E+01  0.00000000000E+00 0. -1.
         13   -1    0    0    0    0 -0.00000000000E+00 -0.00000000000E+00 -0.10000000000E+04  0.10000000000E+04  0.00000000000E+00 0.  1.
    9000005    2    1    2  501    0  0.21749642937E+02  0.22202495854E+02 -0.68875521612E+03  0.68946383039E+03  0.32600448372E+01 0.  0.
         13    1    3    3    0    0  0.69403562413E+01  0.50546735639E+01 -0.19612303774E+03  0.19631088661E+03  0.00000000000E+00 0.  1.
          1    1    3    3  501    0  0.14809286696E+02  0.17147822291E+02 -0.49263217838E+03  0.49315294378E+03  0.00000000000E+00 0.  1.
         -3    1    1    2    0  502 -0.21749642937E+02 -0.22202495854E+02 -0.31011367763E+03  0.31166727586E+03  0.00000000000E+00 0. -1.
<mgrwt>
<rscale>  1 0.30000000E+03</rscale>
<asrwt>0</asrwt>
<pdfrwt beam="1">  1       21 0.41131223E-02 0.30000000E+03</pdfrwt>
<pdfrwt beam="2">0</pdfrwt>
<totfact> 0.40116870E+04</totfact>
</mgrwt>
</event>
<event>
 6    1  0.6377696E-002  0.3000000E+03  0.7818608E-02  0.1093470E+00
         21   -1    0    0  501  502  0.00000000000E+00  0.00000000000E+00  0.38873006756E+01  0.38873006756E+01  0.00000000000E+00 0. -1.
         13   -1    0    0    0    0 -0.00000000000E+00 -0.00000000000E+00 -0.10000000000E+04  0.10000000000E+04  0.00000000000E+00 0.  1.
    9000005    2    1    2  501    0  0.30375581601E+02  0.50945463059E+02 -0.34546835931E+03  0.35054499119E+03  0.39099110126E+01 0.  0.
         13    1    3    3    0    0  0.25341083936E+02  0.40276211789E+02 -0.28290613420E+03  0.28688015711E+03  0.00000000000E+00 0.  1.
          1    1    3    3  501    0  0.50344976644E+01  0.10669251270E+02 -0.62562225103E+02  0.63664834086E+02  0.00000000000E+00 0.  1.
         -1    1    1    2    0  502 -0.30375581601E+02 -0.50945463059E+02 -0.65064434002E+03  0.65334230948E+03  0.00000000000E+00 0. -1.
<mgrwt>
<rscale>  1 0.30000000E+03</rscale>
<asrwt>0</asrwt>
<pdfrwt beam="1">  1       21 0.14135669E-01 0.30000000E+03</pdfrwt>
<pdfrwt beam="2">0</pdfrwt>
<totfact> 0.45945022E+03</totfact>
</mgrwt>
</event>
<event>
 6    1  0.6377696E-002  0.3000000E+03  0.7818608E-02  0.1093470E+00
         21   -1    0    0  501  502  0.00000000000E+00  0.00000000000E+00  0.29543265642E+01  0.29543265642E+01  0.00000000000E+00 0. -1.
         13   -1    0    0    0    0 -0.00000000000E+00 -0.00000000000E+00 -0.10000000000E+04  0.10000000000E+04  0.00000000000E+00 0.  1.
    9000005    2    1    2  501    0  0.53480695171E+02 -0.82349075324E+01 -0.54221277379E+03  0.54491397347E+03  0.29236909925E+01 0.  0.
         13    1    3    3    0    0  0.61505772507E+01 -0.81780424698E+00 -0.53470597576E+02  0.53829389830E+02  0.00000000000E+00 0.  1.
          1    1    3    3  501    0  0.47330117920E+02 -0.74171032854E+01 -0.48874217621E+03  0.49108458364E+03  0.00000000000E+00 0.  1.
         -1    1    1    2    0  502 -0.53480695171E+02  0.82349075324E+01 -0.45483289965E+03  0.45804035309E+03  0.00000000000E+00 0. -1.
<mgrwt>
<rscale>  1 0.30000000E+03</rscale>
<asrwt>0</asrwt>
<pdfrwt beam="1">  1       21 0.10743028E-01 0.30000000E+03</pdfrwt>
<pdfrwt beam="2">0</pdfrwt>
<totfact> 0.75667752E+03</totfact>
</mgrwt>
</event>
<event>
 6    1  0.6377696E-002  0.3000000E+03  0.7818608E-02  0.1093470E+00
         21   -1    0    0  501  502  0.00000000000E+00  0.00000000000E+00  0.38815801093E+01  0.38815801093E+01  0.00000000000E+00 0. -1.
         13   -1    0    0    0    0 -0.00000000000E+00 -0.00000000000E+00 -0.10000000000E+04  0.10000000000E+04  0.00000000000E+00 0.  1.
    9000005    2    1    2  501    0  0.68867204079E+01  0.61824464253E+02 -0.51803869018E+03  0.52177171788E+03  0.34568422344E+01 0.  0.
         13    1    3    3    0    0  0.47909221206E+01  0.41554250761E+02 -0.36158818348E+03  0.36399961967E+03  0.00000000000E+00 0.  1.
          3    1    3    3  501    0  0.20957982873E+01  0.20270213492E+02 -0.15645050670E+03  0.15777209821E+03  0.00000000000E+00 0.  1.
         -1    1    1    2    0  502 -0.68867204079E+01 -0.61824464253E+02 -0.47807972971E+03  0.48210986223E+03  0.00000000000E+00 0. -1.
<mgrwt>
<rscale>  1 0.30000000E+03</rscale>
<asrwt>0</asrwt>
<pdfrwt beam="1">  1       21 0.14114867E-01 0.30000000E+03</pdfrwt>
<pdfrwt beam="2">0</pdfrwt>
<totfact> 0.46069616E+03</totfact>
</mgrwt>
</event>
<event>
 6    1  0.6377696E-002  0.3000000E+03  0.7818608E-02  0.1093470E+00
         21   -1    0    0  501  502  0.00000000000E+00  0.00000000000E+00  0.18775919239E+01  0.18775919239E+01  0.00000000000E+00 0. -1.
         13   -1    0    0    0    0 -0.00000000000E+00 -0.00000000000E+00 -0.10000000000E+04  0.10000000000E+04  0.00000000000E+00 0.  1.
    9000005    2    1    2  501    0  0.38414575394E+02  0.16927437802E+02 -0.37754167294E+03  0.37987866381E+03  0.28047563361E+01 0.  0.
         13    1    3    3    0    0  0.15881691427E+02  0.74944730839E+01 -0.14622272637E+03  0.14727349033E+03  0.00000000000E+00 0.  1.
          1    1    3    3  501    0  0.22532883967E+02  0.94329647184E+01 -0.23131894657E+03  0.23260517347E+03  0.00000000000E+00 0.  1.
         -1    1    1    2    0  502 -0.38414575394E+02 -0.16927437802E+02 -0.62058073514E+03  0.62199892812E+03  0.00000000000E+00 0. -1.
<mgrwt>
<rscale>  1 0.30000000E+03</rscale>
<asrwt>0</asrwt>
<pdfrwt beam="1">  1       21 0.68276214E-02 0.30000000E+03</pdfrwt>
<pdfrwt beam="2">0</pdfrwt>
<totfact> 0.16850147E+04</totfact>
</mgrwt>
</event>
<event>
 6    1  0.6377696E-002  0.3000000E+03  0.7818608E-02  0.1093470E+00
         21   -1    0    0  501  502  0.00000000000E+00  0.00000000000E+00  0.17616141443E+01  0.17616141443E+01  0.00000000000E+00 0. -1.
         13   -1    0    0    0    0 -0.00000000000E+00 -0.00000000000E+00 -0.10000000000E+04  0.10000000000E+04  0.00000000000E+00 0.  1.
    9000005    2    1    2  501    0  0.84695090517E+00 -0.31207363919E+02 -0.16628328282E+03  0.16922097828E+03  0.33154875974E+01 0.  0.
         13    1    3    3    0    0  0.11118104920E+01 -0.29556240071E+02 -0.16042291159E+03  0.16312669313E+03  0.00000000000E+00 0.  1.
          3    1    3    3  501    0 -0.26485958678E+00 -0.16511238479E+01 -0.58603712271E+01  0.60942851494E+01  0.00000000000E+00 0.  1.
         -3    1    1    2    0  502 -0.84695090517E+00  0.31207363919E+02 -0.83195510304E+03  0.83254063586E+03  0.00000000000E+00 0. -1.
<mgrwt>
<rscale>  1 0.30000000E+03</rscale>
<asrwt>0</asrwt>
<pdfrwt beam="1">  1       21 0.64058831E-02 0.30000000E+03</pdfrwt>
<pdfrwt beam="2">0</pdfrwt>
<totfact> 0.18819140E+04</totfact>
</mgrwt>
</event>
<event>
 6    1  0.6377696E-002  0.3000000E+03  0.7818608E-02  0.1093470E+00
         21   -1    0    0  501  502  0.00000000000E+00  0.00000000000E+00  0.10199796425E+01  0.10199796425E+01  0.00000000000E+00 0. -1.
         13   -1    0    0    0    0 -0.00000000000E+00 -0.00000000000E+00 -0.10000000000E+04  0.10000000000E+04  0.00000000000E+00 0.  1.
    9000005    2    1    2  501    0 -0.36986862887E+01 -0.30676030972E+02 -0.62151429027E+03  0.62229174390E+03  0.35074723737E+01 0.  0.
         13    1    3    3    0    0 -0.15819137522E+01 -0.35549423800E+01 -0.80171346438E+02  0.80265714076E+02  0.00000000000E+00 0.  1.
          1    1    3    3  501    0 -0.21167725365E+01 -0.27121088592E+02 -0.54134294383E+03  0.54202602983E+03  0.00000000000E+00 0.  1.
         -3    1    1    2    0  502  0.36986862887E+01  0.30676030972E+02 -0.37746573009E+03  0.37872823574E+03  0.00000000000E+00 0. -1.
<mgrwt>
<rscale>  1 0.30000000E+03</rscale>
<asrwt>0</asrwt>
<pdfrwt beam="1">  1       21 0.37090247E-02 0.30000000E+03</pdfrwt>
<pdfrwt beam="2">0</pdfrwt>
<totfact> 0.47739824E+04</totfact>
</mgrwt>
</event>
<event>
 6    1  0.6377696E-002  0.3000000E+03  0.7818608E-02  0.1093470E+00
         21   -1    0    0  501  502  0.00000000000E+00  0.00000000000E+00  0.14212900831E+01  0.14212900831E+01  0.00000000000E+00 0. -1.
         13   -1    0    0    0    0 -0.00000000000E+00 -0.00000000000E+00 -0.10000000000E+04  0.10000000000E+04  0.00000000000E+00 0.  1.
    9000005    2    1    2  501    0  0.50766046373E+01  0.33410390889E+02 -0.27996680157E+03  0.28201521495E+03  0.30241267619E+01 0.  0.
         13    1    3    3    0    0  0.56449305927E+00  0.12576833473E+02 -0.10900172317E+03  0.10972634618E+03  0.00000000000E+00 0.  1.
          1    1    3    3  501    0  0.45121115780E+01  0.20833557416E+02 -0.17096507841E+03  0.17228886876E+03  0.00000000000E+00 0.  1.
         -1    1    1    2    0  502 -0.50766046373E+01 -0.33410390889E+02 -0.71861190834E+03  0.71940607514E+03  0.00000000000E+00 0. -1.
<mgrwt>
<rscale>  1 0.30000000E+03</rscale>
<asrwt>0</asrwt>
<pdfrwt beam="1">  1       21 0.51683385E-02 0.30000000E+03</pdfrwt>
<pdfrwt beam="2">0</pdfrwt>
<totfact> 0.27222379E+04</totfact>
</mgrwt>
</event>
<event>
 6    1  0.6377696E-002  0.3000000E+03  0.7818608E-02  0.1093470E+00
         21   -1    0    0  501  502  0.00000000000E+00  0.00000000000E+00  0.60448139185E+01  0.60448139185E+01  0.00000000000E+00 0. -1.
         13   -1    0    0    0    0 -0.00000000000E+00 -0.00000000000E+00 -0.10000000000E+04  0.10000000000E+04  0.00000000000E+00 0.  1.
    9000005    2    1    2  501    0  0.21999618456E+02  0.39713102513E+02 -0.90526855255E+03  0.90641332948E+03  0.35857924930E+01 0.  0.
         13    1    3    3    0    0  0.99457759572E+01  0.15000070954E+02 -0.37848273427E+03  0.37891041254E+03  0.00000000000E+00 0.  1.
          3    1    3    3  501    0  0.12053842498E+02  0.24713031559E+02 -0.52678581828E+03  0.52750291694E+03  0.00000000000E+00 0.  1.
         -3    1    1    2    0  502 -0.21999618456E+02 -0.39713102513E+02 -0.88686633533E+02  0.99631484436E+02  0.00000000000E+00 0. -1.
<mgrwt>
<rscale>  1 0.30000000E+03</rscale>
<asrwt>0</asrwt>
<pdfrwt beam="1">  1       21 0.21981188E-01 0.30000000E+03</pdfrwt>
<pdfrwt beam="2">0</pdfrwt>
<totfact> 0.20018877E+03</totfact>
</mgrwt>
</event>
<event>
 6    1  0.6377696E-002  0.3000000E+03  0.7818608E-02  0.1093470E+00
         21   -1    0    0  501  502  0.00000000000E+00  0.00000000000E+00  0.20943701998E+01  0.20943701998E+01  0.00000000000E+00 0. -1.
         13   -1    0    0    0    0 -0.00000000000E+00 -0.00000000000E+00 -0.10000000000E+04  0.10000000000E+04  0.00000000000E+00 0.  1.
    9000005    2    1    2  501    0  0.38371117166E+01  0.35333588014E+02 -0.81425291053E+03  0.81503420030E+03  0.31240167886E+01 0.  0.
         13    1    3    3    0    0  0.46135863575E+00  0.42850234916E+01 -0.12451713155E+03  0.12459169445E+03  0.00000000000E+00 0.  1.
          3    1    3    3  501    0  0.33757530809E+01  0.31048564522E+02 -0.68973577899E+03  0.69044250585E+03  0.00000000000E+00 0.  1.
         -1    1    1    2    0  502 -0.38371117166E+01 -0.35333588014E+02 -0.18365271927E+03  0.18706016990E+03  0.00000000000E+00 0. -1.
<mgrwt>
<rscale>  1 0.30000000E+03</rscale>
<asrwt>0</asrwt>
<pdfrwt beam="1">  1       21 0.76159077E-02 0.30000000E+03</pdfrwt>
<pdfrwt beam="2">0</pdfrwt>
<totfact> 0.13925352E+04</totfact>
</mgrwt>
</event>
<event>
 6    1  0.6377696E-002  0.3000000E+03  0.7818608E-02  0.1093470E+00
         21   -1    0    0  501  502  0.00000000000E+00  0.00000000000E+00  0.40432704724E+01  0.40432704724E+01  0.00000000000E+00 0. -1.
         13   -1    0    0    0    0 -0.00000000000E+00 -0.00000000000E+00 -0.10000000000E+04  0.10000000000E+04  0.00000000000E+00 0.  1.
    9000005    2    1    2  501    0  0.56577294317E+02 -0.20302860192E+02 -0.66083053323E+03  0.66356894867E+03  0.36823391293E+01 0.  0.
         13    1    3    3    0    0  0.25434887748E+02 -0.99684195942E+01 -0.31854135917E+03  0.31971065107E+03  0.00000000000E+00 0.  1.
          3    1    3    3  501    0  0.31142406568E+02 -0.10334440598E+02 -0.34228917406E+03  0.34385829760E+03  0.00000000000E+00 0.  1.
         -3    1    1    2    0  502 -0.56577294317E+02  0.20302860192E+02 -0.33512619629E+03  0.34047432180E+03  0.00000000000E+00 0. -1.
<mgrwt>
<rscale>  1 0.30000000E+03</rscale>
<asrwt>0</asrwt>
<pdfrwt beam="1">  1       21 0.14702833E-01 0.30000000E+03</pdfrwt>
<pdfrwt beam="2">0</pdfrwt>
<totfact> 0.42732273E+03</totfact>
</mgrwt>
</event>
<event>
 6    1  0.6377696E-002  0.3000000E+03  0.7818608E-02  0.1093470E+00
         21   -1    0    0  501  502  0.00000000000E+00  0.00000000000E+00  0.13167256637E+01  0.13167256637E+01  0.00000000000E+00 0. -1.
         13   -1    0    0    0    0 -0.00000000000E+00 -0.00000000000E+00 -0.10000000000E+04  0.10000000000E+04  0.00000000000E+00 0.  1.
    9000005    2    1    2  501    0 -0.32344189893E+02 -0.77163521687E+01 -0.30963757989E+03  0.31146916443E+03  0.56498493333E+01 0.  0.
         13    1    3    3    0    0 -0.11043429215E+02 -0.13082862408E+01 -0.82770533182E+02  0.83514250909E+02  0.00000000000E+00 0.  1.
          1    1    3    3  501    0 -0.21300760678E+02 -0.64080659279E+01 -0.22686704671E+03  0.22795491352E+03  0.00000000000E+00 0.  1.
         -1    1    1    2    0  502  0.32344189893E+02  0.77163521687E+01 -0.68904569444E+03  0.68984756123E+03  0.00000000000E+00 0. -1.
<mgrwt>
<rscale>  1 0.30000000E+03</rscale>
<asrwt>0</asrwt>
<pdfrwt beam="1">  1       21 0.47881034E-02 0.30000000E+03</pdfrwt>
<pdfrwt beam="2">0</pdfrwt>
<totfact> 0.31009198E+04</totfact>
</mgrwt>
</event>
<event>
 6    1  0.6377696E-002  0.3000000E+03  0.7818608E-02  0.1093470E+00
         21   -1    0    0  501  502  0.00000000000E+00  0.00000000000E+00  0.11092811942E+01  0.11092811942E+01  0.00000000000E+00 0. -1.
         13   -1    0    0    0    0 -0.00000000000E+00 -0.00000000000E+00 -0.10000000000E+04  0.10000000000E+04  0.00000000000E+00 0.  1.
    9000005    2    1    2  501    0  0.20660129486E+01  0.32923456930E+02 -0.56185699581E+03  0.56283231686E+03  0.29513965624E+01 0.  0.
         13    1    3    3    0    0  0.28134975885E+01  0.27378429951E+02 -0.46933175265E+03  0.47013805232E+03  0.00000000000E+00 0.  1.
          1    1    3    3  501    0 -0.74748463992E+00  0.55450269797E+01 -0.92525243160E+02  0.92694264543E+02  0.00000000000E+00 0.  1.
         -1    1    1    2    0  502 -0.20660129486E+01 -0.32923456930E+02 -0.43703372300E+03  0.43827696433E+03  0.00000000000E+00 0. -1.
<mgrwt>
<rscale>  1 0.30000000E+03</rscale>
<asrwt>0</asrwt>
<pdfrwt beam="1">  1       21 0.40337583E-02 0.30000000E+03</pdfrwt>
<pdfrwt beam="2">0</pdfrwt>
<totfact> 0.41456298E+04</totfact>
</mgrwt>
</event>
<event>
 6    1  0.6377696E-002  0.3000000E+03  0.7818608E-02  0.1093470E+00
         21   -1    0    0  501  502  0.00000000000E+00  0.00000000000E+00  0.25108365213E+01  0.25108365213E+01  0.00000000000E+00 0. -1.
         13   -1    0    0    0    0 -0.00000000000E+00 -0.00000000000E+00 -0.10000000000E+04  0.10000000000E+04  0.00000000000E+00 0.  1.
    9000005    2    1    2  501    0  0.45765608652E+02  0.20009526300E+02 -0.46304623113E+03  0.46573889238E+03  0.24559387331E+01 0.  0.
         13    1    3    3    0    0  0.37592747606E+02  0.15953117375E+02 -0.38602742295E+03  0.38818151411E+03  0.00000000000E+00 0.  1.
          3    1    3    3  501    0  0.81728610465E+01  0.40564089241E+01 -0.77018808186E+02  0.77557378278E+02  0.00000000000E+00 0.  1.
         -1    1    1    2    0  502 -0.45765608652E+02 -0.20009526300E+02 -0.53444293235E+03  0.53677194414E+03  0.00000000000E+00 0. -1.
<mgrwt>
<rscale>  1 0.30000000E+03</rscale>
<asrwt>0</asrwt>
<pdfrwt beam="1">  1       21 0.91303339E-02 0.30000000E+03</pdfrwt>
<pdfrwt beam="2">0</pdfrwt>
<totfact> 0.10116901E+04</totfact>
</mgrwt>
</event>
<event>
 6    1  0.6377696E-002  0.3000000E+03  0.7818608E-02  0.1093470E+00
         21   -1    0    0  501  502  0.00000000000E+00  0.00000000000E+00  0.10972366470E+01  0.10972366470E+01  0.00000000000E+00 0. -1.
         13   -1    0    0    0    0 -0.00000000000E+00 -0.00000000000E+00 -0.10000000000E+04  0.10000000000E+04  0.00000000000E+00 0.  1.
    9000005    2    1    2  501    0 -0.99566340711E+01 -0.31288138814E+02 -0.55551755536E+03  0.55649795093E+03  0.34832289983E+01 0.  0.
         13    1    3    3    0    0 -0.77244248002E+01 -0.19597500933E+02 -0.33976688416E+03  0.34041924792E+03  0.00000000000E+00 0.  1.
          3    1    3    3  501    0 -0.22322092709E+01 -0.11690637881E+02 -0.21575067120E+03  0.21607870301E+03  0.00000000000E+00 0.  1.
         -1    1    1    2    0  502  0.99566340711E+01  0.31288138814E+02 -0.44338520800E+03  0.44459928572E+03  0.00000000000E+00 0. -1.
<mgrwt>
<rscale>  1 0.30000000E+03</rscale>
<asrwt>0</asrwt>
<pdfrwt beam="1">  1       21 0.39899599E-02 0.30000000E+03</pdfrwt>
<pdfrwt beam="2">0</pdfrwt>
<totfact> 0.42225646E+04</totfact>
</mgrwt>
</event>
<event>
 6    1  0.6377696E-002  0.3000000E+03  0.7818608E-02  0.1093470E+00
         21   -1    0    0  501  502  0.00000000000E+00  0.00000000000E+00  0.99442336163E+00  0.99442336163E+00  0.00000000000E+00 0. -1.
         13   -1    0    0    0    0 -0.00000000000E+00 -0.00000000000E+00 -0.10000000000E+04  0.10000000000E+04  0.00000000000E+00 0.  1.
    9000005    2    1    2  501    0  0.28357336252E+02  0.13158850607E+02 -0.46432098669E+03  0.46539671557E+03  0.47781073027E+01 0.  0.
         13    1    3    3    0    0  0.13322799805E+02  0.48704987583E+01 -0.18014777138E+03  0.18070539086E+03  0.00000000000E+00 0.  1.
          3    1    3    3  501    0  0.15034536448E+02  0.82883518484E+01 -0.28417321531E+03  0.28469132471E+03  0.00000000000E+00 0.  1.
         -1    1    1    2    0  502 -0.28357336252E+02 -0.13158850607E+02 -0.53468458995E+03  0.53559770779E+03  0.00000000000E+00 0. -1.
<mgrwt>
<rscale>  1 0.30000000E+03</rscale>
<asrwt>0</asrwt>
<pdfrwt beam="1">  1       21 0.36160926E-02 0.30000000E+03</pdfrwt>
<pdfrwt beam="2">0</pdfrwt>
<totfact> 0.49816286E+04</totfact>
</mgrwt>
</event>
<event>
 6    1  0.6377696E-002  0.3000000E+03  0.7818608E-02  0.1093470E+00
         21   -1    0    0  501  502  0.00000000000E+00  0.00000000000E+00  0.11833956560E+01  0.11833956560E+01  0.00000000000E+00 0. -1.
         13   -1    0    0    0    0 -0.00000000000E+00 -0.00000000000E+00 -0.10000000000E+04  0.10000000000E+04  0.00000000000E+00 0.  1.
    9000005    2    1    2  501    0  0.10766093117E+02 -0.32490156855E+02 -0.53225352895E+03  0.53336652724E+03  0.38097568057E+01 0.  0.
         13    1    3    3    0    0  0.19395233835E+01 -0.26083959709E+01 -0.44109915286E+02  0.44229516242E+02  0.00000000000E+00 0.  1.
          3    1    3    3  501    0  0.88265697333E+01 -0.29881760884E+02 -0.48814361366E+03  0.48913701099E+03  0.00000000000E+00 0.  1.
         -1    1    1    2    0  502 -0.10766093117E+02  0.32490156855E+02 -0.46656307540E+03  0.46781686842E+03  0.00000000000E+00 0. -1.
<mgrwt>
<rscale>  1 0.30000000E+03</rscale>
<asrwt>0</asrwt>
<pdfrwt beam="1">  1       21 0.43032660E-02 0.30000000E+03</pdfrwt>
<pdfrwt beam="2">0</pdfrwt>
<totfact> 0.37168985E+04</totfact>
</mgrwt>
</event>
<event>
 6    1  0.6377696E-002  0.3000000E+03  0.7818608E-02  0.1093470E+00
         21   -1    0    0  501  502  0.00000000000E+00  0.00000000000E+00  0.10000072620E+01  0.10000072620E+01  0.00000000000E+00 0. -1.
         13   -1    0    0    0    0 -0.00000000000E+00 -0.00000000000E+00 -0.10000000000E+04  0.10000000000E+04  0.00000000000E+00 0.  1.
    9000005    2    1    2  501    0  0.24639900012E+02  0.19601231232E+02 -0.52768803392E+03  0.52863754530E+03  0.34147076667E+01 0.  0.
         13    1    3    3    0    0  0.16382595468E+02  0.14326651430E+02 -0.34293791473E+03  0.34362778662E+03  0.00000000000E+00 0.  1.
          3    1    3    3  501    0  0.82573045432E+01  0.52745798020E+01 -0.18475011918E+03  0.18500975868E+03  0.00000000000E+00 0.  1.
         -3    1    1    2    0  502 -0.24639900012E+02 -0.19601231232E+02 -0.47131195882E+03  0.47236246196E+03  0.00000000000E+00 0. -1.
<mgrwt>
<rscale>  1 0.30000000E+03</rscale>
<asrwt>0</asrwt>
<pdfrwt beam="1">  1       21 0.36363977E-02 0.30000000E+03</pdfrwt>
<pdfrwt beam="2">0</pdfrwt>
<totfact> 0.49350590E+04</totfact>
</mgrwt>
</event>
<event>
 6    1  0.6377696E-002  0.3000000E+03  0.7818608E-02  0.1093470E+00
         21   -1    0    0  501  502  0.00000000000E+00  0.00000000000E+00  0.49602304993E+01  0.49602304993E+01  0.00000000000E+00 0. -1.
         13   -1    0    0    0    0 -0.00000000000E+00 -0.00000000000E+00 -0.10000000000E+04  0.10000000000E+04  0.00000000000E+00 0.  1.
    9000005    2    1    2  501    0 -0.31185085479E+01  0.65450445529E+02 -0.68148926605E+03  0.68463632548E+03  0.24067620578E+01 0.  0.
         13    1    3    3    0    0 -0.19059537090E+01  0.19842031235E+02 -0.21302336645E+03  0.21395395186E+03  0.00000000000E+00 0.  1.
          1    1    3    3  501    0 -0.12125548389E+01  0.45608414294E+02 -0.46846589960E+03  0.47068237361E+03  0.00000000000E+00 0.  1.
         -3    1    1    2    0  502  0.31185085479E+01 -0.65450445529E+02 -0.31355050345E+03  0.32032390502E+03  0.00000000000E+00 0. -1.
<mgrwt>
<rscale>  1 0.30000000E+03</rscale>
<asrwt>0</asrwt>
<pdfrwt beam="1">  1       21 0.18037240E-01 0.30000000E+03</pdfrwt>
<pdfrwt beam="2">0</pdfrwt>
<totfact> 0.29181697E+03</totfact>
</mgrwt>
</event>
<event>
 6    1  0.6377696E-002  0.3000000E+03  0.7818608E-02  0.1093470E+00
         21   -1    0    0  501  502  0.00000000000E+00  0.00000000000E+00  0.99621647667E+00  0.99621647667E+00  0.00000000000E+00 0. -1.
         13   -1    0    0    0    0 -0.00000000000E+00 -0.00000000000E+00 -0.10000000000E+04  0.10000000000E+04  0.00000000000E+00 0.  1.
    9000005    2    1    2  501    0  0.38073094881E+01 -0.31050247288E+02 -0.44392065457E+03  0.44503228464E+03  0.30940830455E+01 0.  0.
         13    1    3    3    0    0  0.34363751694E+01 -0.23696356215E+02 -0.35559990700E+03  0.35640513441E+03  0.00000000000E+00 0.  1.
          3    1    3    3  501    0  0.37093431870E+00 -0.73538910731E+01 -0.88320747573E+02  0.88627150231E+02  0.00000000000E+00 0.  1.
         -3    1    1    2    0  502 -0.38073094881E+01  0.31050247288E+02 -0.55508312895E+03  0.55596393184E+03  0.00000000000E+00 0. -1.
<mgrwt>
<rscale>  1 0.30000000E+03</rscale>
<asrwt>0</asrwt>
<pdfrwt beam="1">  1       21 0.36226130E-02 0.30000000E+03</pdfrwt>
<pdfrwt beam="2">0</pdfrwt>
<totfact> 0.49665987E+04</totfact>
</mgrwt>
</event>
<event>
 6    1  0.6377696E-002  0.3000000E+03  0.7818608E-02  0.1093470E+00
         21   -1    0    0  501  502  0.00000000000E+00  0.00000000000E+00  0.11100762771E+01  0.11100762771E+01  0.00000000000E+00 0. -1.
         13   -1    0    0    0    0 -0.00000000000E+00 -0.00000000000E+00 -0.10000000000E+04  0.10000000000E+04  0.00000000000E+00 0.  1.
    9000005    2    1    2  501    0 -0.19799818411E+02  0.25293929586E+02 -0.62960573093E+03  0.63043146787E+03  0.29399964764E+01 0.  0.
         13    1    3    3    0    0 -0.11629400848E+02  0.15663954065E+02 -0.40803080586E+03  0.40849692894E+03  0.00000000000E+00 0.  1.
          3    1    3    3  501    0 -0.81704175628E+01  0.96299755218E+01 -0.22157492507E+03  0.22193453893E+03  0.00000000000E+00 0.  1.
         -3    1    1    2    0  502  0.19799818411E+02 -0.25293929586E+02 -0.36928419279E+03  0.37067860841E+03  0.00000000000E+00 0. -1.
<mgrwt>
<rscale>  1 0.30000000E+03</rscale>
<asrwt>0</asrwt>
<pdfrwt beam="1">  1       21 0.40366495E-02 0.30000000E+03</pdfrwt>
<pdfrwt beam="2">0</pdfrwt>
<totfact> 0.41406285E+04</totfact>
</mgrwt>
</event>
<event>
 6    1  0.6377696E-002  0.3000000E+03  0.7818608E-02  0.1093470E+00
         21   -1    0    0  501  502  0.00000000000E+00  0.00000000000E+00  0.12498440856E+01  0.12498440856E+01  0.00000000000E+00 0. -1.
         13   -1    0    0    0    0 -0.00000000000E+00 -0.00000000000E+00 -0.10000000000E+04  0.10000000000E+04  0.00000000000E+00 0.  1.
    9000005    2    1    2  501    0  0.30971591154E+02  0.10977556505E+02 -0.68232581865E+03  0.68312391396E+03  0.31643042374E+01 0.  0.
         13    1    3    3    0    0  0.24078542637E+02  0.74641344094E+01 -0.50308745310E+03  0.50371864665E+03  0.00000000000E+00 0.  1.
          3    1    3    3  501    0  0.68930485169E+01  0.35134220961E+01 -0.17923836555E+03  0.17940526731E+03  0.00000000000E+00 0.  1.
         -3    1    1    2    0  502 -0.30971591154E+02 -0.10977556505E+02 -0.31642433726E+03  0.31812593013E+03  0.00000000000E+00 0. -1.
<mgrwt>
<rscale>  1 0.30000000E+03</rscale>
<asrwt>0</asrwt>
<pdfrwt beam="1">  1       21 0.45448972E-02 0.30000000E+03</pdfrwt>
<pdfrwt beam="2">0</pdfrwt>
<totfact> 0.33882326E+04</totfact>
</mgrwt>
</event>
<event>
 6    1  0.6377696E-002  0.3000000E+03  0.7818608E-02  0.1093470E+00
         21   -1    0    0  501  502  0.00000000000E+00  0.00000000000E+00  0.13461030220E+01  0.13461030220E+01  0.00000000000E+00 0. -1.
         13   -1    0    0    0    0 -0.00000000000E+00 -0.00000000000E+00 -0.10000000000E+04  0.10000000000E+04  0.00000000000E+00 0.  1.
    9000005    2    1    2  501    0 -0.15392629372E+01 -0.32950491772E+02 -0.28244949997E+03  0.28438247596E+03  0.27510653483E+01 0.  0.
         13    1    3    3    0    0  0.77056558047E+00 -0.59221089004E+01 -0.52179582869E+02  0.52520224804E+02  0.00000000000E+00 0.  1.
          1    1    3    3  501    0 -0.23098285177E+01 -0.27028382872E+02 -0.23026991710E+03  0.23186225116E+03  0.00000000000E+00 0.  1.
         -1    1    1    2    0  502  0.15392629372E+01  0.32950491772E+02 -0.71620439700E+03  0.71696362706E+03  0.00000000000E+00 0. -1.
<mgrwt>
<rscale>  1 0.30000000E+03</rscale>
<asrwt>0</asrwt>
<pdfrwt beam="1">  1       21 0.48949304E-02 0.30000000E+03</pdfrwt>
<pdfrwt beam="2">0</pdfrwt>
<totfact> 0.29866079E+04</totfact>
</mgrwt>
</event>
<event>
 6    1  0.6377696E-002  0.3000000E+03  0.7818608E-02  0.1093470E+00
         21   -1    0    0  501  502  0.00000000000E+00  0.00000000000E+00  0.53315110540E+01  0.53315110540E+01  0.00000000000E+00 0. -1.
         13   -1    0    0    0    0 -0.00000000000E+00 -0.00000000000E+00 -0.10000000000E+04  0.10000000000E+04  0.00000000000E+00 0.  1.
    9000005    2    1    2  501    0  0.31631820499E+02  0.61568728764E+02 -0.33819753929E+03  0.34522137769E+03  0.29905854843E+01 0.  0.
         13    1    3    3    0    0  0.27150708608E+02  0.50450810920E+02 -0.28107329925E+03  0.28685300216E+03  0.00000000000E+00 0.  1.
          3    1    3    3  501    0  0.44811118914E+01  0.11117917844E+02 -0.57124240044E+02  0.58368375526E+02  0.00000000000E+00 0.  1.
         -1    1    1    2    0  502 -0.31631820499E+02 -0.61568728764E+02 -0.65647094966E+03  0.66011013337E+03  0.00000000000E+00 0. -1.
<mgrwt>
<rscale>  1 0.30000000E+03</rscale>
<asrwt>0</asrwt>
<pdfrwt beam="1">  1       21 0.19387354E-01 0.30000000E+03</pdfrwt>
<pdfrwt beam="2">0</pdfrwt>
<totfact> 0.25456883E+03</totfact>
</mgrwt>
</event>
<event>
 6    1  0.6377696E-002  0.3000000E+03  0.7818608E-02  0.1093470E+00
         21   -1    0    0  501  502  0.00000000000E+00  0.00000000000E+00  0.26359678126E+01  0.26359678126E+01  0.00000000000E+00 0. -1.
         13   -1    0    0    0    0 -0.00000000000E+00 -0.00000000000E+00 -0.10000000000E+04  0.10000000000E+04  0.00000000000E+00 0.  1.
    9000005    2    1    2  501    0 -0.30417275553E+02 -0.41137062431E+02 -0.53293535194E+03  0.53539784052E+03  0.36455083305E+01 0.  0.
         13    1    3    3    0    0 -0.30055552806E+02 -0.41083759369E+02 -0.52759812654E+03  0.53004810599E+03  0.00000000000E+00 0.  1.
          3    1    3    3  501    0 -0.36172274683E+00 -0.53303061984E-01 -0.53372254029E+01  0.53497345321E+01  0.00000000000E+00 0.  1.
         -1    1    1    2    0  502  0.30417275553E+02  0.41137062431E+02 -0.46442868025E+03  0.46723812729E+03  0.00000000000E+00 0. -1.
<mgrwt>
<rscale>  1 0.30000000E+03</rscale>
<asrwt>0</asrwt>
<pdfrwt beam="1">  1       21 0.95853577E-02 0.30000000E+03</pdfrwt>
<pdfrwt beam="2">0</pdfrwt>
<totfact> 0.92786264E+03</totfact>
</mgrwt>
</event>
<event>
 6    1  0.6377696E-002  0.3000000E+03  0.7818608E-02  0.1093470E+00
         21   -1    0    0  501  502  0.00000000000E+00  0.00000000000E+00  0.67642866557E+01  0.67642866557E+01  0.00000000000E+00 0. -1.
         13   -1    0    0    0    0 -0.00000000000E+00 -0.00000000000E+00 -0.10000000000E+04  0.10000000000E+04  0.00000000000E+00 0.  1.
    9000005    2    1    2  501    0  0.63173138358E+02 -0.23663716303E+02 -0.20898200619E+03  0.21961455880E+03  0.25017286078E+01 0.  0.
         13    1    3    3    0    0  0.20999665016E+02 -0.90334716047E+01 -0.72262452823E+02  0.75792160729E+02  0.00000000000E+00 0.  1.
          3    1    3    3  501    0  0.42173473342E+02 -0.14630244698E+02 -0.13671955336E+03  0.14382239807E+03  0.00000000000E+00 0.  1.
         -3    1    1    2    0  502 -0.63173138358E+02  0.23663716303E+02 -0.78425370716E+03  0.78714972786E+03  0.00000000000E+00 0. -1.
<mgrwt>
<rscale>  1 0.30000000E+03</rscale>
<asrwt>0</asrwt>
<pdfrwt beam="1">  1       21 0.24597458E-01 0.30000000E+03</pdfrwt>
<pdfrwt beam="2">0</pdfrwt>
<totfact> 0.16098803E+03</totfact>
</mgrwt>
</event>
<event>
 6    1  0.6377696E-002  0.3000000E+03  0.7818608E-02  0.1093470E+00
         21   -1    0    0  501  502  0.00000000000E+00  0.00000000000E+00  0.26559103607E+01  0.26559103607E+01  0.00000000000E+00 0. -1.
         13   -1    0    0    0    0 -0.00000000000E+00 -0.00000000000E+00 -0.10000000000E+04  0.10000000000E+04  0.00000000000E+00 0.  1.
    9000005    2    1    2  501    0  0.39420888373E+02  0.24032249359E+02 -0.27813953763E+03  0.28197099788E+03  0.38060217996E+01 0.  0.
         13    1    3    3    0    0  0.28701650160E+01  0.24091807640E+01 -0.17768126410E+02  0.18158973409E+02  0.00000000000E+00 0.  1.
          3    1    3    3  501    0  0.36550723357E+02  0.21623068595E+02 -0.26037141122E+03  0.26381202447E+03  0.00000000000E+00 0.  1.
         -3    1    1    2    0  502 -0.39420888373E+02 -0.24032249359E+02 -0.71920455201E+03  0.72068491248E+03  0.00000000000E+00 0. -1.
<mgrwt>
<rscale>  1 0.30000000E+03</rscale>
<asrwt>0</asrwt>
<pdfrwt beam="1">  1       21 0.96578762E-02 0.30000000E+03</pdfrwt>
<pdfrwt beam="2">0</pdfrwt>
<totfact> 0.91547658E+03</totfact>
</mgrwt>
</event>
<event>
 6    1  0.6377696E-002  0.3000000E+03  0.7818608E-02  0.1093470E+00
         21   -1    0    0  501  502  0.00000000000E+00  0.00000000000E+00  0.14139340280E+01  0.14139340280E+01  0.00000000000E+00 0. -1.
         13   -1    0    0    0    0 -0.00000000000E+00 -0.00000000000E+00 -0.10000000000E+04  0.10000000000E+04  0.00000000000E+00 0.  1.
    9000005    2    1    2  501    0 -0.15530294283E+02  0.27320568122E+02 -0.22988277517E+03  0.23206852865E+03  0.47019344885E+01 0.  0.
         13    1    3    3    0    0 -0.15760700159E+02  0.26794469975E+02 -0.22214730070E+03  0.22431176184E+03  0.00000000000E+00 0.  1.
          1    1    3    3  501    0  0.23040587625E+00  0.52609814640E+00 -0.77354744687E+01  0.77567668125E+01  0.00000000000E+00 0.  1.
         -3    1    1    2    0  502  0.15530294283E+02 -0.27320568122E+02 -0.76870329080E+03  0.76934540538E+03  0.00000000000E+00 0. -1.
<mgrwt>
<rscale>  1 0.30000000E+03</rscale>
<asrwt>0</asrwt>
<pdfrwt beam="1">  1       21 0.51415891E-02 0.30000000E+03</pdfrwt>
<pdfrwt beam="2">0</pdfrwt>
<totfact> 0.27464646E+04</totfact>
</mgrwt>
</event>
<event>
 6    1  0.6377696E-002  0.3000000E+03  0.7818608E-02  0.1093470E+00
         21   -1    0    0  501  502  0.00000000000E+00  0.00000000000E+00  0.10003318904E+01  0.10003318904E+01  0.00000000000E+00 0. -1.
         13   -1    0    0    0    0 -0.00000000000E+00 -0.00000000000E+00 -0.10000000000E+04  0.10000000000E+04  0.00000000000E+00 0.  1.
    9000005    2    1    2  501    0  0.66192749563E+00 -0.31041029892E+02 -0.41189725324E+03  0.41307752299E+03  0.31159403863E+01 0.  0.
         13    1    3    3    0    0  0.14106742108E+01 -0.20583209328E+02 -0.28738537163E+03  0.28812499082E+03  0.00000000000E+00 0.  1.
          1    1    3    3  501    0 -0.74874671521E+00 -0.10457820564E+02 -0.12451188161E+03  0.12495253216E+03  0.00000000000E+00 0.  1.
         -3    1    1    2    0  502 -0.66192749563E+00  0.31041029892E+02 -0.58710241487E+03  0.58792280890E+03  0.00000000000E+00 0. -1.
<mgrwt>
<rscale>  1 0.30000000E+03</rscale>
<asrwt>0</asrwt>
<pdfrwt beam="1">  1       21 0.36375782E-02 0.30000000E+03</pdfrwt>
<pdfrwt beam="2">0</pdfrwt>
<totfact> 0.49323727E+04</totfact>
</mgrwt>
</event>
<event>
 6    1  0.6377696E-002  0.3000000E+03  0.7818608E-02  0.1093470E+00
         21   -1    0    0  501  502  0.00000000000E+00  0.00000000000E+00  0.27435722974E+01  0.27435722974E+01  0.00000000000E+00 0. -1.
         13   -1    0    0    0    0 -0.00000000000E+00 -0.00000000000E+00 -0.10000000000E+04  0.10000000000E+04  0.00000000000E+00 0.  1.
    9000005    2    1    2  501    0  0.49680942101E+02  0.34201506661E+01 -0.34623299677E+03  0.34981830777E+03  0.39581508462E+01 0.  0.
         13    1    3    3    0    0  0.22730946429E+02 -0.10874475327E-01 -0.16608798381E+03  0.16763625625E+03  0.00000000000E+00 0.  1.
          1    1    3    3  501    0  0.26949995672E+02  0.34310251414E+01 -0.18014501296E+03  0.18218205152E+03  0.00000000000E+00 0.  1.
         -1    1    1    2    0  502 -0.49680942101E+02 -0.34201506661E+01 -0.65102343093E+03  0.65292526453E+03  0.00000000000E+00 0. -1.
<mgrwt>
<rscale>  1 0.30000000E+03</rscale>
<asrwt>0</asrwt>
<pdfrwt beam="1">  1       21 0.99766476E-02 0.30000000E+03</pdfrwt>
<pdfrwt beam="2">0</pdfrwt>
<totfact> 0.86392108E+03</totfact>
</mgrwt>
</event>
<event>
 6    1  0.6377696E-002  0.3000000E+03  0.7818608E-02  0.1093470E+00
         21   -1    0    0  501  502  0.00000000000E+00  0.00000000000E+00  0.25094766817E+01  0.25094766817E+01  0.00000000000E+00 0. -1.
         13   -1    0    0    0    0 -0.00000000000E+00 -0.00000000000E+00 -0.10000000000E+04  0.10000000000E+04  0.00000000000E+00 0.  1.
    9000005    2    1    2  501    0 -0.40511349275E+02  0.10756837361E+02 -0.22546869639E+03  0.22935064422E+03  0.29505896423E+01 0.  0.
         13    1    3    3    0    0 -0.13375294148E+02  0.43074964820E+01 -0.69195948862E+02  0.70608302333E+02  0.00000000000E+00 0.  1.
          3    1    3    3  501    0 -0.27136055127E+02  0.64493408786E+01 -0.15627274753E+03  0.15874234188E+03  0.00000000000E+00 0.  1.
         -1    1    1    2    0  502  0.40511349275E+02 -0.10756837361E+02 -0.77202182692E+03  0.77315883246E+03  0.00000000000E+00 0. -1.
<mgrwt>
<rscale>  1 0.30000000E+03</rscale>
<asrwt>0</asrwt>
<pdfrwt beam="1">  1       21 0.91253890E-02 0.30000000E+03</pdfrwt>
<pdfrwt beam="2">0</pdfrwt>
<totfact> 0.10126629E+04</totfact>
</mgrwt>
</event>
<event>
 6    1  0.6377696E-002  0.3000000E+03  0.7818608E-02  0.1093470E+00
         21   -1    0    0  501  502  0.00000000000E+00  0.00000000000E+00  0.12444844277E+01  0.12444844277E+01  0.00000000000E+00 0. -1.
         13   -1    0    0    0    0 -0.00000000000E+00 -0.00000000000E+00 -0.10000000000E+04  0.10000000000E+04  0.00000000000E+00 0.  1.
    9000005    2    1    2  501    0 -0.32072101780E+02 -0.13350175999E+02 -0.57787207417E+03  0.57892976984E+03  0.40862437443E+01 0.  0.
         13    1    3    3    0    0 -0.32069323561E+00  0.20356978260E+00 -0.11663448168E+02  0.11669631870E+02  0.00000000000E+00 0.  1.
          3    1    3    3  501    0 -0.31751408545E+02 -0.13553745782E+02 -0.56620862600E+03  0.56726013797E+03  0.00000000000E+00 0.  1.
         -3    1    1    2    0  502  0.32072101780E+02  0.13350175999E+02 -0.42088344140E+03  0.42231471459E+03  0.00000000000E+00 0. -1.
<mgrwt>
<rscale>  1 0.30000000E+03</rscale>
<asrwt>0</asrwt>
<pdfrwt beam="1">  1       21 0.45254075E-02 0.30000000E+03</pdfrwt>
<pdfrwt beam="2">0</pdfrwt>
<totfact> 0.34130471E+04</totfact>
</mgrwt>
</event>
<event>
 6    1  0.6377696E-002  0.3000000E+03  0.7818608E-02  0.1093470E+00
         21   -1    0    0  501  502  0.00000000000E+00  0.00000000000E+00  0.30778180678E+01  0.30778180678E+01  0.00000000000E+00 0. -1.
         13   -1    0    0    0    0 -0.00000000000E+00 -0.00000000000E+00 -0.10000000000E+04  0.10000000000E+04  0.00000000000E+00 0.  1.
    9000005    2    1    2  501    0 -0.35901990896E+02  0.23985418227E+02 -0.81310933387E+03  0.81426199153E+03  0.33983508597E+01 0.  0.
         13    1    3    3    0    0 -0.26746253745E+02  0.18210462640E+02 -0.63527412190E+03  0.63609762851E+03  0.00000000000E+00 0.  1.
          3    1    3    3  501    0 -0.91557371517E+01  0.57749555870E+01 -0.17783521197E+03  0.17816436303E+03  0.00000000000E+00 0.  1.
         -1    1    1    2    0  502  0.35901990896E+02 -0.23985418227E+02 -0.18381284806E+03  0.18881582654E+03  0.00000000000E+00 0. -1.
<mgrwt>
<rscale>  1 0.30000000E+03</rscale>
<asrwt>0</asrwt>
<pdfrwt beam="1">  1       21 0.11192089E-01 0.30000000E+03</pdfrwt>
<pdfrwt beam="2">0</pdfrwt>
<totfact> 0.70294634E+03</totfact>
</mgrwt>
</event>
<event>
 6    1  0.6377696E-002  0.3000000E+03  0.7818608E-02  0.1093470E+00
         21   -1    0    0  501  502  0.00000000000E+00  0.00000000000E+00  0.21404756505E+01  0.21404756505E+01  0.00000000000E+00 0. -1.
         13   -1    0    0    0    0 -0.00000000000E+00 -0.00000000000E+00 -0.10000000000E+04  0.10000000000E+04  0.00000000000E+00 0.  1.
    9000005    2    1    2  501    0  0.41736314864E+02 -0.17184855215E+02 -0.39241369643E+03  0.39501454986E+03  0.32781434714E+01 0.  0.
         13    1    3    3    0    0  0.15539436138E+02 -0.56606236232E+01 -0.15637401668E+03  0.15724614408E+03  0.00000000000E+00 0.  1.
          3    1    3    3  501    0  0.26196878726E+02 -0.11524231592E+02 -0.23603967975E+03  0.23776840578E+03  0.00000000000E+00 0.  1.
         -1    1    1    2    0  502 -0.41736314864E+02  0.17184855215E+02 -0.60544582792E+03  0.60712592579E+03  0.00000000000E+00 0. -1.
<mgrwt>
<rscale>  1 0.30000000E+03</rscale>
<asrwt>0</asrwt>
<pdfrwt beam="1">  1       21 0.77835642E-02 0.30000000E+03</pdfrwt>
<pdfrwt beam="2">0</pdfrwt>
<totfact> 0.13403826E+04</totfact>
</mgrwt>
</event>
<event>
 6    1  0.6377696E-002  0.3000000E+03  0.7818608E-02  0.1093470E+00
         21   -1    0    0  501  502  0.00000000000E+00  0.00000000000E+00  0.15653155604E+01  0.15653155604E+01  0.00000000000E+00 0. -1.
         13   -1    0    0    0    0 -0.00000000000E+00 -0.00000000000E+00 -0.10000000000E+04  0.10000000000E+04  0.00000000000E+00 0.  1.
    9000005    2    1    2  501    0 -0.84938979353E+00  0.39095501621E+02 -0.51688538694E+03  0.51843085640E+03  0.84184274664E+01 0.  0.
         13    1    3    3    0    0 -0.37491623385E+01  0.17512794212E+02 -0.20137160305E+03  0.20216645788E+03  0.00000000000E+00 0.  1.
          3    1    3    3  501    0  0.28997725449E+01  0.21582707409E+02 -0.31551378390E+03  0.31626439852E+03  0.00000000000E+00 0.  1.
         -1    1    1    2    0  502  0.84938979353E+00 -0.39095501621E+02 -0.48154929750E+03  0.48313445916E+03  0.00000000000E+00 0. -1.
<mgrwt>
<rscale>  1 0.30000000E+03</rscale>
<asrwt>0</asrwt>
<pdfrwt beam="1">  1       21 0.56920686E-02 0.30000000E+03</pdfrwt>
<pdfrwt beam="2">0</pdfrwt>
<totfact> 0.23073437E+04</totfact>
</mgrwt>
</event>
<event>
 6    1  0.6377696E-002  0.3000000E+03  0.7818608E-02  0.1093470E+00
         21   -1    0    0  501  502  0.00000000000E+00  0.00000000000E+00  0.11736510881E+01  0.11736510881E+01  0.00000000000E+00 0. -1.
         13   -1    0    0    0    0 -0.00000000000E+00 -0.00000000000E+00 -0.10000000000E+04  0.10000000000E+04  0.00000000000E+00 0.  1.
    9000005    2    1    2  501    0 -0.35121450024E+01  0.33977013164E+02 -0.47910760740E+03  0.48033361532E+03  0.30838201012E+01 0.  0.
         13    1    3    3    0    0  0.43610986030E-01  0.27992438479E+01 -0.29632378635E+02  0.29764333213E+02  0.00000000000E+00 0.  1.
          1    1    3    3  501    0 -0.35557559884E+01  0.31177769316E+02 -0.44947522877E+03  0.45056928211E+03  0.00000000000E+00 0.  1.
         -1    1    1    2    0  502  0.35121450024E+01 -0.33977013164E+02 -0.51971874151E+03  0.52084003577E+03  0.00000000000E+00 0. -1.
<mgrwt>
<rscale>  1 0.30000000E+03</rscale>
<asrwt>0</asrwt>
<pdfrwt beam="1">  1       21 0.42678311E-02 0.30000000E+03</pdfrwt>
<pdfrwt beam="2">0</pdfrwt>
<totfact> 0.37692280E+04</totfact>
</mgrwt>
</event>
<event>
 6    1  0.6377696E-002  0.3000000E+03  0.7818608E-02  0.1093470E+00
         21   -1    0    0  501  502  0.00000000000E+00  0.00000000000E+00  0.14376490115E+01  0.14376490115E+01  0.00000000000E+00 0. -1.
         13   -1    0    0    0    0 -0.00000000000E+00 -0.00000000000E+00 -0.10000000000E+04  0.10000000000E+04  0.00000000000E+00 0.  1.
    9000005    2    1    2  501    0 -0.24839496950E+02 -0.23146008909E+02 -0.72113049579E+03  0.72193599854E+03  0.31073611536E+01 0.  0.
         13    1    3    3    0    0 -0.12732735749E+02 -0.13807232345E+02 -0.41032646938E+03  0.41075610001E+03  0.00000000000E+00 0.  1.
          1    1    3    3  501    0 -0.12106761200E+02 -0.93387765632E+01 -0.31080402641E+03  0.31117989853E+03  0.00000000000E+00 0.  1.
         -1    1    1    2    0  502  0.24839496950E+02  0.23146008909E+02 -0.27743185520E+03  0.27950165047E+03  0.00000000000E+00 0. -1.
<mgrwt>
<rscale>  1 0.30000000E+03</rscale>
<asrwt>0</asrwt>
<pdfrwt beam="1">  1       21 0.52278256E-02 0.30000000E+03</pdfrwt>
<pdfrwt beam="2">0</pdfrwt>
<totfact> 0.26695349E+04</totfact>
</mgrwt>
</event>
<event>
 6    1  0.6377696E-002  0.3000000E+03  0.7818608E-02  0.1093470E+00
         21   -1    0    0  501  502  0.00000000000E+00  0.00000000000E+00  0.96718231859E+00  0.96718231859E+00  0.00000000000E+00 0. -1.
         13   -1    0    0    0    0 -0.00000000000E+00 -0.00000000000E+00 -0.10000000000E+04  0.10000000000E+04  0.00000000000E+00 0.  1.
    9000005    2    1    2  501    0 -0.28138262929E+02 -0.11389752247E+02 -0.58784929479E+03  0.58866465044E+03  0.61472753688E+01 0.  0.
         13    1    3    3    0    0 -0.16263759031E+01  0.32926228240E-01 -0.14893759665E+02  0.14982331583E+02  0.00000000000E+00 0.  1.
          3    1    3    3  501    0 -0.26511887026E+02 -0.11422678475E+02 -0.57295553513E+03  0.57368231886E+03  0.00000000000E+00 0.  1.
         -1    1    1    2    0  502  0.28138262929E+02  0.11389752247E+02 -0.41118352289E+03  0.41230253188E+03  0.00000000000E+00 0. -1.
<mgrwt>
<rscale>  1 0.30000000E+03</rscale>
<asrwt>0</asrwt>
<pdfrwt beam="1">  1       21 0.35170340E-02 0.30000000E+03</pdfrwt>
<pdfrwt beam="2">0</pdfrwt>
<totfact> 0.52190710E+04</totfact>
</mgrwt>
</event>
<event>
 6    1  0.6377696E-002  0.3000000E+03  0.7818608E-02  0.1093470E+00
         21   -1    0    0  501  502  0.00000000000E+00  0.00000000000E+00  0.12380261313E+01  0.12380261313E+01  0.00000000000E+00 0. -1.
         13   -1    0    0    0    0 -0.00000000000E+00 -0.00000000000E+00 -0.10000000000E+04  0.10000000000E+04  0.00000000000E+00 0.  1.
    9000005    2    1    2  501    0 -0.21885792330E+02 -0.27222969376E+02 -0.46423863615E+03  0.46557462760E+03  0.47058045572E+01 0.  0.
         13    1    3    3    0    0 -0.42538082983E+01 -0.84364872566E+01 -0.11593384963E+03  0.11631821307E+03  0.00000000000E+00 0.  1.
          1    1    3    3  501    0 -0.17631984031E+02 -0.18786482120E+02 -0.34830478652E+03  0.34925641452E+03  0.00000000000E+00 0.  1.
         -1    1    1    2    0  502  0.21885792330E+02  0.27222969376E+02 -0.53452333772E+03  0.53566339854E+03  0.00000000000E+00 0. -1.
<mgrwt>
<rscale>  1 0.30000000E+03</rscale>
<asrwt>0</asrwt>
<pdfrwt beam="1">  1       21 0.45019227E-02 0.30000000E+03</pdfrwt>
<pdfrwt beam="2">0</pdfrwt>
<totfact> 0.34433220E+04</totfact>
</mgrwt>
</event>
<event>
 6    1  0.6377696E-002  0.3000000E+03  0.7818608E-02  0.1093470E+00
         21   -1    0    0  501  502  0.00000000000E+00  0.00000000000E+00  0.11708974534E+01  0.11708974534E+01  0.00000000000E+00 0. -1.
         13   -1    0    0    0    0 -0.00000000000E+00 -0.00000000000E+00 -0.10000000000E+04  0.10000000000E+04  0.00000000000E+00 0.  1.
    9000005    2    1    2  501    0 -0.23612370183E+02 -0.24623401166E+02 -0.47761451764E+03  0.47884102138E+03  0.30398015194E+01 0.  0.
         13    1    3    3    0    0 -0.14777302824E+02 -0.14431467597E+02 -0.27012645796E+03  0.27091500370E+03  0.00000000000E+00 0.  1.
          1    1    3    3  501    0 -0.88350673596E+01 -0.10191933569E+02 -0.20748805967E+03  0.20792601769E+03  0.00000000000E+00 0.  1.
         -3    1    1    2    0  502  0.23612370183E+02  0.24623401166E+02 -0.52121458491E+03  0.52232987607E+03  0.00000000000E+00 0. -1.
<mgrwt>
<rscale>  1 0.30000000E+03</rscale>
<asrwt>0</asrwt>
<pdfrwt beam="1">  1       21 0.42578179E-02 0.30000000E+03</pdfrwt>
<pdfrwt beam="2">0</pdfrwt>
<totfact> 0.37842227E+04</totfact>
</mgrwt>
</event>
<event>
 6    1  0.6377696E-002  0.3000000E+03  0.7818608E-02  0.1093470E+00
         21   -1    0    0  501  502  0.00000000000E+00  0.00000000000E+00  0.30578648172E+01  0.30578648172E+01  0.00000000000E+00 0. -1.
         13   -1    0    0    0    0 -0.00000000000E+00 -0.00000000000E+00 -0.10000000000E+04  0.10000000000E+04  0.00000000000E+00 0.  1.
    9000005    2    1    2  501    0  0.48487969232E+02 -0.24215501777E+02 -0.59625619830E+03  0.59872298665E+03  0.32073424874E+01 0.  0.
         13    1    3    3    0    0  0.22429512081E+02 -0.95038943862E+01 -0.26219952131E+03  0.26332868434E+03  0.00000000000E+00 0.  1.
          1    1    3    3  501    0  0.26058457151E+02 -0.14711607391E+02 -0.33405667698E+03  0.33539430231E+03  0.00000000000E+00 0.  1.
         -3    1    1    2    0  502 -0.48487969232E+02  0.24215501777E+02 -0.40068593689E+03  0.40433487817E+03  0.00000000000E+00 0. -1.
<mgrwt>
<rscale>  1 0.30000000E+03</rscale>
<asrwt>0</asrwt>
<pdfrwt beam="1">  1       21 0.11119532E-01 0.30000000E+03</pdfrwt>
<pdfrwt beam="2">0</pdfrwt>
<totfact> 0.71123054E+03</totfact>
</mgrwt>
</event>
<event>
 6    1  0.6377696E-002  0.3000000E+03  0.7818608E-02  0.1093470E+00
         21   -1    0    0  501  502  0.00000000000E+00  0.00000000000E+00  0.12955294584E+01  0.12955294584E+01  0.00000000000E+00 0. -1.
         13   -1    0    0    0    0 -0.00000000000E+00 -0.00000000000E+00 -0.10000000000E+04  0.10000000000E+04  0.00000000000E+00 0.  1.
    9000005    2    1    2  501    0  0.47502238159E+01  0.34716894991E+02 -0.39156611048E+03  0.39314685053E+03  0.35496170387E+01 0.  0.
         13    1    3    3    0    0  0.53185832215E+01  0.31236595013E+02 -0.34991083580E+03  0.35134257528E+03  0.00000000000E+00 0.  1.
          3    1    3    3  501    0 -0.56835940557E+00  0.34802999776E+01 -0.41655274685E+02  0.41804275253E+02  0.00000000000E+00 0.  1.
         -1    1    1    2    0  502 -0.47502238159E+01 -0.34716894991E+02 -0.60713836006E+03  0.60814867893E+03  0.00000000000E+00 0. -1.
<mgrwt>
<rscale>  1 0.30000000E+03</rscale>
<asrwt>0</asrwt>
<pdfrwt beam="1">  1       21 0.47110261E-02 0.30000000E+03</pdfrwt>
<pdfrwt beam="2">0</pdfrwt>
<totfact> 0.31877075E+04</totfact>
</mgrwt>
</event>
<event>
 6    1  0.6377696E-002  0.3000000E+03  0.7818608E-02  0.1093470E+00
         21   -1    0    0  501  502  0.00000000000E+00  0.00000000000E+00  0.11050905713E+01  0.11050905713E+01  0.00000000000E+00 0. -1.
         13   -1    0    0    0    0 -0.00000000000E+00 -0.00000000000E+00 -0.10000000000E+04  0.10000000000E+04  0.00000000000E+00 0.  1.
    9000005    2    1    2  501    0 -0.11881747600E+02  0.30912814152E+02 -0.49082238620E+03  0.49195435958E+03  0.39622107434E+01 0.  0.
         13    1    3    3    0    0 -0.76655545104E+01  0.19544712934E+02 -0.33830045990E+03  0.33895126154E+03  0.00000000000E+00 0.  1.
          1    1    3    3  501    0 -0.42161930900E+01  0.11368101218E+02 -0.15252192630E+03  0.15300309804E+03  0.00000000000E+00 0.  1.
         -3    1    1    2    0  502  0.11881747600E+02 -0.30912814152E+02 -0.50807252323E+03  0.50915073099E+03  0.00000000000E+00 0. -1.
<mgrwt>
<rscale>  1 0.30000000E+03</rscale>
<asrwt>0</asrwt>
<pdfrwt beam="1">  1       21 0.40185196E-02 0.30000000E+03</pdfrwt>
<pdfrwt beam="2">0</pdfrwt>
<totfact> 0.41721471E+04</totfact>
</mgrwt>
</event>
<event>
 6    1  0.6377696E-002  0.3000000E+03  0.7818608E-02  0.1093470E+00
         21   -1    0    0  501  502  0.00000000000E+00  0.00000000000E+00  0.21052463505E+01  0.21052463505E+01  0.00000000000E+00 0. -1.
         13   -1    0    0    0    0 -0.00000000000E+00 -0.00000000000E+00 -0.10000000000E+04  0.10000000000E+04  0.00000000000E+00 0.  1.
    9000005    2    1    2  501    0 -0.28166600456E+02 -0.35938039796E+02 -0.52961519866E+03  0.53160483009E+03  0.51513718126E+01 0.  0.
         13    1    3    3    0    0 -0.20191749828E+02 -0.29215545515E+02 -0.40575527085E+03  0.40730651196E+03  0.00000000000E+00 0.  1.
          1    1    3    3  501    0 -0.79748506276E+01 -0.67224942807E+01 -0.12385992781E+03  0.12429831813E+03  0.00000000000E+00 0.  1.
         -3    1    1    2    0  502  0.28166600456E+02  0.35938039796E+02 -0.46827955499E+03  0.47050041626E+03  0.00000000000E+00 0. -1.
<mgrwt>
<rscale>  1 0.30000000E+03</rscale>
<asrwt>0</asrwt>
<pdfrwt beam="1">  1       21 0.76554574E-02 0.30000000E+03</pdfrwt>
<pdfrwt beam="2">0</pdfrwt>
<totfact> 0.13799537E+04</totfact>
</mgrwt>
</event>
<event>
 6    1  0.6377696E-002  0.3000000E+03  0.7818608E-02  0.1093470E+00
         21   -1    0    0  501  502  0.00000000000E+00  0.00000000000E+00  0.39445963836E+01  0.39445963836E+01  0.00000000000E+00 0. -1.
         13   -1    0    0    0    0 -0.00000000000E+00 -0.00000000000E+00 -0.10000000000E+04  0.10000000000E+04  0.00000000000E+00 0.  1.
    9000005    2    1    2  501    0  0.15142148766E+02  0.54391740926E+02 -0.71739541044E+03  0.71962235324E+03  0.35228126958E+01 0.  0.
         13    1    3    3    0    0  0.44402262833E+01  0.22384077093E+02 -0.28823459595E+03  0.28913655047E+03  0.00000000000E+00 0.  1.
          1    1    3    3  501    0  0.10701922483E+02  0.32007663833E+02 -0.42916081449E+03  0.43048580277E+03  0.00000000000E+00 0.  1.
         -3    1    1    2    0  502 -0.15142148766E+02 -0.54391740926E+02 -0.27865999318E+03  0.28432224315E+03  0.00000000000E+00 0. -1.
<mgrwt>
<rscale>  1 0.30000000E+03</rscale>
<asrwt>0</asrwt>
<pdfrwt beam="1">  1       21 0.14344017E-01 0.30000000E+03</pdfrwt>
<pdfrwt beam="2">0</pdfrwt>
<totfact> 0.44724340E+03</totfact>
</mgrwt>
</event>
<event>
 6    1  0.6377696E-002  0.3000000E+03  0.7818608E-02  0.1093470E+00
         21   -1    0    0  501  502  0.00000000000E+00  0.00000000000E+00  0.13888677278E+01  0.13888677278E+01  0.00000000000E+00 0. -1.
         13   -1    0    0    0    0 -0.00000000000E+00 -0.00000000000E+00 -0.10000000000E+04  0.10000000000E+04  0.00000000000E+00 0.  1.
    9000005    2    1    2  501    0  0.10996851155E+02 -0.35269079336E+02 -0.51217113961E+03  0.51354800725E+03  0.68877286731E+01 0.  0.
         13    1    3    3    0    0  0.67285833746E+01 -0.18570763026E+02 -0.22763406956E+03  0.22848942360E+03  0.00000000000E+00 0.  1.
          1    1    3    3  501    0  0.42682677807E+01 -0.16698316310E+02 -0.28453707006E+03  0.28505858365E+03  0.00000000000E+00 0.  1.
         -1    1    1    2    0  502 -0.10996851155E+02  0.35269079336E+02 -0.48643999266E+03  0.48784086048E+03  0.00000000000E+00 0. -1.
<mgrwt>
<rscale>  1 0.30000000E+03</rscale>
<asrwt>0</asrwt>
<pdfrwt beam="1">  1       21 0.50504388E-02 0.30000000E+03</pdfrwt>
<pdfrwt beam="2">0</pdfrwt>
<totfact> 0.28315859E+04</totfact>
</mgrwt>
</event>
<event>
 6    1  0.6377696E-002  0.3000000E+03  0.7818608E-02  0.1093470E+00
         21   -1    0    0  501  502  0.00000000000E+00  0.00000000000E+00  0.16766603170E+01  0.16766603170E+01  0.00000000000E+00 0. -1.
         13   -1    0    0    0    0 -0.00000000000E+00 -0.00000000000E+00 -0.10000000000E+04  0.10000000000E+04  0.00000000000E+00 0.  1.
    9000005    2    1    2  501    0  0.18337719681E+02  0.30858825263E+02 -0.73929918859E+03  0.74017704290E+03  0.31977377581E+01 0.  0.
         13    1    3    3    0    0  0.12083011323E+01  0.39743701031E+01 -0.80797531845E+02  0.80904244397E+02  0.00000000000E+00 0.  1.
          3    1    3    3  501    0  0.17129418549E+02  0.26884455160E+02 -0.65850165675E+03  0.65927279851E+03  0.00000000000E+00 0.  1.
         -1    1    1    2    0  502 -0.18337719681E+02 -0.30858825263E+02 -0.25902415109E+03  0.26149961741E+03  0.00000000000E+00 0. -1.
<mgrwt>
<rscale>  1 0.30000000E+03</rscale>
<asrwt>0</asrwt>
<pdfrwt beam="1">  1       21 0.60969595E-02 0.30000000E+03</pdfrwt>
<pdfrwt beam="2">0</pdfrwt>
<totfact> 0.20496886E+04</totfact>
</mgrwt>
</event>
<event>
 6    1  0.6377696E-002  0.3000000E+03  0.7818608E-02  0.1093470E+00
         21   -1    0    0  501  502  0.00000000000E+00  0.00000000000E+00  0.16655682624E+01  0.16655682624E+01  0.00000000000E+00 0. -1.
         13   -1    0    0    0    0 -0.00000000000E+00 -0.00000000000E+00 -0.10000000000E+04  0.10000000000E+04  0.00000000000E+00 0.  1.
    9000005    2    1    2  501    0  0.33824351117E+02  0.14898381714E+02 -0.70364292479E+03  0.70466534473E+03  0.85926691144E+01 0.  0.
         13    1    3    3    0    0  0.25577489072E+02  0.71126911409E+01 -0.47502082523E+03  0.47576210728E+03  0.00000000000E+00 0.  1.
          3    1    3    3  501    0  0.82468620448E+01  0.77856905726E+01 -0.22862209956E+03  0.22890323746E+03  0.00000000000E+00 0.  1.
         -3    1    1    2    0  502 -0.33824351117E+02 -0.14898381714E+02 -0.29469150695E+03  0.29700022353E+03  0.00000000000E+00 0. -1.
<mgrwt>
<rscale>  1 0.30000000E+03</rscale>
<asrwt>0</asrwt>
<pdfrwt beam="1">  1       21 0.60566246E-02 0.30000000E+03</pdfrwt>
<pdfrwt beam="2">0</pdfrwt>
<totfact> 0.20732994E+04</totfact>
</mgrwt>
</event>
<event>
 6    1  0.6377696E-002  0.3000000E+03  0.7818608E-02  0.1093470E+00
         21   -1    0    0  501  502  0.00000000000E+00  0.00000000000E+00  0.98381549594E+00  0.98381549594E+00  0.00000000000E+00 0. -1.
         13   -1    0    0    0    0 -0.00000000000E+00 -0.00000000000E+00 -0.10000000000E+04  0.10000000000E+04  0.00000000000E+00 0.  1.
    9000005    2    1    2  501    0  0.24776086622E+02  0.17247416849E+02 -0.36986335206E+03  0.37110714945E+03  0.32076969772E+01 0.  0.
         13    1    3    3    0    0  0.21049729013E+02  0.13159047490E+02 -0.30407646881E+03  0.30508810286E+03  0.00000000000E+00 0.  1.
          1    1    3    3  501    0  0.37263576092E+01  0.40883693584E+01 -0.65786883247E+02  0.66019046588E+02  0.00000000000E+00 0.  1.
         -1    1    1    2    0  502 -0.24776086622E+02 -0.17247416849E+02 -0.62915283245E+03  0.62987666605E+03  0.00000000000E+00 0. -1.
<mgrwt>
<rscale>  1 0.30000000E+03</rscale>
<asrwt>0</asrwt>
<pdfrwt beam="1">  1       21 0.35775184E-02 0.30000000E+03</pdfrwt>
<pdfrwt beam="2">0</pdfrwt>
<totfact> 0.50720300E+04</totfact>
</mgrwt>
</event>
<event>
 6    1  0.6377696E-002  0.3000000E+03  0.7818608E-02  0.1093470E+00
         21   -1    0    0  501  502  0.00000000000E+00  0.00000000000E+00  0.16770494122E+01  0.16770494122E+01  0.00000000000E+00 0. -1.
         13   -1    0    0    0    0 -0.00000000000E+00 -0.00000000000E+00 -0.10000000000E+04  0.10000000000E+04  0.00000000000E+00 0.  1.
    9000005    2    1    2  501    0 -0.51588893682E+01  0.38537739232E+02 -0.34580175445E+03  0.34799847175E+03  0.35087711966E+01 0.  0.
         13    1    3    3    0    0 -0.21500897315E+01  0.13170700021E+02 -0.13353279964E+03  0.13419798361E+03  0.00000000000E+00 0.  1.
          1    1    3    3  501    0 -0.30087996367E+01  0.25367039212E+02 -0.21226895481E+03  0.21380048815E+03  0.00000000000E+00 0.  1.
         -3    1    1    2    0  502  0.51588893682E+01 -0.38537739232E+02 -0.65252119613E+03  0.65367857766E+03  0.00000000000E+00 0. -1.
<mgrwt>
<rscale>  1 0.30000000E+03</rscale>
<asrwt>0</asrwt>
<pdfrwt beam="1">  1       21 0.60983744E-02 0.30000000E+03</pdfrwt>
<pdfrwt beam="2">0</pdfrwt>
<totfact> 0.20488680E+04</totfact>
</mgrwt>
</event>
<event>
 6    1  0.6377696E-002  0.3000000E+03  0.7818608E-02  0.1093470E+00
         21   -1    0    0  501  502  0.00000000000E+00  0.00000000000E+00  0.10987284066E+01  0.10987284066E+01  0.00000000000E+00 0. -1.
         13   -1    0    0    0    0 -0.00000000000E+00 -0.00000000000E+00 -0.10000000000E+04  0.10000000000E+04  0.00000000000E+00 0.  1.
    9000005    2    1    2  501    0  0.12290787732E+02  0.30544913211E+02 -0.45709281598E+03  0.45829079022E+03  0.35427097323E+01 0.  0.
         13    1    3    3    0    0  0.10222163794E+02  0.21822320707E+02 -0.34431420720E+03  0.34515645669E+03  0.00000000000E+00 0.  1.
          1    1    3    3  501    0  0.20686239380E+01  0.87225925034E+01 -0.11277860877E+03  0.11313433353E+03  0.00000000000E+00 0.  1.
         -1    1    1    2    0  502 -0.12290787732E+02 -0.30544913211E+02 -0.54180845562E+03  0.54280793819E+03  0.00000000000E+00 0. -1.
<mgrwt>
<rscale>  1 0.30000000E+03</rscale>
<asrwt>0</asrwt>
<pdfrwt beam="1">  1       21 0.39953844E-02 0.30000000E+03</pdfrwt>
<pdfrwt beam="2">0</pdfrwt>
<totfact> 0.42129153E+04</totfact>
</mgrwt>
</event>
<event>
 6    1  0.6377696E-002  0.3000000E+03  0.7818608E-02  0.1093470E+00
         21   -1    0    0  501  502  0.00000000000E+00  0.00000000000E+00  0.11495244070E+01  0.11495244070E+01  0.00000000000E+00 0. -1.
         13   -1    0    0    0    0 -0.00000000000E+00 -0.00000000000E+00 -0.10000000000E+04  0.10000000000E+04  0.00000000000E+00 0.  1.
    9000005    2    1    2  501    0  0.32691987027E+02  0.74135927607E+01 -0.43300532499E+03  0.43431227983E+03  0.31333005298E+01 0.  0.
         13    1    3    3    0    0  0.14088661849E+02  0.41003919000E+01 -0.20592647227E+03  0.20644857855E+03  0.00000000000E+00 0.  1.
          3    1    3    3  501    0  0.18603325178E+02  0.33132008607E+01 -0.22707885272E+03  0.22786370128E+03  0.00000000000E+00 0.  1.
         -3    1    1    2    0  502 -0.32691987027E+02 -0.74135927607E+01 -0.56584515060E+03  0.56683724457E+03  0.00000000000E+00 0. -1.
<mgrwt>
<rscale>  1 0.30000000E+03</rscale>
<asrwt>0</asrwt>
<pdfrwt beam="1">  1       21 0.41800976E-02 0.30000000E+03</pdfrwt>
<pdfrwt beam="2">0</pdfrwt>
<totfact> 0.39038283E+04</totfact>
</mgrwt>
</event>
<event>
 6    1  0.6377696E-002  0.3000000E+03  0.7818608E-02  0.1093470E+00
         21   -1    0    0  501  502  0.00000000000E+00  0.00000000000E+00  0.12786380936E+01  0.12786380936E+01  0.00000000000E+00 0. -1.
         13   -1    0    0    0    0 -0.00000000000E+00 -0.00000000000E+00 -0.10000000000E+04  0.10000000000E+04  0.00000000000E+00 0.  1.
    9000005    2    1    2  501    0 -0.39994009759E+01  0.34321956900E+02 -0.37568297925E+03  0.37728279019E+03  0.32574444539E+01 0.  0.
         13    1    3    3    0    0 -0.33263868125E+00  0.13815892092E+02 -0.16046328455E+03  0.16105730413E+03  0.00000000000E+00 0.  1.
          3    1    3    3  501    0 -0.36667622947E+01  0.20506064808E+02 -0.21521969469E+03  0.21622548606E+03  0.00000000000E+00 0.  1.
         -3    1    1    2    0  502  0.39994009759E+01 -0.34321956900E+02 -0.62303838266E+03  0.62399584790E+03  0.00000000000E+00 0. -1.
<mgrwt>
<rscale>  1 0.30000000E+03</rscale>
<asrwt>0</asrwt>
<pdfrwt beam="1">  1       21 0.46496029E-02 0.30000000E+03</pdfrwt>
<pdfrwt beam="2">0</pdfrwt>
<totfact> 0.32596254E+04</totfact>
</mgrwt>
</event>
<event>
 6    1  0.6377696E-002  0.3000000E+03  0.7818608E-02  0.1093470E+00
         21   -1    0    0  501  502  0.00000000000E+00  0.00000000000E+00  0.97101678689E+00  0.97101678689E+00  0.00000000000E+00 0. -1.
         13   -1    0    0    0    0 -0.00000000000E+00 -0.00000000000E+00 -0.10000000000E+04  0.10000000000E+04  0.00000000000E+00 0.  1.
    9000005    2    1    2  501    0 -0.27969185132E+02  0.11294816386E+02 -0.62051281276E+03  0.62125488665E+03  0.34110392662E+01 0.  0.
         13    1    3    3    0    0 -0.75921311607E+01  0.33395985604E+01 -0.14152772423E+03  0.14177055442E+03  0.00000000000E+00 0.  1.
          1    1    3    3  501    0 -0.20377053972E+02  0.79552178259E+01 -0.47898508853E+03  0.47948433223E+03  0.00000000000E+00 0.  1.
         -1    1    1    2    0  502  0.27969185132E+02 -0.11294816386E+02 -0.37851617045E+03  0.37971613014E+03  0.00000000000E+00 0. -1.
<mgrwt>
<rscale>  1 0.30000000E+03</rscale>
<asrwt>0</asrwt>
<pdfrwt beam="1">  1       21 0.35309776E-02 0.30000000E+03</pdfrwt>
<pdfrwt beam="2">0</pdfrwt>
<totfact> 0.51845894E+04</totfact>
</mgrwt>
</event>
<event>
 6    1  0.6377696E-002  0.3000000E+03  0.7818608E-02  0.1093470E+00
         21   -1    0    0  501  502  0.00000000000E+00  0.00000000000E+00  0.15155688496E+01  0.15155688496E+01  0.00000000000E+00 0. -1.
         13   -1    0    0    0    0 -0.00000000000E+00 -0.00000000000E+00 -0.10000000000E+04  0.10000000000E+04  0.00000000000E+00 0.  1.
    9000005    2    1    2  501    0 -0.32430738109E+02 -0.92521684766E+01 -0.25031314515E+03  0.25258457831E+03  0.22233238929E+01 0.  0.
         13    1    3    3    0    0 -0.49514722517E+01 -0.21588456105E+01 -0.42978525069E+02  0.43316640093E+02  0.00000000000E+00 0.  1.
          3    1    3    3  501    0 -0.27479265857E+02 -0.70933228661E+01 -0.20733462008E+03  0.20926793821E+03  0.00000000000E+00 0.  1.
         -3    1    1    2    0  502  0.32430738109E+02  0.92521684766E+01 -0.74817128600E+03  0.74893099054E+03  0.00000000000E+00 0. -1.
<mgrwt>
<rscale>  1 0.30000000E+03</rscale>
<asrwt>0</asrwt>
<pdfrwt beam="1">  1       21 0.55111711E-02 0.30000000E+03</pdfrwt>
<pdfrwt beam="2">0</pdfrwt>
<totfact> 0.24389142E+04</totfact>
</mgrwt>
</event>
<event>
 6    1  0.6377696E-002  0.3000000E+03  0.7818608E-02  0.1093470E+00
         21   -1    0    0  501  502  0.00000000000E+00  0.00000000000E+00  0.33789925275E+01  0.33789925275E+01  0.00000000000E+00 0. -1.
         13   -1    0    0    0    0 -0.00000000000E+00 -0.00000000000E+00 -0.10000000000E+04  0.10000000000E+04  0.00000000000E+00 0.  1.
    9000005    2    1    2  501    0 -0.43766492872E+02 -0.37946828221E+02 -0.52931968135E+03  0.53250109215E+03  0.47560911938E+01 0.  0.
         13    1    3    3    0    0 -0.16115209786E+02 -0.16968764294E+02 -0.20804764230E+03  0.20935964371E+03  0.00000000000E+00 0.  1.
          1    1    3    3  501    0 -0.27651283086E+02 -0.20978063927E+02 -0.32127203905E+03  0.32314144844E+03  0.00000000000E+00 0.  1.
         -1    1    1    2    0  502  0.43766492872E+02  0.37946828221E+02 -0.46730132612E+03  0.47087790038E+03  0.00000000000E+00 0. -1.
<mgrwt>
<rscale>  1 0.30000000E+03</rscale>
<asrwt>0</asrwt>
<pdfrwt beam="1">  1       21 0.12287271E-01 0.30000000E+03</pdfrwt>
<pdfrwt beam="2">0</pdfrwt>
<totfact> 0.59363198E+03</totfact>
</mgrwt>
</event>
<event>
 6    1  0.6377696E-002  0.3000000E+03  0.7818608E-02  0.1093470E+00
         21   -1    0    0  501  502  0.00000000000E+00  0.00000000000E+00  0.11606892532E+01  0.11606892532E+01  0.00000000000E+00 0. -1.
         13   -1    0    0    0    0 -0.00000000000E+00 -0.00000000000E+00 -0.10000000000E+04  0.10000000000E+04  0.00000000000E+00 0.  1.
    9000005    2    1    2  501    0 -0.81789958828E+01 -0.32360605757E+02 -0.59405715615E+03  0.59500468787E+03  0.35452837910E+01 0.  0.
         13    1    3    3    0    0 -0.18134609927E+01 -0.80844973132E+01 -0.12216931046E+03  0.12244994142E+03  0.00000000000E+00 0.  1.
          3    1    3    3  501    0 -0.63655348902E+01 -0.24276108443E+02 -0.47188784569E+03  0.47255474644E+03  0.00000000000E+00 0.  1.
         -3    1    1    2    0  502  0.81789958828E+01  0.32360605757E+02 -0.40478215460E+03  0.40615600139E+03  0.00000000000E+00 0. -1.
<mgrwt>
<rscale>  1 0.30000000E+03</rscale>
<asrwt>0</asrwt>
<pdfrwt beam="1">  1       21 0.42206971E-02 0.30000000E+03</pdfrwt>
<pdfrwt beam="2">0</pdfrwt>
<totfact> 0.38406273E+04</totfact>
</mgrwt>
</event>
<event>
 6    1  0.6377696E-002  0.3000000E+03  0.7818608E-02  0.1093470E+00
         21   -1    0    0  501  502  0.00000000000E+00  0.00000000000E+00  0.18885631357E+01  0.18885631357E+01  0.00000000000E+00 0. -1.
         13   -1    0    0    0    0 -0.00000000000E+00 -0.00000000000E+00 -0.10000000000E+04  0.10000000000E+04  0.00000000000E+00 0.  1.
    9000005    2    1    2  501    0  0.11799916918E+02 -0.41561025272E+02 -0.54739367648E+03  0.54910488809E+03  0.31279728988E+01 0.  0.
         13    1    3    3    0    0  0.84276510251E+01 -0.33370555220E+02 -0.42541793521E+03  0.42680796484E+03  0.00000000000E+00 0.  1.
          3    1    3    3  501    0  0.33722658931E+01 -0.81904700517E+01 -0.12197574127E+03  0.12229692325E+03  0.00000000000E+00 0.  1.
         -1    1    1    2    0  502 -0.11799916918E+02  0.41561025272E+02 -0.45071776039E+03  0.45278367505E+03  0.00000000000E+00 0. -1.
<mgrwt>
<rscale>  1 0.30000000E+03</rscale>
<asrwt>0</asrwt>
<pdfrwt beam="1">  1       21 0.68675168E-02 0.30000000E+03</pdfrwt>
<pdfrwt beam="2">0</pdfrwt>
<totfact> 0.16680445E+04</totfact>
</mgrwt>
</event>
<event>
 6    1  0.6377696E-002  0.3000000E+03  0.7818608E-02  0.1093470E+00
         21   -1    0    0  501  502  0.00000000000E+00  0.00000000000E+00  0.19456995631E+01  0.19456995631E+01  0.00000000000E+00 0. -1.
         13   -1    0    0    0    0 -0.00000000000E+00 -0.00000000000E+00 -0.10000000000E+04  0.10000000000E+04  0.00000000000E+00 0.  1.
    9000005    2    1    2  501    0 -0.34705635045E+02 -0.29665313865E+01 -0.19551004715E+03  0.19864590503E+03  0.47681900554E+01 0.  0.
         13    1    3    3    0    0 -0.24724440586E+02 -0.15197562516E+01 -0.15001201563E+03  0.15204345581E+03  0.00000000000E+00 0.  1.
          1    1    3    3  501    0 -0.99811944586E+01 -0.14467751349E+01 -0.45498031519E+02  0.46602449219E+02  0.00000000000E+00 0.  1.
         -1    1    1    2    0  502  0.34705635045E+02  0.29665313865E+01 -0.80254425328E+03  0.80329979453E+03  0.00000000000E+00 0. -1.
<mgrwt>
<rscale>  1 0.30000000E+03</rscale>
<asrwt>0</asrwt>
<pdfrwt beam="1">  1       21 0.70752861E-02 0.30000000E+03</pdfrwt>
<pdfrwt beam="2">0</pdfrwt>
<totfact> 0.15837536E+04</totfact>
</mgrwt>
</event>
<event>
 6    1  0.6377696E-002  0.3000000E+03  0.7818608E-02  0.1093470E+00
         21   -1    0    0  501  502  0.00000000000E+00  0.00000000000E+00  0.12364366718E+01  0.12364366718E+01  0.00000000000E+00 0. -1.
         13   -1    0    0    0    0 -0.00000000000E+00 -0.00000000000E+00 -0.10000000000E+04  0.10000000000E+04  0.00000000000E+00 0.  1.
    9000005    2    1    2  501    0 -0.11518050593E+02  0.33154876068E+02 -0.51609515554E+03  0.51729356487E+03  0.25517409032E+01 0.  0.
         13    1    3    3    0    0 -0.64590407322E+01  0.17888808580E+02 -0.26114818759E+03  0.26183984525E+03  0.00000000000E+00 0.  1.
          3    1    3    3  501    0 -0.50590098611E+01  0.15266067488E+02 -0.25494696795E+03  0.25545371962E+03  0.00000000000E+00 0.  1.
         -1    1    1    2    0  502  0.11518050593E+02 -0.33154876068E+02 -0.48266840779E+03  0.48394287181E+03  0.00000000000E+00 0. -1.
<mgrwt>
<rscale>  1 0.30000000E+03</rscale>
<asrwt>0</asrwt>
<pdfrwt beam="1">  1       21 0.44961428E-02 0.30000000E+03</pdfrwt>
<pdfrwt beam="2">0</pdfrwt>
<totfact> 0.34508364E+04</totfact>
</mgrwt>
</event>
<event>
 6    1  0.6377696E-002  0.3000000E+03  0.7818608E-02  0.1093470E+00
         21   -1    0    0  501  502  0.00000000000E+00  0.00000000000E+00  0.15612483949E+01  0.15612483949E+01  0.00000000000E+00 0. -1.
         13   -1    0    0    0    0 -0.00000000000E+00 -0.00000000000E+00 -0.10000000000E+04  0.10000000000E+04  0.00000000000E+00 0.  1.
    9000005    2    1    2  501    0  0.33168847778E+02 -0.14806052370E+02 -0.30561017595E+03  0.30778114858E+03  0.35020179432E+01 0.  0.
         13    1    3    3    0    0  0.19087494556E+01 -0.86705233085E+00 -0.25883434480E+02  0.25968197564E+02  0.00000000000E+00 0.  1.
          3    1    3    3  501    0  0.31260098322E+02 -0.13939000040E+02 -0.27972674147E+03  0.28181295102E+03  0.00000000000E+00 0.  1.
         -3    1    1    2    0  502 -0.33168847778E+02  0.14806052370E+02 -0.69282857566E+03  0.69378009981E+03  0.00000000000E+00 0. -1.
<mgrwt>
<rscale>  1 0.30000000E+03</rscale>
<asrwt>0</asrwt>
<pdfrwt beam="1">  1       21 0.56772789E-02 0.30000000E+03</pdfrwt>
<pdfrwt beam="2">0</pdfrwt>
<totfact> 0.23176868E+04</totfact>
</mgrwt>
</event>
<event>
 6    1  0.6377696E-002  0.3000000E+03  0.7818608E-02  0.1093470E+00
         21   -1    0    0  501  502  0.00000000000E+00  0.00000000000E+00  0.12554875712E+01  0.12554875712E+01  0.00000000000E+00 0. -1.
         13   -1    0    0    0    0 -0.00000000000E+00 -0.00000000000E+00 -0.10000000000E+04  0.10000000000E+04  0.00000000000E+00 0.  1.
    9000005    2    1    2  501    0 -0.14312325532E+02  0.27808362413E+02 -0.73310765795E+03  0.73378383274E+03  0.37050451007E+01 0.  0.
         13    1    3    3    0    0 -0.16160007838E+01  0.43459184704E+01 -0.13947225544E+03  0.13954930492E+03  0.00000000000E+00 0.  1.
          3    1    3    3  501    0 -0.12696324748E+02  0.23462443943E+02 -0.59363540251E+03  0.59423452781E+03  0.00000000000E+00 0.  1.
         -3    1    1    2    0  502  0.14312325532E+02 -0.27808362413E+02 -0.26563685448E+03  0.26747165483E+03  0.00000000000E+00 0. -1.
<mgrwt>
<rscale>  1 0.30000000E+03</rscale>
<asrwt>0</asrwt>
<pdfrwt beam="1">  1       21 0.45654190E-02 0.30000000E+03</pdfrwt>
<pdfrwt beam="2">0</pdfrwt>
<totfact> 0.33624055E+04</totfact>
</mgrwt>
</event>
<event>
 6    1  0.6377696E-002  0.3000000E+03  0.7818608E-02  0.1093470E+00
         21   -1    0    0  501  502  0.00000000000E+00  0.00000000000E+00  0.10203672547E+01  0.10203672547E+01  0.00000000000E+00 0. -1.
         13   -1    0    0    0    0 -0.00000000000E+00 -0.00000000000E+00 -0.10000000000E+04  0.10000000000E+04  0.00000000000E+00 0.  1.
    9000005    2    1    2  501    0 -0.19681484015E+02 -0.25029277202E+02 -0.50112718587E+03  0.50215076065E+03  0.36200106518E+01 0.  0.
         13    1    3    3    0    0 -0.94255937368E+01 -0.14538603788E+02 -0.28500421440E+03  0.28553041001E+03  0.00000000000E+00 0.  1.
          1    1    3    3  501    0 -0.10255890278E+02 -0.10490673415E+02 -0.21612297147E+03  0.21662035064E+03  0.00000000000E+00 0.  1.
         -1    1    1    2    0  502  0.19681484015E+02  0.25029277202E+02 -0.49785244688E+03  0.49886960661E+03  0.00000000000E+00 0. -1.
<mgrwt>
<rscale>  1 0.30000000E+03</rscale>
<asrwt>0</asrwt>
<pdfrwt beam="1">  1       21 0.37104342E-02 0.30000000E+03</pdfrwt>
<pdfrwt beam="2">0</pdfrwt>
<totfact> 0.47709386E+04</totfact>
</mgrwt>
</event>
<event>
 6    1  0.6377696E-002  0.3000000E+03  0.7818608E-02  0.1093470E+00
         21   -1    0    0  501  502  0.00000000000E+00  0.00000000000E+00  0.10292303705E+01  0.10292303705E+01  0.00000000000E+00 0. -1.
         13   -1    0    0    0    0 -0.00000000000E+00 -0.00000000000E+00 -0.10000000000E+04  0.10000000000E+04  0.00000000000E+00 0.  1.
    9000005    2    1    2  501    0  0.28741963101E+02 -0.12194561543E+02 -0.61146137751E+03  0.61226408693E+03  0.27364544158E+01 0.  0.
         13    1    3    3    0    0  0.43368688440E+01 -0.28932145319E+01 -0.10785688722E+03  0.10798280994E+03  0.00000000000E+00 0.  1.
          1    1    3    3  501    0  0.24405094257E+02 -0.93013470108E+01 -0.50360449029E+03  0.50428127699E+03  0.00000000000E+00 0.  1.
         -3    1    1    2    0  502 -0.28741963101E+02  0.12194561543E+02 -0.38750939212E+03  0.38876514344E+03  0.00000000000E+00 0. -1.
<mgrwt>
<rscale>  1 0.30000000E+03</rscale>
<asrwt>0</asrwt>
<pdfrwt beam="1">  1       21 0.37426638E-02 0.30000000E+03</pdfrwt>
<pdfrwt beam="2">0</pdfrwt>
<totfact> 0.47021641E+04</totfact>
</mgrwt>
</event>
<event>
 6    1  0.6377696E-002  0.3000000E+03  0.7818608E-02  0.1093470E+00
         21   -1    0    0  501  502  0.00000000000E+00  0.00000000000E+00  0.40058710455E+01  0.40058710455E+01  0.00000000000E+00 0. -1.
         13   -1    0    0    0    0 -0.00000000000E+00 -0.00000000000E+00 -0.10000000000E+04  0.10000000000E+04  0.00000000000E+00 0.  1.
    9000005    2    1    2  501    0 -0.44974045840E+02 -0.41858705343E+02 -0.38020888571E+03  0.38516317552E+03  0.41302528651E+01 0.  0.
         13    1    3    3    0    0 -0.36302725151E+02 -0.34454927293E+02 -0.29959549049E+03  0.30374740787E+03  0.00000000000E+00 0.  1.
          3    1    3    3  501    0 -0.86713206889E+01 -0.74037780502E+01 -0.80613395221E+02  0.81415767643E+02  0.00000000000E+00 0.  1.
         -1    1    1    2    0  502  0.44974045840E+02  0.41858705343E+02 -0.61578524324E+03  0.61884269553E+03  0.00000000000E+00 0. -1.
<mgrwt>
<rscale>  1 0.30000000E+03</rscale>
<asrwt>0</asrwt>
<pdfrwt beam="1">  1       21 0.14566835E-01 0.30000000E+03</pdfrwt>
<pdfrwt beam="2">0</pdfrwt>
<totfact> 0.43471514E+03</totfact>
</mgrwt>
</event>
<event>
 6    1  0.6377696E-002  0.3000000E+03  0.7818608E-02  0.1093470E+00
         21   -1    0    0  501  502  0.00000000000E+00  0.00000000000E+00  0.18151799564E+01  0.18151799564E+01  0.00000000000E+00 0. -1.
         13   -1    0    0    0    0 -0.00000000000E+00 -0.00000000000E+00 -0.10000000000E+04  0.10000000000E+04  0.00000000000E+00 0.  1.
    9000005    2    1    2  501    0  0.35834508574E+02  0.21442002812E+02 -0.40421788169E+03  0.40638206419E+03  0.32271862908E+01 0.  0.
         13    1    3    3    0    0  0.31947739593E+02  0.18254706633E+02 -0.34795217727E+03  0.34989228350E+03  0.00000000000E+00 0.  1.
          3    1    3    3  501    0  0.38867689809E+01  0.31872961785E+01 -0.56265704416E+02  0.56489780699E+02  0.00000000000E+00 0.  1.
         -1    1    1    2    0  502 -0.35834508574E+02 -0.21442002812E+02 -0.59396693835E+03  0.59543311576E+03  0.00000000000E+00 0. -1.
<mgrwt>
<rscale>  1 0.30000000E+03</rscale>
<asrwt>0</asrwt>
<pdfrwt beam="1">  1       21 0.66006683E-02 0.30000000E+03</pdfrwt>
<pdfrwt beam="2">0</pdfrwt>
<totfact> 0.17867982E+04</totfact>
</mgrwt>
</event>
<event>
 6    1  0.6377696E-002  0.3000000E+03  0.7818608E-02  0.1093470E+00
         21   -1    0    0  501  502  0.00000000000E+00  0.00000000000E+00  0.92324697817E+00  0.92324697817E+00  0.00000000000E+00 0. -1.
         13   -1    0    0    0    0 -0.00000000000E+00 -0.00000000000E+00 -0.10000000000E+04  0.10000000000E+04  0.00000000000E+00 0.  1.
    9000005    2    1    2  501    0 -0.30265344084E+02 -0.50307293336E+00 -0.47733282254E+03  0.47830199490E+03  0.31513030937E+01 0.  0.
         13    1    3    3    0    0 -0.41097065371E+01  0.70774593927E+00 -0.54568629658E+02  0.54727743741E+02  0.00000000000E+00 0.  1.
          1    1    3    3  501    0 -0.26155637546E+02 -0.12108188726E+01 -0.42276419288E+03  0.42357425115E+03  0.00000000000E+00 0.  1.
         -1    1    1    2    0  502  0.30265344084E+02  0.50307293336E+00 -0.52174393048E+03  0.52262125208E+03  0.00000000000E+00 0. -1.
<mgrwt>
<rscale>  1 0.30000000E+03</rscale>
<asrwt>0</asrwt>
<pdfrwt beam="1">  1       21 0.33572688E-02 0.30000000E+03</pdfrwt>
<pdfrwt beam="2">0</pdfrwt>
<totfact> 0.56410298E+04</totfact>
</mgrwt>
</event>
<event>
 6    1  0.6377696E-002  0.3000000E+03  0.7818608E-02  0.1093470E+00
         21   -1    0    0  501  502  0.00000000000E+00  0.00000000000E+00  0.11724910253E+01  0.11724910253E+01  0.00000000000E+00 0. -1.
         13   -1    0    0    0    0 -0.00000000000E+00 -0.00000000000E+00 -0.10000000000E+04  0.10000000000E+04  0.00000000000E+00 0.  1.
    9000005    2    1    2  501    0  0.33716664356E+02  0.23158285297E+01 -0.57452490171E+03  0.57552606611E+03  0.30353851129E+01 0.  0.
         13    1    3    3    0    0  0.97111895467E+01  0.15098047594E+01 -0.14890458946E+03  0.14922856119E+03  0.00000000000E+00 0.  1.
          3    1    3    3  501    0  0.24005474809E+02  0.80602377028E+00 -0.42562031225E+03  0.42629750491E+03  0.00000000000E+00 0.  1.
         -3    1    1    2    0  502 -0.33716664356E+02 -0.23158285297E+01 -0.42430260726E+03  0.42564642492E+03  0.00000000000E+00 0. -1.
<mgrwt>
<rscale>  1 0.30000000E+03</rscale>
<asrwt>0</asrwt>
<pdfrwt beam="1">  1       21 0.42636127E-02 0.30000000E+03</pdfrwt>
<pdfrwt beam="2">0</pdfrwt>
<totfact> 0.37755338E+04</totfact>
</mgrwt>
</event>
<event>
 6    1  0.6377696E-002  0.3000000E+03  0.7818608E-02  0.1093470E+00
         21   -1    0    0  501  502  0.00000000000E+00  0.00000000000E+00  0.11072918846E+01  0.11072918846E+01  0.00000000000E+00 0. -1.
         13   -1    0    0    0    0 -0.00000000000E+00 -0.00000000000E+00 -0.10000000000E+04  0.10000000000E+04  0.00000000000E+00 0.  1.
    9000005    2    1    2  501    0  0.32053294123E+02 -0.59622307775E+01 -0.59008265118E+03  0.59099922745E+03  0.44260328501E+01 0.  0.
         13    1    3    3    0    0  0.31611950013E+02 -0.61816474715E+01 -0.58636512094E+03  0.58724916620E+03  0.00000000000E+00 0.  1.
          1    1    3    3  501    0  0.44134411002E+00  0.21941669399E+00 -0.37175302459E+01  0.37500612579E+01  0.00000000000E+00 0.  1.
         -1    1    1    2    0  502 -0.32053294123E+02  0.59622307775E+01 -0.40881005693E+03  0.41010806443E+03  0.00000000000E+00 0. -1.
<mgrwt>
<rscale>  1 0.30000000E+03</rscale>
<asrwt>0</asrwt>
<pdfrwt beam="1">  1       21 0.40265244E-02 0.30000000E+03</pdfrwt>
<pdfrwt beam="2">0</pdfrwt>
<totfact> 0.41581848E+04</totfact>
</mgrwt>
</event>
<event>
 6    1  0.6377696E-002  0.3000000E+03  0.7818608E-02  0.1093470E+00
         21   -1    0    0  501  502  0.00000000000E+00  0.00000000000E+00  0.13441051328E+01  0.13441051328E+01  0.00000000000E+00 0. -1.
         13   -1    0    0    0    0 -0.00000000000E+00 -0.00000000000E+00 -0.10000000000E+04  0.10000000000E+04  0.00000000000E+00 0.  1.
    9000005    2    1    2  501    0  0.54709425965E+01 -0.36177905873E+02 -0.48888678852E+03  0.49026356953E+03  0.30501692638E+01 0.  0.
         13    1    3    3    0    0  0.22937997177E+01 -0.73980081730E+01 -0.10919995989E+03  0.10947430421E+03  0.00000000000E+00 0.  1.
          1    1    3    3  501    0  0.31771428789E+01 -0.28779897700E+02 -0.37968682863E+03  0.38078926532E+03  0.00000000000E+00 0.  1.
         -1    1    1    2    0  502 -0.54709425965E+01  0.36177905873E+02 -0.50976910634E+03  0.51108053560E+03  0.00000000000E+00 0. -1.
<mgrwt>
<rscale>  1 0.30000000E+03</rscale>
<asrwt>0</asrwt>
<pdfrwt beam="1">  1       21 0.48876653E-02 0.30000000E+03</pdfrwt>
<pdfrwt beam="2">0</pdfrwt>
<totfact> 0.29941719E+04</totfact>
</mgrwt>
</event>
<event>
 6    1  0.6377696E-002  0.3000000E+03  0.7818608E-02  0.1093470E+00
         21   -1    0    0  501  502  0.00000000000E+00  0.00000000000E+00  0.26104811613E+01  0.26104811613E+01  0.00000000000E+00 0. -1.
         13   -1    0    0    0    0 -0.00000000000E+00 -0.00000000000E+00 -0.10000000000E+04  0.10000000000E+04  0.00000000000E+00 0.  1.
    9000005    2    1    2  501    0  0.57472214333E+01  0.49100424626E+02 -0.37475772853E+03  0.37801923198E+03  0.33619042148E+01 0.  0.
         13    1    3    3    0    0  0.32337057818E+01  0.17407164704E+02 -0.12585495184E+03  0.12709419790E+03  0.00000000000E+00 0.  1.
          3    1    3    3  501    0  0.25135156515E+01  0.31693259923E+02 -0.24890277669E+03  0.25092503408E+03  0.00000000000E+00 0.  1.
         -3    1    1    2    0  502 -0.57472214333E+01 -0.49100424626E+02 -0.62263179031E+03  0.62459124918E+03  0.00000000000E+00 0. -1.
<mgrwt>
<rscale>  1 0.30000000E+03</rscale>
<asrwt>0</asrwt>
<pdfrwt beam="1">  1       21 0.94926788E-02 0.30000000E+03</pdfrwt>
<pdfrwt beam="2">0</pdfrwt>
<totfact> 0.94406797E+03</totfact>
</mgrwt>
</event>
<event>
 6    1  0.6377696E-002  0.3000000E+03  0.7818608E-02  0.1093470E+00
         21   -1    0    0  501  502  0.00000000000E+00  0.00000000000E+00  0.14034681850E+01  0.14034681850E+01  0.00000000000E+00 0. -1.
         13   -1    0    0    0    0 -0.00000000000E+00 -0.00000000000E+00 -0.10000000000E+04  0.10000000000E+04  0.00000000000E+00 0.  1.
    9000005    2    1    2  501    0  0.31928327420E+02  0.76038126203E+01 -0.25975961790E+03  0.26183790556E+03  0.26064608189E+01 0.  0.
         13    1    3    3    0    0  0.20736537214E+02  0.62090122622E+01 -0.17049415936E+03  0.17186277719E+03  0.00000000000E+00 0.  1.
          3    1    3    3  501    0  0.11191790207E+02  0.13948003581E+01 -0.89265458540E+02  0.89975128366E+02  0.00000000000E+00 0.  1.
         -3    1    1    2    0  502 -0.31928327420E+02 -0.76038126203E+01 -0.73883691392E+03  0.73956556263E+03  0.00000000000E+00 0. -1.
<mgrwt>
<rscale>  1 0.30000000E+03</rscale>
<asrwt>0</asrwt>
<pdfrwt beam="1">  1       21 0.51035314E-02 0.30000000E+03</pdfrwt>
<pdfrwt beam="2">0</pdfrwt>
<totfact> 0.27815148E+04</totfact>
</mgrwt>
</event>
<event>
 6    1  0.6377696E-002  0.3000000E+03  0.7818608E-02  0.1093470E+00
         21   -1    0    0  501  502  0.00000000000E+00  0.00000000000E+00  0.13155711638E+01  0.13155711638E+01  0.00000000000E+00 0. -1.
         13   -1    0    0    0    0 -0.00000000000E+00 -0.00000000000E+00 -0.10000000000E+04  0.10000000000E+04  0.00000000000E+00 0.  1.
    9000005    2    1    2  501    0 -0.25151695489E+02  0.20452720986E+02 -0.27924220722E+03  0.28114334744E+03  0.38013068866E+01 0.  0.
         13    1    3    3    0    0 -0.18795604109E+02  0.17284855186E+02 -0.22007742251E+03  0.22155385993E+03  0.00000000000E+00 0.  1.
          1    1    3    3  501    0 -0.63560913797E+01  0.31678658006E+01 -0.59164784713E+02  0.59589487508E+02  0.00000000000E+00 0.  1.
         -3    1    1    2    0  502  0.25151695489E+02 -0.20452720986E+02 -0.71944222162E+03  0.72017222373E+03  0.00000000000E+00 0. -1.
<mgrwt>
<rscale>  1 0.30000000E+03</rscale>
<asrwt>0</asrwt>
<pdfrwt beam="1">  1       21 0.47839052E-02 0.30000000E+03</pdfrwt>
<pdfrwt beam="2">0</pdfrwt>
<totfact> 0.31055512E+04</totfact>
</mgrwt>
</event>
<event>
 6    1  0.6377696E-002  0.3000000E+03  0.7818608E-02  0.1093470E+00
         21   -1    0    0  501  502  0.00000000000E+00  0.00000000000E+00  0.23192134957E+01  0.23192134957E+01  0.00000000000E+00 0. -1.
         13   -1    0    0    0    0 -0.00000000000E+00 -0.00000000000E+00 -0.10000000000E+04  0.10000000000E+04  0.00000000000E+00 0.  1.
    9000005    2    1    2  501    0 -0.20444397914E+02 -0.26068069661E+02 -0.86238347736E+03  0.86302499422E+03  0.30595691225E+01 0.  0.
         13    1    3    3    0    0 -0.78538716529E+01 -0.11410070637E+02 -0.32834876078E+03  0.32864080958E+03  0.00000000000E+00 0.  1.
          1    1    3    3  501    0 -0.12590526261E+02 -0.14657999023E+02 -0.53403471658E+03  0.53438418464E+03  0.00000000000E+00 0.  1.
         -3    1    1    2    0  502  0.20444397914E+02  0.26068069661E+02 -0.13529730914E+03  0.13929421927E+03  0.00000000000E+00 0. -1.
<mgrwt>
<rscale>  1 0.30000000E+03</rscale>
<asrwt>0</asrwt>
<pdfrwt beam="1">  1       21 0.84335214E-02 0.30000000E+03</pdfrwt>
<pdfrwt beam="2">0</pdfrwt>
<totfact> 0.11641286E+04</totfact>
</mgrwt>
</event>
<event>
 6    1  0.6377696E-002  0.3000000E+03  0.7818608E-02  0.1093470E+00
         21   -1    0    0  501  502  0.00000000000E+00  0.00000000000E+00  0.13422203665E+01  0.13422203665E+01  0.00000000000E+00 0. -1.
         13   -1    0    0    0    0 -0.00000000000E+00 -0.00000000000E+00 -0.10000000000E+04  0.10000000000E+04  0.00000000000E+00 0.  1.
    9000005    2    1    2  501    0 -0.71947491608E+01  0.33028979946E+02 -0.69061904444E+03  0.69145427238E+03  0.34158905728E+01 0.  0.
         13    1    3    3    0    0 -0.39566848197E+01  0.22938840859E+02 -0.44907769275E+03  0.44968057541E+03  0.00000000000E+00 0.  1.
          1    1    3    3  501    0 -0.32380643411E+01  0.10090139087E+02 -0.24154135170E+03  0.24177369697E+03  0.00000000000E+00 0.  1.
         -1    1    1    2    0  502  0.71947491608E+01 -0.33028979946E+02 -0.30803873519E+03  0.30988794799E+03  0.00000000000E+00 0. -1.
<mgrwt>
<rscale>  1 0.30000000E+03</rscale>
<asrwt>0</asrwt>
<pdfrwt beam="1">  1       21 0.48808116E-02 0.30000000E+03</pdfrwt>
<pdfrwt beam="2">0</pdfrwt>
<totfact> 0.30013350E+04</totfact>
</mgrwt>
</event>
<event>
 6    1  0.6377696E-002  0.3000000E+03  0.7818608E-02  0.1093470E+00
         21   -1    0    0  501  502  0.00000000000E+00  0.00000000000E+00  0.13668870381E+01  0.13668870381E+01  0.00000000000E+00 0. -1.
         13   -1    0    0    0    0 -0.00000000000E+00 -0.00000000000E+00 -0.10000000000E+04  0.10000000000E+04  0.00000000000E+00 0.  1.
    9000005    2    1    2  501    0 -0.28913343819E+02  0.19875352620E+02 -0.35599243692E+03  0.35776914807E+03  0.60940199094E+01 0.  0.
         13    1    3    3    0    0 -0.61214475366E+01  0.56225148965E+01 -0.10958179124E+03  0.10989655938E+03  0.00000000000E+00 0.  1.
          3    1    3    3  501    0 -0.22791896283E+02  0.14252837724E+02 -0.24641064568E+03  0.24787258869E+03  0.00000000000E+00 0.  1.
         -3    1    1    2    0  502  0.28913343819E+02 -0.19875352620E+02 -0.64264067605E+03  0.64359773897E+03  0.00000000000E+00 0. -1.
<mgrwt>
<rscale>  1 0.30000000E+03</rscale>
<asrwt>0</asrwt>
<pdfrwt beam="1">  1       21 0.49705088E-02 0.30000000E+03</pdfrwt>
<pdfrwt beam="2">0</pdfrwt>
<totfact> 0.29096567E+04</totfact>
</mgrwt>
</event>
<event>
 6    1  0.6377696E-002  0.3000000E+03  0.7818608E-02  0.1093470E+00
         21   -1    0    0  501  502  0.00000000000E+00  0.00000000000E+00  0.13735050348E+01  0.13735050348E+01  0.00000000000E+00 0. -1.
         13   -1    0    0    0    0 -0.00000000000E+00 -0.00000000000E+00 -0.10000000000E+04  0.10000000000E+04  0.00000000000E+00 0.  1.
    9000005    2    1    2  501    0  0.29141855278E+02  0.20773235178E+02 -0.62733580951E+03  0.62836204659E+03  0.28051143659E+01 0.  0.
         13    1    3    3    0    0  0.21428439588E+02  0.13742377248E+02 -0.44930181198E+03  0.45002238745E+03  0.00000000000E+00 0.  1.
          3    1    3    3  501    0  0.77134156901E+01  0.70308579305E+01 -0.17803399753E+03  0.17833965913E+03  0.00000000000E+00 0.  1.
         -1    1    1    2    0  502 -0.29141855278E+02 -0.20773235178E+02 -0.37129068545E+03  0.37301145845E+03  0.00000000000E+00 0. -1.
<mgrwt>
<rscale>  1 0.30000000E+03</rscale>
<asrwt>0</asrwt>
<pdfrwt beam="1">  1       21 0.49945743E-02 0.30000000E+03</pdfrwt>
<pdfrwt beam="2">0</pdfrwt>
<totfact> 0.28858017E+04</totfact>
</mgrwt>
</event>
<event>
 6    1  0.6377696E-002  0.3000000E+03  0.7818608E-02  0.1093470E+00
         21   -1    0    0  501  502  0.00000000000E+00  0.00000000000E+00  0.10905378619E+01  0.10905378619E+01  0.00000000000E+00 0. -1.
         13   -1    0    0    0    0 -0.00000000000E+00 -0.00000000000E+00 -0.10000000000E+04  0.10000000000E+04  0.00000000000E+00 0.  1.
    9000005    2    1    2  501    0  0.23395526178E+01  0.30604727766E+02 -0.32157352835E+03  0.32305949870E+03  0.39727441351E+01 0.  0.
         13    1    3    3    0    0  0.24453399745E+01  0.20831030438E+02 -0.20142703251E+03  0.20251607577E+03  0.00000000000E+00 0.  1.
          1    1    3    3  501    0 -0.10578735673E+00  0.97736973284E+01 -0.12014649584E+03  0.12054342294E+03  0.00000000000E+00 0.  1.
         -1    1    1    2    0  502 -0.23395526178E+01 -0.30604727766E+02 -0.67733593378E+03  0.67803103916E+03  0.00000000000E+00 0. -1.
<mgrwt>
<rscale>  1 0.30000000E+03</rscale>
<asrwt>0</asrwt>
<pdfrwt beam="1">  1       21 0.39656006E-02 0.30000000E+03</pdfrwt>
<pdfrwt beam="2">0</pdfrwt>
<totfact> 0.42663240E+04</totfact>
</mgrwt>
</event>
<event>
 6    1  0.6377696E-002  0.3000000E+03  0.7818608E-02  0.1093470E+00
         21   -1    0    0  501  502  0.00000000000E+00  0.00000000000E+00  0.21648122116E+01  0.21648122116E+01  0.00000000000E+00 0. -1.
         13   -1    0    0    0    0 -0.00000000000E+00 -0.00000000000E+00 -0.10000000000E+04  0.10000000000E+04  0.00000000000E+00 0.  1.
    9000005    2    1    2  501    0  0.17546288884E+02 -0.29652143179E+02 -0.16380428729E+03  0.16742253771E+03  0.33674546770E+01 0.  0.
         13    1    3    3    0    0  0.13600659385E+02 -0.23047814236E+02 -0.12000632876E+03  0.12295405084E+03  0.00000000000E+00 0.  1.
          1    1    3    3  501    0  0.39456294986E+01 -0.66043289430E+01 -0.43797958535E+02  0.44468486872E+02  0.00000000000E+00 0.  1.
         -1    1    1    2    0  502 -0.17546288884E+02  0.29652143179E+02 -0.83403090050E+03  0.83474227450E+03  0.00000000000E+00 0. -1.
<mgrwt>
<rscale>  1 0.30000000E+03</rscale>
<asrwt>0</asrwt>
<pdfrwt beam="1">  1       21 0.78720610E-02 0.30000000E+03</pdfrwt>
<pdfrwt beam="2">0</pdfrwt>
<totfact> 0.13140590E+04</totfact>
</mgrwt>
</event>
<event>
 6    1  0.6377696E-002  0.3000000E+03  0.7818608E-02  0.1093470E+00
         21   -1    0    0  501  502  0.00000000000E+00  0.00000000000E+00  0.12631818568E+01  0.12631818568E+01  0.00000000000E+00 0. -1.
         13   -1    0    0    0    0 -0.00000000000E+00 -0.00000000000E+00 -0.10000000000E+04  0.10000000000E+04  0.00000000000E+00 0.  1.
    9000005    2    1    2  501    0  0.14283906727E+02 -0.31910579214E+02 -0.48760066750E+03  0.48893274205E+03  0.88600364561E+01 0.  0.
         13    1    3    3    0    0  0.10439822783E+02 -0.16586353238E+02 -0.31562689296E+03  0.31623477445E+03  0.00000000000E+00 0.  1.
          1    1    3    3  501    0  0.38440839446E+01 -0.15324225977E+02 -0.17197377454E+03  0.17269796760E+03  0.00000000000E+00 0.  1.
         -1    1    1    2    0  502 -0.14283906727E+02  0.31910579214E+02 -0.51113615064E+03  0.51233043981E+03  0.00000000000E+00 0. -1.
<mgrwt>
<rscale>  1 0.30000000E+03</rscale>
<asrwt>0</asrwt>
<pdfrwt beam="1">  1       21 0.45933983E-02 0.30000000E+03</pdfrwt>
<pdfrwt beam="2">0</pdfrwt>
<totfact> 0.33276880E+04</totfact>
</mgrwt>
</event>
<event>
 6    1  0.6377696E-002  0.3000000E+03  0.7818608E-02  0.1093470E+00
         21   -1    0    0  501  502  0.00000000000E+00  0.00000000000E+00  0.13379840531E+01  0.13379840531E+01  0.00000000000E+00 0. -1.
         13   -1    0    0    0    0 -0.00000000000E+00 -0.00000000000E+00 -0.10000000000E+04  0.10000000000E+04  0.00000000000E+00 0.  1.
    9000005    2    1    2  501    0 -0.21420910382E+02  0.24660956971E+02 -0.27734904005E+03  0.27928575090E+03  0.33200060761E+01 0.  0.
         13    1    3    3    0    0 -0.79196955998E+01  0.10915123621E+02 -0.12393926566E+03  0.12467077876E+03  0.00000000000E+00 0.  1.
          1    1    3    3  501    0 -0.13501214782E+02  0.13745833350E+02 -0.15340977439E+03  0.15461497215E+03  0.00000000000E+00 0.  1.
         -1    1    1    2    0  502  0.21420910382E+02 -0.24660956971E+02 -0.72131297590E+03  0.72205223315E+03  0.00000000000E+00 0. -1.
<mgrwt>
<rscale>  1 0.30000000E+03</rscale>
<asrwt>0</asrwt>
<pdfrwt beam="1">  1       21 0.48654068E-02 0.30000000E+03</pdfrwt>
<pdfrwt beam="2">0</pdfrwt>
<totfact> 0.30175333E+04</totfact>
</mgrwt>
</event>
<event>
 6    1  0.6377696E-002  0.3000000E+03  0.7818608E-02  0.1093470E+00
         21   -1    0    0  501  502  0.00000000000E+00  0.00000000000E+00  0.27853682377E+01  0.27853682377E+01  0.00000000000E+00 0. -1.
         13   -1    0    0    0    0 -0.00000000000E+00 -0.00000000000E+00 -0.10000000000E+04  0.10000000000E+04  0.00000000000E+00 0.  1.
    9000005    2    1    2  501    0 -0.35455704872E+02 -0.26121516188E+02 -0.77440214029E+03  0.77566239060E+03  0.37454888053E+01 0.  0.
         13    1    3    3    0    0 -0.12271960752E+02 -0.90687925891E+01 -0.30046629994E+03  0.30085352154E+03  0.00000000000E+00 0.  1.
          3    1    3    3  501    0 -0.23183744120E+02 -0.17052723599E+02 -0.47393584035E+03  0.47480886906E+03  0.00000000000E+00 0.  1.
         -1    1    1    2    0  502  0.35455704872E+02  0.26121516188E+02 -0.22281249147E+03  0.22712297764E+03  0.00000000000E+00 0. -1.
<mgrwt>
<rscale>  1 0.30000000E+03</rscale>
<asrwt>0</asrwt>
<pdfrwt beam="1">  1       21 0.10128633E-01 0.30000000E+03</pdfrwt>
<pdfrwt beam="2">0</pdfrwt>
<totfact> 0.84088697E+03</totfact>
</mgrwt>
</event>
<event>
 6    1  0.6377696E-002  0.3000000E+03  0.7818608E-02  0.1093470E+00
         21   -1    0    0  501  502  0.00000000000E+00  0.00000000000E+00  0.13043789210E+01  0.13043789210E+01  0.00000000000E+00 0. -1.
         13   -1    0    0    0    0 -0.00000000000E+00 -0.00000000000E+00 -0.10000000000E+04  0.10000000000E+04  0.00000000000E+00 0.  1.
    9000005    2    1    2  501    0  0.16052486625E+01  0.35733554155E+02 -0.43921912478E+03  0.44068560148E+03  0.33009176961E+01 0.  0.
         13    1    3    3    0    0  0.31575712218E+00  0.31101928788E+02 -0.38391369691E+03  0.38517159339E+03  0.00000000000E+00 0.  1.
          1    1    3    3  501    0  0.12894915403E+01  0.46316253671E+01 -0.55305427873E+02  0.55514008089E+02  0.00000000000E+00 0.  1.
         -1    1    1    2    0  502 -0.16052486625E+01 -0.35733554155E+02 -0.55947649630E+03  0.56061877745E+03  0.00000000000E+00 0. -1.
<mgrwt>
<rscale>  1 0.30000000E+03</rscale>
<asrwt>0</asrwt>
<pdfrwt beam="1">  1       21 0.47432061E-02 0.30000000E+03</pdfrwt>
<pdfrwt beam="2">0</pdfrwt>
<totfact> 0.31510167E+04</totfact>
</mgrwt>
</event>
<event>
 6    1  0.6377696E-002  0.3000000E+03  0.7818608E-02  0.1093470E+00
         21   -1    0    0  501  502  0.00000000000E+00  0.00000000000E+00  0.11448346611E+01  0.11448346611E+01  0.00000000000E+00 0. -1.
         13   -1    0    0    0    0 -0.00000000000E+00 -0.00000000000E+00 -0.10000000000E+04  0.10000000000E+04  0.00000000000E+00 0.  1.
    9000005    2    1    2  501    0 -0.22808655650E+01 -0.33314009269E+02 -0.43801509847E+03  0.43931157989E+03  0.47341500101E+01 0.  0.
         13    1    3    3    0    0 -0.37049663176E+01 -0.25814289559E+02 -0.33355832217E+03  0.33457623736E+03  0.00000000000E+00 0.  1.
          1    1    3    3  501    0  0.14241007526E+01 -0.74997197099E+01 -0.10445677630E+03  0.10473534252E+03  0.00000000000E+00 0.  1.
         -1    1    1    2    0  502  0.22808655650E+01  0.33314009269E+02 -0.56084006687E+03  0.56183325478E+03  0.00000000000E+00 0. -1.
<mgrwt>
<rscale>  1 0.30000000E+03</rscale>
<asrwt>0</asrwt>
<pdfrwt beam="1">  1       21 0.41630439E-02 0.30000000E+03</pdfrwt>
<pdfrwt beam="2">0</pdfrwt>
<totfact> 0.39308595E+04</totfact>
</mgrwt>
</event>
<event>
 6    1  0.6377696E-002  0.3000000E+03  0.7818608E-02  0.1093470E+00
         21   -1    0    0  501  502  0.00000000000E+00  0.00000000000E+00  0.24794315224E+01  0.24794315224E+01  0.00000000000E+00 0. -1.
         13   -1    0    0    0    0 -0.00000000000E+00 -0.00000000000E+00 -0.10000000000E+04  0.10000000000E+04  0.00000000000E+00 0.  1.
    9000005    2    1    2  501    0  0.40866635015E+02 -0.26438551756E+02 -0.60212500767E+03  0.60409930102E+03  0.35159279407E+01 0.  0.
         13    1    3    3    0    0  0.10164774821E+02 -0.60741837609E+01 -0.12925201459E+03  0.12979330349E+03  0.00000000000E+00 0.  1.
          1    1    3    3  501    0  0.30701860195E+02 -0.20364367995E+02 -0.47287299309E+03  0.47430599753E+03  0.00000000000E+00 0.  1.
         -3    1    1    2    0  502 -0.40866635015E+02  0.26438551756E+02 -0.39539556080E+03  0.39838013050E+03  0.00000000000E+00 0. -1.
<mgrwt>
<rscale>  1 0.30000000E+03</rscale>
<asrwt>0</asrwt>
<pdfrwt beam="1">  1       21 0.90161336E-02 0.30000000E+03</pdfrwt>
<pdfrwt beam="2">0</pdfrwt>
<totfact> 0.10345209E+04</totfact>
</mgrwt>
</event>
<event>
 6    1  0.6377696E-002  0.3000000E+03  0.7818608E-02  0.1093470E+00
         21   -1    0    0  501  502  0.00000000000E+00  0.00000000000E+00  0.19561323218E+01  0.19561323218E+01  0.00000000000E+00 0. -1.
         13   -1    0    0    0    0 -0.00000000000E+00 -0.00000000000E+00 -0.10000000000E+04  0.10000000000E+04  0.00000000000E+00 0.  1.
    9000005    2    1    2  501    0  0.16262414705E+02  0.40471761644E+02 -0.42121708601E+03  0.42348265353E+03  0.33607538438E+01 0.  0.
         13    1    3    3    0    0  0.79624655432E+01  0.23815260576E+02 -0.24898685936E+03  0.25024992234E+03  0.00000000000E+00 0.  1.
          3    1    3    3  501    0  0.82999491621E+01  0.16656501068E+02 -0.17223022665E+03  0.17323273119E+03  0.00000000000E+00 0.  1.
         -3    1    1    2    0  502 -0.16262414705E+02 -0.40471761644E+02 -0.57682678166E+03  0.57847347879E+03  0.00000000000E+00 0. -1.
<mgrwt>
<rscale>  1 0.30000000E+03</rscale>
<asrwt>0</asrwt>
<pdfrwt beam="1">  1       21 0.71132234E-02 0.30000000E+03</pdfrwt>
<pdfrwt beam="2">0</pdfrwt>
<totfact> 0.15690663E+04</totfact>
</mgrwt>
</event>
<event>
 6    1  0.6377696E-002  0.3000000E+03  0.7818608E-02  0.1093470E+00
         21   -1    0    0  501  502  0.00000000000E+00  0.00000000000E+00  0.12263556864E+01  0.12263556864E+01  0.00000000000E+00 0. -1.
         13   -1    0    0    0    0 -0.00000000000E+00 -0.00000000000E+00 -0.10000000000E+04  0.10000000000E+04  0.00000000000E+00 0.  1.
    9000005    2    1    2  501    0  0.25608039482E+02  0.23748049585E+02 -0.50084627100E+03  0.50207566637E+03  0.36395117710E+01 0.  0.
         13    1    3    3    0    0  0.84072625872E+01  0.91525848479E+01 -0.19888909019E+03  0.19927699834E+03  0.00000000000E+00 0.  1.
          3    1    3    3  501    0  0.17200776895E+02  0.14595464737E+02 -0.30195718081E+03  0.30279866803E+03  0.00000000000E+00 0.  1.
         -1    1    1    2    0  502 -0.25608039482E+02 -0.23748049585E+02 -0.49792737331E+03  0.49915068931E+03  0.00000000000E+00 0. -1.
<mgrwt>
<rscale>  1 0.30000000E+03</rscale>
<asrwt>0</asrwt>
<pdfrwt beam="1">  1       21 0.44594846E-02 0.30000000E+03</pdfrwt>
<pdfrwt beam="2">0</pdfrwt>
<totfact> 0.34990909E+04</totfact>
</mgrwt>
</event>
<event>
 6    1  0.6377696E-002  0.3000000E+03  0.7818608E-02  0.1093470E+00
         21   -1    0    0  501  502  0.00000000000E+00  0.00000000000E+00  0.11511938416E+01  0.11511938416E+01  0.00000000000E+00 0. -1.
         13   -1    0    0    0    0 -0.00000000000E+00 -0.00000000000E+00 -0.10000000000E+04  0.10000000000E+04  0.00000000000E+00 0.  1.
    9000005    2    1    2  501    0  0.23648062540E+02  0.21917631537E+02 -0.65223083375E+03  0.65303679852E+03  0.35194164463E+01 0.  0.
         13    1    3    3    0    0  0.16783257190E+02  0.17618810885E+02 -0.48641626915E+03  0.48702452414E+03  0.00000000000E+00 0.  1.
          1    1    3    3  501    0  0.68648053501E+01  0.42988206518E+01 -0.16581456460E+03  0.16601227438E+03  0.00000000000E+00 0.  1.
         -1    1    1    2    0  502 -0.23648062540E+02 -0.21917631537E+02 -0.34661797241E+03  0.34811439532E+03  0.00000000000E+00 0. -1.
<mgrwt>
<rscale>  1 0.30000000E+03</rscale>
<asrwt>0</asrwt>
<pdfrwt beam="1">  1       21 0.41861683E-02 0.30000000E+03</pdfrwt>
<pdfrwt beam="2">0</pdfrwt>
<totfact> 0.38942757E+04</totfact>
</mgrwt>
</event>
<event>
 6    1  0.6377696E-002  0.3000000E+03  0.7818608E-02  0.1093470E+00
         21   -1    0    0  501  502  0.00000000000E+00  0.00000000000E+00  0.21490055294E+01  0.21490055294E+01  0.00000000000E+00 0. -1.
         13   -1    0    0    0    0 -0.00000000000E+00 -0.00000000000E+00 -0.10000000000E+04  0.10000000000E+04  0.00000000000E+00 0.  1.
    9000005    2    1    2  501    0 -0.45671080407E+02  0.47034162347E+01 -0.55824313216E+03  0.56015008888E+03  0.49757174227E+01 0.  0.
         13    1    3    3    0    0 -0.13747681506E+02 -0.58345949870E+00 -0.18027335810E+03  0.18079774006E+03  0.00000000000E+00 0.  1.
          3    1    3    3  501    0 -0.31923398901E+02  0.52868757334E+01 -0.37796977406E+03  0.37935234882E+03  0.00000000000E+00 0.  1.
         -1    1    1    2    0  502  0.45671080407E+02 -0.47034162347E+01 -0.43960786231E+03  0.44199891664E+03  0.00000000000E+00 0. -1.
<mgrwt>
<rscale>  1 0.30000000E+03</rscale>
<asrwt>0</asrwt>
<pdfrwt beam="1">  1       21 0.78145820E-02 0.30000000E+03</pdfrwt>
<pdfrwt beam="2">0</pdfrwt>
<totfact> 0.13310645E+04</totfact>
</mgrwt>
</event>
<event>
 6    1  0.6377696E-002  0.3000000E+03  0.7818608E-02  0.1093470E+00
         21   -1    0    0  501  502  0.00000000000E+00  0.00000000000E+00  0.36672468109E+01  0.36672468109E+01  0.00000000000E+00 0. -1.
         13   -1    0    0    0    0 -0.00000000000E+00 -0.00000000000E+00 -0.10000000000E+04  0.10000000000E+04  0.00000000000E+00 0.  1.
    9000005    2    1    2  501    0  0.84734328877E+01 -0.50124149612E+02 -0.22684950923E+03  0.23250663308E+03  0.37954114437E+01 0.  0.
         13    1    3    3    0    0  0.72750799179E+01 -0.32787433966E+02 -0.14690492575E+03  0.15069505573E+03  0.00000000000E+00 0.  1.
          1    1    3    3  501    0  0.11983529698E+01 -0.17336715646E+02 -0.79944583483E+02  0.81811577344E+02  0.00000000000E+00 0.  1.
         -1    1    1    2    0  502 -0.84734328877E+01  0.50124149612E+02 -0.76948324396E+03  0.77116061374E+03  0.00000000000E+00 0. -1.
<mgrwt>
<rscale>  1 0.30000000E+03</rscale>
<asrwt>0</asrwt>
<pdfrwt beam="1">  1       21 0.13335471E-01 0.30000000E+03</pdfrwt>
<pdfrwt beam="2">0</pdfrwt>
<totfact> 0.51127871E+03</totfact>
</mgrwt>
</event>
<event>
 6    1  0.6377696E-002  0.3000000E+03  0.7818608E-02  0.1093470E+00
         21   -1    0    0  501  502  0.00000000000E+00  0.00000000000E+00  0.12481275649E+01  0.12481275649E+01  0.00000000000E+00 0. -1.
         13   -1    0    0    0    0 -0.00000000000E+00 -0.00000000000E+00 -0.10000000000E+04  0.10000000000E+04  0.00000000000E+00 0.  1.
    9000005    2    1    2  501    0  0.32140961079E+02  0.13212589154E+02 -0.41693532521E+03  0.41839470816E+03  0.33841563295E+01 0.  0.
         13    1    3    3    0    0  0.15409529042E+02  0.74836961693E+01 -0.18939258903E+03  0.19016574895E+03  0.00000000000E+00 0.  1.
          3    1    3    3  501    0  0.16731432037E+02  0.57288929843E+01 -0.22754273618E+03  0.22822895921E+03  0.00000000000E+00 0.  1.
         -1    1    1    2    0  502 -0.32140961079E+02 -0.13212589154E+02 -0.58181654722E+03  0.58285341941E+03  0.00000000000E+00 0. -1.
<mgrwt>
<rscale>  1 0.30000000E+03</rscale>
<asrwt>0</asrwt>
<pdfrwt beam="1">  1       21 0.45386553E-02 0.30000000E+03</pdfrwt>
<pdfrwt beam="2">0</pdfrwt>
<totfact> 0.33961495E+04</totfact>
</mgrwt>
</event>
<event>
 6    1  0.6377696E-002  0.3000000E+03  0.7818608E-02  0.1093470E+00
         21   -1    0    0  501  502  0.00000000000E+00  0.00000000000E+00  0.11646003463E+01  0.11646003463E+01  0.00000000000E+00 0. -1.
         13   -1    0    0    0    0 -0.00000000000E+00 -0.00000000000E+00 -0.10000000000E+04  0.10000000000E+04  0.00000000000E+00 0.  1.
    9000005    2    1    2  501    0  0.29094420768E+02  0.15618905140E+02 -0.62090638474E+03  0.62179568250E+03  0.38336199143E+01 0.  0.
         13    1    3    3    0    0  0.52913081473E+01  0.33690053198E+01 -0.93348930183E+02  0.93559451180E+02  0.00000000000E+00 0.  1.
          3    1    3    3  501    0  0.23803112621E+02  0.12249899820E+02 -0.52755745456E+03  0.52823623132E+03  0.00000000000E+00 0.  1.
         -3    1    1    2    0  502 -0.29094420768E+02 -0.15618905140E+02 -0.37792901491E+03  0.37936891785E+03  0.00000000000E+00 0. -1.
<mgrwt>
<rscale>  1 0.30000000E+03</rscale>
<asrwt>0</asrwt>
<pdfrwt beam="1">  1       21 0.42349193E-02 0.30000000E+03</pdfrwt>
<pdfrwt beam="2">0</pdfrwt>
<totfact> 0.38188634E+04</totfact>
</mgrwt>
</event>
<event>
 6    1  0.6377696E-002  0.3000000E+03  0.7818608E-02  0.1093470E+00
         21   -1    0    0  501  502  0.00000000000E+00  0.00000000000E+00  0.14058322588E+01  0.14058322588E+01  0.00000000000E+00 0. -1.
         13   -1    0    0    0    0 -0.00000000000E+00 -0.00000000000E+00 -0.10000000000E+04  0.10000000000E+04  0.00000000000E+00 0.  1.
    9000005    2    1    2  501    0  0.26978760730E+02  0.20035398234E+02 -0.28094360701E+03  0.28296891921E+03  0.35816485428E+01 0.  0.
         13    1    3    3    0    0  0.14951525408E+02  0.88936845395E+01 -0.14264282809E+03  0.14369976389E+03  0.00000000000E+00 0.  1.
          3    1    3    3  501    0  0.12027235321E+02  0.11141713695E+02 -0.13830077893E+03  0.13926915533E+03  0.00000000000E+00 0.  1.
         -3    1    1    2    0  502 -0.26978760730E+02 -0.20035398234E+02 -0.71765056073E+03  0.71843691304E+03  0.00000000000E+00 0. -1.
<mgrwt>
<rscale>  1 0.30000000E+03</rscale>
<asrwt>0</asrwt>
<pdfrwt beam="1">  1       21 0.51121281E-02 0.30000000E+03</pdfrwt>
<pdfrwt beam="2">0</pdfrwt>
<totfact> 0.27735370E+04</totfact>
</mgrwt>
</event>
<event>
 6    1  0.6377696E-002  0.3000000E+03  0.7818608E-02  0.1093470E+00
         21   -1    0    0  501  502  0.00000000000E+00  0.00000000000E+00  0.42920241535E+01  0.42920241535E+01  0.00000000000E+00 0. -1.
         13   -1    0    0    0    0 -0.00000000000E+00 -0.00000000000E+00 -0.10000000000E+04  0.10000000000E+04  0.00000000000E+00 0.  1.
    9000005    2    1    2  501    0  0.62664077616E+02  0.15474031152E+02 -0.41340334498E+03  0.41842095011E+03  0.27447391726E+01 0.  0.
         13    1    3    3    0    0  0.37708361095E+02  0.98907866509E+01 -0.24168387129E+03  0.24480776499E+03  0.00000000000E+00 0.  1.
          1    1    3    3  501    0  0.24955716520E+02  0.55832445013E+01 -0.17171947369E+03  0.17361318513E+03  0.00000000000E+00 0.  1.
         -3    1    1    2    0  502 -0.62664077616E+02 -0.15474031152E+02 -0.58230463087E+03  0.58587107404E+03  0.00000000000E+00 0. -1.
<mgrwt>
<rscale>  1 0.30000000E+03</rscale>
<asrwt>0</asrwt>
<pdfrwt beam="1">  1       21 0.15607393E-01 0.30000000E+03</pdfrwt>
<pdfrwt beam="2">0</pdfrwt>
<totfact> 0.38256299E+03</totfact>
</mgrwt>
</event>
<event>
 6    1  0.6377696E-002  0.3000000E+03  0.7818608E-02  0.1093470E+00
         21   -1    0    0  501  502  0.00000000000E+00  0.00000000000E+00  0.15058243666E+01  0.15058243666E+01  0.00000000000E+00 0. -1.
         13   -1    0    0    0    0 -0.00000000000E+00 -0.00000000000E+00 -0.10000000000E+04  0.10000000000E+04  0.00000000000E+00 0.  1.
    9000005    2    1    2  501    0  0.28439290776E+02 -0.12301928239E+02 -0.80019045868E+03  0.80079584740E+03  0.30146882124E+01 0.  0.
         13    1    3    3    0    0  0.73688445839E+01 -0.22550395290E+01 -0.17441644900E+03  0.17458660531E+03  0.00000000000E+00 0.  1.
          3    1    3    3  501    0  0.21070446192E+02 -0.10046888710E+02 -0.62577400968E+03  0.62620924208E+03  0.00000000000E+00 0.  1.
         -1    1    1    2    0  502 -0.28439290776E+02  0.12301928239E+02 -0.19830371695E+03  0.20070997697E+03  0.00000000000E+00 0. -1.
<mgrwt>
<rscale>  1 0.30000000E+03</rscale>
<asrwt>0</asrwt>
<pdfrwt beam="1">  1       21 0.54757365E-02 0.30000000E+03</pdfrwt>
<pdfrwt beam="2">0</pdfrwt>
<totfact> 0.24660365E+04</totfact>
</mgrwt>
</event>
<event>
 6    1  0.6377696E-002  0.3000000E+03  0.7818608E-02  0.1093470E+00
         21   -1    0    0  501  502  0.00000000000E+00  0.00000000000E+00  0.12142853689E+01  0.12142853689E+01  0.00000000000E+00 0. -1.
         13   -1    0    0    0    0 -0.00000000000E+00 -0.00000000000E+00 -0.10000000000E+04  0.10000000000E+04  0.00000000000E+00 0.  1.
    9000005    2    1    2  501    0 -0.27095592154E+02 -0.17524417167E+02 -0.68634306209E+03  0.68710970495E+03  0.34163504701E+01 0.  0.
         13    1    3    3    0    0 -0.27184379264E+02 -0.17504355419E+02 -0.68541902943E+03  0.68618119971E+03  0.00000000000E+00 0.  1.
          1    1    3    3  501    0  0.88787109667E-01 -0.20061747347E-01 -0.92403266051E+00  0.92850524083E+00  0.00000000000E+00 0.  1.
         -3    1    1    2    0  502  0.27095592154E+02  0.17524417167E+02 -0.31244265254E+03  0.31410458041E+03  0.00000000000E+00 0. -1.
<mgrwt>
<rscale>  1 0.30000000E+03</rscale>
<asrwt>0</asrwt>
<pdfrwt beam="1">  1       21 0.44155925E-02 0.30000000E+03</pdfrwt>
<pdfrwt beam="2">0</pdfrwt>
<totfact> 0.35582513E+04</totfact>
</mgrwt>
</event>
<event>
 6    1  0.6377696E-002  0.3000000E+03  0.7818608E-02  0.1093470E+00
         21   -1    0    0  501  502  0.00000000000E+00  0.00000000000E+00  0.17343867440E+01  0.17343867440E+01  0.00000000000E+00 0. -1.
         13   -1    0    0    0    0 -0.00000000000E+00 -0.00000000000E+00 -0.10000000000E+04  0.10000000000E+04  0.00000000000E+00 0.  1.
    9000005    2    1    2  501    0 -0.30309194141E+02  0.27550539836E+02 -0.41408130797E+03  0.41611592559E+03  0.33844393710E+01 0.  0.
         13    1    3    3    0    0 -0.16040551816E+02  0.16760532529E+02 -0.23846208765E+03  0.23958794210E+03  0.00000000000E+00 0.  1.
          3    1    3    3  501    0 -0.14268642324E+02  0.10790007307E+02 -0.17561922032E+03  0.17652798349E+03  0.00000000000E+00 0.  1.
         -3    1    1    2    0  502  0.30309194141E+02 -0.27550539836E+02 -0.58418430529E+03  0.58561846115E+03  0.00000000000E+00 0. -1.
<mgrwt>
<rscale>  1 0.30000000E+03</rscale>
<asrwt>0</asrwt>
<pdfrwt beam="1">  1       21 0.63068742E-02 0.30000000E+03</pdfrwt>
<pdfrwt beam="2">0</pdfrwt>
<totfact> 0.19332935E+04</totfact>
</mgrwt>
</event>
<event>
 6    1  0.6377696E-002  0.3000000E+03  0.7818608E-02  0.1093470E+00
         21   -1    0    0  501  502  0.00000000000E+00  0.00000000000E+00  0.13639320917E+01  0.13639320917E+01  0.00000000000E+00 0. -1.
         13   -1    0    0    0    0 -0.00000000000E+00 -0.00000000000E+00 -0.10000000000E+04  0.10000000000E+04  0.00000000000E+00 0.  1.
    9000005    2    1    2  501    0 -0.26777062379E+02  0.24804236633E+02 -0.55488245448E+03  0.55611172193E+03  0.57834031463E+01 0.  0.
         13    1    3    3    0    0 -0.24004549619E+02  0.20256352795E+02 -0.45063272738E+03  0.45172601565E+03  0.00000000000E+00 0.  1.
          3    1    3    3  501    0 -0.27725127604E+01  0.45478838377E+01 -0.10424972710E+03  0.10438570627E+03  0.00000000000E+00 0.  1.
         -3    1    1    2    0  502  0.26777062379E+02 -0.24804236633E+02 -0.44375361343E+03  0.44525221017E+03  0.00000000000E+00 0. -1.
<mgrwt>
<rscale>  1 0.30000000E+03</rscale>
<asrwt>0</asrwt>
<pdfrwt beam="1">  1       21 0.49597635E-02 0.30000000E+03</pdfrwt>
<pdfrwt beam="2">0</pdfrwt>
<totfact> 0.29204074E+04</totfact>
</mgrwt>
</event>
<event>
 6    1  0.6377696E-002  0.3000000E+03  0.7818608E-02  0.1093470E+00
         21   -1    0    0  501  502  0.00000000000E+00  0.00000000000E+00  0.12591206753E+01  0.12591206753E+01  0.00000000000E+00 0. -1.
         13   -1    0    0    0    0 -0.00000000000E+00 -0.00000000000E+00 -0.10000000000E+04  0.10000000000E+04  0.00000000000E+00 0.  1.
    9000005    2    1    2  501    0 -0.29427198774E+02 -0.11264319665E+02 -0.72846204313E+03  0.72914977828E+03  0.30993477244E+01 0.  0.
         13    1    3    3    0    0 -0.15182234162E+02 -0.53993992563E+01 -0.33778647876E+03  0.33817060632E+03  0.00000000000E+00 0.  1.
          1    1    3    3  501    0 -0.14244964611E+02 -0.58649204083E+01 -0.39067556437E+03  0.39097917196E+03  0.00000000000E+00 0.  1.
         -1    1    1    2    0  502  0.29427198774E+02  0.11264319665E+02 -0.27027883619E+03  0.27210934239E+03  0.00000000000E+00 0. -1.
<mgrwt>
<rscale>  1 0.30000000E+03</rscale>
<asrwt>0</asrwt>
<pdfrwt beam="1">  1       21 0.45786303E-02 0.30000000E+03</pdfrwt>
<pdfrwt beam="2">0</pdfrwt>
<totfact> 0.33459420E+04</totfact>
</mgrwt>
</event>
<event>
 6    1  0.6377696E-002  0.3000000E+03  0.7818608E-02  0.1093470E+00
         21   -1    0    0  501  502  0.00000000000E+00  0.00000000000E+00  0.11387441313E+01  0.11387441313E+01  0.00000000000E+00 0. -1.
         13   -1    0    0    0    0 -0.00000000000E+00 -0.00000000000E+00 -0.10000000000E+04  0.10000000000E+04  0.00000000000E+00 0.  1.
    9000005    2    1    2  501    0 -0.21213170969E+02  0.23805858477E+02 -0.34063206709E+03  0.34213769521E+03  0.33585462048E+01 0.  0.
         13    1    3    3    0    0 -0.23275505546E+01  0.37888368200E+01 -0.38941729993E+02  0.39194784231E+02  0.00000000000E+00 0.  1.
          1    1    3    3  501    0 -0.18885620415E+02  0.20017021657E+02 -0.30169033710E+03  0.30294291098E+03  0.00000000000E+00 0.  1.
         -1    1    1    2    0  502  0.21213170969E+02 -0.23805858477E+02 -0.65822918878E+03  0.65900104892E+03  0.00000000000E+00 0. -1.
<mgrwt>
<rscale>  1 0.30000000E+03</rscale>
<asrwt>0</asrwt>
<pdfrwt beam="1">  1       21 0.41408965E-02 0.30000000E+03</pdfrwt>
<pdfrwt beam="2">0</pdfrwt>
<totfact> 0.39664021E+04</totfact>
</mgrwt>
</event>
<event>
 6    1  0.6377696E-002  0.3000000E+03  0.7818608E-02  0.1093470E+00
         21   -1    0    0  501  502  0.00000000000E+00  0.00000000000E+00  0.56166422548E+01  0.56166422548E+01  0.00000000000E+00 0. -1.
         13   -1    0    0    0    0 -0.00000000000E+00 -0.00000000000E+00 -0.10000000000E+04  0.10000000000E+04  0.00000000000E+00 0.  1.
    9000005    2    1    2  501    0 -0.33352726347E+02  0.66952886577E+02 -0.47111249030E+03  0.47702654200E+03  0.34999822011E+01 0.  0.
         13    1    3    3    0    0 -0.17769912618E+02  0.37764164963E+02 -0.25339674798E+03  0.25681085226E+03  0.00000000000E+00 0.  1.
          3    1    3    3  501    0 -0.15582813728E+02  0.29188721613E+02 -0.21771574232E+03  0.22021568974E+03  0.00000000000E+00 0.  1.
         -1    1    1    2    0  502  0.33352726347E+02 -0.66952886577E+02 -0.52327086744E+03  0.52859010026E+03  0.00000000000E+00 0. -1.
<mgrwt>
<rscale>  1 0.30000000E+03</rscale>
<asrwt>0</asrwt>
<pdfrwt beam="1">  1       21 0.20424197E-01 0.30000000E+03</pdfrwt>
<pdfrwt beam="2">0</pdfrwt>
<totfact> 0.23049057E+03</totfact>
</mgrwt>
</event>
<event>
 6    1  0.6377696E-002  0.3000000E+03  0.7818608E-02  0.1093470E+00
         21   -1    0    0  501  502  0.00000000000E+00  0.00000000000E+00  0.15778886533E+01  0.15778886533E+01  0.00000000000E+00 0. -1.
         13   -1    0    0    0    0 -0.00000000000E+00 -0.00000000000E+00 -0.10000000000E+04  0.10000000000E+04  0.00000000000E+00 0.  1.
    9000005    2    1    2  501    0  0.19166285541E+02 -0.33265857798E+02 -0.61769301229E+03  0.61891797350E+03  0.63903593988E+01 0.  0.
         13    1    3    3    0    0  0.10273394783E+02 -0.23687683162E+02 -0.42158479084E+03  0.42237469720E+03  0.00000000000E+00 0.  1.
          3    1    3    3  501    0  0.88928907582E+01 -0.95781746355E+01 -0.19610822146E+03  0.19654327630E+03  0.00000000000E+00 0.  1.
         -3    1    1    2    0  502 -0.19166285541E+02  0.33265857798E+02 -0.38072909906E+03  0.38265991515E+03  0.00000000000E+00 0. -1.
<mgrwt>
<rscale>  1 0.30000000E+03</rscale>
<asrwt>0</asrwt>
<pdfrwt beam="1">  1       21 0.57377890E-02 0.30000000E+03</pdfrwt>
<pdfrwt beam="2">0</pdfrwt>
<totfact> 0.22758128E+04</totfact>
</mgrwt>
</event>
<event>
 6    1  0.6377696E-002  0.3000000E+03  0.7818608E-02  0.1093470E+00
         21   -1    0    0  501  502  0.00000000000E+00  0.00000000000E+00  0.27586880857E+01  0.27586880857E+01  0.00000000000E+00 0. -1.
         13   -1    0    0    0    0 -0.00000000000E+00 -0.00000000000E+00 -0.10000000000E+04  0.10000000000E+04  0.00000000000E+00 0.  1.
    9000005    2    1    2  501    0  0.45052182054E+01  0.43156290997E+02 -0.78073593339E+03  0.78194804211E+03  0.33734906083E+01 0.  0.
         13    1    3    3    0    0  0.45095854222E+01  0.35919352345E+02 -0.63159946058E+03  0.63263608405E+03  0.00000000000E+00 0.  1.
          1    1    3    3  501    0 -0.43672167771E-02  0.72369386516E+01 -0.14913647280E+03  0.14931195806E+03  0.00000000000E+00 0.  1.
         -1    1    1    2    0  502 -0.45052182054E+01 -0.43156290997E+02 -0.21650537853E+03  0.22081064597E+03  0.00000000000E+00 0. -1.
<mgrwt>
<rscale>  1 0.30000000E+03</rscale>
<asrwt>0</asrwt>
<pdfrwt beam="1">  1       21 0.10031614E-01 0.30000000E+03</pdfrwt>
<pdfrwt beam="2">0</pdfrwt>
<totfact> 0.85548074E+03</totfact>
</mgrwt>
</event>
<event>
 6    1  0.6377696E-002  0.3000000E+03  0.7818608E-02  0.1093470E+00
         21   -1    0    0  501  502  0.00000000000E+00  0.00000000000E+00  0.12649308217E+01  0.12649308217E+01  0.00000000000E+00 0. -1.
         13   -1    0    0    0    0 -0.00000000000E+00 -0.00000000000E+00 -0.10000000000E+04  0.10000000000E+04  0.00000000000E+00 0.  1.
    9000005    2    1    2  501    0 -0.32767733271E+02  0.13069232624E+02 -0.44372980280E+03  0.44513960781E+03  0.29331492984E+01 0.  0.
         13    1    3    3    0    0 -0.15695870613E+02  0.62267201242E+01 -0.23087813955E+03  0.23149481144E+03  0.00000000000E+00 0.  1.
          1    1    3    3  501    0 -0.17071862659E+02  0.68425124997E+01 -0.21285166324E+03  0.21364479637E+03  0.00000000000E+00 0.  1.
         -3    1    1    2    0  502  0.32767733271E+02 -0.13069232624E+02 -0.55500526638E+03  0.55612532301E+03  0.00000000000E+00 0. -1.
<mgrwt>
<rscale>  1 0.30000000E+03</rscale>
<asrwt>0</asrwt>
<pdfrwt beam="1">  1       21 0.45997581E-02 0.30000000E+03</pdfrwt>
<pdfrwt beam="2">0</pdfrwt>
<totfact> 0.33198750E+04</totfact>
</mgrwt>
</event>
<event>
 6    1  0.6377696E-002  0.3000000E+03  0.7818608E-02  0.1093470E+00
         21   -1    0    0  501  502  0.00000000000E+00  0.00000000000E+00  0.15017150215E+01  0.15017150215E+01  0.00000000000E+00 0. -1.
         13   -1    0    0    0    0 -0.00000000000E+00 -0.00000000000E+00 -0.10000000000E+04  0.10000000000E+04  0.00000000000E+00 0.  1.
    9000005    2    1    2  501    0  0.30956978117E+02  0.57095596635E+01 -0.22005406698E+03  0.22242127367E+03  0.75164499309E+01 0.  0.
         13    1    3    3    0    0  0.75267221245E+01  0.15893668389E+01 -0.34428053109E+02  0.35277024730E+02  0.00000000000E+00 0.  1.
          3    1    3    3  501    0  0.23430255993E+02  0.41201928246E+01 -0.18562601387E+03  0.18714424894E+03  0.00000000000E+00 0.  1.
         -3    1    1    2    0  502 -0.30956978117E+02 -0.57095596635E+01 -0.77844421800E+03  0.77908044135E+03  0.00000000000E+00 0. -1.
<mgrwt>
<rscale>  1 0.30000000E+03</rscale>
<asrwt>0</asrwt>
<pdfrwt beam="1">  1       21 0.54607934E-02 0.30000000E+03</pdfrwt>
<pdfrwt beam="2">0</pdfrwt>
<totfact> 0.24776138E+04</totfact>
</mgrwt>
</event>
<event>
 6    1  0.6377696E-002  0.3000000E+03  0.7818608E-02  0.1093470E+00
         21   -1    0    0  501  502  0.00000000000E+00  0.00000000000E+00  0.99838280331E+01  0.99838280331E+01  0.00000000000E+00 0. -1.
         13   -1    0    0    0    0 -0.00000000000E+00 -0.00000000000E+00 -0.10000000000E+04  0.10000000000E+04  0.00000000000E+00 0.  1.
    9000005    2    1    2  501    0 -0.87105866842E+02  0.26793521965E+02 -0.70185561848E+03  0.70775571974E+03  0.33948155785E+01 0.  0.
         13    1    3    3    0    0 -0.48737109780E+02  0.13296622455E+02 -0.38513978923E+03  0.38843887973E+03  0.00000000000E+00 0.  1.
          1    1    3    3  501    0 -0.38368757062E+02  0.13496899509E+02 -0.31671582925E+03  0.31931684001E+03  0.00000000000E+00 0.  1.
         -1    1    1    2    0  502  0.87105866842E+02 -0.26793521965E+02 -0.28816055349E+03  0.30222810830E+03  0.00000000000E+00 0. -1.
<mgrwt>
<rscale>  1 0.30000000E+03</rscale>
<asrwt>0</asrwt>
<pdfrwt beam="1">  1       21 0.36304906E-01 0.30000000E+03</pdfrwt>
<pdfrwt beam="2">0</pdfrwt>
<totfact> 0.73825845E+02</totfact>
</mgrwt>
</event>
<event>
 6    1  0.6377696E-002  0.3000000E+03  0.7818608E-02  0.1093470E+00
         21   -1    0    0  501  502  0.00000000000E+00  0.00000000000E+00  0.17809240749E+01  0.17809240749E+01  0.00000000000E+00 0. -1.
         13   -1    0    0    0    0 -0.00000000000E+00 -0.00000000000E+00 -0.10000000000E+04  0.10000000000E+04  0.00000000000E+00 0.  1.
    9000005    2    1    2  501    0 -0.37896468968E+02 -0.11387517555E+02 -0.67071460918E+03  0.67189458962E+03  0.42935636346E+01 0.  0.
         13    1    3    3    0    0 -0.75675259446E+01 -0.41096562112E+01 -0.14736956662E+03  0.14762095342E+03  0.00000000000E+00 0.  1.
          1    1    3    3  501    0 -0.30328943023E+02 -0.72778613441E+01 -0.52334504256E+03  0.52427363621E+03  0.00000000000E+00 0.  1.
         -3    1    1    2    0  502  0.37896468968E+02  0.11387517555E+02 -0.32750446675E+03  0.32988633445E+03  0.00000000000E+00 0. -1.
<mgrwt>
<rscale>  1 0.30000000E+03</rscale>
<asrwt>0</asrwt>
<pdfrwt beam="1">  1       21 0.64761012E-02 0.30000000E+03</pdfrwt>
<pdfrwt beam="2">0</pdfrwt>
<totfact> 0.18467436E+04</totfact>
</mgrwt>
</event>
<event>
 6    1  0.6377696E-002  0.3000000E+03  0.7818608E-02  0.1093470E+00
         21   -1    0    0  501  502  0.00000000000E+00  0.00000000000E+00  0.17469167876E+01  0.17469167876E+01  0.00000000000E+00 0. -1.
         13   -1    0    0    0    0 -0.00000000000E+00 -0.00000000000E+00 -0.10000000000E+04  0.10000000000E+04  0.00000000000E+00 0.  1.
    9000005    2    1    2  501    0  0.22603297381E+02 -0.34404516240E+02 -0.41802627089E+03  0.42006166382E+03  0.33553630361E+01 0.  0.
         13    1    3    3    0    0  0.13712493512E+02 -0.18112700620E+02 -0.22291821682E+03  0.22407283145E+03  0.00000000000E+00 0.  1.
          3    1    3    3  501    0  0.88908038692E+01 -0.16291815620E+02 -0.19510805407E+03  0.19598883237E+03  0.00000000000E+00 0.  1.
         -1    1    1    2    0  502 -0.22603297381E+02  0.34404516240E+02 -0.58022681232E+03  0.58168525297E+03  0.00000000000E+00 0. -1.
<mgrwt>
<rscale>  1 0.30000000E+03</rscale>
<asrwt>0</asrwt>
<pdfrwt beam="1">  1       21 0.63524381E-02 0.30000000E+03</pdfrwt>
<pdfrwt beam="2">0</pdfrwt>
<totfact> 0.19093824E+04</totfact>
</mgrwt>
</event>
<event>
 6    1  0.6377696E-002  0.3000000E+03  0.7818608E-02  0.1093470E+00
         21   -1    0    0  501  502  0.00000000000E+00  0.00000000000E+00  0.93937983791E+00  0.93937983791E+00  0.00000000000E+00 0. -1.
         13   -1    0    0    0    0 -0.00000000000E+00 -0.00000000000E+00 -0.10000000000E+04  0.10000000000E+04  0.00000000000E+00 0.  1.
    9000005    2    1    2  501    0 -0.13351971211E+02  0.26918725514E+02 -0.41385734136E+03  0.41496517354E+03  0.39119483804E+01 0.  0.
         13    1    3    3    0    0 -0.11734656084E+02  0.25196951228E+02 -0.39076911304E+03  0.39175641438E+03  0.00000000000E+00 0.  1.
          1    1    3    3  501    0 -0.16173151270E+01  0.17217742863E+01 -0.23088228319E+02  0.23208759162E+02  0.00000000000E+00 0.  1.
         -3    1    1    2    0  502  0.13351971211E+02 -0.26918725514E+02 -0.58520327880E+03  0.58597420629E+03  0.00000000000E+00 0. -1.
<mgrwt>
<rscale>  1 0.30000000E+03</rscale>
<asrwt>0</asrwt>
<pdfrwt beam="1">  1       21 0.34159339E-02 0.30000000E+03</pdfrwt>
<pdfrwt beam="2">0</pdfrwt>
<totfact> 0.54801102E+04</totfact>
</mgrwt>
</event>
<event>
 6    1  0.6377696E-002  0.3000000E+03  0.7818608E-02  0.1093470E+00
         21   -1    0    0  501  502  0.00000000000E+00  0.00000000000E+00  0.29422408727E+01  0.29422408727E+01  0.00000000000E+00 0. -1.
         13   -1    0    0    0    0 -0.00000000000E+00 -0.00000000000E+00 -0.10000000000E+04  0.10000000000E+04  0.00000000000E+00 0.  1.
    9000005    2    1    2  501    0 -0.25960005750E+02 -0.29991356552E+02 -0.84034468026E+03  0.84128707562E+03  0.33702506846E+01 0.  0.
         13    1    3    3    0    0 -0.17500780782E+01 -0.98658897755E+00 -0.48516611233E+02  0.48558188770E+02  0.00000000000E+00 0.  1.
          1    1    3    3  501    0 -0.24209927671E+02 -0.29004767574E+02 -0.79182806903E+03  0.79272888685E+03  0.00000000000E+00 0.  1.
         -3    1    1    2    0  502  0.25960005750E+02  0.29991356552E+02 -0.15671307887E+03  0.16165516526E+03  0.00000000000E+00 0. -1.
<mgrwt>
<rscale>  1 0.30000000E+03</rscale>
<asrwt>0</asrwt>
<pdfrwt beam="1">  1       21 0.10699080E-01 0.30000000E+03</pdfrwt>
<pdfrwt beam="2">0</pdfrwt>
<totfact> 0.76226691E+03</totfact>
</mgrwt>
</event>
<event>
 6    1  0.6377696E-002  0.3000000E+03  0.7818608E-02  0.1093470E+00
         21   -1    0    0  501  502  0.00000000000E+00  0.00000000000E+00  0.11784856560E+01  0.11784856560E+01  0.00000000000E+00 0. -1.
         13   -1    0    0    0    0 -0.00000000000E+00 -0.00000000000E+00 -0.10000000000E+04  0.10000000000E+04  0.00000000000E+00 0.  1.
    9000005    2    1    2  501    0  0.80590894966E+01 -0.32953529154E+02 -0.56560522037E+03  0.56663591999E+03  0.40145374479E+01 0.  0.
         13    1    3    3    0    0  0.69608692202E+00 -0.11967672892E+01 -0.14011459368E+02  0.14079693980E+02  0.00000000000E+00 0.  1.
          3    1    3    3  501    0  0.73630025746E+01 -0.31756761865E+02 -0.55159376100E+03  0.55255622601E+03  0.00000000000E+00 0.  1.
         -1    1    1    2    0  502 -0.80590894966E+01  0.32953529154E+02 -0.43321629398E+03  0.43454256567E+03  0.00000000000E+00 0. -1.
<mgrwt>
<rscale>  1 0.30000000E+03</rscale>
<asrwt>0</asrwt>
<pdfrwt beam="1">  1       21 0.42854114E-02 0.30000000E+03</pdfrwt>
<pdfrwt beam="2">0</pdfrwt>
<totfact> 0.37431239E+04</totfact>
</mgrwt>
</event>
<event>
 6    1  0.6377696E-002  0.3000000E+03  0.7818608E-02  0.1093470E+00
         21   -1    0    0  501  502  0.00000000000E+00  0.00000000000E+00  0.14851246919E+01  0.14851246919E+01  0.00000000000E+00 0. -1.
         13   -1    0    0    0    0 -0.00000000000E+00 -0.00000000000E+00 -0.10000000000E+04  0.10000000000E+04  0.00000000000E+00 0.  1.
    9000005    2    1    2  501    0  0.27288882078E+02 -0.17393885787E+02 -0.22976552526E+03  0.23205495011E+03  0.31737876012E+01 0.  0.
         13    1    3    3    0    0  0.11551269187E+02 -0.92238686534E+01 -0.10578247771E+03  0.10681031861E+03  0.00000000000E+00 0.  1.
          1    1    3    3  501    0  0.15737612891E+02 -0.81700171336E+01 -0.12398304755E+03  0.12524463150E+03  0.00000000000E+00 0.  1.
         -1    1    1    2    0  502 -0.27288882078E+02  0.17393885787E+02 -0.76874935005E+03  0.76943017458E+03  0.00000000000E+00 0. -1.
<mgrwt>
<rscale>  1 0.30000000E+03</rscale>
<asrwt>0</asrwt>
<pdfrwt beam="1">  1       21 0.54004648E-02 0.30000000E+03</pdfrwt>
<pdfrwt beam="2">0</pdfrwt>
<totfact> 0.25252169E+04</totfact>
</mgrwt>
</event>
<event>
 6    1  0.6377696E-002  0.3000000E+03  0.7818608E-02  0.1093470E+00
         21   -1    0    0  501  502  0.00000000000E+00  0.00000000000E+00  0.29484542756E+01  0.29484542756E+01  0.00000000000E+00 0. -1.
         13   -1    0    0    0    0 -0.00000000000E+00 -0.00000000000E+00 -0.10000000000E+04  0.10000000000E+04  0.00000000000E+00 0.  1.
    9000005    2    1    2  501    0  0.46362159184E+02  0.21082507516E+02 -0.33006304700E+03  0.33401827902E+03  0.57161002397E+01 0.  0.
         13    1    3    3    0    0  0.43231749603E+02  0.20129890970E+02 -0.29840288209E+03  0.30218947156E+03  0.00000000000E+00 0.  1.
          3    1    3    3  501    0  0.31304095811E+01  0.95261654629E+00 -0.31660164912E+02  0.31828807466E+02  0.00000000000E+00 0.  1.
         -3    1    1    2    0  502 -0.46362159184E+02 -0.21082507516E+02 -0.66698849873E+03  0.66893017525E+03  0.00000000000E+00 0. -1.
<mgrwt>
<rscale>  1 0.30000000E+03</rscale>
<asrwt>0</asrwt>
<pdfrwt beam="1">  1       21 0.10721675E-01 0.30000000E+03</pdfrwt>
<pdfrwt beam="2">0</pdfrwt>
<totfact> 0.75938556E+03</totfact>
</mgrwt>
</event>
<event>
 6    1  0.6377696E-002  0.3000000E+03  0.7818608E-02  0.1093470E+00
         21   -1    0    0  501  502  0.00000000000E+00  0.00000000000E+00  0.34085467404E+01  0.34085467404E+01  0.00000000000E+00 0. -1.
         13   -1    0    0    0    0 -0.00000000000E+00 -0.00000000000E+00 -0.10000000000E+04  0.10000000000E+04  0.00000000000E+00 0.  1.
    9000005    2    1    2  501    0 -0.55971246874E+02 -0.16342159584E+02 -0.48045178238E+03  0.48398578395E+03  0.29115649151E+01 0.  0.
         13    1    3    3    0    0 -0.44888605429E+02 -0.12106131419E+02 -0.38821986611E+03  0.39099387432E+03  0.00000000000E+00 0.  1.
          3    1    3    3  501    0 -0.11082641445E+02 -0.42360281649E+01 -0.92231916277E+02  0.92991909628E+02  0.00000000000E+00 0.  1.
         -1    1    1    2    0  502  0.55971246874E+02  0.16342159584E+02 -0.51613967088E+03  0.51942276279E+03  0.00000000000E+00 0. -1.
<mgrwt>
<rscale>  1 0.30000000E+03</rscale>
<asrwt>0</asrwt>
<pdfrwt beam="1">  1       21 0.12394742E-01 0.30000000E+03</pdfrwt>
<pdfrwt beam="2">0</pdfrwt>
<totfact> 0.58429762E+03</totfact>
</mgrwt>
</event>
<event>
 6    1  0.6377696E-002  0.3000000E+03  0.7818608E-02  0.1093470E+00
         21   -1    0    0  501  502  0.00000000000E+00  0.00000000000E+00  0.12308323407E+01  0.12308323407E+01  0.00000000000E+00 0. -1.
         13   -1    0    0    0    0 -0.00000000000E+00 -0.00000000000E+00 -0.10000000000E+04  0.10000000000E+04  0.00000000000E+00 0.  1.
    9000005    2    1    2  501    0  0.34123930612E+02  0.32662631994E+01 -0.60154998213E+03  0.60253521853E+03  0.33462603178E+01 0.  0.
         13    1    3    3    0    0  0.31994717292E+02  0.33743055418E+01 -0.57526092251E+03  0.57615985354E+03  0.00000000000E+00 0.  1.
          3    1    3    3  501    0  0.21292133194E+01 -0.10804234237E+00 -0.26289059621E+02  0.26375364988E+02  0.00000000000E+00 0.  1.
         -3    1    1    2    0  502 -0.34123930612E+02 -0.32662631994E+01 -0.39721918553E+03  0.39869561381E+03  0.00000000000E+00 0. -1.
<mgrwt>
<rscale>  1 0.30000000E+03</rscale>
<asrwt>0</asrwt>
<pdfrwt beam="1">  1       21 0.44757634E-02 0.30000000E+03</pdfrwt>
<pdfrwt beam="2">0</pdfrwt>
<totfact> 0.34775349E+04</totfact>
</mgrwt>
</event>
<event>
 6    1  0.6377696E-002  0.3000000E+03  0.7818608E-02  0.1093470E+00
         21   -1    0    0  501  502  0.00000000000E+00  0.00000000000E+00  0.43114427692E+01  0.43114427692E+01  0.00000000000E+00 0. -1.
         13   -1    0    0    0    0 -0.00000000000E+00 -0.00000000000E+00 -0.10000000000E+04  0.10000000000E+04  0.00000000000E+00 0.  1.
    9000005    2    1    2  501    0 -0.32947601348E+02 -0.32316623030E+02 -0.85491041619E+03  0.85616154046E+03  0.32947075422E+01 0.  0.
         13    1    3    3    0    0 -0.17903263045E+02 -0.19623960076E+02 -0.47812682983E+03  0.47886416867E+03  0.00000000000E+00 0.  1.
          1    1    3    3  501    0 -0.15044338304E+02 -0.12692662953E+02 -0.37678358636E+03  0.37729737179E+03  0.00000000000E+00 0.  1.
         -3    1    1    2    0  502  0.32947601348E+02  0.32316623030E+02 -0.14077814104E+03  0.14814990231E+03  0.00000000000E+00 0. -1.
<mgrwt>
<rscale>  1 0.30000000E+03</rscale>
<asrwt>0</asrwt>
<pdfrwt beam="1">  1       21 0.15678007E-01 0.30000000E+03</pdfrwt>
<pdfrwt beam="2">0</pdfrwt>
<totfact> 0.37936282E+03</totfact>
</mgrwt>
</event>
<event>
 6    1  0.6377696E-002  0.3000000E+03  0.7818608E-02  0.1093470E+00
         21   -1    0    0  501  502  0.00000000000E+00  0.00000000000E+00  0.15980939222E+01  0.15980939222E+01  0.00000000000E+00 0. -1.
         13   -1    0    0    0    0 -0.00000000000E+00 -0.00000000000E+00 -0.10000000000E+04  0.10000000000E+04  0.00000000000E+00 0.  1.
    9000005    2    1    2  501    0 -0.12406678835E+02 -0.33037528490E+02 -0.73411632795E+03  0.73496675523E+03  0.19860404526E+01 0.  0.
         13    1    3    3    0    0 -0.96842025729E+01 -0.27862757063E+02 -0.61045724575E+03  0.61116950668E+03  0.00000000000E+00 0.  1.
          1    1    3    3  501    0 -0.27224762621E+01 -0.51747714271E+01 -0.12365908221E+03  0.12379724855E+03  0.00000000000E+00 0.  1.
         -3    1    1    2    0  502  0.12406678835E+02  0.33037528490E+02 -0.26428557812E+03  0.26663133869E+03  0.00000000000E+00 0. -1.
<mgrwt>
<rscale>  1 0.30000000E+03</rscale>
<asrwt>0</asrwt>
<pdfrwt beam="1">  1       21 0.58112629E-02 0.30000000E+03</pdfrwt>
<pdfrwt beam="2">0</pdfrwt>
<totfact> 0.22265055E+04</totfact>
</mgrwt>
</event>
<event>
 6    1  0.6377696E-002  0.3000000E+03  0.7818608E-02  0.1093470E+00
         21   -1    0    0  501  502  0.00000000000E+00  0.00000000000E+00  0.17911528965E+01  0.17911528965E+01  0.00000000000E+00 0. -1.
         13   -1    0    0    0    0 -0.00000000000E+00 -0.00000000000E+00 -0.10000000000E+04  0.10000000000E+04  0.00000000000E+00 0.  1.
    9000005    2    1    2  501    0 -0.15437248006E+02 -0.30427888183E+02 -0.79512844375E+03  0.79586442993E+03  0.26045657908E+01 0.  0.
         13    1    3    3    0    0 -0.45671510815E+01 -0.10466162031E+02 -0.29050648484E+03  0.29073083281E+03  0.00000000000E+00 0.  1.
          3    1    3    3  501    0 -0.10870096925E+02 -0.19961726152E+02 -0.50462195892E+03  0.50513359712E+03  0.00000000000E+00 0.  1.
         -1    1    1    2    0  502  0.15437248006E+02  0.30427888183E+02 -0.20308040335E+03  0.20592672296E+03  0.00000000000E+00 0. -1.
<mgrwt>
<rscale>  1 0.30000000E+03</rscale>
<asrwt>0</asrwt>
<pdfrwt beam="1">  1       21 0.65132970E-02 0.30000000E+03</pdfrwt>
<pdfrwt beam="2">0</pdfrwt>
<totfact> 0.18285228E+04</totfact>
</mgrwt>
</event>
<event>
 6    1  0.6377696E-002  0.3000000E+03  0.7818608E-02  0.1093470E+00
         21   -1    0    0  501  502  0.00000000000E+00  0.00000000000E+00  0.16846628544E+01  0.16846628544E+01  0.00000000000E+00 0. -1.
         13   -1    0    0    0    0 -0.00000000000E+00 -0.00000000000E+00 -0.10000000000E+04  0.10000000000E+04  0.00000000000E+00 0.  1.
    9000005    2    1    2  501    0  0.85939900793E+01  0.34705785164E+02 -0.25516059476E+03  0.25767033549E+03  0.29537239590E+01 0.  0.
         13    1    3    3    0    0  0.41150097711E+01  0.22037415698E+02 -0.15527210812E+03  0.15688214862E+03  0.00000000000E+00 0.  1.
          1    1    3    3  501    0  0.44789803082E+01  0.12668369467E+02 -0.99888486634E+02  0.10078818687E+03  0.00000000000E+00 0.  1.
         -1    1    1    2    0  502 -0.85939900793E+01 -0.34705785164E+02 -0.74315474239E+03  0.74401432737E+03  0.00000000000E+00 0. -1.
<mgrwt>
<rscale>  1 0.30000000E+03</rscale>
<asrwt>0</asrwt>
<pdfrwt beam="1">  1       21 0.61260597E-02 0.30000000E+03</pdfrwt>
<pdfrwt beam="2">0</pdfrwt>
<totfact> 0.20329128E+04</totfact>
</mgrwt>
</event>
<event>
 6    1  0.6377696E-002  0.3000000E+03  0.7818608E-02  0.1093470E+00
         21   -1    0    0  501  502  0.00000000000E+00  0.00000000000E+00  0.18772522220E+01  0.18772522220E+01  0.00000000000E+00 0. -1.
         13   -1    0    0    0    0 -0.00000000000E+00 -0.00000000000E+00 -0.10000000000E+04  0.10000000000E+04  0.00000000000E+00 0.  1.
    9000005    2    1    2  501    0 -0.77939792213E+01 -0.42157531674E+02 -0.42995284634E+03  0.43209216950E+03  0.24878265724E+01 0.  0.
         13    1    3    3    0    0 -0.87311058690E+00 -0.92720617102E+01 -0.87343074941E+02  0.87838181850E+02  0.00000000000E+00 0.  1.
          3    1    3    3  501    0 -0.69208686344E+01 -0.32885469964E+02 -0.34260977139E+03  0.34425398765E+03  0.00000000000E+00 0.  1.
         -1    1    1    2    0  502  0.77939792213E+01  0.42157531674E+02 -0.56816990144E+03  0.56978508272E+03  0.00000000000E+00 0. -1.
<mgrwt>
<rscale>  1 0.30000000E+03</rscale>
<asrwt>0</asrwt>
<pdfrwt beam="1">  1       21 0.68263861E-02 0.30000000E+03</pdfrwt>
<pdfrwt beam="2">0</pdfrwt>
<totfact> 0.16855444E+04</totfact>
</mgrwt>
</event>
<event>
 6    1  0.6377696E-002  0.3000000E+03  0.7818608E-02  0.1093470E+00
         21   -1    0    0  501  502  0.00000000000E+00  0.00000000000E+00  0.15448359960E+01  0.15448359960E+01  0.00000000000E+00 0. -1.
         13   -1    0    0    0    0 -0.00000000000E+00 -0.00000000000E+00 -0.10000000000E+04  0.10000000000E+04  0.00000000000E+00 0.  1.
    9000005    2    1    2  501    0 -0.16106977812E+02 -0.26576177132E+02 -0.80529574594E+03  0.80590156698E+03  0.32201402931E+01 0.  0.
         13    1    3    3    0    0 -0.13065663699E+02 -0.23178999436E+02 -0.70589536931E+03  0.70639666618E+03  0.00000000000E+00 0.  1.
          3    1    3    3  501    0 -0.30413141131E+01 -0.33971776957E+01 -0.99400376632E+02  0.99504900796E+02  0.00000000000E+00 0.  1.
         -3    1    1    2    0  502  0.16106977812E+02  0.26576177132E+02 -0.19315941807E+03  0.19564326902E+03  0.00000000000E+00 0. -1.
<mgrwt>
<rscale>  1 0.30000000E+03</rscale>
<asrwt>0</asrwt>
<pdfrwt beam="1">  1       21 0.56175973E-02 0.30000000E+03</pdfrwt>
<pdfrwt beam="2">0</pdfrwt>
<totfact> 0.23601558E+04</totfact>
</mgrwt>
</event>
<event>
 6    1  0.6377696E-002  0.3000000E+03  0.7818608E-02  0.1093470E+00
         21   -1    0    0  501  502  0.00000000000E+00  0.00000000000E+00  0.10888850582E+01  0.10888850582E+01  0.00000000000E+00 0. -1.
         13   -1    0    0    0    0 -0.00000000000E+00 -0.00000000000E+00 -0.10000000000E+04  0.10000000000E+04  0.00000000000E+00 0.  1.
    9000005    2    1    2  501    0 -0.31167397413E+02  0.85464725338E+01 -0.41076135766E+03  0.41205188636E+03  0.41731577001E+01 0.  0.
         13    1    3    3    0    0 -0.17794473044E+02  0.27343942551E+01 -0.22492842088E+03  0.22564776689E+03  0.00000000000E+00 0.  1.
          1    1    3    3  501    0 -0.13372924369E+02  0.58120782787E+01 -0.18583293678E+03  0.18640411946E+03  0.00000000000E+00 0.  1.
         -3    1    1    2    0  502  0.31167397413E+02 -0.85464725338E+01 -0.58814975728E+03  0.58903699870E+03  0.00000000000E+00 0. -1.
<mgrwt>
<rscale>  1 0.30000000E+03</rscale>
<asrwt>0</asrwt>
<pdfrwt beam="1">  1       21 0.39595904E-02 0.30000000E+03</pdfrwt>
<pdfrwt beam="2">0</pdfrwt>
<totfact> 0.42772300E+04</totfact>
</mgrwt>
</event>
<event>
 6    1  0.6377696E-002  0.3000000E+03  0.7818608E-02  0.1093470E+00
         21   -1    0    0  501  502  0.00000000000E+00  0.00000000000E+00  0.21557042780E+01  0.21557042780E+01  0.00000000000E+00 0. -1.
         13   -1    0    0    0    0 -0.00000000000E+00 -0.00000000000E+00 -0.10000000000E+04  0.10000000000E+04  0.00000000000E+00 0.  1.
    9000005    2    1    2  501    0 -0.54683271831E+01 -0.45864695636E+02 -0.45710018836E+03  0.45944246273E+03  0.36498561578E+01 0.  0.
         13    1    3    3    0    0 -0.27395096105E+01 -0.26322228945E+02 -0.24419267827E+03  0.24562253310E+03  0.00000000000E+00 0.  1.
          1    1    3    3  501    0 -0.27288175725E+01 -0.19542466691E+02 -0.21290751010E+03  0.21381992963E+03  0.00000000000E+00 0.  1.
         -3    1    1    2    0  502  0.54683271831E+01  0.45864695636E+02 -0.54074410736E+03  0.54271324155E+03  0.00000000000E+00 0. -1.
<mgrwt>
<rscale>  1 0.30000000E+03</rscale>
<asrwt>0</asrwt>
<pdfrwt beam="1">  1       21 0.78389412E-02 0.30000000E+03</pdfrwt>
<pdfrwt beam="2">0</pdfrwt>
<totfact> 0.13238166E+04</totfact>
</mgrwt>
</event>
<event>
 6    1  0.6377696E-002  0.3000000E+03  0.7818608E-02  0.1093470E+00
         21   -1    0    0  501  502  0.00000000000E+00  0.00000000000E+00  0.12529925088E+01  0.12529925088E+01  0.00000000000E+00 0. -1.
         13   -1    0    0    0    0 -0.00000000000E+00 -0.00000000000E+00 -0.10000000000E+04  0.10000000000E+04  0.00000000000E+00 0.  1.
    9000005    2    1    2  501    0 -0.34959096615E+02 -0.44528215538E+01 -0.47075983822E+03  0.47209099749E+03  0.36219574005E+01 0.  0.
         13    1    3    3    0    0 -0.11434855457E+02 -0.20680364644E+01 -0.17706374053E+03  0.17744464180E+03  0.00000000000E+00 0.  1.
          1    1    3    3  501    0 -0.23524241158E+02 -0.23847850894E+01 -0.29369609769E+03  0.29464635569E+03  0.00000000000E+00 0.  1.
         -3    1    1    2    0  502  0.34959096615E+02  0.44528215538E+01 -0.52798716927E+03  0.52916199501E+03  0.00000000000E+00 0. -1.
<mgrwt>
<rscale>  1 0.30000000E+03</rscale>
<asrwt>0</asrwt>
<pdfrwt beam="1">  1       21 0.45563460E-02 0.30000000E+03</pdfrwt>
<pdfrwt beam="2">0</pdfrwt>
<totfact> 0.33737858E+04</totfact>
</mgrwt>
</event>
<event>
 6    1  0.6377696E-002  0.3000000E+03  0.7818608E-02  0.1093470E+00
         21   -1    0    0  501  502  0.00000000000E+00  0.00000000000E+00  0.15797020883E+01  0.15797020883E+01  0.00000000000E+00 0. -1.
         13   -1    0    0    0    0 -0.00000000000E+00 -0.00000000000E+00 -0.10000000000E+04  0.10000000000E+04  0.00000000000E+00 0.  1.
    9000005    2    1    2  501    0  0.28596409392E+02  0.10021150751E+02 -0.82285535552E+03  0.82341902436E+03  0.31265753429E+01 0.  0.
         13    1    3    3    0    0  0.93383655380E+01  0.23189790392E+01 -0.23083480956E+03  0.23103526147E+03  0.00000000000E+00 0.  1.
          1    1    3    3  501    0  0.19258043854E+02  0.77021717114E+01 -0.59202054596E+03  0.59238376289E+03  0.00000000000E+00 0.  1.
         -3    1    1    2    0  502 -0.28596409392E+02 -0.10021150751E+02 -0.17556494239E+03  0.17816067773E+03  0.00000000000E+00 0. -1.
<mgrwt>
<rscale>  1 0.30000000E+03</rscale>
<asrwt>0</asrwt>
<pdfrwt beam="1">  1       21 0.57443833E-02 0.30000000E+03</pdfrwt>
<pdfrwt beam="2">0</pdfrwt>
<totfact> 0.22713195E+04</totfact>
</mgrwt>
</event>
<event>
 6    1  0.6377696E-002  0.3000000E+03  0.7818608E-02  0.1093470E+00
         21   -1    0    0  501  502  0.00000000000E+00  0.00000000000E+00  0.96332507213E+00  0.96332507213E+00  0.00000000000E+00 0. -1.
         13   -1    0    0    0    0 -0.00000000000E+00 -0.00000000000E+00 -0.10000000000E+04  0.10000000000E+04  0.00000000000E+00 0.  1.
    9000005    2    1    2  501    0  0.23679197588E+02  0.18455892274E+02 -0.38132767620E+03  0.38252518632E+03  0.36602148066E+01 0.  0.
         13    1    3    3    0    0  0.12137982282E+02  0.11729842663E+02 -0.21684919262E+03  0.21750515434E+03  0.00000000000E+00 0.  1.
          3    1    3    3  501    0  0.11541215306E+02  0.67260496104E+01 -0.16447848358E+03  0.16502003198E+03  0.00000000000E+00 0.  1.
         -3    1    1    2    0  502 -0.23679197588E+02 -0.18455892274E+02 -0.61770899873E+03  0.61843813876E+03  0.00000000000E+00 0. -1.
<mgrwt>
<rscale>  1 0.30000000E+03</rscale>
<asrwt>0</asrwt>
<pdfrwt beam="1">  1       21 0.35030076E-02 0.30000000E+03</pdfrwt>
<pdfrwt beam="2">0</pdfrwt>
<totfact> 0.52541181E+04</totfact>
</mgrwt>
</event>
<event>
 6    1  0.6377696E-002  0.3000000E+03  0.7818608E-02  0.1093470E+00
         21   -1    0    0  501  502  0.00000000000E+00  0.00000000000E+00  0.94705666790E+00  0.94705666790E+00  0.00000000000E+00 0. -1.
         13   -1    0    0    0    0 -0.00000000000E+00 -0.00000000000E+00 -0.10000000000E+04  0.10000000000E+04  0.00000000000E+00 0.  1.
    9000005    2    1    2  501    0 -0.30597339057E+02 -0.16120927501E+01 -0.52747795017E+03  0.52837772823E+03  0.33525778113E+01 0.  0.
         13    1    3    3    0    0 -0.23058891659E+02  0.34431055717E-01 -0.38209435707E+03  0.38278951314E+03  0.00000000000E+00 0.  1.
          1    1    3    3  501    0 -0.75384473983E+01 -0.16465238058E+01 -0.14538359310E+03  0.14558821509E+03  0.00000000000E+00 0.  1.
         -3    1    1    2    0  502  0.30597339057E+02  0.16120927501E+01 -0.47157499317E+03  0.47256932844E+03  0.00000000000E+00 0. -1.
<mgrwt>
<rscale>  1 0.30000000E+03</rscale>
<asrwt>0</asrwt>
<pdfrwt beam="1">  1       21 0.34438497E-02 0.30000000E+03</pdfrwt>
<pdfrwt beam="2">0</pdfrwt>
<totfact> 0.54060357E+04</totfact>
</mgrwt>
</event>
<event>
 6    1  0.6377696E-002  0.3000000E+03  0.7818608E-02  0.1093470E+00
         21   -1    0    0  501  502  0.00000000000E+00  0.00000000000E+00  0.17165144723E+01  0.17165144723E+01  0.00000000000E+00 0. -1.
         13   -1    0    0    0    0 -0.00000000000E+00 -0.00000000000E+00 -0.10000000000E+04  0.10000000000E+04  0.00000000000E+00 0.  1.
    9000005    2    1    2  501    0  0.26412791508E+02 -0.18011462876E+02 -0.18267289893E+03  0.18547961423E+03  0.33542421629E+01 0.  0.
         13    1    3    3    0    0  0.20118930536E+02 -0.15371597963E+02 -0.14441658196E+03  0.14661925704E+03  0.00000000000E+00 0.  1.
          1    1    3    3  501    0  0.62938609725E+01 -0.26398649128E+01 -0.38256316974E+02  0.38860357192E+02  0.00000000000E+00 0.  1.
         -1    1    1    2    0  502 -0.26412791508E+02  0.18011462876E+02 -0.81561058660E+03  0.81623690024E+03  0.00000000000E+00 0. -1.
<mgrwt>
<rscale>  1 0.30000000E+03</rscale>
<asrwt>0</asrwt>
<pdfrwt beam="1">  1       21 0.62418840E-02 0.30000000E+03</pdfrwt>
<pdfrwt beam="2">0</pdfrwt>
<totfact> 0.19682104E+04</totfact>
</mgrwt>
</event>
<event>
 6    1  0.6377696E-002  0.3000000E+03  0.7818608E-02  0.1093470E+00
         21   -1    0    0  501  502  0.00000000000E+00  0.00000000000E+00  0.19327534967E+01  0.19327534967E+01  0.00000000000E+00 0. -1.
         13   -1    0    0    0    0 -0.00000000000E+00 -0.00000000000E+00 -0.10000000000E+04  0.10000000000E+04  0.00000000000E+00 0.  1.
    9000005    2    1    2  501    0  0.13271438061E+02  0.41561770174E+02 -0.44496815301E+03  0.44711555925E+03  0.34863049860E+01 0.  0.
         13    1    3    3    0    0  0.93783656917E+01  0.28507259030E+02 -0.28923585981E+03  0.29078858327E+03  0.00000000000E+00 0.  1.
          3    1    3    3  501    0  0.38930723694E+01  0.13054511145E+02 -0.15573229320E+03  0.15632697598E+03  0.00000000000E+00 0.  1.
         -1    1    1    2    0  502 -0.13271438061E+02 -0.41561770174E+02 -0.55309909349E+03  0.55481719425E+03  0.00000000000E+00 0. -1.
<mgrwt>
<rscale>  1 0.30000000E+03</rscale>
<asrwt>0</asrwt>
<pdfrwt beam="1">  1       21 0.70282094E-02 0.30000000E+03</pdfrwt>
<pdfrwt beam="2">0</pdfrwt>
<totfact> 0.16022727E+04</totfact>
</mgrwt>
</event>
<event>
 6    1  0.6377696E-002  0.3000000E+03  0.7818608E-02  0.1093470E+00
         21   -1    0    0  501  502  0.00000000000E+00  0.00000000000E+00  0.14778633602E+01  0.14778633602E+01  0.00000000000E+00 0. -1.
         13   -1    0    0    0    0 -0.00000000000E+00 -0.00000000000E+00 -0.10000000000E+04  0.10000000000E+04  0.00000000000E+00 0.  1.
    9000005    2    1    2  501    0 -0.28342292568E+02 -0.24786313703E+02 -0.59645783131E+03  0.59765444587E+03  0.33533922078E+01 0.  0.
         13    1    3    3    0    0 -0.27239312307E+02 -0.24134974905E+02 -0.58336540341E+03  0.58449950474E+03  0.00000000000E+00 0.  1.
          1    1    3    3  501    0 -0.11029802614E+01 -0.65133879806E+00 -0.13092427904E+02  0.13154941129E+02  0.00000000000E+00 0.  1.
         -3    1    1    2    0  502  0.28342292568E+02  0.24786313703E+02 -0.40206430533E+03  0.40382341749E+03  0.00000000000E+00 0. -1.
<mgrwt>
<rscale>  1 0.30000000E+03</rscale>
<asrwt>0</asrwt>
<pdfrwt beam="1">  1       21 0.53740599E-02 0.30000000E+03</pdfrwt>
<pdfrwt beam="2">0</pdfrwt>
<totfact> 0.25464975E+04</totfact>
</mgrwt>
</event>
<event>
 6    1  0.6377696E-002  0.3000000E+03  0.7818608E-02  0.1093470E+00
         21   -1    0    0  501  502  0.00000000000E+00  0.00000000000E+00  0.12291167443E+01  0.12291167443E+01  0.00000000000E+00 0. -1.
         13   -1    0    0    0    0 -0.00000000000E+00 -0.00000000000E+00 -0.10000000000E+04  0.10000000000E+04  0.00000000000E+00 0.  1.
    9000005    2    1    2  501    0  0.32929702922E+02  0.11767468362E+02 -0.49948125374E+03  0.50071640683E+03  0.35438090307E+01 0.  0.
         13    1    3    3    0    0  0.20058864516E+02  0.83917276972E+01 -0.29133427555E+03  0.29214455198E+03  0.00000000000E+00 0.  1.
          1    1    3    3  501    0  0.12870838407E+02  0.33757406643E+01 -0.20814697819E+03  0.20857185485E+03  0.00000000000E+00 0.  1.
         -1    1    1    2    0  502 -0.32929702922E+02 -0.11767468362E+02 -0.49928962951E+03  0.50051270992E+03  0.00000000000E+00 0. -1.
<mgrwt>
<rscale>  1 0.30000000E+03</rscale>
<asrwt>0</asrwt>
<pdfrwt beam="1">  1       21 0.44695249E-02 0.30000000E+03</pdfrwt>
<pdfrwt beam="2">0</pdfrwt>
<totfact> 0.34857715E+04</totfact>
</mgrwt>
</event>
<event>
 6    1  0.6377696E-002  0.3000000E+03  0.7818608E-02  0.1093470E+00
         21   -1    0    0  501  502  0.00000000000E+00  0.00000000000E+00  0.20003719016E+01  0.20003719016E+01  0.00000000000E+00 0. -1.
         13   -1    0    0    0    0 -0.00000000000E+00 -0.00000000000E+00 -0.10000000000E+04  0.10000000000E+04  0.00000000000E+00 0.  1.
    9000005    2    1    2  501    0 -0.85422238775E+01  0.32907795453E+02 -0.17701804781E+03  0.18031512330E+03  0.47182466274E+01 0.  0.
         13    1    3    3    0    0 -0.48352713917E+01  0.24320062118E+02 -0.12001705858E+03  0.12255178343E+03  0.00000000000E+00 0.  1.
          1    1    3    3  501    0 -0.37069524859E+01  0.85877333353E+01 -0.57000989226E+02  0.57763339874E+02  0.00000000000E+00 0.  1.
         -3    1    1    2    0  502  0.85422238775E+01 -0.32907795453E+02 -0.82098158029E+03  0.82168524860E+03  0.00000000000E+00 0. -1.
<mgrwt>
<rscale>  1 0.30000000E+03</rscale>
<asrwt>0</asrwt>
<pdfrwt beam="1">  1       21 0.72740950E-02 0.30000000E+03</pdfrwt>
<pdfrwt beam="2">0</pdfrwt>
<totfact> 0.15090332E+04</totfact>
</mgrwt>
</event>
<event>
 6    1  0.6377696E-002  0.3000000E+03  0.7818608E-02  0.1093470E+00
         21   -1    0    0  501  502  0.00000000000E+00  0.00000000000E+00  0.33699233920E+01  0.33699233920E+01  0.00000000000E+00 0. -1.
         13   -1    0    0    0    0 -0.00000000000E+00 -0.00000000000E+00 -0.10000000000E+04  0.10000000000E+04  0.00000000000E+00 0.  1.
    9000005    2    1    2  501    0 -0.30348604269E+02  0.22504892261E+02 -0.87907212561E+03  0.87988964238E+03  0.32361674821E+01 0.  0.
         13    1    3    3    0    0 -0.24914278942E+02  0.18275226011E+02 -0.74567610998E+03  0.74631599619E+03  0.00000000000E+00 0.  1.
          1    1    3    3  501    0 -0.54343253275E+01  0.42296662507E+01 -0.13339601564E+03  0.13357364619E+03  0.00000000000E+00 0.  1.
         -3    1    1    2    0  502  0.30348604269E+02 -0.22504892261E+02 -0.11755795099E+03  0.12348028101E+03  0.00000000000E+00 0. -1.
<mgrwt>
<rscale>  1 0.30000000E+03</rscale>
<asrwt>0</asrwt>
<pdfrwt beam="1">  1       21 0.12254293E-01 0.30000000E+03</pdfrwt>
<pdfrwt beam="2">0</pdfrwt>
<totfact> 0.59654178E+03</totfact>
</mgrwt>
</event>
<event>
 6    1  0.6377696E-002  0.3000000E+03  0.7818608E-02  0.1093470E+00
         21   -1    0    0  501  502  0.00000000000E+00  0.00000000000E+00  0.10084376031E+01  0.10084376031E+01  0.00000000000E+00 0. -1.
         13   -1    0    0    0    0 -0.00000000000E+00 -0.00000000000E+00 -0.10000000000E+04  0.10000000000E+04  0.00000000000E+00 0.  1.
    9000005    2    1    2  501    0 -0.31450805217E+02  0.29121820022E+01 -0.46598026427E+03  0.46706211270E+03  0.34316865100E+01 0.  0.
         13    1    3    3    0    0 -0.16474230560E+02  0.14364958309E+01 -0.26899882772E+03  0.26950664761E+03  0.00000000000E+00 0.  1.
          3    1    3    3  501    0 -0.14976574657E+02  0.14756861713E+01 -0.19698143655E+03  0.19755546508E+03  0.00000000000E+00 0.  1.
         -1    1    1    2    0  502  0.31450805217E+02 -0.29121820022E+01 -0.53301129812E+03  0.53394632491E+03  0.00000000000E+00 0. -1.
<mgrwt>
<rscale>  1 0.30000000E+03</rscale>
<asrwt>0</asrwt>
<pdfrwt beam="1">  1       21 0.36670536E-02 0.30000000E+03</pdfrwt>
<pdfrwt beam="2">0</pdfrwt>
<totfact> 0.48660394E+04</totfact>
</mgrwt>
</event>
<event>
 6    1  0.6377696E-002  0.3000000E+03  0.7818608E-02  0.1093470E+00
         21   -1    0    0  501  502  0.00000000000E+00  0.00000000000E+00  0.10065054022E+01  0.10065054022E+01  0.00000000000E+00 0. -1.
         13   -1    0    0    0    0 -0.00000000000E+00 -0.00000000000E+00 -0.10000000000E+04  0.10000000000E+04  0.00000000000E+00 0.  1.
    9000005    2    1    2  501    0  0.31533117859E+02  0.24181140426E+01 -0.51747632540E+03  0.51845187738E+03  0.32275389476E+01 0.  0.
         13    1    3    3    0    0  0.29290222614E+02  0.19425222241E+01 -0.46513474751E+03  0.46606010757E+03  0.00000000000E+00 0.  1.
          1    1    3    3  501    0  0.22428952451E+01  0.47559181855E+00 -0.52341577896E+02  0.52391769805E+02  0.00000000000E+00 0.  1.
         -3    1    1    2    0  502 -0.31533117859E+02 -0.24181140426E+01 -0.48151716919E+03  0.48255462802E+03  0.00000000000E+00 0. -1.
<mgrwt>
<rscale>  1 0.30000000E+03</rscale>
<asrwt>0</asrwt>
<pdfrwt beam="1">  1       21 0.36600274E-02 0.30000000E+03</pdfrwt>
<pdfrwt beam="2">0</pdfrwt>
<totfact> 0.48817234E+04</totfact>
</mgrwt>
</event>
<event>
 6    1  0.6377696E-002  0.3000000E+03  0.7818608E-02  0.1093470E+00
         21   -1    0    0  501  502  0.00000000000E+00  0.00000000000E+00  0.12098861820E+01  0.12098861820E+01  0.00000000000E+00 0. -1.
         13   -1    0    0    0    0 -0.00000000000E+00 -0.00000000000E+00 -0.10000000000E+04  0.10000000000E+04  0.00000000000E+00 0.  1.
    9000005    2    1    2  501    0 -0.23205861793E+02  0.25723763985E+02 -0.52895066524E+03  0.53009489863E+03  0.34016527925E+01 0.  0.
         13    1    3    3    0    0 -0.61748987143E+01  0.59176637688E+01 -0.15177297698E+03  0.15201376471E+03  0.00000000000E+00 0.  1.
          3    1    3    3  501    0 -0.17030963078E+02  0.19806100216E+02 -0.37717768825E+03  0.37808113392E+03  0.00000000000E+00 0.  1.
         -3    1    1    2    0  502  0.23205861793E+02 -0.25723763985E+02 -0.46983944858E+03  0.47111498755E+03  0.00000000000E+00 0. -1.
<mgrwt>
<rscale>  1 0.30000000E+03</rscale>
<asrwt>0</asrwt>
<pdfrwt beam="1">  1       21 0.43995954E-02 0.30000000E+03</pdfrwt>
<pdfrwt beam="2">0</pdfrwt>
<totfact> 0.35801981E+04</totfact>
</mgrwt>
</event>
<event>
 6    1  0.6377696E-002  0.3000000E+03  0.7818608E-02  0.1093470E+00
         21   -1    0    0  501  502  0.00000000000E+00  0.00000000000E+00  0.23747770173E+01  0.23747770173E+01  0.00000000000E+00 0. -1.
         13   -1    0    0    0    0 -0.00000000000E+00 -0.00000000000E+00 -0.10000000000E+04  0.10000000000E+04  0.00000000000E+00 0.  1.
    9000005    2    1    2  501    0 -0.74509205830E+01 -0.47981950608E+02 -0.52141495302E+03  0.52369533833E+03  0.50468164823E+01 0.  0.
         13    1    3    3    0    0 -0.63161940049E+00 -0.15144246060E+01 -0.28780277871E+02  0.28827015442E+02  0.00000000000E+00 0.  1.
          3    1    3    3  501    0 -0.68193011826E+01 -0.46467526002E+02 -0.49263467515E+03  0.49486832289E+03  0.00000000000E+00 0.  1.
         -1    1    1    2    0  502  0.74509205830E+01  0.47981950608E+02 -0.47621026996E+03  0.47867943869E+03  0.00000000000E+00 0. -1.
<mgrwt>
<rscale>  1 0.30000000E+03</rscale>
<asrwt>0</asrwt>
<pdfrwt beam="1">  1       21 0.86355710E-02 0.30000000E+03</pdfrwt>
<pdfrwt beam="2">0</pdfrwt>
<totfact> 0.11165144E+04</totfact>
</mgrwt>
</event>
<event>
 6    1  0.6377696E-002  0.3000000E+03  0.7818608E-02  0.1093470E+00
         21   -1    0    0  501  502  0.00000000000E+00  0.00000000000E+00  0.20041225873E+01  0.20041225873E+01  0.00000000000E+00 0. -1.
         13   -1    0    0    0    0 -0.00000000000E+00 -0.00000000000E+00 -0.10000000000E+04  0.10000000000E+04  0.00000000000E+00 0.  1.
    9000005    2    1    2  501    0 -0.40537877683E+02  0.18832568263E+02 -0.49216558592E+03  0.49420271560E+03  0.33726814941E+01 0.  0.
         13    1    3    3    0    0 -0.23311845338E+02  0.91053188854E+01 -0.28146178777E+03  0.28257226852E+03  0.00000000000E+00 0.  1.
          1    1    3    3  501    0 -0.17226032346E+02  0.97272493773E+01 -0.21070379816E+03  0.21163044707E+03  0.00000000000E+00 0.  1.
         -1    1    1    2    0  502  0.40537877683E+02 -0.18832568263E+02 -0.50583029149E+03  0.50780140699E+03  0.00000000000E+00 0. -1.
<mgrwt>
<rscale>  1 0.30000000E+03</rscale>
<asrwt>0</asrwt>
<pdfrwt beam="1">  1       21 0.72877339E-02 0.30000000E+03</pdfrwt>
<pdfrwt beam="2">0</pdfrwt>
<totfact> 0.15041048E+04</totfact>
</mgrwt>
</event>
<event>
 6    1  0.6377696E-002  0.3000000E+03  0.7818608E-02  0.1093470E+00
         21   -1    0    0  501  502  0.00000000000E+00  0.00000000000E+00  0.24680298743E+01  0.24680298743E+01  0.00000000000E+00 0. -1.
         13   -1    0    0    0    0 -0.00000000000E+00 -0.00000000000E+00 -0.10000000000E+04  0.10000000000E+04  0.00000000000E+00 0.  1.
    9000005    2    1    2  501    0  0.22539736810E+02  0.23892052278E+02 -0.12384648017E+03  0.12816533328E+03  0.30874113756E+01 0.  0.
         13    1    3    3    0    0  0.19736644633E+02  0.19538433953E+02 -0.10195340388E+03  0.10566826442E+03  0.00000000000E+00 0.  1.
          3    1    3    3  501    0  0.28030921773E+01  0.43536183244E+01 -0.21893076285E+02  0.22497068864E+02  0.00000000000E+00 0.  1.
         -3    1    1    2    0  502 -0.22539736810E+02 -0.23892052278E+02 -0.87368548996E+03  0.87430269659E+03  0.00000000000E+00 0. -1.
<mgrwt>
<rscale>  1 0.30000000E+03</rscale>
<asrwt>0</asrwt>
<pdfrwt beam="1">  1       21 0.89746730E-02 0.30000000E+03</pdfrwt>
<pdfrwt beam="2">0</pdfrwt>
<totfact> 0.10430027E+04</totfact>
</mgrwt>
</event>
<event>
 6    1  0.6377696E-002  0.3000000E+03  0.7818608E-02  0.1093470E+00
         21   -1    0    0  501  502  0.00000000000E+00  0.00000000000E+00  0.20229107347E+01  0.20229107347E+01  0.00000000000E+00 0. -1.
         13   -1    0    0    0    0 -0.00000000000E+00 -0.00000000000E+00 -0.10000000000E+04  0.10000000000E+04  0.00000000000E+00 0.  1.
    9000005    2    1    2  501    0  0.33311146884E+02  0.29487041097E+02 -0.55836325395E+03  0.56016383558E+03  0.59060330349E+01 0.  0.
         13    1    3    3    0    0  0.45763461631E+01  0.62601809660E+01 -0.79520159708E+02  0.79897362972E+02  0.00000000000E+00 0.  1.
          1    1    3    3  501    0  0.28734800721E+02  0.23226860131E+02 -0.47884309425E+03  0.48026647261E+03  0.00000000000E+00 0.  1.
         -3    1    1    2    0  502 -0.33311146884E+02 -0.29487041097E+02 -0.43961383531E+03  0.44185907515E+03  0.00000000000E+00 0. -1.
<mgrwt>
<rscale>  1 0.30000000E+03</rscale>
<asrwt>0</asrwt>
<pdfrwt beam="1">  1       21 0.73560545E-02 0.30000000E+03</pdfrwt>
<pdfrwt beam="2">0</pdfrwt>
<totfact> 0.14797807E+04</totfact>
</mgrwt>
</event>
<event>
 6    1  0.6377696E-002  0.3000000E+03  0.7818608E-02  0.1093470E+00
         21   -1    0    0  501  502  0.00000000000E+00  0.00000000000E+00  0.18318051683E+01  0.18318051683E+01  0.00000000000E+00 0. -1.
         13   -1    0    0    0    0 -0.00000000000E+00 -0.00000000000E+00 -0.10000000000E+04  0.10000000000E+04  0.00000000000E+00 0.  1.
    9000005    2    1    2  501    0 -0.29707416832E+02 -0.30678733164E+02 -0.48251388848E+03  0.48441216991E+03  0.34325654016E+01 0.  0.
         13    1    3    3    0    0 -0.16745170015E+02 -0.16307208854E+02 -0.28153052147E+03  0.28249913327E+03  0.00000000000E+00 0.  1.
          3    1    3    3  501    0 -0.12962246817E+02 -0.14371524310E+02 -0.20098336701E+03  0.20191303664E+03  0.00000000000E+00 0.  1.
         -1    1    1    2    0  502  0.29707416832E+02  0.30678733164E+02 -0.51565430636E+03  0.51741963526E+03  0.00000000000E+00 0. -1.
<mgrwt>
<rscale>  1 0.30000000E+03</rscale>
<asrwt>0</asrwt>
<pdfrwt beam="1">  1       21 0.66611237E-02 0.30000000E+03</pdfrwt>
<pdfrwt beam="2">0</pdfrwt>
<totfact> 0.17587799E+04</totfact>
</mgrwt>
</event>
<event>
 6    1  0.6377696E-002  0.3000000E+03  0.7818608E-02  0.1093470E+00
         21   -1    0    0  501  502  0.00000000000E+00  0.00000000000E+00  0.41915057893E+01  0.41915057893E+01  0.00000000000E+00 0. -1.
         13   -1    0    0    0    0 -0.00000000000E+00 -0.00000000000E+00 -0.10000000000E+04  0.10000000000E+04  0.00000000000E+00 0.  1.
    9000005    2    1    2  501    0  0.51064365155E+02 -0.27996488042E+02 -0.71684665519E+03  0.71921592726E+03  0.33241883525E+01 0.  0.
         13    1    3    3    0    0  0.20265018345E+02 -0.12513481466E+02 -0.30625921396E+03  0.30718392588E+03  0.00000000000E+00 0.  1.
          1    1    3    3  501    0  0.30799346810E+02 -0.15483006576E+02 -0.41058744123E+03  0.41203200137E+03  0.00000000000E+00 0.  1.
         -3    1    1    2    0  502 -0.51064365155E+02  0.27996488042E+02 -0.27896183902E+03  0.28497557853E+03  0.00000000000E+00 0. -1.
<mgrwt>
<rscale>  1 0.30000000E+03</rscale>
<asrwt>0</asrwt>
<pdfrwt beam="1">  1       21 0.15241871E-01 0.30000000E+03</pdfrwt>
<pdfrwt beam="2">0</pdfrwt>
<totfact> 0.39977847E+03</totfact>
</mgrwt>
</event>
<event>
 6    1  0.6377696E-002  0.3000000E+03  0.7818608E-02  0.1093470E+00
         21   -1    0    0  501  502  0.00000000000E+00  0.00000000000E+00  0.14917572462E+01  0.14917572462E+01  0.00000000000E+00 0. -1.
         13   -1    0    0    0    0 -0.00000000000E+00 -0.00000000000E+00 -0.10000000000E+04  0.10000000000E+04  0.00000000000E+00 0.  1.
    9000005    2    1    2  501    0  0.31327656717E+02 -0.12154562635E+02 -0.25496567521E+03  0.25719026912E+03  0.31911642932E+01 0.  0.
         13    1    3    3    0    0  0.10737534699E+02 -0.32783621505E+01 -0.94911911918E+02  0.95573601657E+02  0.00000000000E+00 0.  1.
          3    1    3    3  501    0  0.20590122018E+02 -0.88762004843E+01 -0.16005376329E+03  0.16161666747E+03  0.00000000000E+00 0.  1.
         -3    1    1    2    0  502 -0.31327656717E+02  0.12154562635E+02 -0.74354256755E+03  0.74430148812E+03  0.00000000000E+00 0. -1.
<mgrwt>
<rscale>  1 0.30000000E+03</rscale>
<asrwt>0</asrwt>
<pdfrwt beam="1">  1       21 0.54245832E-02 0.30000000E+03</pdfrwt>
<pdfrwt beam="2">0</pdfrwt>
<totfact> 0.25060180E+04</totfact>
</mgrwt>
</event>
<event>
 6    1  0.6377696E-002  0.3000000E+03  0.7818608E-02  0.1093470E+00
         21   -1    0    0  501  502  0.00000000000E+00  0.00000000000E+00  0.10540369237E+01  0.10540369237E+01  0.00000000000E+00 0. -1.
         13   -1    0    0    0    0 -0.00000000000E+00 -0.00000000000E+00 -0.10000000000E+04  0.10000000000E+04  0.00000000000E+00 0.  1.
    9000005    2    1    2  501    0 -0.18201474397E+01  0.30053641029E+02 -0.31641161857E+03  0.31785592092E+03  0.30886605730E+01 0.  0.
         13    1    3    3    0    0  0.34319472089E+00  0.13636285696E+02 -0.13247660491E+03  0.13317701348E+03  0.00000000000E+00 0.  1.
          1    1    3    3  501    0 -0.21633421606E+01  0.16417355333E+02 -0.18393501366E+03  0.18467890744E+03  0.00000000000E+00 0.  1.
         -1    1    1    2    0  502  0.18201474397E+01 -0.30053641029E+02 -0.68253434451E+03  0.68319811600E+03  0.00000000000E+00 0. -1.
<mgrwt>
<rscale>  1 0.30000000E+03</rscale>
<asrwt>0</asrwt>
<pdfrwt beam="1">  1       21 0.38328696E-02 0.30000000E+03</pdfrwt>
<pdfrwt beam="2">0</pdfrwt>
<totfact> 0.45177469E+04</totfact>
</mgrwt>
</event>
<event>
 6    1  0.6377696E-002  0.3000000E+03  0.7818608E-02  0.1093470E+00
         21   -1    0    0  501  502  0.00000000000E+00  0.00000000000E+00  0.33124258254E+01  0.33124258254E+01  0.00000000000E+00 0. -1.
         13   -1    0    0    0    0 -0.00000000000E+00 -0.00000000000E+00 -0.10000000000E+04  0.10000000000E+04  0.00000000000E+00 0.  1.
    9000005    2    1    2  501    0  0.19776795982E+02  0.48361135204E+02 -0.70854328707E+03  0.71046937700E+03  0.17958110740E+01 0.  0.
         13    1    3    3    0    0  0.13534783267E+02  0.34353368139E+02 -0.50954630604E+03  0.51088235658E+03  0.00000000000E+00 0.  1.
          3    1    3    3  501    0  0.62420127150E+01  0.14007767065E+02 -0.19899698103E+03  0.19958702042E+03  0.00000000000E+00 0.  1.
         -1    1    1    2    0  502 -0.19776795982E+02 -0.48361135204E+02 -0.28814428710E+03  0.29284304883E+03  0.00000000000E+00 0. -1.
<mgrwt>
<rscale>  1 0.30000000E+03</rscale>
<asrwt>0</asrwt>
<pdfrwt beam="1">  1       21 0.12045210E-01 0.30000000E+03</pdfrwt>
<pdfrwt beam="2">0</pdfrwt>
<totfact> 0.61549599E+03</totfact>
</mgrwt>
</event>
<event>
 6    1  0.6377696E-002  0.3000000E+03  0.7818608E-02  0.1093470E+00
         21   -1    0    0  501  502  0.00000000000E+00  0.00000000000E+00  0.36722319882E+01  0.36722319882E+01  0.00000000000E+00 0. -1.
         13   -1    0    0    0    0 -0.00000000000E+00 -0.00000000000E+00 -0.10000000000E+04  0.10000000000E+04  0.00000000000E+00 0.  1.
    9000005    2    1    2  501    0 -0.50680519223E+02 -0.32952047603E+02 -0.46969579918E+03  0.47358206696E+03  0.33879054799E+01 0.  0.
         13    1    3    3    0    0 -0.36578802950E+02 -0.22661123503E+02 -0.34343042871E+03  0.34611557998E+03  0.00000000000E+00 0.  1.
          3    1    3    3  501    0 -0.14101716273E+02 -0.10290924100E+02 -0.12626537048E+03  0.12746648698E+03  0.00000000000E+00 0.  1.
         -3    1    1    2    0  502  0.50680519223E+02  0.32952047603E+02 -0.52663196883E+03  0.53009016503E+03  0.00000000000E+00 0. -1.
<mgrwt>
<rscale>  1 0.30000000E+03</rscale>
<asrwt>0</asrwt>
<pdfrwt beam="1">  1       21 0.13353599E-01 0.30000000E+03</pdfrwt>
<pdfrwt beam="2">0</pdfrwt>
<totfact> 0.51000944E+03</totfact>
</mgrwt>
</event>
<event>
 6    1  0.6377696E-002  0.3000000E+03  0.7818608E-02  0.1093470E+00
         21   -1    0    0  501  502  0.00000000000E+00  0.00000000000E+00  0.76116349428E+01  0.76116349428E+01  0.00000000000E+00 0. -1.
         13   -1    0    0    0    0 -0.00000000000E+00 -0.00000000000E+00 -0.10000000000E+04  0.10000000000E+04  0.00000000000E+00 0.  1.
    9000005    2    1    2  501    0 -0.63692018634E+02  0.18035126599E+02 -0.82428523794E+03  0.82694453673E+03  0.30289136226E+01 0.  0.
         13    1    3    3    0    0 -0.99349035011E+01  0.39638811222E+01 -0.13453416973E+03  0.13495872512E+03  0.00000000000E+00 0.  1.
          1    1    3    3  501    0 -0.53757115133E+02  0.14071245476E+02 -0.68975106821E+03  0.69198581161E+03  0.00000000000E+00 0.  1.
         -1    1    1    2    0  502  0.63692018634E+02 -0.18035126599E+02 -0.16810312712E+03  0.18066709821E+03  0.00000000000E+00 0. -1.
<mgrwt>
<rscale>  1 0.30000000E+03</rscale>
<asrwt>0</asrwt>
<pdfrwt beam="1">  1       21 0.27678731E-01 0.30000000E+03</pdfrwt>
<pdfrwt beam="2">0</pdfrwt>
<totfact> 0.12762519E+03</totfact>
</mgrwt>
</event>
<event>
 6    1  0.6377696E-002  0.3000000E+03  0.7818608E-02  0.1093470E+00
         21   -1    0    0  501  502  0.00000000000E+00  0.00000000000E+00  0.13792518150E+01  0.13792518150E+01  0.00000000000E+00 0. -1.
         13   -1    0    0    0    0 -0.00000000000E+00 -0.00000000000E+00 -0.10000000000E+04  0.10000000000E+04  0.00000000000E+00 0.  1.
    9000005    2    1    2  501    0 -0.11517550254E+02 -0.34767593693E+02 -0.57708965656E+03  0.57826000061E+03  0.32736921018E+01 0.  0.
         13    1    3    3    0    0 -0.46956446565E+01 -0.17626321000E+02 -0.30618366978E+03  0.30672654908E+03  0.00000000000E+00 0.  1.
          1    1    3    3  501    0 -0.68219055975E+01 -0.17141272693E+02 -0.27090598679E+03  0.27153345154E+03  0.00000000000E+00 0.  1.
         -3    1    1    2    0  502  0.11517550254E+02  0.34767593693E+02 -0.42153109162E+03  0.42311925120E+03  0.00000000000E+00 0. -1.
<mgrwt>
<rscale>  1 0.30000000E+03</rscale>
<asrwt>0</asrwt>
<pdfrwt beam="1">  1       21 0.50154717E-02 0.30000000E+03</pdfrwt>
<pdfrwt beam="2">0</pdfrwt>
<totfact> 0.28653333E+04</totfact>
</mgrwt>
</event>
<event>
 6    1  0.6377696E-002  0.3000000E+03  0.7818608E-02  0.1093470E+00
         21   -1    0    0  501  502  0.00000000000E+00  0.00000000000E+00  0.25686603313E+01  0.25686603313E+01  0.00000000000E+00 0. -1.
         13   -1    0    0    0    0 -0.00000000000E+00 -0.00000000000E+00 -0.10000000000E+04  0.10000000000E+04  0.00000000000E+00 0.  1.
    9000005    2    1    2  501    0 -0.11390706459E+02  0.47225971840E+02 -0.35827163373E+03  0.36156540737E+03  0.33075159831E+01 0.  0.
         13    1    3    3    0    0 -0.17970024092E+01  0.79626620319E+01 -0.51586816198E+02  0.52228658892E+02  0.00000000000E+00 0.  1.
          3    1    3    3  501    0 -0.95937040498E+01  0.39263309808E+02 -0.30668481753E+03  0.30933674848E+03  0.00000000000E+00 0.  1.
         -1    1    1    2    0  502  0.11390706459E+02 -0.47225971840E+02 -0.63915970594E+03  0.64100325296E+03  0.00000000000E+00 0. -1.
<mgrwt>
<rscale>  1 0.30000000E+03</rscale>
<asrwt>0</asrwt>
<pdfrwt beam="1">  1       21 0.93406027E-02 0.30000000E+03</pdfrwt>
<pdfrwt beam="2">0</pdfrwt>
<totfact> 0.97159548E+03</totfact>
</mgrwt>
</event>
<event>
 6    1  0.6377696E-002  0.3000000E+03  0.7818608E-02  0.1093470E+00
         21   -1    0    0  501  502  0.00000000000E+00  0.00000000000E+00  0.10017545591E+01  0.10017545591E+01  0.00000000000E+00 0. -1.
         13   -1    0    0    0    0 -0.00000000000E+00 -0.00000000000E+00 -0.10000000000E+04  0.10000000000E+04  0.00000000000E+00 0.  1.
    9000005    2    1    2  501    0  0.57354619879E+01  0.30618906755E+02 -0.41410574361E+03  0.41528027496E+03  0.19305176323E+01 0.  0.
         13    1    3    3    0    0  0.32465008074E+01  0.20849028264E+02 -0.27170732178E+03  0.27252539415E+03  0.00000000000E+00 0.  1.
          3    1    3    3  501    0  0.24889611805E+01  0.97698784907E+01 -0.14239842183E+03  0.14275488081E+03  0.00000000000E+00 0.  1.
         -1    1    1    2    0  502 -0.57354619879E+01 -0.30618906755E+02 -0.58489250183E+03  0.58572147960E+03  0.00000000000E+00 0. -1.
<mgrwt>
<rscale>  1 0.30000000E+03</rscale>
<asrwt>0</asrwt>
<pdfrwt beam="1">  1       21 0.36427515E-02 0.30000000E+03</pdfrwt>
<pdfrwt beam="2">0</pdfrwt>
<totfact> 0.49206275E+04</totfact>
</mgrwt>
</event>
<event>
 6    1  0.6377696E-002  0.3000000E+03  0.7818608E-02  0.1093470E+00
         21   -1    0    0  501  502  0.00000000000E+00  0.00000000000E+00  0.95384573551E+00  0.95384573551E+00  0.00000000000E+00 0. -1.
         13   -1    0    0    0    0 -0.00000000000E+00 -0.00000000000E+00 -0.10000000000E+04  0.10000000000E+04  0.00000000000E+00 0.  1.
    9000005    2    1    2  501    0  0.30479800693E+02 -0.32075676760E+01 -0.54718919628E+03  0.54805869537E+03  0.36069807768E+01 0.  0.
         13    1    3    3    0    0  0.25213087595E+02 -0.12642183022E+01 -0.44587880851E+03  0.44659289058E+03  0.00000000000E+00 0.  1.
          3    1    3    3  501    0  0.52667130981E+01 -0.19433493739E+01 -0.10131038776E+03  0.10146580479E+03  0.00000000000E+00 0.  1.
         -3    1    1    2    0  502 -0.30479800693E+02  0.32075676760E+01 -0.45185695799E+03  0.45289515036E+03  0.00000000000E+00 0. -1.
<mgrwt>
<rscale>  1 0.30000000E+03</rscale>
<asrwt>0</asrwt>
<pdfrwt beam="1">  1       21 0.34685373E-02 0.30000000E+03</pdfrwt>
<pdfrwt beam="2">0</pdfrwt>
<totfact> 0.53418179E+04</totfact>
</mgrwt>
</event>
<event>
 6    1  0.6377696E-002  0.3000000E+03  0.7818608E-02  0.1093470E+00
         21   -1    0    0  501  502  0.00000000000E+00  0.00000000000E+00  0.18528346012E+01  0.18528346012E+01  0.00000000000E+00 0. -1.
         13   -1    0    0    0    0 -0.00000000000E+00 -0.00000000000E+00 -0.10000000000E+04  0.10000000000E+04  0.00000000000E+00 0.  1.
    9000005    2    1    2  501    0 -0.41914128023E+02 -0.63569953297E+01 -0.41739037768E+03  0.41955080644E+03  0.33085175068E+01 0.  0.
         13    1    3    3    0    0 -0.18965223659E+02 -0.44241320175E+01 -0.19729916479E+03  0.19825794582E+03  0.00000000000E+00 0.  1.
          1    1    3    3  501    0 -0.22948904365E+02 -0.19328633123E+01 -0.22009121289E+03  0.22129286062E+03  0.00000000000E+00 0.  1.
         -3    1    1    2    0  502  0.41914128023E+02  0.63569953297E+01 -0.58075678772E+03  0.58230202816E+03  0.00000000000E+00 0. -1.
<mgrwt>
<rscale>  1 0.30000000E+03</rscale>
<asrwt>0</asrwt>
<pdfrwt beam="1">  1       21 0.67375946E-02 0.30000000E+03</pdfrwt>
<pdfrwt beam="2">0</pdfrwt>
<totfact> 0.17242966E+04</totfact>
</mgrwt>
</event>
<event>
 6    1  0.6377696E-002  0.3000000E+03  0.7818608E-02  0.1093470E+00
         21   -1    0    0  501  502  0.00000000000E+00  0.00000000000E+00  0.12693913747E+01  0.12693913747E+01  0.00000000000E+00 0. -1.
         13   -1    0    0    0    0 -0.00000000000E+00 -0.00000000000E+00 -0.10000000000E+04  0.10000000000E+04  0.00000000000E+00 0.  1.
    9000005    2    1    2  501    0 -0.33926335245E+02  0.54231269750E+01 -0.58746818861E+03  0.58857436518E+03  0.10977439984E+02 0.  0.
         13    1    3    3    0    0 -0.27048148551E+02  0.47165831255E+00 -0.48627488931E+03  0.48702678856E+03  0.00000000000E+00 0.  1.
          1    1    3    3  501    0 -0.68781866942E+01  0.49514686625E+01 -0.10119329930E+03  0.10154757662E+03  0.00000000000E+00 0.  1.
         -1    1    1    2    0  502  0.33926335245E+02 -0.54231269750E+01 -0.41126242001E+03  0.41269502619E+03  0.00000000000E+00 0. -1.
<mgrwt>
<rscale>  1 0.30000000E+03</rscale>
<asrwt>0</asrwt>
<pdfrwt beam="1">  1       21 0.46159784E-02 0.30000000E+03</pdfrwt>
<pdfrwt beam="2">0</pdfrwt>
<totfact> 0.33000784E+04</totfact>
</mgrwt>
</event>
<event>
 6    1  0.6377696E-002  0.3000000E+03  0.7818608E-02  0.1093470E+00
         21   -1    0    0  501  502  0.00000000000E+00  0.00000000000E+00  0.11297217546E+01  0.11297217546E+01  0.00000000000E+00 0. -1.
         13   -1    0    0    0    0 -0.00000000000E+00 -0.00000000000E+00 -0.10000000000E+04  0.10000000000E+04  0.00000000000E+00 0.  1.
    9000005    2    1    2  501    0  0.10333088745E+02  0.30252548268E+02 -0.65123248466E+03  0.65202511719E+03  0.33188807936E+01 0.  0.
         13    1    3    3    0    0  0.87903269083E+01  0.22608598722E+02 -0.47157799957E+03  0.47220146999E+03  0.00000000000E+00 0.  1.
          3    1    3    3  501    0  0.15427618363E+01  0.76439495461E+01 -0.17965448509E+03  0.17982364720E+03  0.00000000000E+00 0.  1.
         -1    1    1    2    0  502 -0.10333088745E+02 -0.30252548268E+02 -0.34763779358E+03  0.34910460456E+03  0.00000000000E+00 0. -1.
<mgrwt>
<rscale>  1 0.30000000E+03</rscale>
<asrwt>0</asrwt>
<pdfrwt beam="1">  1       21 0.41080878E-02 0.30000000E+03</pdfrwt>
<pdfrwt beam="2">0</pdfrwt>
<totfact> 0.40199820E+04</totfact>
</mgrwt>
</event>
<event>
 6    1  0.6377696E-002  0.3000000E+03  0.7818608E-02  0.1093470E+00
         21   -1    0    0  501  502  0.00000000000E+00  0.00000000000E+00  0.11922738472E+01  0.11922738472E+01  0.00000000000E+00 0. -1.
         13   -1    0    0    0    0 -0.00000000000E+00 -0.00000000000E+00 -0.10000000000E+04  0.10000000000E+04  0.00000000000E+00 0.  1.
    9000005    2    1    2  501    0 -0.31136303513E+02  0.11421020491E+02 -0.36543078114E+03  0.36694763368E+03  0.33167686309E+01 0.  0.
         13    1    3    3    0    0 -0.23259202553E+02  0.97877736394E+01 -0.26811765166E+03  0.26930255503E+03  0.00000000000E+00 0.  1.
          3    1    3    3  501    0 -0.78771009596E+01  0.16332468515E+01 -0.97313129483E+02  0.97645078650E+02  0.00000000000E+00 0.  1.
         -1    1    1    2    0  502  0.31136303513E+02 -0.11421020491E+02 -0.63337694501E+03  0.63424464017E+03  0.00000000000E+00 0. -1.
<mgrwt>
<rscale>  1 0.30000000E+03</rscale>
<asrwt>0</asrwt>
<pdfrwt beam="1">  1       21 0.43355504E-02 0.30000000E+03</pdfrwt>
<pdfrwt beam="2">0</pdfrwt>
<totfact> 0.36701961E+04</totfact>
</mgrwt>
</event>
<event>
 6    1  0.6377696E-002  0.3000000E+03  0.7818608E-02  0.1093470E+00
         21   -1    0    0  501  502  0.00000000000E+00  0.00000000000E+00  0.10268096604E+01  0.10268096604E+01  0.00000000000E+00 0. -1.
         13   -1    0    0    0    0 -0.00000000000E+00 -0.00000000000E+00 -0.10000000000E+04  0.10000000000E+04  0.00000000000E+00 0.  1.
    9000005    2    1    2  501    0  0.95879241637E+01 -0.28630168011E+02 -0.66421766829E+03  0.66491243277E+03  0.34376696690E+01 0.  0.
         13    1    3    3    0    0  0.54274505930E+01 -0.20263948705E+02 -0.47924907696E+03  0.47970799723E+03  0.00000000000E+00 0.  1.
          3    1    3    3  501    0  0.41604735707E+01 -0.83662193060E+01 -0.18496859133E+03  0.18520443554E+03  0.00000000000E+00 0.  1.
         -1    1    1    2    0  502 -0.95879241637E+01  0.28630168011E+02 -0.33475552205E+03  0.33611437689E+03  0.00000000000E+00 0. -1.
<mgrwt>
<rscale>  1 0.30000000E+03</rscale>
<asrwt>0</asrwt>
<pdfrwt beam="1">  1       21 0.37338612E-02 0.30000000E+03</pdfrwt>
<pdfrwt beam="2">0</pdfrwt>
<totfact> 0.47207923E+04</totfact>
</mgrwt>
</event>
<event>
 6    1  0.6377696E-002  0.3000000E+03  0.7818608E-02  0.1093470E+00
         21   -1    0    0  501  502  0.00000000000E+00  0.00000000000E+00  0.27470353575E+01  0.27470353575E+01  0.00000000000E+00 0. -1.
         13   -1    0    0    0    0 -0.00000000000E+00 -0.00000000000E+00 -0.10000000000E+04  0.10000000000E+04  0.00000000000E+00 0.  1.
    9000005    2    1    2  501    0  0.27880052948E+02 -0.32611030950E+02 -0.78607852618E+03  0.78725824179E+03  0.39132157155E+01 0.  0.
         13    1    3    3    0    0  0.70566078312E+01 -0.10446995891E+02 -0.25036278691E+03  0.25067999622E+03  0.00000000000E+00 0.  1.
          3    1    3    3  501    0  0.20823445117E+02 -0.22164035060E+02 -0.53571573927E+03  0.53657824557E+03  0.00000000000E+00 0.  1.
         -3    1    1    2    0  502 -0.27880052948E+02  0.32611030950E+02 -0.21117443846E+03  0.21548879356E+03  0.00000000000E+00 0. -1.
<mgrwt>
<rscale>  1 0.30000000E+03</rscale>
<asrwt>0</asrwt>
<pdfrwt beam="1">  1       21 0.99892405E-02 0.30000000E+03</pdfrwt>
<pdfrwt beam="2">0</pdfrwt>
<totfact> 0.86197619E+03</totfact>
</mgrwt>
</event>
<event>
 6    1  0.6377696E-002  0.3000000E+03  0.7818608E-02  0.1093470E+00
         21   -1    0    0  501  502  0.00000000000E+00  0.00000000000E+00  0.11003868036E+01  0.11003868036E+01  0.00000000000E+00 0. -1.
         13   -1    0    0    0    0 -0.00000000000E+00 -0.00000000000E+00 -0.10000000000E+04  0.10000000000E+04  0.00000000000E+00 0.  1.
    9000005    2    1    2  501    0 -0.16821649317E+02  0.28278829636E+02 -0.51978668117E+03  0.52085892491E+03  0.57589617411E+01 0.  0.
         13    1    3    3    0    0 -0.94751149660E+01  0.17583756453E+02 -0.35547588063E+03  0.35603661048E+03  0.00000000000E+00 0.  1.
          3    1    3    3  501    0 -0.73465343514E+01  0.10695073183E+02 -0.16431080055E+03  0.16482231443E+03  0.00000000000E+00 0.  1.
         -3    1    1    2    0  502  0.16821649317E+02 -0.28278829636E+02 -0.47911293202E+03  0.48024146189E+03  0.00000000000E+00 0. -1.
<mgrwt>
<rscale>  1 0.30000000E+03</rscale>
<asrwt>0</asrwt>
<pdfrwt beam="1">  1       21 0.40014150E-02 0.30000000E+03</pdfrwt>
<pdfrwt beam="2">0</pdfrwt>
<totfact> 0.42022287E+04</totfact>
</mgrwt>
</event>
<event>
 6    1  0.6377696E-002  0.3000000E+03  0.7818608E-02  0.1093470E+00
         21   -1    0    0  501  502  0.00000000000E+00  0.00000000000E+00  0.11536855046E+01  0.11536855046E+01  0.00000000000E+00 0. -1.
         13   -1    0    0    0    0 -0.00000000000E+00 -0.00000000000E+00 -0.10000000000E+04  0.10000000000E+04  0.00000000000E+00 0.  1.
    9000005    2    1    2  501    0 -0.25935733508E+02  0.21073225593E+02 -0.58394931544E+03  0.58491305446E+03  0.31201221470E+01 0.  0.
         13    1    3    3    0    0 -0.15275798437E+02  0.10966021957E+02 -0.30910483852E+03  0.30967629043E+03  0.00000000000E+00 0.  1.
          3    1    3    3  501    0 -0.10659935071E+02  0.10107203636E+02 -0.27484447692E+03  0.27523676403E+03  0.00000000000E+00 0.  1.
         -1    1    1    2    0  502  0.25935733508E+02 -0.21073225593E+02 -0.41489699905E+03  0.41624063104E+03  0.00000000000E+00 0. -1.
<mgrwt>
<rscale>  1 0.30000000E+03</rscale>
<asrwt>0</asrwt>
<pdfrwt beam="1">  1       21 0.41952289E-02 0.30000000E+03</pdfrwt>
<pdfrwt beam="2">0</pdfrwt>
<totfact> 0.38800857E+04</totfact>
</mgrwt>
</event>
<event>
 6    1  0.6377696E-002  0.3000000E+03  0.7818608E-02  0.1093470E+00
         21   -1    0    0  501  502  0.00000000000E+00  0.00000000000E+00  0.10415521647E+01  0.10415521647E+01  0.00000000000E+00 0. -1.
         13   -1    0    0    0    0 -0.00000000000E+00 -0.00000000000E+00 -0.10000000000E+04  0.10000000000E+04  0.00000000000E+00 0.  1.
    9000005    2    1    2  501    0 -0.32937783458E+01 -0.30692600412E+02 -0.64169710819E+03  0.64244909616E+03  0.35746057119E+01 0.  0.
         13    1    3    3    0    0 -0.37284812241E+01 -0.25630926888E+02 -0.55371147804E+03  0.55431691919E+03  0.00000000000E+00 0.  1.
          1    1    3    3  501    0  0.43470287822E+00 -0.50616735234E+01 -0.87985630148E+02  0.88132176973E+02  0.00000000000E+00 0.  1.
         -1    1    1    2    0  502  0.32937783458E+01  0.30692600412E+02 -0.35726133965E+03  0.35859245600E+03  0.00000000000E+00 0. -1.
<mgrwt>
<rscale>  1 0.30000000E+03</rscale>
<asrwt>0</asrwt>
<pdfrwt beam="1">  1       21 0.37874704E-02 0.30000000E+03</pdfrwt>
<pdfrwt beam="2">0</pdfrwt>
<totfact> 0.46091116E+04</totfact>
</mgrwt>
</event>
<event>
 6    1  0.6377696E-002  0.3000000E+03  0.7818608E-02  0.1093470E+00
         21   -1    0    0  501  502  0.00000000000E+00  0.00000000000E+00  0.11187584247E+01  0.11187584247E+01  0.00000000000E+00 0. -1.
         13   -1    0    0    0    0 -0.00000000000E+00 -0.00000000000E+00 -0.10000000000E+04  0.10000000000E+04  0.00000000000E+00 0.  1.
    9000005    2    1    2  501    0 -0.32314458330E+02  0.19257748793E+01 -0.62105772932E+03  0.62191097997E+03  0.35540168348E+01 0.  0.
         13    1    3    3    0    0 -0.12978226543E+02  0.79321210871E+00 -0.28345907918E+03  0.28375713756E+03  0.00000000000E+00 0.  1.
          3    1    3    3  501    0 -0.19336231786E+02  0.11325627706E+01 -0.33759865014E+03  0.33815384240E+03  0.00000000000E+00 0.  1.
         -3    1    1    2    0  502  0.32314458330E+02 -0.19257748793E+01 -0.37782351226E+03  0.37920777846E+03  0.00000000000E+00 0. -1.
<mgrwt>
<rscale>  1 0.30000000E+03</rscale>
<asrwt>0</asrwt>
<pdfrwt beam="1">  1       21 0.40682210E-02 0.30000000E+03</pdfrwt>
<pdfrwt beam="2">0</pdfrwt>
<totfact> 0.40866223E+04</totfact>
</mgrwt>
</event>
<event>
 6    1  0.6377696E-002  0.3000000E+03  0.7818608E-02  0.1093470E+00
         21   -1    0    0  501  502  0.00000000000E+00  0.00000000000E+00  0.13894752899E+01  0.13894752899E+01  0.00000000000E+00 0. -1.
         13   -1    0    0    0    0 -0.00000000000E+00 -0.00000000000E+00 -0.10000000000E+04  0.10000000000E+04  0.00000000000E+00 0.  1.
    9000005    2    1    2  501    0 -0.13309025951E+02  0.34337912279E+02 -0.56301456587E+03  0.56423954478E+03  0.49638809805E+01 0.  0.
         13    1    3    3    0    0 -0.12981097047E+02  0.28767397149E+02 -0.48470363895E+03  0.48573005840E+03  0.00000000000E+00 0.  1.
          1    1    3    3  501    0 -0.32792890368E+00  0.55705151305E+01 -0.78310926920E+02  0.78509486377E+02  0.00000000000E+00 0.  1.
         -1    1    1    2    0  502  0.13309025951E+02 -0.34337912279E+02 -0.43559595884E+03  0.43714993051E+03  0.00000000000E+00 0. -1.
<mgrwt>
<rscale>  1 0.30000000E+03</rscale>
<asrwt>0</asrwt>
<pdfrwt beam="1">  1       21 0.50526481E-02 0.30000000E+03</pdfrwt>
<pdfrwt beam="2">0</pdfrwt>
<totfact> 0.28294745E+04</totfact>
</mgrwt>
</event>
<event>
 6    1  0.6377696E-002  0.3000000E+03  0.7818608E-02  0.1093470E+00
         21   -1    0    0  501  502  0.00000000000E+00  0.00000000000E+00  0.18228901716E+01  0.18228901716E+01  0.00000000000E+00 0. -1.
         13   -1    0    0    0    0 -0.00000000000E+00 -0.00000000000E+00 -0.10000000000E+04  0.10000000000E+04  0.00000000000E+00 0.  1.
    9000005    2    1    2  501    0 -0.31627252156E+02 -0.25309036860E+02 -0.65582412453E+03  0.65708183232E+03  0.32282540190E+01 0.  0.
         13    1    3    3    0    0 -0.30352166036E+02 -0.23532596411E+02 -0.62670809000E+03  0.62788380067E+03  0.00000000000E+00 0.  1.
          3    1    3    3  501    0 -0.12750861198E+01 -0.17764404485E+01 -0.29116034528E+02  0.29198031644E+02  0.00000000000E+00 0.  1.
         -3    1    1    2    0  502  0.31627252156E+02  0.25309036860E+02 -0.34235298530E+03  0.34474105785E+03  0.00000000000E+00 0. -1.
<mgrwt>
<rscale>  1 0.30000000E+03</rscale>
<asrwt>0</asrwt>
<pdfrwt beam="1">  1       21 0.66287055E-02 0.30000000E+03</pdfrwt>
<pdfrwt beam="2">0</pdfrwt>
<totfact> 0.17737194E+04</totfact>
</mgrwt>
</event>
<event>
 6    1  0.6377696E-002  0.3000000E+03  0.7818608E-02  0.1093470E+00
         21   -1    0    0  501  502  0.00000000000E+00  0.00000000000E+00  0.12677822144E+01  0.12677822144E+01  0.00000000000E+00 0. -1.
         13   -1    0    0    0    0 -0.00000000000E+00 -0.00000000000E+00 -0.10000000000E+04  0.10000000000E+04  0.00000000000E+00 0.  1.
    9000005    2    1    2  501    0 -0.29969340938E+02 -0.51094406707E+01 -0.75894663575E+03  0.75956260409E+03  0.33295397051E+01 0.  0.
         13    1    3    3    0    0 -0.11936246534E+02 -0.72801016751E+00 -0.27316659738E+03  0.27342822441E+03  0.00000000000E+00 0.  1.
          3    1    3    3  501    0 -0.18033094404E+02 -0.43814305032E+01 -0.48578003837E+03  0.48613437968E+03  0.00000000000E+00 0.  1.
         -3    1    1    2    0  502  0.29969340938E+02  0.51094406707E+01 -0.23978558204E+03  0.24170517813E+03  0.00000000000E+00 0. -1.
<mgrwt>
<rscale>  1 0.30000000E+03</rscale>
<asrwt>0</asrwt>
<pdfrwt beam="1">  1       21 0.46101269E-02 0.30000000E+03</pdfrwt>
<pdfrwt beam="2">0</pdfrwt>
<totfact> 0.33071987E+04</totfact>
</mgrwt>
</event>
<event>
 6    1  0.6377696E-002  0.3000000E+03  0.7818608E-02  0.1093470E+00
         21   -1    0    0  501  502  0.00000000000E+00  0.00000000000E+00  0.59296500023E+01  0.59296500023E+01  0.00000000000E+00 0. -1.
         13   -1    0    0    0    0 -0.00000000000E+00 -0.00000000000E+00 -0.10000000000E+04  0.10000000000E+04  0.00000000000E+00 0.  1.
    9000005    2    1    2  501    0  0.65155690316E+02 -0.56744843574E+01 -0.76233235920E+03  0.76513936753E+03  0.31878064737E+01 0.  0.
         13    1    3    3    0    0  0.18349243662E+02 -0.19320430451E+00 -0.21717215181E+03  0.21794603825E+03  0.00000000000E+00 0.  1.
          3    1    3    3  501    0  0.46806446654E+02 -0.54812800529E+01 -0.54516020739E+03  0.54719332928E+03  0.00000000000E+00 0.  1.
         -1    1    1    2    0  502 -0.65155690316E+02  0.56744843574E+01 -0.23173799080E+03  0.24079028247E+03  0.00000000000E+00 0. -1.
<mgrwt>
<rscale>  1 0.30000000E+03</rscale>
<asrwt>0</asrwt>
<pdfrwt beam="1">  1       21 0.21562409E-01 0.30000000E+03</pdfrwt>
<pdfrwt beam="2">0</pdfrwt>
<totfact> 0.20773381E+03</totfact>
</mgrwt>
</event>
<event>
 6    1  0.6377696E-002  0.3000000E+03  0.7818608E-02  0.1093470E+00
         21   -1    0    0  501  502  0.00000000000E+00  0.00000000000E+00  0.44692672056E+01  0.44692672056E+01  0.00000000000E+00 0. -1.
         13   -1    0    0    0    0 -0.00000000000E+00 -0.00000000000E+00 -0.10000000000E+04  0.10000000000E+04  0.00000000000E+00 0.  1.
    9000005    2    1    2  501    0 -0.41156460446E+02 -0.42493377499E+02 -0.73152848890E+03  0.73392033235E+03  0.23627957100E+01 0.  0.
         13    1    3    3    0    0 -0.28350578748E+02 -0.29532336250E+02 -0.49266998229E+03  0.49436790516E+03  0.00000000000E+00 0.  1.
          1    1    3    3  501    0 -0.12805881698E+02 -0.12961041249E+02 -0.23885850661E+03  0.23955242720E+03  0.00000000000E+00 0.  1.
         -1    1    1    2    0  502  0.41156460446E+02  0.42493377499E+02 -0.26400224389E+03  0.27054893485E+03  0.00000000000E+00 0. -1.
<mgrwt>
<rscale>  1 0.30000000E+03</rscale>
<asrwt>0</asrwt>
<pdfrwt beam="1">  1       21 0.16251915E-01 0.30000000E+03</pdfrwt>
<pdfrwt beam="2">0</pdfrwt>
<totfact> 0.35477804E+03</totfact>
</mgrwt>
</event>
<event>
 6    1  0.6377696E-002  0.3000000E+03  0.7818608E-02  0.1093470E+00
         21   -1    0    0  501  502  0.00000000000E+00  0.00000000000E+00  0.15985778811E+01  0.15985778811E+01  0.00000000000E+00 0. -1.
         13   -1    0    0    0    0 -0.00000000000E+00 -0.00000000000E+00 -0.10000000000E+04  0.10000000000E+04  0.00000000000E+00 0.  1.
    9000005    2    1    2  501    0  0.33411761582E+02  0.15034059598E+02 -0.69238769815E+03  0.69339934359E+03  0.77172781655E+01 0.  0.
         13    1    3    3    0    0 -0.23959409015E+00  0.23728937056E+00 -0.23382078514E+02  0.23384509984E+02  0.00000000000E+00 0.  1.
          1    1    3    3  501    0  0.33651355672E+02  0.14796770228E+02 -0.66900561964E+03  0.67001483361E+03  0.00000000000E+00 0.  1.
         -3    1    1    2    0  502 -0.33411761582E+02 -0.15034059598E+02 -0.30601372397E+03  0.30819923429E+03  0.00000000000E+00 0. -1.
<mgrwt>
<rscale>  1 0.30000000E+03</rscale>
<asrwt>0</asrwt>
<pdfrwt beam="1">  1       21 0.58130227E-02 0.30000000E+03</pdfrwt>
<pdfrwt beam="2">0</pdfrwt>
<totfact> 0.22253446E+04</totfact>
</mgrwt>
</event>
<event>
 6    1  0.6377696E-002  0.3000000E+03  0.7818608E-02  0.1093470E+00
         21   -1    0    0  501  502  0.00000000000E+00  0.00000000000E+00  0.28347546709E+01  0.28347546709E+01  0.00000000000E+00 0. -1.
         13   -1    0    0    0    0 -0.00000000000E+00 -0.00000000000E+00 -0.10000000000E+04  0.10000000000E+04  0.00000000000E+00 0.  1.
    9000005    2    1    2  501    0  0.42417631508E+02 -0.20183015592E+02 -0.26352518520E+03  0.26769235526E+03  0.26578657500E+01 0.  0.
         13    1    3    3    0    0  0.27857322099E+01 -0.14195750625E+01 -0.21653833798E+02  0.21878391519E+02  0.00000000000E+00 0.  1.
          1    1    3    3  501    0  0.39631899298E+02 -0.18763440530E+02 -0.24187135140E+03  0.24581396375E+03  0.00000000000E+00 0.  1.
         -1    1    1    2    0  502 -0.42417631508E+02  0.20183015592E+02 -0.73364006013E+03  0.73514239941E+03  0.00000000000E+00 0. -1.
<mgrwt>
<rscale>  1 0.30000000E+03</rscale>
<asrwt>0</asrwt>
<pdfrwt beam="1">  1       21 0.10308221E-01 0.30000000E+03</pdfrwt>
<pdfrwt beam="2">0</pdfrwt>
<totfact> 0.81485554E+03</totfact>
</mgrwt>
</event>
<event>
 6    1  0.6377696E-002  0.3000000E+03  0.7818608E-02  0.1093470E+00
         21   -1    0    0  501  502  0.00000000000E+00  0.00000000000E+00  0.11233575359E+01  0.11233575359E+01  0.00000000000E+00 0. -1.
         13   -1    0    0    0    0 -0.00000000000E+00 -0.00000000000E+00 -0.10000000000E+04  0.10000000000E+04  0.00000000000E+00 0.  1.
    9000005    2    1    2  501    0 -0.30984233736E+02 -0.11857300380E+02 -0.56018109435E+03  0.56117517622E+03  0.37552123795E+01 0.  0.
         13    1    3    3    0    0 -0.26201421805E+02 -0.11403409283E+02 -0.48370531556E+03  0.48454864002E+03  0.00000000000E+00 0.  1.
          3    1    3    3  501    0 -0.47828119316E+01 -0.45389109697E+00 -0.76475778792E+02  0.76626536193E+02  0.00000000000E+00 0.  1.
         -1    1    1    2    0  502  0.30984233736E+02  0.11857300380E+02 -0.43869554811E+03  0.43994818132E+03  0.00000000000E+00 0. -1.
<mgrwt>
<rscale>  1 0.30000000E+03</rscale>
<asrwt>0</asrwt>
<pdfrwt beam="1">  1       21 0.40849451E-02 0.30000000E+03</pdfrwt>
<pdfrwt beam="2">0</pdfrwt>
<totfact> 0.40584584E+04</totfact>
</mgrwt>
</event>
<event>
 6    1  0.6377696E-002  0.3000000E+03  0.7818608E-02  0.1093470E+00
         21   -1    0    0  501  502  0.00000000000E+00  0.00000000000E+00  0.20391219326E+01  0.20391219326E+01  0.00000000000E+00 0. -1.
         13   -1    0    0    0    0 -0.00000000000E+00 -0.00000000000E+00 -0.10000000000E+04  0.10000000000E+04  0.00000000000E+00 0.  1.
    9000005    2    1    2  501    0 -0.41473779173E+02 -0.10764528225E+02 -0.34366008136E+03  0.34633684040E+03  0.33175405621E+01 0.  0.
         13    1    3    3    0    0 -0.16607371185E+02 -0.54066936645E+01 -0.13004118553E+03  0.13120879181E+03  0.00000000000E+00 0.  1.
          1    1    3    3  501    0 -0.24866407989E+02 -0.53578345610E+01 -0.21361889582E+03  0.21512804859E+03  0.00000000000E+00 0.  1.
         -3    1    1    2    0  502  0.41473779173E+02  0.10764528225E+02 -0.65430079671E+03  0.65570228153E+03  0.00000000000E+00 0. -1.
<mgrwt>
<rscale>  1 0.30000000E+03</rscale>
<asrwt>0</asrwt>
<pdfrwt beam="1">  1       21 0.74150045E-02 0.30000000E+03</pdfrwt>
<pdfrwt beam="2">0</pdfrwt>
<totfact> 0.14592689E+04</totfact>
</mgrwt>
</event>
<event>
 6    1  0.6377696E-002  0.3000000E+03  0.7818608E-02  0.1093470E+00
         21   -1    0    0  501  502  0.00000000000E+00  0.00000000000E+00  0.11351849901E+02  0.11351849901E+02  0.00000000000E+00 0. -1.
         13   -1    0    0    0    0 -0.00000000000E+00 -0.00000000000E+00 -0.10000000000E+04  0.10000000000E+04  0.00000000000E+00 0.  1.
    9000005    2    1    2  501    0  0.96005370326E+02  0.30331306981E+02 -0.65946247142E+03  0.66711322574E+03  0.35050584496E+01 0.  0.
         13    1    3    3    0    0  0.41844163080E+02  0.14372656282E+02 -0.28082255786E+03  0.28428650379E+03  0.00000000000E+00 0.  1.
          3    1    3    3  501    0  0.54161207246E+02  0.15958650699E+02 -0.37863991355E+03  0.38282672195E+03  0.00000000000E+00 0.  1.
         -1    1    1    2    0  502 -0.96005370326E+02 -0.30331306981E+02 -0.32918567868E+03  0.34423862416E+03  0.00000000000E+00 0. -1.
<mgrwt>
<rscale>  1 0.30000000E+03</rscale>
<asrwt>0</asrwt>
<pdfrwt beam="1">  1       21 0.41279541E-01 0.30000000E+03</pdfrwt>
<pdfrwt beam="2">0</pdfrwt>
<totfact> 0.56546992E+02</totfact>
</mgrwt>
</event>
<event>
 6    1  0.6377696E-002  0.3000000E+03  0.7818608E-02  0.1093470E+00
         21   -1    0    0  501  502  0.00000000000E+00  0.00000000000E+00  0.10563781828E+01  0.10563781828E+01  0.00000000000E+00 0. -1.
         13   -1    0    0    0    0 -0.00000000000E+00 -0.00000000000E+00 -0.10000000000E+04  0.10000000000E+04  0.00000000000E+00 0.  1.
    9000005    2    1    2  501    0 -0.21203853615E+02 -0.24278492257E+02 -0.44882179535E+03  0.44999098047E+03  0.34394671090E+01 0.  0.
         13    1    3    3    0    0 -0.36493103948E+01 -0.34818503353E+01 -0.87878063648E+02  0.88022694907E+02  0.00000000000E+00 0.  1.
          3    1    3    3  501    0 -0.17554543220E+02 -0.20796641921E+02 -0.36094373170E+03  0.36196828557E+03  0.00000000000E+00 0.  1.
         -1    1    1    2    0  502  0.21203853615E+02  0.24278492257E+02 -0.55012182647E+03  0.55106539771E+03  0.00000000000E+00 0. -1.
<mgrwt>
<rscale>  1 0.30000000E+03</rscale>
<asrwt>0</asrwt>
<pdfrwt beam="1">  1       21 0.38413833E-02 0.30000000E+03</pdfrwt>
<pdfrwt beam="2">0</pdfrwt>
<totfact> 0.45009302E+04</totfact>
</mgrwt>
</event>
<event>
 6    1  0.6377696E-002  0.3000000E+03  0.7818608E-02  0.1093470E+00
         21   -1    0    0  501  502  0.00000000000E+00  0.00000000000E+00  0.25487856358E+01  0.25487856358E+01  0.00000000000E+00 0. -1.
         13   -1    0    0    0    0 -0.00000000000E+00 -0.00000000000E+00 -0.10000000000E+04  0.10000000000E+04  0.00000000000E+00 0.  1.
    9000005    2    1    2  501    0  0.40772360387E+02  0.19931843051E+01 -0.20535030332E+03  0.20939671230E+03  0.34464321259E+01 0.  0.
         13    1    3    3    0    0  0.24048501063E+02  0.20919529154E-01 -0.11435065593E+03  0.11685205755E+03  0.00000000000E+00 0.  1.
          3    1    3    3  501    0  0.16723859324E+02  0.19722647760E+01 -0.90999647387E+02  0.92544654754E+02  0.00000000000E+00 0.  1.
         -3    1    1    2    0  502 -0.40772360387E+02 -0.19931843051E+01 -0.79210091105E+03  0.79315207333E+03  0.00000000000E+00 0. -1.
<mgrwt>
<rscale>  1 0.30000000E+03</rscale>
<asrwt>0</asrwt>
<pdfrwt beam="1">  1       21 0.92683309E-02 0.30000000E+03</pdfrwt>
<pdfrwt beam="2">0</pdfrwt>
<totfact> 0.98510222E+03</totfact>
</mgrwt>
</event>
<event>
 6    1  0.6377696E-002  0.3000000E+03  0.7818608E-02  0.1093470E+00
         21   -1    0    0  501  502  0.00000000000E+00  0.00000000000E+00  0.10924040864E+01  0.10924040864E+01  0.00000000000E+00 0. -1.
         13   -1    0    0    0    0 -0.00000000000E+00 -0.00000000000E+00 -0.10000000000E+04  0.10000000000E+04  0.00000000000E+00 0.  1.
    9000005    2    1    2  501    0 -0.45460467296E+01  0.32088348637E+02 -0.40955048772E+03  0.41084488852E+03  0.34046686506E+01 0.  0.
         13    1    3    3    0    0  0.22557337144E+00  0.36223560934E+01 -0.36770967641E+02  0.36949646931E+02  0.00000000000E+00 0.  1.
          1    1    3    3  501    0 -0.47716201010E+01  0.28465992543E+02 -0.37277952008E+03  0.37389524158E+03  0.00000000000E+00 0.  1.
         -1    1    1    2    0  502  0.45460467296E+01 -0.32088348637E+02 -0.58935710819E+03  0.59024751557E+03  0.00000000000E+00 0. -1.
<mgrwt>
<rscale>  1 0.30000000E+03</rscale>
<asrwt>0</asrwt>
<pdfrwt beam="1">  1       21 0.39723869E-02 0.30000000E+03</pdfrwt>
<pdfrwt beam="2">0</pdfrwt>
<totfact> 0.42540619E+04</totfact>
</mgrwt>
</event>
<event>
 6    1  0.6377696E-002  0.3000000E+03  0.7818608E-02  0.1093470E+00
         21   -1    0    0  501  502  0.00000000000E+00  0.00000000000E+00  0.16267449850E+01  0.16267449850E+01  0.00000000000E+00 0. -1.
         13   -1    0    0    0    0 -0.00000000000E+00 -0.00000000000E+00 -0.10000000000E+04  0.10000000000E+04  0.00000000000E+00 0.  1.
    9000005    2    1    2  501    0 -0.17936620975E+02  0.35795244742E+02 -0.44657042329E+03  0.44837328859E+03  0.32312600534E+01 0.  0.
         13    1    3    3    0    0 -0.92726608302E+01  0.21284293307E+02 -0.24721339857E+03  0.24830116353E+03  0.00000000000E+00 0.  1.
          1    1    3    3  501    0 -0.86639601449E+01  0.14510951435E+02 -0.19935702473E+03  0.20007212506E+03  0.00000000000E+00 0.  1.
         -3    1    1    2    0  502  0.17936620975E+02 -0.35795244742E+02 -0.55180283172E+03  0.55325345639E+03  0.00000000000E+00 0. -1.
<mgrwt>
<rscale>  1 0.30000000E+03</rscale>
<asrwt>0</asrwt>
<pdfrwt beam="1">  1       21 0.59154488E-02 0.30000000E+03</pdfrwt>
<pdfrwt beam="2">0</pdfrwt>
<totfact> 0.21593640E+04</totfact>
</mgrwt>
</event>
<event>
 6    1  0.6377696E-002  0.3000000E+03  0.7818608E-02  0.1093470E+00
         21   -1    0    0  501  502  0.00000000000E+00  0.00000000000E+00  0.10774594104E+01  0.10774594104E+01  0.00000000000E+00 0. -1.
         13   -1    0    0    0    0 -0.00000000000E+00 -0.00000000000E+00 -0.10000000000E+04  0.10000000000E+04  0.00000000000E+00 0.  1.
    9000005    2    1    2  501    0  0.32578666061E+02 -0.15244219111E+01 -0.55299380347E+03  0.55395764109E+03  0.17966922562E+01 0.  0.
         13    1    3    3    0    0  0.14343664866E+02 -0.13839437078E+01 -0.23501689072E+03  0.23545826582E+03  0.00000000000E+00 0.  1.
          1    1    3    3  501    0  0.18235001195E+02 -0.14047820332E+00 -0.31797691275E+03  0.31849937527E+03  0.00000000000E+00 0.  1.
         -1    1    1    2    0  502 -0.32578666061E+02  0.15244219111E+01 -0.44592873712E+03  0.44711981832E+03  0.00000000000E+00 0. -1.
<mgrwt>
<rscale>  1 0.30000000E+03</rscale>
<asrwt>0</asrwt>
<pdfrwt beam="1">  1       21 0.39180425E-02 0.30000000E+03</pdfrwt>
<pdfrwt beam="2">0</pdfrwt>
<totfact> 0.43538309E+04</totfact>
</mgrwt>
</event>
<event>
 6    1  0.6377696E-002  0.3000000E+03  0.7818608E-02  0.1093470E+00
         21   -1    0    0  501  502  0.00000000000E+00  0.00000000000E+00  0.10817339229E+01  0.10817339229E+01  0.00000000000E+00 0. -1.
         13   -1    0    0    0    0 -0.00000000000E+00 -0.00000000000E+00 -0.10000000000E+04  0.10000000000E+04  0.00000000000E+00 0.  1.
    9000005    2    1    2  501    0 -0.26509917158E+02 -0.18769979520E+02 -0.56945001985E+03  0.57038687401E+03  0.35739467771E+01 0.  0.
         13    1    3    3    0    0 -0.19455908770E+02 -0.14776490305E+02 -0.44928436087E+03  0.44994812365E+03  0.00000000000E+00 0.  1.
          1    1    3    3  501    0 -0.70540083877E+01 -0.39934892154E+01 -0.12016565898E+03  0.12043875036E+03  0.00000000000E+00 0.  1.
         -3    1    1    2    0  502  0.26509917158E+02  0.18769979520E+02 -0.42946824623E+03  0.43069485991E+03  0.00000000000E+00 0. -1.
<mgrwt>
<rscale>  1 0.30000000E+03</rscale>
<asrwt>0</asrwt>
<pdfrwt beam="1">  1       21 0.39335862E-02 0.30000000E+03</pdfrwt>
<pdfrwt beam="2">0</pdfrwt>
<totfact> 0.43249236E+04</totfact>
</mgrwt>
</event>
<event>
 6    1  0.6377696E-002  0.3000000E+03  0.7818608E-02  0.1093470E+00
         21   -1    0    0  501  502  0.00000000000E+00  0.00000000000E+00  0.32755869837E+01  0.32755869837E+01  0.00000000000E+00 0. -1.
         13   -1    0    0    0    0 -0.00000000000E+00 -0.00000000000E+00 -0.10000000000E+04  0.10000000000E+04  0.00000000000E+00 0.  1.
    9000005    2    1    2  501    0 -0.13239136437E+02 -0.53440949615E+02 -0.36358251678E+03  0.36774441497E+03  0.35353083841E+01 0.  0.
         13    1    3    3    0    0 -0.35497867814E+01 -0.88761110616E+01 -0.61309378220E+02  0.62050190906E+02  0.00000000000E+00 0.  1.
          1    1    3    3  501    0 -0.96893496560E+01 -0.44564838554E+02 -0.30227313856E+03  0.30569422407E+03  0.00000000000E+00 0.  1.
         -1    1    1    2    0  502  0.13239136437E+02  0.53440949615E+02 -0.63314189624E+03  0.63553117201E+03  0.00000000000E+00 0. -1.
<mgrwt>
<rscale>  1 0.30000000E+03</rscale>
<asrwt>0</asrwt>
<pdfrwt beam="1">  1       21 0.11911251E-01 0.30000000E+03</pdfrwt>
<pdfrwt beam="2">0</pdfrwt>
<totfact> 0.62811403E+03</totfact>
</mgrwt>
</event>
<event>
 6    1  0.6377696E-002  0.3000000E+03  0.7818608E-02  0.1093470E+00
         21   -1    0    0  501  502  0.00000000000E+00  0.00000000000E+00  0.25533297315E+01  0.25533297315E+01  0.00000000000E+00 0. -1.
         13   -1    0    0    0    0 -0.00000000000E+00 -0.00000000000E+00 -0.10000000000E+04  0.10000000000E+04  0.00000000000E+00 0.  1.
    9000005    2    1    2  501    0 -0.45220024780E+02 -0.22402406415E+02 -0.48866052450E+03  0.49127056982E+03  0.33084913173E+01 0.  0.
         13    1    3    3    0    0 -0.43979875559E+02 -0.21185491172E+02 -0.46921119196E+03  0.47174378338E+03  0.00000000000E+00 0.  1.
          1    1    3    3  501    0 -0.12401492214E+01 -0.12169152434E+01 -0.19449332536E+02  0.19526786446E+02  0.00000000000E+00 0.  1.
         -3    1    1    2    0  502  0.45220024780E+02  0.22402406415E+02 -0.50878614577E+03  0.51128275991E+03  0.00000000000E+00 0. -1.
<mgrwt>
<rscale>  1 0.30000000E+03</rscale>
<asrwt>0</asrwt>
<pdfrwt beam="1">  1       21 0.92848550E-02 0.30000000E+03</pdfrwt>
<pdfrwt beam="2">0</pdfrwt>
<totfact> 0.98198927E+03</totfact>
</mgrwt>
</event>
<event>
 6    1  0.6377696E-002  0.3000000E+03  0.7818608E-02  0.1093470E+00
         21   -1    0    0  501  502  0.00000000000E+00  0.00000000000E+00  0.32141996202E+01  0.32141996202E+01  0.00000000000E+00 0. -1.
         13   -1    0    0    0    0 -0.00000000000E+00 -0.00000000000E+00 -0.10000000000E+04  0.10000000000E+04  0.00000000000E+00 0.  1.
    9000005    2    1    2  501    0 -0.36575990917E+02  0.45000124764E+01 -0.11803472022E+03  0.12369074109E+03  0.30250669291E+01 0.  0.
         13    1    3    3    0    0 -0.32869127297E+02  0.31065791017E+01 -0.10541178874E+03  0.11046119485E+03  0.00000000000E+00 0.  1.
          3    1    3    3  501    0 -0.37068636206E+01  0.13934333746E+01 -0.12622931480E+02  0.13229546237E+02  0.00000000000E+00 0.  1.
         -3    1    1    2    0  502  0.36575990917E+02 -0.45000124764E+01 -0.87875108016E+03  0.87952345854E+03  0.00000000000E+00 0. -1.
<mgrwt>
<rscale>  1 0.30000000E+03</rscale>
<asrwt>0</asrwt>
<pdfrwt beam="1">  1       21 0.11688023E-01 0.30000000E+03</pdfrwt>
<pdfrwt beam="2">0</pdfrwt>
<totfact> 0.65001301E+03</totfact>
</mgrwt>
</event>
<event>
 6    1  0.6377696E-002  0.3000000E+03  0.7818608E-02  0.1093470E+00
         21   -1    0    0  501  502  0.00000000000E+00  0.00000000000E+00  0.14402010014E+01  0.14402010014E+01  0.00000000000E+00 0. -1.
         13   -1    0    0    0    0 -0.00000000000E+00 -0.00000000000E+00 -0.10000000000E+04  0.10000000000E+04  0.00000000000E+00 0.  1.
    9000005    2    1    2  501    0  0.30753937975E+02 -0.11174971017E+02 -0.74997082712E+03  0.75070695307E+03  0.58312245327E+01 0.  0.
         13    1    3    3    0    0  0.17927400497E+02 -0.36913391609E+01 -0.38743895575E+03  0.38787106377E+03  0.00000000000E+00 0.  1.
          1    1    3    3  501    0  0.12826537478E+02 -0.74836318559E+01 -0.36253187137E+03  0.36283588931E+03  0.00000000000E+00 0.  1.
         -1    1    1    2    0  502 -0.30753937975E+02  0.11174971017E+02 -0.24858897188E+03  0.25073324793E+03  0.00000000000E+00 0. -1.
<mgrwt>
<rscale>  1 0.30000000E+03</rscale>
<asrwt>0</asrwt>
<pdfrwt beam="1">  1       21 0.52371056E-02 0.30000000E+03</pdfrwt>
<pdfrwt beam="2">0</pdfrwt>
<totfact> 0.26614560E+04</totfact>
</mgrwt>
</event>
<event>
 6    1  0.6377696E-002  0.3000000E+03  0.7818608E-02  0.1093470E+00
         21   -1    0    0  501  502  0.00000000000E+00  0.00000000000E+00  0.10916616427E+01  0.10916616427E+01  0.00000000000E+00 0. -1.
         13   -1    0    0    0    0 -0.00000000000E+00 -0.00000000000E+00 -0.10000000000E+04  0.10000000000E+04  0.00000000000E+00 0.  1.
    9000005    2    1    2  501    0  0.32295705740E+02  0.52101112043E+01 -0.56034550964E+03  0.56131045172E+03  0.34892935041E+01 0.  0.
         13    1    3    3    0    0  0.25442370833E+01 -0.16480275584E+00 -0.57979235405E+02  0.58035265489E+02  0.00000000000E+00 0.  1.
          3    1    3    3  501    0  0.29751468656E+02  0.53749139602E+01 -0.50236627424E+03  0.50327518623E+03  0.00000000000E+00 0.  1.
         -3    1    1    2    0  502 -0.32295705740E+02 -0.52101112043E+01 -0.43856282871E+03  0.43978120992E+03  0.00000000000E+00 0. -1.
<mgrwt>
<rscale>  1 0.30000000E+03</rscale>
<asrwt>0</asrwt>
<pdfrwt beam="1">  1       21 0.39696871E-02 0.30000000E+03</pdfrwt>
<pdfrwt beam="2">0</pdfrwt>
<totfact> 0.42589336E+04</totfact>
</mgrwt>
</event>
<event>
 6    1  0.6377696E-002  0.3000000E+03  0.7818608E-02  0.1093470E+00
         21   -1    0    0  501  502  0.00000000000E+00  0.00000000000E+00  0.10904401261E+01  0.10904401261E+01  0.00000000000E+00 0. -1.
         13   -1    0    0    0    0 -0.00000000000E+00 -0.00000000000E+00 -0.10000000000E+04  0.10000000000E+04  0.00000000000E+00 0.  1.
    9000005    2    1    2  501    0  0.30195743835E+02 -0.10143918941E+00 -0.70109919146E+03  0.70175315750E+03  0.23716151567E+01 0.  0.
         13    1    3    3    0    0  0.16683946408E+02  0.11149245403E-01 -0.41442297472E+03  0.41475867220E+03  0.00000000000E+00 0.  1.
          3    1    3    3  501    0  0.13511797427E+02 -0.11258843481E+00 -0.28667621674E+03  0.28699448529E+03  0.00000000000E+00 0.  1.
         -1    1    1    2    0  502 -0.30195743835E+02  0.10143918941E+00 -0.29781036842E+03  0.29933728263E+03  0.00000000000E+00 0. -1.
<mgrwt>
<rscale>  1 0.30000000E+03</rscale>
<asrwt>0</asrwt>
<pdfrwt beam="1">  1       21 0.39652452E-02 0.30000000E+03</pdfrwt>
<pdfrwt beam="2">0</pdfrwt>
<totfact> 0.42669677E+04</totfact>
</mgrwt>
</event>
<event>
 6    1  0.6377696E-002  0.3000000E+03  0.7818608E-02  0.1093470E+00
         21   -1    0    0  501  502  0.00000000000E+00  0.00000000000E+00  0.16460797176E+01  0.16460797176E+01  0.00000000000E+00 0. -1.
         13   -1    0    0    0    0 -0.00000000000E+00 -0.00000000000E+00 -0.10000000000E+04  0.10000000000E+04  0.00000000000E+00 0.  1.
    9000005    2    1    2  501    0 -0.30362842689E+02 -0.14659939834E+02 -0.77723902653E+03  0.77797531209E+03  0.28750317976E+01 0.  0.
         13    1    3    3    0    0 -0.15613295676E+02 -0.90435188311E+01 -0.40378076784E+03  0.40418370664E+03  0.00000000000E+00 0.  1.
          1    1    3    3  501    0 -0.14749547012E+02 -0.56164210025E+01 -0.37345825869E+03  0.37379160545E+03  0.00000000000E+00 0.  1.
         -3    1    1    2    0  502  0.30362842689E+02  0.14659939834E+02 -0.22111489376E+03  0.22367076763E+03  0.00000000000E+00 0. -1.
<mgrwt>
<rscale>  1 0.30000000E+03</rscale>
<asrwt>0</asrwt>
<pdfrwt beam="1">  1       21 0.59857570E-02 0.30000000E+03</pdfrwt>
<pdfrwt beam="2">0</pdfrwt>
<totfact> 0.21158208E+04</totfact>
</mgrwt>
</event>
<event>
 6    1  0.6377696E-002  0.3000000E+03  0.7818608E-02  0.1093470E+00
         21   -1    0    0  501  502  0.00000000000E+00  0.00000000000E+00  0.11362506069E+01  0.11362506069E+01  0.00000000000E+00 0. -1.
         13   -1    0    0    0    0 -0.00000000000E+00 -0.00000000000E+00 -0.10000000000E+04  0.10000000000E+04  0.00000000000E+00 0.  1.
    9000005    2    1    2  501    0 -0.16314875089E+02 -0.28686577677E+02 -0.42029406150E+03  0.42162613108E+03  0.56922216561E+01 0.  0.
         13    1    3    3    0    0 -0.72367138402E+01 -0.76601784749E+01 -0.14319323913E+03  0.14358047254E+03  0.00000000000E+00 0.  1.
          1    1    3    3  501    0 -0.90781612487E+01 -0.21026399202E+02 -0.27710082237E+03  0.27804565854E+03  0.00000000000E+00 0.  1.
         -1    1    1    2    0  502  0.16314875089E+02  0.28686577677E+02 -0.57856968789E+03  0.57951011953E+03  0.00000000000E+00 0. -1.
<mgrwt>
<rscale>  1 0.30000000E+03</rscale>
<asrwt>0</asrwt>
<pdfrwt beam="1">  1       21 0.41318291E-02 0.30000000E+03</pdfrwt>
<pdfrwt beam="2">0</pdfrwt>
<totfact> 0.39810982E+04</totfact>
</mgrwt>
</event>
<event>
 6    1  0.6377696E-002  0.3000000E+03  0.7818608E-02  0.1093470E+00
         21   -1    0    0  501  502  0.00000000000E+00  0.00000000000E+00  0.13717109013E+01  0.13717109013E+01  0.00000000000E+00 0. -1.
         13   -1    0    0    0    0 -0.00000000000E+00 -0.00000000000E+00 -0.10000000000E+04  0.10000000000E+04  0.00000000000E+00 0.  1.
    9000005    2    1    2  501    0 -0.22733725892E+02 -0.29121755204E+02 -0.51464131563E+03  0.51597672802E+03  0.33765641819E+01 0.  0.
         13    1    3    3    0    0 -0.21698075568E+02 -0.26352403968E+02 -0.47606537629E+03  0.47728764721E+03  0.00000000000E+00 0.  1.
          1    1    3    3  501    0 -0.10356503235E+01 -0.27693512354E+01 -0.38575939339E+02  0.38689080808E+02  0.00000000000E+00 0.  1.
         -1    1    1    2    0  502  0.22733725892E+02  0.29121755204E+02 -0.48398697347E+03  0.48539498288E+03  0.00000000000E+00 0. -1.
<mgrwt>
<rscale>  1 0.30000000E+03</rscale>
<asrwt>0</asrwt>
<pdfrwt beam="1">  1       21 0.49880502E-02 0.30000000E+03</pdfrwt>
<pdfrwt beam="2">0</pdfrwt>
<totfact> 0.28922386E+04</totfact>
</mgrwt>
</event>
<event>
 6    1  0.6377696E-002  0.3000000E+03  0.7818608E-02  0.1093470E+00
         21   -1    0    0  501  502  0.00000000000E+00  0.00000000000E+00  0.30985584612E+01  0.30985584612E+01  0.00000000000E+00 0. -1.
         13   -1    0    0    0    0 -0.00000000000E+00 -0.00000000000E+00 -0.10000000000E+04  0.10000000000E+04  0.00000000000E+00 0.  1.
    9000005    2    1    2  501    0 -0.34451267247E+02  0.11323772184E+00 -0.10510972650E+03  0.11064163197E+03  0.25716690078E+01 0.  0.
         13    1    3    3    0    0 -0.13932884879E+01 -0.32037388672E+00 -0.32398470659E+01  0.35412570153E+01  0.00000000000E+00 0.  1.
          1    1    3    3  501    0 -0.33057978759E+02  0.43361160856E+00 -0.10186987943E+03  0.10710037495E+03  0.00000000000E+00 0.  1.
         -3    1    1    2    0  502  0.34451267247E+02 -0.11323772184E+00 -0.89179171504E+03  0.89245692649E+03  0.00000000000E+00 0. -1.
<mgrwt>
<rscale>  1 0.30000000E+03</rscale>
<asrwt>0</asrwt>
<pdfrwt beam="1">  1       21 0.11267509E-01 0.30000000E+03</pdfrwt>
<pdfrwt beam="2">0</pdfrwt>
<totfact> 0.69448824E+03</totfact>
</mgrwt>
</event>
<event>
 6    1  0.6377696E-002  0.3000000E+03  0.7818608E-02  0.1093470E+00
         21   -1    0    0  501  502  0.00000000000E+00  0.00000000000E+00  0.26071605251E+01  0.26071605251E+01  0.00000000000E+00 0. -1.
         13   -1    0    0    0    0 -0.00000000000E+00 -0.00000000000E+00 -0.10000000000E+04  0.10000000000E+04  0.00000000000E+00 0.  1.
    9000005    2    1    2  501    0  0.34685438370E+02 -0.33515423805E+02 -0.33658201479E+03  0.34003844010E+03  0.35106689452E+01 0.  0.
         13    1    3    3    0    0  0.89942145851E+01 -0.95670737283E+01 -0.81873336578E+02  0.82919648082E+02  0.00000000000E+00 0.  1.
          1    1    3    3  501    0  0.25691223785E+02 -0.23948350077E+02 -0.25470867822E+03  0.25711879202E+03  0.00000000000E+00 0.  1.
         -1    1    1    2    0  502 -0.34685438370E+02  0.33515423805E+02 -0.66081082468E+03  0.66256872042E+03  0.00000000000E+00 0. -1.
<mgrwt>
<rscale>  1 0.30000000E+03</rscale>
<asrwt>0</asrwt>
<pdfrwt beam="1">  1       21 0.94806037E-02 0.30000000E+03</pdfrwt>
<pdfrwt beam="2">0</pdfrwt>
<totfact> 0.94621065E+03</totfact>
</mgrwt>
</event>
<event>
 6    1  0.6377696E-002  0.3000000E+03  0.7818608E-02  0.1093470E+00
         21   -1    0    0  501  502  0.00000000000E+00  0.00000000000E+00  0.18328365262E+01  0.18328365262E+01  0.00000000000E+00 0. -1.
         13   -1    0    0    0    0 -0.00000000000E+00 -0.00000000000E+00 -0.10000000000E+04  0.10000000000E+04  0.00000000000E+00 0.  1.
    9000005    2    1    2  501    0 -0.28812243779E+02 -0.12648197459E+02 -0.16170537363E+03  0.16477940445E+03  0.36745037533E+01 0.  0.
         13    1    3    3    0    0 -0.13474771093E+02 -0.65464203716E+01 -0.67922771666E+02  0.69555215379E+02  0.00000000000E+00 0.  1.
          1    1    3    3  501    0 -0.15337472686E+02 -0.61017770872E+01 -0.93782601968E+02  0.95224189069E+02  0.00000000000E+00 0.  1.
         -3    1    1    2    0  502  0.28812243779E+02  0.12648197459E+02 -0.83646178984E+03  0.83705343208E+03  0.00000000000E+00 0. -1.
<mgrwt>
<rscale>  1 0.30000000E+03</rscale>
<asrwt>0</asrwt>
<pdfrwt beam="1">  1       21 0.66648741E-02 0.30000000E+03</pdfrwt>
<pdfrwt beam="2">0</pdfrwt>
<totfact> 0.17570640E+04</totfact>
</mgrwt>
</event>
<event>
 6    1  0.6377696E-002  0.3000000E+03  0.7818608E-02  0.1093470E+00
         21   -1    0    0  501  502  0.00000000000E+00  0.00000000000E+00  0.97667237484E+00  0.97667237484E+00  0.00000000000E+00 0. -1.
         13   -1    0    0    0    0 -0.00000000000E+00 -0.00000000000E+00 -0.10000000000E+04  0.10000000000E+04  0.00000000000E+00 0.  1.
    9000005    2    1    2  501    0  0.30216128231E+02  0.16459112463E+01 -0.61921864566E+03  0.61996837867E+03  0.36518473028E+01 0.  0.
         13    1    3    3    0    0  0.29301240842E+02  0.95840958544E+00 -0.59978937612E+03  0.60050543459E+03  0.00000000000E+00 0.  1.
          3    1    3    3  501    0  0.91488738912E+00  0.68750166087E+00 -0.19429269534E+02  0.19462944076E+02  0.00000000000E+00 0.  1.
         -1    1    1    2    0  502 -0.30216128231E+02 -0.16459112463E+01 -0.37980468197E+03  0.38100829371E+03  0.00000000000E+00 0. -1.
<mgrwt>
<rscale>  1 0.30000000E+03</rscale>
<asrwt>0</asrwt>
<pdfrwt beam="1">  1       21 0.35515434E-02 0.30000000E+03</pdfrwt>
<pdfrwt beam="2">0</pdfrwt>
<totfact> 0.51343728E+04</totfact>
</mgrwt>
</event>
<event>
 6    1  0.6377696E-002  0.3000000E+03  0.7818608E-02  0.1093470E+00
         21   -1    0    0  501  502  0.00000000000E+00  0.00000000000E+00  0.13874235915E+01  0.13874235915E+01  0.00000000000E+00 0. -1.
         13   -1    0    0    0    0 -0.00000000000E+00 -0.00000000000E+00 -0.10000000000E+04  0.10000000000E+04  0.00000000000E+00 0.  1.
    9000005    2    1    2  501    0  0.30460631406E+02 -0.20710893407E+02 -0.43257075633E+03  0.43414837941E+03  0.32503749063E+01 0.  0.
         13    1    3    3    0    0  0.30076995071E+02 -0.20663616229E+02 -0.43033925514E+03  0.43188364773E+03  0.00000000000E+00 0.  1.
          3    1    3    3  501    0  0.38363633503E+00 -0.47277177488E-01 -0.22315011978E+01  0.22647316761E+01  0.00000000000E+00 0.  1.
         -1    1    1    2    0  502 -0.30460631406E+02  0.20710893407E+02 -0.56604182007E+03  0.56723904418E+03  0.00000000000E+00 0. -1.
<mgrwt>
<rscale>  1 0.30000000E+03</rscale>
<asrwt>0</asrwt>
<pdfrwt beam="1">  1       21 0.50451873E-02 0.30000000E+03</pdfrwt>
<pdfrwt beam="2">0</pdfrwt>
<totfact> 0.28366146E+04</totfact>
</mgrwt>
</event>
<event>
 6    1  0.6377696E-002  0.3000000E+03  0.7818608E-02  0.1093470E+00
         21   -1    0    0  501  502  0.00000000000E+00  0.00000000000E+00  0.21674683930E+01  0.21674683930E+01  0.00000000000E+00 0. -1.
         13   -1    0    0    0    0 -0.00000000000E+00 -0.00000000000E+00 -0.10000000000E+04  0.10000000000E+04  0.00000000000E+00 0.  1.
    9000005    2    1    2  501    0  0.22602525200E+02  0.40061529017E+02 -0.57161044127E+03  0.57347052352E+03  0.37609206583E+01 0.  0.
         13    1    3    3    0    0  0.21322108730E+02  0.38589395674E+02 -0.55426242818E+03  0.55601314110E+03  0.00000000000E+00 0.  1.
          1    1    3    3  501    0  0.12804164697E+01  0.14721333432E+01 -0.17348013085E+02  0.17457382419E+02  0.00000000000E+00 0.  1.
         -3    1    1    2    0  502 -0.22602525200E+02 -0.40061529017E+02 -0.42622209034E+03  0.42869694487E+03  0.00000000000E+00 0. -1.
<mgrwt>
<rscale>  1 0.30000000E+03</rscale>
<asrwt>0</asrwt>
<pdfrwt beam="1">  1       21 0.78817199E-02 0.30000000E+03</pdfrwt>
<pdfrwt beam="2">0</pdfrwt>
<totfact> 0.13112342E+04</totfact>
</mgrwt>
</event>
<event>
 6    1  0.6377696E-002  0.3000000E+03  0.7818608E-02  0.1093470E+00
         21   -1    0    0  501  502  0.00000000000E+00  0.00000000000E+00  0.11409541434E+01  0.11409541434E+01  0.00000000000E+00 0. -1.
         13   -1    0    0    0    0 -0.00000000000E+00 -0.00000000000E+00 -0.10000000000E+04  0.10000000000E+04  0.00000000000E+00 0.  1.
    9000005    2    1    2  501    0 -0.28696450649E+02 -0.15757244925E+02 -0.38204520866E+03  0.38345892688E+03  0.32295659298E+01 0.  0.
         13    1    3    3    0    0 -0.20345769666E+02 -0.11489667251E+02 -0.28859133171E+03  0.28953569648E+03  0.00000000000E+00 0.  1.
          3    1    3    3  501    0 -0.83506809831E+01 -0.42675776740E+01 -0.93453876947E+02  0.93923230398E+02  0.00000000000E+00 0.  1.
         -3    1    1    2    0  502  0.28696450649E+02  0.15757244925E+02 -0.61681383720E+03  0.61768202727E+03  0.00000000000E+00 0. -1.
<mgrwt>
<rscale>  1 0.30000000E+03</rscale>
<asrwt>0</asrwt>
<pdfrwt beam="1">  1       21 0.41489329E-02 0.30000000E+03</pdfrwt>
<pdfrwt beam="2">0</pdfrwt>
<totfact> 0.39534474E+04</totfact>
</mgrwt>
</event>
<event>
 6    1  0.6377696E-002  0.3000000E+03  0.7818608E-02  0.1093470E+00
         21   -1    0    0  501  502  0.00000000000E+00  0.00000000000E+00  0.23060837064E+01  0.23060837064E+01  0.00000000000E+00 0. -1.
         13   -1    0    0    0    0 -0.00000000000E+00 -0.00000000000E+00 -0.10000000000E+04  0.10000000000E+04  0.00000000000E+00 0.  1.
    9000005    2    1    2  501    0 -0.36785820840E+02 -0.30759138918E+02 -0.50810504959E+03  0.51037460510E+03  0.34892509636E+01 0.  0.
         13    1    3    3    0    0 -0.78379561837E+01 -0.52442042976E+01 -0.11031124653E+03  0.11071362313E+03  0.00000000000E+00 0.  1.
          3    1    3    3  501    0 -0.28947864656E+02 -0.25514934620E+02 -0.39779380306E+03  0.39966098198E+03  0.00000000000E+00 0.  1.
         -1    1    1    2    0  502  0.36785820840E+02  0.30759138918E+02 -0.48958886670E+03  0.49193147860E+03  0.00000000000E+00 0. -1.
<mgrwt>
<rscale>  1 0.30000000E+03</rscale>
<asrwt>0</asrwt>
<pdfrwt beam="1">  1       21 0.83857766E-02 0.30000000E+03</pdfrwt>
<pdfrwt beam="2">0</pdfrwt>
<totfact> 0.11758326E+04</totfact>
</mgrwt>
</event>
<event>
 6    1  0.6377696E-002  0.3000000E+03  0.7818608E-02  0.1093470E+00
         21   -1    0    0  501  502  0.00000000000E+00  0.00000000000E+00  0.11203348674E+01  0.11203348674E+01  0.00000000000E+00 0. -1.
         13   -1    0    0    0    0 -0.00000000000E+00 -0.00000000000E+00 -0.10000000000E+04  0.10000000000E+04  0.00000000000E+00 0.  1.
    9000005    2    1    2  501    0 -0.41977867191E+01  0.32781633516E+02 -0.57382894030E+03  0.57478669135E+03  0.27983788922E+01 0.  0.
         13    1    3    3    0    0 -0.17850947715E+01  0.20129555009E+02 -0.33083017115E+03  0.33144680975E+03  0.00000000000E+00 0.  1.
          1    1    3    3  501    0 -0.24126919475E+01  0.12652078507E+02 -0.24299876914E+03  0.24333988160E+03  0.00000000000E+00 0.  1.
         -1    1    1    2    0  502  0.41977867191E+01 -0.32781633516E+02 -0.42505072483E+03  0.42633364351E+03  0.00000000000E+00 0. -1.
<mgrwt>
<rscale>  1 0.30000000E+03</rscale>
<asrwt>0</asrwt>
<pdfrwt beam="1">  1       21 0.40739536E-02 0.30000000E+03</pdfrwt>
<pdfrwt beam="2">0</pdfrwt>
<totfact> 0.40769342E+04</totfact>
</mgrwt>
</event>
<event>
 6    1  0.6377696E-002  0.3000000E+03  0.7818608E-02  0.1093470E+00
         21   -1    0    0  501  502  0.00000000000E+00  0.00000000000E+00  0.15759745506E+01  0.15759745506E+01  0.00000000000E+00 0. -1.
         13   -1    0    0    0    0 -0.00000000000E+00 -0.00000000000E+00 -0.10000000000E+04  0.10000000000E+04  0.00000000000E+00 0.  1.
    9000005    2    1    2  501    0 -0.14038566086E+02  0.28351022016E+02 -0.20084699241E+03  0.20337174917E+03  0.44375908268E+01 0.  0.
         13    1    3    3    0    0 -0.99747961863E+01  0.16671395536E+02 -0.11284914291E+03  0.11450921816E+03  0.00000000000E+00 0.  1.
          3    1    3    3  501    0 -0.40637699000E+01  0.11679626479E+02 -0.87997849500E+02  0.88862531008E+02  0.00000000000E+00 0.  1.
         -3    1    1    2    0  502  0.14038566086E+02 -0.28351022016E+02 -0.79757703304E+03  0.79820422538E+03  0.00000000000E+00 0. -1.
<mgrwt>
<rscale>  1 0.30000000E+03</rscale>
<asrwt>0</asrwt>
<pdfrwt beam="1">  1       21 0.57308286E-02 0.30000000E+03</pdfrwt>
<pdfrwt beam="2">0</pdfrwt>
<totfact> 0.22805702E+04</totfact>
</mgrwt>
</event>
<event>
 6    1  0.6377696E-002  0.3000000E+03  0.7818608E-02  0.1093470E+00
         21   -1    0    0  501  502  0.00000000000E+00  0.00000000000E+00  0.11089939793E+01  0.11089939793E+01  0.00000000000E+00 0. -1.
         13   -1    0    0    0    0 -0.00000000000E+00 -0.00000000000E+00 -0.10000000000E+04  0.10000000000E+04  0.00000000000E+00 0.  1.
    9000005    2    1    2  501    0  0.33159229364E+02  0.18242095983E+01 -0.51587537662E+03  0.51695306819E+03  0.31950390134E+01 0.  0.
         13    1    3    3    0    0  0.79534551088E+01  0.62055109093E+00 -0.10412740318E+03  0.10443255539E+03  0.00000000000E+00 0.  1.
          1    1    3    3  501    0  0.25205774255E+02  0.12036585073E+01 -0.41174797344E+03  0.41252051280E+03  0.00000000000E+00 0.  1.
         -1    1    1    2    0  502 -0.33159229364E+02 -0.18242095983E+01 -0.48301562940E+03  0.48415592579E+03  0.00000000000E+00 0. -1.
<mgrwt>
<rscale>  1 0.30000000E+03</rscale>
<asrwt>0</asrwt>
<pdfrwt beam="1">  1       21 0.40327139E-02 0.30000000E+03</pdfrwt>
<pdfrwt beam="2">0</pdfrwt>
<totfact> 0.41474389E+04</totfact>
</mgrwt>
</event>
<event>
 6    1  0.6377696E-002  0.3000000E+03  0.7818608E-02  0.1093470E+00
         21   -1    0    0  501  502  0.00000000000E+00  0.00000000000E+00  0.49394643958E+01  0.49394643958E+01  0.00000000000E+00 0. -1.
         13   -1    0    0    0    0 -0.00000000000E+00 -0.00000000000E+00 -0.10000000000E+04  0.10000000000E+04  0.00000000000E+00 0.  1.
    9000005    2    1    2  501    0  0.37688608547E+02  0.57599598671E+02 -0.59780860395E+03  0.60176798452E+03  0.33816056468E+01 0.  0.
         13    1    3    3    0    0  0.82664103871E+01  0.13575079361E+02 -0.14995422850E+03  0.15079418744E+03  0.00000000000E+00 0.  1.
          3    1    3    3  501    0  0.29422198160E+02  0.44024519310E+02 -0.44785437545E+03  0.45097379708E+03  0.00000000000E+00 0.  1.
         -3    1    1    2    0  502 -0.37688608547E+02 -0.57599598671E+02 -0.39725193165E+03  0.40317147987E+03  0.00000000000E+00 0. -1.
<mgrwt>
<rscale>  1 0.30000000E+03</rscale>
<asrwt>0</asrwt>
<pdfrwt beam="1">  1       21 0.17961727E-01 0.30000000E+03</pdfrwt>
<pdfrwt beam="2">0</pdfrwt>
<totfact> 0.29413189E+03</totfact>
</mgrwt>
</event>
<event>
 6    1  0.6377696E-002  0.3000000E+03  0.7818608E-02  0.1093470E+00
         21   -1    0    0  501  502  0.00000000000E+00  0.00000000000E+00  0.21960827725E+01  0.21960827725E+01  0.00000000000E+00 0. -1.
         13   -1    0    0    0    0 -0.00000000000E+00 -0.00000000000E+00 -0.10000000000E+04  0.10000000000E+04  0.00000000000E+00 0.  1.
    9000005    2    1    2  501    0  0.45999980968E+02 -0.15257507552E+01 -0.41580299559E+03  0.41837813260E+03  0.54593521805E+01 0.  0.
         13    1    3    3    0    0  0.31904337222E+02 -0.24135156670E+01 -0.30683040798E+03  0.30849410214E+03  0.00000000000E+00 0.  1.
          1    1    3    3  501    0  0.14095643746E+02  0.88776491175E+00 -0.10897258761E+03  0.10988403046E+03  0.00000000000E+00 0.  1.
         -3    1    1    2    0  502 -0.45999980968E+02  0.15257507552E+01 -0.58200092163E+03  0.58381795018E+03  0.00000000000E+00 0. -1.
<mgrwt>
<rscale>  1 0.30000000E+03</rscale>
<asrwt>0</asrwt>
<pdfrwt beam="1">  1       21 0.79857724E-02 0.30000000E+03</pdfrwt>
<pdfrwt beam="2">0</pdfrwt>
<totfact> 0.12813867E+04</totfact>
</mgrwt>
</event>
<event>
 6    1  0.6377696E-002  0.3000000E+03  0.7818608E-02  0.1093470E+00
         21   -1    0    0  501  502  0.00000000000E+00  0.00000000000E+00  0.11239033186E+01  0.11239033186E+01  0.00000000000E+00 0. -1.
         13   -1    0    0    0    0 -0.00000000000E+00 -0.00000000000E+00 -0.10000000000E+04  0.10000000000E+04  0.00000000000E+00 0.  1.
    9000005    2    1    2  501    0 -0.31572421536E+02 -0.98729507927E+01 -0.43377882464E+03  0.43505922519E+03  0.42623650298E+01 0.  0.
         13    1    3    3    0    0 -0.21641856753E+02 -0.63596853701E+01 -0.26903045454E+03  0.26997444515E+03  0.00000000000E+00 0.  1.
          3    1    3    3  501    0 -0.99305647839E+01 -0.35132654227E+01 -0.16474837009E+03  0.16508478004E+03  0.00000000000E+00 0.  1.
         -1    1    1    2    0  502  0.31572421536E+02  0.98729507927E+01 -0.56509727204E+03  0.56606467813E+03  0.00000000000E+00 0. -1.
<mgrwt>
<rscale>  1 0.30000000E+03</rscale>
<asrwt>0</asrwt>
<pdfrwt beam="1">  1       21 0.40869298E-02 0.30000000E+03</pdfrwt>
<pdfrwt beam="2">0</pdfrwt>
<totfact> 0.40551362E+04</totfact>
</mgrwt>
</event>
<event>
 6    1  0.6377696E-002  0.3000000E+03  0.7818608E-02  0.1093470E+00
         21   -1    0    0  501  502  0.00000000000E+00  0.00000000000E+00  0.82011889650E+01  0.82011889650E+01  0.00000000000E+00 0. -1.
         13   -1    0    0    0    0 -0.00000000000E+00 -0.00000000000E+00 -0.10000000000E+04  0.10000000000E+04  0.00000000000E+00 0.  1.
    9000005    2    1    2  501    0  0.71746405780E+02 -0.53631323217E+02 -0.56919834387E+03  0.57621158212E+03  0.30277276606E+01 0.  0.
         13    1    3    3    0    0  0.45663325566E+02 -0.34569357923E+02 -0.35476064445E+03  0.35935399630E+03  0.00000000000E+00 0.  1.
          1    1    3    3  501    0  0.26083080213E+02 -0.19061965294E+02 -0.21443769942E+03  0.21685758582E+03  0.00000000000E+00 0.  1.
         -1    1    1    2    0  502 -0.71746405780E+02  0.53631323217E+02 -0.42260046716E+03  0.43198960684E+03  0.00000000000E+00 0. -1.
<mgrwt>
<rscale>  1 0.30000000E+03</rscale>
<asrwt>0</asrwt>
<pdfrwt beam="1">  1       21 0.29822568E-01 0.30000000E+03</pdfrwt>
<pdfrwt beam="2">0</pdfrwt>
<totfact> 0.11002531E+03</totfact>
</mgrwt>
</event>
<event>
 6    1  0.6377696E-002  0.3000000E+03  0.7818608E-02  0.1093470E+00
         21   -1    0    0  501  502  0.00000000000E+00  0.00000000000E+00  0.32699644922E+01  0.32699644922E+01  0.00000000000E+00 0. -1.
         13   -1    0    0    0    0 -0.00000000000E+00 -0.00000000000E+00 -0.10000000000E+04  0.10000000000E+04  0.00000000000E+00 0.  1.
    9000005    2    1    2  501    0 -0.12340521096E+02 -0.30611620919E+02 -0.89380449634E+02  0.95320279333E+02  0.27804818079E+01 0.  0.
         13    1    3    3    0    0 -0.35728736864E+01 -0.73590113300E+01 -0.19205831191E+02  0.20875450316E+02  0.00000000000E+00 0.  1.
          1    1    3    3  501    0 -0.87676474096E+01 -0.23252609589E+02 -0.70174618443E+02  0.74444829017E+02  0.00000000000E+00 0.  1.
         -1    1    1    2    0  502  0.12340521096E+02  0.30611620919E+02 -0.90734958587E+03  0.90794968516E+03  0.00000000000E+00 0. -1.
<mgrwt>
<rscale>  1 0.30000000E+03</rscale>
<asrwt>0</asrwt>
<pdfrwt beam="1">  1       21 0.11890805E-01 0.30000000E+03</pdfrwt>
<pdfrwt beam="2">0</pdfrwt>
<totfact> 0.63007365E+03</totfact>
</mgrwt>
</event>
<event>
 6    1  0.6377696E-002  0.3000000E+03  0.7818608E-02  0.1093470E+00
         21   -1    0    0  501  502  0.00000000000E+00  0.00000000000E+00  0.18384626089E+01  0.18384626089E+01  0.00000000000E+00 0. -1.
         13   -1    0    0    0    0 -0.00000000000E+00 -0.00000000000E+00 -0.10000000000E+04  0.10000000000E+04  0.00000000000E+00 0.  1.
    9000005    2    1    2  501    0  0.27505032925E+02 -0.26388679140E+02 -0.27205942868E+03  0.27473657051E+03  0.33107729425E+01 0.  0.
         13    1    3    3    0    0  0.13709862624E+02 -0.15134305238E+02 -0.13938636009E+03  0.14087428760E+03  0.00000000000E+00 0.  1.
          1    1    3    3  501    0  0.13795170301E+02 -0.11254373901E+02 -0.13267306859E+03  0.13386228290E+03  0.00000000000E+00 0.  1.
         -1    1    1    2    0  502 -0.27505032925E+02  0.26388679140E+02 -0.72610210871E+03  0.72710189210E+03  0.00000000000E+00 0. -1.
<mgrwt>
<rscale>  1 0.30000000E+03</rscale>
<asrwt>0</asrwt>
<pdfrwt beam="1">  1       21 0.66853327E-02 0.30000000E+03</pdfrwt>
<pdfrwt beam="2">0</pdfrwt>
<totfact> 0.17477494E+04</totfact>
</mgrwt>
</event>
<event>
 6    1  0.6377696E-002  0.3000000E+03  0.7818608E-02  0.1093470E+00
         21   -1    0    0  501  502  0.00000000000E+00  0.00000000000E+00  0.11171985653E+01  0.11171985653E+01  0.00000000000E+00 0. -1.
         13   -1    0    0    0    0 -0.00000000000E+00 -0.00000000000E+00 -0.10000000000E+04  0.10000000000E+04  0.00000000000E+00 0.  1.
    9000005    2    1    2  501    0  0.33234086834E+02 -0.38652638601E+00 -0.54110225678E+03  0.54213170751E+03  0.32376025775E+01 0.  0.
         13    1    3    3    0    0  0.19110959806E+02 -0.14165893411E+00 -0.33671209429E+03  0.33725403377E+03  0.00000000000E+00 0.  1.
          1    1    3    3  501    0  0.14123127028E+02 -0.24486745190E+00 -0.20439016249E+03  0.20487767374E+03  0.00000000000E+00 0.  1.
         -3    1    1    2    0  502 -0.33234086834E+02  0.38652638601E+00 -0.45778054466E+03  0.45898549105E+03  0.00000000000E+00 0. -1.
<mgrwt>
<rscale>  1 0.30000000E+03</rscale>
<asrwt>0</asrwt>
<pdfrwt beam="1">  1       21 0.40625488E-02 0.30000000E+03</pdfrwt>
<pdfrwt beam="2">0</pdfrwt>
<totfact> 0.40962438E+04</totfact>
</mgrwt>
</event>
<event>
 6    1  0.6377696E-002  0.3000000E+03  0.7818608E-02  0.1093470E+00
         21   -1    0    0  501  502  0.00000000000E+00  0.00000000000E+00  0.13918990702E+01  0.13918990702E+01  0.00000000000E+00 0. -1.
         13   -1    0    0    0    0 -0.00000000000E+00 -0.00000000000E+00 -0.10000000000E+04  0.10000000000E+04  0.00000000000E+00 0.  1.
    9000005    2    1    2  501    0  0.19309143117E+02  0.29408107657E+02 -0.33652864520E+03  0.33837841089E+03  0.32772115082E+01 0.  0.
         13    1    3    3    0    0  0.51708333038E+01  0.73772048386E+01 -0.10030646926E+03  0.10071022015E+03  0.00000000000E+00 0.  1.
          3    1    3    3  501    0  0.14138309813E+02  0.22030902818E+02 -0.23622217594E+03  0.23766819074E+03  0.00000000000E+00 0.  1.
         -3    1    1    2    0  502 -0.19309143117E+02 -0.29408107657E+02 -0.66207945573E+03  0.66301348818E+03  0.00000000000E+00 0. -1.
<mgrwt>
<rscale>  1 0.30000000E+03</rscale>
<asrwt>0</asrwt>
<pdfrwt beam="1">  1       21 0.50614618E-02 0.30000000E+03</pdfrwt>
<pdfrwt beam="2">0</pdfrwt>
<totfact> 0.28210755E+04</totfact>
</mgrwt>
</event>
<event>
 6    1  0.6377696E-002  0.3000000E+03  0.7818608E-02  0.1093470E+00
         21   -1    0    0  501  502  0.00000000000E+00  0.00000000000E+00  0.10097808877E+01  0.10097808877E+01  0.00000000000E+00 0. -1.
         13   -1    0    0    0    0 -0.00000000000E+00 -0.00000000000E+00 -0.10000000000E+04  0.10000000000E+04  0.00000000000E+00 0.  1.
    9000005    2    1    2  501    0 -0.26326126743E+02  0.14763702567E+02 -0.65159953327E+03  0.65231031075E+03  0.39696213057E+01 0.  0.
         13    1    3    3    0    0 -0.20948745274E+02  0.10861992542E+02 -0.47486255156E+03  0.47544849951E+03  0.00000000000E+00 0.  1.
          1    1    3    3  501    0 -0.53773814693E+01  0.39017100254E+01 -0.17673698170E+03  0.17686181124E+03  0.00000000000E+00 0.  1.
         -1    1    1    2    0  502  0.26326126743E+02 -0.14763702567E+02 -0.34739068585E+03  0.34869947014E+03  0.00000000000E+00 0. -1.
<mgrwt>
<rscale>  1 0.30000000E+03</rscale>
<asrwt>0</asrwt>
<pdfrwt beam="1">  1       21 0.36719382E-02 0.30000000E+03</pdfrwt>
<pdfrwt beam="2">0</pdfrwt>
<totfact> 0.48551824E+04</totfact>
</mgrwt>
</event>
<event>
 6    1  0.6377696E-002  0.3000000E+03  0.7818608E-02  0.1093470E+00
         21   -1    0    0  501  502  0.00000000000E+00  0.00000000000E+00  0.29720110872E+01  0.29720110872E+01  0.00000000000E+00 0. -1.
         13   -1    0    0    0    0 -0.00000000000E+00 -0.00000000000E+00 -0.10000000000E+04  0.10000000000E+04  0.00000000000E+00 0.  1.
    9000005    2    1    2  501    0 -0.21084177045E+02 -0.49925309658E+02 -0.54908436580E+03  0.55176189534E+03  0.32356322341E+01 0.  0.
         13    1    3    3    0    0 -0.25434413076E+01 -0.84002174179E+01 -0.96716750726E+02  0.97114173102E+02  0.00000000000E+00 0.  1.
          3    1    3    3  501    0 -0.18540735737E+02 -0.41525092240E+02 -0.45236761507E+03  0.45464772224E+03  0.00000000000E+00 0.  1.
         -3    1    1    2    0  502  0.21084177045E+02  0.49925309658E+02 -0.44794362311E+03  0.45121011575E+03  0.00000000000E+00 0. -1.
<mgrwt>
<rscale>  1 0.30000000E+03</rscale>
<asrwt>0</asrwt>
<pdfrwt beam="1">  1       21 0.10807336E-01 0.30000000E+03</pdfrwt>
<pdfrwt beam="2">0</pdfrwt>
<totfact> 0.74860987E+03</totfact>
</mgrwt>
</event>
<event>
 6    1  0.6377696E-002  0.3000000E+03  0.7818608E-02  0.1093470E+00
         21   -1    0    0  501  502  0.00000000000E+00  0.00000000000E+00  0.10322207580E+01  0.10322207580E+01  0.00000000000E+00 0. -1.
         13   -1    0    0    0    0 -0.00000000000E+00 -0.00000000000E+00 -0.10000000000E+04  0.10000000000E+04  0.00000000000E+00 0.  1.
    9000005    2    1    2  501    0  0.22698615911E+02 -0.21205284649E+02 -0.37876490037E+03  0.38005194553E+03  0.34264102856E+01 0.  0.
         13    1    3    3    0    0  0.20435042831E+02 -0.18965103267E+02 -0.35085697956E+03  0.35196290461E+03  0.00000000000E+00 0.  1.
          1    1    3    3  501    0  0.22635730799E+01 -0.22401813820E+01 -0.27907920815E+02  0.28089040922E+02  0.00000000000E+00 0.  1.
         -1    1    1    2    0  502 -0.22698615911E+02  0.21205284649E+02 -0.62020287887E+03  0.62098027523E+03  0.00000000000E+00 0. -1.
<mgrwt>
<rscale>  1 0.30000000E+03</rscale>
<asrwt>0</asrwt>
<pdfrwt beam="1">  1       21 0.37535379E-02 0.30000000E+03</pdfrwt>
<pdfrwt beam="2">0</pdfrwt>
<totfact> 0.46793114E+04</totfact>
</mgrwt>
</event>
<event>
 6    1  0.6377696E-002  0.3000000E+03  0.7818608E-02  0.1093470E+00
         21   -1    0    0  501  502  0.00000000000E+00  0.00000000000E+00  0.11526516726E+01  0.11526516726E+01  0.00000000000E+00 0. -1.
         13   -1    0    0    0    0 -0.00000000000E+00 -0.00000000000E+00 -0.10000000000E+04  0.10000000000E+04  0.00000000000E+00 0.  1.
    9000005    2    1    2  501    0 -0.99225630162E+01 -0.32293014984E+02 -0.53589225940E+03  0.53696657859E+03  0.33610670552E+01 0.  0.
         13    1    3    3    0    0 -0.46151385947E+01 -0.19021073166E+02 -0.32805256931E+03  0.32863595202E+03  0.00000000000E+00 0.  1.
          3    1    3    3  501    0 -0.53074244215E+01 -0.13271941818E+02 -0.20783969009E+03  0.20833062658E+03  0.00000000000E+00 0.  1.
         -3    1    1    2    0  502  0.99225630162E+01  0.32293014984E+02 -0.46295508893E+03  0.46418607308E+03  0.00000000000E+00 0. -1.
<mgrwt>
<rscale>  1 0.30000000E+03</rscale>
<asrwt>0</asrwt>
<pdfrwt beam="1">  1       21 0.41914695E-02 0.30000000E+03</pdfrwt>
<pdfrwt beam="2">0</pdfrwt>
<totfact> 0.38859636E+04</totfact>
</mgrwt>
</event>
<event>
 6    1  0.6377696E-002  0.3000000E+03  0.7818608E-02  0.1093470E+00
         21   -1    0    0  501  502  0.00000000000E+00  0.00000000000E+00  0.17996385151E+01  0.17996385151E+01  0.00000000000E+00 0. -1.
         13   -1    0    0    0    0 -0.00000000000E+00 -0.00000000000E+00 -0.10000000000E+04  0.10000000000E+04  0.00000000000E+00 0.  1.
    9000005    2    1    2  501    0  0.33638430242E+02  0.13582984018E+02 -0.75784525947E+03  0.75872225061E+03  0.37382927350E+01 0.  0.
         13    1    3    3    0    0  0.30528190347E+02  0.11888656586E+02 -0.65949032116E+03  0.66030356220E+03  0.00000000000E+00 0.  1.
          3    1    3    3  501    0  0.31102398955E+01  0.16943274316E+01 -0.98354938312E+02  0.98418688409E+02  0.00000000000E+00 0.  1.
         -1    1    1    2    0  502 -0.33638430242E+02 -0.13582984018E+02 -0.24035510202E+03  0.24307738790E+03  0.00000000000E+00 0. -1.
<mgrwt>
<rscale>  1 0.30000000E+03</rscale>
<asrwt>0</asrwt>
<pdfrwt beam="1">  1       21 0.65441539E-02 0.30000000E+03</pdfrwt>
<pdfrwt beam="2">0</pdfrwt>
<totfact> 0.18136169E+04</totfact>
</mgrwt>
</event>
<event>
 6    1  0.6377696E-002  0.3000000E+03  0.7818608E-02  0.1093470E+00
         21   -1    0    0  501  502  0.00000000000E+00  0.00000000000E+00  0.16667092234E+01  0.16667092234E+01  0.00000000000E+00 0. -1.
         13   -1    0    0    0    0 -0.00000000000E+00 -0.00000000000E+00 -0.10000000000E+04  0.10000000000E+04  0.00000000000E+00 0.  1.
    9000005    2    1    2  501    0 -0.40638375383E+02  0.71209005335E+00 -0.46022860479E+03  0.46202920338E+03  0.29379394397E+01 0.  0.
         13    1    3    3    0    0 -0.12270461118E+02  0.65509939367E+00 -0.12505653129E+03  0.12565878158E+03  0.00000000000E+00 0.  1.
          1    1    3    3  501    0 -0.28367914265E+02  0.56990659680E-01 -0.33517207350E+03  0.33637042180E+03  0.00000000000E+00 0.  1.
         -3    1    1    2    0  502  0.40638375383E+02 -0.71209005335E+00 -0.53810468599E+03  0.53963750584E+03  0.00000000000E+00 0. -1.
<mgrwt>
<rscale>  1 0.30000000E+03</rscale>
<asrwt>0</asrwt>
<pdfrwt beam="1">  1       21 0.60607736E-02 0.30000000E+03</pdfrwt>
<pdfrwt beam="2">0</pdfrwt>
<totfact> 0.20708512E+04</totfact>
</mgrwt>
</event>
<event>
 6    1  0.6377696E-002  0.3000000E+03  0.7818608E-02  0.1093470E+00
         21   -1    0    0  501  502  0.00000000000E+00  0.00000000000E+00  0.21733707778E+01  0.21733707778E+01  0.00000000000E+00 0. -1.
         13   -1    0    0    0    0 -0.00000000000E+00 -0.00000000000E+00 -0.10000000000E+04  0.10000000000E+04  0.00000000000E+00 0.  1.
    9000005    2    1    2  501    0 -0.41110597282E+02 -0.20741775938E+02 -0.54688793910E+03  0.54888978986E+03  0.85604325051E+01 0.  0.
         13    1    3    3    0    0 -0.31950237389E+02 -0.19544050079E+02 -0.42053257903E+03  0.42219715488E+03  0.00000000000E+00 0.  1.
          3    1    3    3  501    0 -0.91603598929E+01 -0.11977258586E+01 -0.12635536007E+03  0.12669263498E+03  0.00000000000E+00 0.  1.
         -1    1    1    2    0  502  0.41110597282E+02  0.20741775938E+02 -0.45093869012E+03  0.45328358091E+03  0.00000000000E+00 0. -1.
<mgrwt>
<rscale>  1 0.30000000E+03</rscale>
<asrwt>0</asrwt>
<pdfrwt beam="1">  1       21 0.79031831E-02 0.30000000E+03</pdfrwt>
<pdfrwt beam="2">0</pdfrwt>
<totfact> 0.13049905E+04</totfact>
</mgrwt>
</event>
<event>
 6    1  0.6377696E-002  0.3000000E+03  0.7818608E-02  0.1093470E+00
         21   -1    0    0  501  502  0.00000000000E+00  0.00000000000E+00  0.12828881993E+01  0.12828881993E+01  0.00000000000E+00 0. -1.
         13   -1    0    0    0    0 -0.00000000000E+00 -0.00000000000E+00 -0.10000000000E+04  0.10000000000E+04  0.00000000000E+00 0.  1.
    9000005    2    1    2  501    0 -0.32053105418E+02  0.13034884730E+02 -0.62561025228E+03  0.62657495073E+03  0.32666998730E+01 0.  0.
         13    1    3    3    0    0 -0.91458375362E+01  0.25775234194E+01 -0.15392527225E+03  0.15421828493E+03  0.00000000000E+00 0.  1.
          3    1    3    3  501    0 -0.22907267882E+02  0.10457361310E+02 -0.47168498004E+03  0.47235666579E+03  0.00000000000E+00 0.  1.
         -1    1    1    2    0  502  0.32053105418E+02 -0.13034884730E+02 -0.37310685952E+03  0.37470793747E+03  0.00000000000E+00 0. -1.
<mgrwt>
<rscale>  1 0.30000000E+03</rscale>
<asrwt>0</asrwt>
<pdfrwt beam="1">  1       21 0.46650578E-02 0.30000000E+03</pdfrwt>
<pdfrwt beam="2">0</pdfrwt>
<totfact> 0.32412921E+04</totfact>
</mgrwt>
</event>
<event>
 6    1  0.6377696E-002  0.3000000E+03  0.7818608E-02  0.1093470E+00
         21   -1    0    0  501  502  0.00000000000E+00  0.00000000000E+00  0.32873138567E+01  0.32873138567E+01  0.00000000000E+00 0. -1.
         13   -1    0    0    0    0 -0.00000000000E+00 -0.00000000000E+00 -0.10000000000E+04  0.10000000000E+04  0.00000000000E+00 0.  1.
    9000005    2    1    2  501    0 -0.49155721122E+02  0.26100721119E+02 -0.38010885028E+03  0.38417680436E+03  0.33979977817E+01 0.  0.
         13    1    3    3    0    0 -0.29087039579E+02  0.14701136841E+02 -0.21181080796E+03  0.21430351762E+03  0.00000000000E+00 0.  1.
          3    1    3    3  501    0 -0.20068681543E+02  0.11399584278E+02 -0.16829804232E+03  0.16987328675E+03  0.00000000000E+00 0.  1.
         -1    1    1    2    0  502  0.49155721122E+02 -0.26100721119E+02 -0.61660383586E+03  0.61911050949E+03  0.00000000000E+00 0. -1.
<mgrwt>
<rscale>  1 0.30000000E+03</rscale>
<asrwt>0</asrwt>
<pdfrwt beam="1">  1       21 0.11953894E-01 0.30000000E+03</pdfrwt>
<pdfrwt beam="2">0</pdfrwt>
<totfact> 0.62405592E+03</totfact>
</mgrwt>
</event>
<event>
 6    1  0.6377696E-002  0.3000000E+03  0.7818608E-02  0.1093470E+00
         21   -1    0    0  501  502  0.00000000000E+00  0.00000000000E+00  0.21616684543E+01  0.21616684543E+01  0.00000000000E+00 0. -1.
         13   -1    0    0    0    0 -0.00000000000E+00 -0.00000000000E+00 -0.10000000000E+04  0.10000000000E+04  0.00000000000E+00 0.  1.
    9000005    2    1    2  501    0  0.20015185227E+02  0.41705326464E+02 -0.45437627514E+03  0.45673436015E+03  0.29213752192E+01 0.  0.
         13    1    3    3    0    0  0.98685215896E+01  0.22612704841E+02 -0.23072639243E+03  0.23204178568E+03  0.00000000000E+00 0.  1.
          3    1    3    3  501    0  0.10146663637E+02  0.19092621623E+02 -0.22364988271E+03  0.22469257447E+03  0.00000000000E+00 0.  1.
         -1    1    1    2    0  502 -0.20015185227E+02 -0.41705326464E+02 -0.54346205640E+03  0.54542730831E+03  0.00000000000E+00 0. -1.
<mgrwt>
<rscale>  1 0.30000000E+03</rscale>
<asrwt>0</asrwt>
<pdfrwt beam="1">  1       21 0.78606291E-02 0.30000000E+03</pdfrwt>
<pdfrwt beam="2">0</pdfrwt>
<totfact> 0.13174144E+04</totfact>
</mgrwt>
</event>
<event>
 6    1  0.6377696E-002  0.3000000E+03  0.7818608E-02  0.1093470E+00
         21   -1    0    0  501  502  0.00000000000E+00  0.00000000000E+00  0.95905617538E+00  0.95905617538E+00  0.00000000000E+00 0. -1.
         13   -1    0    0    0    0 -0.00000000000E+00 -0.00000000000E+00 -0.10000000000E+04  0.10000000000E+04  0.00000000000E+00 0.  1.
    9000005    2    1    2  501    0  0.10576150390E+02 -0.28805512304E+02 -0.55046584563E+03  0.55133562349E+03  0.40877905757E+01 0.  0.
         13    1    3    3    0    0  0.67781841953E+01 -0.23254144133E+02 -0.42535580905E+03  0.42604490760E+03  0.00000000000E+00 0.  1.
          3    1    3    3  501    0  0.37979661947E+01 -0.55513681712E+01 -0.12511003658E+03  0.12529071589E+03  0.00000000000E+00 0.  1.
         -1    1    1    2    0  502 -0.10576150390E+02  0.28805512304E+02 -0.44857509820E+03  0.44962343268E+03  0.00000000000E+00 0. -1.
<mgrwt>
<rscale>  1 0.30000000E+03</rscale>
<asrwt>0</asrwt>
<pdfrwt beam="1">  1       21 0.34874844E-02 0.30000000E+03</pdfrwt>
<pdfrwt beam="2">0</pdfrwt>
<totfact> 0.52933334E+04</totfact>
</mgrwt>
</event>
<event>
 6    1  0.6377696E-002  0.3000000E+03  0.7818608E-02  0.1093470E+00
         21   -1    0    0  501  502  0.00000000000E+00  0.00000000000E+00  0.33259642864E+01  0.33259642864E+01  0.00000000000E+00 0. -1.
         13   -1    0    0    0    0 -0.00000000000E+00 -0.00000000000E+00 -0.10000000000E+04  0.10000000000E+04  0.00000000000E+00 0.  1.
    9000005    2    1    2  501    0 -0.17325063866E+01 -0.57011383586E+02 -0.57025314355E+03  0.57310732602E+03  0.31717462638E+01 0.  0.
         13    1    3    3    0    0 -0.26476949800E+01 -0.42954699793E+02 -0.42701755513E+03  0.42918074154E+03  0.00000000000E+00 0.  1.
          3    1    3    3  501    0  0.91518859341E+00 -0.14056683793E+02 -0.14323558842E+03  0.14392658448E+03  0.00000000000E+00 0.  1.
         -1    1    1    2    0  502  0.17325063866E+01  0.57011383586E+02 -0.42642089216E+03  0.43021863826E+03  0.00000000000E+00 0. -1.
<mgrwt>
<rscale>  1 0.30000000E+03</rscale>
<asrwt>0</asrwt>
<pdfrwt beam="1">  1       21 0.12094441E-01 0.30000000E+03</pdfrwt>
<pdfrwt beam="2">0</pdfrwt>
<totfact> 0.61095334E+03</totfact>
</mgrwt>
</event>
<event>
 6    1  0.6377696E-002  0.3000000E+03  0.7818608E-02  0.1093470E+00
         21   -1    0    0  501  502  0.00000000000E+00  0.00000000000E+00  0.31724694439E+01  0.31724694439E+01  0.00000000000E+00 0. -1.
         13   -1    0    0    0    0 -0.00000000000E+00 -0.00000000000E+00 -0.10000000000E+04  0.10000000000E+04  0.00000000000E+00 0.  1.
    9000005    2    1    2  501    0 -0.48191605713E+02 -0.29531952410E+01 -0.24160438736E+03  0.24640754674E+03  0.35842535012E+01 0.  0.
         13    1    3    3    0    0 -0.29589410403E+02 -0.67177212977E+00 -0.15458171192E+03  0.15738961257E+03  0.00000000000E+00 0.  1.
          3    1    3    3  501    0 -0.18602195310E+02 -0.22814231113E+01 -0.87022675442E+02  0.89017934164E+02  0.00000000000E+00 0.  1.
         -3    1    1    2    0  502  0.48191605713E+02  0.29531952410E+01 -0.75522314319E+03  0.75676492271E+03  0.00000000000E+00 0. -1.
<mgrwt>
<rscale>  1 0.30000000E+03</rscale>
<asrwt>0</asrwt>
<pdfrwt beam="1">  1       21 0.11536277E-01 0.30000000E+03</pdfrwt>
<pdfrwt beam="2">0</pdfrwt>
<totfact> 0.66555702E+03</totfact>
</mgrwt>
</event>
<event>
 6    1  0.6377696E-002  0.3000000E+03  0.7818608E-02  0.1093470E+00
         21   -1    0    0  501  502  0.00000000000E+00  0.00000000000E+00  0.11450453814E+01  0.11450453814E+01  0.00000000000E+00 0. -1.
         13   -1    0    0    0    0 -0.00000000000E+00 -0.00000000000E+00 -0.10000000000E+04  0.10000000000E+04  0.00000000000E+00 0.  1.
    9000005    2    1    2  501    0  0.87272457185E+01 -0.32441851618E+02 -0.46171203015E+03  0.46295255207E+03  0.42927992179E+01 0.  0.
         13    1    3    3    0    0  0.27226856892E+01 -0.44059001235E+01 -0.76141554939E+02  0.76317503639E+02  0.00000000000E+00 0.  1.
          3    1    3    3  501    0  0.60045600293E+01 -0.28035951494E+02 -0.38557047521E+03  0.38663504843E+03  0.00000000000E+00 0.  1.
         -3    1    1    2    0  502 -0.87272457185E+01  0.32441851618E+02 -0.53714292447E+03  0.53819249331E+03  0.00000000000E+00 0. -1.
<mgrwt>
<rscale>  1 0.30000000E+03</rscale>
<asrwt>0</asrwt>
<pdfrwt beam="1">  1       21 0.41638102E-02 0.30000000E+03</pdfrwt>
<pdfrwt beam="2">0</pdfrwt>
<totfact> 0.39296387E+04</totfact>
</mgrwt>
</event>
<event>
 6    1  0.6377696E-002  0.3000000E+03  0.7818608E-02  0.1093470E+00
         21   -1    0    0  501  502  0.00000000000E+00  0.00000000000E+00  0.42576762942E+01  0.42576762942E+01  0.00000000000E+00 0. -1.
         13   -1    0    0    0    0 -0.00000000000E+00 -0.00000000000E+00 -0.10000000000E+04  0.10000000000E+04  0.00000000000E+00 0.  1.
    9000005    2    1    2  501    0  0.60689638878E+02 -0.18809835203E+02 -0.61083288740E+03  0.61413933999E+03  0.36428587983E+01 0.  0.
         13    1    3    3    0    0  0.44150107565E+02 -0.15348204057E+02 -0.45095209979E+03  0.45336805762E+03  0.00000000000E+00 0.  1.
          1    1    3    3  501    0  0.16539531313E+02 -0.34616311459E+01 -0.15988078761E+03  0.16077128236E+03  0.00000000000E+00 0.  1.
         -3    1    1    2    0  502 -0.60689638878E+02  0.18809835203E+02 -0.38490943630E+03  0.39011833631E+03  0.00000000000E+00 0. -1.
<mgrwt>
<rscale>  1 0.30000000E+03</rscale>
<asrwt>0</asrwt>
<pdfrwt beam="1">  1       21 0.15482492E-01 0.30000000E+03</pdfrwt>
<pdfrwt beam="2">0</pdfrwt>
<totfact> 0.38832117E+03</totfact>
</mgrwt>
</event>
<event>
 6    1  0.6377696E-002  0.3000000E+03  0.7818608E-02  0.1093470E+00
         21   -1    0    0  501  502  0.00000000000E+00  0.00000000000E+00  0.12032371227E+01  0.12032371227E+01  0.00000000000E+00 0. -1.
         13   -1    0    0    0    0 -0.00000000000E+00 -0.00000000000E+00 -0.10000000000E+04  0.10000000000E+04  0.00000000000E+00 0.  1.
    9000005    2    1    2  501    0  0.22754254084E+02  0.25886097096E+02 -0.45695889461E+03  0.45827034846E+03  0.35263031235E+01 0.  0.
         13    1    3    3    0    0  0.78277486770E+01  0.78961785490E+01 -0.16794670077E+03  0.16831434159E+03  0.00000000000E+00 0.  1.
          1    1    3    3  501    0  0.14926505407E+02  0.17989918547E+02 -0.28901219384E+03  0.28995600687E+03  0.00000000000E+00 0.  1.
         -3    1    1    2    0  502 -0.22754254084E+02 -0.25886097096E+02 -0.54183786827E+03  0.54293288866E+03  0.00000000000E+00 0. -1.
<mgrwt>
<rscale>  1 0.30000000E+03</rscale>
<asrwt>0</asrwt>
<pdfrwt beam="1">  1       21 0.43754169E-02 0.30000000E+03</pdfrwt>
<pdfrwt beam="2">0</pdfrwt>
<totfact> 0.36137688E+04</totfact>
</mgrwt>
</event>
<event>
 6    1  0.6377696E-002  0.3000000E+03  0.7818608E-02  0.1093470E+00
         21   -1    0    0  501  502  0.00000000000E+00  0.00000000000E+00  0.62334171408E+01  0.62334171408E+01  0.00000000000E+00 0. -1.
         13   -1    0    0    0    0 -0.00000000000E+00 -0.00000000000E+00 -0.10000000000E+04  0.10000000000E+04  0.00000000000E+00 0.  1.
    9000005    2    1    2  501    0  0.62504560787E+02  0.40303130665E+02 -0.32901602072E+03  0.33733546355E+03  0.35370346349E+01 0.  0.
         13    1    3    3    0    0  0.38967622386E+02  0.26634450250E+02 -0.21379356290E+03  0.21894190342E+03  0.00000000000E+00 0.  1.
          3    1    3    3  501    0  0.23536938401E+02  0.13668680415E+02 -0.11522245782E+03  0.11839356013E+03  0.00000000000E+00 0.  1.
         -1    1    1    2    0  502 -0.62504560787E+02 -0.40303130665E+02 -0.66475056213E+03  0.66889795359E+03  0.00000000000E+00 0. -1.
<mgrwt>
<rscale>  1 0.30000000E+03</rscale>
<asrwt>0</asrwt>
<pdfrwt beam="1">  1       21 0.22667019E-01 0.30000000E+03</pdfrwt>
<pdfrwt beam="2">0</pdfrwt>
<totfact> 0.18867274E+03</totfact>
</mgrwt>
</event>
<event>
 6    1  0.6377696E-002  0.3000000E+03  0.7818608E-02  0.1093470E+00
         21   -1    0    0  501  502  0.00000000000E+00  0.00000000000E+00  0.16279163401E+01  0.16279163401E+01  0.00000000000E+00 0. -1.
         13   -1    0    0    0    0 -0.00000000000E+00 -0.00000000000E+00 -0.10000000000E+04  0.10000000000E+04  0.00000000000E+00 0.  1.
    9000005    2    1    2  501    0 -0.21693678312E+02  0.27735225215E+02 -0.25741530054E+03  0.25983494465E+03  0.34209813027E+01 0.  0.
         13    1    3    3    0    0 -0.21176268168E+02  0.26401296909E+02 -0.25024295557E+03  0.25252128549E+03  0.00000000000E+00 0.  1.
          1    1    3    3  501    0 -0.51741014411E+00  0.13339283059E+01 -0.71723449760E+01  0.73136591688E+01  0.00000000000E+00 0.  1.
         -1    1    1    2    0  502  0.21693678312E+02 -0.27735225215E+02 -0.74095678312E+03  0.74179297169E+03  0.00000000000E+00 0. -1.
<mgrwt>
<rscale>  1 0.30000000E+03</rscale>
<asrwt>0</asrwt>
<pdfrwt beam="1">  1       21 0.59197083E-02 0.30000000E+03</pdfrwt>
<pdfrwt beam="2">0</pdfrwt>
<totfact> 0.21566865E+04</totfact>
</mgrwt>
</event>
<event>
 6    1  0.6377696E-002  0.3000000E+03  0.7818608E-02  0.1093470E+00
         21   -1    0    0  501  502  0.00000000000E+00  0.00000000000E+00  0.12602518338E+01  0.12602518338E+01  0.00000000000E+00 0. -1.
         13   -1    0    0    0    0 -0.00000000000E+00 -0.00000000000E+00 -0.10000000000E+04  0.10000000000E+04  0.00000000000E+00 0.  1.
    9000005    2    1    2  501    0 -0.31754235611E+01 -0.31545093131E+02 -0.28160686255E+03  0.28342687852E+03  0.48160372809E+01 0.  0.
         13    1    3    3    0    0 -0.33207569504E+01 -0.22008254686E+02 -0.21311123836E+03  0.21427036803E+03  0.00000000000E+00 0.  1.
          1    1    3    3  501    0  0.14533338926E+00 -0.95368384454E+01 -0.68495624195E+02  0.69156510490E+02  0.00000000000E+00 0.  1.
         -3    1    1    2    0  502  0.31754235611E+01  0.31545093131E+02 -0.71713288562E+03  0.71783337332E+03  0.00000000000E+00 0. -1.
<mgrwt>
<rscale>  1 0.30000000E+03</rscale>
<asrwt>0</asrwt>
<pdfrwt beam="1">  1       21 0.45827436E-02 0.30000000E+03</pdfrwt>
<pdfrwt beam="2">0</pdfrwt>
<totfact> 0.33408420E+04</totfact>
</mgrwt>
</event>
<event>
 6    1  0.6377696E-002  0.3000000E+03  0.7818608E-02  0.1093470E+00
         21   -1    0    0  501  502  0.00000000000E+00  0.00000000000E+00  0.31586707981E+01  0.31586707981E+01  0.00000000000E+00 0. -1.
         13   -1    0    0    0    0 -0.00000000000E+00 -0.00000000000E+00 -0.10000000000E+04  0.10000000000E+04  0.00000000000E+00 0.  1.
    9000005    2    1    2  501    0 -0.48021999136E+02 -0.91387270741E+00 -0.23918958275E+03  0.24398601819E+03  0.32516168896E+01 0.  0.
         13    1    3    3    0    0 -0.34546452220E+02  0.63270918926E+00 -0.16821533901E+03  0.17172727786E+03  0.00000000000E+00 0.  1.
          3    1    3    3  501    0 -0.13475546917E+02 -0.15465818967E+01 -0.70974243739E+02  0.72258740334E+02  0.00000000000E+00 0.  1.
         -1    1    1    2    0  502  0.48021999136E+02  0.91387270741E+00 -0.75765174645E+03  0.75917265260E+03  0.00000000000E+00 0. -1.
<mgrwt>
<rscale>  1 0.30000000E+03</rscale>
<asrwt>0</asrwt>
<pdfrwt beam="1">  1       21 0.11486100E-01 0.30000000E+03</pdfrwt>
<pdfrwt beam="2">0</pdfrwt>
<totfact> 0.67081938E+03</totfact>
</mgrwt>
</event>
<event>
 6    1  0.6377696E-002  0.3000000E+03  0.7818608E-02  0.1093470E+00
         21   -1    0    0  501  502  0.00000000000E+00  0.00000000000E+00  0.13534164737E+01  0.13534164737E+01  0.00000000000E+00 0. -1.
         13   -1    0    0    0    0 -0.00000000000E+00 -0.00000000000E+00 -0.10000000000E+04  0.10000000000E+04  0.00000000000E+00 0.  1.
    9000005    2    1    2  501    0  0.20436962712E+02 -0.29533891130E+02 -0.39719793099E+03  0.39883337381E+03  0.34559389570E+01 0.  0.
         13    1    3    3    0    0  0.57849188833E+01 -0.59718269548E+01 -0.85999895866E+02  0.86400868587E+02  0.00000000000E+00 0.  1.
          3    1    3    3  501    0  0.14652043829E+02 -0.23562064175E+02 -0.31119803512E+03  0.31243250522E+03  0.00000000000E+00 0.  1.
         -3    1    1    2    0  502 -0.20436962712E+02  0.29533891130E+02 -0.60144865254E+03  0.60252004266E+03  0.00000000000E+00 0. -1.
<mgrwt>
<rscale>  1 0.30000000E+03</rscale>
<asrwt>0</asrwt>
<pdfrwt beam="1">  1       21 0.49215248E-02 0.30000000E+03</pdfrwt>
<pdfrwt beam="2">0</pdfrwt>
<totfact> 0.29591722E+04</totfact>
</mgrwt>
</event>
<event>
 6    1  0.6377696E-002  0.3000000E+03  0.7818608E-02  0.1093470E+00
         21   -1    0    0  501  502  0.00000000000E+00  0.00000000000E+00  0.12901219471E+01  0.12901219471E+01  0.00000000000E+00 0. -1.
         13   -1    0    0    0    0 -0.00000000000E+00 -0.00000000000E+00 -0.10000000000E+04  0.10000000000E+04  0.00000000000E+00 0.  1.
    9000005    2    1    2  501    0  0.13909224791E+02 -0.31670800610E+02 -0.39714333223E+03  0.39872990487E+03  0.81366185054E+01 0.  0.
         13    1    3    3    0    0  0.13011802821E+02 -0.24121646847E+02 -0.27925995150E+03  0.28060164178E+03  0.00000000000E+00 0.  1.
          1    1    3    3  501    0  0.89742197039E+00 -0.75491537625E+01 -0.11788338073E+03  0.11812826309E+03  0.00000000000E+00 0.  1.
         -1    1    1    2    0  502 -0.13909224791E+02  0.31670800610E+02 -0.60156654583E+03  0.60256021707E+03  0.00000000000E+00 0. -1.
<mgrwt>
<rscale>  1 0.30000000E+03</rscale>
<asrwt>0</asrwt>
<pdfrwt beam="1">  1       21 0.46913624E-02 0.30000000E+03</pdfrwt>
<pdfrwt beam="2">0</pdfrwt>
<totfact> 0.32104580E+04</totfact>
</mgrwt>
</event>
<event>
 6    1  0.6377696E-002  0.3000000E+03  0.7818608E-02  0.1093470E+00
         21   -1    0    0  501  502  0.00000000000E+00  0.00000000000E+00  0.20823129474E+01  0.20823129474E+01  0.00000000000E+00 0. -1.
         13   -1    0    0    0    0 -0.00000000000E+00 -0.00000000000E+00 -0.10000000000E+04  0.10000000000E+04  0.00000000000E+00 0.  1.
    9000005    2    1    2  501    0  0.28215587217E+02  0.35239574707E+02 -0.56746383316E+03  0.56926772525E+03  0.35488147126E+01 0.  0.
         13    1    3    3    0    0  0.13884380871E+02  0.17560188773E+02 -0.30364544876E+03  0.30446953019E+03  0.00000000000E+00 0.  1.
          1    1    3    3  501    0  0.14331206346E+02  0.17679385934E+02 -0.26381838439E+03  0.26479819506E+03  0.00000000000E+00 0.  1.
         -3    1    1    2    0  502 -0.28215587217E+02 -0.35239574707E+02 -0.43045385390E+03  0.43281458770E+03  0.00000000000E+00 0. -1.
<mgrwt>
<rscale>  1 0.30000000E+03</rscale>
<asrwt>0</asrwt>
<pdfrwt beam="1">  1       21 0.75720630E-02 0.30000000E+03</pdfrwt>
<pdfrwt beam="2">0</pdfrwt>
<totfact> 0.14066912E+04</totfact>
</mgrwt>
</event>
<event>
 6    1  0.6377696E-002  0.3000000E+03  0.7818608E-02  0.1093470E+00
         21   -1    0    0  501  502  0.00000000000E+00  0.00000000000E+00  0.31019414598E+01  0.31019414598E+01  0.00000000000E+00 0. -1.
         13   -1    0    0    0    0 -0.00000000000E+00 -0.00000000000E+00 -0.10000000000E+04  0.10000000000E+04  0.00000000000E+00 0.  1.
    9000005    2    1    2  501    0  0.13427673111E+01 -0.49796551437E+02 -0.72222389863E+03  0.72394715701E+03  0.32598820192E+01 0.  0.
         13    1    3    3    0    0  0.59576002089E+00 -0.70278526310E+01 -0.87771327703E+02  0.88054253783E+02  0.00000000000E+00 0.  1.
          1    1    3    3  501    0  0.74700729020E+00 -0.42768698806E+02 -0.63445257093E+03  0.63589290323E+03  0.00000000000E+00 0.  1.
         -3    1    1    2    0  502 -0.13427673111E+01  0.49796551437E+02 -0.27467415991E+03  0.27915478445E+03  0.00000000000E+00 0. -1.
<mgrwt>
<rscale>  1 0.30000000E+03</rscale>
<asrwt>0</asrwt>
<pdfrwt beam="1">  1       21 0.11279811E-01 0.30000000E+03</pdfrwt>
<pdfrwt beam="2">0</pdfrwt>
<totfact> 0.69312315E+03</totfact>
</mgrwt>
</event>
<event>
 6    1  0.6377696E-002  0.3000000E+03  0.7818608E-02  0.1093470E+00
         21   -1    0    0  501  502  0.00000000000E+00  0.00000000000E+00  0.13431829059E+01  0.13431829059E+01  0.00000000000E+00 0. -1.
         13   -1    0    0    0    0 -0.00000000000E+00 -0.00000000000E+00 -0.10000000000E+04  0.10000000000E+04  0.00000000000E+00 0.  1.
    9000005    2    1    2  501    0 -0.19379122976E+02  0.27172335028E+02 -0.70475051875E+03  0.70554798618E+03  0.32834326350E+01 0.  0.
         13    1    3    3    0    0 -0.12307967404E+02  0.14523553045E+02 -0.39269136354E+03  0.39315254883E+03  0.00000000000E+00 0.  1.
          3    1    3    3  501    0 -0.70711555722E+01  0.12648781983E+02 -0.31205915521E+03  0.31239543735E+03  0.00000000000E+00 0.  1.
         -3    1    1    2    0  502  0.19379122976E+02 -0.27172335028E+02 -0.29390629835E+03  0.29579519672E+03  0.00000000000E+00 0. -1.
<mgrwt>
<rscale>  1 0.30000000E+03</rscale>
<asrwt>0</asrwt>
<pdfrwt beam="1">  1       21 0.48843118E-02 0.30000000E+03</pdfrwt>
<pdfrwt beam="2">0</pdfrwt>
<totfact> 0.29976735E+04</totfact>
</mgrwt>
</event>
<event>
 6    1  0.6377696E-002  0.3000000E+03  0.7818608E-02  0.1093470E+00
         21   -1    0    0  501  502  0.00000000000E+00  0.00000000000E+00  0.14095903112E+02  0.14095903112E+02  0.00000000000E+00 0. -1.
         13   -1    0    0    0    0 -0.00000000000E+00 -0.00000000000E+00 -0.10000000000E+04  0.10000000000E+04  0.00000000000E+00 0.  1.
    9000005    2    1    2  501    0 -0.10290140996E+03 -0.11616830595E+02 -0.74084291078E+03  0.74805335790E+03  0.34578741842E+01 0.  0.
         13    1    3    3    0    0 -0.53356300033E+02 -0.77035875871E+01 -0.38867890791E+03  0.39239971135E+03  0.00000000000E+00 0.  1.
          1    1    3    3  501    0 -0.49545109925E+02 -0.39132430079E+01 -0.35216400287E+03  0.35565364655E+03  0.00000000000E+00 0.  1.
         -3    1    1    2    0  502  0.10290140996E+03  0.11616830595E+02 -0.24506118611E+03  0.26604254521E+03  0.00000000000E+00 0. -1.
<mgrwt>
<rscale>  1 0.30000000E+03</rscale>
<asrwt>0</asrwt>
<pdfrwt beam="1">  1       21 0.51257938E-01 0.30000000E+03</pdfrwt>
<pdfrwt beam="2">0</pdfrwt>
<totfact> 0.35596941E+02</totfact>
</mgrwt>
</event>
<event>
 6    1  0.6377696E-002  0.3000000E+03  0.7818608E-02  0.1093470E+00
         21   -1    0    0  501  502  0.00000000000E+00  0.00000000000E+00  0.14530740789E+01  0.14530740789E+01  0.00000000000E+00 0. -1.
         13   -1    0    0    0    0 -0.00000000000E+00 -0.00000000000E+00 -0.10000000000E+04  0.10000000000E+04  0.00000000000E+00 0.  1.
    9000005    2    1    2  501    0 -0.26242295868E+02 -0.22923569512E+02 -0.70092092215E+03  0.70179429104E+03  0.33075212709E+01 0.  0.
         13    1    3    3    0    0 -0.69312517012E+01 -0.65196049626E+01 -0.16397455451E+03  0.16425042474E+03  0.00000000000E+00 0.  1.
          3    1    3    3  501    0 -0.19311044167E+02 -0.16403964550E+02 -0.53694636764E+03  0.53754386630E+03  0.00000000000E+00 0.  1.
         -3    1    1    2    0  502  0.26242295868E+02  0.22923569512E+02 -0.29762600377E+03  0.29965878304E+03  0.00000000000E+00 0. -1.
<mgrwt>
<rscale>  1 0.30000000E+03</rscale>
<asrwt>0</asrwt>
<pdfrwt beam="1">  1       21 0.52839169E-02 0.30000000E+03</pdfrwt>
<pdfrwt beam="2">0</pdfrwt>
<totfact> 0.26212750E+04</totfact>
</mgrwt>
</event>
<event>
 6    1  0.6377696E-002  0.3000000E+03  0.7818608E-02  0.1093470E+00
         21   -1    0    0  501  502  0.00000000000E+00  0.00000000000E+00  0.22981214880E+01  0.22981214880E+01  0.00000000000E+00 0. -1.
         13   -1    0    0    0    0 -0.00000000000E+00 -0.00000000000E+00 -0.10000000000E+04  0.10000000000E+04  0.00000000000E+00 0.  1.
    9000005    2    1    2  501    0 -0.31037218791E+02 -0.21616785339E+02 -0.19270095913E+03  0.19640912506E+03  0.35057664515E+01 0.  0.
         13    1    3    3    0    0 -0.17808321536E+02 -0.10740382545E+02 -0.10002346753E+03  0.10216254788E+03  0.00000000000E+00 0.  1.
          3    1    3    3  501    0 -0.13228897255E+02 -0.10876402794E+02 -0.92677491606E+02  0.94246577183E+02  0.00000000000E+00 0.  1.
         -3    1    1    2    0  502  0.31037218791E+02  0.21616785339E+02 -0.80500091938E+03  0.80588899643E+03  0.00000000000E+00 0. -1.
<mgrwt>
<rscale>  1 0.30000000E+03</rscale>
<asrwt>0</asrwt>
<pdfrwt beam="1">  1       21 0.83568230E-02 0.30000000E+03</pdfrwt>
<pdfrwt beam="2">0</pdfrwt>
<totfact> 0.11830181E+04</totfact>
</mgrwt>
</event>
<event>
 6    1  0.6377696E-002  0.3000000E+03  0.7818608E-02  0.1093470E+00
         21   -1    0    0  501  502  0.00000000000E+00  0.00000000000E+00  0.17044022870E+01  0.17044022870E+01  0.00000000000E+00 0. -1.
         13   -1    0    0    0    0 -0.00000000000E+00 -0.00000000000E+00 -0.10000000000E+04  0.10000000000E+04  0.00000000000E+00 0.  1.
    9000005    2    1    2  501    0  0.33091822165E+02 -0.20964468197E+02 -0.65536796269E+03  0.65654655364E+03  0.34107115818E+01 0.  0.
         13    1    3    3    0    0  0.47153909847E+01 -0.19078435902E+01 -0.97086481649E+02  0.97219646668E+02  0.00000000000E+00 0.  1.
          3    1    3    3  501    0  0.28376431180E+02 -0.19056624607E+02 -0.55828148104E+03  0.55932690697E+03  0.00000000000E+00 0.  1.
         -1    1    1    2    0  502 -0.33091822165E+02  0.20964468197E+02 -0.34292763502E+03  0.34515784865E+03  0.00000000000E+00 0. -1.
<mgrwt>
<rscale>  1 0.30000000E+03</rscale>
<asrwt>0</asrwt>
<pdfrwt beam="1">  1       21 0.61978396E-02 0.30000000E+03</pdfrwt>
<pdfrwt beam="2">0</pdfrwt>
<totfact> 0.19924330E+04</totfact>
</mgrwt>
</event>
<event>
 6    1  0.6377696E-002  0.3000000E+03  0.7818608E-02  0.1093470E+00
         21   -1    0    0  501  502  0.00000000000E+00  0.00000000000E+00  0.13488469338E+01  0.13488469338E+01  0.00000000000E+00 0. -1.
         13   -1    0    0    0    0 -0.00000000000E+00 -0.00000000000E+00 -0.10000000000E+04  0.10000000000E+04  0.00000000000E+00 0.  1.
    9000005    2    1    2  501    0 -0.27581419727E+02  0.13969798029E+02 -0.23332536233E+03  0.23539881205E+03  0.39982542927E+01 0.  0.
         13    1    3    3    0    0 -0.15293260503E+02  0.81679119549E+01 -0.14529325561E+03  0.14632405383E+03  0.00000000000E+00 0.  1.
          3    1    3    3  501    0 -0.12288159224E+02  0.58018860739E+01 -0.88032106717E+02  0.89074758221E+02  0.00000000000E+00 0.  1.
         -1    1    1    2    0  502  0.27581419727E+02 -0.13969798029E+02 -0.76532579074E+03  0.76595003489E+03  0.00000000000E+00 0. -1.
<mgrwt>
<rscale>  1 0.30000000E+03</rscale>
<asrwt>0</asrwt>
<pdfrwt beam="1">  1       21 0.49049083E-02 0.30000000E+03</pdfrwt>
<pdfrwt beam="2">0</pdfrwt>
<totfact> 0.29762680E+04</totfact>
</mgrwt>
</event>
<event>
 6    1  0.6377696E-002  0.3000000E+03  0.7818608E-02  0.1093470E+00
         21   -1    0    0  501  502  0.00000000000E+00  0.00000000000E+00  0.61681133946E+01  0.61681133946E+01  0.00000000000E+00 0. -1.
         13   -1    0    0    0    0 -0.00000000000E+00 -0.00000000000E+00 -0.10000000000E+04  0.10000000000E+04  0.00000000000E+00 0.  1.
    9000005    2    1    2  501    0 -0.70329061938E+02 -0.31019356407E+02 -0.59919799925E+03  0.60411801394E+03  0.34576050415E+01 0.  0.
         13    1    3    3    0    0 -0.54964336179E+02 -0.25783369214E+02 -0.47298081667E+03  0.47686131455E+03  0.00000000000E+00 0.  1.
          1    1    3    3  501    0 -0.15364725759E+02 -0.52359871924E+01 -0.12621718258E+03  0.12725669939E+03  0.00000000000E+00 0.  1.
         -1    1    1    2    0  502  0.70329061938E+02  0.31019356407E+02 -0.39463388736E+03  0.40205009946E+03  0.00000000000E+00 0. -1.
<mgrwt>
<rscale>  1 0.30000000E+03</rscale>
<asrwt>0</asrwt>
<pdfrwt beam="1">  1       21 0.22429551E-01 0.30000000E+03</pdfrwt>
<pdfrwt beam="2">0</pdfrwt>
<totfact> 0.19254792E+03</totfact>
</mgrwt>
</event>
<event>
 6    1  0.6377696E-002  0.3000000E+03  0.7818608E-02  0.1093470E+00
         21   -1    0    0  501  502  0.00000000000E+00  0.00000000000E+00  0.11682359884E+01  0.11682359884E+01  0.00000000000E+00 0. -1.
         13   -1    0    0    0    0 -0.00000000000E+00 -0.00000000000E+00 -0.10000000000E+04  0.10000000000E+04  0.00000000000E+00 0.  1.
    9000005    2    1    2  501    0 -0.50362363119E+01  0.33037171886E+02 -0.40988524857E+03  0.41127433328E+03  0.48828082867E+01 0.  0.
         13    1    3    3    0    0 -0.29627567874E+01  0.28641639760E+02 -0.36184337856E+03  0.36298726158E+03  0.00000000000E+00 0.  1.
          1    1    3    3  501    0 -0.20734795245E+01  0.43955321264E+01 -0.48041870002E+02  0.48287071700E+02  0.00000000000E+00 0.  1.
         -1    1    1    2    0  502  0.50362363119E+01 -0.33037171886E+02 -0.58894651544E+03  0.58989390271E+03  0.00000000000E+00 0. -1.
<mgrwt>
<rscale>  1 0.30000000E+03</rscale>
<asrwt>0</asrwt>
<pdfrwt beam="1">  1       21 0.42481398E-02 0.30000000E+03</pdfrwt>
<pdfrwt beam="2">0</pdfrwt>
<totfact> 0.37988038E+04</totfact>
</mgrwt>
</event>
<event>
 6    1  0.6377696E-002  0.3000000E+03  0.7818608E-02  0.1093470E+00
         21   -1    0    0  501  502  0.00000000000E+00  0.00000000000E+00  0.14910123096E+01  0.14910123096E+01  0.00000000000E+00 0. -1.
         13   -1    0    0    0    0 -0.00000000000E+00 -0.00000000000E+00 -0.10000000000E+04  0.10000000000E+04  0.00000000000E+00 0.  1.
    9000005    2    1    2  501    0  0.24717654110E+02  0.29519185744E+02 -0.52338011769E+03  0.52480475505E+03  0.33073522447E+01 0.  0.
         13    1    3    3    0    0  0.42653794219E+00  0.16497761535E-01 -0.59146948932E+01  0.59300777796E+01  0.00000000000E+00 0.  1.
          3    1    3    3  501    0  0.24291116168E+02  0.29502687983E+02 -0.51746542280E+03  0.51887467727E+03  0.00000000000E+00 0.  1.
         -3    1    1    2    0  502 -0.24717654110E+02 -0.29519185744E+02 -0.47512887000E+03  0.47668625726E+03  0.00000000000E+00 0. -1.
<mgrwt>
<rscale>  1 0.30000000E+03</rscale>
<asrwt>0</asrwt>
<pdfrwt beam="1">  1       21 0.54218744E-02 0.30000000E+03</pdfrwt>
<pdfrwt beam="2">0</pdfrwt>
<totfact> 0.25081631E+04</totfact>
</mgrwt>
</event>
<event>
 6    1  0.6377696E-002  0.3000000E+03  0.7818608E-02  0.1093470E+00
         21   -1    0    0  501  502  0.00000000000E+00  0.00000000000E+00  0.18799276292E+01  0.18799276292E+01  0.00000000000E+00 0. -1.
         13   -1    0    0    0    0 -0.00000000000E+00 -0.00000000000E+00 -0.10000000000E+04  0.10000000000E+04  0.00000000000E+00 0.  1.
    9000005    2    1    2  501    0 -0.15184405962E+02 -0.36414417524E+02 -0.29344353626E+03  0.29609979435E+03  0.30664723434E+01 0.  0.
         13    1    3    3    0    0 -0.13459482487E+02 -0.29448906673E+02 -0.23672060391E+03  0.23892475822E+03  0.00000000000E+00 0.  1.
          1    1    3    3  501    0 -0.17249234742E+01 -0.69655108519E+01 -0.56722932355E+02  0.57175036138E+02  0.00000000000E+00 0.  1.
         -3    1    1    2    0  502  0.15184405962E+02  0.36414417524E+02 -0.70467653611E+03  0.70578013328E+03  0.00000000000E+00 0. -1.
<mgrwt>
<rscale>  1 0.30000000E+03</rscale>
<asrwt>0</asrwt>
<pdfrwt beam="1">  1       21 0.68361149E-02 0.30000000E+03</pdfrwt>
<pdfrwt beam="2">0</pdfrwt>
<totfact> 0.16813797E+04</totfact>
</mgrwt>
</event>
<event>
 6    1  0.6377696E-002  0.3000000E+03  0.7818608E-02  0.1093470E+00
         21   -1    0    0  501  502  0.00000000000E+00  0.00000000000E+00  0.96107962105E+00  0.96107962105E+00  0.00000000000E+00 0. -1.
         13   -1    0    0    0    0 -0.00000000000E+00 -0.00000000000E+00 -0.10000000000E+04  0.10000000000E+04  0.00000000000E+00 0.  1.
    9000005    2    1    2  501    0 -0.87510173979E+01 -0.29614425583E+02 -0.48173777191E+03  0.48273904930E+03  0.34805633509E+01 0.  0.
         13    1    3    3    0    0 -0.50285237837E+01 -0.12852240520E+02 -0.23448672826E+03  0.23489251131E+03  0.00000000000E+00 0.  1.
          1    1    3    3  501    0 -0.37224936141E+01 -0.16762185063E+02 -0.24725104365E+03  0.24784653799E+03  0.00000000000E+00 0.  1.
         -1    1    1    2    0  502  0.87510173979E+01  0.29614425583E+02 -0.51730114847E+03  0.51822203032E+03  0.00000000000E+00 0. -1.
<mgrwt>
<rscale>  1 0.30000000E+03</rscale>
<asrwt>0</asrwt>
<pdfrwt beam="1">  1       21 0.34948424E-02 0.30000000E+03</pdfrwt>
<pdfrwt beam="2">0</pdfrwt>
<totfact> 0.52746889E+04</totfact>
</mgrwt>
</event>
<event>
 6    1  0.6377696E-002  0.3000000E+03  0.7818608E-02  0.1093470E+00
         21   -1    0    0  501  502  0.00000000000E+00  0.00000000000E+00  0.10822412888E+01  0.10822412888E+01  0.00000000000E+00 0. -1.
         13   -1    0    0    0    0 -0.00000000000E+00 -0.00000000000E+00 -0.10000000000E+04  0.10000000000E+04  0.00000000000E+00 0.  1.
    9000005    2    1    2  501    0 -0.26860197662E+02 -0.18841630474E+02 -0.48439291884E+03  0.48551237395E+03  0.30476522961E+01 0.  0.
         13    1    3    3    0    0 -0.24691583919E+02 -0.16480694805E+02 -0.42786880908E+03  0.42889742993E+03  0.00000000000E+00 0.  1.
          1    1    3    3  501    0 -0.21686137435E+01 -0.23609356689E+01 -0.56524109759E+02  0.56614944024E+02  0.00000000000E+00 0.  1.
         -1    1    1    2    0  502  0.26860197662E+02  0.18841630474E+02 -0.51452483987E+03  0.51556986734E+03  0.00000000000E+00 0. -1.
<mgrwt>
<rscale>  1 0.30000000E+03</rscale>
<asrwt>0</asrwt>
<pdfrwt beam="1">  1       21 0.39354312E-02 0.30000000E+03</pdfrwt>
<pdfrwt beam="2">0</pdfrwt>
<totfact> 0.43215124E+04</totfact>
</mgrwt>
</event>
<event>
 6    1  0.6377696E-002  0.3000000E+03  0.7818608E-02  0.1093470E+00
         21   -1    0    0  501  502  0.00000000000E+00  0.00000000000E+00  0.24376166102E+01  0.24376166102E+01  0.00000000000E+00 0. -1.
         13   -1    0    0    0    0 -0.00000000000E+00 -0.00000000000E+00 -0.10000000000E+04  0.10000000000E+04  0.00000000000E+00 0.  1.
    9000005    2    1    2  501    0 -0.17901455272E+02 -0.45445300312E+02 -0.55461625965E+03  0.55680659665E+03  0.69751828004E+01 0.  0.
         13    1    3    3    0    0 -0.10553447411E+02 -0.33453795802E+02 -0.41742844825E+03  0.41889979842E+03  0.00000000000E+00 0.  1.
          1    1    3    3  501    0 -0.73480078611E+01 -0.11991504510E+02 -0.13718781140E+03  0.13790679823E+03  0.00000000000E+00 0.  1.
         -1    1    1    2    0  502  0.17901455272E+02  0.45445300312E+02 -0.44294612374E+03  0.44563101996E+03  0.00000000000E+00 0. -1.
<mgrwt>
<rscale>  1 0.30000000E+03</rscale>
<asrwt>0</asrwt>
<pdfrwt beam="1">  1       21 0.88640791E-02 0.30000000E+03</pdfrwt>
<pdfrwt beam="2">0</pdfrwt>
<totfact> 0.10661495E+04</totfact>
</mgrwt>
</event>
<event>
 6    1  0.6377696E-002  0.3000000E+03  0.7818608E-02  0.1093470E+00
         21   -1    0    0  501  502  0.00000000000E+00  0.00000000000E+00  0.28803338115E+01  0.28803338115E+01  0.00000000000E+00 0. -1.
         13   -1    0    0    0    0 -0.00000000000E+00 -0.00000000000E+00 -0.10000000000E+04  0.10000000000E+04  0.00000000000E+00 0.  1.
    9000005    2    1    2  501    0  0.44869794166E+02 -0.28858276559E+02 -0.45183827151E+03  0.45499540252E+03  0.41102503779E+01 0.  0.
         13    1    3    3    0    0  0.13017371912E+02 -0.95002078917E+01 -0.12290765785E+03  0.12395966392E+03  0.00000000000E+00 0.  1.
          1    1    3    3  501    0  0.31852422254E+02 -0.19358068667E+02 -0.32893061365E+03  0.33103573859E+03  0.00000000000E+00 0.  1.
         -1    1    1    2    0  502 -0.44869794166E+02  0.28858276559E+02 -0.54528139468E+03  0.54788493130E+03  0.00000000000E+00 0. -1.
<mgrwt>
<rscale>  1 0.30000000E+03</rscale>
<asrwt>0</asrwt>
<pdfrwt beam="1">  1       21 0.10473963E-01 0.30000000E+03</pdfrwt>
<pdfrwt beam="2">0</pdfrwt>
<totfact> 0.79190312E+03</totfact>
</mgrwt>
</event>
<event>
 6    1  0.6377696E-002  0.3000000E+03  0.7818608E-02  0.1093470E+00
         21   -1    0    0  501  502  0.00000000000E+00  0.00000000000E+00  0.18810703801E+01  0.18810703801E+01  0.00000000000E+00 0. -1.
         13   -1    0    0    0    0 -0.00000000000E+00 -0.00000000000E+00 -0.10000000000E+04  0.10000000000E+04  0.00000000000E+00 0.  1.
    9000005    2    1    2  501    0 -0.29735971297E+02  0.29517318310E+02 -0.37337921162E+03  0.37573794351E+03  0.33862162547E+01 0.  0.
         13    1    3    3    0    0 -0.24273061048E+02  0.23204523916E+02 -0.28776512359E+03  0.28971778988E+03  0.00000000000E+00 0.  1.
          3    1    3    3  501    0 -0.54629102493E+01  0.63127943934E+01 -0.85614088030E+02  0.86020153630E+02  0.00000000000E+00 0.  1.
         -3    1    1    2    0  502  0.29735971297E+02 -0.29517318310E+02 -0.62473971800E+03  0.62614312687E+03  0.00000000000E+00 0. -1.
<mgrwt>
<rscale>  1 0.30000000E+03</rscale>
<asrwt>0</asrwt>
<pdfrwt beam="1">  1       21 0.68402704E-02 0.30000000E+03</pdfrwt>
<pdfrwt beam="2">0</pdfrwt>
<totfact> 0.16796057E+04</totfact>
</mgrwt>
</event>
<event>
 6    1  0.6377696E-002  0.3000000E+03  0.7818608E-02  0.1093470E+00
         21   -1    0    0  501  502  0.00000000000E+00  0.00000000000E+00  0.17122881048E+01  0.17122881048E+01  0.00000000000E+00 0. -1.
         13   -1    0    0    0    0 -0.00000000000E+00 -0.00000000000E+00 -0.10000000000E+04  0.10000000000E+04  0.00000000000E+00 0.  1.
    9000005    2    1    2  501    0  0.39515455615E+02 -0.15354193055E+01 -0.64475809385E+03  0.64597780906E+03  0.32405971881E+01 0.  0.
         13    1    3    3    0    0  0.34997172987E+02 -0.31961871796E+00 -0.56806581437E+03  0.56914292909E+03  0.00000000000E+00 0.  1.
          3    1    3    3  501    0  0.45182826275E+01 -0.12158005876E+01 -0.76692279478E+02  0.76834879973E+02  0.00000000000E+00 0.  1.
         -1    1    1    2    0  502 -0.39515455615E+02  0.15354193055E+01 -0.35352961805E+03  0.35573447905E+03  0.00000000000E+00 0. -1.
<mgrwt>
<rscale>  1 0.30000000E+03</rscale>
<asrwt>0</asrwt>
<pdfrwt beam="1">  1       21 0.62265153E-02 0.30000000E+03</pdfrwt>
<pdfrwt beam="2">0</pdfrwt>
<totfact> 0.19766103E+04</totfact>
</mgrwt>
</event>
<event>
 6    1  0.6377696E-002  0.3000000E+03  0.7818608E-02  0.1093470E+00
         21   -1    0    0  501  502  0.00000000000E+00  0.00000000000E+00  0.11906862487E+02  0.11906862487E+02  0.00000000000E+00 0. -1.
         13   -1    0    0    0    0 -0.00000000000E+00 -0.00000000000E+00 -0.10000000000E+04  0.10000000000E+04  0.00000000000E+00 0.  1.
    9000005    2    1    2  501    0  0.72766493472E+02  0.78577324938E+02 -0.39787847112E+03  0.41205462152E+03  0.35177790598E+01 0.  0.
         13    1    3    3    0    0  0.45042265187E+02  0.46283696643E+02 -0.24225760774E+03  0.25071843717E+03  0.00000000000E+00 0.  1.
          3    1    3    3  501    0  0.27724228285E+02  0.32293628295E+02 -0.15562086338E+03  0.16133618435E+03  0.00000000000E+00 0.  1.
         -1    1    1    2    0  502 -0.72766493472E+02 -0.78577324938E+02 -0.59021466639E+03  0.59985224097E+03  0.00000000000E+00 0. -1.
<mgrwt>
<rscale>  1 0.30000000E+03</rscale>
<asrwt>0</asrwt>
<pdfrwt beam="1">  1       21 0.43297773E-01 0.30000000E+03</pdfrwt>
<pdfrwt beam="2">0</pdfrwt>
<totfact> 0.51127797E+02</totfact>
</mgrwt>
</event>
<event>
 6    1  0.6377696E-002  0.3000000E+03  0.7818608E-02  0.1093470E+00
         21   -1    0    0  501  502  0.00000000000E+00  0.00000000000E+00  0.11277556995E+01  0.11277556995E+01  0.00000000000E+00 0. -1.
         13   -1    0    0    0    0 -0.00000000000E+00 -0.00000000000E+00 -0.10000000000E+04  0.10000000000E+04  0.00000000000E+00 0.  1.
    9000005    2    1    2  501    0  0.29797483004E+02 -0.68940461021E+01 -0.70421359318E+03  0.70488606629E+03  0.34876586773E+01 0.  0.
         13    1    3    3    0    0  0.18048140215E+02 -0.57712912375E+01 -0.44926536518E+03  0.44966477683E+03  0.00000000000E+00 0.  1.
          1    1    3    3  501    0  0.11749342789E+02 -0.11227548647E+01 -0.25494822800E+03  0.25522128946E+03  0.00000000000E+00 0.  1.
         -3    1    1    2    0  502 -0.29797483004E+02  0.68940461021E+01 -0.29465865112E+03  0.29624168941E+03  0.00000000000E+00 0. -1.
<mgrwt>
<rscale>  1 0.30000000E+03</rscale>
<asrwt>0</asrwt>
<pdfrwt beam="1">  1       21 0.41009385E-02 0.30000000E+03</pdfrwt>
<pdfrwt beam="2">0</pdfrwt>
<totfact> 0.40318073E+04</totfact>
</mgrwt>
</event>
<event>
 6    1  0.6377696E-002  0.3000000E+03  0.7818608E-02  0.1093470E+00
         21   -1    0    0  501  502  0.00000000000E+00  0.00000000000E+00  0.14482188037E+01  0.14482188037E+01  0.00000000000E+00 0. -1.
         13   -1    0    0    0    0 -0.00000000000E+00 -0.00000000000E+00 -0.10000000000E+04  0.10000000000E+04  0.00000000000E+00 0.  1.
    9000005    2    1    2  501    0  0.25575902434E+02  0.25753846048E+02 -0.64750103366E+03  0.64852611023E+03  0.33376178339E+01 0.  0.
         13    1    3    3    0    0  0.93138538529E+01  0.75928709808E+01 -0.19743414152E+03  0.19779949393E+03  0.00000000000E+00 0.  1.
          1    1    3    3  501    0  0.16262048581E+02  0.18160975067E+02 -0.45006689214E+03  0.45072661630E+03  0.00000000000E+00 0.  1.
         -3    1    1    2    0  502 -0.25575902434E+02 -0.25753846048E+02 -0.35105074754E+03  0.35292210857E+03  0.00000000000E+00 0. -1.
<mgrwt>
<rscale>  1 0.30000000E+03</rscale>
<asrwt>0</asrwt>
<pdfrwt beam="1">  1       21 0.52662613E-02 0.30000000E+03</pdfrwt>
<pdfrwt beam="2">0</pdfrwt>
<totfact> 0.26363188E+04</totfact>
</mgrwt>
</event>
<event>
 6    1  0.6377696E-002  0.3000000E+03  0.7818608E-02  0.1093470E+00
         21   -1    0    0  501  502  0.00000000000E+00  0.00000000000E+00  0.11100785819E+01  0.11100785819E+01  0.00000000000E+00 0. -1.
         13   -1    0    0    0    0 -0.00000000000E+00 -0.00000000000E+00 -0.10000000000E+04  0.10000000000E+04  0.00000000000E+00 0.  1.
    9000005    2    1    2  501    0 -0.76524200610E+00  0.33188236899E+02 -0.47726228914E+03  0.47842716187E+03  0.33484203023E+01 0.  0.
         13    1    3    3    0    0  0.50039166778E+00  0.78217024555E+00 -0.14886150790E+02  0.14915081879E+02  0.00000000000E+00 0.  1.
          3    1    3    3  501    0 -0.12656336739E+01  0.32406066653E+02 -0.46237613835E+03  0.46351207999E+03  0.00000000000E+00 0.  1.
         -1    1    1    2    0  502  0.76524200610E+00 -0.33188236899E+02 -0.52162763228E+03  0.52268291671E+03  0.00000000000E+00 0. -1.
<mgrwt>
<rscale>  1 0.30000000E+03</rscale>
<asrwt>0</asrwt>
<pdfrwt beam="1">  1       21 0.40366579E-02 0.30000000E+03</pdfrwt>
<pdfrwt beam="2">0</pdfrwt>
<totfact> 0.41406140E+04</totfact>
</mgrwt>
</event>
<event>
 6    1  0.6377696E-002  0.3000000E+03  0.7818608E-02  0.1093470E+00
         21   -1    0    0  501  502  0.00000000000E+00  0.00000000000E+00  0.14005676317E+01  0.14005676317E+01  0.00000000000E+00 0. -1.
         13   -1    0    0    0    0 -0.00000000000E+00 -0.00000000000E+00 -0.10000000000E+04  0.10000000000E+04  0.00000000000E+00 0.  1.
    9000005    2    1    2  501    0 -0.12949865088E+02 -0.33821771243E+02 -0.37778237562E+03  0.37952804921E+03  0.32257702826E+01 0.  0.
         13    1    3    3    0    0 -0.19198363626E+01 -0.48135877393E+01 -0.43299952603E+02  0.43608970338E+02  0.00000000000E+00 0.  1.
          1    1    3    3  501    0 -0.11030028725E+02 -0.29008183503E+02 -0.33448242302E+03  0.33591907887E+03  0.00000000000E+00 0.  1.
         -1    1    1    2    0  502  0.12949865088E+02  0.33821771243E+02 -0.62081705675E+03  0.62187251842E+03  0.00000000000E+00 0. -1.
<mgrwt>
<rscale>  1 0.30000000E+03</rscale>
<asrwt>0</asrwt>
<pdfrwt beam="1">  1       21 0.50929839E-02 0.30000000E+03</pdfrwt>
<pdfrwt beam="2">0</pdfrwt>
<totfact> 0.27913519E+04</totfact>
</mgrwt>
</event>
<event>
 6    1  0.6377696E-002  0.3000000E+03  0.7818608E-02  0.1093470E+00
         21   -1    0    0  501  502  0.00000000000E+00  0.00000000000E+00  0.27212873334E+01  0.27212873334E+01  0.00000000000E+00 0. -1.
         13   -1    0    0    0    0 -0.00000000000E+00 -0.00000000000E+00 -0.10000000000E+04  0.10000000000E+04  0.00000000000E+00 0.  1.
    9000005    2    1    2  501    0 -0.45791319843E+02  0.23962015237E+02 -0.43935100845E+03  0.44240499605E+03  0.46742652098E+01 0.  0.
         13    1    3    3    0    0 -0.10068655816E+02  0.34435468784E+01 -0.98740963635E+02  0.99312706864E+02  0.00000000000E+00 0.  1.
          3    1    3    3  501    0 -0.35722664027E+02  0.20518468358E+02 -0.34061004482E+03  0.34309228919E+03  0.00000000000E+00 0.  1.
         -3    1    1    2    0  502  0.45791319843E+02 -0.23962015237E+02 -0.55792770421E+03  0.56031629128E+03  0.00000000000E+00 0. -1.
<mgrwt>
<rscale>  1 0.30000000E+03</rscale>
<asrwt>0</asrwt>
<pdfrwt beam="1">  1       21 0.98956112E-02 0.30000000E+03</pdfrwt>
<pdfrwt beam="2">0</pdfrwt>
<totfact> 0.87659841E+03</totfact>
</mgrwt>
</event>
<event>
 6    1  0.6377696E-002  0.3000000E+03  0.7818608E-02  0.1093470E+00
         21   -1    0    0  501  502  0.00000000000E+00  0.00000000000E+00  0.16577466126E+01  0.16577466126E+01  0.00000000000E+00 0. -1.
         13   -1    0    0    0    0 -0.00000000000E+00 -0.00000000000E+00 -0.10000000000E+04  0.10000000000E+04  0.00000000000E+00 0.  1.
    9000005    2    1    2  501    0 -0.39115341642E+02 -0.97005973801E+00 -0.63568649872E+03  0.63689734942E+03  0.31556416175E+01 0.  0.
         13    1    3    3    0    0 -0.11664498891E+02 -0.17340402956E+01 -0.18991719602E+03  0.19028297027E+03  0.00000000000E+00 0.  1.
          1    1    3    3  501    0 -0.27450842750E+02  0.76398055756E+00 -0.44576930270E+03  0.44661437915E+03  0.00000000000E+00 0.  1.
         -3    1    1    2    0  502  0.39115341642E+02  0.97005973801E+00 -0.36265575467E+03  0.36476039719E+03  0.00000000000E+00 0. -1.
<mgrwt>
<rscale>  1 0.30000000E+03</rscale>
<asrwt>0</asrwt>
<pdfrwt beam="1">  1       21 0.60281822E-02 0.30000000E+03</pdfrwt>
<pdfrwt beam="2">0</pdfrwt>
<totfact> 0.20902040E+04</totfact>
</mgrwt>
</event>
<event>
 6    1  0.6377696E-002  0.3000000E+03  0.7818608E-02  0.1093470E+00
         21   -1    0    0  501  502  0.00000000000E+00  0.00000000000E+00  0.20676926729E+01  0.20676926729E+01  0.00000000000E+00 0. -1.
         13   -1    0    0    0    0 -0.00000000000E+00 -0.00000000000E+00 -0.10000000000E+04  0.10000000000E+04  0.00000000000E+00 0.  1.
    9000005    2    1    2  501    0  0.27556412794E+02 -0.22567068661E+02 -0.80659314736E+03  0.80744163427E+03  0.10042853406E+02 0.  0.
         13    1    3    3    0    0  0.15321564000E+02 -0.61020126573E+01 -0.36304630210E+03  0.36342069609E+03  0.00000000000E+00 0.  1.
          1    1    3    3  501    0  0.12234848794E+02 -0.16465056004E+02 -0.44354684526E+03  0.44402093817E+03  0.00000000000E+00 0.  1.
         -3    1    1    2    0  502 -0.27556412794E+02  0.22567068661E+02 -0.19133915997E+03  0.19462605841E+03  0.00000000000E+00 0. -1.
<mgrwt>
<rscale>  1 0.30000000E+03</rscale>
<asrwt>0</asrwt>
<pdfrwt beam="1">  1       21 0.75188983E-02 0.30000000E+03</pdfrwt>
<pdfrwt beam="2">0</pdfrwt>
<totfact> 0.14241569E+04</totfact>
</mgrwt>
</event>
<event>
 6    1  0.6377696E-002  0.3000000E+03  0.7818608E-02  0.1093470E+00
         21   -1    0    0  501  502  0.00000000000E+00  0.00000000000E+00  0.10916240783E+01  0.10916240783E+01  0.00000000000E+00 0. -1.
         13   -1    0    0    0    0 -0.00000000000E+00 -0.00000000000E+00 -0.10000000000E+04  0.10000000000E+04  0.00000000000E+00 0.  1.
    9000005    2    1    2  501    0  0.15187606757E+02 -0.27491078846E+02 -0.34839299483E+03  0.34981849869E+03  0.29799940446E+01 0.  0.
         13    1    3    3    0    0  0.72192359107E+01 -0.16096987264E+02 -0.19254479131E+03  0.19335130469E+03  0.00000000000E+00 0.  1.
          1    1    3    3  501    0  0.79683708464E+01 -0.11394091582E+02 -0.15584820352E+03  0.15646719399E+03  0.00000000000E+00 0.  1.
         -3    1    1    2    0  502 -0.15187606757E+02  0.27491078846E+02 -0.65051538109E+03  0.65127312539E+03  0.00000000000E+00 0. -1.
<mgrwt>
<rscale>  1 0.30000000E+03</rscale>
<asrwt>0</asrwt>
<pdfrwt beam="1">  1       21 0.39695505E-02 0.30000000E+03</pdfrwt>
<pdfrwt beam="2">0</pdfrwt>
<totfact> 0.42591803E+04</totfact>
</mgrwt>
</event>
<event>
 6    1  0.6377696E-002  0.3000000E+03  0.7818608E-02  0.1093470E+00
         21   -1    0    0  501  502  0.00000000000E+00  0.00000000000E+00  0.19429407895E+01  0.19429407895E+01  0.00000000000E+00 0. -1.
         13   -1    0    0    0    0 -0.00000000000E+00 -0.00000000000E+00 -0.10000000000E+04  0.10000000000E+04  0.00000000000E+00 0.  1.
    9000005    2    1    2  501    0 -0.87433221228E+01  0.32430616243E+02 -0.82320408829E+03  0.82389308263E+03  0.25787735222E+01 0.  0.
         13    1    3    3    0    0 -0.10718715120E+01  0.62990757429E+01 -0.13754299535E+03  0.13769133173E+03  0.00000000000E+00 0.  1.
          3    1    3    3  501    0 -0.76714506108E+01  0.26131540501E+02 -0.68566109294E+03  0.68620175090E+03  0.00000000000E+00 0.  1.
         -3    1    1    2    0  502  0.87433221228E+01 -0.32430616243E+02 -0.17485297092E+03  0.17804985816E+03  0.00000000000E+00 0. -1.
<mgrwt>
<rscale>  1 0.30000000E+03</rscale>
<asrwt>0</asrwt>
<pdfrwt beam="1">  1       21 0.70652541E-02 0.30000000E+03</pdfrwt>
<pdfrwt beam="2">0</pdfrwt>
<totfact> 0.15876725E+04</totfact>
</mgrwt>
</event>
<event>
 6    1  0.6377696E-002  0.3000000E+03  0.7818608E-02  0.1093470E+00
         21   -1    0    0  501  502  0.00000000000E+00  0.00000000000E+00  0.19851896692E+01  0.19851896692E+01  0.00000000000E+00 0. -1.
         13   -1    0    0    0    0 -0.00000000000E+00 -0.00000000000E+00 -0.10000000000E+04  0.10000000000E+04  0.00000000000E+00 0.  1.
    9000005    2    1    2  501    0  0.33077343724E+02  0.28547177033E+02 -0.40551897710E+03  0.40788051507E+03  0.34382846374E+01 0.  0.
         13    1    3    3    0    0  0.12639065812E+02  0.10100985329E+02 -0.16475010564E+03  0.16554266277E+03  0.00000000000E+00 0.  1.
          1    1    3    3  501    0  0.20438277913E+02  0.18446191705E+02 -0.24076887145E+03  0.24233785229E+03  0.00000000000E+00 0.  1.
         -3    1    1    2    0  502 -0.33077343724E+02 -0.28547177033E+02 -0.59249583323E+03  0.59410467460E+03  0.00000000000E+00 0. -1.
<mgrwt>
<rscale>  1 0.30000000E+03</rscale>
<asrwt>0</asrwt>
<pdfrwt beam="1">  1       21 0.72188867E-02 0.30000000E+03</pdfrwt>
<pdfrwt beam="2">0</pdfrwt>
<totfact> 0.15292356E+04</totfact>
</mgrwt>
</event>
<event>
 6    1  0.6377696E-002  0.3000000E+03  0.7818608E-02  0.1093470E+00
         21   -1    0    0  501  502  0.00000000000E+00  0.00000000000E+00  0.10560229139E+01  0.10560229139E+01  0.00000000000E+00 0. -1.
         13   -1    0    0    0    0 -0.00000000000E+00 -0.00000000000E+00 -0.10000000000E+04  0.10000000000E+04  0.00000000000E+00 0.  1.
    9000005    2    1    2  501    0  0.23722305987E+02 -0.22086523902E+02 -0.50190877540E+03  0.50296511349E+03  0.33051809711E+01 0.  0.
         13    1    3    3    0    0  0.16022142794E+02 -0.12907569066E+02 -0.30763364852E+03  0.30832089793E+03  0.00000000000E+00 0.  1.
          3    1    3    3  501    0  0.77001631930E+01 -0.91789548363E+01 -0.19427512688E+03  0.19464421555E+03  0.00000000000E+00 0.  1.
         -1    1    1    2    0  502 -0.23722305987E+02  0.22086523902E+02 -0.49703520169E+03  0.49809090943E+03  0.00000000000E+00 0. -1.
<mgrwt>
<rscale>  1 0.30000000E+03</rscale>
<asrwt>0</asrwt>
<pdfrwt beam="1">  1       21 0.38400914E-02 0.30000000E+03</pdfrwt>
<pdfrwt beam="2">0</pdfrwt>
<totfact> 0.45034757E+04</totfact>
</mgrwt>
</event>
<event>
 6    1  0.6377696E-002  0.3000000E+03  0.7818608E-02  0.1093470E+00
         21   -1    0    0  501  502  0.00000000000E+00  0.00000000000E+00  0.17108532518E+01  0.17108532518E+01  0.00000000000E+00 0. -1.
         13   -1    0    0    0    0 -0.00000000000E+00 -0.00000000000E+00 -0.10000000000E+04  0.10000000000E+04  0.00000000000E+00 0.  1.
    9000005    2    1    2  501    0 -0.13075941737E+02  0.29505230532E+02 -0.81189997332E+03  0.81254832299E+03  0.34163793510E+01 0.  0.
         13    1    3    3    0    0 -0.10939814698E+02  0.26947077716E+02 -0.73955118704E+03  0.74012281603E+03  0.00000000000E+00 0.  1.
          3    1    3    3  501    0 -0.21361270393E+01  0.25581528156E+01 -0.72348786271E+02  0.72425506967E+02  0.00000000000E+00 0.  1.
         -3    1    1    2    0  502  0.13075941737E+02 -0.29505230532E+02 -0.18638917343E+03  0.18916253026E+03  0.00000000000E+00 0. -1.
<mgrwt>
<rscale>  1 0.30000000E+03</rscale>
<asrwt>0</asrwt>
<pdfrwt beam="1">  1       21 0.62212977E-02 0.30000000E+03</pdfrwt>
<pdfrwt beam="2">0</pdfrwt>
<totfact> 0.19794748E+04</totfact>
</mgrwt>
</event>
<event>
 6    1  0.6377696E-002  0.3000000E+03  0.7818608E-02  0.1093470E+00
         21   -1    0    0  501  502  0.00000000000E+00  0.00000000000E+00  0.21462900033E+01  0.21462900033E+01  0.00000000000E+00 0. -1.
         13   -1    0    0    0    0 -0.00000000000E+00 -0.00000000000E+00 -0.10000000000E+04  0.10000000000E+04  0.00000000000E+00 0.  1.
    9000005    2    1    2  501    0  0.27219187674E+02 -0.35502639737E+02 -0.37131470290E+03  0.37401218886E+03  0.30310427003E+01 0.  0.
         13    1    3    3    0    0  0.64207071023E+01 -0.67216064563E+01 -0.71313383534E+02  0.71916647197E+02  0.00000000000E+00 0.  1.
          3    1    3    3  501    0  0.20798480572E+02 -0.28781033281E+02 -0.30000131937E+03  0.30209554166E+03  0.00000000000E+00 0.  1.
         -1    1    1    2    0  502 -0.27219187674E+02  0.35502639737E+02 -0.62653900709E+03  0.62813410114E+03  0.00000000000E+00 0. -1.
<mgrwt>
<rscale>  1 0.30000000E+03</rscale>
<asrwt>0</asrwt>
<pdfrwt beam="1">  1       21 0.78047074E-02 0.30000000E+03</pdfrwt>
<pdfrwt beam="2">0</pdfrwt>
<totfact> 0.13340201E+04</totfact>
</mgrwt>
</event>
<event>
 6    1  0.6377696E-002  0.3000000E+03  0.7818608E-02  0.1093470E+00
         21   -1    0    0  501  502  0.00000000000E+00  0.00000000000E+00  0.16810353649E+01  0.16810353649E+01  0.00000000000E+00 0. -1.
         13   -1    0    0    0    0 -0.00000000000E+00 -0.00000000000E+00 -0.10000000000E+04  0.10000000000E+04  0.00000000000E+00 0.  1.
    9000005    2    1    2  501    0 -0.25389660935E+02 -0.24056989469E+02 -0.24073173994E+03  0.24328682610E+03  0.36517824153E+01 0.  0.
         13    1    3    3    0    0 -0.82676861862E+01 -0.94396324052E+01 -0.77326809945E+02  0.78338348406E+02  0.00000000000E+00 0.  1.
          1    1    3    3  501    0 -0.17121974749E+02 -0.14617357063E+02 -0.16340493000E+03  0.16494847770E+03  0.00000000000E+00 0.  1.
         -3    1    1    2    0  502  0.25389660935E+02  0.24056989469E+02 -0.75758722469E+03  0.75839420926E+03  0.00000000000E+00 0. -1.
<mgrwt>
<rscale>  1 0.30000000E+03</rscale>
<asrwt>0</asrwt>
<pdfrwt beam="1">  1       21 0.61128688E-02 0.30000000E+03</pdfrwt>
<pdfrwt beam="2">0</pdfrwt>
<totfact> 0.20404906E+04</totfact>
</mgrwt>
</event>
<event>
 6    1  0.6377696E-002  0.3000000E+03  0.7818608E-02  0.1093470E+00
         21   -1    0    0  501  502  0.00000000000E+00  0.00000000000E+00  0.93005071253E+00  0.93005071253E+00  0.00000000000E+00 0. -1.
         13   -1    0    0    0    0 -0.00000000000E+00 -0.00000000000E+00 -0.10000000000E+04  0.10000000000E+04  0.00000000000E+00 0.  1.
    9000005    2    1    2  501    0 -0.30141378141E+02  0.38885499984E+01 -0.50207807420E+03  0.50300982879E+03  0.35877247268E+01 0.  0.
         13    1    3    3    0    0 -0.13809204252E+02  0.44948354068E+00 -0.20778562476E+03  0.20824447655E+03  0.00000000000E+00 0.  1.
          1    1    3    3  501    0 -0.16332173889E+02  0.34390664577E+01 -0.29429244944E+03  0.29476535224E+03  0.00000000000E+00 0.  1.
         -1    1    1    2    0  502  0.30141378141E+02 -0.38885499984E+01 -0.49699187508E+03  0.49792022192E+03  0.00000000000E+00 0. -1.
<mgrwt>
<rscale>  1 0.30000000E+03</rscale>
<asrwt>0</asrwt>
<pdfrwt beam="1">  1       21 0.33820097E-02 0.30000000E+03</pdfrwt>
<pdfrwt beam="2">0</pdfrwt>
<totfact> 0.55722777E+04</totfact>
</mgrwt>
</event>
<event>
 6    1  0.6377696E-002  0.3000000E+03  0.7818608E-02  0.1093470E+00
         21   -1    0    0  501  502  0.00000000000E+00  0.00000000000E+00  0.14827865396E+01  0.14827865396E+01  0.00000000000E+00 0. -1.
         13   -1    0    0    0    0 -0.00000000000E+00 -0.00000000000E+00 -0.10000000000E+04  0.10000000000E+04  0.00000000000E+00 0.  1.
    9000005    2    1    2  501    0 -0.22567315943E+02 -0.24363594900E+02 -0.75202125982E+03  0.75275980074E+03  0.29109928377E+01 0.  0.
         13    1    3    3    0    0 -0.16584172002E+02 -0.17227437296E+02 -0.56779521097E+03  0.56829853154E+03  0.00000000000E+00 0.  1.
          3    1    3    3  501    0 -0.59831439411E+01 -0.71361576049E+01 -0.18422604885E+03  0.18446126920E+03  0.00000000000E+00 0.  1.
         -3    1    1    2    0  502  0.22567315943E+02  0.24363594900E+02 -0.24649595364E+03  0.24872298580E+03  0.00000000000E+00 0. -1.
<mgrwt>
<rscale>  1 0.30000000E+03</rscale>
<asrwt>0</asrwt>
<pdfrwt beam="1">  1       21 0.53919624E-02 0.30000000E+03</pdfrwt>
<pdfrwt beam="2">0</pdfrwt>
<totfact> 0.25320392E+04</totfact>
</mgrwt>
</event>
<event>
 6    1  0.6377696E-002  0.3000000E+03  0.7818608E-02  0.1093470E+00
         21   -1    0    0  501  502  0.00000000000E+00  0.00000000000E+00  0.26094824865E+01  0.26094824865E+01  0.00000000000E+00 0. -1.
         13   -1    0    0    0    0 -0.00000000000E+00 -0.00000000000E+00 -0.10000000000E+04  0.10000000000E+04  0.00000000000E+00 0.  1.
    9000005    2    1    2  501    0 -0.14653591813E+02  0.45630916186E+02 -0.67106527047E+03  0.67278365705E+03  0.35133604129E+01 0.  0.
         13    1    3    3    0    0 -0.63273523885E+01  0.19849801559E+02 -0.31632790788E+03  0.31701324154E+03  0.00000000000E+00 0.  1.
          3    1    3    3  501    0 -0.83262394244E+01  0.25781114627E+02 -0.35473736259E+03  0.35577041551E+03  0.00000000000E+00 0.  1.
         -1    1    1    2    0  502  0.14653591813E+02 -0.45630916186E+02 -0.32632524705E+03  0.32982582544E+03  0.00000000000E+00 0. -1.
<mgrwt>
<rscale>  1 0.30000000E+03</rscale>
<asrwt>0</asrwt>
<pdfrwt beam="1">  1       21 0.94890472E-02 0.30000000E+03</pdfrwt>
<pdfrwt beam="2">0</pdfrwt>
<totfact> 0.94471161E+03</totfact>
</mgrwt>
</event>
<event>
 6    1  0.6377696E-002  0.3000000E+03  0.7818608E-02  0.1093470E+00
         21   -1    0    0  501  502  0.00000000000E+00  0.00000000000E+00  0.48198372281E+01  0.48198372281E+01  0.00000000000E+00 0. -1.
         13   -1    0    0    0    0 -0.00000000000E+00 -0.00000000000E+00 -0.10000000000E+04  0.10000000000E+04  0.00000000000E+00 0.  1.
    9000005    2    1    2  501    0  0.15866954968E+02 -0.25586190867E+02 -0.95027312481E+03  0.95075454817E+03  0.29640671476E+01 0.  0.
         13    1    3    3    0    0  0.12296000592E+02 -0.21926161197E+02 -0.79098182615E+03  0.79138119606E+03  0.00000000000E+00 0.  1.
          1    1    3    3  501    0  0.35709543761E+01 -0.36600296705E+01 -0.15929129866E+03  0.15937335211E+03  0.00000000000E+00 0.  1.
         -1    1    1    2    0  502 -0.15866954968E+02  0.25586190867E+02 -0.44907037957E+02  0.54065289060E+02  0.00000000000E+00 0. -1.
<mgrwt>
<rscale>  1 0.30000000E+03</rscale>
<asrwt>0</asrwt>
<pdfrwt beam="1">  1       21 0.17526718E-01 0.30000000E+03</pdfrwt>
<pdfrwt beam="2">0</pdfrwt>
<totfact> 0.30801067E+03</totfact>
</mgrwt>
</event>
<event>
 6    1  0.6377696E-002  0.3000000E+03  0.7818608E-02  0.1093470E+00
         21   -1    0    0  501  502  0.00000000000E+00  0.00000000000E+00  0.11950804286E+01  0.11950804286E+01  0.00000000000E+00 0. -1.
         13   -1    0    0    0    0 -0.00000000000E+00 -0.00000000000E+00 -0.10000000000E+04  0.10000000000E+04  0.00000000000E+00 0.  1.
    9000005    2    1    2  501    0  0.33535481726E+02  0.30037305471E+01 -0.39319353516E+03  0.39464846238E+03  0.35499069346E+01 0.  0.
         13    1    3    3    0    0  0.73805052425E+01  0.57562318098E+00 -0.10480790395E+03  0.10506902460E+03  0.00000000000E+00 0.  1.
          3    1    3    3  501    0  0.26154976483E+02  0.24281073661E+01 -0.28838563120E+03  0.28957943778E+03  0.00000000000E+00 0.  1.
         -1    1    1    2    0  502 -0.33535481726E+02 -0.30037305471E+01 -0.60561138442E+03  0.60654661805E+03  0.00000000000E+00 0. -1.
<mgrwt>
<rscale>  1 0.30000000E+03</rscale>
<asrwt>0</asrwt>
<pdfrwt beam="1">  1       21 0.43457562E-02 0.30000000E+03</pdfrwt>
<pdfrwt beam="2">0</pdfrwt>
<totfact> 0.36556215E+04</totfact>
</mgrwt>
</event>
<event>
 6    1  0.6377696E-002  0.3000000E+03  0.7818608E-02  0.1093470E+00
         21   -1    0    0  501  502  0.00000000000E+00  0.00000000000E+00  0.20277571426E+01  0.20277571426E+01  0.00000000000E+00 0. -1.
         13   -1    0    0    0    0 -0.00000000000E+00 -0.00000000000E+00 -0.10000000000E+04  0.10000000000E+04  0.00000000000E+00 0.  1.
    9000005    2    1    2  501    0  0.19651552523E+02  0.39832394667E+02 -0.57712596767E+03  0.57884412026E+03  0.36510033437E+01 0.  0.
         13    1    3    3    0    0  0.30760261299E+01  0.39749831326E+01 -0.58069868292E+02  0.58286979945E+02  0.00000000000E+00 0.  1.
          1    1    3    3  501    0  0.16575526393E+02  0.35857411535E+02 -0.51905609938E+03  0.52055714032E+03  0.00000000000E+00 0.  1.
         -3    1    1    2    0  502 -0.19651552523E+02 -0.39832394667E+02 -0.42084627519E+03  0.42318363688E+03  0.00000000000E+00 0. -1.
<mgrwt>
<rscale>  1 0.30000000E+03</rscale>
<asrwt>0</asrwt>
<pdfrwt beam="1">  1       21 0.73736779E-02 0.30000000E+03</pdfrwt>
<pdfrwt beam="2">0</pdfrwt>
<totfact> 0.14736031E+04</totfact>
</mgrwt>
</event>
<event>
 6    1  0.6377696E-002  0.3000000E+03  0.7818608E-02  0.1093470E+00
         21   -1    0    0  501  502  0.00000000000E+00  0.00000000000E+00  0.14619815120E+01  0.14619815120E+01  0.00000000000E+00 0. -1.
         13   -1    0    0    0    0 -0.00000000000E+00 -0.00000000000E+00 -0.10000000000E+04  0.10000000000E+04  0.00000000000E+00 0.  1.
    9000005    2    1    2  501    0  0.32075689029E+02  0.83058524451E+01 -0.74834358518E+03  0.74908311657E+03  0.30914458358E+01 0.  0.
         13    1    3    3    0    0  0.14985641199E+02  0.54400717366E+01 -0.35127584314E+03  0.35163742946E+03  0.00000000000E+00 0.  1.
          3    1    3    3  501    0  0.17090047830E+02  0.28657807085E+01 -0.39706774204E+03  0.39744568711E+03  0.00000000000E+00 0.  1.
         -1    1    1    2    0  502 -0.32075689029E+02 -0.83058524451E+01 -0.25019443331E+03  0.25237886495E+03  0.00000000000E+00 0. -1.
<mgrwt>
<rscale>  1 0.30000000E+03</rscale>
<asrwt>0</asrwt>
<pdfrwt beam="1">  1       21 0.53163076E-02 0.30000000E+03</pdfrwt>
<pdfrwt beam="2">0</pdfrwt>
<totfact> 0.25940191E+04</totfact>
</mgrwt>
</event>
<event>
 6    1  0.6377696E-002  0.3000000E+03  0.7818608E-02  0.1093470E+00
         21   -1    0    0  501  502  0.00000000000E+00  0.00000000000E+00  0.20253805616E+01  0.20253805616E+01  0.00000000000E+00 0. -1.
         13   -1    0    0    0    0 -0.00000000000E+00 -0.00000000000E+00 -0.10000000000E+04  0.10000000000E+04  0.00000000000E+00 0.  1.
    9000005    2    1    2  501    0 -0.27667100281E+02  0.35233655721E+02 -0.45834994979E+03  0.46054439010E+03  0.30951333899E+01 0.  0.
         13    1    3    3    0    0 -0.13761881554E+02  0.19890420038E+02 -0.24183184100E+03  0.24303838692E+03  0.00000000000E+00 0.  1.
          3    1    3    3  501    0 -0.13905218727E+02  0.15343235683E+02 -0.21651810879E+03  0.21750600319E+03  0.00000000000E+00 0.  1.
         -1    1    1    2    0  502  0.27667100281E+02 -0.35233655721E+02 -0.53962466965E+03  0.54148099046E+03  0.00000000000E+00 0. -1.
<mgrwt>
<rscale>  1 0.30000000E+03</rscale>
<asrwt>0</asrwt>
<pdfrwt beam="1">  1       21 0.73650358E-02 0.30000000E+03</pdfrwt>
<pdfrwt beam="2">0</pdfrwt>
<totfact> 0.14766276E+04</totfact>
</mgrwt>
</event>
<event>
 6    1  0.6377696E-002  0.3000000E+03  0.7818608E-02  0.1093470E+00
         21   -1    0    0  501  502  0.00000000000E+00  0.00000000000E+00  0.14874236924E+01  0.14874236924E+01  0.00000000000E+00 0. -1.
         13   -1    0    0    0    0 -0.00000000000E+00 -0.00000000000E+00 -0.10000000000E+04  0.10000000000E+04  0.00000000000E+00 0.  1.
    9000005    2    1    2  501    0  0.23093913823E+01  0.36113301632E+02 -0.33120402725E+03  0.33319841174E+03  0.39458940552E+01 0.  0.
         13    1    3    3    0    0  0.11854133769E+01  0.19908641039E+02 -0.20028462769E+03  0.20127516310E+03  0.00000000000E+00 0.  1.
          1    1    3    3  501    0  0.11239780054E+01  0.16204660593E+02 -0.13091939955E+03  0.13192324864E+03  0.00000000000E+00 0.  1.
         -1    1    1    2    0  502 -0.23093913823E+01 -0.36113301632E+02 -0.66730854906E+03  0.66828901195E+03  0.00000000000E+00 0. -1.
<mgrwt>
<rscale>  1 0.30000000E+03</rscale>
<asrwt>0</asrwt>
<pdfrwt beam="1">  1       21 0.54088248E-02 0.30000000E+03</pdfrwt>
<pdfrwt beam="2">0</pdfrwt>
<totfact> 0.25185364E+04</totfact>
</mgrwt>
</event>
<event>
 6    1  0.6377696E-002  0.3000000E+03  0.7818608E-02  0.1093470E+00
         21   -1    0    0  501  502  0.00000000000E+00  0.00000000000E+00  0.12668873295E+01  0.12668873295E+01  0.00000000000E+00 0. -1.
         13   -1    0    0    0    0 -0.00000000000E+00 -0.00000000000E+00 -0.10000000000E+04  0.10000000000E+04  0.00000000000E+00 0.  1.
    9000005    2    1    2  501    0 -0.33335453985E+01  0.32490745369E+02 -0.69625634817E+03  0.69703185627E+03  0.37074562941E+01 0.  0.
         13    1    3    3    0    0 -0.12661406004E+01  0.78859383135E+01 -0.13980532774E+03  0.14003328461E+03  0.00000000000E+00 0.  1.
          1    1    3    3  501    0 -0.20674047981E+01  0.24604807055E+02 -0.55645102043E+03  0.55699857166E+03  0.00000000000E+00 0.  1.
         -3    1    1    2    0  502  0.33335453985E+01 -0.32490745369E+02 -0.30247676450E+03  0.30423503106E+03  0.00000000000E+00 0. -1.
<mgrwt>
<rscale>  1 0.30000000E+03</rscale>
<asrwt>0</asrwt>
<pdfrwt beam="1">  1       21 0.46068727E-02 0.30000000E+03</pdfrwt>
<pdfrwt beam="2">0</pdfrwt>
<totfact> 0.33111688E+04</totfact>
</mgrwt>
</event>
<event>
 6    1  0.6377696E-002  0.3000000E+03  0.7818608E-02  0.1093470E+00
         21   -1    0    0  501  502  0.00000000000E+00  0.00000000000E+00  0.12141431095E+01  0.12141431095E+01  0.00000000000E+00 0. -1.
         13   -1    0    0    0    0 -0.00000000000E+00 -0.00000000000E+00 -0.10000000000E+04  0.10000000000E+04  0.00000000000E+00 0.  1.
    9000005    2    1    2  501    0 -0.23172399036E+02 -0.25320934342E+02 -0.58305516880E+03  0.58406894679E+03  0.22571986334E+01 0.  0.
         13    1    3    3    0    0 -0.39921677556E+01 -0.55835083489E+01 -0.11031800117E+03  0.11053132746E+03  0.00000000000E+00 0.  1.
          1    1    3    3  501    0 -0.19180231281E+02 -0.19737425993E+02 -0.47273716764E+03  0.47353761933E+03  0.00000000000E+00 0.  1.
         -1    1    1    2    0  502  0.23172399036E+02  0.25320934342E+02 -0.41573068809E+03  0.41714519632E+03  0.00000000000E+00 0. -1.
<mgrwt>
<rscale>  1 0.30000000E+03</rscale>
<asrwt>0</asrwt>
<pdfrwt beam="1">  1       21 0.44150752E-02 0.30000000E+03</pdfrwt>
<pdfrwt beam="2">0</pdfrwt>
<totfact> 0.35589577E+04</totfact>
</mgrwt>
</event>
<event>
 6    1  0.6377696E-002  0.3000000E+03  0.7818608E-02  0.1093470E+00
         21   -1    0    0  501  502  0.00000000000E+00  0.00000000000E+00  0.47913701526E+01  0.47913701526E+01  0.00000000000E+00 0. -1.
         13   -1    0    0    0    0 -0.00000000000E+00 -0.00000000000E+00 -0.10000000000E+04  0.10000000000E+04  0.00000000000E+00 0.  1.
    9000005    2    1    2  501    0 -0.28648005423E+02 -0.45106432487E+02 -0.17898013123E+03  0.18681566121E+03  0.33023372789E+01 0.  0.
         13    1    3    3    0    0 -0.17519589168E+02 -0.26663994071E+02 -0.10140159585E+03  0.10630234346E+03  0.00000000000E+00 0.  1.
          3    1    3    3  501    0 -0.11128416255E+02 -0.18442438416E+02 -0.77578535379E+02  0.80513317747E+02  0.00000000000E+00 0.  1.
         -3    1    1    2    0  502  0.28648005423E+02  0.45106432487E+02 -0.81622849861E+03  0.81797570894E+03  0.00000000000E+00 0. -1.
<mgrwt>
<rscale>  1 0.30000000E+03</rscale>
<asrwt>0</asrwt>
<pdfrwt beam="1">  1       21 0.17423201E-01 0.30000000E+03</pdfrwt>
<pdfrwt beam="2">0</pdfrwt>
<totfact> 0.31145587E+03</totfact>
</mgrwt>
</event>
<event>
 6    1  0.6377696E-002  0.3000000E+03  0.7818608E-02  0.1093470E+00
         21   -1    0    0  501  502  0.00000000000E+00  0.00000000000E+00  0.11985551904E+01  0.11985551904E+01  0.00000000000E+00 0. -1.
         13   -1    0    0    0    0 -0.00000000000E+00 -0.00000000000E+00 -0.10000000000E+04  0.10000000000E+04  0.00000000000E+00 0.  1.
    9000005    2    1    2  501    0 -0.32009059544E+02  0.31963023110E+01 -0.68277823342E+03  0.68354234735E+03  0.30378199138E+01 0.  0.
         13    1    3    3    0    0 -0.39592803183E+01 -0.45932366592E+00 -0.73939975012E+02  0.74047327998E+02  0.00000000000E+00 0.  1.
          1    1    3    3  501    0 -0.28049779225E+02  0.36556259769E+01 -0.60883825841E+03  0.60949501936E+03  0.00000000000E+00 0.  1.
         -1    1    1    2    0  502  0.32009059544E+02 -0.31963023110E+01 -0.31602321139E+03  0.31765620784E+03  0.00000000000E+00 0. -1.
<mgrwt>
<rscale>  1 0.30000000E+03</rscale>
<asrwt>0</asrwt>
<pdfrwt beam="1">  1       21 0.43583917E-02 0.30000000E+03</pdfrwt>
<pdfrwt beam="2">0</pdfrwt>
<totfact> 0.36377009E+04</totfact>
</mgrwt>
</event>
<event>
 6    1  0.6377696E-002  0.3000000E+03  0.7818608E-02  0.1093470E+00
         21   -1    0    0  501  502  0.00000000000E+00  0.00000000000E+00  0.12723362247E+01  0.12723362247E+01  0.00000000000E+00 0. -1.
         13   -1    0    0    0    0 -0.00000000000E+00 -0.00000000000E+00 -0.10000000000E+04  0.10000000000E+04  0.00000000000E+00 0.  1.
    9000005    2    1    2  501    0  0.20663317571E+02 -0.27251592086E+02 -0.63856320438E+03  0.63948778739E+03  0.34701971569E+01 0.  0.
         13    1    3    3    0    0  0.25623079601E+01 -0.17929022041E+01 -0.62794513443E+02  0.62872337629E+02  0.00000000000E+00 0.  1.
          1    1    3    3  501    0  0.18101009611E+02 -0.25458689882E+02 -0.57576869094E+03  0.57661544976E+03  0.00000000000E+00 0.  1.
         -3    1    1    2    0  502 -0.20663317571E+02  0.27251592086E+02 -0.36016445939E+03  0.36178454883E+03  0.00000000000E+00 0. -1.
<mgrwt>
<rscale>  1 0.30000000E+03</rscale>
<asrwt>0</asrwt>
<pdfrwt beam="1">  1       21 0.46266869E-02 0.30000000E+03</pdfrwt>
<pdfrwt beam="2">0</pdfrwt>
<totfact> 0.32871101E+04</totfact>
</mgrwt>
</event>
<event>
 6    1  0.6377696E-002  0.3000000E+03  0.7818608E-02  0.1093470E+00
         21   -1    0    0  501  502  0.00000000000E+00  0.00000000000E+00  0.18252430856E+01  0.18252430856E+01  0.00000000000E+00 0. -1.
         13   -1    0    0    0    0 -0.00000000000E+00 -0.00000000000E+00 -0.10000000000E+04  0.10000000000E+04  0.00000000000E+00 0.  1.
    9000005    2    1    2  501    0  0.34808922195E+02 -0.69606199187E+01 -0.77403718115E+03  0.77489405492E+03  0.81931220618E+01 0.  0.
         13    1    3    3    0    0  0.21421207222E+02 -0.58253358615E+01 -0.39987764238E+03  0.40049336016E+03  0.00000000000E+00 0.  1.
          1    1    3    3  501    0  0.13387714973E+02 -0.11352840572E+01 -0.37415953877E+03  0.37440069476E+03  0.00000000000E+00 0.  1.
         -3    1    1    2    0  502 -0.34808922195E+02  0.69606199187E+01 -0.22413757576E+03  0.22693118816E+03  0.00000000000E+00 0. -1.
<mgrwt>
<rscale>  1 0.30000000E+03</rscale>
<asrwt>0</asrwt>
<pdfrwt beam="1">  1       21 0.66372616E-02 0.30000000E+03</pdfrwt>
<pdfrwt beam="2">0</pdfrwt>
<totfact> 0.17697575E+04</totfact>
</mgrwt>
</event>
<event>
 6    1  0.6377696E-002  0.3000000E+03  0.7818608E-02  0.1093470E+00
         21   -1    0    0  501  502  0.00000000000E+00  0.00000000000E+00  0.32508302385E+01  0.32508302385E+01  0.00000000000E+00 0. -1.
         13   -1    0    0    0    0 -0.00000000000E+00 -0.00000000000E+00 -0.10000000000E+04  0.10000000000E+04  0.00000000000E+00 0.  1.
    9000005    2    1    2  501    0  0.30333843402E+02 -0.40717923780E+02 -0.27141567806E+03  0.27614233382E+03  0.31665219426E+01 0.  0.
         13    1    3    3    0    0  0.10178939910E+02 -0.15862382494E+02 -0.10488936885E+03  0.10656925304E+03  0.00000000000E+00 0.  1.
          3    1    3    3  501    0  0.20154903492E+02 -0.24855541286E+02 -0.16652630921E+03  0.16957308079E+03  0.00000000000E+00 0.  1.
         -1    1    1    2    0  502 -0.30333843402E+02  0.40717923780E+02 -0.72533349170E+03  0.72710849641E+03  0.00000000000E+00 0. -1.
<mgrwt>
<rscale>  1 0.30000000E+03</rscale>
<asrwt>0</asrwt>
<pdfrwt beam="1">  1       21 0.11821226E-01 0.30000000E+03</pdfrwt>
<pdfrwt beam="2">0</pdfrwt>
<totfact> 0.63681126E+03</totfact>
</mgrwt>
</event>
<event>
 6    1  0.6377696E-002  0.3000000E+03  0.7818608E-02  0.1093470E+00
         21   -1    0    0  501  502  0.00000000000E+00  0.00000000000E+00  0.12173354808E+01  0.12173354808E+01  0.00000000000E+00 0. -1.
         13   -1    0    0    0    0 -0.00000000000E+00 -0.00000000000E+00 -0.10000000000E+04  0.10000000000E+04  0.00000000000E+00 0.  1.
    9000005    2    1    2  501    0 -0.25226208604E+02  0.23915887195E+02 -0.52751885760E+03  0.52867325608E+03  0.33068586404E+01 0.  0.
         13    1    3    3    0    0 -0.12104107748E+02  0.11131917330E+02 -0.27436800784E+03  0.27486038772E+03  0.00000000000E+00 0.  1.
          3    1    3    3  501    0 -0.13122100856E+02  0.12783969865E+02 -0.25315084975E+03  0.25381286836E+03  0.00000000000E+00 0.  1.
         -1    1    1    2    0  502  0.25226208604E+02 -0.23915887195E+02 -0.47126380692E+03  0.47254407940E+03  0.00000000000E+00 0. -1.
<mgrwt>
<rscale>  1 0.30000000E+03</rscale>
<asrwt>0</asrwt>
<pdfrwt beam="1">  1       21 0.44266838E-02 0.30000000E+03</pdfrwt>
<pdfrwt beam="2">0</pdfrwt>
<totfact> 0.35431566E+04</totfact>
</mgrwt>
</event>
<event>
 6    1  0.6377696E-002  0.3000000E+03  0.7818608E-02  0.1093470E+00
         21   -1    0    0  501  502  0.00000000000E+00  0.00000000000E+00  0.24913734164E+01  0.24913734164E+01  0.00000000000E+00 0. -1.
         13   -1    0    0    0    0 -0.00000000000E+00 -0.00000000000E+00 -0.10000000000E+04  0.10000000000E+04  0.00000000000E+00 0.  1.
    9000005    2    1    2  501    0 -0.37339752785E+02  0.31528704691E+02 -0.40016765580E+03  0.40315461355E+03  0.33426510333E+01 0.  0.
         13    1    3    3    0    0 -0.16984207656E+02  0.12510143127E+02 -0.16519311120E+03  0.16653447385E+03  0.00000000000E+00 0.  1.
          3    1    3    3  501    0 -0.20355545129E+02  0.19018561564E+02 -0.23497454460E+03  0.23662013970E+03  0.00000000000E+00 0.  1.
         -3    1    1    2    0  502  0.37339752785E+02 -0.31528704691E+02 -0.59734097078E+03  0.59933675987E+03  0.00000000000E+00 0. -1.
<mgrwt>
<rscale>  1 0.30000000E+03</rscale>
<asrwt>0</asrwt>
<pdfrwt beam="1">  1       21 0.90595588E-02 0.30000000E+03</pdfrwt>
<pdfrwt beam="2">0</pdfrwt>
<totfact> 0.10257485E+04</totfact>
</mgrwt>
</event>
<event>
 6    1  0.6377696E-002  0.3000000E+03  0.7818608E-02  0.1093470E+00
         21   -1    0    0  501  502  0.00000000000E+00  0.00000000000E+00  0.19571861845E+01  0.19571861845E+01  0.00000000000E+00 0. -1.
         13   -1    0    0    0    0 -0.00000000000E+00 -0.00000000000E+00 -0.10000000000E+04  0.10000000000E+04  0.00000000000E+00 0.  1.
    9000005    2    1    2  501    0  0.77003759756E+01  0.30349088981E+02 -0.85075230687E+03  0.85137545945E+03  0.89622712106E+01 0.  0.
         13    1    3    3    0    0  0.64225513625E+01  0.14677068389E+02 -0.52426318659E+03  0.52450791635E+03  0.00000000000E+00 0.  1.
          3    1    3    3  501    0  0.12778246131E+01  0.15672020592E+02 -0.32648912028E+03  0.32686754310E+03  0.00000000000E+00 0.  1.
         -1    1    1    2    0  502 -0.77003759756E+01 -0.30349088981E+02 -0.14729050694E+03  0.15058172674E+03  0.00000000000E+00 0. -1.
<mgrwt>
<rscale>  1 0.30000000E+03</rscale>
<asrwt>0</asrwt>
<pdfrwt beam="1">  1       21 0.71170557E-02 0.30000000E+03</pdfrwt>
<pdfrwt beam="2">0</pdfrwt>
<totfact> 0.15675942E+04</totfact>
</mgrwt>
</event>
<event>
 6    1  0.6377696E-002  0.3000000E+03  0.7818608E-02  0.1093470E+00
         21   -1    0    0  501  502  0.00000000000E+00  0.00000000000E+00  0.84240001963E+01  0.84240001963E+01  0.00000000000E+00 0. -1.
         13   -1    0    0    0    0 -0.00000000000E+00 -0.00000000000E+00 -0.10000000000E+04  0.10000000000E+04  0.00000000000E+00 0.  1.
    9000005    2    1    2  501    0  0.41332227367E+02 -0.55199378740E+02 -0.16366740136E+03  0.17764847588E+03  0.40790048802E+01 0.  0.
         13    1    3    3    0    0  0.27502589916E+02 -0.39643016894E+02 -0.11605596293E+03  0.12568590920E+03  0.00000000000E+00 0.  1.
          3    1    3    3  501    0  0.13829637452E+02 -0.15556361846E+02 -0.47611438435E+02  0.51962566678E+02  0.00000000000E+00 0.  1.
         -1    1    1    2    0  502 -0.41332227367E+02  0.55199378740E+02 -0.82790859844E+03  0.83077552432E+03  0.00000000000E+00 0. -1.
<mgrwt>
<rscale>  1 0.30000000E+03</rscale>
<asrwt>0</asrwt>
<pdfrwt beam="1">  1       21 0.30632793E-01 0.30000000E+03</pdfrwt>
<pdfrwt beam="2">0</pdfrwt>
<totfact> 0.10427456E+03</totfact>
</mgrwt>
</event>
<event>
 6    1  0.6377696E-002  0.3000000E+03  0.7818608E-02  0.1093470E+00
         21   -1    0    0  501  502  0.00000000000E+00  0.00000000000E+00  0.27433837395E+01  0.27433837395E+01  0.00000000000E+00 0. -1.
         13   -1    0    0    0    0 -0.00000000000E+00 -0.00000000000E+00 -0.10000000000E+04  0.10000000000E+04  0.00000000000E+00 0.  1.
    9000005    2    1    2  501    0 -0.29134483912E+02 -0.38976172677E+02 -0.31528234363E+03  0.31903520862E+03  0.35423082409E+01 0.  0.
         13    1    3    3    0    0 -0.15789557807E+02 -0.18584620545E+02 -0.16363939457E+03  0.16544651617E+03  0.00000000000E+00 0.  1.
          1    1    3    3  501    0 -0.13344926105E+02 -0.20391552133E+02 -0.15164294906E+03  0.15358869246E+03  0.00000000000E+00 0.  1.
         -1    1    1    2    0  502  0.29134483912E+02  0.38976172677E+02 -0.68197427263E+03  0.68370817511E+03  0.00000000000E+00 0. -1.
<mgrwt>
<rscale>  1 0.30000000E+03</rscale>
<asrwt>0</asrwt>
<pdfrwt beam="1">  1       21 0.99759619E-02 0.30000000E+03</pdfrwt>
<pdfrwt beam="2">0</pdfrwt>
<totfact> 0.86402717E+03</totfact>
</mgrwt>
</event>
<event>
 6    1  0.6377696E-002  0.3000000E+03  0.7818608E-02  0.1093470E+00
         21   -1    0    0  501  502  0.00000000000E+00  0.00000000000E+00  0.12206729547E+01  0.12206729547E+01  0.00000000000E+00 0. -1.
         13   -1    0    0    0    0 -0.00000000000E+00 -0.00000000000E+00 -0.10000000000E+04  0.10000000000E+04  0.00000000000E+00 0.  1.
    9000005    2    1    2  501    0  0.14789507496E+02  0.29565552262E+02 -0.64001422399E+03  0.64093571548E+03  0.93559101894E+01 0.  0.
         13    1    3    3    0    0  0.13230251140E+02  0.29333920375E+02 -0.57294502496E+03  0.57384799386E+03  0.00000000000E+00 0.  1.
          1    1    3    3  501    0  0.15592563554E+01  0.23163188748E+00 -0.67069199029E+02  0.67087721619E+02  0.00000000000E+00 0.  1.
         -3    1    1    2    0  502 -0.14789507496E+02 -0.29565552262E+02 -0.35876510305E+03  0.36028495747E+03  0.00000000000E+00 0. -1.
<mgrwt>
<rscale>  1 0.30000000E+03</rscale>
<asrwt>0</asrwt>
<pdfrwt beam="1">  1       21 0.44388201E-02 0.30000000E+03</pdfrwt>
<pdfrwt beam="2">0</pdfrwt>
<totfact> 0.35267529E+04</totfact>
</mgrwt>
</event>
<event>
 6    1  0.6377696E-002  0.3000000E+03  0.7818608E-02  0.1093470E+00
         21   -1    0    0  501  502  0.00000000000E+00  0.00000000000E+00  0.17660135839E+01  0.17660135839E+01  0.00000000000E+00 0. -1.
         13   -1    0    0    0    0 -0.00000000000E+00 -0.00000000000E+00 -0.10000000000E+04  0.10000000000E+04  0.00000000000E+00 0.  1.
    9000005    2    1    2  501    0 -0.22832965016E+02 -0.26257074572E+02 -0.22031773767E+03  0.22307193481E+03  0.32255713857E+01 0.  0.
         13    1    3    3    0    0 -0.13884502068E+02 -0.15510067499E+02 -0.12169360738E+03  0.12346123144E+03  0.00000000000E+00 0.  1.
          3    1    3    3  501    0 -0.89484629473E+01 -0.10747007073E+02 -0.98624130296E+02  0.99610703375E+02  0.00000000000E+00 0.  1.
         -1    1    1    2    0  502  0.22832965016E+02  0.26257074572E+02 -0.77791624874E+03  0.77869407877E+03  0.00000000000E+00 0. -1.
<mgrwt>
<rscale>  1 0.30000000E+03</rscale>
<asrwt>0</asrwt>
<pdfrwt beam="1">  1       21 0.64218811E-02 0.30000000E+03</pdfrwt>
<pdfrwt beam="2">0</pdfrwt>
<totfact> 0.18738105E+04</totfact>
</mgrwt>
</event>
<event>
 6    1  0.6377696E-002  0.3000000E+03  0.7818608E-02  0.1093470E+00
         21   -1    0    0  501  502  0.00000000000E+00  0.00000000000E+00  0.21896206570E+01  0.21896206570E+01  0.00000000000E+00 0. -1.
         13   -1    0    0    0    0 -0.00000000000E+00 -0.00000000000E+00 -0.10000000000E+04  0.10000000000E+04  0.00000000000E+00 0.  1.
    9000005    2    1    2  501    0  0.18666441582E+02 -0.33213321144E+02 -0.78919648198E+03  0.79012519904E+03  0.38964401133E+01 0.  0.
         13    1    3    3    0    0  0.10993393271E+02 -0.18744784177E+02 -0.48841750743E+03  0.48890068847E+03  0.00000000000E+00 0.  1.
          3    1    3    3  501    0  0.76730483105E+01 -0.14468536968E+02 -0.30077897455E+03  0.30122451057E+03  0.00000000000E+00 0.  1.
         -1    1    1    2    0  502 -0.18666441582E+02  0.33213321144E+02 -0.20861389736E+03  0.21206442162E+03  0.00000000000E+00 0. -1.
<mgrwt>
<rscale>  1 0.30000000E+03</rscale>
<asrwt>0</asrwt>
<pdfrwt beam="1">  1       21 0.79622737E-02 0.30000000E+03</pdfrwt>
<pdfrwt beam="2">0</pdfrwt>
<totfact> 0.12880353E+04</totfact>
</mgrwt>
</event>
<event>
 6    1  0.6377696E-002  0.3000000E+03  0.7818608E-02  0.1093470E+00
         21   -1    0    0  501  502  0.00000000000E+00  0.00000000000E+00  0.12133446750E+01  0.12133446750E+01  0.00000000000E+00 0. -1.
         13   -1    0    0    0    0 -0.00000000000E+00 -0.00000000000E+00 -0.10000000000E+04  0.10000000000E+04  0.00000000000E+00 0.  1.
    9000005    2    1    2  501    0 -0.30742412097E+02 -0.32827854643E+01 -0.27280157444E+03  0.27457023403E+03  0.34988306178E+01 0.  0.
         13    1    3    3    0    0 -0.26377091191E+02 -0.33785648438E+01 -0.24294493667E+03  0.24439600630E+03  0.00000000000E+00 0.  1.
          1    1    3    3  501    0 -0.43653209066E+01  0.95779379553E-01 -0.29856637764E+02  0.30174227727E+02  0.00000000000E+00 0.  1.
         -1    1    1    2    0  502  0.30742412097E+02  0.32827854643E+01 -0.72598508089E+03  0.72664311065E+03  0.00000000000E+00 0. -1.
<mgrwt>
<rscale>  1 0.30000000E+03</rscale>
<asrwt>0</asrwt>
<pdfrwt beam="1">  1       21 0.44121718E-02 0.30000000E+03</pdfrwt>
<pdfrwt beam="2">0</pdfrwt>
<totfact> 0.35629267E+04</totfact>
</mgrwt>
</event>
<event>
 6    1  0.6377696E-002  0.3000000E+03  0.7818608E-02  0.1093470E+00
         21   -1    0    0  501  502  0.00000000000E+00  0.00000000000E+00  0.20328856140E+01  0.20328856140E+01  0.00000000000E+00 0. -1.
         13   -1    0    0    0    0 -0.00000000000E+00 -0.00000000000E+00 -0.10000000000E+04  0.10000000000E+04  0.00000000000E+00 0.  1.
    9000005    2    1    2  501    0 -0.38411128585E+02 -0.21037045453E+02 -0.61454985772E+03  0.61612257895E+03  0.41871932553E+01 0.  0.
         13    1    3    3    0    0 -0.19447617908E+01 -0.10875492810E+01 -0.20641760004E+02  0.20761674256E+02  0.00000000000E+00 0.  1.
          1    1    3    3  501    0 -0.36466366794E+02 -0.19949496172E+02 -0.59390809771E+03  0.59536090469E+03  0.00000000000E+00 0.  1.
         -1    1    1    2    0  502  0.38411128585E+02  0.21037045453E+02 -0.38341725667E+03  0.38591030667E+03  0.00000000000E+00 0. -1.
<mgrwt>
<rscale>  1 0.30000000E+03</rscale>
<asrwt>0</asrwt>
<pdfrwt beam="1">  1       21 0.73923269E-02 0.30000000E+03</pdfrwt>
<pdfrwt beam="2">0</pdfrwt>
<totfact> 0.14671084E+04</totfact>
</mgrwt>
</event>
<event>
 6    1  0.6377696E-002  0.3000000E+03  0.7818608E-02  0.1093470E+00
         21   -1    0    0  501  502  0.00000000000E+00  0.00000000000E+00  0.16633527689E+01  0.16633527689E+01  0.00000000000E+00 0. -1.
         13   -1    0    0    0    0 -0.00000000000E+00 -0.00000000000E+00 -0.10000000000E+04  0.10000000000E+04  0.00000000000E+00 0.  1.
    9000005    2    1    2  501    0  0.31132969449E+02  0.59669472114E+01 -0.18569546020E+03  0.18840412897E+03  0.29061358773E+01 0.  0.
         13    1    3    3    0    0  0.26985318245E+02  0.55852473101E+01 -0.15553071609E+03  0.15795317672E+03  0.00000000000E+00 0.  1.
          3    1    3    3  501    0  0.41476512042E+01  0.38169990131E+00 -0.30164744115E+02  0.30450952249E+02  0.00000000000E+00 0.  1.
         -3    1    1    2    0  502 -0.31132969449E+02 -0.59669472114E+01 -0.81264118703E+03  0.81325922380E+03  0.00000000000E+00 0. -1.
<mgrwt>
<rscale>  1 0.30000000E+03</rscale>
<asrwt>0</asrwt>
<pdfrwt beam="1">  1       21 0.60485683E-02 0.30000000E+03</pdfrwt>
<pdfrwt beam="2">0</pdfrwt>
<totfact> 0.20780660E+04</totfact>
</mgrwt>
</event>
<event>
 6    1  0.6377696E-002  0.3000000E+03  0.7818608E-02  0.1093470E+00
         21   -1    0    0  501  502  0.00000000000E+00  0.00000000000E+00  0.13144404523E+01  0.13144404523E+01  0.00000000000E+00 0. -1.
         13   -1    0    0    0    0 -0.00000000000E+00 -0.00000000000E+00 -0.10000000000E+04  0.10000000000E+04  0.00000000000E+00 0.  1.
    9000005    2    1    2  501    0 -0.21924023908E+02 -0.27892719138E+02 -0.40954037575E+03  0.41110200904E+03  0.47828714817E+01 0.  0.
         13    1    3    3    0    0 -0.17604308156E+02 -0.20370670521E+02 -0.32728225161E+03  0.32838780139E+03  0.00000000000E+00 0.  1.
          3    1    3    3  501    0 -0.43197157520E+01 -0.75220486170E+01 -0.82258124137E+02  0.82714207643E+02  0.00000000000E+00 0.  1.
         -1    1    1    2    0  502  0.21924023908E+02  0.27892719138E+02 -0.58914518380E+03  0.59021243142E+03  0.00000000000E+00 0. -1.
<mgrwt>
<rscale>  1 0.30000000E+03</rscale>
<asrwt>0</asrwt>
<pdfrwt beam="1">  1       21 0.47797935E-02 0.30000000E+03</pdfrwt>
<pdfrwt beam="2">0</pdfrwt>
<totfact> 0.31100977E+04</totfact>
</mgrwt>
</event>
<event>
 6    1  0.6377696E-002  0.3000000E+03  0.7818608E-02  0.1093470E+00
         21   -1    0    0  501  502  0.00000000000E+00  0.00000000000E+00  0.13447217878E+01  0.13447217878E+01  0.00000000000E+00 0. -1.
         13   -1    0    0    0    0 -0.00000000000E+00 -0.00000000000E+00 -0.10000000000E+04  0.10000000000E+04  0.00000000000E+00 0.  1.
    9000005    2    1    2  501    0  0.33542896010E+02  0.14586190097E+02 -0.49773860567E+03  0.49909439014E+03  0.36888854714E+01 0.  0.
         13    1    3    3    0    0  0.14648888408E+02  0.47483427580E+01 -0.19472744004E+03  0.19533538490E+03  0.00000000000E+00 0.  1.
          3    1    3    3  501    0  0.18894007602E+02  0.98378473389E+01 -0.30301116564E+03  0.30375900524E+03  0.00000000000E+00 0.  1.
         -1    1    1    2    0  502 -0.33542896010E+02 -0.14586190097E+02 -0.50091667254E+03  0.50225033165E+03  0.00000000000E+00 0. -1.
<mgrwt>
<rscale>  1 0.30000000E+03</rscale>
<asrwt>0</asrwt>
<pdfrwt beam="1">  1       21 0.48899077E-02 0.30000000E+03</pdfrwt>
<pdfrwt beam="2">0</pdfrwt>
<totfact> 0.29918340E+04</totfact>
</mgrwt>
</event>
<event>
 6    1  0.6377696E-002  0.3000000E+03  0.7818608E-02  0.1093470E+00
         21   -1    0    0  501  502  0.00000000000E+00  0.00000000000E+00  0.16117422526E+01  0.16117422526E+01  0.00000000000E+00 0. -1.
         13   -1    0    0    0    0 -0.00000000000E+00 -0.00000000000E+00 -0.10000000000E+04  0.10000000000E+04  0.00000000000E+00 0.  1.
    9000005    2    1    2  501    0  0.12730277599E+01  0.33501022913E+02 -0.77272177389E+03  0.77346858309E+03  0.55470756771E+01 0.  0.
         13    1    3    3    0    0 -0.72709550243E+00  0.29322896207E+02 -0.65867722295E+03  0.65932999700E+03  0.00000000000E+00 0.  1.
          3    1    3    3  501    0  0.20001232623E+01  0.41781267053E+01 -0.11404455094E+03  0.11413858609E+03  0.00000000000E+00 0.  1.
         -1    1    1    2    0  502 -0.12730277599E+01 -0.33501022913E+02 -0.22566648385E+03  0.22814315916E+03  0.00000000000E+00 0. -1.
<mgrwt>
<rscale>  1 0.30000000E+03</rscale>
<asrwt>0</asrwt>
<pdfrwt beam="1">  1       21 0.58608933E-02 0.30000000E+03</pdfrwt>
<pdfrwt beam="2">0</pdfrwt>
<totfact> 0.21941217E+04</totfact>
</mgrwt>
</event>
<event>
 6    1  0.6377696E-002  0.3000000E+03  0.7818608E-02  0.1093470E+00
         21   -1    0    0  501  502  0.00000000000E+00  0.00000000000E+00  0.34915451644E+01  0.34915451644E+01  0.00000000000E+00 0. -1.
         13   -1    0    0    0    0 -0.00000000000E+00 -0.00000000000E+00 -0.10000000000E+04  0.10000000000E+04  0.00000000000E+00 0.  1.
    9000005    2    1    2  501    0  0.12393484985E+02  0.56442350562E+02 -0.60131150844E+03  0.60409204110E+03  0.35109158510E+01 0.  0.
         13    1    3    3    0    0  0.14803149153E+01  0.96721769662E+01 -0.90256266117E+02  0.90785108431E+02  0.00000000000E+00 0.  1.
          1    1    3    3  501    0  0.10913170070E+02  0.46770173596E+02 -0.51105524232E+03  0.51330693267E+03  0.00000000000E+00 0.  1.
         -1    1    1    2    0  502 -0.12393484985E+02 -0.56442350562E+02 -0.39519694640E+03  0.39939950407E+03  0.00000000000E+00 0. -1.
<mgrwt>
<rscale>  1 0.30000000E+03</rscale>
<asrwt>0</asrwt>
<pdfrwt beam="1">  1       21 0.12696555E-01 0.30000000E+03</pdfrwt>
<pdfrwt beam="2">0</pdfrwt>
<totfact> 0.55924137E+03</totfact>
</mgrwt>
</event>
<event>
 6    1  0.6377696E-002  0.3000000E+03  0.7818608E-02  0.1093470E+00
         21   -1    0    0  501  502  0.00000000000E+00  0.00000000000E+00  0.10103232136E+01  0.10103232136E+01  0.00000000000E+00 0. -1.
         13   -1    0    0    0    0 -0.00000000000E+00 -0.00000000000E+00 -0.10000000000E+04  0.10000000000E+04  0.00000000000E+00 0.  1.
    9000005    2    1    2  501    0  0.30949022289E+02 -0.40882191869E+01 -0.58773505037E+03  0.58857254212E+03  0.32545965037E+01 0.  0.
         13    1    3    3    0    0  0.10869549972E+02 -0.52473917856E+00 -0.22876772482E+03  0.22902640544E+03  0.00000000000E+00 0.  1.
          3    1    3    3  501    0  0.20079472316E+02 -0.35634800084E+01 -0.35896732554E+03  0.35954613669E+03  0.00000000000E+00 0.  1.
         -1    1    1    2    0  502 -0.30949022289E+02  0.40882191869E+01 -0.41125462642E+03  0.41243778109E+03  0.00000000000E+00 0. -1.
<mgrwt>
<rscale>  1 0.30000000E+03</rscale>
<asrwt>0</asrwt>
<pdfrwt beam="1">  1       21 0.36739103E-02 0.30000000E+03</pdfrwt>
<pdfrwt beam="2">0</pdfrwt>
<totfact> 0.48508100E+04</totfact>
</mgrwt>
</event>
<event>
 6    1  0.6377696E-002  0.3000000E+03  0.7818608E-02  0.1093470E+00
         21   -1    0    0  501  502  0.00000000000E+00  0.00000000000E+00  0.22039236457E+01  0.22039236457E+01  0.00000000000E+00 0. -1.
         13   -1    0    0    0    0 -0.00000000000E+00 -0.00000000000E+00 -0.10000000000E+04  0.10000000000E+04  0.00000000000E+00 0.  1.
    9000005    2    1    2  501    0 -0.19776441800E+02 -0.27091174307E+02 -0.84927364131E+03  0.84994114721E+03  0.30325774008E+01 0.  0.
         13    1    3    3    0    0 -0.40419650191E+01 -0.71323018342E+01 -0.23069982698E+03  0.23084544046E+03  0.00000000000E+00 0.  1.
          3    1    3    3  501    0 -0.15734476780E+02 -0.19958872472E+02 -0.61857381433E+03  0.61909570676E+03  0.00000000000E+00 0.  1.
         -1    1    1    2    0  502  0.19776441800E+02  0.27091174307E+02 -0.14852243504E+03  0.15226277643E+03  0.00000000000E+00 0. -1.
<mgrwt>
<rscale>  1 0.30000000E+03</rscale>
<asrwt>0</asrwt>
<pdfrwt beam="1">  1       21 0.80142847E-02 0.30000000E+03</pdfrwt>
<pdfrwt beam="2">0</pdfrwt>
<totfact> 0.12733902E+04</totfact>
</mgrwt>
</event>
<event>
 6    1  0.6377696E-002  0.3000000E+03  0.7818608E-02  0.1093470E+00
         21   -1    0    0  501  502  0.00000000000E+00  0.00000000000E+00  0.11038110175E+01  0.11038110175E+01  0.00000000000E+00 0. -1.
         13   -1    0    0    0    0 -0.00000000000E+00 -0.00000000000E+00 -0.10000000000E+04  0.10000000000E+04  0.00000000000E+00 0.  1.
    9000005    2    1    2  501    0  0.20053484964E+01  0.30331793865E+02 -0.30141101254E+03  0.30295654109E+03  0.31667287321E+01 0.  0.
         13    1    3    3    0    0  0.11972631618E+01  0.22272196598E+02 -0.20675832297E+03  0.20795790030E+03  0.00000000000E+00 0.  1.
          3    1    3    3  501    0  0.80808533459E+00  0.80595972669E+01 -0.94652689570E+02  0.94998640795E+02  0.00000000000E+00 0.  1.
         -1    1    1    2    0  502 -0.20053484964E+01 -0.30331793865E+02 -0.69748517644E+03  0.69814726992E+03  0.00000000000E+00 0. -1.
<mgrwt>
<rscale>  1 0.30000000E+03</rscale>
<asrwt>0</asrwt>
<pdfrwt beam="1">  1       21 0.40138667E-02 0.30000000E+03</pdfrwt>
<pdfrwt beam="2">0</pdfrwt>
<totfact> 0.41802967E+04</totfact>
</mgrwt>
</event>
<event>
 6    1  0.6377696E-002  0.3000000E+03  0.7818608E-02  0.1093470E+00
         21   -1    0    0  501  502  0.00000000000E+00  0.00000000000E+00  0.95891527561E+00  0.95891527561E+00  0.00000000000E+00 0. -1.
         13   -1    0    0    0    0 -0.00000000000E+00 -0.00000000000E+00 -0.10000000000E+04  0.10000000000E+04  0.00000000000E+00 0.  1.
    9000005    2    1    2  501    0  0.26700903091E+02  0.14674896314E+02 -0.41981071325E+03  0.42092778331E+03  0.32974228400E+01 0.  0.
         13    1    3    3    0    0  0.18804635863E+02  0.90408971263E+01 -0.30037739741E+03  0.30110120064E+03  0.00000000000E+00 0.  1.
          3    1    3    3  501    0  0.78962672287E+01  0.56339991880E+01 -0.11943331584E+03  0.11982658267E+03  0.00000000000E+00 0.  1.
         -1    1    1    2    0  502 -0.26700903091E+02 -0.14674896314E+02 -0.57923037148E+03  0.58003113197E+03  0.00000000000E+00 0. -1.
<mgrwt>
<rscale>  1 0.30000000E+03</rscale>
<asrwt>0</asrwt>
<pdfrwt beam="1">  1       21 0.34869720E-02 0.30000000E+03</pdfrwt>
<pdfrwt beam="2">0</pdfrwt>
<totfact> 0.52946355E+04</totfact>
</mgrwt>
</event>
<event>
 6    1  0.6377696E-002  0.3000000E+03  0.7818608E-02  0.1093470E+00
         21   -1    0    0  501  502  0.00000000000E+00  0.00000000000E+00  0.10816636324E+01  0.10816636324E+01  0.00000000000E+00 0. -1.
         13   -1    0    0    0    0 -0.00000000000E+00 -0.00000000000E+00 -0.10000000000E+04  0.10000000000E+04  0.00000000000E+00 0.  1.
    9000005    2    1    2  501    0  0.31047227388E+02 -0.39656864880E+01 -0.64961390681E+03  0.65037774078E+03  0.36497642649E+01 0.  0.
         13    1    3    3    0    0  0.12757724050E+02 -0.12325435034E+00 -0.24338609724E+03  0.24372026392E+03  0.00000000000E+00 0.  1.
          3    1    3    3  501    0  0.18289503338E+02 -0.38424321377E+01 -0.40622780957E+03  0.40665747686E+03  0.00000000000E+00 0.  1.
         -1    1    1    2    0  502 -0.31047227388E+02  0.39656864880E+01 -0.34930442956E+03  0.35070392286E+03  0.00000000000E+00 0. -1.
<mgrwt>
<rscale>  1 0.30000000E+03</rscale>
<asrwt>0</asrwt>
<pdfrwt beam="1">  1       21 0.39333306E-02 0.30000000E+03</pdfrwt>
<pdfrwt beam="2">0</pdfrwt>
<totfact> 0.43253965E+04</totfact>
</mgrwt>
</event>
<event>
 6    1  0.6377696E-002  0.3000000E+03  0.7818608E-02  0.1093470E+00
         21   -1    0    0  501  502  0.00000000000E+00  0.00000000000E+00  0.38741216706E+01  0.38741216706E+01  0.00000000000E+00 0. -1.
         13   -1    0    0    0    0 -0.00000000000E+00 -0.00000000000E+00 -0.10000000000E+04  0.10000000000E+04  0.00000000000E+00 0.  1.
    9000005    2    1    2  501    0 -0.58411050361E+02 -0.19455196569E+02 -0.42573389310E+03  0.43016916937E+03  0.24106153707E+01 0.  0.
         13    1    3    3    0    0 -0.28112997723E+02 -0.10630394425E+02 -0.20828968779E+03  0.21044700037E+03  0.00000000000E+00 0.  1.
          1    1    3    3  501    0 -0.30298052638E+02 -0.88248021446E+01 -0.21744420531E+03  0.21972216900E+03  0.00000000000E+00 0.  1.
         -1    1    1    2    0  502  0.58411050361E+02  0.19455196569E+02 -0.57039198523E+03  0.57370495230E+03  0.00000000000E+00 0. -1.
<mgrwt>
<rscale>  1 0.30000000E+03</rscale>
<asrwt>0</asrwt>
<pdfrwt beam="1">  1       21 0.14087745E-01 0.30000000E+03</pdfrwt>
<pdfrwt beam="2">0</pdfrwt>
<totfact> 0.46232819E+03</totfact>
</mgrwt>
</event>
<event>
 6    1  0.6377696E-002  0.3000000E+03  0.7818608E-02  0.1093470E+00
         21   -1    0    0  501  502  0.00000000000E+00  0.00000000000E+00  0.14515210534E+01  0.14515210534E+01  0.00000000000E+00 0. -1.
         13   -1    0    0    0    0 -0.00000000000E+00 -0.00000000000E+00 -0.10000000000E+04  0.10000000000E+04  0.00000000000E+00 0.  1.
    9000005    2    1    2  501    0  0.36771732167E+02  0.41591513664E+01 -0.38446123546E+03  0.38625025200E+03  0.30588846528E+01 0.  0.
         13    1    3    3    0    0  0.23269412624E+02  0.33927871377E+01 -0.23067651736E+03  0.23187201692E+03  0.00000000000E+00 0.  1.
          3    1    3    3  501    0  0.13502319542E+02  0.76636422871E+00 -0.15378471810E+03  0.15437823508E+03  0.00000000000E+00 0.  1.
         -1    1    1    2    0  502 -0.36771732167E+02 -0.41591513664E+01 -0.61408724349E+03  0.61520126905E+03  0.00000000000E+00 0. -1.
<mgrwt>
<rscale>  1 0.30000000E+03</rscale>
<asrwt>0</asrwt>
<pdfrwt beam="1">  1       21 0.52782695E-02 0.30000000E+03</pdfrwt>
<pdfrwt beam="2">0</pdfrwt>
<totfact> 0.26260725E+04</totfact>
</mgrwt>
</event>
<event>
 6    1  0.6377696E-002  0.3000000E+03  0.7818608E-02  0.1093470E+00
         21   -1    0    0  501  502  0.00000000000E+00  0.00000000000E+00  0.14342174972E+01  0.14342174972E+01  0.00000000000E+00 0. -1.
         13   -1    0    0    0    0 -0.00000000000E+00 -0.00000000000E+00 -0.10000000000E+04  0.10000000000E+04  0.00000000000E+00 0.  1.
    9000005    2    1    2  501    0 -0.18002261719E+02  0.25510198720E+02 -0.78195429203E+03  0.78258406449E+03  0.32328789445E+01 0.  0.
         13    1    3    3    0    0 -0.12487175773E+02  0.19070282814E+02 -0.59854062600E+03  0.59897452886E+03  0.00000000000E+00 0.  1.
          1    1    3    3  501    0 -0.55150859461E+01  0.64399159055E+01 -0.18341366603E+03  0.18360953563E+03  0.00000000000E+00 0.  1.
         -1    1    1    2    0  502  0.18002261719E+02 -0.25510198720E+02 -0.21661149048E+03  0.21885015301E+03  0.00000000000E+00 0. -1.
<mgrwt>
<rscale>  1 0.30000000E+03</rscale>
<asrwt>0</asrwt>
<pdfrwt beam="1">  1       21 0.52153474E-02 0.30000000E+03</pdfrwt>
<pdfrwt beam="2">0</pdfrwt>
<totfact> 0.26804581E+04</totfact>
</mgrwt>
</event>
<event>
 6    1  0.6377696E-002  0.3000000E+03  0.7818608E-02  0.1093470E+00
         21   -1    0    0  501  502  0.00000000000E+00  0.00000000000E+00  0.13308957560E+01  0.13308957560E+01  0.00000000000E+00 0. -1.
         13   -1    0    0    0    0 -0.00000000000E+00 -0.00000000000E+00 -0.10000000000E+04  0.10000000000E+04  0.00000000000E+00 0.  1.
    9000005    2    1    2  501    0 -0.15110560400E+02 -0.27305387664E+02 -0.24837126559E+03  0.25038431981E+03  0.54871492208E+01 0.  0.
         13    1    3    3    0    0 -0.57619437663E+01 -0.57902675131E+01 -0.57672646465E+02  0.58248273314E+02  0.00000000000E+00 0.  1.
          3    1    3    3  501    0 -0.93486166337E+01 -0.21515120151E+02 -0.19069861912E+03  0.19213604650E+03  0.00000000000E+00 0.  1.
         -3    1    1    2    0  502  0.15110560400E+02  0.27305387664E+02 -0.75029783866E+03  0.75094657595E+03  0.00000000000E+00 0. -1.
<mgrwt>
<rscale>  1 0.30000000E+03</rscale>
<asrwt>0</asrwt>
<pdfrwt beam="1">  1       21 0.48396311E-02 0.30000000E+03</pdfrwt>
<pdfrwt beam="2">0</pdfrwt>
<totfact> 0.30449438E+04</totfact>
</mgrwt>
</event>
<event>
 6    1  0.6377696E-002  0.3000000E+03  0.7818608E-02  0.1093470E+00
         21   -1    0    0  501  502  0.00000000000E+00  0.00000000000E+00  0.32613934728E+01  0.32613934728E+01  0.00000000000E+00 0. -1.
         13   -1    0    0    0    0 -0.00000000000E+00 -0.00000000000E+00 -0.10000000000E+04  0.10000000000E+04  0.00000000000E+00 0.  1.
    9000005    2    1    2  501    0 -0.50649848076E+02  0.10358406367E+02 -0.71108120433E+03  0.71296352038E+03  0.27925879536E+01 0.  0.
         13    1    3    3    0    0 -0.44726281980E+02  0.82171596972E+01 -0.62436415308E+03  0.62601801705E+03  0.00000000000E+00 0.  1.
          1    1    3    3  501    0 -0.59235660964E+01  0.21412466697E+01 -0.86717051248E+02  0.86945503333E+02  0.00000000000E+00 0.  1.
         -3    1    1    2    0  502  0.50649848076E+02 -0.10358406367E+02 -0.28565740220E+03  0.29029787309E+03  0.00000000000E+00 0. -1.
<mgrwt>
<rscale>  1 0.30000000E+03</rscale>
<asrwt>0</asrwt>
<pdfrwt beam="1">  1       21 0.11859638E-01 0.30000000E+03</pdfrwt>
<pdfrwt beam="2">0</pdfrwt>
<totfact> 0.63307850E+03</totfact>
</mgrwt>
</event>
<event>
 6    1  0.6377696E-002  0.3000000E+03  0.7818608E-02  0.1093470E+00
         21   -1    0    0  501  502  0.00000000000E+00  0.00000000000E+00  0.15414119149E+01  0.15414119149E+01  0.00000000000E+00 0. -1.
         13   -1    0    0    0    0 -0.00000000000E+00 -0.00000000000E+00 -0.10000000000E+04  0.10000000000E+04  0.00000000000E+00 0.  1.
    9000005    2    1    2  501    0  0.17314956144E+02 -0.35165908576E+02 -0.50247611717E+03  0.50401245770E+03  0.31401199146E+01 0.  0.
         13    1    3    3    0    0  0.12727387493E+02 -0.23285942745E+02 -0.35132102392E+03  0.35232184628E+03  0.00000000000E+00 0.  1.
          1    1    3    3  501    0  0.45875686503E+01 -0.11879965831E+02 -0.15115509325E+03  0.15169061141E+03  0.00000000000E+00 0.  1.
         -1    1    1    2    0  502 -0.17314956144E+02  0.35165908576E+02 -0.49598247091E+03  0.49752895422E+03  0.00000000000E+00 0. -1.
<mgrwt>
<rscale>  1 0.30000000E+03</rscale>
<asrwt>0</asrwt>
<pdfrwt beam="1">  1       21 0.56051461E-02 0.30000000E+03</pdfrwt>
<pdfrwt beam="2">0</pdfrwt>
<totfact> 0.23691665E+04</totfact>
</mgrwt>
</event>
<event>
 6    1  0.6377696E-002  0.3000000E+03  0.7818608E-02  0.1093470E+00
         21   -1    0    0  501  502  0.00000000000E+00  0.00000000000E+00  0.99345027256E+00  0.99345027256E+00  0.00000000000E+00 0. -1.
         13   -1    0    0    0    0 -0.00000000000E+00 -0.00000000000E+00 -0.10000000000E+04  0.10000000000E+04  0.00000000000E+00 0.  1.
    9000005    2    1    2  501    0 -0.12805190658E+02  0.28482079169E+02 -0.44972169280E+03  0.45082160822E+03  0.39140411859E+01 0.  0.
         13    1    3    3    0    0 -0.11809628976E+02  0.24699279842E+02 -0.37533908697E+03  0.37633622197E+03  0.00000000000E+00 0.  1.
          1    1    3    3  501    0 -0.99556168247E+00  0.37827993269E+01 -0.74382605837E+02  0.74485386251E+02  0.00000000000E+00 0.  1.
         -3    1    1    2    0  502  0.12805190658E+02 -0.28482079169E+02 -0.54928485692E+03  0.55017184205E+03  0.00000000000E+00 0. -1.
<mgrwt>
<rscale>  1 0.30000000E+03</rscale>
<asrwt>0</asrwt>
<pdfrwt beam="1">  1       21 0.36125541E-02 0.30000000E+03</pdfrwt>
<pdfrwt beam="2">0</pdfrwt>
<totfact> 0.49898150E+04</totfact>
</mgrwt>
</event>
<event>
 6    1  0.6377696E-002  0.3000000E+03  0.7818608E-02  0.1093470E+00
         21   -1    0    0  501  502  0.00000000000E+00  0.00000000000E+00  0.12311637936E+01  0.12311637936E+01  0.00000000000E+00 0. -1.
         13   -1    0    0    0    0 -0.00000000000E+00 -0.00000000000E+00 -0.10000000000E+04  0.10000000000E+04  0.00000000000E+00 0.  1.
    9000005    2    1    2  501    0 -0.32776515981E+02 -0.12148546842E+02 -0.46929929204E+03  0.47060899559E+03  0.30189451942E+01 0.  0.
         13    1    3    3    0    0 -0.16141175896E+02 -0.47111769933E+01 -0.21285845401E+03  0.21352155440E+03  0.00000000000E+00 0.  1.
          1    1    3    3  501    0 -0.16635340085E+02 -0.74373698485E+01 -0.25644083803E+03  0.25708744119E+03  0.00000000000E+00 0.  1.
         -1    1    1    2    0  502  0.32776515981E+02  0.12148546842E+02 -0.52946954417E+03  0.53062216821E+03  0.00000000000E+00 0. -1.
<mgrwt>
<rscale>  1 0.30000000E+03</rscale>
<asrwt>0</asrwt>
<pdfrwt beam="1">  1       21 0.44769687E-02 0.30000000E+03</pdfrwt>
<pdfrwt beam="2">0</pdfrwt>
<totfact> 0.34759470E+04</totfact>
</mgrwt>
</event>
<event>
 6    1  0.6377696E-002  0.3000000E+03  0.7818608E-02  0.1093470E+00
         21   -1    0    0  501  502  0.00000000000E+00  0.00000000000E+00  0.21606579257E+01  0.21606579257E+01  0.00000000000E+00 0. -1.
         13   -1    0    0    0    0 -0.00000000000E+00 -0.00000000000E+00 -0.10000000000E+04  0.10000000000E+04  0.00000000000E+00 0.  1.
    9000005    2    1    2  501    0  0.11322790002E+02 -0.43461178081E+02 -0.37306173566E+03  0.37577089344E+03  0.34097170930E+01 0.  0.
         13    1    3    3    0    0  0.46901173253E+01 -0.14229490533E+02 -0.13536923965E+03  0.13619583930E+03  0.00000000000E+00 0.  1.
          1    1    3    3  501    0  0.66326726770E+01 -0.29231687548E+02 -0.23769249601E+03  0.23957505413E+03  0.00000000000E+00 0.  1.
         -1    1    1    2    0  502 -0.11322790002E+02  0.43461178081E+02 -0.62477760642E+03  0.62638976449E+03  0.00000000000E+00 0. -1.
<mgrwt>
<rscale>  1 0.30000000E+03</rscale>
<asrwt>0</asrwt>
<pdfrwt beam="1">  1       21 0.78569545E-02 0.30000000E+03</pdfrwt>
<pdfrwt beam="2">0</pdfrwt>
<totfact> 0.13184958E+04</totfact>
</mgrwt>
</event>
<event>
 6    1  0.6377696E-002  0.3000000E+03  0.7818608E-02  0.1093470E+00
         21   -1    0    0  501  502  0.00000000000E+00  0.00000000000E+00  0.14886513998E+01  0.14886513998E+01  0.00000000000E+00 0. -1.
         13   -1    0    0    0    0 -0.00000000000E+00 -0.00000000000E+00 -0.10000000000E+04  0.10000000000E+04  0.00000000000E+00 0.  1.
    9000005    2    1    2  501    0  0.19475531295E+02 -0.30141077132E+02 -0.68184358211E+03  0.68279404024E+03  0.30413927044E+01 0.  0.
         13    1    3    3    0    0  0.19357579032E+02 -0.30090926537E+02 -0.68112573547E+03  0.68206484094E+03  0.00000000000E+00 0.  1.
          3    1    3    3  501    0  0.11795226288E+00 -0.50150594831E-01 -0.71784664651E+00  0.72919930498E+00  0.00000000000E+00 0.  1.
         -1    1    1    2    0  502 -0.19475531295E+02  0.30141077132E+02 -0.31666776649E+03  0.31869461116E+03  0.00000000000E+00 0. -1.
<mgrwt>
<rscale>  1 0.30000000E+03</rscale>
<asrwt>0</asrwt>
<pdfrwt beam="1">  1       21 0.54132892E-02 0.30000000E+03</pdfrwt>
<pdfrwt beam="2">0</pdfrwt>
<totfact> 0.25149801E+04</totfact>
</mgrwt>
</event>
<event>
 6    1  0.6377696E-002  0.3000000E+03  0.7818608E-02  0.1093470E+00
         21   -1    0    0  501  502  0.00000000000E+00  0.00000000000E+00  0.23615068009E+01  0.23615068009E+01  0.00000000000E+00 0. -1.
         13   -1    0    0    0    0 -0.00000000000E+00 -0.00000000000E+00 -0.10000000000E+04  0.10000000000E+04  0.00000000000E+00 0.  1.
    9000005    2    1    2  501    0 -0.20957719039E+02 -0.43403617730E+02 -0.55891218043E+03  0.56099558432E+03  0.31812205390E+01 0.  0.
         13    1    3    3    0    0 -0.16659706515E+02 -0.31591883294E+02 -0.40648870825E+03  0.40805473020E+03  0.00000000000E+00 0.  1.
          1    1    3    3  501    0 -0.42980125240E+01 -0.11811734436E+02 -0.15242347219E+03  0.15294085411E+03  0.00000000000E+00 0.  1.
         -3    1    1    2    0  502  0.20957719039E+02  0.43403617730E+02 -0.43872631276E+03  0.44136592248E+03  0.00000000000E+00 0. -1.
<mgrwt>
<rscale>  1 0.30000000E+03</rscale>
<asrwt>0</asrwt>
<pdfrwt beam="1">  1       21 0.85873156E-02 0.30000000E+03</pdfrwt>
<pdfrwt beam="2">0</pdfrwt>
<totfact> 0.11276126E+04</totfact>
</mgrwt>
</event>
<event>
 6    1  0.6377696E-002  0.3000000E+03  0.7818608E-02  0.1093470E+00
         21   -1    0    0  501  502  0.00000000000E+00  0.00000000000E+00  0.54800357813E+01  0.54800357813E+01  0.00000000000E+00 0. -1.
         13   -1    0    0    0    0 -0.00000000000E+00 -0.00000000000E+00 -0.10000000000E+04  0.10000000000E+04  0.00000000000E+00 0.  1.
    9000005    2    1    2  501    0  0.35540303447E+02  0.33367180709E+02 -0.11957237911E+03  0.12917543200E+03  0.35009240532E+01 0.  0.
         13    1    3    3    0    0  0.68303874730E+01  0.73281710828E+01 -0.27996935534E+02  0.29735243126E+02  0.00000000000E+00 0.  1.
          3    1    3    3  501    0  0.28709915974E+02  0.26039009627E+02 -0.91575443575E+02  0.99440188875E+02  0.00000000000E+00 0.  1.
         -1    1    1    2    0  502 -0.35540303447E+02 -0.33367180709E+02 -0.87494758511E+03  0.87630460378E+03  0.00000000000E+00 0. -1.
<mgrwt>
<rscale>  1 0.30000000E+03</rscale>
<asrwt>0</asrwt>
<pdfrwt beam="1">  1       21 0.19927445E-01 0.30000000E+03</pdfrwt>
<pdfrwt beam="2">0</pdfrwt>
<totfact> 0.24159213E+03</totfact>
</mgrwt>
</event>
<event>
 6    1  0.6377696E-002  0.3000000E+03  0.7818608E-02  0.1093470E+00
         21   -1    0    0  501  502  0.00000000000E+00  0.00000000000E+00  0.30448043316E+01  0.30448043316E+01  0.00000000000E+00 0. -1.
         13   -1    0    0    0    0 -0.00000000000E+00 -0.00000000000E+00 -0.10000000000E+04  0.10000000000E+04  0.00000000000E+00 0.  1.
    9000005    2    1    2  501    0 -0.45522167057E+02 -0.23161815718E+02 -0.68191738793E+03  0.68389349585E+03  0.95001212431E+01 0.  0.
         13    1    3    3    0    0 -0.41450168306E+02 -0.17971138105E+02 -0.57446089925E+03  0.57623467704E+03  0.00000000000E+00 0.  1.
          1    1    3    3  501    0 -0.40719987517E+01 -0.51906776129E+01 -0.10745648868E+03  0.10765881881E+03  0.00000000000E+00 0.  1.
         -3    1    1    2    0  502  0.45522167057E+02  0.23161815718E+02 -0.31503780774E+03  0.31915130849E+03  0.00000000000E+00 0. -1.
<mgrwt>
<rscale>  1 0.30000000E+03</rscale>
<asrwt>0</asrwt>
<pdfrwt beam="1">  1       21 0.11072039E-01 0.30000000E+03</pdfrwt>
<pdfrwt beam="2">0</pdfrwt>
<totfact> 0.71673286E+03</totfact>
</mgrwt>
</event>
<event>
 6    1  0.6377696E-002  0.3000000E+03  0.7818608E-02  0.1093470E+00
         21   -1    0    0  501  502  0.00000000000E+00  0.00000000000E+00  0.76412789925E+01  0.76412789925E+01  0.00000000000E+00 0. -1.
         13   -1    0    0    0    0 -0.00000000000E+00 -0.00000000000E+00 -0.10000000000E+04  0.10000000000E+04  0.00000000000E+00 0.  1.
    9000005    2    1    2  501    0  0.33714297498E+02  0.44901220796E+02 -0.11477180525E+03  0.12825992361E+03  0.11192284811E+02 0.  0.
         13    1    3    3    0    0  0.86350642686E+01  0.14663631230E+02 -0.24707505511E+02  0.30000787395E+02  0.00000000000E+00 0.  1.
          3    1    3    3  501    0  0.25079233230E+02  0.30237589567E+02 -0.90064299735E+02  0.98259136211E+02  0.00000000000E+00 0.  1.
         -3    1    1    2    0  502 -0.33714297498E+02 -0.44901220796E+02 -0.87758691576E+03  0.87938135539E+03  0.00000000000E+00 0. -1.
<mgrwt>
<rscale>  1 0.30000000E+03</rscale>
<asrwt>0</asrwt>
<pdfrwt beam="1">  1       21 0.27786528E-01 0.30000000E+03</pdfrwt>
<pdfrwt beam="2">0</pdfrwt>
<totfact> 0.12664642E+03</totfact>
</mgrwt>
</event>
<event>
 6    1  0.6377696E-002  0.3000000E+03  0.7818608E-02  0.1093470E+00
         21   -1    0    0  501  502  0.00000000000E+00  0.00000000000E+00  0.36951484589E+01  0.36951484589E+01  0.00000000000E+00 0. -1.
         13   -1    0    0    0    0 -0.00000000000E+00 -0.00000000000E+00 -0.10000000000E+04  0.10000000000E+04  0.00000000000E+00 0.  1.
    9000005    2    1    2  501    0 -0.93689596937E+01 -0.36808409820E+02 -0.88974571852E+03  0.89056917766E+03  0.48353006849E+01 0.  0.
         13    1    3    3    0    0 -0.69542880220E+01 -0.25459871027E+02 -0.56464629764E+03  0.56526277836E+03  0.00000000000E+00 0.  1.
          3    1    3    3  501    0 -0.24146716718E+01 -0.11348538793E+02 -0.32509942088E+03  0.32530639930E+03  0.00000000000E+00 0.  1.
         -1    1    1    2    0  502  0.93689596937E+01  0.36808409820E+02 -0.10655913302E+03  0.11312597080E+03  0.00000000000E+00 0. -1.
<mgrwt>
<rscale>  1 0.30000000E+03</rscale>
<asrwt>0</asrwt>
<pdfrwt beam="1">  1       21 0.13436932E-01 0.30000000E+03</pdfrwt>
<pdfrwt beam="2">0</pdfrwt>
<totfact> 0.50423519E+03</totfact>
</mgrwt>
</event>
<event>
 6    1  0.6377696E-002  0.3000000E+03  0.7818608E-02  0.1093470E+00
         21   -1    0    0  501  502  0.00000000000E+00  0.00000000000E+00  0.25018432514E+01  0.25018432514E+01  0.00000000000E+00 0. -1.
         13   -1    0    0    0    0 -0.00000000000E+00 -0.00000000000E+00 -0.10000000000E+04  0.10000000000E+04  0.00000000000E+00 0.  1.
    9000005    2    1    2  501    0  0.54799253928E+01  0.41536959001E+02 -0.22633063943E+03  0.23019705348E+03  0.31267456105E+01 0.  0.
         13    1    3    3    0    0  0.39226302840E+01  0.18723266381E+02 -0.99857041360E+02  0.10167288941E+03  0.00000000000E+00 0.  1.
          1    1    3    3  501    0  0.15572951088E+01  0.22813692621E+02 -0.12647359807E+03  0.12852416407E+03  0.00000000000E+00 0.  1.
         -1    1    1    2    0  502 -0.54799253928E+01 -0.41536959001E+02 -0.77116751732E+03  0.77230478977E+03  0.00000000000E+00 0. -1.
<mgrwt>
<rscale>  1 0.30000000E+03</rscale>
<asrwt>0</asrwt>
<pdfrwt beam="1">  1       21 0.90976310E-02 0.30000000E+03</pdfrwt>
<pdfrwt beam="2">0</pdfrwt>
<totfact> 0.10181496E+04</totfact>
</mgrwt>
</event>
<event>
 6    1  0.6377696E-002  0.3000000E+03  0.7818608E-02  0.1093470E+00
         21   -1    0    0  501  502  0.00000000000E+00  0.00000000000E+00  0.12058615909E+01  0.12058615909E+01  0.00000000000E+00 0. -1.
         13   -1    0    0    0    0 -0.00000000000E+00 -0.00000000000E+00 -0.10000000000E+04  0.10000000000E+04  0.00000000000E+00 0.  1.
    9000005    2    1    2  501    0 -0.33634573540E+02  0.80944853642E+01 -0.47137432761E+03  0.47265268351E+03  0.31618465733E+01 0.  0.
         13    1    3    3    0    0 -0.28242368742E+02  0.56962151260E+01 -0.38406160735E+03  0.38514074894E+03  0.00000000000E+00 0.  1.
          3    1    3    3  501    0 -0.53922047983E+01  0.23982702382E+01 -0.87312720260E+02  0.87511934569E+02  0.00000000000E+00 0.  1.
         -3    1    1    2    0  502  0.33634573540E+02 -0.80944853642E+01 -0.52741981080E+03  0.52855317808E+03  0.00000000000E+00 0. -1.
<mgrwt>
<rscale>  1 0.30000000E+03</rscale>
<asrwt>0</asrwt>
<pdfrwt beam="1">  1       21 0.43849605E-02 0.30000000E+03</pdfrwt>
<pdfrwt beam="2">0</pdfrwt>
<totfact> 0.36004601E+04</totfact>
</mgrwt>
</event>
<event>
 6    1  0.6377696E-002  0.3000000E+03  0.7818608E-02  0.1093470E+00
         21   -1    0    0  501  502  0.00000000000E+00  0.00000000000E+00  0.27327204452E+01  0.27327204452E+01  0.00000000000E+00 0. -1.
         13   -1    0    0    0    0 -0.00000000000E+00 -0.00000000000E+00 -0.10000000000E+04  0.10000000000E+04  0.00000000000E+00 0.  1.
    9000005    2    1    2  501    0 -0.25621516577E+02 -0.20411531242E+02 -0.88862322877E+03  0.88925751395E+03  0.73885504780E+01 0.  0.
         13    1    3    3    0    0 -0.54892498931E+01 -0.57508275115E+01 -0.30422050260E+03  0.30432436328E+03  0.00000000000E+00 0.  1.
          1    1    3    3  501    0 -0.20132266684E+02 -0.14660703730E+02 -0.58440272617E+03  0.58493315067E+03  0.00000000000E+00 0.  1.
         -3    1    1    2    0  502  0.25621516577E+02  0.20411531242E+02 -0.10864405078E+03  0.11347520650E+03  0.00000000000E+00 0. -1.
<mgrwt>
<rscale>  1 0.30000000E+03</rscale>
<asrwt>0</asrwt>
<pdfrwt beam="1">  1       21 0.99371862E-02 0.30000000E+03</pdfrwt>
<pdfrwt beam="2">0</pdfrwt>
<totfact> 0.87005919E+03</totfact>
</mgrwt>
</event>
<event>
 6    1  0.6377696E-002  0.3000000E+03  0.7818608E-02  0.1093470E+00
         21   -1    0    0  501  502  0.00000000000E+00  0.00000000000E+00  0.16037246024E+01  0.16037246024E+01  0.00000000000E+00 0. -1.
         13   -1    0    0    0    0 -0.00000000000E+00 -0.00000000000E+00 -0.10000000000E+04  0.10000000000E+04  0.00000000000E+00 0.  1.
    9000005    2    1    2  501    0  0.28947246110E+02  0.27178183949E+02 -0.46291393294E+03  0.46465127249E+03  0.59075359700E+01 0.  0.
         13    1    3    3    0    0  0.92577617549E+01  0.12341088623E+02 -0.19090414861E+03  0.19152650620E+03  0.00000000000E+00 0.  1.
          3    1    3    3  501    0  0.19689484355E+02  0.14837095326E+02 -0.27200978432E+03  0.27312476629E+03  0.00000000000E+00 0.  1.
         -1    1    1    2    0  502 -0.28947246110E+02 -0.27178183949E+02 -0.53548234246E+03  0.53695245211E+03  0.00000000000E+00 0. -1.
<mgrwt>
<rscale>  1 0.30000000E+03</rscale>
<asrwt>0</asrwt>
<pdfrwt beam="1">  1       21 0.58317381E-02 0.30000000E+03</pdfrwt>
<pdfrwt beam="2">0</pdfrwt>
<totfact> 0.22130559E+04</totfact>
</mgrwt>
</event>
<event>
 6    1  0.6377696E-002  0.3000000E+03  0.7818608E-02  0.1093470E+00
         21   -1    0    0  501  502  0.00000000000E+00  0.00000000000E+00  0.98439808728E+00  0.98439808728E+00  0.00000000000E+00 0. -1.
         13   -1    0    0    0    0 -0.00000000000E+00 -0.00000000000E+00 -0.10000000000E+04  0.10000000000E+04  0.00000000000E+00 0.  1.
    9000005    2    1    2  501    0  0.29995026078E+02 -0.90441361794E+01 -0.50499935545E+03  0.50597576204E+03  0.23716623004E+01 0.  0.
         13    1    3    3    0    0  0.30414030399E+01 -0.25661042038E+00 -0.44453778308E+02  0.44558437890E+02  0.00000000000E+00 0.  1.
          1    1    3    3  501    0  0.26953623038E+02 -0.87875257590E+01 -0.46054557714E+03  0.46141732415E+03  0.00000000000E+00 0.  1.
         -3    1    1    2    0  502 -0.29995026078E+02  0.90441361794E+01 -0.49401624647E+03  0.49500863605E+03  0.00000000000E+00 0. -1.
<mgrwt>
<rscale>  1 0.30000000E+03</rscale>
<asrwt>0</asrwt>
<pdfrwt beam="1">  1       21 0.35796370E-02 0.30000000E+03</pdfrwt>
<pdfrwt beam="2">0</pdfrwt>
<totfact> 0.50669981E+04</totfact>
</mgrwt>
</event>
<event>
 6    1  0.6377696E-002  0.3000000E+03  0.7818608E-02  0.1093470E+00
         21   -1    0    0  501  502  0.00000000000E+00  0.00000000000E+00  0.11103405181E+01  0.11103405181E+01  0.00000000000E+00 0. -1.
         13   -1    0    0    0    0 -0.00000000000E+00 -0.00000000000E+00 -0.10000000000E+04  0.10000000000E+04  0.00000000000E+00 0.  1.
    9000005    2    1    2  501    0  0.30150031280E+02 -0.96900115770E+01 -0.34947423137E+03  0.35092319901E+03  0.34543454285E+01 0.  0.
         13    1    3    3    0    0  0.20779270382E+02 -0.70676726816E+01 -0.25846699325E+03  0.25939721794E+03  0.00000000000E+00 0.  1.
          3    1    3    3  501    0  0.93707608980E+01 -0.26223388954E+01 -0.91007238112E+02  0.91525981065E+02  0.00000000000E+00 0.  1.
         -3    1    1    2    0  502 -0.30150031280E+02  0.96900115770E+01 -0.64941542812E+03  0.65018714151E+03  0.00000000000E+00 0. -1.
<mgrwt>
<rscale>  1 0.30000000E+03</rscale>
<asrwt>0</asrwt>
<pdfrwt beam="1">  1       21 0.40376104E-02 0.30000000E+03</pdfrwt>
<pdfrwt beam="2">0</pdfrwt>
<totfact> 0.41389684E+04</totfact>
</mgrwt>
</event>
<event>
 6    1  0.6377696E-002  0.3000000E+03  0.7818608E-02  0.1093470E+00
         21   -1    0    0  501  502  0.00000000000E+00  0.00000000000E+00  0.20955462461E+01  0.20955462461E+01  0.00000000000E+00 0. -1.
         13   -1    0    0    0    0 -0.00000000000E+00 -0.00000000000E+00 -0.10000000000E+04  0.10000000000E+04  0.00000000000E+00 0.  1.
    9000005    2    1    2  501    0 -0.31932190375E+02 -0.27688338553E+02 -0.33152630932E+03  0.33437843529E+03  0.10627104353E+02 0.  0.
         13    1    3    3    0    0 -0.21466577342E+02 -0.21938547967E+02 -0.26680870640E+03  0.26856842637E+03  0.00000000000E+00 0.  1.
          1    1    3    3  501    0 -0.10465613033E+02 -0.57497905866E+01 -0.64717602913E+02  0.65810008925E+02  0.00000000000E+00 0.  1.
         -1    1    1    2    0  502  0.31932190375E+02  0.27688338553E+02 -0.66637814444E+03  0.66771711095E+03  0.00000000000E+00 0. -1.
<mgrwt>
<rscale>  1 0.30000000E+03</rscale>
<asrwt>0</asrwt>
<pdfrwt beam="1">  1       21 0.76201842E-02 0.30000000E+03</pdfrwt>
<pdfrwt beam="2">0</pdfrwt>
<totfact> 0.13911662E+04</totfact>
</mgrwt>
</event>
<event>
 6    1  0.6377696E-002  0.3000000E+03  0.7818608E-02  0.1093470E+00
         21   -1    0    0  501  502  0.00000000000E+00  0.00000000000E+00  0.12889808866E+02  0.12889808866E+02  0.00000000000E+00 0. -1.
         13   -1    0    0    0    0 -0.00000000000E+00 -0.00000000000E+00 -0.10000000000E+04  0.10000000000E+04  0.00000000000E+00 0.  1.
    9000005    2    1    2  501    0  0.94253689205E+02 -0.61994638174E+02 -0.54964702265E+03  0.56111429285E+03  0.32104580361E+01 0.  0.
         13    1    3    3    0    0  0.78583069138E+02 -0.53086186479E+02 -0.46121532368E+03  0.47086411707E+03  0.00000000000E+00 0.  1.
          1    1    3    3  501    0  0.15670620067E+02 -0.89084516951E+01 -0.88431698968E+02  0.90250175774E+02  0.00000000000E+00 0.  1.
         -3    1    1    2    0  502 -0.94253689205E+02  0.61994638174E+02 -0.43746316849E+03  0.45177551602E+03  0.00000000000E+00 0. -1.
<mgrwt>
<rscale>  1 0.30000000E+03</rscale>
<asrwt>0</asrwt>
<pdfrwt beam="1">  1       21 0.46872131E-01 0.30000000E+03</pdfrwt>
<pdfrwt beam="2">0</pdfrwt>
<totfact> 0.43182950E+02</totfact>
</mgrwt>
</event>
<event>
 6    1  0.6377696E-002  0.3000000E+03  0.7818608E-02  0.1093470E+00
         21   -1    0    0  501  502  0.00000000000E+00  0.00000000000E+00  0.24461164470E+01  0.24461164470E+01  0.00000000000E+00 0. -1.
         13   -1    0    0    0    0 -0.00000000000E+00 -0.00000000000E+00 -0.10000000000E+04  0.10000000000E+04  0.00000000000E+00 0.  1.
    9000005    2    1    2  501    0  0.18867761184E+02 -0.45128170452E+02 -0.42965076730E+03  0.43244042030E+03  0.35200986574E+01 0.  0.
         13    1    3    3    0    0  0.12562132488E+02 -0.34016821130E+02 -0.31598924860E+03  0.31806313292E+03  0.00000000000E+00 0.  1.
          3    1    3    3  501    0  0.63056286960E+01 -0.11111349322E+02 -0.11366151870E+03  0.11437728738E+03  0.00000000000E+00 0.  1.
         -3    1    1    2    0  502 -0.18867761184E+02  0.45128170452E+02 -0.56790311626E+03  0.57000569614E+03  0.00000000000E+00 0. -1.
<mgrwt>
<rscale>  1 0.30000000E+03</rscale>
<asrwt>0</asrwt>
<pdfrwt beam="1">  1       21 0.88949877E-02 0.30000000E+03</pdfrwt>
<pdfrwt beam="2">0</pdfrwt>
<totfact> 0.10596027E+04</totfact>
</mgrwt>
</event>
<event>
 6    1  0.6377696E-002  0.3000000E+03  0.7818608E-02  0.1093470E+00
         21   -1    0    0  501  502  0.00000000000E+00  0.00000000000E+00  0.11059816598E+01  0.11059816598E+01  0.00000000000E+00 0. -1.
         13   -1    0    0    0    0 -0.00000000000E+00 -0.00000000000E+00 -0.10000000000E+04  0.10000000000E+04  0.00000000000E+00 0.  1.
    9000005    2    1    2  501    0  0.27157129394E+02 -0.18723958057E+02 -0.55198081174E+03  0.55297708222E+03  0.35694041112E+01 0.  0.
         13    1    3    3    0    0  0.23044738801E+02 -0.14811521159E+02 -0.43916432988E+03  0.44001789712E+03  0.00000000000E+00 0.  1.
          1    1    3    3  501    0  0.41123905924E+01 -0.39124368986E+01 -0.11281648186E+03  0.11295918510E+03  0.00000000000E+00 0.  1.
         -1    1    1    2    0  502 -0.27157129394E+02  0.18723958057E+02 -0.44691320660E+03  0.44812889944E+03  0.00000000000E+00 0. -1.
<mgrwt>
<rscale>  1 0.30000000E+03</rscale>
<asrwt>0</asrwt>
<pdfrwt beam="1">  1       21 0.40217600E-02 0.30000000E+03</pdfrwt>
<pdfrwt beam="2">0</pdfrwt>
<totfact> 0.41664864E+04</totfact>
</mgrwt>
</event>
<event>
 6    1  0.6377696E-002  0.3000000E+03  0.7818608E-02  0.1093470E+00
         21   -1    0    0  501  502  0.00000000000E+00  0.00000000000E+00  0.16185828937E+01  0.16185828937E+01  0.00000000000E+00 0. -1.
         13   -1    0    0    0    0 -0.00000000000E+00 -0.00000000000E+00 -0.10000000000E+04  0.10000000000E+04  0.00000000000E+00 0.  1.
    9000005    2    1    2  501    0 -0.20964586813E+02 -0.32774296324E+02 -0.37587282858E+03  0.37789539815E+03  0.32985265243E+01 0.  0.
         13    1    3    3    0    0 -0.17339690310E+02 -0.25104341936E+02 -0.28580632045E+03  0.28743024485E+03  0.00000000000E+00 0.  1.
          1    1    3    3  501    0 -0.36248965027E+01 -0.76699543885E+01 -0.90066508131E+02  0.90465153302E+02  0.00000000000E+00 0.  1.
         -1    1    1    2    0  502  0.20964586813E+02  0.32774296324E+02 -0.62250858852E+03  0.62372318474E+03  0.00000000000E+00 0. -1.
<mgrwt>
<rscale>  1 0.30000000E+03</rscale>
<asrwt>0</asrwt>
<pdfrwt beam="1">  1       21 0.58857684E-02 0.30000000E+03</pdfrwt>
<pdfrwt beam="2">0</pdfrwt>
<totfact> 0.21781662E+04</totfact>
</mgrwt>
</event>
<event>
 6    1  0.6377696E-002  0.3000000E+03  0.7818608E-02  0.1093470E+00
         21   -1    0    0  501  502  0.00000000000E+00  0.00000000000E+00  0.12607914161E+01  0.12607914161E+01  0.00000000000E+00 0. -1.
         13   -1    0    0    0    0 -0.00000000000E+00 -0.00000000000E+00 -0.10000000000E+04  0.10000000000E+04  0.00000000000E+00 0.  1.
    9000005    2    1    2  501    0  0.20541870307E+00 -0.34866897221E+02 -0.58955979572E+03  0.59059847926E+03  0.31730504488E+01 0.  0.
         13    1    3    3    0    0  0.10086353708E+01 -0.87178423752E+01 -0.13203528804E+03  0.13232662396E+03  0.00000000000E+00 0.  1.
          1    1    3    3  501    0 -0.80321666776E+00 -0.26149054845E+02 -0.45752450768E+03  0.45827185529E+03  0.00000000000E+00 0.  1.
         -3    1    1    2    0  502 -0.20541870307E+00  0.34866897221E+02 -0.40917941286E+03  0.41066231216E+03  0.00000000000E+00 0. -1.
<mgrwt>
<rscale>  1 0.30000000E+03</rscale>
<asrwt>0</asrwt>
<pdfrwt beam="1">  1       21 0.45847057E-02 0.30000000E+03</pdfrwt>
<pdfrwt beam="2">0</pdfrwt>
<totfact> 0.33384135E+04</totfact>
</mgrwt>
</event>
<event>
 6    1  0.6377696E-002  0.3000000E+03  0.7818608E-02  0.1093470E+00
         21   -1    0    0  501  502  0.00000000000E+00  0.00000000000E+00  0.12754128825E+01  0.12754128825E+01  0.00000000000E+00 0. -1.
         13   -1    0    0    0    0 -0.00000000000E+00 -0.00000000000E+00 -0.10000000000E+04  0.10000000000E+04  0.00000000000E+00 0.  1.
    9000005    2    1    2  501    0 -0.17262064293E+01  0.31830124967E+02 -0.27783972484E+03  0.27968611050E+03  0.36429474977E+01 0.  0.
         13    1    3    3    0    0 -0.11805047205E+01  0.63421768584E+01 -0.46343398994E+02  0.46790249294E+02  0.00000000000E+00 0.  1.
          1    1    3    3  501    0 -0.54570170884E+00  0.25487948108E+02 -0.23149632584E+03  0.23289586121E+03  0.00000000000E+00 0.  1.
         -3    1    1    2    0  502  0.17262064293E+01 -0.31830124967E+02 -0.72088486228E+03  0.72158930238E+03  0.00000000000E+00 0. -1.
<mgrwt>
<rscale>  1 0.30000000E+03</rscale>
<asrwt>0</asrwt>
<pdfrwt beam="1">  1       21 0.46378748E-02 0.30000000E+03</pdfrwt>
<pdfrwt beam="2">0</pdfrwt>
<totfact> 0.32736465E+04</totfact>
</mgrwt>
</event>
<event>
 6    1  0.6377696E-002  0.3000000E+03  0.7818608E-02  0.1093470E+00
         21   -1    0    0  501  502  0.00000000000E+00  0.00000000000E+00  0.24126611541E+01  0.24126611541E+01  0.00000000000E+00 0. -1.
         13   -1    0    0    0    0 -0.00000000000E+00 -0.00000000000E+00 -0.10000000000E+04  0.10000000000E+04  0.00000000000E+00 0.  1.
    9000005    2    1    2  501    0  0.40932888864E+02  0.20980536332E+02 -0.32701504522E+03  0.33026469733E+03  0.44995784319E+01 0.  0.
         13    1    3    3    0    0  0.15149271239E+02  0.68519067876E+01 -0.13281585871E+03  0.13385253591E+03  0.00000000000E+00 0.  1.
          1    1    3    3  501    0  0.25783617625E+02  0.14128629545E+02 -0.19419918652E+03  0.19641216142E+03  0.00000000000E+00 0.  1.
         -1    1    1    2    0  502 -0.40932888864E+02 -0.20980536332E+02 -0.67057229362E+03  0.67214796382E+03  0.00000000000E+00 0. -1.
<mgrwt>
<rscale>  1 0.30000000E+03</rscale>
<asrwt>0</asrwt>
<pdfrwt beam="1">  1       21 0.87733318E-02 0.30000000E+03</pdfrwt>
<pdfrwt beam="2">0</pdfrwt>
<totfact> 0.10857295E+04</totfact>
</mgrwt>
</event>
<event>
 6    1  0.6377696E-002  0.3000000E+03  0.7818608E-02  0.1093470E+00
         21   -1    0    0  501  502  0.00000000000E+00  0.00000000000E+00  0.14349472740E+01  0.14349472740E+01  0.00000000000E+00 0. -1.
         13   -1    0    0    0    0 -0.00000000000E+00 -0.00000000000E+00 -0.10000000000E+04  0.10000000000E+04  0.00000000000E+00 0.  1.
    9000005    2    1    2  501    0  0.28396325479E+02 -0.15296648069E+02 -0.76053785951E+03  0.76123235891E+03  0.40656822805E+01 0.  0.
         13    1    3    3    0    0  0.22859493511E+01 -0.25645350793E+01 -0.71733693668E+02  0.71815911968E+02  0.00000000000E+00 0.  1.
          3    1    3    3  501    0  0.26110376127E+02 -0.12732112990E+02 -0.68880416584E+03  0.68941644695E+03  0.00000000000E+00 0.  1.
         -3    1    1    2    0  502 -0.28396325479E+02  0.15296648069E+02 -0.23802719322E+03  0.24020258836E+03  0.00000000000E+00 0. -1.
<mgrwt>
<rscale>  1 0.30000000E+03</rscale>
<asrwt>0</asrwt>
<pdfrwt beam="1">  1       21 0.52180011E-02 0.30000000E+03</pdfrwt>
<pdfrwt beam="2">0</pdfrwt>
<totfact> 0.26781293E+04</totfact>
</mgrwt>
</event>
<event>
 6    1  0.6377696E-002  0.3000000E+03  0.7818608E-02  0.1093470E+00
         21   -1    0    0  501  502  0.00000000000E+00  0.00000000000E+00  0.10282173167E+01  0.10282173167E+01  0.00000000000E+00 0. -1.
         13   -1    0    0    0    0 -0.00000000000E+00 -0.00000000000E+00 -0.10000000000E+04  0.10000000000E+04  0.00000000000E+00 0.  1.
    9000005    2    1    2  501    0  0.31736777821E+02  0.28752212383E+01 -0.46449575057E+03  0.46560304153E+03  0.37947358232E+01 0.  0.
         13    1    3    3    0    0  0.40284972235E+00 -0.10387269175E+00 -0.23383067104E+01  0.23750275171E+01  0.00000000000E+00 0.  1.
          3    1    3    3  501    0  0.31333928098E+02  0.29790939300E+01 -0.46215744386E+03  0.46322801402E+03  0.00000000000E+00 0.  1.
         -3    1    1    2    0  502 -0.31736777821E+02 -0.28752212383E+01 -0.53447603211E+03  0.53542517578E+03  0.00000000000E+00 0. -1.
<mgrwt>
<rscale>  1 0.30000000E+03</rscale>
<asrwt>0</asrwt>
<pdfrwt beam="1">  1       21 0.37389799E-02 0.30000000E+03</pdfrwt>
<pdfrwt beam="2">0</pdfrwt>
<totfact> 0.47099458E+04</totfact>
</mgrwt>
</event>
<event>
 6    1  0.6377696E-002  0.3000000E+03  0.7818608E-02  0.1093470E+00
         21   -1    0    0  501  502  0.00000000000E+00  0.00000000000E+00  0.16725035803E+01  0.16725035803E+01  0.00000000000E+00 0. -1.
         13   -1    0    0    0    0 -0.00000000000E+00 -0.00000000000E+00 -0.10000000000E+04  0.10000000000E+04  0.00000000000E+00 0.  1.
    9000005    2    1    2  501    0  0.22650010612E+02 -0.32397665319E+02 -0.62500581635E+03  0.62626378164E+03  0.33796484690E+01 0.  0.
         13    1    3    3    0    0  0.18348853983E+02 -0.24173222806E+02 -0.49084898176E+03  0.49178628289E+03  0.00000000000E+00 0.  1.
          3    1    3    3  501    0  0.43011566285E+01 -0.82244425133E+01 -0.13415683459E+03  0.13447749875E+03  0.00000000000E+00 0.  1.
         -3    1    1    2    0  502 -0.22650010612E+02  0.32397665319E+02 -0.37332168007E+03  0.37540872194E+03  0.00000000000E+00 0. -1.
<mgrwt>
<rscale>  1 0.30000000E+03</rscale>
<asrwt>0</asrwt>
<pdfrwt beam="1">  1       21 0.60818440E-02 0.30000000E+03</pdfrwt>
<pdfrwt beam="2">0</pdfrwt>
<totfact> 0.20584875E+04</totfact>
</mgrwt>
</event>
<event>
 6    1  0.6377696E-002  0.3000000E+03  0.7818608E-02  0.1093470E+00
         21   -1    0    0  501  502  0.00000000000E+00  0.00000000000E+00  0.13037006855E+01  0.13037006855E+01  0.00000000000E+00 0. -1.
         13   -1    0    0    0    0 -0.00000000000E+00 -0.00000000000E+00 -0.10000000000E+04  0.10000000000E+04  0.00000000000E+00 0.  1.
    9000005    2    1    2  501    0 -0.21537827854E+02 -0.21775187509E+02 -0.23929216918E+03  0.24128220777E+03  0.42807404104E+01 0.  0.
         13    1    3    3    0    0 -0.79604790456E+01 -0.69967835070E+01 -0.98124071471E+02  0.98694769913E+02  0.00000000000E+00 0.  1.
          1    1    3    3  501    0 -0.13577348808E+02 -0.14778404002E+02 -0.14116809770E+03  0.14258743786E+03  0.00000000000E+00 0.  1.
         -3    1    1    2    0  502  0.21537827854E+02  0.21775187509E+02 -0.75940413014E+03  0.76002149291E+03  0.00000000000E+00 0. -1.
<mgrwt>
<rscale>  1 0.30000000E+03</rscale>
<asrwt>0</asrwt>
<pdfrwt beam="1">  1       21 0.47407398E-02 0.30000000E+03</pdfrwt>
<pdfrwt beam="2">0</pdfrwt>
<totfact> 0.31538053E+04</totfact>
</mgrwt>
</event>
<event>
 6    1  0.6377696E-002  0.3000000E+03  0.7818608E-02  0.1093470E+00
         21   -1    0    0  501  502  0.00000000000E+00  0.00000000000E+00  0.21223901806E+01  0.21223901806E+01  0.00000000000E+00 0. -1.
         13   -1    0    0    0    0 -0.00000000000E+00 -0.00000000000E+00 -0.10000000000E+04  0.10000000000E+04  0.00000000000E+00 0.  1.
    9000005    2    1    2  501    0 -0.18008254133E+02  0.41244177206E+02 -0.39525799650E+03  0.39782463433E+03  0.31900644554E+01 0.  0.
         13    1    3    3    0    0 -0.11535337452E+02  0.29981279883E+02 -0.27940817494E+03  0.28124876777E+03  0.00000000000E+00 0.  1.
          3    1    3    3  501    0 -0.64729166814E+01  0.11262897323E+02 -0.11584982156E+03  0.11657586655E+03  0.00000000000E+00 0.  1.
         -1    1    1    2    0  502  0.18008254133E+02 -0.41244177206E+02 -0.60261961332E+03  0.60429775586E+03  0.00000000000E+00 0. -1.
<mgrwt>
<rscale>  1 0.30000000E+03</rscale>
<asrwt>0</asrwt>
<pdfrwt beam="1">  1       21 0.77177987E-02 0.30000000E+03</pdfrwt>
<pdfrwt beam="2">0</pdfrwt>
<totfact> 0.13604751E+04</totfact>
</mgrwt>
</event>
<event>
 6    1  0.6377696E-002  0.3000000E+03  0.7818608E-02  0.1093470E+00
         21   -1    0    0  501  502  0.00000000000E+00  0.00000000000E+00  0.39963615669E+01  0.39963615669E+01  0.00000000000E+00 0. -1.
         13   -1    0    0    0    0 -0.00000000000E+00 -0.00000000000E+00 -0.10000000000E+04  0.10000000000E+04  0.00000000000E+00 0.  1.
    9000005    2    1    2  501    0 -0.37706605908E+02  0.17849840998E+02 -0.12149740082E+03  0.12849561081E+03  0.30163949471E+01 0.  0.
         13    1    3    3    0    0 -0.23256488491E+02  0.10328274773E+02 -0.69912233914E+02  0.74399314295E+02  0.00000000000E+00 0.  1.
          3    1    3    3  501    0 -0.14450117417E+02  0.75215662250E+01 -0.51585166905E+02  0.54096296514E+02  0.00000000000E+00 0.  1.
         -1    1    1    2    0  502  0.37706605908E+02 -0.17849840998E+02 -0.87450623761E+03  0.87550075076E+03  0.00000000000E+00 0. -1.
<mgrwt>
<rscale>  1 0.30000000E+03</rscale>
<asrwt>0</asrwt>
<pdfrwt beam="1">  1       21 0.14532255E-01 0.30000000E+03</pdfrwt>
<pdfrwt beam="2">0</pdfrwt>
<totfact> 0.43662503E+03</totfact>
</mgrwt>
</event>
<event>
 6    1  0.6377696E-002  0.3000000E+03  0.7818608E-02  0.1093470E+00
         21   -1    0    0  501  502  0.00000000000E+00  0.00000000000E+00  0.11108655082E+01  0.11108655082E+01  0.00000000000E+00 0. -1.
         13   -1    0    0    0    0 -0.00000000000E+00 -0.00000000000E+00 -0.10000000000E+04  0.10000000000E+04  0.00000000000E+00 0.  1.
    9000005    2    1    2  501    0 -0.51714558409E+01  0.32228604400E+02 -0.58513456323E+03  0.58607078053E+03  0.55745681232E+01 0.  0.
         13    1    3    3    0    0 -0.14962792761E+01  0.14215773357E+02 -0.20991635538E+03  0.21040247935E+03  0.00000000000E+00 0.  1.
          3    1    3    3  501    0 -0.36751765648E+01  0.18012831043E+02 -0.37521820785E+03  0.37566830118E+03  0.00000000000E+00 0.  1.
         -3    1    1    2    0  502  0.51714558409E+01 -0.32228604400E+02 -0.41375457126E+03  0.41504008498E+03  0.00000000000E+00 0. -1.
<mgrwt>
<rscale>  1 0.30000000E+03</rscale>
<asrwt>0</asrwt>
<pdfrwt beam="1">  1       21 0.40395195E-02 0.30000000E+03</pdfrwt>
<pdfrwt beam="2">0</pdfrwt>
<totfact> 0.41356732E+04</totfact>
</mgrwt>
</event>
<event>
 6    1  0.6377696E-002  0.3000000E+03  0.7818608E-02  0.1093470E+00
         21   -1    0    0  501  502  0.00000000000E+00  0.00000000000E+00  0.19036904302E+01  0.19036904302E+01  0.00000000000E+00 0. -1.
         13   -1    0    0    0    0 -0.00000000000E+00 -0.00000000000E+00 -0.10000000000E+04  0.10000000000E+04  0.00000000000E+00 0.  1.
    9000005    2    1    2  501    0  0.35561964024E+02  0.24373378457E+02 -0.42912444908E+03  0.43130076993E+03  0.37210851824E+01 0.  0.
         13    1    3    3    0    0  0.23310214298E+02  0.15185519516E+02 -0.29289138934E+03  0.29420967361E+03  0.00000000000E+00 0.  1.
          3    1    3    3  501    0  0.12251749726E+02  0.91878589415E+01 -0.13623305974E+03  0.13709109632E+03  0.00000000000E+00 0.  1.
         -1    1    1    2    0  502 -0.35561964024E+02 -0.24373378457E+02 -0.56897186049E+03  0.57060292050E+03  0.00000000000E+00 0. -1.
<mgrwt>
<rscale>  1 0.30000000E+03</rscale>
<asrwt>0</asrwt>
<pdfrwt beam="1">  1       21 0.69225253E-02 0.30000000E+03</pdfrwt>
<pdfrwt beam="2">0</pdfrwt>
<totfact> 0.16450717E+04</totfact>
</mgrwt>
</event>
<event>
 6    1  0.6377696E-002  0.3000000E+03  0.7818608E-02  0.1093470E+00
         21   -1    0    0  501  502  0.00000000000E+00  0.00000000000E+00  0.21287361944E+01  0.21287361944E+01  0.00000000000E+00 0. -1.
         13   -1    0    0    0    0 -0.00000000000E+00 -0.00000000000E+00 -0.10000000000E+04  0.10000000000E+04  0.00000000000E+00 0.  1.
    9000005    2    1    2  501    0  0.45565931991E+02  0.29691551315E+01 -0.56545851571E+03  0.56731170024E+03  0.37632698577E+01 0.  0.
         13    1    3    3    0    0  0.34534939376E+00 -0.31816042868E+00 -0.69572471476E+01  0.69730753714E+01  0.00000000000E+00 0.  1.
          3    1    3    3  501    0  0.45220582597E+02  0.32873155602E+01 -0.55850126856E+03  0.56033862487E+03  0.00000000000E+00 0.  1.
         -1    1    1    2    0  502 -0.45565931991E+02 -0.29691551315E+01 -0.43241274810E+03  0.43481703596E+03  0.00000000000E+00 0. -1.
<mgrwt>
<rscale>  1 0.30000000E+03</rscale>
<asrwt>0</asrwt>
<pdfrwt beam="1">  1       21 0.77408752E-02 0.30000000E+03</pdfrwt>
<pdfrwt beam="2">0</pdfrwt>
<totfact> 0.13533723E+04</totfact>
</mgrwt>
</event>
<event>
 6    1  0.6377696E-002  0.3000000E+03  0.7818608E-02  0.1093470E+00
         21   -1    0    0  501  502  0.00000000000E+00  0.00000000000E+00  0.28571135090E+01  0.28571135090E+01  0.00000000000E+00 0. -1.
         13   -1    0    0    0    0 -0.00000000000E+00 -0.00000000000E+00 -0.10000000000E+04  0.10000000000E+04  0.00000000000E+00 0.  1.
    9000005    2    1    2  501    0 -0.33474365285E+02 -0.35401677970E+02 -0.29378217843E+03  0.29781094652E+03  0.30950884970E+01 0.  0.
         13    1    3    3    0    0 -0.13055007367E+01 -0.67247295986E+00 -0.10076915038E+02  0.10183357439E+02  0.00000000000E+00 0.  1.
          3    1    3    3  501    0 -0.32168864548E+02 -0.34729205011E+02 -0.28370526339E+03  0.28762758909E+03  0.00000000000E+00 0.  1.
         -1    1    1    2    0  502  0.33474365285E+02  0.35401677970E+02 -0.70336070806E+03  0.70504616698E+03  0.00000000000E+00 0. -1.
<mgrwt>
<rscale>  1 0.30000000E+03</rscale>
<asrwt>0</asrwt>
<pdfrwt beam="1">  1       21 0.10389526E-01 0.30000000E+03</pdfrwt>
<pdfrwt beam="2">0</pdfrwt>
<totfact> 0.80347169E+03</totfact>
</mgrwt>
</event>
<event>
 6    1  0.6377696E-002  0.3000000E+03  0.7818608E-02  0.1093470E+00
         21   -1    0    0  501  502  0.00000000000E+00  0.00000000000E+00  0.15298009545E+01  0.15298009545E+01  0.00000000000E+00 0. -1.
         13   -1    0    0    0    0 -0.00000000000E+00 -0.00000000000E+00 -0.10000000000E+04  0.10000000000E+04  0.00000000000E+00 0.  1.
    9000005    2    1    2  501    0 -0.20402409044E+02 -0.33119989364E+02 -0.46601943267E+03  0.46765995670E+03  0.43048210625E+01 0.  0.
         13    1    3    3    0    0 -0.89722266073E+01 -0.17835789439E+02 -0.25375935241E+03  0.25454356242E+03  0.00000000000E+00 0.  1.
          3    1    3    3  501    0 -0.11430182437E+02 -0.15284199925E+02 -0.21226008026E+03  0.21311639428E+03  0.00000000000E+00 0.  1.
         -3    1    1    2    0  502  0.20402409044E+02  0.33119989364E+02 -0.53245076638E+03  0.53386984426E+03  0.00000000000E+00 0. -1.
<mgrwt>
<rscale>  1 0.30000000E+03</rscale>
<asrwt>0</asrwt>
<pdfrwt beam="1">  1       21 0.55629243E-02 0.30000000E+03</pdfrwt>
<pdfrwt beam="2">0</pdfrwt>
<totfact> 0.24001186E+04</totfact>
</mgrwt>
</event>
<event>
 6    1  0.6377696E-002  0.3000000E+03  0.7818608E-02  0.1093470E+00
         21   -1    0    0  501  502  0.00000000000E+00  0.00000000000E+00  0.39273944268E+01  0.39273944268E+01  0.00000000000E+00 0. -1.
         13   -1    0    0    0    0 -0.00000000000E+00 -0.00000000000E+00 -0.10000000000E+04  0.10000000000E+04  0.00000000000E+00 0.  1.
    9000005    2    1    2  501    0  0.43901729518E+02  0.40040103205E+02 -0.34071776850E+03  0.34588443672E+03  0.41078060326E+01 0.  0.
         13    1    3    3    0    0  0.11910362918E+02  0.13407185806E+02 -0.10326406743E+03  0.10480971805E+03  0.00000000000E+00 0.  1.
          1    1    3    3  501    0  0.31991366600E+02  0.26632917399E+02 -0.23745370108E+03  0.24107471867E+03  0.00000000000E+00 0.  1.
         -1    1    1    2    0  502 -0.43901729518E+02 -0.40040103205E+02 -0.65535483707E+03  0.65804295771E+03  0.00000000000E+00 0. -1.
<mgrwt>
<rscale>  1 0.30000000E+03</rscale>
<asrwt>0</asrwt>
<pdfrwt beam="1">  1       21 0.14281464E-01 0.30000000E+03</pdfrwt>
<pdfrwt beam="2">0</pdfrwt>
<totfact> 0.45085705E+03</totfact>
</mgrwt>
</event>
<event>
 6    1  0.6377696E-002  0.3000000E+03  0.7818608E-02  0.1093470E+00
         21   -1    0    0  501  502  0.00000000000E+00  0.00000000000E+00  0.24296794030E+01  0.24296794030E+01  0.00000000000E+00 0. -1.
         13   -1    0    0    0    0 -0.00000000000E+00 -0.00000000000E+00 -0.10000000000E+04  0.10000000000E+04  0.00000000000E+00 0.  1.
    9000005    2    1    2  501    0  0.14455650075E+02  0.46535792930E+02 -0.57066526295E+03  0.57275250513E+03  0.34704405212E+01 0.  0.
         13    1    3    3    0    0  0.14305857209E+02  0.45725812735E+02 -0.56498362648E+03  0.56701146875E+03  0.00000000000E+00 0.  1.
          3    1    3    3  501    0  0.14979286539E+00  0.80998019566E+00 -0.56816364655E+01  0.57410363825E+01  0.00000000000E+00 0.  1.
         -3    1    1    2    0  502 -0.14455650075E+02 -0.46535792930E+02 -0.42690505765E+03  0.42967717427E+03  0.00000000000E+00 0. -1.
<mgrwt>
<rscale>  1 0.30000000E+03</rscale>
<asrwt>0</asrwt>
<pdfrwt beam="1">  1       21 0.88352165E-02 0.30000000E+03</pdfrwt>
<pdfrwt beam="2">0</pdfrwt>
<totfact> 0.10723185E+04</totfact>
</mgrwt>
</event>
<event>
 6    1  0.6377696E-002  0.3000000E+03  0.7818608E-02  0.1093470E+00
         21   -1    0    0  501  502  0.00000000000E+00  0.00000000000E+00  0.12538279944E+01  0.12538279944E+01  0.00000000000E+00 0. -1.
         13   -1    0    0    0    0 -0.00000000000E+00 -0.00000000000E+00 -0.10000000000E+04  0.10000000000E+04  0.00000000000E+00 0.  1.
    9000005    2    1    2  501    0  0.35228589695E+01  0.34668963100E+02 -0.42072340338E+03  0.42218157984E+03  0.38414402616E+01 0.  0.
         13    1    3    3    0    0  0.34504286872E+01  0.20662822985E+02 -0.23602278793E+03  0.23695065760E+03  0.00000000000E+00 0.  1.
          1    1    3    3  501    0  0.72430282298E-01  0.14006140115E+02 -0.18470061545E+03  0.18523092224E+03  0.00000000000E+00 0.  1.
         -1    1    1    2    0  502 -0.35228589695E+01 -0.34668963100E+02 -0.57802276862E+03  0.57907224816E+03  0.00000000000E+00 0. -1.
<mgrwt>
<rscale>  1 0.30000000E+03</rscale>
<asrwt>0</asrwt>
<pdfrwt beam="1">  1       21 0.45593841E-02 0.30000000E+03</pdfrwt>
<pdfrwt beam="2">0</pdfrwt>
<totfact> 0.33699683E+04</totfact>
</mgrwt>
</event>
<event>
 6    1  0.6377696E-002  0.3000000E+03  0.7818608E-02  0.1093470E+00
         21   -1    0    0  501  502  0.00000000000E+00  0.00000000000E+00  0.14907325490E+01  0.14907325490E+01  0.00000000000E+00 0. -1.
         13   -1    0    0    0    0 -0.00000000000E+00 -0.00000000000E+00 -0.10000000000E+04  0.10000000000E+04  0.00000000000E+00 0.  1.
    9000005    2    1    2  501    0 -0.37467315102E+02  0.54211285745E+01 -0.46924212781E+03  0.47087138364E+03  0.99245695443E+01 0.  0.
         13    1    3    3    0    0 -0.29191742311E+02  0.19718221272E+01 -0.31020939369E+03  0.31158612587E+03  0.00000000000E+00 0.  1.
          1    1    3    3  501    0 -0.82755727910E+01  0.34493064474E+01 -0.15903273411E+03  0.15928525776E+03  0.00000000000E+00 0.  1.
         -1    1    1    2    0  502  0.37467315102E+02 -0.54211285745E+01 -0.52926713964E+03  0.53061934891E+03  0.00000000000E+00 0. -1.
<mgrwt>
<rscale>  1 0.30000000E+03</rscale>
<asrwt>0</asrwt>
<pdfrwt beam="1">  1       21 0.54208571E-02 0.30000000E+03</pdfrwt>
<pdfrwt beam="2">0</pdfrwt>
<totfact> 0.25089694E+04</totfact>
</mgrwt>
</event>
<event>
 6    1  0.6377696E-002  0.3000000E+03  0.7818608E-02  0.1093470E+00
         21   -1    0    0  501  502  0.00000000000E+00  0.00000000000E+00  0.35309904848E+01  0.35309904848E+01  0.00000000000E+00 0. -1.
         13   -1    0    0    0    0 -0.00000000000E+00 -0.00000000000E+00 -0.10000000000E+04  0.10000000000E+04  0.00000000000E+00 0.  1.
    9000005    2    1    2  501    0  0.29219005163E+02  0.50634777258E+02 -0.41323385464E+03  0.41737326698E+03  0.45381104398E+01 0.  0.
         13    1    3    3    0    0  0.10380638624E+01  0.41373307081E+01 -0.30226258017E+02  0.30525755612E+02  0.00000000000E+00 0.  1.
          3    1    3    3  501    0  0.28180941300E+02  0.46497446549E+02 -0.38300759662E+03  0.38684751137E+03  0.00000000000E+00 0.  1.
         -1    1    1    2    0  502 -0.29219005163E+02 -0.50634777258E+02 -0.58323515488E+03  0.58615772350E+03  0.00000000000E+00 0. -1.
<mgrwt>
<rscale>  1 0.30000000E+03</rscale>
<asrwt>0</asrwt>
<pdfrwt beam="1">  1       21 0.12839992E-01 0.30000000E+03</pdfrwt>
<pdfrwt beam="2">0</pdfrwt>
<totfact> 0.54789943E+03</totfact>
</mgrwt>
</event>
<event>
 6    1  0.6377696E-002  0.3000000E+03  0.7818608E-02  0.1093470E+00
         21   -1    0    0  501  502  0.00000000000E+00  0.00000000000E+00  0.20599406747E+01  0.20599406747E+01  0.00000000000E+00 0. -1.
         13   -1    0    0    0    0 -0.00000000000E+00 -0.00000000000E+00 -0.10000000000E+04  0.10000000000E+04  0.00000000000E+00 0.  1.
    9000005    2    1    2  501    0  0.13943435954E+02  0.37264715699E+02 -0.26157346968E+03  0.26461920896E+03  0.44234906207E+01 0.  0.
         13    1    3    3    0    0  0.18540931725E+01  0.61621051391E+01 -0.53739320285E+02  0.54123227416E+02  0.00000000000E+00 0.  1.
          3    1    3    3  501    0  0.12089342781E+02  0.31102610560E+02 -0.20783414939E+03  0.21049598155E+03  0.00000000000E+00 0.  1.
         -1    1    1    2    0  502 -0.13943435954E+02 -0.37264715699E+02 -0.73636658965E+03  0.73744073171E+03  0.00000000000E+00 0. -1.
<mgrwt>
<rscale>  1 0.30000000E+03</rscale>
<asrwt>0</asrwt>
<pdfrwt beam="1">  1       21 0.74907092E-02 0.30000000E+03</pdfrwt>
<pdfrwt beam="2">0</pdfrwt>
<totfact> 0.14335541E+04</totfact>
</mgrwt>
</event>
<event>
 6    1  0.6377696E-002  0.3000000E+03  0.7818608E-02  0.1093470E+00
         21   -1    0    0  501  502  0.00000000000E+00  0.00000000000E+00  0.11396658338E+01  0.11396658338E+01  0.00000000000E+00 0. -1.
         13   -1    0    0    0    0 -0.00000000000E+00 -0.00000000000E+00 -0.10000000000E+04  0.10000000000E+04  0.00000000000E+00 0.  1.
    9000005    2    1    2  501    0 -0.11442648914E+01  0.33119787045E+02 -0.58953754392E+03  0.59047754650E+03  0.33147549285E+01 0.  0.
         13    1    3    3    0    0 -0.97414706079E-01  0.97818552456E-01 -0.67864052531E+00  0.69253957053E+00  0.00000000000E+00 0.  1.
          3    1    3    3  501    0 -0.10468501853E+01  0.33021968492E+02 -0.58885890339E+03  0.58978500693E+03  0.00000000000E+00 0.  1.
         -3    1    1    2    0  502  0.11442648914E+01 -0.33119787045E+02 -0.40932279025E+03  0.41066211933E+03  0.00000000000E+00 0. -1.
<mgrwt>
<rscale>  1 0.30000000E+03</rscale>
<asrwt>0</asrwt>
<pdfrwt beam="1">  1       21 0.41442481E-02 0.30000000E+03</pdfrwt>
<pdfrwt beam="2">0</pdfrwt>
<totfact> 0.39609912E+04</totfact>
</mgrwt>
</event>
<event>
 6    1  0.6377696E-002  0.3000000E+03  0.7818608E-02  0.1093470E+00
         21   -1    0    0  501  502  0.00000000000E+00  0.00000000000E+00  0.57122191493E+01  0.57122191493E+01  0.00000000000E+00 0. -1.
         13   -1    0    0    0    0 -0.00000000000E+00 -0.00000000000E+00 -0.10000000000E+04  0.10000000000E+04  0.00000000000E+00 0.  1.
    9000005    2    1    2  501    0 -0.52864242749E+02 -0.32276545384E+02 -0.20956417906E+03  0.21854798295E+03  0.31100101536E+01 0.  0.
         13    1    3    3    0    0 -0.15830160926E+02 -0.10554325214E+02 -0.60132444282E+02  0.63070584515E+02  0.00000000000E+00 0.  1.
          1    1    3    3  501    0 -0.37034081823E+02 -0.21722220170E+02 -0.14943173477E+03  0.15547739843E+03  0.00000000000E+00 0.  1.
         -3    1    1    2    0  502  0.52864242749E+02  0.32276545384E+02 -0.78472360179E+03  0.78716423620E+03  0.00000000000E+00 0. -1.
<mgrwt>
<rscale>  1 0.30000000E+03</rscale>
<asrwt>0</asrwt>
<pdfrwt beam="1">  1       21 0.20771750E-01 0.30000000E+03</pdfrwt>
<pdfrwt beam="2">0</pdfrwt>
<totfact> 0.22316654E+03</totfact>
</mgrwt>
</event>
<event>
 6    1  0.6377696E-002  0.3000000E+03  0.7818608E-02  0.1093470E+00
         21   -1    0    0  501  502  0.00000000000E+00  0.00000000000E+00  0.11707148850E+01  0.11707148850E+01  0.00000000000E+00 0. -1.
         13   -1    0    0    0    0 -0.00000000000E+00 -0.00000000000E+00 -0.10000000000E+04  0.10000000000E+04  0.00000000000E+00 0.  1.
    9000005    2    1    2  501    0  0.29007268260E+02 -0.95450640066E+01 -0.72385549698E+03  0.72450645261E+03  0.32077261111E+01 0.  0.
         13    1    3    3    0    0  0.20270365143E+02 -0.52439489066E+01 -0.47904107391E+03  0.47949842252E+03  0.00000000000E+00 0.  1.
          1    1    3    3  501    0  0.87369031171E+01 -0.43011151000E+01 -0.24481442307E+03  0.24500803009E+03  0.00000000000E+00 0.  1.
         -3    1    1    2    0  502 -0.29007268260E+02  0.95450640066E+01 -0.27497378813E+03  0.27666426227E+03  0.00000000000E+00 0. -1.
<mgrwt>
<rscale>  1 0.30000000E+03</rscale>
<asrwt>0</asrwt>
<pdfrwt beam="1">  1       21 0.42571540E-02 0.30000000E+03</pdfrwt>
<pdfrwt beam="2">0</pdfrwt>
<totfact> 0.37852202E+04</totfact>
</mgrwt>
</event>
<event>
 6    1  0.6377696E-002  0.3000000E+03  0.7818608E-02  0.1093470E+00
         21   -1    0    0  501  502  0.00000000000E+00  0.00000000000E+00  0.11161019305E+01  0.11161019305E+01  0.00000000000E+00 0. -1.
         13   -1    0    0    0    0 -0.00000000000E+00 -0.00000000000E+00 -0.10000000000E+04  0.10000000000E+04  0.00000000000E+00 0.  1.
    9000005    2    1    2  501    0  0.23522791244E+02 -0.22063262395E+02 -0.62700300270E+03  0.62783938206E+03  0.30683899775E+01 0.  0.
         13    1    3    3    0    0  0.20611734836E+02 -0.19484085856E+02 -0.52992414217E+03  0.53068264496E+03  0.00000000000E+00 0.  1.
          3    1    3    3  501    0  0.29110564084E+01 -0.25791765393E+01 -0.97078860530E+02  0.97156737094E+02  0.00000000000E+00 0.  1.
         -1    1    1    2    0  502 -0.23522791244E+02  0.22063262395E+02 -0.37188089537E+03  0.37327671987E+03  0.00000000000E+00 0. -1.
<mgrwt>
<rscale>  1 0.30000000E+03</rscale>
<asrwt>0</asrwt>
<pdfrwt beam="1">  1       21 0.40585610E-02 0.30000000E+03</pdfrwt>
<pdfrwt beam="2">0</pdfrwt>
<totfact> 0.41030293E+04</totfact>
</mgrwt>
</event>
<event>
 6    1  0.6377696E-002  0.3000000E+03  0.7818608E-02  0.1093470E+00
         21   -1    0    0  501  502  0.00000000000E+00  0.00000000000E+00  0.15349465121E+01  0.15349465121E+01  0.00000000000E+00 0. -1.
         13   -1    0    0    0    0 -0.00000000000E+00 -0.00000000000E+00 -0.10000000000E+04  0.10000000000E+04  0.00000000000E+00 0.  1.
    9000005    2    1    2  501    0  0.80363257030E+01 -0.35780386754E+02 -0.67274300668E+03  0.67375503501E+03  0.42279496867E+01 0.  0.
         13    1    3    3    0    0  0.82903343019E+00 -0.37821327074E+01 -0.98475914303E+02  0.98552004150E+02  0.00000000000E+00 0.  1.
          3    1    3    3  501    0  0.72072922728E+01 -0.31998254046E+02 -0.57426709238E+03  0.57520303086E+03  0.00000000000E+00 0.  1.
         -3    1    1    2    0  502 -0.80363257030E+01  0.35780386754E+02 -0.32572204681E+03  0.32777991150E+03  0.00000000000E+00 0. -1.
<mgrwt>
<rscale>  1 0.30000000E+03</rscale>
<asrwt>0</asrwt>
<pdfrwt beam="1">  1       21 0.55816355E-02 0.30000000E+03</pdfrwt>
<pdfrwt beam="2">0</pdfrwt>
<totfact> 0.23863256E+04</totfact>
</mgrwt>
</event>
<event>
 6    1  0.6377696E-002  0.3000000E+03  0.7818608E-02  0.1093470E+00
         21   -1    0    0  501  502  0.00000000000E+00  0.00000000000E+00  0.16299693773E+01  0.16299693773E+01  0.00000000000E+00 0. -1.
         13   -1    0    0    0    0 -0.00000000000E+00 -0.00000000000E+00 -0.10000000000E+04  0.10000000000E+04  0.00000000000E+00 0.  1.
    9000005    2    1    2  501    0  0.35557642530E+02  0.18858118561E+01 -0.26642097423E+03  0.26881531110E+03  0.36923900917E+01 0.  0.
         13    1    3    3    0    0  0.34148530276E+02  0.11542714020E+01 -0.25702422599E+03  0.25928537792E+03  0.00000000000E+00 0.  1.
          3    1    3    3  501    0  0.14091122548E+01  0.73154045412E+00 -0.93967482419E+01  0.95299331741E+01  0.00000000000E+00 0.  1.
         -1    1    1    2    0  502 -0.35557642530E+02 -0.18858118561E+01 -0.73194905640E+03  0.73281465828E+03  0.00000000000E+00 0. -1.
<mgrwt>
<rscale>  1 0.30000000E+03</rscale>
<asrwt>0</asrwt>
<pdfrwt beam="1">  1       21 0.59271739E-02 0.30000000E+03</pdfrwt>
<pdfrwt beam="2">0</pdfrwt>
<totfact> 0.21520060E+04</totfact>
</mgrwt>
</event>
<event>
 6    1  0.6377696E-002  0.3000000E+03  0.7818608E-02  0.1093470E+00
         21   -1    0    0  501  502  0.00000000000E+00  0.00000000000E+00  0.11306264423E+01  0.11306264423E+01  0.00000000000E+00 0. -1.
         13   -1    0    0    0    0 -0.00000000000E+00 -0.00000000000E+00 -0.10000000000E+04  0.10000000000E+04  0.00000000000E+00 0.  1.
    9000005    2    1    2  501    0  0.19638861469E+02 -0.23846421834E+02 -0.30680762170E+03  0.30837972959E+03  0.35782916119E+01 0.  0.
         13    1    3    3    0    0  0.10259338458E+02 -0.10319857605E+02 -0.15550435429E+03  0.15618373055E+03  0.00000000000E+00 0.  1.
          3    1    3    3  501    0  0.93795230108E+01 -0.13526564229E+02 -0.15130326742E+03  0.15219599903E+03  0.00000000000E+00 0.  1.
         -3    1    1    2    0  502 -0.19638861469E+02  0.23846421834E+02 -0.69206175186E+03  0.69275089686E+03  0.00000000000E+00 0. -1.
<mgrwt>
<rscale>  1 0.30000000E+03</rscale>
<asrwt>0</asrwt>
<pdfrwt beam="1">  1       21 0.41113776E-02 0.30000000E+03</pdfrwt>
<pdfrwt beam="2">0</pdfrwt>
<totfact> 0.40145587E+04</totfact>
</mgrwt>
</event>
<event>
 6    1  0.6377696E-002  0.3000000E+03  0.7818608E-02  0.1093470E+00
         21   -1    0    0  501  502  0.00000000000E+00  0.00000000000E+00  0.13184100097E+01  0.13184100097E+01  0.00000000000E+00 0. -1.
         13   -1    0    0    0    0 -0.00000000000E+00 -0.00000000000E+00 -0.10000000000E+04  0.10000000000E+04  0.00000000000E+00 0.  1.
    9000005    2    1    2  501    0 -0.29481204870E+02  0.21069716039E+02 -0.51429450552E+03  0.51557781877E+03  0.29282122285E+01 0.  0.
         13    1    3    3    0    0 -0.14520019337E+02  0.11185933786E+02 -0.24140711986E+03  0.24210194876E+03  0.00000000000E+00 0.  1.
          1    1    3    3  501    0 -0.14961185533E+02  0.98837822532E+01 -0.27288738566E+03  0.27347587001E+03  0.00000000000E+00 0.  1.
         -1    1    1    2    0  502  0.29481204870E+02 -0.21069716039E+02 -0.48438708447E+03  0.48574059124E+03  0.00000000000E+00 0. -1.
<mgrwt>
<rscale>  1 0.30000000E+03</rscale>
<asrwt>0</asrwt>
<pdfrwt beam="1">  1       21 0.47942283E-02 0.30000000E+03</pdfrwt>
<pdfrwt beam="2">0</pdfrwt>
<totfact> 0.30941822E+04</totfact>
</mgrwt>
</event>
<event>
 6    1  0.6377696E-002  0.3000000E+03  0.7818608E-02  0.1093470E+00
         21   -1    0    0  501  502  0.00000000000E+00  0.00000000000E+00  0.22902044849E+01  0.22902044849E+01  0.00000000000E+00 0. -1.
         13   -1    0    0    0    0 -0.00000000000E+00 -0.00000000000E+00 -0.10000000000E+04  0.10000000000E+04  0.00000000000E+00 0.  1.
    9000005    2    1    2  501    0  0.28019835158E+02 -0.38568538407E+02 -0.53665891746E+03  0.53878124505E+03  0.31293794257E+01 0.  0.
         13    1    3    3    0    0  0.19351080142E+02 -0.24294245391E+02 -0.35544345238E+03  0.35679787345E+03  0.00000000000E+00 0.  1.
          1    1    3    3  501    0  0.86687550161E+01 -0.14274293016E+02 -0.18121546508E+03  0.18198337160E+03  0.00000000000E+00 0.  1.
         -1    1    1    2    0  502 -0.28019835158E+02  0.38568538407E+02 -0.46105087806E+03  0.46350895943E+03  0.00000000000E+00 0. -1.
<mgrwt>
<rscale>  1 0.30000000E+03</rscale>
<asrwt>0</asrwt>
<pdfrwt beam="1">  1       21 0.83280339E-02 0.30000000E+03</pdfrwt>
<pdfrwt beam="2">0</pdfrwt>
<totfact> 0.11902295E+04</totfact>
</mgrwt>
</event>
<event>
 6    1  0.6377696E-002  0.3000000E+03  0.7818608E-02  0.1093470E+00
         21   -1    0    0  501  502  0.00000000000E+00  0.00000000000E+00  0.97802944400E+00  0.97802944400E+00  0.00000000000E+00 0. -1.
         13   -1    0    0    0    0 -0.00000000000E+00 -0.00000000000E+00 -0.10000000000E+04  0.10000000000E+04  0.00000000000E+00 0.  1.
    9000005    2    1    2  501    0  0.30483851161E+02  0.48979411470E+01 -0.42927108864E+03  0.43039120655E+03  0.31093616228E+01 0.  0.
         13    1    3    3    0    0  0.22526114621E+02  0.44125902631E+01 -0.33334735900E+03  0.33413673630E+03  0.00000000000E+00 0.  1.
          1    1    3    3  501    0  0.79577365400E+01  0.48535088388E+00 -0.95923729634E+02  0.96254470250E+02  0.00000000000E+00 0.  1.
         -1    1    1    2    0  502 -0.30483851161E+02 -0.48979411470E+01 -0.56975088192E+03  0.57058682289E+03  0.00000000000E+00 0. -1.
<mgrwt>
<rscale>  1 0.30000000E+03</rscale>
<asrwt>0</asrwt>
<pdfrwt beam="1">  1       21 0.35564782E-02 0.30000000E+03</pdfrwt>
<pdfrwt beam="2">0</pdfrwt>
<totfact> 0.51224359E+04</totfact>
</mgrwt>
</event>
<event>
 6    1  0.6377696E-002  0.3000000E+03  0.7818608E-02  0.1093470E+00
         21   -1    0    0  501  502  0.00000000000E+00  0.00000000000E+00  0.15663997586E+01  0.15663997586E+01  0.00000000000E+00 0. -1.
         13   -1    0    0    0    0 -0.00000000000E+00 -0.00000000000E+00 -0.10000000000E+04  0.10000000000E+04  0.00000000000E+00 0.  1.
    9000005    2    1    2  501    0 -0.23097910692E+02  0.30369791623E+02 -0.37135164712E+03  0.37332471565E+03  0.36687565401E+01 0.  0.
         13    1    3    3    0    0 -0.11663679518E+02  0.12923388105E+02 -0.15829624430E+03  0.15925060860E+03  0.00000000000E+00 0.  1.
          3    1    3    3  501    0 -0.11434231174E+02  0.17446403518E+02 -0.21305540281E+03  0.21407410704E+03  0.00000000000E+00 0.  1.
         -3    1    1    2    0  502  0.23097910692E+02 -0.30369791623E+02 -0.62708195313E+03  0.62824168411E+03  0.00000000000E+00 0. -1.
<mgrwt>
<rscale>  1 0.30000000E+03</rscale>
<asrwt>0</asrwt>
<pdfrwt beam="1">  1       21 0.56960111E-02 0.30000000E+03</pdfrwt>
<pdfrwt beam="2">0</pdfrwt>
<totfact> 0.23045984E+04</totfact>
</mgrwt>
</event>
<event>
 6    1  0.6377696E-002  0.3000000E+03  0.7818608E-02  0.1093470E+00
         21   -1    0    0  501  502  0.00000000000E+00  0.00000000000E+00  0.14278716428E+01  0.14278716428E+01  0.00000000000E+00 0. -1.
         13   -1    0    0    0    0 -0.00000000000E+00 -0.00000000000E+00 -0.10000000000E+04  0.10000000000E+04  0.00000000000E+00 0.  1.
    9000005    2    1    2  501    0  0.37132978832E+02  0.73663837570E+00 -0.58747966926E+03  0.58866109648E+03  0.31818171575E+01 0.  0.
         13    1    3    3    0    0  0.33846795866E+02  0.15497982127E+01 -0.53032920076E+03  0.53141045214E+03  0.00000000000E+00 0.  1.
          3    1    3    3  501    0  0.32861829653E+01 -0.81315983703E+00 -0.57150468498E+02  0.57250644336E+02  0.00000000000E+00 0.  1.
         -1    1    1    2    0  502 -0.37132978832E+02 -0.73663837570E+00 -0.41109245910E+03  0.41276677517E+03  0.00000000000E+00 0. -1.
<mgrwt>
<rscale>  1 0.30000000E+03</rscale>
<asrwt>0</asrwt>
<pdfrwt beam="1">  1       21 0.51922715E-02 0.30000000E+03</pdfrwt>
<pdfrwt beam="2">0</pdfrwt>
<totfact> 0.27008419E+04</totfact>
</mgrwt>
</event>
<event>
 6    1  0.6377696E-002  0.3000000E+03  0.7818608E-02  0.1093470E+00
         21   -1    0    0  501  502  0.00000000000E+00  0.00000000000E+00  0.72448360025E+01  0.72448360025E+01  0.00000000000E+00 0. -1.
         13   -1    0    0    0    0 -0.00000000000E+00 -0.00000000000E+00 -0.10000000000E+04  0.10000000000E+04  0.00000000000E+00 0.  1.
    9000005    2    1    2  501    0  0.63614345483E+02  0.50157775777E+02 -0.65051298075E+03  0.65554567561E+03  0.32260305638E+01 0.  0.
         13    1    3    3    0    0  0.52729841493E+02  0.42765730764E+02 -0.55072791253E+03  0.55489690714E+03  0.00000000000E+00 0.  1.
          1    1    3    3  501    0  0.10884503990E+02  0.73920450122E+01 -0.99785068219E+02  0.10064876848E+03  0.00000000000E+00 0.  1.
         -3    1    1    2    0  502 -0.63614345483E+02 -0.50157775777E+02 -0.34224218325E+03  0.35169916039E+03  0.00000000000E+00 0. -1.
<mgrwt>
<rscale>  1 0.30000000E+03</rscale>
<asrwt>0</asrwt>
<pdfrwt beam="1">  1       21 0.26344914E-01 0.30000000E+03</pdfrwt>
<pdfrwt beam="2">0</pdfrwt>
<totfact> 0.14070250E+03</totfact>
</mgrwt>
</event>
<event>
 6    1  0.6377696E-002  0.3000000E+03  0.7818608E-02  0.1093470E+00
         21   -1    0    0  501  502  0.00000000000E+00  0.00000000000E+00  0.13184798181E+01  0.13184798181E+01  0.00000000000E+00 0. -1.
         13   -1    0    0    0    0 -0.00000000000E+00 -0.00000000000E+00 -0.10000000000E+04  0.10000000000E+04  0.00000000000E+00 0.  1.
    9000005    2    1    2  501    0 -0.13185260506E+02  0.27963508910E+02 -0.24006653845E+03  0.24207378973E+03  0.34594600405E+01 0.  0.
         13    1    3    3    0    0 -0.13239903854E+02  0.27124737770E+02 -0.22997256180E+03  0.23194487629E+03  0.00000000000E+00 0.  1.
          3    1    3    3  501    0  0.54643348777E-01  0.83877113965E+00 -0.10093976649E+02  0.10128913442E+02  0.00000000000E+00 0.  1.
         -3    1    1    2    0  502  0.13185260506E+02 -0.27963508910E+02 -0.75861498173E+03  0.75924469009E+03  0.00000000000E+00 0. -1.
<mgrwt>
<rscale>  1 0.30000000E+03</rscale>
<asrwt>0</asrwt>
<pdfrwt beam="1">  1       21 0.47944822E-02 0.30000000E+03</pdfrwt>
<pdfrwt beam="2">0</pdfrwt>
<totfact> 0.30939035E+04</totfact>
</mgrwt>
</event>
<event>
 6    1  0.6377696E-002  0.3000000E+03  0.7818608E-02  0.1093470E+00
         21   -1    0    0  501  502  0.00000000000E+00  0.00000000000E+00  0.34568550951E+01  0.34568550951E+01  0.00000000000E+00 0. -1.
         13   -1    0    0    0    0 -0.00000000000E+00 -0.00000000000E+00 -0.10000000000E+04  0.10000000000E+04  0.00000000000E+00 0.  1.
    9000005    2    1    2  501    0  0.69649167111E+01 -0.47444505179E+02 -0.78842047572E+03  0.78988125591E+03  0.24618640741E+01 0.  0.
         13    1    3    3    0    0  0.20904779326E+01 -0.80404447647E+01 -0.13261220988E+03  0.13287218316E+03  0.00000000000E+00 0.  1.
          1    1    3    3  501    0  0.48744387784E+01 -0.39404060415E+02 -0.65580826584E+03  0.65700907275E+03  0.00000000000E+00 0.  1.
         -3    1    1    2    0  502 -0.69649167111E+01  0.47444505179E+02 -0.20812266919E+03  0.21357559918E+03  0.00000000000E+00 0. -1.
<mgrwt>
<rscale>  1 0.30000000E+03</rscale>
<asrwt>0</asrwt>
<pdfrwt beam="1">  1       21 0.12570409E-01 0.30000000E+03</pdfrwt>
<pdfrwt beam="2">0</pdfrwt>
<totfact> 0.56951211E+03</totfact>
</mgrwt>
</event>
<event>
 6    1  0.6377696E-002  0.3000000E+03  0.7818608E-02  0.1093470E+00
         21   -1    0    0  501  502  0.00000000000E+00  0.00000000000E+00  0.32591118697E+01  0.32591118697E+01  0.00000000000E+00 0. -1.
         13   -1    0    0    0    0 -0.00000000000E+00 -0.00000000000E+00 -0.10000000000E+04  0.10000000000E+04  0.00000000000E+00 0.  1.
    9000005    2    1    2  501    0 -0.11009858622E+02 -0.53562799511E+02 -0.64096812952E+03  0.64330849547E+03  0.39353275973E+01 0.  0.
         13    1    3    3    0    0 -0.58359003347E+01 -0.21971691030E+02 -0.28328554086E+03  0.28419625367E+03  0.00000000000E+00 0.  1.
          1    1    3    3  501    0 -0.51739582875E+01 -0.31591108481E+02 -0.35768258866E+03  0.35911224180E+03  0.00000000000E+00 0.  1.
         -1    1    1    2    0  502  0.11009858622E+02  0.53562799511E+02 -0.35577275861E+03  0.35995061640E+03  0.00000000000E+00 0. -1.
<mgrwt>
<rscale>  1 0.30000000E+03</rscale>
<asrwt>0</asrwt>
<pdfrwt beam="1">  1       21 0.11851341E-01 0.30000000E+03</pdfrwt>
<pdfrwt beam="2">0</pdfrwt>
<totfact> 0.63388199E+03</totfact>
</mgrwt>
</event>
<event>
 6    1  0.6377696E-002  0.3000000E+03  0.7818608E-02  0.1093470E+00
         21   -1    0    0  501  502  0.00000000000E+00  0.00000000000E+00  0.13239767693E+01  0.13239767693E+01  0.00000000000E+00 0. -1.
         13   -1    0    0    0    0 -0.00000000000E+00 -0.00000000000E+00 -0.10000000000E+04  0.10000000000E+04  0.00000000000E+00 0.  1.
    9000005    2    1    2  501    0  0.84354175542E+01 -0.32429237832E+02 -0.30745342029E+03  0.30928965786E+03  0.31104780824E+01 0.  0.
         13    1    3    3    0    0  0.59354878761E+01 -0.23548277716E+02 -0.23489711620E+03  0.23614911941E+03  0.00000000000E+00 0.  1.
          1    1    3    3  501    0  0.24999296781E+01 -0.88809601165E+01 -0.72556304093E+02  0.73140538449E+02  0.00000000000E+00 0.  1.
         -3    1    1    2    0  502 -0.84354175542E+01  0.32429237832E+02 -0.69122260294E+03  0.69203431891E+03  0.00000000000E+00 0. -1.
<mgrwt>
<rscale>  1 0.30000000E+03</rscale>
<asrwt>0</asrwt>
<pdfrwt beam="1">  1       21 0.48144711E-02 0.30000000E+03</pdfrwt>
<pdfrwt beam="2">0</pdfrwt>
<totfact> 0.30720767E+04</totfact>
</mgrwt>
</event>
<event>
 6    1  0.6377696E-002  0.3000000E+03  0.7818608E-02  0.1093470E+00
         21   -1    0    0  501  502  0.00000000000E+00  0.00000000000E+00  0.18404159787E+01  0.18404159787E+01  0.00000000000E+00 0. -1.
         13   -1    0    0    0    0 -0.00000000000E+00 -0.00000000000E+00 -0.10000000000E+04  0.10000000000E+04  0.00000000000E+00 0.  1.
    9000005    2    1    2  501    0 -0.41594621600E+02 -0.91110114728E+01 -0.44460814937E+03  0.44665367814E+03  0.31588964515E+01 0.  0.
         13    1    3    3    0    0 -0.19171313883E+02 -0.33825388402E+01 -0.21739177908E+03  0.21826169260E+03  0.00000000000E+00 0.  1.
          1    1    3    3  501    0 -0.22423307716E+02 -0.57284726326E+01 -0.22721637030E+03  0.22839198554E+03  0.00000000000E+00 0.  1.
         -3    1    1    2    0  502  0.41594621600E+02  0.91110114728E+01 -0.55355143465E+03  0.55518673784E+03  0.00000000000E+00 0. -1.
<mgrwt>
<rscale>  1 0.30000000E+03</rscale>
<asrwt>0</asrwt>
<pdfrwt beam="1">  1       21 0.66924359E-02 0.30000000E+03</pdfrwt>
<pdfrwt beam="2">0</pdfrwt>
<totfact> 0.17445331E+04</totfact>
</mgrwt>
</event>
<event>
 6    1  0.6377696E-002  0.3000000E+03  0.7818608E-02  0.1093470E+00
         21   -1    0    0  501  502  0.00000000000E+00  0.00000000000E+00  0.81991486552E+01  0.81991486552E+01  0.00000000000E+00 0. -1.
         13   -1    0    0    0    0 -0.00000000000E+00 -0.00000000000E+00 -0.10000000000E+04  0.10000000000E+04  0.00000000000E+00 0.  1.
    9000005    2    1    2  501    0  0.86445465000E+02  0.63664561705E+01 -0.64122858292E+03  0.64706999506E+03  0.34832137766E+01 0.  0.
         13    1    3    3    0    0  0.79725186862E+02  0.55875006454E+01 -0.58413562646E+03  0.58957760786E+03  0.00000000000E+00 0.  1.
          3    1    3    3  501    0  0.67202781382E+01  0.77895552510E+00 -0.57092956454E+02  0.57492387206E+02  0.00000000000E+00 0.  1.
         -3    1    1    2    0  502 -0.86445465000E+02 -0.63664561705E+01 -0.35057226843E+03  0.36112915359E+03  0.00000000000E+00 0. -1.
<mgrwt>
<rscale>  1 0.30000000E+03</rscale>
<asrwt>0</asrwt>
<pdfrwt beam="1">  1       21 0.29815149E-01 0.30000000E+03</pdfrwt>
<pdfrwt beam="2">0</pdfrwt>
<totfact> 0.11008004E+03</totfact>
</mgrwt>
</event>
<event>
 6    1  0.6377696E-002  0.3000000E+03  0.7818608E-02  0.1093470E+00
         21   -1    0    0  501  502  0.00000000000E+00  0.00000000000E+00  0.10672114381E+01  0.10672114381E+01  0.00000000000E+00 0. -1.
         13   -1    0    0    0    0 -0.00000000000E+00 -0.00000000000E+00 -0.10000000000E+04  0.10000000000E+04  0.00000000000E+00 0.  1.
    9000005    2    1    2  501    0  0.30702403202E+02  0.51661696290E+01 -0.64848640573E+03  0.64924055794E+03  0.30588866947E+01 0.  0.
         13    1    3    3    0    0  0.28122624011E+02  0.54972946562E+01 -0.58642376202E+03  0.58712343752E+03  0.00000000000E+00 0.  1.
          1    1    3    3  501    0  0.25797791911E+01 -0.33112502717E+00 -0.62062643714E+02  0.62117120420E+02  0.00000000000E+00 0.  1.
         -3    1    1    2    0  502 -0.30702403202E+02 -0.51661696290E+01 -0.35044638283E+03  0.35182665349E+03  0.00000000000E+00 0. -1.
<mgrwt>
<rscale>  1 0.30000000E+03</rscale>
<asrwt>0</asrwt>
<pdfrwt beam="1">  1       21 0.38807770E-02 0.30000000E+03</pdfrwt>
<pdfrwt beam="2">0</pdfrwt>
<totfact> 0.44243814E+04</totfact>
</mgrwt>
</event>
<event>
 6    1  0.6377696E-002  0.3000000E+03  0.7818608E-02  0.1093470E+00
         21   -1    0    0  501  502  0.00000000000E+00  0.00000000000E+00  0.14321674391E+01  0.14321674391E+01  0.00000000000E+00 0. -1.
         13   -1    0    0    0    0 -0.00000000000E+00 -0.00000000000E+00 -0.10000000000E+04  0.10000000000E+04  0.00000000000E+00 0.  1.
    9000005    2    1    2  501    0  0.33049655178E+02  0.84367817283E+01 -0.28795880204E+03  0.29000497282E+03  0.43764816593E+01 0.  0.
         13    1    3    3    0    0  0.97069929096E+01  0.45624283079E+01 -0.88612023397E+02  0.89258793146E+02  0.00000000000E+00 0.  1.
          1    1    3    3  501    0  0.23342662268E+02  0.38743534204E+01 -0.19934677864E+03  0.20074617967E+03  0.00000000000E+00 0.  1.
         -1    1    1    2    0  502 -0.33049655178E+02 -0.84367817283E+01 -0.71060903052E+03  0.71142719462E+03  0.00000000000E+00 0. -1.
<mgrwt>
<rscale>  1 0.30000000E+03</rscale>
<asrwt>0</asrwt>
<pdfrwt beam="1">  1       21 0.52078926E-02 0.30000000E+03</pdfrwt>
<pdfrwt beam="2">0</pdfrwt>
<totfact> 0.26870171E+04</totfact>
</mgrwt>
</event>
<event>
 6    1  0.6377696E-002  0.3000000E+03  0.7818608E-02  0.1093470E+00
         21   -1    0    0  501  502  0.00000000000E+00  0.00000000000E+00  0.16978365883E+01  0.16978365883E+01  0.00000000000E+00 0. -1.
         13   -1    0    0    0    0 -0.00000000000E+00 -0.00000000000E+00 -0.10000000000E+04  0.10000000000E+04  0.00000000000E+00 0.  1.
    9000005    2    1    2  501    0 -0.38651507824E+02 -0.61707831861E+00 -0.32805737755E+03  0.33033921944E+03  0.28349767884E+01 0.  0.
         13    1    3    3    0    0 -0.18661147028E+02 -0.49821250580E+00 -0.14649250721E+03  0.14767715223E+03  0.00000000000E+00 0.  1.
          3    1    3    3  501    0 -0.19990360796E+02 -0.11886581281E+00 -0.18156487035E+03  0.18266206721E+03  0.00000000000E+00 0.  1.
         -3    1    1    2    0  502  0.38651507824E+02  0.61707831861E+00 -0.67024478586E+03  0.67135861715E+03  0.00000000000E+00 0. -1.
<mgrwt>
<rscale>  1 0.30000000E+03</rscale>
<asrwt>0</asrwt>
<pdfrwt beam="1">  1       21 0.61739642E-02 0.30000000E+03</pdfrwt>
<pdfrwt beam="2">0</pdfrwt>
<totfact> 0.20057573E+04</totfact>
</mgrwt>
</event>
<event>
 6    1  0.6377696E-002  0.3000000E+03  0.7818608E-02  0.1093470E+00
         21   -1    0    0  501  502  0.00000000000E+00  0.00000000000E+00  0.12547466101E+01  0.12547466101E+01  0.00000000000E+00 0. -1.
         13   -1    0    0    0    0 -0.00000000000E+00 -0.00000000000E+00 -0.10000000000E+04  0.10000000000E+04  0.00000000000E+00 0.  1.
    9000005    2    1    2  501    0  0.28020854653E+02 -0.20411664271E+02 -0.59635559841E+03  0.59737451837E+03  0.38093439213E+01 0.  0.
         13    1    3    3    0    0  0.14708485151E+02 -0.83590362936E+01 -0.28901256802E+03  0.28950730128E+03  0.00000000000E+00 0.  1.
          1    1    3    3  501    0  0.13312369502E+02 -0.12052627977E+02 -0.30734303039E+03  0.30786721708E+03  0.00000000000E+00 0.  1.
         -1    1    1    2    0  502 -0.28020854653E+02  0.20411664271E+02 -0.40238965498E+03  0.40388022824E+03  0.00000000000E+00 0. -1.
<mgrwt>
<rscale>  1 0.30000000E+03</rscale>
<asrwt>0</asrwt>
<pdfrwt beam="1">  1       21 0.45627246E-02 0.30000000E+03</pdfrwt>
<pdfrwt beam="2">0</pdfrwt>
<totfact> 0.33657788E+04</totfact>
</mgrwt>
</event>
<event>
 6    1  0.6377696E-002  0.3000000E+03  0.7818608E-02  0.1093470E+00
         21   -1    0    0  501  502  0.00000000000E+00  0.00000000000E+00  0.12922030575E+01  0.12922030575E+01  0.00000000000E+00 0. -1.
         13   -1    0    0    0    0 -0.00000000000E+00 -0.00000000000E+00 -0.10000000000E+04  0.10000000000E+04  0.00000000000E+00 0.  1.
    9000005    2    1    2  501    0 -0.14290180663E+02 -0.32756889209E+02 -0.49886094275E+03  0.50016936312E+03  0.54706996984E+01 0.  0.
         13    1    3    3    0    0 -0.12975772014E+02 -0.28199023665E+02 -0.45348412526E+03  0.45454527547E+03  0.00000000000E+00 0.  1.
          3    1    3    3  501    0 -0.13144086487E+01 -0.45578655444E+01 -0.45376817489E+02  0.45624087650E+02  0.00000000000E+00 0.  1.
         -3    1    1    2    0  502  0.14290180663E+02  0.32756889209E+02 -0.49984685420E+03  0.50112283993E+03  0.00000000000E+00 0. -1.
<mgrwt>
<rscale>  1 0.30000000E+03</rscale>
<asrwt>0</asrwt>
<pdfrwt beam="1">  1       21 0.46989301E-02 0.30000000E+03</pdfrwt>
<pdfrwt beam="2">0</pdfrwt>
<totfact> 0.32016723E+04</totfact>
</mgrwt>
</event>
<event>
 6    1  0.6377696E-002  0.3000000E+03  0.7818608E-02  0.1093470E+00
         21   -1    0    0  501  502  0.00000000000E+00  0.00000000000E+00  0.11266248447E+01  0.11266248447E+01  0.00000000000E+00 0. -1.
         13   -1    0    0    0    0 -0.00000000000E+00 -0.00000000000E+00 -0.10000000000E+04  0.10000000000E+04  0.00000000000E+00 0.  1.
    9000005    2    1    2  501    0 -0.13228520777E+02 -0.30773133261E+02 -0.50467013570E+03  0.50578954630E+03  0.30232080251E+01 0.  0.
         13    1    3    3    0    0 -0.58648394233E+01 -0.13218557623E+02 -0.19576526640E+03  0.19629866565E+03  0.00000000000E+00 0.  1.
          3    1    3    3  501    0 -0.73636813535E+01 -0.17554575638E+02 -0.30890486930E+03  0.30949088065E+03  0.00000000000E+00 0.  1.
         -1    1    1    2    0  502  0.13228520777E+02  0.30773133261E+02 -0.49420323945E+03  0.49533707854E+03  0.00000000000E+00 0. -1.
<mgrwt>
<rscale>  1 0.30000000E+03</rscale>
<asrwt>0</asrwt>
<pdfrwt beam="1">  1       21 0.40968263E-02 0.30000000E+03</pdfrwt>
<pdfrwt beam="2">0</pdfrwt>
<totfact> 0.40386337E+04</totfact>
</mgrwt>
</event>
<event>
 6    1  0.6377696E-002  0.3000000E+03  0.7818608E-02  0.1093470E+00
         21   -1    0    0  501  502  0.00000000000E+00  0.00000000000E+00  0.15231682592E+01  0.15231682592E+01  0.00000000000E+00 0. -1.
         13   -1    0    0    0    0 -0.00000000000E+00 -0.00000000000E+00 -0.10000000000E+04  0.10000000000E+04  0.00000000000E+00 0.  1.
    9000005    2    1    2  501    0  0.32019768829E+02 -0.21169096892E+02 -0.41415649872E+03  0.41594341465E+03  0.31499995431E+01 0.  0.
         13    1    3    3    0    0  0.15106121470E+01 -0.28701461377E+00 -0.17904727901E+02  0.17970631811E+02  0.00000000000E+00 0.  1.
          1    1    3    3  501    0  0.30509156682E+02 -0.20882082278E+02 -0.39625177082E+03  0.39797278284E+03  0.00000000000E+00 0.  1.
         -3    1    1    2    0  502 -0.32019768829E+02  0.21169096892E+02 -0.58432033302E+03  0.58557975361E+03  0.00000000000E+00 0. -1.
<mgrwt>
<rscale>  1 0.30000000E+03</rscale>
<asrwt>0</asrwt>
<pdfrwt beam="1">  1       21 0.55388053E-02 0.30000000E+03</pdfrwt>
<pdfrwt beam="2">0</pdfrwt>
<totfact> 0.24180798E+04</totfact>
</mgrwt>
</event>
<event>
 6    1  0.1353697E+000  0.3000000E+03  0.7818608E-02  0.1093470E+00
         21   -1    0    0  501  502  0.00000000000E+00  0.00000000000E+00  0.29835589198E+01  0.29835589198E+01  0.00000000000E+00 0. -1.
         13   -1    0    0    0    0 -0.00000000000E+00 -0.00000000000E+00 -0.10000000000E+04  0.10000000000E+04  0.00000000000E+00 0.  1.
    9000005    2    1    2  501    0  0.13834556429E+02 -0.43630156009E+02 -0.77187814517E+03  0.77323970645E+03  0.29643153683E+01 0.  0.
         13    1    3    3    0    0  0.23344465182E+01 -0.11249480319E+02 -0.18481531492E+03  0.18517208504E+03  0.00000000000E+00 0.  1.
          3    1    3    3  501    0  0.11500109911E+02 -0.32380675690E+02 -0.58706283025E+03  0.58806762141E+03  0.00000000000E+00 0.  1.
         -1    1    1    2    0  502 -0.13834556429E+02  0.43630156009E+02 -0.22513829591E+03  0.22974385247E+03  0.00000000000E+00 0. -1.
<mgrwt>
<rscale>  1 0.30000000E+03</rscale>
<asrwt>0</asrwt>
<pdfrwt beam="1">  1       21 0.10849328E-01 0.30000000E+03</pdfrwt>
<pdfrwt beam="2">0</pdfrwt>
<totfact> 0.74341175E+03</totfact>
</mgrwt>
</event>
<event>
 6    1  0.6377696E-002  0.3000000E+03  0.7818608E-02  0.1093470E+00
         21   -1    0    0  501  502  0.00000000000E+00  0.00000000000E+00  0.24718286722E+01  0.24718286722E+01  0.00000000000E+00 0. -1.
         13   -1    0    0    0    0 -0.00000000000E+00 -0.00000000000E+00 -0.10000000000E+04  0.10000000000E+04  0.00000000000E+00 0.  1.
    9000005    2    1    2  501    0 -0.20231415140E+02 -0.39681073803E+02 -0.72075215657E+03  0.72213478131E+03  0.33276726230E+01 0.  0.
         13    1    3    3    0    0 -0.91666010684E+01 -0.14907945130E+02 -0.26926274018E+03  0.26983086675E+03  0.00000000000E+00 0.  1.
          3    1    3    3  501    0 -0.11064814072E+02 -0.24773128674E+02 -0.45148941639E+03  0.45230391456E+03  0.00000000000E+00 0.  1.
         -1    1    1    2    0  502  0.20231415140E+02  0.39681073803E+02 -0.27677601476E+03  0.28033704736E+03  0.00000000000E+00 0. -1.
<mgrwt>
<rscale>  1 0.30000000E+03</rscale>
<asrwt>0</asrwt>
<pdfrwt beam="1">  1       21 0.89884869E-02 0.30000000E+03</pdfrwt>
<pdfrwt beam="2">0</pdfrwt>
<totfact> 0.10401651E+04</totfact>
</mgrwt>
</event>
<event>
 6    1  0.6377696E-002  0.3000000E+03  0.7818608E-02  0.1093470E+00
         21   -1    0    0  501  502  0.00000000000E+00  0.00000000000E+00  0.19021580436E+01  0.19021580436E+01  0.00000000000E+00 0. -1.
         13   -1    0    0    0    0 -0.00000000000E+00 -0.00000000000E+00 -0.10000000000E+04  0.10000000000E+04  0.00000000000E+00 0.  1.
    9000005    2    1    2  501    0  0.24862029216E+02  0.35641699624E+02 -0.53154859623E+03  0.53333343316E+03  0.34913501828E+01 0.  0.
         13    1    3    3    0    0  0.10921997510E+02  0.17868079711E+02 -0.24105415789E+03  0.24196211550E+03  0.00000000000E+00 0.  1.
          3    1    3    3  501    0  0.13940031705E+02  0.17773619913E+02 -0.29049443834E+03  0.29137131766E+03  0.00000000000E+00 0.  1.
         -1    1    1    2    0  502 -0.24862029216E+02 -0.35641699624E+02 -0.46654924573E+03  0.46856872488E+03  0.00000000000E+00 0. -1.
<mgrwt>
<rscale>  1 0.30000000E+03</rscale>
<asrwt>0</asrwt>
<pdfrwt beam="1">  1       21 0.69169529E-02 0.30000000E+03</pdfrwt>
<pdfrwt beam="2">0</pdfrwt>
<totfact> 0.16473767E+04</totfact>
</mgrwt>
</event>
<event>
 6    1  0.6377696E-002  0.3000000E+03  0.7818608E-02  0.1093470E+00
         21   -1    0    0  501  502  0.00000000000E+00  0.00000000000E+00  0.12380648345E+01  0.12380648345E+01  0.00000000000E+00 0. -1.
         13   -1    0    0    0    0 -0.00000000000E+00 -0.00000000000E+00 -0.10000000000E+04  0.10000000000E+04  0.00000000000E+00 0.  1.
    9000005    2    1    2  501    0  0.31986301830E+02  0.12829999672E+02 -0.59494403342E+03  0.59595220255E+03  0.35906026808E+01 0.  0.
         13    1    3    3    0    0  0.35429609756E+01  0.20926445564E+01 -0.89626646431E+02  0.89721053740E+02  0.00000000000E+00 0.  1.
          3    1    3    3  501    0  0.28443340855E+02  0.10737355115E+02 -0.50531738699E+03  0.50623114881E+03  0.00000000000E+00 0.  1.
         -1    1    1    2    0  502 -0.31986301830E+02 -0.12829999672E+02 -0.40381790174E+03  0.40528586228E+03  0.00000000000E+00 0. -1.
<mgrwt>
<rscale>  1 0.30000000E+03</rscale>
<asrwt>0</asrwt>
<pdfrwt beam="1">  1       21 0.45020634E-02 0.30000000E+03</pdfrwt>
<pdfrwt beam="2">0</pdfrwt>
<totfact> 0.34431393E+04</totfact>
</mgrwt>
</event>
