<event>
 5    1  0.2344661E-004  0.6595857E+03  0.7818608E-02  0.9788957E-01
         13   -1    0    0    0    0  0.00000000000E+00  0.00000000000E+00  0.10000000000E+04  0.10000000000E+04  0.00000000000E+00 0. -1.
          2   -1    0    0  501    0 -0.00000000000E+00 -0.00000000000E+00 -0.10876332513E+03  0.10876332513E+03  0.00000000000E+00 0. -1.
    9000006    2    1    2  501    0  0.00000000000E+00  0.00000000000E+00  0.89123667487E+03  0.11087633251E+04  0.65958570369E+03 0.  0.
         13    1    3    3    0    0  0.29379307921E+03 -0.35185058928E+02  0.69043885701E+03  0.75117120354E+03  0.00000000000E+00 0. -1.
          4    1    3    3  501    0 -0.29379307921E+03  0.35185058928E+02  0.20079781786E+03  0.35759212159E+03  0.00000000000E+00 0. -1.
<mgrwt>
<rscale>  0 0.65958570E+03</rscale>
<asrwt>0</asrwt>
<pdfrwt beam="1">0</pdfrwt>
<pdfrwt beam="2">  1        2 0.39550383E+00 0.65958570E+03</pdfrwt>
<totfact> 0.41371294E+00</totfact>
</mgrwt>
</event>
<event>
 5    1  0.2344661E-004  0.6509315E+03  0.7818608E-02  0.9805033E-01
         13   -1    0    0    0    0  0.00000000000E+00  0.00000000000E+00  0.10000000000E+04  0.10000000000E+04  0.00000000000E+00 0. -1.
          2   -1    0    0  501    0 -0.00000000000E+00 -0.00000000000E+00 -0.10592794900E+03  0.10592794900E+03  0.00000000000E+00 0. -1.
    9000006    2    1    2  501    0  0.00000000000E+00  0.00000000000E+00  0.89407205100E+03  0.11059279490E+04  0.65093148335E+03 0.  0.
         13    1    3    3    0    0  0.23205358591E+02  0.20447848569E+03  0.18640408525E+02  0.20663350311E+03  0.00000000000E+00 0. -1.
          4    1    3    3  501    0 -0.23205358591E+02 -0.20447848569E+03  0.87543164247E+03  0.89929444589E+03  0.00000000000E+00 0. -1.
<mgrwt>
<rscale>  0 0.65093148E+03</rscale>
<asrwt>0</asrwt>
<pdfrwt beam="1">0</pdfrwt>
<pdfrwt beam="2">  1        2 0.38519335E+00 0.65093148E+03</pdfrwt>
<totfact> 0.45222655E+00</totfact>
</mgrwt>
</event>
<event>
 5    1  0.2344661E-004  0.6498790E+03  0.7818608E-02  0.9807006E-01
         13   -1    0    0    0    0  0.00000000000E+00  0.00000000000E+00  0.10000000000E+04  0.10000000000E+04  0.00000000000E+00 0. -1.
          2   -1    0    0  501    0 -0.00000000000E+00 -0.00000000000E+00 -0.10558567126E+03  0.10558567126E+03  0.00000000000E+00 0. -1.
    9000006    2    1    2  501    0  0.00000000000E+00  0.00000000000E+00  0.89441432874E+03  0.11055856713E+04  0.64987897723E+03 0.  0.
         13    1    3    3    0    0  0.19650227063E+02 -0.24335663486E+03  0.82427479041E+02  0.25768754812E+03  0.00000000000E+00 0. -1.
          4    1    3    3  501    0 -0.19650227063E+02  0.24335663486E+03  0.81198684970E+03  0.84789812315E+03  0.00000000000E+00 0. -1.
<mgrwt>
<rscale>  0 0.64987898E+03</rscale>
<asrwt>0</asrwt>
<pdfrwt beam="1">0</pdfrwt>
<pdfrwt beam="2">  1        2 0.38394871E+00 0.64987898E+03</pdfrwt>
<totfact> 0.45708881E+00</totfact>
</mgrwt>
</event>
<event>
 5    1  0.2344661E-004  0.6504285E+03  0.7818608E-02  0.9805975E-01
         13   -1    0    0    0    0  0.00000000000E+00  0.00000000000E+00  0.10000000000E+04  0.10000000000E+04  0.00000000000E+00 0. -1.
          2   -1    0    0  501    0 -0.00000000000E+00 -0.00000000000E+00 -0.10576430311E+03  0.10576430311E+03  0.00000000000E+00 0. -1.
    9000006    2    1    2  501    0  0.00000000000E+00  0.00000000000E+00  0.89423569689E+03  0.11057643031E+04  0.65042848373E+03 0.  0.
         13    1    3    3    0    0  0.16809151444E+03 -0.61277442438E+02  0.90881546395E+03  0.92625872719E+03  0.00000000000E+00 0. -1.
          4    1    3    3  501    0 -0.16809151444E+03  0.61277442438E+02 -0.14579767064E+02  0.17950557592E+03  0.00000000000E+00 0. -1.
<mgrwt>
<rscale>  0 0.65042848E+03</rscale>
<asrwt>0</asrwt>
<pdfrwt beam="1">0</pdfrwt>
<pdfrwt beam="2">  1        2 0.38459828E+00 0.65042848E+03</pdfrwt>
<totfact> 0.45454536E+00</totfact>
</mgrwt>
</event>
<event>
 5    1  0.2344661E-004  0.6516637E+03  0.7818608E-02  0.9803662E-01
         13   -1    0    0    0    0  0.00000000000E+00  0.00000000000E+00  0.10000000000E+04  0.10000000000E+04  0.00000000000E+00 0. -1.
          2   -1    0    0  501    0 -0.00000000000E+00 -0.00000000000E+00 -0.10616638190E+03  0.10616638190E+03  0.00000000000E+00 0. -1.
    9000006    2    1    2  501    0  0.00000000000E+00  0.00000000000E+00  0.89383361810E+03  0.11061663819E+04  0.65166366140E+03 0.  0.
         13    1    3    3    0    0 -0.18236442456E+03 -0.78002580113E+02  0.88571726689E+03  0.90765426387E+03  0.00000000000E+00 0. -1.
          4    1    3    3  501    0  0.18236442456E+03  0.78002580113E+02  0.81163512136E+01  0.19851211803E+03  0.00000000000E+00 0. -1.
<mgrwt>
<rscale>  0 0.65166366E+03</rscale>
<asrwt>0</asrwt>
<pdfrwt beam="1">0</pdfrwt>
<pdfrwt beam="2">  1        2 0.38606038E+00 0.65166366E+03</pdfrwt>
<totfact> 0.44886724E+00</totfact>
</mgrwt>
</event>
<event>
 5    1  0.2344661E-004  0.6616613E+03  0.7818608E-02  0.9785140E-01
         13   -1    0    0    0    0  0.00000000000E+00  0.00000000000E+00  0.10000000000E+04  0.10000000000E+04  0.00000000000E+00 0. -1.
          2   -1    0    0  501    0 -0.00000000000E+00 -0.00000000000E+00 -0.10944891226E+03  0.10944891226E+03  0.00000000000E+00 0. -1.
    9000006    2    1    2  501    0  0.00000000000E+00  0.00000000000E+00  0.89055108774E+03  0.11094489123E+04  0.66166127969E+03 0.  0.
         13    1    3    3    0    0  0.17898224274E+03 -0.19607042179E+03  0.77628504647E+03  0.82042472347E+03  0.00000000000E+00 0. -1.
          2    1    3    3  501    0 -0.17898224274E+03  0.19607042179E+03  0.11426604127E+03  0.28902418879E+03  0.00000000000E+00 0. -1.
<mgrwt>
<rscale>  0 0.66166128E+03</rscale>
<asrwt>0</asrwt>
<pdfrwt beam="1">0</pdfrwt>
<pdfrwt beam="2">  1        2 0.39799688E+00 0.66166128E+03</pdfrwt>
<totfact> 0.40485719E+00</totfact>
</mgrwt>
</event>
<event>
 5    1  0.2344661E-004  0.6255886E+03  0.7818608E-02  0.9853695E-01
         13   -1    0    0    0    0  0.00000000000E+00  0.00000000000E+00  0.10000000000E+04  0.10000000000E+04  0.00000000000E+00 0. -1.
          4   -1    0    0  501    0 -0.00000000000E+00 -0.00000000000E+00 -0.97840268388E+02  0.97840268388E+02  0.00000000000E+00 0. -1.
    9000006    2    1    2  501    0  0.00000000000E+00  0.00000000000E+00  0.90215973161E+03  0.10978402684E+04  0.62558858170E+03 0.  0.
         13    1    3    3    0    0 -0.76845702550E+02 -0.13299291764E+03  0.92926096061E+03  0.94186958282E+03  0.00000000000E+00 0. -1.
          2    1    3    3  501    0  0.76845702550E+02  0.13299291764E+03 -0.27101228994E+02  0.15597068556E+03  0.00000000000E+00 0. -1.
<mgrwt>
<rscale>  0 0.62558858E+03</rscale>
<asrwt>0</asrwt>
<pdfrwt beam="1">0</pdfrwt>
<pdfrwt beam="2">  1        4 0.35578354E+00 0.62558858E+03</pdfrwt>
<totfact> 0.63427633E-02</totfact>
</mgrwt>
</event>
<event>
 5    1  0.2344661E-004  0.6307498E+03  0.7818608E-02  0.9843587E-01
         13   -1    0    0    0    0  0.00000000000E+00  0.00000000000E+00  0.10000000000E+04  0.10000000000E+04  0.00000000000E+00 0. -1.
          2   -1    0    0  501    0 -0.00000000000E+00 -0.00000000000E+00 -0.99461324445E+02  0.99461324445E+02  0.00000000000E+00 0. -1.
    9000006    2    1    2  501    0  0.00000000000E+00  0.00000000000E+00  0.90053867555E+03  0.10994613244E+04  0.63074979015E+03 0.  0.
         13    1    3    3    0    0 -0.17014826710E+03  0.26464213303E+03  0.41226199232E+03  0.51859988593E+03  0.00000000000E+00 0. -1.
          2    1    3    3  501    0  0.17014826710E+03 -0.26464213303E+03  0.48827668323E+03  0.58086143852E+03  0.00000000000E+00 0. -1.
<mgrwt>
<rscale>  0 0.63074979E+03</rscale>
<asrwt>0</asrwt>
<pdfrwt beam="1">0</pdfrwt>
<pdfrwt beam="2">  1        2 0.36167831E+00 0.63074979E+03</pdfrwt>
<totfact> 0.55256014E+00</totfact>
</mgrwt>
</event>
<event>
 5    1  0.2344661E-004  0.6385385E+03  0.7818608E-02  0.9828527E-01
         13   -1    0    0    0    0  0.00000000000E+00  0.00000000000E+00  0.10000000000E+04  0.10000000000E+04  0.00000000000E+00 0. -1.
          2   -1    0    0  501    0 -0.00000000000E+00 -0.00000000000E+00 -0.10193286594E+03  0.10193286594E+03  0.00000000000E+00 0. -1.
    9000006    2    1    2  501    0  0.00000000000E+00  0.00000000000E+00  0.89806713406E+03  0.11019328659E+04  0.63853853741E+03 0.  0.
         13    1    3    3    0    0 -0.26397607664E+03  0.16316605624E+03  0.31958989734E+03  0.44547079975E+03  0.00000000000E+00 0. -1.
          4    1    3    3  501    0  0.26397607664E+03 -0.16316605624E+03  0.57847723672E+03  0.65646206620E+03  0.00000000000E+00 0. -1.
<mgrwt>
<rscale>  0 0.63853854E+03</rscale>
<asrwt>0</asrwt>
<pdfrwt beam="1">0</pdfrwt>
<pdfrwt beam="2">  1        2 0.37066575E+00 0.63853854E+03</pdfrwt>
<totfact> 0.51202686E+00</totfact>
</mgrwt>
</event>
<event>
 5    1  0.2344661E-004  0.6434990E+03  0.7818608E-02  0.9819055E-01
         13   -1    0    0    0    0  0.00000000000E+00  0.00000000000E+00  0.10000000000E+04  0.10000000000E+04  0.00000000000E+00 0. -1.
          2   -1    0    0  501    0 -0.00000000000E+00 -0.00000000000E+00 -0.10352272784E+03  0.10352272784E+03  0.00000000000E+00 0. -1.
    9000006    2    1    2  501    0  0.00000000000E+00  0.00000000000E+00  0.89647727216E+03  0.11035227278E+04  0.64349895988E+03 0.  0.
         13    1    3    3    0    0  0.16633985685E+02  0.31765758522E+02  0.99656285461E+03  0.99720773968E+03  0.00000000000E+00 0. -1.
          4    1    3    3  501    0 -0.16633985685E+02 -0.31765758522E+02 -0.10008558245E+03  0.10631498816E+03  0.00000000000E+00 0. -1.
<mgrwt>
<rscale>  0 0.64349896E+03</rscale>
<asrwt>0</asrwt>
<pdfrwt beam="1">0</pdfrwt>
<pdfrwt beam="2">  1        2 0.37644708E+00 0.64349896E+03</pdfrwt>
<totfact> 0.48741417E+00</totfact>
</mgrwt>
</event>
<event>
 5    1  0.2344661E-004  0.6702473E+03  0.7818608E-02  0.9769511E-01
         13   -1    0    0    0    0  0.00000000000E+00  0.00000000000E+00  0.10000000000E+04  0.10000000000E+04  0.00000000000E+00 0. -1.
          2   -1    0    0  501    0 -0.00000000000E+00 -0.00000000000E+00 -0.11230785969E+03  0.11230785969E+03  0.00000000000E+00 0. -1.
    9000006    2    1    2  501    0  0.00000000000E+00  0.00000000000E+00  0.88769214031E+03  0.11123078597E+04  0.67024729672E+03 0.  0.
         13    1    3    3    0    0 -0.11436485242E+03  0.21441443175E+03  0.82682077977E+03  0.86179201080E+03  0.00000000000E+00 0. -1.
          2    1    3    3  501    0  0.11436485242E+03 -0.21441443175E+03  0.60871360537E+02  0.25051584889E+03  0.00000000000E+00 0. -1.
<mgrwt>
<rscale>  0 0.67024730E+03</rscale>
<asrwt>0</asrwt>
<pdfrwt beam="1">0</pdfrwt>
<pdfrwt beam="2">  1        2 0.40839308E+00 0.67024730E+03</pdfrwt>
<totfact> 0.36973326E+00</totfact>
</mgrwt>
</event>
<event>
 5    1  0.2344661E-004  0.6499824E+03  0.7818608E-02  0.9806812E-01
         13   -1    0    0    0    0  0.00000000000E+00  0.00000000000E+00  0.10000000000E+04  0.10000000000E+04  0.00000000000E+00 0. -1.
          2   -1    0    0  501    0 -0.00000000000E+00 -0.00000000000E+00 -0.10561928685E+03  0.10561928685E+03  0.00000000000E+00 0. -1.
    9000006    2    1    2  501    0  0.00000000000E+00  0.00000000000E+00  0.89438071315E+03  0.11056192868E+04  0.64998242084E+03 0.  0.
         13    1    3    3    0    0 -0.24461150327E+02  0.21103870858E+03  0.28856687007E+02  0.21440240852E+03  0.00000000000E+00 0. -1.
          4    1    3    3  501    0  0.24461150327E+02 -0.21103870858E+03  0.86552402614E+03  0.89121687833E+03  0.00000000000E+00 0. -1.
<mgrwt>
<rscale>  0 0.64998242E+03</rscale>
<asrwt>0</asrwt>
<pdfrwt beam="1">0</pdfrwt>
<pdfrwt beam="2">  1        2 0.38407094E+00 0.64998242E+03</pdfrwt>
<totfact> 0.45660919E+00</totfact>
</mgrwt>
</event>
<event>
 5    1  0.2344661E-004  0.6456827E+03  0.7818608E-02  0.9814914E-01
         13   -1    0    0    0    0  0.00000000000E+00  0.00000000000E+00  0.10000000000E+04  0.10000000000E+04  0.00000000000E+00 0. -1.
          2   -1    0    0  501    0 -0.00000000000E+00 -0.00000000000E+00 -0.10422652342E+03  0.10422652342E+03  0.00000000000E+00 0. -1.
    9000006    2    1    2  501    0  0.00000000000E+00  0.00000000000E+00  0.89577347658E+03  0.11042265234E+04  0.64568265709E+03 0.  0.
         13    1    3    3    0    0  0.18396071200E+03 -0.18786013128E+03  0.76825737942E+03  0.81200515609E+03  0.00000000000E+00 0. -1.
          2    1    3    3  501    0 -0.18396071200E+03  0.18786013128E+03  0.12751609716E+03  0.29222136732E+03  0.00000000000E+00 0. -1.
<mgrwt>
<rscale>  0 0.64568266E+03</rscale>
<asrwt>0</asrwt>
<pdfrwt beam="1">0</pdfrwt>
<pdfrwt beam="2">  1        2 0.37900634E+00 0.64568266E+03</pdfrwt>
<totfact> 0.47686854E+00</totfact>
</mgrwt>
</event>
<event>
 5    1  0.2344661E-004  0.6541825E+03  0.7818608E-02  0.9798962E-01
         13   -1    0    0    0    0  0.00000000000E+00  0.00000000000E+00  0.10000000000E+04  0.10000000000E+04  0.00000000000E+00 0. -1.
          2   -1    0    0  501    0 -0.00000000000E+00 -0.00000000000E+00 -0.10698868956E+03  0.10698868956E+03  0.00000000000E+00 0. -1.
    9000006    2    1    2  501    0  0.00000000000E+00  0.00000000000E+00  0.89301131044E+03  0.11069886896E+04  0.65418251142E+03 0.  0.
         13    1    3    3    0    0 -0.30867976251E+02  0.11372461638E+03  0.96283295338E+03  0.97001722482E+03  0.00000000000E+00 0. -1.
          4    1    3    3  501    0  0.30867976251E+02 -0.11372461638E+03 -0.69821642947E+02  0.13697146474E+03  0.00000000000E+00 0. -1.
<mgrwt>
<rscale>  0 0.65418251E+03</rscale>
<asrwt>0</asrwt>
<pdfrwt beam="1">0</pdfrwt>
<pdfrwt beam="2">  1        2 0.38905060E+00 0.65418251E+03</pdfrwt>
<totfact> 0.43745426E+00</totfact>
</mgrwt>
</event>
<event>
 5    1  0.2344661E-004  0.6214961E+03  0.7818608E-02  0.9861785E-01
         13   -1    0    0    0    0  0.00000000000E+00  0.00000000000E+00  0.10000000000E+04  0.10000000000E+04  0.00000000000E+00 0. -1.
          2   -1    0    0  501    0 -0.00000000000E+00 -0.00000000000E+00 -0.96564354201E+02  0.96564354201E+02  0.00000000000E+00 0. -1.
    9000006    2    1    2  501    0  0.00000000000E+00  0.00000000000E+00  0.90343564580E+03  0.10965643542E+04  0.62149611166E+03 0.  0.
         13    1    3    3    0    0  0.23585210389E+03 -0.55703848101E+01  0.80857555265E+03  0.84228953955E+03  0.00000000000E+00 0. -1.
          2    1    3    3  501    0 -0.23585210389E+03  0.55703848101E+01  0.94860093152E+02  0.25427481465E+03  0.00000000000E+00 0. -1.
<mgrwt>
<rscale>  0 0.62149611E+03</rscale>
<asrwt>0</asrwt>
<pdfrwt beam="1">0</pdfrwt>
<pdfrwt beam="2">  1        2 0.35114385E+00 0.62149611E+03</pdfrwt>
<totfact> 0.60383467E+00</totfact>
</mgrwt>
</event>
<event>
 5    1  0.2344661E-004  0.6322221E+03  0.7818608E-02  0.9840722E-01
         13   -1    0    0    0    0  0.00000000000E+00  0.00000000000E+00  0.10000000000E+04  0.10000000000E+04  0.00000000000E+00 0. -1.
          2   -1    0    0  501    0 -0.00000000000E+00 -0.00000000000E+00 -0.99926184382E+02  0.99926184382E+02  0.00000000000E+00 0. -1.
    9000006    2    1    2  501    0  0.00000000000E+00  0.00000000000E+00  0.90007381562E+03  0.10999261844E+04  0.63222206346E+03 0.  0.
         13    1    3    3    0    0 -0.13734264769E+02  0.59687208041E+02 -0.89504736691E+02  0.10845409500E+03  0.00000000000E+00 0. -1.
          4    1    3    3  501    0  0.13734264769E+02 -0.59687208041E+02  0.98957855231E+03  0.99147208938E+03  0.00000000000E+00 0. -1.
<mgrwt>
<rscale>  0 0.63222206E+03</rscale>
<asrwt>0</asrwt>
<pdfrwt beam="1">0</pdfrwt>
<pdfrwt beam="2">  1        2 0.36336871E+00 0.63222206E+03</pdfrwt>
<totfact> 0.54471811E+00</totfact>
</mgrwt>
</event>
<event>
 5    1  0.2344661E-004  0.6564497E+03  0.7818608E-02  0.9794752E-01
         13   -1    0    0    0    0  0.00000000000E+00  0.00000000000E+00  0.10000000000E+04  0.10000000000E+04  0.00000000000E+00 0. -1.
          2   -1    0    0  501    0 -0.00000000000E+00 -0.00000000000E+00 -0.10773154216E+03  0.10773154216E+03  0.00000000000E+00 0. -1.
    9000006    2    1    2  501    0  0.00000000000E+00  0.00000000000E+00  0.89226845784E+03  0.11077315422E+04  0.65644966953E+03 0.  0.
         13    1    3    3    0    0  0.92892181533E+02 -0.34401810469E+02 -0.81905738024E+02  0.12853401058E+03  0.00000000000E+00 0. -1.
          4    1    3    3  501    0 -0.92892181533E+02  0.34401810469E+02  0.97417419587E+03  0.97919753158E+03  0.00000000000E+00 0. -1.
<mgrwt>
<rscale>  0 0.65644967E+03</rscale>
<asrwt>0</asrwt>
<pdfrwt beam="1">0</pdfrwt>
<pdfrwt beam="2">  1        2 0.39175189E+00 0.65644967E+03</pdfrwt>
<totfact> 0.42737039E+00</totfact>
</mgrwt>
</event>
<event>
 5    1  0.2344661E-004  0.6647609E+03  0.7818608E-02  0.9779469E-01
         13   -1    0    0    0    0  0.00000000000E+00  0.00000000000E+00  0.10000000000E+04  0.10000000000E+04  0.00000000000E+00 0. -1.
          2   -1    0    0  501    0 -0.00000000000E+00 -0.00000000000E+00 -0.11047675068E+03  0.11047675068E+03  0.00000000000E+00 0. -1.
    9000006    2    1    2  501    0  0.00000000000E+00  0.00000000000E+00  0.88952324932E+03  0.11104767507E+04  0.66476086129E+03 0.  0.
         13    1    3    3    0    0  0.13244125878E+03 -0.19590077898E+03  0.83495242370E+03  0.86779222863E+03  0.00000000000E+00 0. -1.
          4    1    3    3  501    0 -0.13244125878E+03  0.19590077898E+03  0.54570825627E+02  0.24268452205E+03  0.00000000000E+00 0. -1.
<mgrwt>
<rscale>  0 0.66476086E+03</rscale>
<asrwt>0</asrwt>
<pdfrwt beam="1">0</pdfrwt>
<pdfrwt beam="2">  1        2 0.40173449E+00 0.66476086E+03</pdfrwt>
<totfact> 0.39189956E+00</totfact>
</mgrwt>
</event>
<event>
 5    1  0.2344661E-004  0.6505882E+03  0.7818608E-02  0.9805676E-01
         13   -1    0    0    0    0  0.00000000000E+00  0.00000000000E+00  0.10000000000E+04  0.10000000000E+04  0.00000000000E+00 0. -1.
          2   -1    0    0  501    0 -0.00000000000E+00 -0.00000000000E+00 -0.10581624494E+03  0.10581624494E+03  0.00000000000E+00 0. -1.
    9000006    2    1    2  501    0  0.00000000000E+00  0.00000000000E+00  0.89418375506E+03  0.11058162449E+04  0.65058817986E+03 0.  0.
         13    1    3    3    0    0  0.11653684386E+03 -0.17694291626E+02 -0.68240332091E+02  0.13620083281E+03  0.00000000000E+00 0. -1.
          4    1    3    3  501    0 -0.11653684386E+03  0.17694291626E+02  0.96242408715E+03  0.96961541214E+03  0.00000000000E+00 0. -1.
<mgrwt>
<rscale>  0 0.65058818E+03</rscale>
<asrwt>0</asrwt>
<pdfrwt beam="1">0</pdfrwt>
<pdfrwt beam="2">  1        2 0.38478716E+00 0.65058818E+03</pdfrwt>
<totfact> 0.45380820E+00</totfact>
</mgrwt>
</event>
<event>
 5    1  0.2344661E-004  0.7353747E+03  0.7818608E-02  0.9658579E-01
         13   -1    0    0    0    0  0.00000000000E+00  0.00000000000E+00  0.10000000000E+04  0.10000000000E+04  0.00000000000E+00 0. -1.
          2   -1    0    0  501    0 -0.00000000000E+00 -0.00000000000E+00 -0.13519400183E+03  0.13519400183E+03  0.00000000000E+00 0. -1.
    9000006    2    1    2  501    0  0.00000000000E+00  0.00000000000E+00  0.86480599817E+03  0.11351940018E+04  0.73537473939E+03 0.  0.
         13    1    3    3    0    0  0.59882977999E+02  0.13554597847E+03  0.95186326467E+03  0.96332879016E+03  0.00000000000E+00 0. -1.
          4    1    3    3  501    0 -0.59882977999E+02 -0.13554597847E+03 -0.87057266502E+02  0.17186521167E+03  0.00000000000E+00 0. -1.
<mgrwt>
<rscale>  0 0.73537474E+03</rscale>
<asrwt>0</asrwt>
<pdfrwt beam="1">0</pdfrwt>
<pdfrwt beam="2">  1        2 0.49161559E+00 0.73537474E+03</pdfrwt>
<totfact> 0.17226624E+00</totfact>
</mgrwt>
</event>
<event>
 5    1  0.2344661E-004  0.6556408E+03  0.7818608E-02  0.9796252E-01
         13   -1    0    0    0    0  0.00000000000E+00  0.00000000000E+00  0.10000000000E+04  0.10000000000E+04  0.00000000000E+00 0. -1.
          2   -1    0    0  501    0 -0.00000000000E+00 -0.00000000000E+00 -0.10746620577E+03  0.10746620577E+03  0.00000000000E+00 0. -1.
    9000006    2    1    2  501    0  0.00000000000E+00  0.00000000000E+00  0.89253379423E+03  0.11074662058E+04  0.65564077290E+03 0.  0.
         13    1    3    3    0    0 -0.28863836659E+03  0.45924867794E+02  0.69706233722E+03  0.75585521241E+03  0.00000000000E+00 0. -1.
          2    1    3    3  501    0  0.28863836659E+03 -0.45924867794E+02  0.19547145701E+03  0.35161099336E+03  0.00000000000E+00 0. -1.
<mgrwt>
<rscale>  0 0.65564077E+03</rscale>
<asrwt>0</asrwt>
<pdfrwt beam="1">0</pdfrwt>
<pdfrwt beam="2">  1        2 0.39078703E+00 0.65564077E+03</pdfrwt>
<totfact> 0.43094783E+00</totfact>
</mgrwt>
</event>
<event>
 5    1  0.2344661E-004  0.6050527E+03  0.7818608E-02  0.9894978E-01
         13   -1    0    0    0    0  0.00000000000E+00  0.00000000000E+00  0.10000000000E+04  0.10000000000E+04  0.00000000000E+00 0. -1.
          2   -1    0    0  501    0 -0.00000000000E+00 -0.00000000000E+00 -0.91522188694E+02  0.91522188694E+02  0.00000000000E+00 0. -1.
    9000006    2    1    2  501    0  0.00000000000E+00  0.00000000000E+00  0.90847781131E+03  0.10915221887E+04  0.60505268760E+03 0.  0.
         13    1    3    3    0    0  0.21789770605E+03 -0.12468694699E+03  0.75876947593E+03  0.79922297430E+03  0.00000000000E+00 0. -1.
          4    1    3    3  501    0 -0.21789770605E+03  0.12468694699E+03  0.14970833538E+03  0.29229921439E+03  0.00000000000E+00 0. -1.
<mgrwt>
<rscale>  0 0.60505269E+03</rscale>
<asrwt>0</asrwt>
<pdfrwt beam="1">0</pdfrwt>
<pdfrwt beam="2">  1        2 0.33280866E+00 0.60505269E+03</pdfrwt>
<totfact> 0.70380766E+00</totfact>
</mgrwt>
</event>
<event>
 5    1  0.2344661E-004  0.5836508E+03  0.7818608E-02  0.9939918E-01
         13   -1    0    0    0    0  0.00000000000E+00  0.00000000000E+00  0.10000000000E+04  0.10000000000E+04  0.00000000000E+00 0. -1.
          2   -1    0    0  501    0 -0.00000000000E+00 -0.00000000000E+00 -0.85162078242E+02  0.85162078242E+02  0.00000000000E+00 0. -1.
    9000006    2    1    2  501    0  0.00000000000E+00  0.00000000000E+00  0.91483792176E+03  0.10851620782E+04  0.58365084851E+03 0.  0.
         13    1    3    3    0    0 -0.66494802890E+02 -0.71194654141E+01  0.98556119074E+03  0.98782746788E+03  0.00000000000E+00 0. -1.
          2    1    3    3  501    0  0.66494802890E+02  0.71194654141E+01 -0.70723268982E+02  0.97334610364E+02  0.00000000000E+00 0. -1.
<mgrwt>
<rscale>  0 0.58365085E+03</rscale>
<asrwt>0</asrwt>
<pdfrwt beam="1">0</pdfrwt>
<pdfrwt beam="2">  1        2 0.30968094E+00 0.58365085E+03</pdfrwt>
<totfact> 0.85243758E+00</totfact>
</mgrwt>
</event>
<event>
 5    1  0.2344661E-004  0.6418603E+03  0.7818608E-02  0.9822174E-01
         13   -1    0    0    0    0  0.00000000000E+00  0.00000000000E+00  0.10000000000E+04  0.10000000000E+04  0.00000000000E+00 0. -1.
          2   -1    0    0  501    0 -0.00000000000E+00 -0.00000000000E+00 -0.10299617526E+03  0.10299617526E+03  0.00000000000E+00 0. -1.
    9000006    2    1    2  501    0  0.00000000000E+00  0.00000000000E+00  0.89700382474E+03  0.11029961753E+04  0.64186034387E+03 0.  0.
         13    1    3    3    0    0  0.22370300504E+03  0.11946689139E+03  0.11052953958E+03  0.27664445001E+03  0.00000000000E+00 0. -1.
          2    1    3    3  501    0 -0.22370300504E+03 -0.11946689139E+03  0.78647428516E+03  0.82635172525E+03  0.00000000000E+00 0. -1.
<mgrwt>
<rscale>  0 0.64186034E+03</rscale>
<asrwt>0</asrwt>
<pdfrwt beam="1">0</pdfrwt>
<pdfrwt beam="2">  1        2 0.37453234E+00 0.64186034E+03</pdfrwt>
<totfact> 0.49544304E+00</totfact>
</mgrwt>
</event>
<event>
 5    1  0.2344661E-004  0.6435170E+03  0.7818608E-02  0.9819021E-01
         13   -1    0    0    0    0  0.00000000000E+00  0.00000000000E+00  0.10000000000E+04  0.10000000000E+04  0.00000000000E+00 0. -1.
          2   -1    0    0  501    0 -0.00000000000E+00 -0.00000000000E+00 -0.10352852483E+03  0.10352852483E+03  0.00000000000E+00 0. -1.
    9000006    2    1    2  501    0  0.00000000000E+00  0.00000000000E+00  0.89647147517E+03  0.11035285248E+04  0.64351697672E+03 0.  0.
         13    1    3    3    0    0  0.19428584099E+03 -0.12613422116E+03  0.65278201895E+02  0.24066174062E+03  0.00000000000E+00 0. -1.
          2    1    3    3  501    0 -0.19428584099E+03  0.12613422116E+03  0.83119327327E+03  0.86286678421E+03  0.00000000000E+00 0. -1.
<mgrwt>
<rscale>  0 0.64351698E+03</rscale>
<asrwt>0</asrwt>
<pdfrwt beam="1">0</pdfrwt>
<pdfrwt beam="2">  1        2 0.37646816E+00 0.64351698E+03</pdfrwt>
<totfact> 0.48732645E+00</totfact>
</mgrwt>
</event>
<event>
 5    1  0.2344661E-004  0.6707262E+03  0.7818608E-02  0.9768647E-01
         13   -1    0    0    0    0  0.00000000000E+00  0.00000000000E+00  0.10000000000E+04  0.10000000000E+04  0.00000000000E+00 0. -1.
          2   -1    0    0  501    0 -0.00000000000E+00 -0.00000000000E+00 -0.11246840392E+03  0.11246840392E+03  0.00000000000E+00 0. -1.
    9000006    2    1    2  501    0  0.00000000000E+00  0.00000000000E+00  0.88753159608E+03  0.11124684039E+04  0.67072618534E+03 0.  0.
         13    1    3    3    0    0 -0.14063829610E+03  0.29461939876E+03  0.57104326653E+03  0.65777665868E+03  0.00000000000E+00 0. -1.
          2    1    3    3  501    0  0.14063829610E+03 -0.29461939876E+03  0.31648832954E+03  0.45469174524E+03  0.00000000000E+00 0. -1.
<mgrwt>
<rscale>  0 0.67072619E+03</rscale>
<asrwt>0</asrwt>
<pdfrwt beam="1">0</pdfrwt>
<pdfrwt beam="2">  1        2 0.40897688E+00 0.67072619E+03</pdfrwt>
<totfact> 0.36784435E+00</totfact>
</mgrwt>
</event>
<event>
 5    1  0.2344661E-004  0.4801291E+03  0.7818608E-02  0.1019100E+00
         13   -1    0    0    0    0  0.00000000000E+00  0.00000000000E+00  0.10000000000E+04  0.10000000000E+04  0.00000000000E+00 0. -1.
          2   -1    0    0  501    0 -0.00000000000E+00 -0.00000000000E+00 -0.57630984412E+02  0.57630984412E+02  0.00000000000E+00 0. -1.
    9000006    2    1    2  501    0  0.00000000000E+00  0.00000000000E+00  0.94236901559E+03  0.10576309844E+04  0.48012908436E+03 0.  0.
         13    1    3    3    0    0  0.23782281694E+03 -0.27266484834E+02  0.43130028512E+03  0.49327790280E+03  0.00000000000E+00 0. -1.
          4    1    3    3  501    0 -0.23782281694E+03  0.27266484834E+02  0.51106873047E+03  0.56435308161E+03  0.00000000000E+00 0. -1.
<mgrwt>
<rscale>  0 0.48012908E+03</rscale>
<asrwt>0</asrwt>
<pdfrwt beam="1">0</pdfrwt>
<pdfrwt beam="2">  1        2 0.20956766E+00 0.48012908E+03</pdfrwt>
<totfact> 0.19568378E+01</totfact>
</mgrwt>
</event>
<event>
 5    1  0.2344661E-004  0.6479926E+03  0.7818608E-02  0.9810553E-01
         13   -1    0    0    0    0  0.00000000000E+00  0.00000000000E+00  0.10000000000E+04  0.10000000000E+04  0.00000000000E+00 0. -1.
          2   -1    0    0  501    0 -0.00000000000E+00 -0.00000000000E+00 -0.10497360162E+03  0.10497360162E+03  0.00000000000E+00 0. -1.
    9000006    2    1    2  501    0  0.00000000000E+00  0.00000000000E+00  0.89502639838E+03  0.11049736016E+04  0.64799259755E+03 0.  0.
         13    1    3    3    0    0  0.82536245885E+02 -0.67600210204E+02 -0.74162072063E+02  0.12993087869E+03  0.00000000000E+00 0. -1.
          2    1    3    3  501    0 -0.82536245885E+02  0.67600210204E+02  0.96918847044E+03  0.97504272293E+03  0.00000000000E+00 0. -1.
<mgrwt>
<rscale>  0 0.64799260E+03</rscale>
<asrwt>0</asrwt>
<pdfrwt beam="1">0</pdfrwt>
<pdfrwt beam="2">  1        2 0.38172299E+00 0.64799260E+03</pdfrwt>
<totfact> 0.46590207E+00</totfact>
</mgrwt>
</event>
<event>
 5    1  0.2344661E-004  0.6472252E+03  0.7818608E-02  0.9812000E-01
         13   -1    0    0    0    0  0.00000000000E+00  0.00000000000E+00  0.10000000000E+04  0.10000000000E+04  0.00000000000E+00 0. -1.
          2   -1    0    0  501    0 -0.00000000000E+00 -0.00000000000E+00 -0.10472510302E+03  0.10472510302E+03  0.00000000000E+00 0. -1.
    9000006    2    1    2  501    0  0.00000000000E+00  0.00000000000E+00  0.89527489698E+03  0.11047251030E+04  0.64722516336E+03 0.  0.
         13    1    3    3    0    0 -0.19113993950E+03 -0.23857426922E+03  0.62886220110E+03  0.69922802173E+03  0.00000000000E+00 0. -1.
          4    1    3    3  501    0  0.19113993950E+03  0.23857426922E+03  0.26641269588E+03  0.40549708129E+03  0.00000000000E+00 0. -1.
<mgrwt>
<rscale>  0 0.64722516E+03</rscale>
<asrwt>0</asrwt>
<pdfrwt beam="1">0</pdfrwt>
<pdfrwt beam="2">  1        2 0.38081936E+00 0.64722516E+03</pdfrwt>
<totfact> 0.46952409E+00</totfact>
</mgrwt>
</event>
<event>
 5    1  0.2344661E-004  0.6542337E+03  0.7818608E-02  0.9798867E-01
         13   -1    0    0    0    0  0.00000000000E+00  0.00000000000E+00  0.10000000000E+04  0.10000000000E+04  0.00000000000E+00 0. -1.
          2   -1    0    0  501    0 -0.00000000000E+00 -0.00000000000E+00 -0.10700543334E+03  0.10700543334E+03  0.00000000000E+00 0. -1.
    9000006    2    1    2  501    0  0.00000000000E+00  0.00000000000E+00  0.89299456666E+03  0.11070054333E+04  0.65423369935E+03 0.  0.
         13    1    3    3    0    0 -0.10662784260E+03  0.26750137905E+03  0.70906153893E+03  0.76530696495E+03  0.00000000000E+00 0. -1.
          2    1    3    3  501    0  0.10662784260E+03 -0.26750137905E+03  0.18393302773E+03  0.34169846839E+03  0.00000000000E+00 0. -1.
<mgrwt>
<rscale>  0 0.65423370E+03</rscale>
<asrwt>0</asrwt>
<pdfrwt beam="1">0</pdfrwt>
<pdfrwt beam="2">  1        2 0.38911149E+00 0.65423370E+03</pdfrwt>
<totfact> 0.43722462E+00</totfact>
</mgrwt>
</event>
<event>
 5    1  0.2344661E-004  0.6671280E+03  0.7818608E-02  0.9775160E-01
         13   -1    0    0    0    0  0.00000000000E+00  0.00000000000E+00  0.10000000000E+04  0.10000000000E+04  0.00000000000E+00 0. -1.
          2   -1    0    0  501    0 -0.00000000000E+00 -0.00000000000E+00 -0.11126493615E+03  0.11126493615E+03  0.00000000000E+00 0. -1.
    9000006    2    1    2  501    0  0.00000000000E+00  0.00000000000E+00  0.88873506385E+03  0.11112649362E+04  0.66712798218E+03 0.  0.
         13    1    3    3    0    0  0.27834402194E+03  0.52016972620E+02  0.15068687667E+03  0.32076111795E+03  0.00000000000E+00 0. -1.
          4    1    3    3  501    0 -0.27834402194E+03 -0.52016972620E+02  0.73804818718E+03  0.79050381820E+03  0.00000000000E+00 0. -1.
<mgrwt>
<rscale>  0 0.66712798E+03</rscale>
<asrwt>0</asrwt>
<pdfrwt beam="1">0</pdfrwt>
<pdfrwt beam="2">  1        2 0.40460062E+00 0.66712798E+03</pdfrwt>
<totfact> 0.38221652E+00</totfact>
</mgrwt>
</event>
<event>
 5    1  0.2344661E-004  0.6570757E+03  0.7818608E-02  0.9793592E-01
         13   -1    0    0    0    0  0.00000000000E+00  0.00000000000E+00  0.10000000000E+04  0.10000000000E+04  0.00000000000E+00 0. -1.
          2   -1    0    0  501    0 -0.00000000000E+00 -0.00000000000E+00 -0.10793712934E+03  0.10793712934E+03  0.00000000000E+00 0. -1.
    9000006    2    1    2  501    0  0.00000000000E+00  0.00000000000E+00  0.89206287066E+03  0.11079371293E+04  0.65707573182E+03 0.  0.
         13    1    3    3    0    0  0.79442488068E+02  0.23857537359E+03  0.80255759002E+03  0.84102794430E+03  0.00000000000E+00 0. -1.
          4    1    3    3  501    0 -0.79442488068E+02 -0.23857537359E+03  0.89505280638E+02  0.26690918503E+03  0.00000000000E+00 0. -1.
<mgrwt>
<rscale>  0 0.65707573E+03</rscale>
<asrwt>0</asrwt>
<pdfrwt beam="1">0</pdfrwt>
<pdfrwt beam="2">  1        2 0.39249948E+00 0.65707573E+03</pdfrwt>
<totfact> 0.42461698E+00</totfact>
</mgrwt>
</event>
<event>
 5    1  0.2344661E-004  0.6581468E+03  0.7818608E-02  0.9791611E-01
         13   -1    0    0    0    0  0.00000000000E+00  0.00000000000E+00  0.10000000000E+04  0.10000000000E+04  0.00000000000E+00 0. -1.
          2   -1    0    0  501    0 -0.00000000000E+00 -0.00000000000E+00 -0.10828930687E+03  0.10828930687E+03  0.00000000000E+00 0. -1.
    9000006    2    1    2  501    0  0.00000000000E+00  0.00000000000E+00  0.89171069313E+03  0.11082893069E+04  0.65814681302E+03 0.  0.
         13    1    3    3    0    0 -0.28536783036E+03 -0.13260814210E+03  0.28372638623E+03  0.42369845433E+03  0.00000000000E+00 0. -1.
          4    1    3    3  501    0  0.28536783036E+03  0.13260814210E+03  0.60798430689E+03  0.68459085254E+03  0.00000000000E+00 0. -1.
<mgrwt>
<rscale>  0 0.65814681E+03</rscale>
<asrwt>0</asrwt>
<pdfrwt beam="1">0</pdfrwt>
<pdfrwt beam="2">  1        2 0.39378013E+00 0.65814681E+03</pdfrwt>
<totfact> 0.41993747E+00</totfact>
</mgrwt>
</event>
<event>
 5    1  0.2344661E-004  0.6397441E+03  0.7818608E-02  0.9826216E-01
         13   -1    0    0    0    0  0.00000000000E+00  0.00000000000E+00  0.10000000000E+04  0.10000000000E+04  0.00000000000E+00 0. -1.
          2   -1    0    0  501    0 -0.00000000000E+00 -0.00000000000E+00 -0.10231813838E+03  0.10231813838E+03  0.00000000000E+00 0. -1.
    9000006    2    1    2  501    0  0.00000000000E+00  0.00000000000E+00  0.89768186162E+03  0.11023181384E+04  0.63974413130E+03 0.  0.
         13    1    3    3    0    0 -0.15206801835E+03 -0.14752243307E+03  0.86176697360E+03  0.88742879559E+03  0.00000000000E+00 0. -1.
          2    1    3    3  501    0  0.15206801835E+03  0.14752243307E+03  0.35914888018E+02  0.21488934279E+03  0.00000000000E+00 0. -1.
<mgrwt>
<rscale>  0 0.63974413E+03</rscale>
<asrwt>0</asrwt>
<pdfrwt beam="1">0</pdfrwt>
<pdfrwt beam="2">  1        2 0.37206674E+00 0.63974413E+03</pdfrwt>
<totfact> 0.50596020E+00</totfact>
</mgrwt>
</event>
<event>
 5    1  0.2344661E-004  0.7398261E+03  0.7818608E-02  0.9651448E-01
         13   -1    0    0    0    0  0.00000000000E+00  0.00000000000E+00  0.10000000000E+04  0.10000000000E+04  0.00000000000E+00 0. -1.
          2   -1    0    0  501    0 -0.00000000000E+00 -0.00000000000E+00 -0.13683567899E+03  0.13683567899E+03  0.00000000000E+00 0. -1.
    9000006    2    1    2  501    0  0.00000000000E+00  0.00000000000E+00  0.86316432101E+03  0.11368356790E+04  0.73982613902E+03 0.  0.
         13    1    3    3    0    0  0.33233623517E+03  0.14754702694E+03  0.32715740152E+03  0.48913133587E+03  0.00000000000E+00 0. -1.
          4    1    3    3  501    0 -0.33233623517E+03 -0.14754702694E+03  0.53600691949E+03  0.64770434312E+03  0.00000000000E+00 0. -1.
<mgrwt>
<rscale>  0 0.73982614E+03</rscale>
<asrwt>0</asrwt>
<pdfrwt beam="1">0</pdfrwt>
<pdfrwt beam="2">  1        2 0.49758534E+00 0.73982614E+03</pdfrwt>
<totfact> 0.16258295E+00</totfact>
</mgrwt>
</event>
<event>
 5    1  0.2344661E-004  0.6512772E+03  0.7818608E-02  0.9804386E-01
         13   -1    0    0    0    0  0.00000000000E+00  0.00000000000E+00  0.10000000000E+04  0.10000000000E+04  0.00000000000E+00 0. -1.
          2   -1    0    0  501    0 -0.00000000000E+00 -0.00000000000E+00 -0.10604048267E+03  0.10604048267E+03  0.00000000000E+00 0. -1.
    9000006    2    1    2  501    0  0.00000000000E+00  0.00000000000E+00  0.89395951733E+03  0.11060404827E+04  0.65127715349E+03 0.  0.
         13    1    3    3    0    0  0.19147671227E+03  0.26324445273E+03  0.43183666853E+03  0.54078080728E+03  0.00000000000E+00 0. -1.
          4    1    3    3  501    0 -0.19147671227E+03 -0.26324445273E+03  0.46212284880E+03  0.56525967539E+03  0.00000000000E+00 0. -1.
<mgrwt>
<rscale>  0 0.65127715E+03</rscale>
<asrwt>0</asrwt>
<pdfrwt beam="1">0</pdfrwt>
<pdfrwt beam="2">  1        2 0.38560257E+00 0.65127715E+03</pdfrwt>
<totfact> 0.45063822E+00</totfact>
</mgrwt>
</event>
<event>
 5    1  0.2344661E-004  0.6431609E+03  0.7818608E-02  0.9819698E-01
         13   -1    0    0    0    0  0.00000000000E+00  0.00000000000E+00  0.10000000000E+04  0.10000000000E+04  0.00000000000E+00 0. -1.
          2   -1    0    0  501    0 -0.00000000000E+00 -0.00000000000E+00 -0.10341397673E+03  0.10341397673E+03  0.00000000000E+00 0. -1.
    9000006    2    1    2  501    0  0.00000000000E+00  0.00000000000E+00  0.89658602327E+03  0.11034139767E+04  0.64316087172E+03 0.  0.
         13    1    3    3    0    0  0.14496264365E+03 -0.40568114697E+02  0.93582260879E+03  0.94785225384E+03  0.00000000000E+00 0. -1.
          4    1    3    3  501    0 -0.14496264365E+03  0.40568114697E+02 -0.39236585522E+02  0.15556172289E+03  0.00000000000E+00 0. -1.
<mgrwt>
<rscale>  0 0.64316087E+03</rscale>
<asrwt>0</asrwt>
<pdfrwt beam="1">0</pdfrwt>
<pdfrwt beam="2">  1        2 0.37605162E+00 0.64316087E+03</pdfrwt>
<totfact> 0.48906253E+00</totfact>
</mgrwt>
</event>
<event>
 5    1  0.2344661E-004  0.5769455E+03  0.7818608E-02  0.9954426E-01
         13   -1    0    0    0    0  0.00000000000E+00  0.00000000000E+00  0.10000000000E+04  0.10000000000E+04  0.00000000000E+00 0. -1.
          2   -1    0    0  501    0 -0.00000000000E+00 -0.00000000000E+00 -0.83216541498E+02  0.83216541498E+02  0.00000000000E+00 0. -1.
    9000006    2    1    2  501    0  0.00000000000E+00  0.00000000000E+00  0.91678345850E+03  0.10832165415E+04  0.57694554855E+03 0.  0.
         13    1    3    3    0    0  0.30495521244E+01  0.10855926051E+03 -0.43369212106E+02  0.11694144419E+03  0.00000000000E+00 0. -1.
          2    1    3    3  501    0 -0.30495521244E+01 -0.10855926051E+03  0.96015267061E+03  0.96627509731E+03  0.00000000000E+00 0. -1.
<mgrwt>
<rscale>  0 0.57694555E+03</rscale>
<asrwt>0</asrwt>
<pdfrwt beam="1">0</pdfrwt>
<pdfrwt beam="2">  1        2 0.30260624E+00 0.57694555E+03</pdfrwt>
<totfact> 0.90365973E+00</totfact>
</mgrwt>
</event>
<event>
 5    1  0.2344661E-004  0.6515550E+03  0.7818608E-02  0.9803866E-01
         13   -1    0    0    0    0  0.00000000000E+00  0.00000000000E+00  0.10000000000E+04  0.10000000000E+04  0.00000000000E+00 0. -1.
          2   -1    0    0  501    0 -0.00000000000E+00 -0.00000000000E+00 -0.10613097074E+03  0.10613097074E+03  0.00000000000E+00 0. -1.
    9000006    2    1    2  501    0  0.00000000000E+00  0.00000000000E+00  0.89386902926E+03  0.11061309707E+04  0.65155497309E+03 0.  0.
         13    1    3    3    0    0 -0.78999381516E+02  0.28423379874E+03  0.21230318725E+03  0.36345893570E+03  0.00000000000E+00 0. -1.
          2    1    3    3  501    0  0.78999381516E+02 -0.28423379874E+03  0.68156584202E+03  0.74267203504E+03  0.00000000000E+00 0. -1.
<mgrwt>
<rscale>  0 0.65155497E+03</rscale>
<asrwt>0</asrwt>
<pdfrwt beam="1">0</pdfrwt>
<pdfrwt beam="2">  1        2 0.38593162E+00 0.65155497E+03</pdfrwt>
<totfact> 0.44936471E+00</totfact>
</mgrwt>
</event>
<event>
 5    1  0.2344661E-004  0.6505771E+03  0.7818608E-02  0.9805697E-01
         13   -1    0    0    0    0  0.00000000000E+00  0.00000000000E+00  0.10000000000E+04  0.10000000000E+04  0.00000000000E+00 0. -1.
          2   -1    0    0  501    0 -0.00000000000E+00 -0.00000000000E+00 -0.10581263068E+03  0.10581263068E+03  0.00000000000E+00 0. -1.
    9000006    2    1    2  501    0  0.00000000000E+00  0.00000000000E+00  0.89418736932E+03  0.11058126307E+04  0.65057706900E+03 0.  0.
         13    1    3    3    0    0  0.48708440727E+02 -0.31784922585E+03  0.53057136563E+03  0.62040842725E+03  0.00000000000E+00 0. -1.
          4    1    3    3  501    0 -0.48708440727E+02  0.31784922585E+03  0.36361600369E+03  0.48540420343E+03  0.00000000000E+00 0. -1.
<mgrwt>
<rscale>  0 0.65057707E+03</rscale>
<asrwt>0</asrwt>
<pdfrwt beam="1">0</pdfrwt>
<pdfrwt beam="2">  1        2 0.38477401E+00 0.65057707E+03</pdfrwt>
<totfact> 0.45385945E+00</totfact>
</mgrwt>
</event>
<event>
 5    1  0.2344661E-004  0.6423422E+03  0.7818608E-02  0.9821256E-01
         13   -1    0    0    0    0  0.00000000000E+00  0.00000000000E+00  0.10000000000E+04  0.10000000000E+04  0.00000000000E+00 0. -1.
          2   -1    0    0  501    0 -0.00000000000E+00 -0.00000000000E+00 -0.10315087408E+03  0.10315087408E+03  0.00000000000E+00 0. -1.
    9000006    2    1    2  501    0  0.00000000000E+00  0.00000000000E+00  0.89684912592E+03  0.11031508741E+04  0.64234219564E+03 0.  0.
         13    1    3    3    0    0  0.68060570099E+02 -0.34529833039E+02 -0.87351887472E+02  0.11599527067E+03  0.00000000000E+00 0. -1.
          4    1    3    3  501    0 -0.68060570099E+02  0.34529833039E+02  0.98420101340E+03  0.98715560341E+03  0.00000000000E+00 0. -1.
<mgrwt>
<rscale>  0 0.64234220E+03</rscale>
<asrwt>0</asrwt>
<pdfrwt beam="1">0</pdfrwt>
<pdfrwt beam="2">  1        2 0.37509488E+00 0.64234220E+03</pdfrwt>
<totfact> 0.49307166E+00</totfact>
</mgrwt>
</event>
<event>
 5    1  0.2344661E-004  0.6295463E+03  0.7818608E-02  0.9845935E-01
         13   -1    0    0    0    0  0.00000000000E+00  0.00000000000E+00  0.10000000000E+04  0.10000000000E+04  0.00000000000E+00 0. -1.
          2   -1    0    0  501    0 -0.00000000000E+00 -0.00000000000E+00 -0.99082135509E+02  0.99082135509E+02  0.00000000000E+00 0. -1.
    9000006    2    1    2  501    0  0.00000000000E+00  0.00000000000E+00  0.90091786449E+03  0.10990821355E+04  0.62954629856E+03 0.  0.
         13    1    3    3    0    0 -0.10967986457E+03 -0.29504532568E+03  0.45193889394E+03  0.55075419267E+03  0.00000000000E+00 0. -1.
          2    1    3    3  501    0  0.10967986457E+03  0.29504532568E+03  0.44897897055E+03  0.54832794283E+03  0.00000000000E+00 0. -1.
<mgrwt>
<rscale>  0 0.62954630E+03</rscale>
<asrwt>0</asrwt>
<pdfrwt beam="1">0</pdfrwt>
<pdfrwt beam="2">  1        2 0.36029943E+00 0.62954630E+03</pdfrwt>
<totfact> 0.55903391E+00</totfact>
</mgrwt>
</event>
<event>
 5    1  0.2344661E-004  0.6292807E+03  0.7818608E-02  0.9846454E-01
         13   -1    0    0    0    0  0.00000000000E+00  0.00000000000E+00  0.10000000000E+04  0.10000000000E+04  0.00000000000E+00 0. -1.
          2   -1    0    0  501    0 -0.00000000000E+00 -0.00000000000E+00 -0.98998534347E+02  0.98998534347E+02  0.00000000000E+00 0. -1.
    9000006    2    1    2  501    0  0.00000000000E+00  0.00000000000E+00  0.90100146565E+03  0.10989985343E+04  0.62928065073E+03 0.  0.
         13    1    3    3    0    0 -0.64074431661E+01 -0.12877664140E+03  0.95174331600E+03  0.96043730574E+03  0.00000000000E+00 0. -1.
          4    1    3    3  501    0  0.64074431661E+01  0.12877664140E+03 -0.50741850347E+02  0.13856122861E+03  0.00000000000E+00 0. -1.
<mgrwt>
<rscale>  0 0.62928065E+03</rscale>
<asrwt>0</asrwt>
<pdfrwt beam="1">0</pdfrwt>
<pdfrwt beam="2">  1        2 0.35999543E+00 0.62928065E+03</pdfrwt>
<totfact> 0.56047059E+00</totfact>
</mgrwt>
</event>
<event>
 5    1  0.2344661E-004  0.6500194E+03  0.7818608E-02  0.9806743E-01
         13   -1    0    0    0    0  0.00000000000E+00  0.00000000000E+00  0.10000000000E+04  0.10000000000E+04  0.00000000000E+00 0. -1.
          2   -1    0    0  501    0 -0.00000000000E+00 -0.00000000000E+00 -0.10563129808E+03  0.10563129808E+03  0.00000000000E+00 0. -1.
    9000006    2    1    2  501    0  0.00000000000E+00  0.00000000000E+00  0.89436870192E+03  0.11056312981E+04  0.65001937843E+03 0.  0.
         13    1    3    3    0    0 -0.12194463825E+03  0.20408296580E+03  0.82412517146E+03  0.85773110587E+03  0.00000000000E+00 0. -1.
          2    1    3    3  501    0  0.12194463825E+03 -0.20408296580E+03  0.70243530454E+02  0.24790019222E+03  0.00000000000E+00 0. -1.
<mgrwt>
<rscale>  0 0.65001938E+03</rscale>
<asrwt>0</asrwt>
<pdfrwt beam="1">0</pdfrwt>
<pdfrwt beam="2">  1        2 0.38411462E+00 0.65001938E+03</pdfrwt>
<totfact> 0.45643793E+00</totfact>
</mgrwt>
</event>
<event>
 5    1  0.2344661E-004  0.6466953E+03  0.7818608E-02  0.9813000E-01
         13   -1    0    0    0    0  0.00000000000E+00  0.00000000000E+00  0.10000000000E+04  0.10000000000E+04  0.00000000000E+00 0. -1.
          2   -1    0    0  501    0 -0.00000000000E+00 -0.00000000000E+00 -0.10455368727E+03  0.10455368727E+03  0.00000000000E+00 0. -1.
    9000006    2    1    2  501    0  0.00000000000E+00  0.00000000000E+00  0.89544631273E+03  0.11045536873E+04  0.64669525210E+03 0.  0.
         13    1    3    3    0    0  0.25515717062E+03 -0.16057593597E+03  0.64737535033E+03  0.71413210063E+03  0.00000000000E+00 0. -1.
          4    1    3    3  501    0 -0.25515717062E+03  0.16057593597E+03  0.24807096240E+03  0.39042158664E+03  0.00000000000E+00 0. -1.
<mgrwt>
<rscale>  0 0.64669525E+03</rscale>
<asrwt>0</asrwt>
<pdfrwt beam="1">0</pdfrwt>
<pdfrwt beam="2">  1        2 0.38019603E+00 0.64669525E+03</pdfrwt>
<totfact> 0.47203748E+00</totfact>
</mgrwt>
</event>
<event>
 5    1  0.2344661E-004  0.6632367E+03  0.7818608E-02  0.9782254E-01
         13   -1    0    0    0    0  0.00000000000E+00  0.00000000000E+00  0.10000000000E+04  0.10000000000E+04  0.00000000000E+00 0. -1.
          2   -1    0    0  501    0 -0.00000000000E+00 -0.00000000000E+00 -0.10997072049E+03  0.10997072049E+03  0.00000000000E+00 0. -1.
    9000006    2    1    2  501    0  0.00000000000E+00  0.00000000000E+00  0.89002927951E+03  0.11099707205E+04  0.66323667115E+03 0.  0.
         13    1    3    3    0    0 -0.15796925547E+03  0.26268793701E+03  0.65678187440E+03  0.72479077564E+03  0.00000000000E+00 0. -1.
          2    1    3    3  501    0  0.15796925547E+03 -0.26268793701E+03  0.23324740511E+03  0.38517994485E+03  0.00000000000E+00 0. -1.
<mgrwt>
<rscale>  0 0.66323667E+03</rscale>
<asrwt>0</asrwt>
<pdfrwt beam="1">0</pdfrwt>
<pdfrwt beam="2">  1        2 0.39989437E+00 0.66323667E+03</pdfrwt>
<totfact> 0.39823162E+00</totfact>
</mgrwt>
</event>
<event>
 5    1  0.2344661E-004  0.6945112E+03  0.7818608E-02  0.9726665E-01
         13   -1    0    0    0    0  0.00000000000E+00  0.00000000000E+00  0.10000000000E+04  0.10000000000E+04  0.00000000000E+00 0. -1.
          2   -1    0    0  501    0 -0.00000000000E+00 -0.00000000000E+00 -0.12058645384E+03  0.12058645384E+03  0.00000000000E+00 0. -1.
    9000006    2    1    2  501    0  0.00000000000E+00  0.00000000000E+00  0.87941354616E+03  0.11205864538E+04  0.69451120608E+03 0.  0.
         13    1    3    3    0    0  0.25176212546E+03 -0.20380327436E+03  0.64166068035E+03  0.71878256181E+03  0.00000000000E+00 0. -1.
          2    1    3    3  501    0 -0.25176212546E+03  0.20380327436E+03  0.23775286581E+03  0.40180389203E+03  0.00000000000E+00 0. -1.
<mgrwt>
<rscale>  0 0.69451121E+03</rscale>
<asrwt>0</asrwt>
<pdfrwt beam="1">0</pdfrwt>
<pdfrwt beam="2">  1        2 0.43849712E+00 0.69451121E+03</pdfrwt>
<totfact> 0.28281176E+00</totfact>
</mgrwt>
</event>
<event>
 5    1  0.2344661E-004  0.6500671E+03  0.7818608E-02  0.9806653E-01
         13   -1    0    0    0    0  0.00000000000E+00  0.00000000000E+00  0.10000000000E+04  0.10000000000E+04  0.00000000000E+00 0. -1.
          2   -1    0    0  501    0 -0.00000000000E+00 -0.00000000000E+00 -0.10564681617E+03  0.10564681617E+03  0.00000000000E+00 0. -1.
    9000006    2    1    2  501    0  0.00000000000E+00  0.00000000000E+00  0.89435318383E+03  0.11056468162E+04  0.65006712321E+03 0.  0.
         13    1    3    3    0    0  0.59781127617E+02 -0.21441766310E+03  0.44336869177E+02  0.22696800532E+03  0.00000000000E+00 0. -1.
          2    1    3    3  501    0 -0.59781127617E+02  0.21441766310E+03  0.85001631465E+03  0.87867881085E+03  0.00000000000E+00 0. -1.
<mgrwt>
<rscale>  0 0.65006712E+03</rscale>
<asrwt>0</asrwt>
<pdfrwt beam="1">0</pdfrwt>
<pdfrwt beam="2">  1        2 0.38417105E+00 0.65006712E+03</pdfrwt>
<totfact> 0.45621675E+00</totfact>
</mgrwt>
</event>
<event>
 5    1  0.2344661E-004  0.6521938E+03  0.7818608E-02  0.9802671E-01
         13   -1    0    0    0    0  0.00000000000E+00  0.00000000000E+00  0.10000000000E+04  0.10000000000E+04  0.00000000000E+00 0. -1.
          2   -1    0    0  501    0 -0.00000000000E+00 -0.00000000000E+00 -0.10633919997E+03  0.10633919997E+03  0.00000000000E+00 0. -1.
    9000006    2    1    2  501    0  0.00000000000E+00  0.00000000000E+00  0.89366080003E+03  0.11063392000E+04  0.65219383613E+03 0.  0.
         13    1    3    3    0    0 -0.80116728556E+02  0.25074551230E+03  0.12032580852E+03  0.28943099753E+03  0.00000000000E+00 0. -1.
          4    1    3    3  501    0  0.80116728556E+02 -0.25074551230E+03  0.77333499151E+03  0.81690820244E+03  0.00000000000E+00 0. -1.
<mgrwt>
<rscale>  0 0.65219384E+03</rscale>
<asrwt>0</asrwt>
<pdfrwt beam="1">0</pdfrwt>
<pdfrwt beam="2">  1        2 0.38668882E+00 0.65219384E+03</pdfrwt>
<totfact> 0.44644653E+00</totfact>
</mgrwt>
</event>
<event>
 5    1  0.2344661E-004  0.5738901E+03  0.7818608E-02  0.9961107E-01
         13   -1    0    0    0    0  0.00000000000E+00  0.00000000000E+00  0.10000000000E+04  0.10000000000E+04  0.00000000000E+00 0. -1.
          2   -1    0    0  501    0 -0.00000000000E+00 -0.00000000000E+00 -0.82337467707E+02  0.82337467707E+02  0.00000000000E+00 0. -1.
    9000006    2    1    2  501    0  0.00000000000E+00  0.00000000000E+00  0.91766253229E+03  0.10823374677E+04  0.57389012086E+03 0.  0.
         13    1    3    3    0    0 -0.55378594927E+01 -0.52255144860E+02 -0.73185772453E+02  0.90096755444E+02  0.00000000000E+00 0. -1.
          2    1    3    3  501    0  0.55378594927E+01  0.52255144860E+02  0.99084830475E+03  0.99224071226E+03  0.00000000000E+00 0. -1.
<mgrwt>
<rscale>  0 0.57389012E+03</rscale>
<asrwt>0</asrwt>
<pdfrwt beam="1">0</pdfrwt>
<pdfrwt beam="2">  1        2 0.29940960E+00 0.57389012E+03</pdfrwt>
<totfact> 0.92777828E+00</totfact>
</mgrwt>
</event>
<event>
 5    1  0.2344661E-004  0.6529344E+03  0.7818608E-02  0.9801289E-01
         13   -1    0    0    0    0  0.00000000000E+00  0.00000000000E+00  0.10000000000E+04  0.10000000000E+04  0.00000000000E+00 0. -1.
          2   -1    0    0  501    0 -0.00000000000E+00 -0.00000000000E+00 -0.10658081715E+03  0.10658081715E+03  0.00000000000E+00 0. -1.
    9000006    2    1    2  501    0  0.00000000000E+00  0.00000000000E+00  0.89341918285E+03  0.11065808171E+04  0.65293435243E+03 0.  0.
         13    1    3    3    0    0 -0.20485243101E+03  0.24111838792E+03  0.58311811893E+03  0.66342244167E+03  0.00000000000E+00 0. -1.
          2    1    3    3  501    0  0.20485243101E+03 -0.24111838792E+03  0.31030106392E+03  0.44315837548E+03  0.00000000000E+00 0. -1.
<mgrwt>
<rscale>  0 0.65293435E+03</rscale>
<asrwt>0</asrwt>
<pdfrwt beam="1">0</pdfrwt>
<pdfrwt beam="2">  1        2 0.38756743E+00 0.65293435E+03</pdfrwt>
<totfact> 0.44308195E+00</totfact>
</mgrwt>
</event>
<event>
 5    1  0.2344661E-004  0.6352068E+03  0.7818608E-02  0.9834940E-01
         13   -1    0    0    0    0  0.00000000000E+00  0.00000000000E+00  0.10000000000E+04  0.10000000000E+04  0.00000000000E+00 0. -1.
          2   -1    0    0  501    0 -0.00000000000E+00 -0.00000000000E+00 -0.10087192264E+03  0.10087192264E+03  0.00000000000E+00 0. -1.
    9000006    2    1    2  501    0  0.00000000000E+00  0.00000000000E+00  0.89912807736E+03  0.11008719226E+04  0.63520680927E+03 0.  0.
         13    1    3    3    0    0  0.13534844168E+03 -0.28718605668E+03  0.46476107440E+03  0.56284801510E+03  0.00000000000E+00 0. -1.
          4    1    3    3  501    0 -0.13534844168E+03  0.28718605668E+03  0.43436700297E+03  0.53802390754E+03  0.00000000000E+00 0. -1.
<mgrwt>
<rscale>  0 0.63520681E+03</rscale>
<asrwt>0</asrwt>
<pdfrwt beam="1">0</pdfrwt>
<pdfrwt beam="2">  1        2 0.36680776E+00 0.63520681E+03</pdfrwt>
<totfact> 0.52907923E+00</totfact>
</mgrwt>
</event>
<event>
 5    1  0.2344661E-004  0.6472529E+03  0.7818608E-02  0.9811948E-01
         13   -1    0    0    0    0  0.00000000000E+00  0.00000000000E+00  0.10000000000E+04  0.10000000000E+04  0.00000000000E+00 0. -1.
          2   -1    0    0  501    0 -0.00000000000E+00 -0.00000000000E+00 -0.10473407158E+03  0.10473407158E+03  0.00000000000E+00 0. -1.
    9000006    2    1    2  501    0  0.00000000000E+00  0.00000000000E+00  0.89526592842E+03  0.11047340716E+04  0.64725287664E+03 0.  0.
         13    1    3    3    0    0 -0.31170248596E+03 -0.84559264603E+02  0.41243128287E+03  0.52383992982E+03  0.00000000000E+00 0. -1.
          4    1    3    3  501    0  0.31170248596E+03  0.84559264603E+02  0.48283464556E+03  0.58089414176E+03  0.00000000000E+00 0. -1.
<mgrwt>
<rscale>  0 0.64725288E+03</rscale>
<asrwt>0</asrwt>
<pdfrwt beam="1">0</pdfrwt>
<pdfrwt beam="2">  1        2 0.38085197E+00 0.64725288E+03</pdfrwt>
<totfact> 0.46939292E+00</totfact>
</mgrwt>
</event>
<event>
 5    1  0.2344661E-004  0.6471940E+03  0.7818608E-02  0.9812059E-01
         13   -1    0    0    0    0  0.00000000000E+00  0.00000000000E+00  0.10000000000E+04  0.10000000000E+04  0.00000000000E+00 0. -1.
          2   -1    0    0  501    0 -0.00000000000E+00 -0.00000000000E+00 -0.10471503118E+03  0.10471503118E+03  0.00000000000E+00 0. -1.
    9000006    2    1    2  501    0  0.00000000000E+00  0.00000000000E+00  0.89528496882E+03  0.11047150312E+04  0.64719403947E+03 0.  0.
         13    1    3    3    0    0  0.19108517806E+03  0.74578506104E+02  0.87485110500E+03  0.89857662710E+03  0.00000000000E+00 0. -1.
          4    1    3    3  501    0 -0.19108517806E+03 -0.74578506104E+02  0.20433863819E+02  0.20613840409E+03  0.00000000000E+00 0. -1.
<mgrwt>
<rscale>  0 0.64719404E+03</rscale>
<asrwt>0</asrwt>
<pdfrwt beam="1">0</pdfrwt>
<pdfrwt beam="2">  1        2 0.38078273E+00 0.64719404E+03</pdfrwt>
<totfact> 0.46967143E+00</totfact>
</mgrwt>
</event>
<event>
 5    1  0.2344661E-004  0.6718312E+03  0.7818608E-02  0.9766655E-01
         13   -1    0    0    0    0  0.00000000000E+00  0.00000000000E+00  0.10000000000E+04  0.10000000000E+04  0.00000000000E+00 0. -1.
          2   -1    0    0  501    0 -0.00000000000E+00 -0.00000000000E+00 -0.11283928956E+03  0.11283928956E+03  0.00000000000E+00 0. -1.
    9000006    2    1    2  501    0  0.00000000000E+00  0.00000000000E+00  0.88716071044E+03  0.11128392896E+04  0.67183119774E+03 0.  0.
         13    1    3    3    0    0  0.29191155567E+03  0.14461433652E+03  0.30785815725E+03  0.44822127085E+03  0.00000000000E+00 0. -1.
          2    1    3    3  501    0 -0.29191155567E+03 -0.14461433652E+03  0.57930255319E+03  0.66461801871E+03  0.00000000000E+00 0. -1.
<mgrwt>
<rscale>  0 0.67183120E+03</rscale>
<asrwt>0</asrwt>
<pdfrwt beam="1">0</pdfrwt>
<pdfrwt beam="2">  1        2 0.41032555E+00 0.67183120E+03</pdfrwt>
<totfact> 0.36351353E+00</totfact>
</mgrwt>
</event>
<event>
 5    1  0.2344661E-004  0.6541962E+03  0.7818608E-02  0.9798937E-01
         13   -1    0    0    0    0  0.00000000000E+00  0.00000000000E+00  0.10000000000E+04  0.10000000000E+04  0.00000000000E+00 0. -1.
          2   -1    0    0  501    0 -0.00000000000E+00 -0.00000000000E+00 -0.10699316978E+03  0.10699316978E+03  0.00000000000E+00 0. -1.
    9000006    2    1    2  501    0  0.00000000000E+00  0.00000000000E+00  0.89300683022E+03  0.11069931698E+04  0.65419620844E+03 0.  0.
         13    1    3    3    0    0  0.80016690110E+02  0.30313003358E+03  0.60436027935E+03  0.68083906705E+03  0.00000000000E+00 0. -1.
          4    1    3    3  501    0 -0.80016690110E+02 -0.30313003358E+03  0.28864655086E+03  0.42615410274E+03  0.00000000000E+00 0. -1.
<mgrwt>
<rscale>  0 0.65419621E+03</rscale>
<asrwt>0</asrwt>
<pdfrwt beam="1">0</pdfrwt>
<pdfrwt beam="2">  1        2 0.38906689E+00 0.65419621E+03</pdfrwt>
<totfact> 0.43739280E+00</totfact>
</mgrwt>
</event>
<event>
 5    1  0.2344661E-004  0.6373164E+03  0.7818608E-02  0.9830874E-01
         13   -1    0    0    0    0  0.00000000000E+00  0.00000000000E+00  0.10000000000E+04  0.10000000000E+04  0.00000000000E+00 0. -1.
          2   -1    0    0  501    0 -0.00000000000E+00 -0.00000000000E+00 -0.10154305550E+03  0.10154305550E+03  0.00000000000E+00 0. -1.
    9000006    2    1    2  501    0  0.00000000000E+00  0.00000000000E+00  0.89845694450E+03  0.11015430555E+04  0.63731642219E+03 0.  0.
         13    1    3    3    0    0 -0.33453731853E+02  0.68516299818E+02  0.98400099090E+03  0.98695065004E+03  0.00000000000E+00 0. -1.
          4    1    3    3  501    0  0.33453731853E+02 -0.68516299818E+02 -0.85544046398E+02  0.11459240546E+03  0.00000000000E+00 0. -1.
<mgrwt>
<rscale>  0 0.63731642E+03</rscale>
<asrwt>0</asrwt>
<pdfrwt beam="1">0</pdfrwt>
<pdfrwt beam="2">  1        2 0.36924825E+00 0.63731642E+03</pdfrwt>
<totfact> 0.51823274E+00</totfact>
</mgrwt>
</event>
<event>
 5    1  0.2344661E-004  0.6682087E+03  0.7818608E-02  0.9773199E-01
         13   -1    0    0    0    0  0.00000000000E+00  0.00000000000E+00  0.10000000000E+04  0.10000000000E+04  0.00000000000E+00 0. -1.
          2   -1    0    0  501    0 -0.00000000000E+00 -0.00000000000E+00 -0.11162571657E+03  0.11162571657E+03  0.00000000000E+00 0. -1.
    9000006    2    1    2  501    0  0.00000000000E+00  0.00000000000E+00  0.88837428343E+03  0.11116257166E+04  0.66820869964E+03 0.  0.
         13    1    3    3    0    0 -0.12702751861E+03 -0.30767826228E+03  0.39643852652E+03  0.51765375385E+03  0.00000000000E+00 0. -1.
          2    1    3    3  501    0  0.12702751861E+03  0.30767826228E+03  0.49193575691E+03  0.59397196272E+03  0.00000000000E+00 0. -1.
<mgrwt>
<rscale>  0 0.66820870E+03</rscale>
<asrwt>0</asrwt>
<pdfrwt beam="1">0</pdfrwt>
<pdfrwt beam="2">  1        2 0.40591255E+00 0.66820870E+03</pdfrwt>
<totfact> 0.37785617E+00</totfact>
</mgrwt>
</event>
<event>
 5    1  0.2344661E-004  0.6497248E+03  0.7818608E-02  0.9807296E-01
         13   -1    0    0    0    0  0.00000000000E+00  0.00000000000E+00  0.10000000000E+04  0.10000000000E+04  0.00000000000E+00 0. -1.
          2   -1    0    0  501    0 -0.00000000000E+00 -0.00000000000E+00 -0.10553556499E+03  0.10553556499E+03  0.00000000000E+00 0. -1.
    9000006    2    1    2  501    0  0.00000000000E+00  0.00000000000E+00  0.89446443501E+03  0.11055355650E+04  0.64972475709E+03 0.  0.
         13    1    3    3    0    0 -0.14545887795E+03  0.27670322451E+03  0.29683449954E+03  0.43108430701E+03  0.00000000000E+00 0. -1.
          4    1    3    3  501    0  0.14545887795E+03 -0.27670322451E+03  0.59762993546E+03  0.67445125798E+03  0.00000000000E+00 0. -1.
<mgrwt>
<rscale>  0 0.64972476E+03</rscale>
<asrwt>0</asrwt>
<pdfrwt beam="1">0</pdfrwt>
<pdfrwt beam="2">  1        2 0.38376650E+00 0.64972476E+03</pdfrwt>
<totfact> 0.45780457E+00</totfact>
</mgrwt>
</event>
<event>
 5    1  0.2344661E-004  0.6515348E+03  0.7818608E-02  0.9803903E-01
         13   -1    0    0    0    0  0.00000000000E+00  0.00000000000E+00  0.10000000000E+04  0.10000000000E+04  0.00000000000E+00 0. -1.
          2   -1    0    0  501    0 -0.00000000000E+00 -0.00000000000E+00 -0.10612440546E+03  0.10612440546E+03  0.00000000000E+00 0. -1.
    9000006    2    1    2  501    0  0.00000000000E+00  0.00000000000E+00  0.89387559454E+03  0.11061244055E+04  0.65153482013E+03 0.  0.
         13    1    3    3    0    0 -0.23793329393E+03 -0.18889004740E+03  0.24726455429E+03  0.39170328333E+03  0.00000000000E+00 0. -1.
          2    1    3    3  501    0  0.23793329393E+03  0.18889004740E+03  0.64661104025E+03  0.71442112213E+03  0.00000000000E+00 0. -1.
<mgrwt>
<rscale>  0 0.65153482E+03</rscale>
<asrwt>0</asrwt>
<pdfrwt beam="1">0</pdfrwt>
<pdfrwt beam="2">  1        2 0.38590774E+00 0.65153482E+03</pdfrwt>
<totfact> 0.44945700E+00</totfact>
</mgrwt>
</event>
<event>
 5    1  0.2344661E-004  0.6419236E+03  0.7818608E-02  0.9822053E-01
         13   -1    0    0    0    0  0.00000000000E+00  0.00000000000E+00  0.10000000000E+04  0.10000000000E+04  0.00000000000E+00 0. -1.
          2   -1    0    0  501    0 -0.00000000000E+00 -0.00000000000E+00 -0.10301646452E+03  0.10301646452E+03  0.00000000000E+00 0. -1.
    9000006    2    1    2  501    0  0.00000000000E+00  0.00000000000E+00  0.89698353548E+03  0.11030164645E+04  0.64192356094E+03 0.  0.
         13    1    3    3    0    0 -0.25477927684E+02  0.14036265857E+03 -0.45547259231E+02  0.14975097176E+03  0.00000000000E+00 0. -1.
          2    1    3    3  501    0  0.25477927684E+02 -0.14036265857E+03  0.94253079471E+03  0.95326549276E+03  0.00000000000E+00 0. -1.
<mgrwt>
<rscale>  0 0.64192356E+03</rscale>
<asrwt>0</asrwt>
<pdfrwt beam="1">0</pdfrwt>
<pdfrwt beam="2">  1        2 0.37460612E+00 0.64192356E+03</pdfrwt>
<totfact> 0.49513144E+00</totfact>
</mgrwt>
</event>
<event>
 5    1  0.2344661E-004  0.6480209E+03  0.7818608E-02  0.9810500E-01
         13   -1    0    0    0    0  0.00000000000E+00  0.00000000000E+00  0.10000000000E+04  0.10000000000E+04  0.00000000000E+00 0. -1.
          2   -1    0    0  501    0 -0.00000000000E+00 -0.00000000000E+00 -0.10498276927E+03  0.10498276927E+03  0.00000000000E+00 0. -1.
    9000006    2    1    2  501    0  0.00000000000E+00  0.00000000000E+00  0.89501723073E+03  0.11049827693E+04  0.64802089246E+03 0.  0.
         13    1    3    3    0    0 -0.10023036492E+03  0.43170449375E+02  0.96771808120E+03  0.97385219537E+03  0.00000000000E+00 0. -1.
          4    1    3    3  501    0  0.10023036492E+03 -0.43170449375E+02 -0.72700850468E+02  0.13113057389E+03  0.00000000000E+00 0. -1.
<mgrwt>
<rscale>  0 0.64802089E+03</rscale>
<asrwt>0</asrwt>
<pdfrwt beam="1">0</pdfrwt>
<pdfrwt beam="2">  1        2 0.38175633E+00 0.64802089E+03</pdfrwt>
<totfact> 0.46576894E+00</totfact>
</mgrwt>
</event>
<event>
 5    1  0.2344661E-004  0.6171616E+03  0.7818608E-02  0.9870427E-01
         13   -1    0    0    0    0  0.00000000000E+00  0.00000000000E+00  0.10000000000E+04  0.10000000000E+04  0.00000000000E+00 0. -1.
          2   -1    0    0  501    0 -0.00000000000E+00 -0.00000000000E+00 -0.95222096789E+02  0.95222096789E+02  0.00000000000E+00 0. -1.
    9000006    2    1    2  501    0  0.00000000000E+00  0.00000000000E+00  0.90477790321E+03  0.10952220968E+04  0.61716155677E+03 0.  0.
         13    1    3    3    0    0 -0.19134756840E+03 -0.23887529493E+03  0.38259461586E+03  0.48995299626E+03  0.00000000000E+00 0. -1.
          4    1    3    3  501    0  0.19134756840E+03  0.23887529493E+03  0.52218328735E+03  0.60526910053E+03  0.00000000000E+00 0. -1.
<mgrwt>
<rscale>  0 0.61716156E+03</rscale>
<asrwt>0</asrwt>
<pdfrwt beam="1">0</pdfrwt>
<pdfrwt beam="2">  1        2 0.34626290E+00 0.61716156E+03</pdfrwt>
<totfact> 0.62906118E+00</totfact>
</mgrwt>
</event>
<event>
 5    1  0.2344661E-004  0.6631797E+03  0.7818608E-02  0.9782358E-01
         13   -1    0    0    0    0  0.00000000000E+00  0.00000000000E+00  0.10000000000E+04  0.10000000000E+04  0.00000000000E+00 0. -1.
          2   -1    0    0  501    0 -0.00000000000E+00 -0.00000000000E+00 -0.10995182945E+03  0.10995182945E+03  0.00000000000E+00 0. -1.
    9000006    2    1    2  501    0  0.00000000000E+00  0.00000000000E+00  0.89004817055E+03  0.11099518295E+04  0.66317970250E+03 0.  0.
         13    1    3    3    0    0  0.11823251658E+03  0.30940418854E+03  0.41899041793E+03  0.53410003761E+03  0.00000000000E+00 0. -1.
          2    1    3    3  501    0 -0.11823251658E+03 -0.30940418854E+03  0.47105775262E+03  0.57585179184E+03  0.00000000000E+00 0. -1.
<mgrwt>
<rscale>  0 0.66317970E+03</rscale>
<asrwt>0</asrwt>
<pdfrwt beam="1">0</pdfrwt>
<pdfrwt beam="2">  1        2 0.39982568E+00 0.66317970E+03</pdfrwt>
<totfact> 0.39846978E+00</totfact>
</mgrwt>
</event>
<event>
 5    1  0.2344661E-004  0.6484356E+03  0.7818608E-02  0.9809719E-01
         13   -1    0    0    0    0  0.00000000000E+00  0.00000000000E+00  0.10000000000E+04  0.10000000000E+04  0.00000000000E+00 0. -1.
          2   -1    0    0  501    0 -0.00000000000E+00 -0.00000000000E+00 -0.10511719098E+03  0.10511719098E+03  0.00000000000E+00 0. -1.
    9000006    2    1    2  501    0  0.00000000000E+00  0.00000000000E+00  0.89488280902E+03  0.11051171910E+04  0.64843562821E+03 0.  0.
         13    1    3    3    0    0 -0.22958339618E+03 -0.10332705627E+03  0.79559988133E+03  0.83448438423E+03  0.00000000000E+00 0. -1.
          2    1    3    3  501    0  0.22958339618E+03  0.10332705627E+03  0.99282927689E+02  0.27063280675E+03  0.00000000000E+00 0. -1.
<mgrwt>
<rscale>  0 0.64843563E+03</rscale>
<asrwt>0</asrwt>
<pdfrwt beam="1">0</pdfrwt>
<pdfrwt beam="2">  1        2 0.38224514E+00 0.64843563E+03</pdfrwt>
<totfact> 0.46382077E+00</totfact>
</mgrwt>
</event>
<event>
 5    1  0.2344661E-004  0.6498587E+03  0.7818608E-02  0.9807044E-01
         13   -1    0    0    0    0  0.00000000000E+00  0.00000000000E+00  0.10000000000E+04  0.10000000000E+04  0.00000000000E+00 0. -1.
          2   -1    0    0  501    0 -0.00000000000E+00 -0.00000000000E+00 -0.10557909001E+03  0.10557909001E+03  0.00000000000E+00 0. -1.
    9000006    2    1    2  501    0  0.00000000000E+00  0.00000000000E+00  0.89442090999E+03  0.11055790900E+04  0.64985872313E+03 0.  0.
         13    1    3    3    0    0  0.15701339629E+03 -0.13610155869E+03  0.22228015852E+02  0.20897589713E+03  0.00000000000E+00 0. -1.
          2    1    3    3  501    0 -0.15701339629E+03  0.13610155869E+03  0.87219289414E+03  0.89660319288E+03  0.00000000000E+00 0. -1.
<mgrwt>
<rscale>  0 0.64985872E+03</rscale>
<asrwt>0</asrwt>
<pdfrwt beam="1">0</pdfrwt>
<pdfrwt beam="2">  1        2 0.38392477E+00 0.64985872E+03</pdfrwt>
<totfact> 0.45718277E+00</totfact>
</mgrwt>
</event>
<event>
 5    1  0.2344661E-004  0.5349669E+03  0.7818608E-02  0.1005035E+00
         13   -1    0    0    0    0  0.00000000000E+00  0.00000000000E+00  0.10000000000E+04  0.10000000000E+04  0.00000000000E+00 0. -1.
          2   -1    0    0  501    0 -0.00000000000E+00 -0.00000000000E+00 -0.71547401109E+02  0.71547401109E+02  0.00000000000E+00 0. -1.
    9000006    2    1    2  501    0  0.00000000000E+00  0.00000000000E+00  0.92845259889E+03  0.10715474011E+04  0.53496691901E+03 0.  0.
         13    1    3    3    0    0 -0.11730623472E+03 -0.20800340097E+03  0.70559792538E+03  0.74491247796E+03  0.00000000000E+00 0. -1.
          4    1    3    3  501    0  0.11730623472E+03  0.20800340097E+03  0.22285467351E+03  0.32663492315E+03  0.00000000000E+00 0. -1.
<mgrwt>
<rscale>  0 0.53496692E+03</rscale>
<asrwt>0</asrwt>
<pdfrwt beam="1">0</pdfrwt>
<pdfrwt beam="2">  1        2 0.26017292E+00 0.53496692E+03</pdfrwt>
<totfact> 0.12815404E+01</totfact>
</mgrwt>
</event>
<event>
 5    1  0.2344661E-004  0.6399525E+03  0.7818608E-02  0.9825818E-01
         13   -1    0    0    0    0  0.00000000000E+00  0.00000000000E+00  0.10000000000E+04  0.10000000000E+04  0.00000000000E+00 0. -1.
          2   -1    0    0  501    0 -0.00000000000E+00 -0.00000000000E+00 -0.10238478517E+03  0.10238478517E+03  0.00000000000E+00 0. -1.
    9000006    2    1    2  501    0  0.00000000000E+00  0.00000000000E+00  0.89761521483E+03  0.11023847852E+04  0.63995245189E+03 0.  0.
         13    1    3    3    0    0 -0.10495693781E+03  0.94878978958E+02  0.94318842932E+03  0.95374126085E+03  0.00000000000E+00 0. -1.
          4    1    3    3  501    0  0.10495693781E+03 -0.94878978958E+02 -0.45573214494E+02  0.14864352432E+03  0.00000000000E+00 0. -1.
<mgrwt>
<rscale>  0 0.63995245E+03</rscale>
<asrwt>0</asrwt>
<pdfrwt beam="1">0</pdfrwt>
<pdfrwt beam="2">  1        2 0.37230909E+00 0.63995245E+03</pdfrwt>
<totfact> 0.50491745E+00</totfact>
</mgrwt>
</event>
<event>
 5    1  0.2344661E-004  0.6580297E+03  0.7818608E-02  0.9791828E-01
         13   -1    0    0    0    0  0.00000000000E+00  0.00000000000E+00  0.10000000000E+04  0.10000000000E+04  0.00000000000E+00 0. -1.
          2   -1    0    0  501    0 -0.00000000000E+00 -0.00000000000E+00 -0.10825078730E+03  0.10825078730E+03  0.00000000000E+00 0. -1.
    9000006    2    1    2  501    0  0.00000000000E+00  0.00000000000E+00  0.89174921270E+03  0.11082507873E+04  0.65802974796E+03 0.  0.
         13    1    3    3    0    0 -0.19790601727E+03  0.88319873553E+02  0.28943171865E+02  0.21864331440E+03  0.00000000000E+00 0. -1.
          2    1    3    3  501    0  0.19790601727E+03 -0.88319873553E+02  0.86280604084E+03  0.88960747290E+03  0.00000000000E+00 0. -1.
<mgrwt>
<rscale>  0 0.65802975E+03</rscale>
<asrwt>0</asrwt>
<pdfrwt beam="1">0</pdfrwt>
<pdfrwt beam="2">  1        2 0.39364006E+00 0.65802975E+03</pdfrwt>
<totfact> 0.42044702E+00</totfact>
</mgrwt>
</event>
<event>
 5    1  0.2344661E-004  0.6526822E+03  0.7818608E-02  0.9801759E-01
         13   -1    0    0    0    0  0.00000000000E+00  0.00000000000E+00  0.10000000000E+04  0.10000000000E+04  0.00000000000E+00 0. -1.
          2   -1    0    0  501    0 -0.00000000000E+00 -0.00000000000E+00 -0.10649849755E+03  0.10649849755E+03  0.00000000000E+00 0. -1.
    9000006    2    1    2  501    0  0.00000000000E+00  0.00000000000E+00  0.89350150245E+03  0.11064984976E+04  0.65268215097E+03 0.  0.
         13    1    3    3    0    0 -0.25863956459E+03  0.19896661690E+03  0.45360754952E+03  0.55878613797E+03  0.00000000000E+00 0. -1.
          2    1    3    3  501    0  0.25863956459E+03 -0.19896661690E+03  0.43989395293E+03  0.54771235958E+03  0.00000000000E+00 0. -1.
<mgrwt>
<rscale>  0 0.65268215E+03</rscale>
<asrwt>0</asrwt>
<pdfrwt beam="1">0</pdfrwt>
<pdfrwt beam="2">  1        2 0.38726808E+00 0.65268215E+03</pdfrwt>
<totfact> 0.44422568E+00</totfact>
</mgrwt>
</event>
<event>
 5    1  0.2344661E-004  0.6484009E+03  0.7818608E-02  0.9809784E-01
         13   -1    0    0    0    0  0.00000000000E+00  0.00000000000E+00  0.10000000000E+04  0.10000000000E+04  0.00000000000E+00 0. -1.
          2   -1    0    0  501    0 -0.00000000000E+00 -0.00000000000E+00 -0.10510592595E+03  0.10510592595E+03  0.00000000000E+00 0. -1.
    9000006    2    1    2  501    0  0.00000000000E+00  0.00000000000E+00  0.89489407405E+03  0.11051059259E+04  0.64840088200E+03 0.  0.
         13    1    3    3    0    0  0.86865806306E+02 -0.10040877798E+03 -0.56645844749E+02  0.14434799177E+03  0.00000000000E+00 0. -1.
          2    1    3    3  501    0 -0.86865806306E+02  0.10040877798E+03  0.95153991880E+03  0.96075793417E+03  0.00000000000E+00 0. -1.
<mgrwt>
<rscale>  0 0.64840088E+03</rscale>
<asrwt>0</asrwt>
<pdfrwt beam="1">0</pdfrwt>
<pdfrwt beam="2">  1        2 0.38220417E+00 0.64840088E+03</pdfrwt>
<totfact> 0.46398375E+00</totfact>
</mgrwt>
</event>
<event>
 5    1  0.2344661E-004  0.6555559E+03  0.7818608E-02  0.9796409E-01
         13   -1    0    0    0    0  0.00000000000E+00  0.00000000000E+00  0.10000000000E+04  0.10000000000E+04  0.00000000000E+00 0. -1.
          2   -1    0    0  501    0 -0.00000000000E+00 -0.00000000000E+00 -0.10743837446E+03  0.10743837446E+03  0.00000000000E+00 0. -1.
    9000006    2    1    2  501    0  0.00000000000E+00  0.00000000000E+00  0.89256162554E+03  0.11074383745E+04  0.65555586935E+03 0.  0.
         13    1    3    3    0    0  0.28122421797E+03 -0.16812570721E+03  0.46186101981E+03  0.56627635993E+03  0.00000000000E+00 0. -1.
          2    1    3    3  501    0 -0.28122421797E+03  0.16812570721E+03  0.43070060573E+03  0.54116201453E+03  0.00000000000E+00 0. -1.
<mgrwt>
<rscale>  0 0.65555587E+03</rscale>
<asrwt>0</asrwt>
<pdfrwt beam="1">0</pdfrwt>
<pdfrwt beam="2">  1        2 0.39068582E+00 0.65555587E+03</pdfrwt>
<totfact> 0.43132464E+00</totfact>
</mgrwt>
</event>
<event>
 5    1  0.2344661E-004  0.6535287E+03  0.7818608E-02  0.9800180E-01
         13   -1    0    0    0    0  0.00000000000E+00  0.00000000000E+00  0.10000000000E+04  0.10000000000E+04  0.00000000000E+00 0. -1.
          2   -1    0    0  501    0 -0.00000000000E+00 -0.00000000000E+00 -0.10677492645E+03  0.10677492645E+03  0.00000000000E+00 0. -1.
    9000006    2    1    2  501    0  0.00000000000E+00  0.00000000000E+00  0.89322507355E+03  0.11067749264E+04  0.65352865721E+03 0.  0.
         13    1    3    3    0    0  0.19448411841E+03 -0.25791313851E+03  0.53012412372E+03  0.62078566823E+03  0.00000000000E+00 0. -1.
          4    1    3    3  501    0 -0.19448411841E+03  0.25791313851E+03  0.36310094983E+03  0.48598925822E+03  0.00000000000E+00 0. -1.
<mgrwt>
<rscale>  0 0.65352866E+03</rscale>
<asrwt>0</asrwt>
<pdfrwt beam="1">0</pdfrwt>
<pdfrwt beam="2">  1        2 0.38827328E+00 0.65352866E+03</pdfrwt>
<totfact> 0.44039558E+00</totfact>
</mgrwt>
</event>
<event>
 5    1  0.2344661E-004  0.6369023E+03  0.7818608E-02  0.9831671E-01
         13   -1    0    0    0    0  0.00000000000E+00  0.00000000000E+00  0.10000000000E+04  0.10000000000E+04  0.00000000000E+00 0. -1.
          2   -1    0    0  501    0 -0.00000000000E+00 -0.00000000000E+00 -0.10141112211E+03  0.10141112211E+03  0.00000000000E+00 0. -1.
    9000006    2    1    2  501    0  0.00000000000E+00  0.00000000000E+00  0.89858887789E+03  0.11014111221E+04  0.63690225971E+03 0.  0.
         13    1    3    3    0    0 -0.62153012439E+01  0.16879754168E+03 -0.17558931475E+02  0.16982213084E+03  0.00000000000E+00 0. -1.
          2    1    3    3  501    0  0.62153012439E+01 -0.16879754168E+03  0.91614780937E+03  0.93158899127E+03  0.00000000000E+00 0. -1.
<mgrwt>
<rscale>  0 0.63690226E+03</rscale>
<asrwt>0</asrwt>
<pdfrwt beam="1">0</pdfrwt>
<pdfrwt beam="2">  1        2 0.36876849E+00 0.63690226E+03</pdfrwt>
<totfact> 0.52034872E+00</totfact>
</mgrwt>
</event>
<event>
 5    1  0.2344661E-004  0.6503786E+03  0.7818608E-02  0.9806069E-01
         13   -1    0    0    0    0  0.00000000000E+00  0.00000000000E+00  0.10000000000E+04  0.10000000000E+04  0.00000000000E+00 0. -1.
          2   -1    0    0  501    0 -0.00000000000E+00 -0.00000000000E+00 -0.10574808506E+03  0.10574808506E+03  0.00000000000E+00 0. -1.
    9000006    2    1    2  501    0  0.00000000000E+00  0.00000000000E+00  0.89425191494E+03  0.11057480851E+04  0.65037861299E+03 0.  0.
         13    1    3    3    0    0  0.11259823344E+03  0.17090766548E+03  0.17485275739E+02  0.20541063060E+03  0.00000000000E+00 0. -1.
          4    1    3    3  501    0 -0.11259823344E+03 -0.17090766548E+03  0.87676663920E+03  0.90033745446E+03  0.00000000000E+00 0. -1.
<mgrwt>
<rscale>  0 0.65037861E+03</rscale>
<asrwt>0</asrwt>
<pdfrwt beam="1">0</pdfrwt>
<pdfrwt beam="2">  1        2 0.38453930E+00 0.65037861E+03</pdfrwt>
<totfact> 0.45477575E+00</totfact>
</mgrwt>
</event>
<event>
 5    1  0.2344661E-004  0.6496946E+03  0.7818608E-02  0.9807352E-01
         13   -1    0    0    0    0  0.00000000000E+00  0.00000000000E+00  0.10000000000E+04  0.10000000000E+04  0.00000000000E+00 0. -1.
          2   -1    0    0  501    0 -0.00000000000E+00 -0.00000000000E+00 -0.10552577282E+03  0.10552577282E+03  0.00000000000E+00 0. -1.
    9000006    2    1    2  501    0  0.00000000000E+00  0.00000000000E+00  0.89447422718E+03  0.11055257728E+04  0.64969461385E+03 0.  0.
         13    1    3    3    0    0  0.14247680739E+03  0.23468228035E+03  0.15177224319E+03  0.31370404390E+03  0.00000000000E+00 0. -1.
          4    1    3    3  501    0 -0.14247680739E+03 -0.23468228035E+03  0.74270198399E+03  0.79182172891E+03  0.00000000000E+00 0. -1.
<mgrwt>
<rscale>  0 0.64969461E+03</rscale>
<asrwt>0</asrwt>
<pdfrwt beam="1">0</pdfrwt>
<pdfrwt beam="2">  1        2 0.38373089E+00 0.64969461E+03</pdfrwt>
<totfact> 0.45794457E+00</totfact>
</mgrwt>
</event>
<event>
 5    1  0.2344661E-004  0.6638269E+03  0.7818608E-02  0.9781174E-01
         13   -1    0    0    0    0  0.00000000000E+00  0.00000000000E+00  0.10000000000E+04  0.10000000000E+04  0.00000000000E+00 0. -1.
          2   -1    0    0  501    0 -0.00000000000E+00 -0.00000000000E+00 -0.11016653882E+03  0.11016653882E+03  0.00000000000E+00 0. -1.
    9000006    2    1    2  501    0  0.00000000000E+00  0.00000000000E+00  0.88983346118E+03  0.11101665388E+04  0.66382690158E+03 0.  0.
         13    1    3    3    0    0 -0.14762840423E+03 -0.29077343334E+03  0.34151043147E+03  0.47219986242E+03  0.00000000000E+00 0. -1.
          4    1    3    3  501    0  0.14762840423E+03  0.29077343334E+03  0.54832302971E+03  0.63796667639E+03  0.00000000000E+00 0. -1.
<mgrwt>
<rscale>  0 0.66382690E+03</rscale>
<asrwt>0</asrwt>
<pdfrwt beam="1">0</pdfrwt>
<pdfrwt beam="2">  1        2 0.40060644E+00 0.66382690E+03</pdfrwt>
<totfact> 0.39577050E+00</totfact>
</mgrwt>
</event>
<event>
 5    1  0.2344661E-004  0.6335324E+03  0.7818608E-02  0.9838180E-01
         13   -1    0    0    0    0  0.00000000000E+00  0.00000000000E+00  0.10000000000E+04  0.10000000000E+04  0.00000000000E+00 0. -1.
          2   -1    0    0  501    0 -0.00000000000E+00 -0.00000000000E+00 -0.10034081105E+03  0.10034081105E+03  0.00000000000E+00 0. -1.
    9000006    2    1    2  501    0  0.00000000000E+00  0.00000000000E+00  0.89965918895E+03  0.11003408110E+04  0.63353235449E+03 0.  0.
         13    1    3    3    0    0 -0.28538670224E+03 -0.10323920291E+03  0.29219899211E+03  0.42128868228E+03  0.00000000000E+00 0. -1.
          2    1    3    3  501    0  0.28538670224E+03  0.10323920291E+03  0.60746019685E+03  0.67905212877E+03  0.00000000000E+00 0. -1.
<mgrwt>
<rscale>  0 0.63353235E+03</rscale>
<asrwt>0</asrwt>
<pdfrwt beam="1">0</pdfrwt>
<pdfrwt beam="2">  1        2 0.36487645E+00 0.63353235E+03</pdfrwt>
<totfact> 0.53781015E+00</totfact>
</mgrwt>
</event>
<event>
 5    1  0.2344661E-004  0.6458079E+03  0.7818608E-02  0.9814677E-01
         13   -1    0    0    0    0  0.00000000000E+00  0.00000000000E+00  0.10000000000E+04  0.10000000000E+04  0.00000000000E+00 0. -1.
          2   -1    0    0  501    0 -0.00000000000E+00 -0.00000000000E+00 -0.10426696699E+03  0.10426696699E+03  0.00000000000E+00 0. -1.
    9000006    2    1    2  501    0  0.00000000000E+00  0.00000000000E+00  0.89573303301E+03  0.11042669670E+04  0.64580791877E+03 0.  0.
         13    1    3    3    0    0 -0.31668032851E+03  0.44245772124E+02  0.37096190931E+03  0.48975183203E+03  0.00000000000E+00 0. -1.
          2    1    3    3  501    0  0.31668032851E+03 -0.44245772124E+02  0.52477112370E+03  0.61451513495E+03  0.00000000000E+00 0. -1.
<mgrwt>
<rscale>  0 0.64580792E+03</rscale>
<asrwt>0</asrwt>
<pdfrwt beam="1">0</pdfrwt>
<pdfrwt beam="2">  1        2 0.37915341E+00 0.64580792E+03</pdfrwt>
<totfact> 0.47626890E+00</totfact>
</mgrwt>
</event>
<event>
 5    1  0.2344661E-004  0.6454814E+03  0.7818608E-02  0.9815295E-01
         13   -1    0    0    0    0  0.00000000000E+00  0.00000000000E+00  0.10000000000E+04  0.10000000000E+04  0.00000000000E+00 0. -1.
          2   -1    0    0  501    0 -0.00000000000E+00 -0.00000000000E+00 -0.10416154375E+03  0.10416154375E+03  0.00000000000E+00 0. -1.
    9000006    2    1    2  501    0  0.00000000000E+00  0.00000000000E+00  0.89583845625E+03  0.11041615437E+04  0.64548135139E+03 0.  0.
         13    1    3    3    0    0  0.11163146061E+03  0.23351731388E+03  0.11812503335E+03  0.28450912531E+03  0.00000000000E+00 0. -1.
          2    1    3    3  501    0 -0.11163146061E+03 -0.23351731388E+03  0.77771342290E+03  0.81965241844E+03  0.00000000000E+00 0. -1.
<mgrwt>
<rscale>  0 0.64548135E+03</rscale>
<asrwt>0</asrwt>
<pdfrwt beam="1">0</pdfrwt>
<pdfrwt beam="2">  1        2 0.37877005E+00 0.64548135E+03</pdfrwt>
<totfact> 0.47783340E+00</totfact>
</mgrwt>
</event>
<event>
 5    1  0.2344661E-004  0.6580190E+03  0.7818608E-02  0.9791847E-01
         13   -1    0    0    0    0  0.00000000000E+00  0.00000000000E+00  0.10000000000E+04  0.10000000000E+04  0.00000000000E+00 0. -1.
          2   -1    0    0  501    0 -0.00000000000E+00 -0.00000000000E+00 -0.10824725605E+03  0.10824725605E+03  0.00000000000E+00 0. -1.
    9000006    2    1    2  501    0  0.00000000000E+00  0.00000000000E+00  0.89175274395E+03  0.11082472561E+04  0.65801901508E+03 0.  0.
         13    1    3    3    0    0  0.17360942981E+02 -0.19008842944E+03  0.89720976377E+03  0.91728968900E+03  0.00000000000E+00 0. -1.
          2    1    3    3  501    0 -0.17360942981E+02  0.19008842944E+03 -0.54570198227E+01  0.19095756705E+03  0.00000000000E+00 0. -1.
<mgrwt>
<rscale>  0 0.65801902E+03</rscale>
<asrwt>0</asrwt>
<pdfrwt beam="1">0</pdfrwt>
<pdfrwt beam="2">  1        2 0.39362722E+00 0.65801902E+03</pdfrwt>
<totfact> 0.42049376E+00</totfact>
</mgrwt>
</event>
<event>
 5    1  0.2344661E-004  0.6514231E+03  0.7818608E-02  0.9804113E-01
         13   -1    0    0    0    0  0.00000000000E+00  0.00000000000E+00  0.10000000000E+04  0.10000000000E+04  0.00000000000E+00 0. -1.
          2   -1    0    0  501    0 -0.00000000000E+00 -0.00000000000E+00 -0.10608800040E+03  0.10608800040E+03  0.00000000000E+00 0. -1.
    9000006    2    1    2  501    0  0.00000000000E+00  0.00000000000E+00  0.89391199960E+03  0.11060880004E+04  0.65142305884E+03 0.  0.
         13    1    3    3    0    0 -0.26849924059E+03  0.18146994117E+03  0.50236296691E+03  0.59782249227E+03  0.00000000000E+00 0. -1.
          2    1    3    3  501    0  0.26849924059E+03 -0.18146994117E+03  0.39154903269E+03  0.50826550812E+03  0.00000000000E+00 0. -1.
<mgrwt>
<rscale>  0 0.65142306E+03</rscale>
<asrwt>0</asrwt>
<pdfrwt beam="1">0</pdfrwt>
<pdfrwt beam="2">  1        2 0.38577536E+00 0.65142306E+03</pdfrwt>
<totfact> 0.44996906E+00</totfact>
</mgrwt>
</event>
<event>
 5    1  0.2344661E-004  0.6518930E+03  0.7818608E-02  0.9803233E-01
         13   -1    0    0    0    0  0.00000000000E+00  0.00000000000E+00  0.10000000000E+04  0.10000000000E+04  0.00000000000E+00 0. -1.
          2   -1    0    0  501    0 -0.00000000000E+00 -0.00000000000E+00 -0.10624113500E+03  0.10624113500E+03  0.00000000000E+00 0. -1.
    9000006    2    1    2  501    0  0.00000000000E+00  0.00000000000E+00  0.89375886500E+03  0.11062411350E+04  0.65189304339E+03 0.  0.
         13    1    3    3    0    0  0.82554620607E+02 -0.31510793536E+03  0.46643941416E+03  0.56892354794E+03  0.00000000000E+00 0. -1.
          2    1    3    3  501    0 -0.82554620607E+02  0.31510793536E+03  0.42731945083E+03  0.53731758707E+03  0.00000000000E+00 0. -1.
<mgrwt>
<rscale>  0 0.65189304E+03</rscale>
<asrwt>0</asrwt>
<pdfrwt beam="1">0</pdfrwt>
<pdfrwt beam="2">  1        2 0.38633221E+00 0.65189304E+03</pdfrwt>
<totfact> 0.44781869E+00</totfact>
</mgrwt>
</event>
<event>
 5    1  0.2344661E-004  0.6487144E+03  0.7818608E-02  0.9809195E-01
         13   -1    0    0    0    0  0.00000000000E+00  0.00000000000E+00  0.10000000000E+04  0.10000000000E+04  0.00000000000E+00 0. -1.
          2   -1    0    0  501    0 -0.00000000000E+00 -0.00000000000E+00 -0.10520758040E+03  0.10520758040E+03  0.00000000000E+00 0. -1.
    9000006    2    1    2  501    0  0.00000000000E+00  0.00000000000E+00  0.89479241960E+03  0.11052075804E+04  0.64871436058E+03 0.  0.
         13    1    3    3    0    0 -0.20288426217E+03 -0.20613955585E+03  0.69750821382E+03  0.75509817154E+03  0.00000000000E+00 0. -1.
          4    1    3    3  501    0  0.20288426217E+03  0.20613955585E+03  0.19728420578E+03  0.35010940886E+03  0.00000000000E+00 0. -1.
<mgrwt>
<rscale>  0 0.64871436E+03</rscale>
<asrwt>0</asrwt>
<pdfrwt beam="1">0</pdfrwt>
<pdfrwt beam="2">  1        2 0.38257383E+00 0.64871436E+03</pdfrwt>
<totfact> 0.46251493E+00</totfact>
</mgrwt>
</event>
<event>
 5    1  0.2344661E-004  0.6593770E+03  0.7818608E-02  0.9789341E-01
         13   -1    0    0    0    0  0.00000000000E+00  0.00000000000E+00  0.10000000000E+04  0.10000000000E+04  0.00000000000E+00 0. -1.
          2   -1    0    0  501    0 -0.00000000000E+00 -0.00000000000E+00 -0.10869451578E+03  0.10869451578E+03  0.00000000000E+00 0. -1.
    9000006    2    1    2  501    0  0.00000000000E+00  0.00000000000E+00  0.89130548422E+03  0.11086945158E+04  0.65937702654E+03 0.  0.
         13    1    3    3    0    0 -0.67570119075E+02  0.31826900895E+03  0.35614721231E+03  0.48239166648E+03  0.00000000000E+00 0. -1.
          2    1    3    3  501    0  0.67570119075E+02 -0.31826900895E+03  0.53515827191E+03  0.62630284930E+03  0.00000000000E+00 0. -1.
<mgrwt>
<rscale>  0 0.65937703E+03</rscale>
<asrwt>0</asrwt>
<pdfrwt beam="1">0</pdfrwt>
<pdfrwt beam="2">  1        2 0.39525362E+00 0.65937703E+03</pdfrwt>
<totfact> 0.41461131E+00</totfact>
</mgrwt>
</event>
<event>
 5    1  0.2344661E-004  0.6551003E+03  0.7818608E-02  0.9797256E-01
         13   -1    0    0    0    0  0.00000000000E+00  0.00000000000E+00  0.10000000000E+04  0.10000000000E+04  0.00000000000E+00 0. -1.
          2   -1    0    0  501    0 -0.00000000000E+00 -0.00000000000E+00 -0.10728908780E+03  0.10728908780E+03  0.00000000000E+00 0. -1.
    9000006    2    1    2  501    0  0.00000000000E+00  0.00000000000E+00  0.89271091220E+03  0.11072890878E+04  0.65510026042E+03 0.  0.
         13    1    3    3    0    0 -0.34844534852E+02 -0.59159446190E+02  0.98770058764E+03  0.99008405325E+03  0.00000000000E+00 0. -1.
          4    1    3    3  501    0  0.34844534852E+02  0.59159446190E+02 -0.94989675442E+02  0.11720503455E+03  0.00000000000E+00 0. -1.
<mgrwt>
<rscale>  0 0.65510026E+03</rscale>
<asrwt>0</asrwt>
<pdfrwt beam="1">0</pdfrwt>
<pdfrwt beam="2">  1        2 0.39014296E+00 0.65510026E+03</pdfrwt>
<totfact> 0.43335089E+00</totfact>
</mgrwt>
</event>
<event>
 5    1  0.2344661E-004  0.6450318E+03  0.7818608E-02  0.9816147E-01
         13   -1    0    0    0    0  0.00000000000E+00  0.00000000000E+00  0.10000000000E+04  0.10000000000E+04  0.00000000000E+00 0. -1.
          2   -1    0    0  501    0 -0.00000000000E+00 -0.00000000000E+00 -0.10401650265E+03  0.10401650265E+03  0.00000000000E+00 0. -1.
    9000006    2    1    2  501    0  0.00000000000E+00  0.00000000000E+00  0.89598349735E+03  0.11040165026E+04  0.64503179038E+03 0.  0.
         13    1    3    3    0    0 -0.15857841424E+03 -0.13549484164E+03  0.26964746637E+02  0.21031657837E+03  0.00000000000E+00 0. -1.
          4    1    3    3  501    0  0.15857841424E+03  0.13549484164E+03  0.86901875071E+03  0.89369992428E+03  0.00000000000E+00 0. -1.
<mgrwt>
<rscale>  0 0.64503179E+03</rscale>
<asrwt>0</asrwt>
<pdfrwt beam="1">0</pdfrwt>
<pdfrwt beam="2">  1        2 0.37824263E+00 0.64503179E+03</pdfrwt>
<totfact> 0.47999350E+00</totfact>
</mgrwt>
</event>
<event>
 5    1  0.2344661E-004  0.6552395E+03  0.7818608E-02  0.9796997E-01
         13   -1    0    0    0    0  0.00000000000E+00  0.00000000000E+00  0.10000000000E+04  0.10000000000E+04  0.00000000000E+00 0. -1.
          2   -1    0    0  501    0 -0.00000000000E+00 -0.00000000000E+00 -0.10733469503E+03  0.10733469503E+03  0.00000000000E+00 0. -1.
    9000006    2    1    2  501    0  0.00000000000E+00  0.00000000000E+00  0.89266530497E+03  0.11073346950E+04  0.65523948304E+03 0.  0.
         13    1    3    3    0    0 -0.29046155187E+03  0.67311097165E+02  0.67579539294E+03  0.73864613316E+03  0.00000000000E+00 0. -1.
          4    1    3    3  501    0  0.29046155187E+03 -0.67311097165E+02  0.21686991203E+03  0.36868856188E+03  0.00000000000E+00 0. -1.
<mgrwt>
<rscale>  0 0.65523948E+03</rscale>
<asrwt>0</asrwt>
<pdfrwt beam="1">0</pdfrwt>
<pdfrwt beam="2">  1        2 0.39030880E+00 0.65523948E+03</pdfrwt>
<totfact> 0.43273096E+00</totfact>
</mgrwt>
</event>
<event>
 5    1  0.2344661E-004  0.6070252E+03  0.7818608E-02  0.9890937E-01
         13   -1    0    0    0    0  0.00000000000E+00  0.00000000000E+00  0.10000000000E+04  0.10000000000E+04  0.00000000000E+00 0. -1.
          2   -1    0    0  501    0 -0.00000000000E+00 -0.00000000000E+00 -0.92119890059E+02  0.92119890059E+02  0.00000000000E+00 0. -1.
    9000006    2    1    2  501    0  0.00000000000E+00  0.00000000000E+00  0.90788010994E+03  0.10921198901E+04  0.60702517266E+03 0.  0.
         13    1    3    3    0    0  0.76456343378E+02  0.22721708602E+03  0.78882423936E+03  0.82444942672E+03  0.00000000000E+00 0. -1.
          4    1    3    3  501    0 -0.76456343378E+02 -0.22721708602E+03  0.11905587058E+03  0.26767046334E+03  0.00000000000E+00 0. -1.
<mgrwt>
<rscale>  0 0.60702517E+03</rscale>
<asrwt>0</asrwt>
<pdfrwt beam="1">0</pdfrwt>
<pdfrwt beam="2">  1        2 0.33498212E+00 0.60702517E+03</pdfrwt>
<totfact> 0.69119119E+00</totfact>
</mgrwt>
</event>
<event>
 5    1  0.2344661E-004  0.6669809E+03  0.7818608E-02  0.9775427E-01
         13   -1    0    0    0    0  0.00000000000E+00  0.00000000000E+00  0.10000000000E+04  0.10000000000E+04  0.00000000000E+00 0. -1.
          2   -1    0    0  501    0 -0.00000000000E+00 -0.00000000000E+00 -0.11121587654E+03  0.11121587654E+03  0.00000000000E+00 0. -1.
    9000006    2    1    2  501    0  0.00000000000E+00  0.00000000000E+00  0.88878412346E+03  0.11112158765E+04  0.66698088892E+03 0.  0.
         13    1    3    3    0    0  0.28714601772E+03  0.59475056790E+02  0.70900261807E+03  0.76725147788E+03  0.00000000000E+00 0. -1.
          4    1    3    3  501    0 -0.28714601772E+03 -0.59475056790E+02  0.17978150538E+03  0.34396439867E+03  0.00000000000E+00 0. -1.
<mgrwt>
<rscale>  0 0.66698089E+03</rscale>
<asrwt>0</asrwt>
<pdfrwt beam="1">0</pdfrwt>
<pdfrwt beam="2">  1        2 0.40442222E+00 0.66698089E+03</pdfrwt>
<totfact> 0.38281291E+00</totfact>
</mgrwt>
</event>
<event>
 5    1  0.2344661E-004  0.6583535E+03  0.7818608E-02  0.9791229E-01
         13   -1    0    0    0    0  0.00000000000E+00  0.00000000000E+00  0.10000000000E+04  0.10000000000E+04  0.00000000000E+00 0. -1.
          2   -1    0    0  501    0 -0.00000000000E+00 -0.00000000000E+00 -0.10835733940E+03  0.10835733940E+03  0.00000000000E+00 0. -1.
    9000006    2    1    2  501    0  0.00000000000E+00  0.00000000000E+00  0.89164266060E+03  0.11083573394E+04  0.65835352024E+03 0.  0.
         13    1    3    3    0    0  0.17803169991E+03 -0.80661584981E+02  0.89173656700E+03  0.91290507852E+03  0.00000000000E+00 0. -1.
          4    1    3    3  501    0 -0.17803169991E+03  0.80661584981E+02 -0.93906404712E-01  0.19545226088E+03  0.00000000000E+00 0. -1.
<mgrwt>
<rscale>  0 0.65835352E+03</rscale>
<asrwt>0</asrwt>
<pdfrwt beam="1">0</pdfrwt>
<pdfrwt beam="2">  1        2 0.39402752E+00 0.65835352E+03</pdfrwt>
<totfact> 0.41903893E+00</totfact>
</mgrwt>
</event>
<event>
 5    1  0.2344661E-004  0.6551378E+03  0.7818608E-02  0.9797186E-01
         13   -1    0    0    0    0  0.00000000000E+00  0.00000000000E+00  0.10000000000E+04  0.10000000000E+04  0.00000000000E+00 0. -1.
          2   -1    0    0  501    0 -0.00000000000E+00 -0.00000000000E+00 -0.10730137587E+03  0.10730137587E+03  0.00000000000E+00 0. -1.
    9000006    2    1    2  501    0  0.00000000000E+00  0.00000000000E+00  0.89269862413E+03  0.11073013759E+04  0.65513777443E+03 0.  0.
         13    1    3    3    0    0 -0.20213776593E+03  0.24118262355E+03  0.60007813507E+03  0.67758578978E+03  0.00000000000E+00 0. -1.
          4    1    3    3  501    0  0.20213776593E+03 -0.24118262355E+03  0.29262048906E+03  0.42971558609E+03  0.00000000000E+00 0. -1.
<mgrwt>
<rscale>  0 0.65513777E+03</rscale>
<asrwt>0</asrwt>
<pdfrwt beam="1">0</pdfrwt>
<pdfrwt beam="2">  1        2 0.39018764E+00 0.65513777E+03</pdfrwt>
<totfact> 0.43318378E+00</totfact>
</mgrwt>
</event>
<event>
 5    1  0.2344661E-004  0.6499478E+03  0.7818608E-02  0.9806877E-01
         13   -1    0    0    0    0  0.00000000000E+00  0.00000000000E+00  0.10000000000E+04  0.10000000000E+04  0.00000000000E+00 0. -1.
          2   -1    0    0  501    0 -0.00000000000E+00 -0.00000000000E+00 -0.10560802432E+03  0.10560802432E+03  0.00000000000E+00 0. -1.
    9000006    2    1    2  501    0  0.00000000000E+00  0.00000000000E+00  0.89439197568E+03  0.11056080243E+04  0.64994776504E+03 0.  0.
         13    1    3    3    0    0  0.11528380090E+03 -0.28452600737E+02  0.96177556021E+03  0.96907798110E+03  0.00000000000E+00 0. -1.
          4    1    3    3  501    0 -0.11528380090E+03  0.28452600737E+02 -0.67383584529E+02  0.13653004322E+03  0.00000000000E+00 0. -1.
<mgrwt>
<rscale>  0 0.64994777E+03</rscale>
<asrwt>0</asrwt>
<pdfrwt beam="1">0</pdfrwt>
<pdfrwt beam="2">  1        2 0.38402999E+00 0.64994777E+03</pdfrwt>
<totfact> 0.45676983E+00</totfact>
</mgrwt>
</event>
<event>
 5    1  0.2344661E-004  0.6776882E+03  0.7818608E-02  0.9756168E-01
         13   -1    0    0    0    0  0.00000000000E+00  0.00000000000E+00  0.10000000000E+04  0.10000000000E+04  0.00000000000E+00 0. -1.
          2   -1    0    0  501    0 -0.00000000000E+00 -0.00000000000E+00 -0.11481531133E+03  0.11481531133E+03  0.00000000000E+00 0. -1.
    9000006    2    1    2  501    0  0.00000000000E+00  0.00000000000E+00  0.88518468867E+03  0.11148153113E+04  0.67768816229E+03 0.  0.
         13    1    3    3    0    0 -0.84685693466E+01 -0.69267422601E+02 -0.10286650166E+03  0.12430289484E+03  0.00000000000E+00 0. -1.
          4    1    3    3  501    0  0.84685693466E+01  0.69267422601E+02  0.98805119033E+03  0.99051241649E+03  0.00000000000E+00 0. -1.
<mgrwt>
<rscale>  0 0.67768816E+03</rscale>
<asrwt>0</asrwt>
<pdfrwt beam="1">0</pdfrwt>
<pdfrwt beam="2">  1        2 0.41751110E+00 0.67768816E+03</pdfrwt>
<totfact> 0.34119783E+00</totfact>
</mgrwt>
</event>
<event>
 5    1  0.2344661E-004  0.6155587E+03  0.7818608E-02  0.9873642E-01
         13   -1    0    0    0    0  0.00000000000E+00  0.00000000000E+00  0.10000000000E+04  0.10000000000E+04  0.00000000000E+00 0. -1.
          2   -1    0    0  501    0 -0.00000000000E+00 -0.00000000000E+00 -0.94728139901E+02  0.94728139901E+02  0.00000000000E+00 0. -1.
    9000006    2    1    2  501    0  0.00000000000E+00  0.00000000000E+00  0.90527186010E+03  0.10947281399E+04  0.61555873774E+03 0.  0.
         13    1    3    3    0    0 -0.16183765529E+03 -0.25545144548E+03  0.55450865266E+03  0.63160645464E+03  0.00000000000E+00 0. -1.
          4    1    3    3  501    0  0.16183765529E+03  0.25545144548E+03  0.35076320744E+03  0.46312168527E+03  0.00000000000E+00 0. -1.
<mgrwt>
<rscale>  0 0.61555874E+03</rscale>
<asrwt>0</asrwt>
<pdfrwt beam="1">0</pdfrwt>
<pdfrwt beam="2">  1        2 0.34446669E+00 0.61555874E+03</pdfrwt>
<totfact> 0.63858974E+00</totfact>
</mgrwt>
</event>
<event>
 5    1  0.2344661E-004  0.6391921E+03  0.7818608E-02  0.9827273E-01
         13   -1    0    0    0    0  0.00000000000E+00  0.00000000000E+00  0.10000000000E+04  0.10000000000E+04  0.00000000000E+00 0. -1.
          2   -1    0    0  501    0 -0.00000000000E+00 -0.00000000000E+00 -0.10214163197E+03  0.10214163197E+03  0.00000000000E+00 0. -1.
    9000006    2    1    2  501    0  0.00000000000E+00  0.00000000000E+00  0.89785836803E+03  0.11021416320E+04  0.63919208998E+03 0.  0.
         13    1    3    3    0    0  0.15714079751E+03  0.24743390020E+03  0.22929669402E+03  0.37214746956E+03  0.00000000000E+00 0. -1.
          2    1    3    3  501    0 -0.15714079751E+03 -0.24743390020E+03  0.66856167401E+03  0.72999416241E+03  0.00000000000E+00 0. -1.
<mgrwt>
<rscale>  0 0.63919209E+03</rscale>
<asrwt>0</asrwt>
<pdfrwt beam="1">0</pdfrwt>
<pdfrwt beam="2">  1        2 0.37142490E+00 0.63919209E+03</pdfrwt>
<totfact> 0.50873133E+00</totfact>
</mgrwt>
</event>
<event>
 5    1  0.2344661E-004  0.6545024E+03  0.7818608E-02  0.9798367E-01
         13   -1    0    0    0    0  0.00000000000E+00  0.00000000000E+00  0.10000000000E+04  0.10000000000E+04  0.00000000000E+00 0. -1.
          2   -1    0    0  501    0 -0.00000000000E+00 -0.00000000000E+00 -0.10709335949E+03  0.10709335949E+03  0.00000000000E+00 0. -1.
    9000006    2    1    2  501    0  0.00000000000E+00  0.00000000000E+00  0.89290664051E+03  0.11070933595E+04  0.65450243540E+03 0.  0.
         13    1    3    3    0    0 -0.22741731671E+03 -0.21829524048E+03  0.29781342529E+03  0.43366379171E+03  0.00000000000E+00 0. -1.
          4    1    3    3  501    0  0.22741731671E+03  0.21829524048E+03  0.59509321522E+03  0.67342956778E+03  0.00000000000E+00 0. -1.
<mgrwt>
<rscale>  0 0.65450244E+03</rscale>
<asrwt>0</asrwt>
<pdfrwt beam="1">0</pdfrwt>
<pdfrwt beam="2">  1        2 0.38943122E+00 0.65450244E+03</pdfrwt>
<totfact> 0.43602052E+00</totfact>
</mgrwt>
</event>
<event>
 5    1  0.2344661E-004  0.6477319E+03  0.7818608E-02  0.9811044E-01
         13   -1    0    0    0    0  0.00000000000E+00  0.00000000000E+00  0.10000000000E+04  0.10000000000E+04  0.00000000000E+00 0. -1.
          2   -1    0    0  501    0 -0.00000000000E+00 -0.00000000000E+00 -0.10488916115E+03  0.10488916115E+03  0.00000000000E+00 0. -1.
    9000006    2    1    2  501    0  0.00000000000E+00  0.00000000000E+00  0.89511083885E+03  0.11048891611E+04  0.64773192340E+03 0.  0.
         13    1    3    3    0    0  0.15685881286E+03  0.15180673951E+03  0.85565875353E+03  0.88306391378E+03  0.00000000000E+00 0. -1.
          4    1    3    3  501    0 -0.15685881286E+03 -0.15180673951E+03  0.39452085323E+02  0.22182524737E+03  0.00000000000E+00 0. -1.
<mgrwt>
<rscale>  0 0.64773192E+03</rscale>
<asrwt>0</asrwt>
<pdfrwt beam="1">0</pdfrwt>
<pdfrwt beam="2">  1        2 0.38141594E+00 0.64773192E+03</pdfrwt>
<totfact> 0.46712998E+00</totfact>
</mgrwt>
</event>
<event>
 5    1  0.2344661E-004  0.6566480E+03  0.7818608E-02  0.9794384E-01
         13   -1    0    0    0    0  0.00000000000E+00  0.00000000000E+00  0.10000000000E+04  0.10000000000E+04  0.00000000000E+00 0. -1.
          2   -1    0    0  501    0 -0.00000000000E+00 -0.00000000000E+00 -0.10779665717E+03  0.10779665717E+03  0.00000000000E+00 0. -1.
    9000006    2    1    2  501    0  0.00000000000E+00  0.00000000000E+00  0.89220334283E+03  0.11077966572E+04  0.65664802495E+03 0.  0.
         13    1    3    3    0    0  0.31175681475E+03 -0.10003422024E+03  0.40486377440E+03  0.52068592509E+03  0.00000000000E+00 0. -1.
          2    1    3    3  501    0 -0.31175681475E+03  0.10003422024E+03  0.48733956843E+03  0.58711073208E+03  0.00000000000E+00 0. -1.
<mgrwt>
<rscale>  0 0.65664802E+03</rscale>
<asrwt>0</asrwt>
<pdfrwt beam="1">0</pdfrwt>
<pdfrwt beam="2">  1        2 0.39198867E+00 0.65664802E+03</pdfrwt>
<totfact> 0.42649657E+00</totfact>
</mgrwt>
</event>
<event>
 5    1  0.2344661E-004  0.6492830E+03  0.7818608E-02  0.9808126E-01
         13   -1    0    0    0    0  0.00000000000E+00  0.00000000000E+00  0.10000000000E+04  0.10000000000E+04  0.00000000000E+00 0. -1.
          2   -1    0    0  501    0 -0.00000000000E+00 -0.00000000000E+00 -0.10539210151E+03  0.10539210151E+03  0.00000000000E+00 0. -1.
    9000006    2    1    2  501    0  0.00000000000E+00  0.00000000000E+00  0.89460789849E+03  0.11053921015E+04  0.64928299380E+03 0.  0.
         13    1    3    3    0    0 -0.17814456379E+03  0.16463320361E+03  0.81463187492E+03  0.84997921679E+03  0.00000000000E+00 0. -1.
          2    1    3    3  501    0  0.17814456379E+03 -0.16463320361E+03  0.79976023572E+02  0.25541288472E+03  0.00000000000E+00 0. -1.
<mgrwt>
<rscale>  0 0.64928299E+03</rscale>
<asrwt>0</asrwt>
<pdfrwt beam="1">0</pdfrwt>
<pdfrwt beam="2">  1        2 0.38324481E+00 0.64928299E+03</pdfrwt>
<totfact> 0.45985954E+00</totfact>
</mgrwt>
</event>
<event>
 5    1  0.2344661E-004  0.6525074E+03  0.7818608E-02  0.9802086E-01
         13   -1    0    0    0    0  0.00000000000E+00  0.00000000000E+00  0.10000000000E+04  0.10000000000E+04  0.00000000000E+00 0. -1.
          2   -1    0    0  501    0 -0.00000000000E+00 -0.00000000000E+00 -0.10644146344E+03  0.10644146344E+03  0.00000000000E+00 0. -1.
    9000006    2    1    2  501    0  0.00000000000E+00  0.00000000000E+00  0.89355853656E+03  0.11064414634E+04  0.65250735917E+03 0.  0.
         13    1    3    3    0    0 -0.23414216821E+03  0.22304981253E+03  0.37349759399E+03  0.49403868929E+03  0.00000000000E+00 0. -1.
          2    1    3    3  501    0  0.23414216821E+03 -0.22304981253E+03  0.52006094257E+03  0.61240277415E+03  0.00000000000E+00 0. -1.
<mgrwt>
<rscale>  0 0.65250736E+03</rscale>
<asrwt>0</asrwt>
<pdfrwt beam="1">0</pdfrwt>
<pdfrwt beam="2">  1        2 0.38706068E+00 0.65250736E+03</pdfrwt>
<totfact> 0.44501967E+00</totfact>
</mgrwt>
</event>
<event>
 5    1  0.2344661E-004  0.6488911E+03  0.7818608E-02  0.9808862E-01
         13   -1    0    0    0    0  0.00000000000E+00  0.00000000000E+00  0.10000000000E+04  0.10000000000E+04  0.00000000000E+00 0. -1.
          2   -1    0    0  501    0 -0.00000000000E+00 -0.00000000000E+00 -0.10526491042E+03  0.10526491042E+03  0.00000000000E+00 0. -1.
    9000006    2    1    2  501    0  0.00000000000E+00  0.00000000000E+00  0.89473508958E+03  0.11052649104E+04  0.64889108614E+03 0.  0.
         13    1    3    3    0    0 -0.79300273512E+02 -0.82274042011E+02  0.96458999324E+03  0.97133485803E+03  0.00000000000E+00 0. -1.
          2    1    3    3  501    0  0.79300273512E+02  0.82274042011E+02 -0.69854903657E+02  0.13393005239E+03  0.00000000000E+00 0. -1.
<mgrwt>
<rscale>  0 0.64889109E+03</rscale>
<asrwt>0</asrwt>
<pdfrwt beam="1">0</pdfrwt>
<pdfrwt beam="2">  1        2 0.38278230E+00 0.64889109E+03</pdfrwt>
<totfact> 0.46168842E+00</totfact>
</mgrwt>
</event>
<event>
 5    1  0.2344661E-004  0.7206051E+03  0.7818608E-02  0.9682629E-01
         13   -1    0    0    0    0  0.00000000000E+00  0.00000000000E+00  0.10000000000E+04  0.10000000000E+04  0.00000000000E+00 0. -1.
          2   -1    0    0  501    0 -0.00000000000E+00 -0.00000000000E+00 -0.12981792869E+03  0.12981792869E+03  0.00000000000E+00 0. -1.
    9000006    2    1    2  501    0  0.00000000000E+00  0.00000000000E+00  0.87018207131E+03  0.11298179287E+04  0.72060510321E+03 0.  0.
         13    1    3    3    0    0 -0.22357418824E+03  0.27815215231E+03  0.51291653088E+03  0.62484990608E+03  0.00000000000E+00 0. -1.
          2    1    3    3  501    0  0.22357418824E+03 -0.27815215231E+03  0.35726554043E+03  0.50496802261E+03  0.00000000000E+00 0. -1.
<mgrwt>
<rscale>  0 0.72060510E+03</rscale>
<asrwt>0</asrwt>
<pdfrwt beam="1">0</pdfrwt>
<pdfrwt beam="2">  1        2 0.47206619E+00 0.72060510E+03</pdfrwt>
<totfact> 0.20752611E+00</totfact>
</mgrwt>
</event>
<event>
 5    1  0.2344661E-004  0.6371938E+03  0.7818608E-02  0.9831110E-01
         13   -1    0    0    0    0  0.00000000000E+00  0.00000000000E+00  0.10000000000E+04  0.10000000000E+04  0.00000000000E+00 0. -1.
          2   -1    0    0  501    0 -0.00000000000E+00 -0.00000000000E+00 -0.10150398674E+03  0.10150398674E+03  0.00000000000E+00 0. -1.
    9000006    2    1    2  501    0  0.00000000000E+00  0.00000000000E+00  0.89849601326E+03  0.11015039867E+04  0.63719380643E+03 0.  0.
         13    1    3    3    0    0  0.13538640747E+03 -0.64313567753E+02 -0.36748611421E+02  0.15432490002E+03  0.00000000000E+00 0. -1.
          2    1    3    3  501    0 -0.13538640747E+03  0.64313567753E+02  0.93524462468E+03  0.94717908672E+03  0.00000000000E+00 0. -1.
<mgrwt>
<rscale>  0 0.63719381E+03</rscale>
<asrwt>0</asrwt>
<pdfrwt beam="1">0</pdfrwt>
<pdfrwt beam="2">  1        2 0.36910618E+00 0.63719381E+03</pdfrwt>
<totfact> 0.51885851E+00</totfact>
</mgrwt>
</event>
<event>
 5    1  0.2344661E-004  0.5787636E+03  0.7818608E-02  0.9950471E-01
         13   -1    0    0    0    0  0.00000000000E+00  0.00000000000E+00  0.10000000000E+04  0.10000000000E+04  0.00000000000E+00 0. -1.
          2   -1    0    0  501    0 -0.00000000000E+00 -0.00000000000E+00 -0.83741830068E+02  0.83741830068E+02  0.00000000000E+00 0. -1.
    9000006    2    1    2  501    0  0.00000000000E+00  0.00000000000E+00  0.91625816993E+03  0.10837418301E+04  0.57876361346E+03 0.  0.
         13    1    3    3    0    0 -0.19643752238E+02 -0.28056072164E+03  0.58570247272E+03  0.64972885273E+03  0.00000000000E+00 0. -1.
          4    1    3    3  501    0  0.19643752238E+02  0.28056072164E+03  0.33055569722E+03  0.43401297733E+03  0.00000000000E+00 0. -1.
<mgrwt>
<rscale>  0 0.57876361E+03</rscale>
<asrwt>0</asrwt>
<pdfrwt beam="1">0</pdfrwt>
<pdfrwt beam="2">  1        2 0.30451639E+00 0.57876361E+03</pdfrwt>
<totfact> 0.88954224E+00</totfact>
</mgrwt>
</event>
<event>
 5    1  0.2344661E-004  0.6566817E+03  0.7818608E-02  0.9794322E-01
         13   -1    0    0    0    0  0.00000000000E+00  0.00000000000E+00  0.10000000000E+04  0.10000000000E+04  0.00000000000E+00 0. -1.
          2   -1    0    0  501    0 -0.00000000000E+00 -0.00000000000E+00 -0.10780770815E+03  0.10780770815E+03  0.00000000000E+00 0. -1.
    9000006    2    1    2  501    0  0.00000000000E+00  0.00000000000E+00  0.89219229185E+03  0.11078077082E+04  0.65668168286E+03 0.  0.
         13    1    3    3    0    0  0.20772776199E+03 -0.22151399535E+03  0.65672154311E+03  0.72353469746E+03  0.00000000000E+00 0. -1.
          2    1    3    3  501    0 -0.20772776199E+03  0.22151399535E+03  0.23547074873E+03  0.38427301069E+03  0.00000000000E+00 0. -1.
<mgrwt>
<rscale>  0 0.65668168E+03</rscale>
<asrwt>0</asrwt>
<pdfrwt beam="1">0</pdfrwt>
<pdfrwt beam="2">  1        2 0.39202886E+00 0.65668168E+03</pdfrwt>
<totfact> 0.42634843E+00</totfact>
</mgrwt>
</event>
<event>
 5    1  0.2344661E-004  0.6432588E+03  0.7818608E-02  0.9819511E-01
         13   -1    0    0    0    0  0.00000000000E+00  0.00000000000E+00  0.10000000000E+04  0.10000000000E+04  0.00000000000E+00 0. -1.
          2   -1    0    0  501    0 -0.00000000000E+00 -0.00000000000E+00 -0.10344548645E+03  0.10344548645E+03  0.00000000000E+00 0. -1.
    9000006    2    1    2  501    0  0.00000000000E+00  0.00000000000E+00  0.89655451355E+03  0.11034454865E+04  0.64325884822E+03 0.  0.
         13    1    3    3    0    0  0.17659401104E+03  0.24197289662E+03  0.64912664853E+03  0.71491379429E+03  0.00000000000E+00 0. -1.
          4    1    3    3  501    0 -0.17659401104E+03 -0.24197289662E+03  0.24742786501E+03  0.38853169217E+03  0.00000000000E+00 0. -1.
<mgrwt>
<rscale>  0 0.64325885E+03</rscale>
<asrwt>0</asrwt>
<pdfrwt beam="1">0</pdfrwt>
<pdfrwt beam="2">  1        2 0.37616620E+00 0.64325885E+03</pdfrwt>
<totfact> 0.48858441E+00</totfact>
</mgrwt>
</event>
<event>
 5    1  0.2344661E-004  0.6534161E+03  0.7818608E-02  0.9800390E-01
         13   -1    0    0    0    0  0.00000000000E+00  0.00000000000E+00  0.10000000000E+04  0.10000000000E+04  0.00000000000E+00 0. -1.
          2   -1    0    0  501    0 -0.00000000000E+00 -0.00000000000E+00 -0.10673814934E+03  0.10673814934E+03  0.00000000000E+00 0. -1.
    9000006    2    1    2  501    0  0.00000000000E+00  0.00000000000E+00  0.89326185066E+03  0.11067381493E+04  0.65341609817E+03 0.  0.
         13    1    3    3    0    0 -0.21309009057E+03 -0.13354441586E+03  0.93380280285E+02  0.26825617318E+03  0.00000000000E+00 0. -1.
          4    1    3    3  501    0  0.21309009057E+03  0.13354441586E+03  0.79988157038E+03  0.83848197615E+03  0.00000000000E+00 0. -1.
<mgrwt>
<rscale>  0 0.65341610E+03</rscale>
<asrwt>0</asrwt>
<pdfrwt beam="1">0</pdfrwt>
<pdfrwt beam="2">  1        2 0.38813954E+00 0.65341610E+03</pdfrwt>
<totfact> 0.44090342E+00</totfact>
</mgrwt>
</event>
<event>
 5    1  0.2344661E-004  0.6428470E+03  0.7818608E-02  0.9820295E-01
         13   -1    0    0    0    0  0.00000000000E+00  0.00000000000E+00  0.10000000000E+04  0.10000000000E+04  0.00000000000E+00 0. -1.
          2   -1    0    0  501    0 -0.00000000000E+00 -0.00000000000E+00 -0.10331306312E+03  0.10331306312E+03  0.00000000000E+00 0. -1.
    9000006    2    1    2  501    0  0.00000000000E+00  0.00000000000E+00  0.89668693688E+03  0.11033130631E+04  0.64284698995E+03 0.  0.
         13    1    3    3    0    0  0.48769793382E+02 -0.29511722030E+03  0.65025699491E+03  0.71575612180E+03  0.00000000000E+00 0. -1.
          4    1    3    3  501    0 -0.48769793382E+02  0.29511722030E+03  0.24642994197E+03  0.38755694132E+03  0.00000000000E+00 0. -1.
<mgrwt>
<rscale>  0 0.64284699E+03</rscale>
<asrwt>0</asrwt>
<pdfrwt beam="1">0</pdfrwt>
<pdfrwt beam="2">  1        2 0.37568466E+00 0.64284699E+03</pdfrwt>
<totfact> 0.49059665E+00</totfact>
</mgrwt>
</event>
<event>
 5    1  0.2344661E-004  0.6766377E+03  0.7818608E-02  0.9758041E-01
         13   -1    0    0    0    0  0.00000000000E+00  0.00000000000E+00  0.10000000000E+04  0.10000000000E+04  0.00000000000E+00 0. -1.
          2   -1    0    0  501    0 -0.00000000000E+00 -0.00000000000E+00 -0.11445964437E+03  0.11445964437E+03  0.00000000000E+00 0. -1.
    9000006    2    1    2  501    0  0.00000000000E+00  0.00000000000E+00  0.88554035563E+03  0.11144596444E+04  0.67663770032E+03 0.  0.
         13    1    3    3    0    0 -0.87237062586E+02 -0.19235984738E+03  0.87806361769E+03  0.90311036573E+03  0.00000000000E+00 0. -1.
          4    1    3    3  501    0  0.87237062586E+02  0.19235984738E+03  0.74767379362E+01  0.21134927865E+03  0.00000000000E+00 0. -1.
<mgrwt>
<rscale>  0 0.67663770E+03</rscale>
<asrwt>0</asrwt>
<pdfrwt beam="1">0</pdfrwt>
<pdfrwt beam="2">  1        2 0.41621777E+00 0.67663770E+03</pdfrwt>
<totfact> 0.34512201E+00</totfact>
</mgrwt>
</event>
<event>
 5    1  0.2344661E-004  0.6272903E+03  0.7818608E-02  0.9850351E-01
         13   -1    0    0    0    0  0.00000000000E+00  0.00000000000E+00  0.10000000000E+04  0.10000000000E+04  0.00000000000E+00 0. -1.
          2   -1    0    0  501    0 -0.00000000000E+00 -0.00000000000E+00 -0.98373290268E+02  0.98373290268E+02  0.00000000000E+00 0. -1.
    9000006    2    1    2  501    0  0.00000000000E+00  0.00000000000E+00  0.90162670973E+03  0.10983732903E+04  0.62729033236E+03 0.  0.
         13    1    3    3    0    0  0.26648352547E+03  0.99019003935E+02  0.68281042520E+03  0.73962714205E+03  0.00000000000E+00 0. -1.
          2    1    3    3  501    0 -0.26648352547E+03 -0.99019003935E+02  0.21881628453E+03  0.35874614822E+03  0.00000000000E+00 0. -1.
<mgrwt>
<rscale>  0 0.62729033E+03</rscale>
<asrwt>0</asrwt>
<pdfrwt beam="1">0</pdfrwt>
<pdfrwt beam="2">  1        2 0.35772181E+00 0.62729033E+03</pdfrwt>
<totfact> 0.57132412E+00</totfact>
</mgrwt>
</event>
<event>
 5    1  0.2344661E-004  0.6360494E+03  0.7818608E-02  0.9833314E-01
         13   -1    0    0    0    0  0.00000000000E+00  0.00000000000E+00  0.10000000000E+04  0.10000000000E+04  0.00000000000E+00 0. -1.
          2   -1    0    0  501    0 -0.00000000000E+00 -0.00000000000E+00 -0.10113972115E+03  0.10113972115E+03  0.00000000000E+00 0. -1.
    9000006    2    1    2  501    0  0.00000000000E+00  0.00000000000E+00  0.89886027885E+03  0.11011397212E+04  0.63604943566E+03 0.  0.
         13    1    3    3    0    0 -0.12280255308E+03  0.28557880019E+03  0.33324491731E+03  0.45572787173E+03  0.00000000000E+00 0. -1.
          2    1    3    3  501    0  0.12280255308E+03 -0.28557880019E+03  0.56561536154E+03  0.64541184942E+03  0.00000000000E+00 0. -1.
<mgrwt>
<rscale>  0 0.63604944E+03</rscale>
<asrwt>0</asrwt>
<pdfrwt beam="1">0</pdfrwt>
<pdfrwt beam="2">  1        2 0.36778158E+00 0.63604944E+03</pdfrwt>
<totfact> 0.52472647E+00</totfact>
</mgrwt>
</event>
<event>
 5    1  0.2344661E-004  0.6525525E+03  0.7818608E-02  0.9802001E-01
         13   -1    0    0    0    0  0.00000000000E+00  0.00000000000E+00  0.10000000000E+04  0.10000000000E+04  0.00000000000E+00 0. -1.
          2   -1    0    0  501    0 -0.00000000000E+00 -0.00000000000E+00 -0.10645620287E+03  0.10645620287E+03  0.00000000000E+00 0. -1.
    9000006    2    1    2  501    0  0.00000000000E+00  0.00000000000E+00  0.89354379713E+03  0.11064562029E+04  0.65255253543E+03 0.  0.
         13    1    3    3    0    0 -0.31870917552E+03  0.67408278514E+02  0.41565493249E+03  0.52809888986E+03  0.00000000000E+00 0. -1.
          4    1    3    3  501    0  0.31870917552E+03 -0.67408278514E+02  0.47788886464E+03  0.57835731301E+03  0.00000000000E+00 0. -1.
<mgrwt>
<rscale>  0 0.65255254E+03</rscale>
<asrwt>0</asrwt>
<pdfrwt beam="1">0</pdfrwt>
<pdfrwt beam="2">  1        2 0.38711428E+00 0.65255254E+03</pdfrwt>
<totfact> 0.44481436E+00</totfact>
</mgrwt>
</event>
<event>
 5    1  0.2344661E-004  0.6632544E+03  0.7818608E-02  0.9782221E-01
         13   -1    0    0    0    0  0.00000000000E+00  0.00000000000E+00  0.10000000000E+04  0.10000000000E+04  0.00000000000E+00 0. -1.
          2   -1    0    0  501    0 -0.00000000000E+00 -0.00000000000E+00 -0.10997659738E+03  0.10997659738E+03  0.00000000000E+00 0. -1.
    9000006    2    1    2  501    0  0.00000000000E+00  0.00000000000E+00  0.89002340262E+03  0.11099765974E+04  0.66325439276E+03 0.  0.
         13    1    3    3    0    0  0.27143311076E+03 -0.18910279262E+03  0.40609365256E+03  0.52378225862E+03  0.00000000000E+00 0. -1.
          4    1    3    3  501    0 -0.27143311076E+03  0.18910279262E+03  0.48392975006E+03  0.58619433875E+03  0.00000000000E+00 0. -1.
<mgrwt>
<rscale>  0 0.66325439E+03</rscale>
<asrwt>0</asrwt>
<pdfrwt beam="1">0</pdfrwt>
<pdfrwt beam="2">  1        2 0.39991574E+00 0.66325439E+03</pdfrwt>
<totfact> 0.39815756E+00</totfact>
</mgrwt>
</event>
<event>
 5    1  0.2344661E-004  0.6748609E+03  0.7818608E-02  0.9761216E-01
         13   -1    0    0    0    0  0.00000000000E+00  0.00000000000E+00  0.10000000000E+04  0.10000000000E+04  0.00000000000E+00 0. -1.
          2   -1    0    0  501    0 -0.00000000000E+00 -0.00000000000E+00 -0.11385930482E+03  0.11385930482E+03  0.00000000000E+00 0. -1.
    9000006    2    1    2  501    0  0.00000000000E+00  0.00000000000E+00  0.88614069518E+03  0.11138593048E+04  0.67486088882E+03 0.  0.
         13    1    3    3    0    0 -0.96323371434E+01 -0.28933487738E+03  0.15694805545E+03  0.32930251335E+03  0.00000000000E+00 0. -1.
          2    1    3    3  501    0  0.96323371434E+01  0.28933487738E+03  0.72919263973E+03  0.78455679146E+03  0.00000000000E+00 0. -1.
<mgrwt>
<rscale>  0 0.67486089E+03</rscale>
<asrwt>0</asrwt>
<pdfrwt beam="1">0</pdfrwt>
<pdfrwt beam="2">  1        2 0.41403471E+00 0.67486089E+03</pdfrwt>
<totfact> 0.35183686E+00</totfact>
</mgrwt>
</event>
<event>
 5    1  0.2344661E-004  0.6446905E+03  0.7818608E-02  0.9816793E-01
         13   -1    0    0    0    0  0.00000000000E+00  0.00000000000E+00  0.10000000000E+04  0.10000000000E+04  0.00000000000E+00 0. -1.
          2   -1    0    0  501    0 -0.00000000000E+00 -0.00000000000E+00 -0.10390646762E+03  0.10390646762E+03  0.00000000000E+00 0. -1.
    9000006    2    1    2  501    0  0.00000000000E+00  0.00000000000E+00  0.89609353238E+03  0.11039064676E+04  0.64469052303E+03 0.  0.
         13    1    3    3    0    0  0.29461952505E+03  0.10835801257E+03  0.57345882850E+03  0.65375618652E+03  0.00000000000E+00 0. -1.
          2    1    3    3  501    0 -0.29461952505E+03 -0.10835801257E+03  0.32263470387E+03  0.45015028110E+03  0.00000000000E+00 0. -1.
<mgrwt>
<rscale>  0 0.64469052E+03</rscale>
<asrwt>0</asrwt>
<pdfrwt beam="1">0</pdfrwt>
<pdfrwt beam="2">  1        2 0.37784250E+00 0.64469052E+03</pdfrwt>
<totfact> 0.48163818E+00</totfact>
</mgrwt>
</event>
<event>
 5    1  0.2344661E-004  0.6448335E+03  0.7818608E-02  0.9816522E-01
         13   -1    0    0    0    0  0.00000000000E+00  0.00000000000E+00  0.10000000000E+04  0.10000000000E+04  0.00000000000E+00 0. -1.
          2   -1    0    0  501    0 -0.00000000000E+00 -0.00000000000E+00 -0.10395255117E+03  0.10395255117E+03  0.00000000000E+00 0. -1.
    9000006    2    1    2  501    0  0.00000000000E+00  0.00000000000E+00  0.89604744883E+03  0.11039525512E+04  0.64483347051E+03 0.  0.
         13    1    3    3    0    0 -0.18938626623E+03  0.18546843527E+03  0.13380428066E+03  0.29693313025E+03  0.00000000000E+00 0. -1.
          2    1    3    3  501    0  0.18938626623E+03 -0.18546843527E+03  0.76224316817E+03  0.80701942092E+03  0.00000000000E+00 0. -1.
<mgrwt>
<rscale>  0 0.64483347E+03</rscale>
<asrwt>0</asrwt>
<pdfrwt beam="1">0</pdfrwt>
<pdfrwt beam="2">  1        2 0.37801007E+00 0.64483347E+03</pdfrwt>
<totfact> 0.48094875E+00</totfact>
</mgrwt>
</event>
<event>
 5    1  0.2344661E-004  0.6439771E+03  0.7818608E-02  0.9818147E-01
         13   -1    0    0    0    0  0.00000000000E+00  0.00000000000E+00  0.10000000000E+04  0.10000000000E+04  0.00000000000E+00 0. -1.
          2   -1    0    0  501    0 -0.00000000000E+00 -0.00000000000E+00 -0.10367662403E+03  0.10367662403E+03  0.00000000000E+00 0. -1.
    9000006    2    1    2  501    0  0.00000000000E+00  0.00000000000E+00  0.89632337597E+03  0.11036766240E+04  0.64397709285E+03 0.  0.
         13    1    3    3    0    0 -0.29064057628E+03  0.73238748355E+02  0.24653339403E+03  0.38809093421E+03  0.00000000000E+00 0. -1.
          4    1    3    3  501    0  0.29064057628E+03 -0.73238748355E+02  0.64978998194E+03  0.71558568982E+03  0.00000000000E+00 0. -1.
<mgrwt>
<rscale>  0 0.64397709E+03</rscale>
<asrwt>0</asrwt>
<pdfrwt beam="1">0</pdfrwt>
<pdfrwt beam="2">  1        2 0.37700670E+00 0.64397709E+03</pdfrwt>
<totfact> 0.48509020E+00</totfact>
</mgrwt>
</event>
<event>
 5    1  0.2344661E-004  0.6452478E+03  0.7818608E-02  0.9815737E-01
         13   -1    0    0    0    0  0.00000000000E+00  0.00000000000E+00  0.10000000000E+04  0.10000000000E+04  0.00000000000E+00 0. -1.
          2   -1    0    0  501    0 -0.00000000000E+00 -0.00000000000E+00 -0.10408618197E+03  0.10408618197E+03  0.00000000000E+00 0. -1.
    9000006    2    1    2  501    0  0.00000000000E+00  0.00000000000E+00  0.89591381803E+03  0.11040861820E+04  0.64524780345E+03 0.  0.
         13    1    3    3    0    0 -0.47149078819E+02 -0.29625579392E+03  0.65110792912E+03  0.71689055401E+03  0.00000000000E+00 0. -1.
          4    1    3    3  501    0  0.47149078819E+02  0.29625579392E+03  0.24480588891E+03  0.38719562795E+03  0.00000000000E+00 0. -1.
<mgrwt>
<rscale>  0 0.64524780E+03</rscale>
<asrwt>0</asrwt>
<pdfrwt beam="1">0</pdfrwt>
<pdfrwt beam="2">  1        2 0.37849601E+00 0.64524780E+03</pdfrwt>
<totfact> 0.47895466E+00</totfact>
</mgrwt>
</event>
<event>
 5    1  0.2344661E-004  0.6060039E+03  0.7818608E-02  0.9893028E-01
         13   -1    0    0    0    0  0.00000000000E+00  0.00000000000E+00  0.10000000000E+04  0.10000000000E+04  0.00000000000E+00 0. -1.
          2   -1    0    0  501    0 -0.00000000000E+00 -0.00000000000E+00 -0.91810175163E+02  0.91810175163E+02  0.00000000000E+00 0. -1.
    9000006    2    1    2  501    0  0.00000000000E+00  0.00000000000E+00  0.90818982484E+03  0.10918101752E+04  0.60600387841E+03 0.  0.
         13    1    3    3    0    0 -0.54769266575E+02 -0.29728067049E+03  0.41653112892E+03  0.51465877139E+03  0.00000000000E+00 0. -1.
          2    1    3    3  501    0  0.54769266575E+02  0.29728067049E+03  0.49165869592E+03  0.57715140377E+03  0.00000000000E+00 0. -1.
<mgrwt>
<rscale>  0 0.60600388E+03</rscale>
<asrwt>0</asrwt>
<pdfrwt beam="1">0</pdfrwt>
<pdfrwt beam="2">  1        2 0.33385589E+00 0.60600388E+03</pdfrwt>
<totfact> 0.69770183E+00</totfact>
</mgrwt>
</event>
<event>
 5    1  0.2344661E-004  0.6404177E+03  0.7818608E-02  0.9824928E-01
         13   -1    0    0    0    0  0.00000000000E+00  0.00000000000E+00  0.10000000000E+04  0.10000000000E+04  0.00000000000E+00 0. -1.
          2   -1    0    0  501    0 -0.00000000000E+00 -0.00000000000E+00 -0.10253369376E+03  0.10253369376E+03  0.00000000000E+00 0. -1.
    9000006    2    1    2  501    0  0.00000000000E+00  0.00000000000E+00  0.89746630624E+03  0.11025336938E+04  0.64041765671E+03 0.  0.
         13    1    3    3    0    0 -0.91881438777E+02 -0.11801505092E+03  0.93616972175E+03  0.94804192891E+03  0.00000000000E+00 0. -1.
          4    1    3    3  501    0  0.91881438777E+02  0.11801505092E+03 -0.38703415511E+02  0.15449176485E+03  0.00000000000E+00 0. -1.
<mgrwt>
<rscale>  0 0.64041766E+03</rscale>
<asrwt>0</asrwt>
<pdfrwt beam="1">0</pdfrwt>
<pdfrwt beam="2">  1        2 0.37285058E+00 0.64041766E+03</pdfrwt>
<totfact> 0.50259475E+00</totfact>
</mgrwt>
</event>
<event>
 5    1  0.2344661E-004  0.6478792E+03  0.7818608E-02  0.9810767E-01
         13   -1    0    0    0    0  0.00000000000E+00  0.00000000000E+00  0.10000000000E+04  0.10000000000E+04  0.00000000000E+00 0. -1.
          2   -1    0    0  501    0 -0.00000000000E+00 -0.00000000000E+00 -0.10493686531E+03  0.10493686531E+03  0.00000000000E+00 0. -1.
    9000006    2    1    2  501    0  0.00000000000E+00  0.00000000000E+00  0.89506313469E+03  0.11049368653E+04  0.64787920266E+03 0.  0.
         13    1    3    3    0    0 -0.13571846243E+03 -0.28424166621E+03  0.31850036804E+03  0.44794565552E+03  0.00000000000E+00 0. -1.
          4    1    3    3  501    0  0.13571846243E+03  0.28424166621E+03  0.57656276665E+03  0.65699120979E+03  0.00000000000E+00 0. -1.
<mgrwt>
<rscale>  0 0.64787920E+03</rscale>
<asrwt>0</asrwt>
<pdfrwt beam="1">0</pdfrwt>
<pdfrwt beam="2">  1        2 0.38158941E+00 0.64787920E+03</pdfrwt>
<totfact> 0.46643592E+00</totfact>
</mgrwt>
</event>
<event>
 5    1  0.2344661E-004  0.6461665E+03  0.7818608E-02  0.9813999E-01
         13   -1    0    0    0    0  0.00000000000E+00  0.00000000000E+00  0.10000000000E+04  0.10000000000E+04  0.00000000000E+00 0. -1.
          2   -1    0    0  501    0 -0.00000000000E+00 -0.00000000000E+00 -0.10438278878E+03  0.10438278878E+03  0.00000000000E+00 0. -1.
    9000006    2    1    2  501    0  0.00000000000E+00  0.00000000000E+00  0.89561721122E+03  0.11043827888E+04  0.64616650727E+03 0.  0.
         13    1    3    3    0    0 -0.46976839317E+02 -0.12645627580E+03 -0.53944956101E+02  0.14528617074E+03  0.00000000000E+00 0. -1.
          4    1    3    3  501    0  0.46976839317E+02  0.12645627580E+03  0.94956216732E+03  0.95909661804E+03  0.00000000000E+00 0. -1.
<mgrwt>
<rscale>  0 0.64616651E+03</rscale>
<asrwt>0</asrwt>
<pdfrwt beam="1">0</pdfrwt>
<pdfrwt beam="2">  1        2 0.37957458E+00 0.64616651E+03</pdfrwt>
<totfact> 0.47455546E+00</totfact>
</mgrwt>
</event>
<event>
 5    1  0.2344661E-004  0.6453336E+03  0.7818608E-02  0.9815575E-01
         13   -1    0    0    0    0  0.00000000000E+00  0.00000000000E+00  0.10000000000E+04  0.10000000000E+04  0.00000000000E+00 0. -1.
          2   -1    0    0  501    0 -0.00000000000E+00 -0.00000000000E+00 -0.10411387149E+03  0.10411387149E+03  0.00000000000E+00 0. -1.
    9000006    2    1    2  501    0  0.00000000000E+00  0.00000000000E+00  0.89588612851E+03  0.11041138715E+04  0.64533362376E+03 0.  0.
         13    1    3    3    0    0 -0.28488871043E+03 -0.76168950796E+02  0.67200549483E+03  0.73386284241E+03  0.00000000000E+00 0. -1.
          4    1    3    3  501    0  0.28488871043E+03  0.76168950796E+02  0.22388063368E+03  0.37025102908E+03  0.00000000000E+00 0. -1.
<mgrwt>
<rscale>  0 0.64533362E+03</rscale>
<asrwt>0</asrwt>
<pdfrwt beam="1">0</pdfrwt>
<pdfrwt beam="2">  1        2 0.37859669E+00 0.64533362E+03</pdfrwt>
<totfact> 0.47854241E+00</totfact>
</mgrwt>
</event>
<event>
 5    1  0.2344661E-004  0.6251773E+03  0.7818608E-02  0.9854505E-01
         13   -1    0    0    0    0  0.00000000000E+00  0.00000000000E+00  0.10000000000E+04  0.10000000000E+04  0.00000000000E+00 0. -1.
          2   -1    0    0  501    0 -0.00000000000E+00 -0.00000000000E+00 -0.97711649637E+02  0.97711649637E+02  0.00000000000E+00 0. -1.
    9000006    2    1    2  501    0  0.00000000000E+00  0.00000000000E+00  0.90228835036E+03  0.10977116496E+04  0.62517725370E+03 0.  0.
         13    1    3    3    0    0 -0.49689237135E+02 -0.27070281920E+03  0.71135604871E+03  0.76274272507E+03  0.00000000000E+00 0. -1.
          4    1    3    3  501    0  0.49689237135E+02  0.27070281920E+03  0.19093230165E+03  0.33496892457E+03  0.00000000000E+00 0. -1.
<mgrwt>
<rscale>  0 0.62517725E+03</rscale>
<asrwt>0</asrwt>
<pdfrwt beam="1">0</pdfrwt>
<pdfrwt beam="2">  1        2 0.35531584E+00 0.62517725E+03</pdfrwt>
<totfact> 0.58302189E+00</totfact>
</mgrwt>
</event>
<event>
 5    1  0.2344661E-004  0.6570598E+03  0.7818608E-02  0.9793621E-01
         13   -1    0    0    0    0  0.00000000000E+00  0.00000000000E+00  0.10000000000E+04  0.10000000000E+04  0.00000000000E+00 0. -1.
          2   -1    0    0  501    0 -0.00000000000E+00 -0.00000000000E+00 -0.10793190660E+03  0.10793190660E+03  0.00000000000E+00 0. -1.
    9000006    2    1    2  501    0  0.00000000000E+00  0.00000000000E+00  0.89206809340E+03  0.11079319066E+04  0.65705983473E+03 0.  0.
         13    1    3    3    0    0 -0.78191114572E+02 -0.31825281503E+03  0.48497028629E+03  0.58531605416E+03  0.00000000000E+00 0. -1.
          2    1    3    3  501    0  0.78191114572E+02  0.31825281503E+03  0.40709780710E+03  0.52261585244E+03  0.00000000000E+00 0. -1.
<mgrwt>
<rscale>  0 0.65705983E+03</rscale>
<asrwt>0</asrwt>
<pdfrwt beam="1">0</pdfrwt>
<pdfrwt beam="2">  1        2 0.39248049E+00 0.65705983E+03</pdfrwt>
<totfact> 0.42468673E+00</totfact>
</mgrwt>
</event>
<event>
 5    1  0.2344661E-004  0.6399203E+03  0.7818608E-02  0.9825879E-01
         13   -1    0    0    0    0  0.00000000000E+00  0.00000000000E+00  0.10000000000E+04  0.10000000000E+04  0.00000000000E+00 0. -1.
          2   -1    0    0  501    0 -0.00000000000E+00 -0.00000000000E+00 -0.10237450497E+03  0.10237450497E+03  0.00000000000E+00 0. -1.
    9000006    2    1    2  501    0  0.00000000000E+00  0.00000000000E+00  0.89762549503E+03  0.11023745050E+04  0.63992032306E+03 0.  0.
         13    1    3    3    0    0  0.61629268008E+02 -0.15279097915E+03 -0.23687903118E+02  0.16644628785E+03  0.00000000000E+00 0. -1.
          4    1    3    3  501    0 -0.61629268008E+02  0.15279097915E+03  0.92131339815E+03  0.93592821712E+03  0.00000000000E+00 0. -1.
<mgrwt>
<rscale>  0 0.63992032E+03</rscale>
<asrwt>0</asrwt>
<pdfrwt beam="1">0</pdfrwt>
<pdfrwt beam="2">  1        2 0.37227171E+00 0.63992032E+03</pdfrwt>
<totfact> 0.50507817E+00</totfact>
</mgrwt>
</event>
<event>
 5    1  0.2344661E-004  0.6713116E+03  0.7818608E-02  0.9767591E-01
         13   -1    0    0    0    0  0.00000000000E+00  0.00000000000E+00  0.10000000000E+04  0.10000000000E+04  0.00000000000E+00 0. -1.
          2   -1    0    0  501    0 -0.00000000000E+00 -0.00000000000E+00 -0.11266482668E+03  0.11266482668E+03  0.00000000000E+00 0. -1.
    9000006    2    1    2  501    0  0.00000000000E+00  0.00000000000E+00  0.88733517332E+03  0.11126648267E+04  0.67131163159E+03 0.  0.
         13    1    3    3    0    0  0.12422110026E+03  0.96973388978E+02 -0.47536410985E+02  0.16460385867E+03  0.00000000000E+00 0. -1.
          2    1    3    3  501    0 -0.12422110026E+03 -0.96973388978E+02  0.93487158431E+03  0.94806096801E+03  0.00000000000E+00 0. -1.
<mgrwt>
<rscale>  0 0.67131163E+03</rscale>
<asrwt>0</asrwt>
<pdfrwt beam="1">0</pdfrwt>
<pdfrwt beam="2">  1        2 0.40969114E+00 0.67131163E+03</pdfrwt>
<totfact> 0.36554503E+00</totfact>
</mgrwt>
</event>
<event>
 5    1  0.2344661E-004  0.6205376E+03  0.7818608E-02  0.9863690E-01
         13   -1    0    0    0    0  0.00000000000E+00  0.00000000000E+00  0.10000000000E+04  0.10000000000E+04  0.00000000000E+00 0. -1.
          2   -1    0    0  501    0 -0.00000000000E+00 -0.00000000000E+00 -0.96266730220E+02  0.96266730220E+02  0.00000000000E+00 0. -1.
    9000006    2    1    2  501    0  0.00000000000E+00  0.00000000000E+00  0.90373326978E+03  0.10962667302E+04  0.62053760634E+03 0.  0.
         13    1    3    3    0    0  0.21942904356E+03  0.12699418319E+03  0.76784397866E+03  0.80861672211E+03  0.00000000000E+00 0. -1.
          2    1    3    3  501    0 -0.21942904356E+03 -0.12699418319E+03  0.13588929112E+03  0.28765000811E+03  0.00000000000E+00 0. -1.
<mgrwt>
<rscale>  0 0.62053761E+03</rscale>
<asrwt>0</asrwt>
<pdfrwt beam="1">0</pdfrwt>
<pdfrwt beam="2">  1        2 0.35006158E+00 0.62053761E+03</pdfrwt>
<totfact> 0.60934550E+00</totfact>
</mgrwt>
</event>
<event>
 5    1  0.2344661E-004  0.6490609E+03  0.7818608E-02  0.9808543E-01
         13   -1    0    0    0    0  0.00000000000E+00  0.00000000000E+00  0.10000000000E+04  0.10000000000E+04  0.00000000000E+00 0. -1.
          2   -1    0    0  501    0 -0.00000000000E+00 -0.00000000000E+00 -0.10532000667E+03  0.10532000667E+03  0.00000000000E+00 0. -1.
    9000006    2    1    2  501    0  0.00000000000E+00  0.00000000000E+00  0.89467999333E+03  0.11053200067E+04  0.64906088057E+03 0.  0.
         13    1    3    3    0    0 -0.26205947106E+03 -0.19997812435E+02  0.77154985453E+03  0.81508542921E+03  0.00000000000E+00 0. -1.
          2    1    3    3  501    0  0.26205947106E+03  0.19997812435E+02  0.12313013880E+03  0.29023457746E+03  0.00000000000E+00 0. -1.
<mgrwt>
<rscale>  0 0.64906088E+03</rscale>
<asrwt>0</asrwt>
<pdfrwt beam="1">0</pdfrwt>
<pdfrwt beam="2">  1        2 0.38298265E+00 0.64906088E+03</pdfrwt>
<totfact> 0.46089538E+00</totfact>
</mgrwt>
</event>
<event>
 5    1  0.2344661E-004  0.6543065E+03  0.7818608E-02  0.9798732E-01
         13   -1    0    0    0    0  0.00000000000E+00  0.00000000000E+00  0.10000000000E+04  0.10000000000E+04  0.00000000000E+00 0. -1.
          2   -1    0    0  501    0 -0.00000000000E+00 -0.00000000000E+00 -0.10702924218E+03  0.10702924218E+03  0.00000000000E+00 0. -1.
    9000006    2    1    2  501    0  0.00000000000E+00  0.00000000000E+00  0.89297075782E+03  0.11070292422E+04  0.65430647920E+03 0.  0.
         13    1    3    3    0    0  0.35545309553E+02 -0.77262016460E+02  0.98096999482E+03  0.98464969352E+03  0.00000000000E+00 0. -1.
          2    1    3    3  501    0 -0.35545309553E+02  0.77262016460E+02 -0.87999236998E+02  0.12237954866E+03  0.00000000000E+00 0. -1.
<mgrwt>
<rscale>  0 0.65430648E+03</rscale>
<asrwt>0</asrwt>
<pdfrwt beam="1">0</pdfrwt>
<pdfrwt beam="2">  1        2 0.38919807E+00 0.65430648E+03</pdfrwt>
<totfact> 0.43689828E+00</totfact>
</mgrwt>
</event>
<event>
 5    1  0.2344661E-004  0.6485599E+03  0.7818608E-02  0.9809485E-01
         13   -1    0    0    0    0  0.00000000000E+00  0.00000000000E+00  0.10000000000E+04  0.10000000000E+04  0.00000000000E+00 0. -1.
          2   -1    0    0  501    0 -0.00000000000E+00 -0.00000000000E+00 -0.10515749240E+03  0.10515749240E+03  0.00000000000E+00 0. -1.
    9000006    2    1    2  501    0  0.00000000000E+00  0.00000000000E+00  0.89484250760E+03  0.11051574924E+04  0.64855991983E+03 0.  0.
         13    1    3    3    0    0 -0.12760275703E+03  0.18653302376E+02  0.95442613837E+03  0.96309898915E+03  0.00000000000E+00 0. -1.
          4    1    3    3  501    0  0.12760275703E+03 -0.18653302376E+02 -0.59583630773E+02  0.14205850325E+03  0.00000000000E+00 0. -1.
<mgrwt>
<rscale>  0 0.64855992E+03</rscale>
<asrwt>0</asrwt>
<pdfrwt beam="1">0</pdfrwt>
<pdfrwt beam="2">  1        2 0.38239169E+00 0.64855992E+03</pdfrwt>
<totfact> 0.46323813E+00</totfact>
</mgrwt>
</event>
<event>
 5    1  0.2344661E-004  0.6485276E+03  0.7818608E-02  0.9809546E-01
         13   -1    0    0    0    0  0.00000000000E+00  0.00000000000E+00  0.10000000000E+04  0.10000000000E+04  0.00000000000E+00 0. -1.
          2   -1    0    0  501    0 -0.00000000000E+00 -0.00000000000E+00 -0.10514701457E+03  0.10514701457E+03  0.00000000000E+00 0. -1.
    9000006    2    1    2  501    0  0.00000000000E+00  0.00000000000E+00  0.89485298543E+03  0.11051470146E+04  0.64852760795E+03 0.  0.
         13    1    3    3    0    0 -0.36306058608E+01  0.26800681460E+03  0.75842191920E+03  0.80439085120E+03  0.00000000000E+00 0. -1.
          2    1    3    3  501    0  0.36306058608E+01 -0.26800681460E+03  0.13643106623E+03  0.30075616337E+03  0.00000000000E+00 0. -1.
<mgrwt>
<rscale>  0 0.64852761E+03</rscale>
<asrwt>0</asrwt>
<pdfrwt beam="1">0</pdfrwt>
<pdfrwt beam="2">  1        2 0.38235359E+00 0.64852761E+03</pdfrwt>
<totfact> 0.46338954E+00</totfact>
</mgrwt>
</event>
<event>
 5    1  0.2344661E-004  0.6459900E+03  0.7818608E-02  0.9814333E-01
         13   -1    0    0    0    0  0.00000000000E+00  0.00000000000E+00  0.10000000000E+04  0.10000000000E+04  0.00000000000E+00 0. -1.
          2   -1    0    0  501    0 -0.00000000000E+00 -0.00000000000E+00 -0.10432578385E+03  0.10432578385E+03  0.00000000000E+00 0. -1.
    9000006    2    1    2  501    0  0.00000000000E+00  0.00000000000E+00  0.89567421615E+03  0.11043257838E+04  0.64599004279E+03 0.  0.
         13    1    3    3    0    0 -0.22917274790E+03 -0.17575922544E+03  0.69506266729E+03  0.75267759709E+03  0.00000000000E+00 0. -1.
          4    1    3    3  501    0  0.22917274790E+03  0.17575922544E+03  0.20061154887E+03  0.35164818675E+03  0.00000000000E+00 0. -1.
<mgrwt>
<rscale>  0 0.64599004E+03</rscale>
<asrwt>0</asrwt>
<pdfrwt beam="1">0</pdfrwt>
<pdfrwt beam="2">  1        2 0.37936729E+00 0.64599004E+03</pdfrwt>
<totfact> 0.47539808E+00</totfact>
</mgrwt>
</event>
<event>
 5    1  0.2344661E-004  0.6662049E+03  0.7818608E-02  0.9776838E-01
         13   -1    0    0    0    0  0.00000000000E+00  0.00000000000E+00  0.10000000000E+04  0.10000000000E+04  0.00000000000E+00 0. -1.
          2   -1    0    0  501    0 -0.00000000000E+00 -0.00000000000E+00 -0.11095724511E+03  0.11095724511E+03  0.00000000000E+00 0. -1.
    9000006    2    1    2  501    0  0.00000000000E+00  0.00000000000E+00  0.88904275489E+03  0.11109572451E+04  0.66620490874E+03 0.  0.
         13    1    3    3    0    0 -0.10927499645E+03  0.29499088644E+03  0.26187184899E+03  0.40931346572E+03  0.00000000000E+00 0. -1.
          4    1    3    3  501    0  0.10927499645E+03 -0.29499088644E+03  0.62717090591E+03  0.70164377938E+03  0.00000000000E+00 0. -1.
<mgrwt>
<rscale>  0 0.66620491E+03</rscale>
<asrwt>0</asrwt>
<pdfrwt beam="1">0</pdfrwt>
<pdfrwt beam="2">  1        2 0.40348174E+00 0.66620491E+03</pdfrwt>
<totfact> 0.38597076E+00</totfact>
</mgrwt>
</event>
<event>
 5    1  0.2344661E-004  0.6509134E+03  0.7818608E-02  0.9805067E-01
         13   -1    0    0    0    0  0.00000000000E+00  0.00000000000E+00  0.10000000000E+04  0.10000000000E+04  0.00000000000E+00 0. -1.
          2   -1    0    0  501    0 -0.00000000000E+00 -0.00000000000E+00 -0.10592206658E+03  0.10592206658E+03  0.00000000000E+00 0. -1.
    9000006    2    1    2  501    0  0.00000000000E+00  0.00000000000E+00  0.89407793342E+03  0.11059220666E+04  0.65091340923E+03 0.  0.
         13    1    3    3    0    0 -0.20626582699E+03 -0.20815438048E+03  0.20647016034E+03  0.35847421750E+03  0.00000000000E+00 0. -1.
          4    1    3    3  501    0  0.20626582699E+03  0.20815438048E+03  0.68760777308E+03  0.74744784908E+03  0.00000000000E+00 0. -1.
<mgrwt>
<rscale>  0 0.65091341E+03</rscale>
<asrwt>0</asrwt>
<pdfrwt beam="1">0</pdfrwt>
<pdfrwt beam="2">  1        2 0.38517196E+00 0.65091341E+03</pdfrwt>
<totfact> 0.45230972E+00</totfact>
</mgrwt>
</event>
<event>
 5    1  0.2344661E-004  0.6377561E+03  0.7818608E-02  0.9830029E-01
         13   -1    0    0    0    0  0.00000000000E+00  0.00000000000E+00  0.10000000000E+04  0.10000000000E+04  0.00000000000E+00 0. -1.
          2   -1    0    0  501    0 -0.00000000000E+00 -0.00000000000E+00 -0.10168322222E+03  0.10168322222E+03  0.00000000000E+00 0. -1.
    9000006    2    1    2  501    0  0.00000000000E+00  0.00000000000E+00  0.89831677778E+03  0.11016832222E+04  0.63775613589E+03 0.  0.
         13    1    3    3    0    0  0.20728825862E+03  0.20453643140E+03  0.22472690214E+03  0.36783930523E+03  0.00000000000E+00 0. -1.
          4    1    3    3  501    0 -0.20728825862E+03 -0.20453643140E+03  0.67358987564E+03  0.73384391698E+03  0.00000000000E+00 0. -1.
<mgrwt>
<rscale>  0 0.63775614E+03</rscale>
<asrwt>0</asrwt>
<pdfrwt beam="1">0</pdfrwt>
<pdfrwt beam="2">  1        2 0.36975795E+00 0.63775614E+03</pdfrwt>
<totfact> 0.51599336E+00</totfact>
</mgrwt>
</event>
<event>
 5    1  0.2344661E-004  0.6714805E+03  0.7818608E-02  0.9767287E-01
         13   -1    0    0    0    0  0.00000000000E+00  0.00000000000E+00  0.10000000000E+04  0.10000000000E+04  0.00000000000E+00 0. -1.
          2   -1    0    0  501    0 -0.00000000000E+00 -0.00000000000E+00 -0.11272151320E+03  0.11272151320E+03  0.00000000000E+00 0. -1.
    9000006    2    1    2  501    0  0.00000000000E+00  0.00000000000E+00  0.88727848680E+03  0.11127215132E+04  0.67148049324E+03 0.  0.
         13    1    3    3    0    0  0.17004869878E+03  0.20065605743E+03  0.78942553232E+03  0.83208898829E+03  0.00000000000E+00 0. -1.
          4    1    3    3  501    0 -0.17004869878E+03 -0.20065605743E+03  0.97852954476E+02  0.28063252491E+03  0.00000000000E+00 0. -1.
<mgrwt>
<rscale>  0 0.67148049E+03</rscale>
<asrwt>0</asrwt>
<pdfrwt beam="1">0</pdfrwt>
<pdfrwt beam="2">  1        2 0.40989728E+00 0.67148049E+03</pdfrwt>
<totfact> 0.36488384E+00</totfact>
</mgrwt>
</event>
<event>
 5    1  0.2344661E-004  0.6604034E+03  0.7818608E-02  0.9787451E-01
         13   -1    0    0    0    0  0.00000000000E+00  0.00000000000E+00  0.10000000000E+04  0.10000000000E+04  0.00000000000E+00 0. -1.
          2   -1    0    0  501    0 -0.00000000000E+00 -0.00000000000E+00 -0.10903316855E+03  0.10903316855E+03  0.00000000000E+00 0. -1.
    9000006    2    1    2  501    0  0.00000000000E+00  0.00000000000E+00  0.89096683145E+03  0.11090331686E+04  0.66040341778E+03 0.  0.
         13    1    3    3    0    0  0.10522305503E+03 -0.10528383883E+03  0.94046222570E+03  0.95216898500E+03  0.00000000000E+00 0. -1.
          4    1    3    3  501    0 -0.10522305503E+03  0.10528383883E+03 -0.49495394254E+02  0.15686418355E+03  0.00000000000E+00 0. -1.
<mgrwt>
<rscale>  0 0.66040342E+03</rscale>
<asrwt>0</asrwt>
<pdfrwt beam="1">0</pdfrwt>
<pdfrwt beam="2">  1        2 0.39648509E+00 0.66040342E+03</pdfrwt>
<totfact> 0.41020677E+00</totfact>
</mgrwt>
</event>
<event>
 5    1  0.2344661E-004  0.6452231E+03  0.7818608E-02  0.9815784E-01
         13   -1    0    0    0    0  0.00000000000E+00  0.00000000000E+00  0.10000000000E+04  0.10000000000E+04  0.00000000000E+00 0. -1.
          4   -1    0    0  501    0 -0.00000000000E+00 -0.00000000000E+00 -0.10407819833E+03  0.10407819833E+03  0.00000000000E+00 0. -1.
    9000006    2    1    2  501    0  0.00000000000E+00  0.00000000000E+00  0.89592180167E+03  0.11040781983E+04  0.64522305702E+03 0.  0.
         13    1    3    3    0    0 -0.25912347569E+03  0.15438567447E+03  0.64379900369E+03  0.71095504027E+03  0.00000000000E+00 0. -1.
          2    1    3    3  501    0  0.25912347569E+03 -0.15438567447E+03  0.25212279798E+03  0.39312315805E+03  0.00000000000E+00 0. -1.
<mgrwt>
<rscale>  0 0.64522306E+03</rscale>
<asrwt>0</asrwt>
<pdfrwt beam="1">0</pdfrwt>
<pdfrwt beam="2">  1        4 0.37846697E+00 0.64522306E+03</pdfrwt>
<totfact> 0.44926191E-02</totfact>
</mgrwt>
</event>
<event>
 5    1  0.2344661E-004  0.6279514E+03  0.7818608E-02  0.9849055E-01
         13   -1    0    0    0    0  0.00000000000E+00  0.00000000000E+00  0.10000000000E+04  0.10000000000E+04  0.00000000000E+00 0. -1.
          2   -1    0    0  501    0 -0.00000000000E+00 -0.00000000000E+00 -0.98580739619E+02  0.98580739619E+02  0.00000000000E+00 0. -1.
    9000006    2    1    2  501    0  0.00000000000E+00  0.00000000000E+00  0.90141926038E+03  0.10985807396E+04  0.62795139818E+03 0.  0.
         13    1    3    3    0    0  0.12626864892E+03  0.15066253334E+01 -0.52196779687E+02  0.13664020430E+03  0.00000000000E+00 0. -1.
          2    1    3    3  501    0 -0.12626864892E+03 -0.15066253334E+01  0.95361604007E+03  0.96194053532E+03  0.00000000000E+00 0. -1.
<mgrwt>
<rscale>  0 0.62795140E+03</rscale>
<asrwt>0</asrwt>
<pdfrwt beam="1">0</pdfrwt>
<pdfrwt beam="2">  1        2 0.35847617E+00 0.62795140E+03</pdfrwt>
<totfact> 0.56770167E+00</totfact>
</mgrwt>
</event>
<event>
 5    1  0.2344661E-004  0.6446442E+03  0.7818608E-02  0.9816881E-01
         13   -1    0    0    0    0  0.00000000000E+00  0.00000000000E+00  0.10000000000E+04  0.10000000000E+04  0.00000000000E+00 0. -1.
          2   -1    0    0  501    0 -0.00000000000E+00 -0.00000000000E+00 -0.10389153916E+03  0.10389153916E+03  0.00000000000E+00 0. -1.
    9000006    2    1    2  501    0  0.00000000000E+00  0.00000000000E+00  0.89610846084E+03  0.11038915392E+04  0.64464420936E+03 0.  0.
         13    1    3    3    0    0  0.26787170634E+03 -0.14966826515E+03  0.61701655546E+03  0.68910468752E+03  0.00000000000E+00 0. -1.
          2    1    3    3  501    0 -0.26787170634E+03  0.14966826515E+03  0.27909190537E+03  0.41478685164E+03  0.00000000000E+00 0. -1.
<mgrwt>
<rscale>  0 0.64464421E+03</rscale>
<asrwt>0</asrwt>
<pdfrwt beam="1">0</pdfrwt>
<pdfrwt beam="2">  1        2 0.37778821E+00 0.64464421E+03</pdfrwt>
<totfact> 0.48186170E+00</totfact>
</mgrwt>
</event>
<event>
 5    1  0.2344661E-004  0.6965964E+03  0.7818608E-02  0.9723071E-01
         13   -1    0    0    0    0  0.00000000000E+00  0.00000000000E+00  0.10000000000E+04  0.10000000000E+04  0.00000000000E+00 0. -1.
          2   -1    0    0  501    0 -0.00000000000E+00 -0.00000000000E+00 -0.12131162553E+03  0.12131162553E+03  0.00000000000E+00 0. -1.
    9000006    2    1    2  501    0  0.00000000000E+00  0.00000000000E+00  0.87868837447E+03  0.11213116255E+04  0.69659636957E+03 0.  0.
         13    1    3    3    0    0 -0.40639830123E+02  0.17522987649E+03  0.91944133813E+03  0.93687217894E+03  0.00000000000E+00 0. -1.
          2    1    3    3  501    0  0.40639830123E+02 -0.17522987649E+03 -0.40752963658E+02  0.18443944658E+03  0.00000000000E+00 0. -1.
<mgrwt>
<rscale>  0 0.69659637E+03</rscale>
<asrwt>0</asrwt>
<pdfrwt beam="1">0</pdfrwt>
<pdfrwt beam="2">  1        2 0.44113411E+00 0.69659637E+03</pdfrwt>
<totfact> 0.27613803E+00</totfact>
</mgrwt>
</event>
<event>
 5    1  0.2344661E-004  0.6487276E+03  0.7818608E-02  0.9809170E-01
         13   -1    0    0    0    0  0.00000000000E+00  0.00000000000E+00  0.10000000000E+04  0.10000000000E+04  0.00000000000E+00 0. -1.
          2   -1    0    0  501    0 -0.00000000000E+00 -0.00000000000E+00 -0.10521189071E+03  0.10521189071E+03  0.00000000000E+00 0. -1.
    9000006    2    1    2  501    0  0.00000000000E+00  0.00000000000E+00  0.89478810929E+03  0.11052118907E+04  0.64872764919E+03 0.  0.
         13    1    3    3    0    0 -0.14457654671E+03 -0.43311769166E+02  0.93653642411E+03  0.94861939728E+03  0.00000000000E+00 0. -1.
          4    1    3    3  501    0  0.14457654671E+03  0.43311769166E+02 -0.41748314817E+02  0.15659249343E+03  0.00000000000E+00 0. -1.
<mgrwt>
<rscale>  0 0.64872765E+03</rscale>
<asrwt>0</asrwt>
<pdfrwt beam="1">0</pdfrwt>
<pdfrwt beam="2">  1        2 0.38258950E+00 0.64872765E+03</pdfrwt>
<totfact> 0.46245274E+00</totfact>
</mgrwt>
</event>
<event>
 5    1  0.2344661E-004  0.6577405E+03  0.7818608E-02  0.9792362E-01
         13   -1    0    0    0    0  0.00000000000E+00  0.00000000000E+00  0.10000000000E+04  0.10000000000E+04  0.00000000000E+00 0. -1.
          2   -1    0    0  501    0 -0.00000000000E+00 -0.00000000000E+00 -0.10815564101E+03  0.10815564101E+03  0.00000000000E+00 0. -1.
    9000006    2    1    2  501    0  0.00000000000E+00  0.00000000000E+00  0.89184435899E+03  0.11081556410E+04  0.65774049900E+03 0.  0.
         13    1    3    3    0    0 -0.78263981430E+02 -0.22574996897E+03  0.82665279759E+03  0.86049006214E+03  0.00000000000E+00 0. -1.
          4    1    3    3  501    0  0.78263981430E+02  0.22574996897E+03  0.65191561404E+02  0.24766557887E+03  0.00000000000E+00 0. -1.
<mgrwt>
<rscale>  0 0.65774050E+03</rscale>
<asrwt>0</asrwt>
<pdfrwt beam="1">0</pdfrwt>
<pdfrwt beam="2">  1        2 0.39329407E+00 0.65774050E+03</pdfrwt>
<totfact> 0.42170803E+00</totfact>
</mgrwt>
</event>
<event>
 5    1  0.2344661E-004  0.6511381E+03  0.7818608E-02  0.9804646E-01
         13   -1    0    0    0    0  0.00000000000E+00  0.00000000000E+00  0.10000000000E+04  0.10000000000E+04  0.00000000000E+00 0. -1.
          2   -1    0    0  501    0 -0.00000000000E+00 -0.00000000000E+00 -0.10599520405E+03  0.10599520405E+03  0.00000000000E+00 0. -1.
    9000006    2    1    2  501    0  0.00000000000E+00  0.00000000000E+00  0.89400479595E+03  0.11059952040E+04  0.65113809303E+03 0.  0.
         13    1    3    3    0    0  0.25722446289E+02  0.18792334602E+03 -0.24525405056E+01  0.18969144202E+03  0.00000000000E+00 0. -1.
          4    1    3    3  501    0 -0.25722446289E+02 -0.18792334602E+03  0.89645733646E+03  0.91630376203E+03  0.00000000000E+00 0. -1.
<mgrwt>
<rscale>  0 0.65113809E+03</rscale>
<asrwt>0</asrwt>
<pdfrwt beam="1">0</pdfrwt>
<pdfrwt beam="2">  1        2 0.38543792E+00 0.65113809E+03</pdfrwt>
<totfact> 0.45127669E+00</totfact>
</mgrwt>
</event>
<event>
 5    1  0.2344661E-004  0.6498105E+03  0.7818608E-02  0.9807135E-01
         13   -1    0    0    0    0  0.00000000000E+00  0.00000000000E+00  0.10000000000E+04  0.10000000000E+04  0.00000000000E+00 0. -1.
          2   -1    0    0  501    0 -0.00000000000E+00 -0.00000000000E+00 -0.10556340725E+03  0.10556340725E+03  0.00000000000E+00 0. -1.
    9000006    2    1    2  501    0  0.00000000000E+00  0.00000000000E+00  0.89443659275E+03  0.11055634073E+04  0.64981045622E+03 0.  0.
         13    1    3    3    0    0  0.37157839514E+02 -0.63477154598E+02  0.98564886350E+03  0.98838946591E+03  0.00000000000E+00 0. -1.
          4    1    3    3  501    0 -0.37157839514E+02  0.63477154598E+02 -0.91212270758E+02  0.11717394134E+03  0.00000000000E+00 0. -1.
<mgrwt>
<rscale>  0 0.64981046E+03</rscale>
<asrwt>0</asrwt>
<pdfrwt beam="1">0</pdfrwt>
<pdfrwt beam="2">  1        2 0.38386774E+00 0.64981046E+03</pdfrwt>
<totfact> 0.45740672E+00</totfact>
</mgrwt>
</event>
<event>
 5    1  0.2344661E-004  0.6467647E+03  0.7818608E-02  0.9812869E-01
         13   -1    0    0    0    0  0.00000000000E+00  0.00000000000E+00  0.10000000000E+04  0.10000000000E+04  0.00000000000E+00 0. -1.
          2   -1    0    0  501    0 -0.00000000000E+00 -0.00000000000E+00 -0.10457615964E+03  0.10457615964E+03  0.00000000000E+00 0. -1.
    9000006    2    1    2  501    0  0.00000000000E+00  0.00000000000E+00  0.89542384036E+03  0.11045761596E+04  0.64676474746E+03 0.  0.
         13    1    3    3    0    0  0.21572822593E+03  0.24048807602E+03  0.42338017596E+03  0.53256356951E+03  0.00000000000E+00 0. -1.
          2    1    3    3  501    0 -0.21572822593E+03 -0.24048807602E+03  0.47204366440E+03  0.57201259013E+03  0.00000000000E+00 0. -1.
<mgrwt>
<rscale>  0 0.64676475E+03</rscale>
<asrwt>0</asrwt>
<pdfrwt beam="1">0</pdfrwt>
<pdfrwt beam="2">  1        2 0.38027775E+00 0.64676475E+03</pdfrwt>
<totfact> 0.47170728E+00</totfact>
</mgrwt>
</event>
<event>
 5    1  0.2344661E-004  0.4875062E+03  0.7818608E-02  0.1017092E+00
         13   -1    0    0    0    0  0.00000000000E+00  0.00000000000E+00  0.10000000000E+04  0.10000000000E+04  0.00000000000E+00 0. -1.
          2   -1    0    0  501    0 -0.00000000000E+00 -0.00000000000E+00 -0.59415575600E+02  0.59415575600E+02  0.00000000000E+00 0. -1.
    9000006    2    1    2  501    0  0.00000000000E+00  0.00000000000E+00  0.94058442440E+03  0.10594155756E+04  0.48750620755E+03 0.  0.
         13    1    3    3    0    0  0.90138333677E+01  0.24356614548E+03  0.47711570387E+03  0.53576591091E+03  0.00000000000E+00 0. -1.
          4    1    3    3  501    0 -0.90138333677E+01 -0.24356614548E+03  0.46346872053E+03  0.52364966469E+03  0.00000000000E+00 0. -1.
<mgrwt>
<rscale>  0 0.48750621E+03</rscale>
<asrwt>0</asrwt>
<pdfrwt beam="1">0</pdfrwt>
<pdfrwt beam="2">  1        2 0.21605709E+00 0.48750621E+03</pdfrwt>
<totfact> 0.18516981E+01</totfact>
</mgrwt>
</event>
<event>
 5    1  0.2344661E-004  0.6577313E+03  0.7818608E-02  0.9792379E-01
         13   -1    0    0    0    0  0.00000000000E+00  0.00000000000E+00  0.10000000000E+04  0.10000000000E+04  0.00000000000E+00 0. -1.
          2   -1    0    0  501    0 -0.00000000000E+00 -0.00000000000E+00 -0.10815260219E+03  0.10815260219E+03  0.00000000000E+00 0. -1.
    9000006    2    1    2  501    0  0.00000000000E+00  0.00000000000E+00  0.89184739781E+03  0.11081526022E+04  0.65773125876E+03 0.  0.
         13    1    3    3    0    0  0.57860228905E+02 -0.31388335137E+03  0.31238677675E+03  0.44660504100E+03  0.00000000000E+00 0. -1.
          2    1    3    3  501    0 -0.57860228905E+02  0.31388335137E+03  0.57946062106E+03  0.66154756119E+03  0.00000000000E+00 0. -1.
<mgrwt>
<rscale>  0 0.65773126E+03</rscale>
<asrwt>0</asrwt>
<pdfrwt beam="1">0</pdfrwt>
<pdfrwt beam="2">  1        2 0.39328302E+00 0.65773126E+03</pdfrwt>
<totfact> 0.42174836E+00</totfact>
</mgrwt>
</event>
<event>
 5    1  0.2344661E-004  0.6630688E+03  0.7818608E-02  0.9782561E-01
         13   -1    0    0    0    0  0.00000000000E+00  0.00000000000E+00  0.10000000000E+04  0.10000000000E+04  0.00000000000E+00 0. -1.
          2   -1    0    0  501    0 -0.00000000000E+00 -0.00000000000E+00 -0.10991504359E+03  0.10991504359E+03  0.00000000000E+00 0. -1.
    9000006    2    1    2  501    0  0.00000000000E+00  0.00000000000E+00  0.89008495641E+03  0.11099150436E+04  0.66306875539E+03 0.  0.
         13    1    3    3    0    0  0.21522071527E+03  0.15918721141E+03  0.11764709799E+03  0.29240616311E+03  0.00000000000E+00 0. -1.
          4    1    3    3  501    0 -0.21522071527E+03 -0.15918721141E+03  0.77243785842E+03  0.81750888049E+03  0.00000000000E+00 0. -1.
<mgrwt>
<rscale>  0 0.66306876E+03</rscale>
<asrwt>0</asrwt>
<pdfrwt beam="1">0</pdfrwt>
<pdfrwt beam="2">  1        2 0.39969191E+00 0.66306876E+03</pdfrwt>
<totfact> 0.39893390E+00</totfact>
</mgrwt>
</event>
<event>
 5    1  0.2344661E-004  0.6526185E+03  0.7818608E-02  0.9801878E-01
         13   -1    0    0    0    0  0.00000000000E+00  0.00000000000E+00  0.10000000000E+04  0.10000000000E+04  0.00000000000E+00 0. -1.
          2   -1    0    0  501    0 -0.00000000000E+00 -0.00000000000E+00 -0.10647771296E+03  0.10647771296E+03  0.00000000000E+00 0. -1.
    9000006    2    1    2  501    0  0.00000000000E+00  0.00000000000E+00  0.89352228704E+03  0.11064777130E+04  0.65261845809E+03 0.  0.
         13    1    3    3    0    0 -0.30683504556E+03  0.26655818558E+02  0.62951890306E+03  0.70082260748E+03  0.00000000000E+00 0. -1.
          4    1    3    3  501    0  0.30683504556E+03 -0.26655818558E+02  0.26400338398E+03  0.40565510548E+03  0.00000000000E+00 0. -1.
<mgrwt>
<rscale>  0 0.65261846E+03</rscale>
<asrwt>0</asrwt>
<pdfrwt beam="1">0</pdfrwt>
<pdfrwt beam="2">  1        2 0.38719250E+00 0.65261846E+03</pdfrwt>
<totfact> 0.44451488E+00</totfact>
</mgrwt>
</event>
<event>
 5    1  0.2344661E-004  0.6273571E+03  0.7818608E-02  0.9850220E-01
         13   -1    0    0    0    0  0.00000000000E+00  0.00000000000E+00  0.10000000000E+04  0.10000000000E+04  0.00000000000E+00 0. -1.
          2   -1    0    0  501    0 -0.00000000000E+00 -0.00000000000E+00 -0.98394245676E+02  0.98394245676E+02  0.00000000000E+00 0. -1.
    9000006    2    1    2  501    0  0.00000000000E+00  0.00000000000E+00  0.90160575432E+03  0.10983942457E+04  0.62735714127E+03 0.  0.
         13    1    3    3    0    0  0.24013858526E+03 -0.97557622668E+02  0.76011133017E+03  0.80308982320E+03  0.00000000000E+00 0. -1.
          2    1    3    3  501    0 -0.24013858526E+03  0.97557622668E+02  0.14149442416E+03  0.29530442248E+03  0.00000000000E+00 0. -1.
<mgrwt>
<rscale>  0 0.62735714E+03</rscale>
<asrwt>0</asrwt>
<pdfrwt beam="1">0</pdfrwt>
<pdfrwt beam="2">  1        2 0.35779801E+00 0.62735714E+03</pdfrwt>
<totfact> 0.57095723E+00</totfact>
</mgrwt>
</event>
<event>
 5    1  0.2344661E-004  0.6474800E+03  0.7818608E-02  0.9811519E-01
         13   -1    0    0    0    0  0.00000000000E+00  0.00000000000E+00  0.10000000000E+04  0.10000000000E+04  0.00000000000E+00 0. -1.
          2   -1    0    0  501    0 -0.00000000000E+00 -0.00000000000E+00 -0.10480757219E+03  0.10480757219E+03  0.00000000000E+00 0. -1.
    9000006    2    1    2  501    0  0.00000000000E+00  0.00000000000E+00  0.89519242781E+03  0.11048075722E+04  0.64747995239E+03 0.  0.
         13    1    3    3    0    0  0.68824320115E+02  0.22709709748E+03  0.82336513526E+03  0.85687806874E+03  0.00000000000E+00 0. -1.
          4    1    3    3  501    0 -0.68824320115E+02 -0.22709709748E+03  0.71827292558E+02  0.24792950345E+03  0.00000000000E+00 0. -1.
<mgrwt>
<rscale>  0 0.64747995E+03</rscale>
<asrwt>0</asrwt>
<pdfrwt beam="1">0</pdfrwt>
<pdfrwt beam="2">  1        2 0.38111925E+00 0.64747995E+03</pdfrwt>
<totfact> 0.46831922E+00</totfact>
</mgrwt>
</event>
<event>
 5    1  0.2344661E-004  0.6550835E+03  0.7818608E-02  0.9797287E-01
         13   -1    0    0    0    0  0.00000000000E+00  0.00000000000E+00  0.10000000000E+04  0.10000000000E+04  0.00000000000E+00 0. -1.
          2   -1    0    0  501    0 -0.00000000000E+00 -0.00000000000E+00 -0.10728359410E+03  0.10728359410E+03  0.00000000000E+00 0. -1.
    9000006    2    1    2  501    0  0.00000000000E+00  0.00000000000E+00  0.89271640590E+03  0.11072835941E+04  0.65508348811E+03 0.  0.
         13    1    3    3    0    0 -0.11394292293E+03 -0.28180366141E+03  0.24011948768E+03  0.38736760530E+03  0.00000000000E+00 0. -1.
          2    1    3    3  501    0  0.11394292293E+03  0.28180366141E+03  0.65259691822E+03  0.71991598880E+03  0.00000000000E+00 0. -1.
<mgrwt>
<rscale>  0 0.65508349E+03</rscale>
<asrwt>0</asrwt>
<pdfrwt beam="1">0</pdfrwt>
<pdfrwt beam="2">  1        2 0.39012298E+00 0.65508349E+03</pdfrwt>
<totfact> 0.43342562E+00</totfact>
</mgrwt>
</event>
<event>
 5    1  0.2344661E-004  0.6554033E+03  0.7818608E-02  0.9796693E-01
         13   -1    0    0    0    0  0.00000000000E+00  0.00000000000E+00  0.10000000000E+04  0.10000000000E+04  0.00000000000E+00 0. -1.
          2   -1    0    0  501    0 -0.00000000000E+00 -0.00000000000E+00 -0.10738836411E+03  0.10738836411E+03  0.00000000000E+00 0. -1.
    9000006    2    1    2  501    0  0.00000000000E+00  0.00000000000E+00  0.89261163589E+03  0.11073883641E+04  0.65540327772E+03 0.  0.
         13    1    3    3    0    0 -0.32633985421E+02 -0.11380825512E+03 -0.69988696151E+02  0.13753440852E+03  0.00000000000E+00 0. -1.
          4    1    3    3  501    0  0.32633985421E+02  0.11380825512E+03  0.96260033204E+03  0.96985395559E+03  0.00000000000E+00 0. -1.
<mgrwt>
<rscale>  0 0.65540328E+03</rscale>
<asrwt>0</asrwt>
<pdfrwt beam="1">0</pdfrwt>
<pdfrwt beam="2">  1        2 0.39050397E+00 0.65540328E+03</pdfrwt>
<totfact> 0.43200247E+00</totfact>
</mgrwt>
</event>
<event>
 5    1  0.2344661E-004  0.6544830E+03  0.7818608E-02  0.9798403E-01
         13   -1    0    0    0    0  0.00000000000E+00  0.00000000000E+00  0.10000000000E+04  0.10000000000E+04  0.00000000000E+00 0. -1.
          2   -1    0    0  501    0 -0.00000000000E+00 -0.00000000000E+00 -0.10708700532E+03  0.10708700532E+03  0.00000000000E+00 0. -1.
    9000006    2    1    2  501    0  0.00000000000E+00  0.00000000000E+00  0.89291299468E+03  0.11070870053E+04  0.65448301834E+03 0.  0.
         13    1    3    3    0    0  0.68800302081E+02 -0.16276256817E+02 -0.94014022344E+02  0.11763092493E+03  0.00000000000E+00 0. -1.
          2    1    3    3  501    0 -0.68800302081E+02  0.16276256817E+02  0.98692701702E+03  0.98945608039E+03  0.00000000000E+00 0. -1.
<mgrwt>
<rscale>  0 0.65448302E+03</rscale>
<asrwt>0</asrwt>
<pdfrwt beam="1">0</pdfrwt>
<pdfrwt beam="2">  1        2 0.38940811E+00 0.65448302E+03</pdfrwt>
<totfact> 0.43610744E+00</totfact>
</mgrwt>
</event>
<event>
 5    1  0.2344661E-004  0.6440076E+03  0.7818608E-02  0.9818089E-01
         13   -1    0    0    0    0  0.00000000000E+00  0.00000000000E+00  0.10000000000E+04  0.10000000000E+04  0.00000000000E+00 0. -1.
          2   -1    0    0  501    0 -0.00000000000E+00 -0.00000000000E+00 -0.10368643702E+03  0.10368643702E+03  0.00000000000E+00 0. -1.
    9000006    2    1    2  501    0  0.00000000000E+00  0.00000000000E+00  0.89631356298E+03  0.11036864370E+04  0.64400756833E+03 0.  0.
         13    1    3    3    0    0  0.27326397961E+03  0.16028951613E+03  0.34940229496E+03  0.47164382245E+03  0.00000000000E+00 0. -1.
          4    1    3    3  501    0 -0.27326397961E+03 -0.16028951613E+03  0.54691126802E+03  0.63204261456E+03  0.00000000000E+00 0. -1.
<mgrwt>
<rscale>  0 0.64400757E+03</rscale>
<asrwt>0</asrwt>
<pdfrwt beam="1">0</pdfrwt>
<pdfrwt beam="2">  1        2 0.37704238E+00 0.64400757E+03</pdfrwt>
<totfact> 0.48494236E+00</totfact>
</mgrwt>
</event>
<event>
 5    1  0.2344661E-004  0.6446848E+03  0.7818608E-02  0.9816804E-01
         13   -1    0    0    0    0  0.00000000000E+00  0.00000000000E+00  0.10000000000E+04  0.10000000000E+04  0.00000000000E+00 0. -1.
          2   -1    0    0  501    0 -0.00000000000E+00 -0.00000000000E+00 -0.10390461267E+03  0.10390461267E+03  0.00000000000E+00 0. -1.
    9000006    2    1    2  501    0  0.00000000000E+00  0.00000000000E+00  0.89609538733E+03  0.11039046127E+04  0.64468476847E+03 0.  0.
         13    1    3    3    0    0  0.31713516032E+03 -0.56771984662E+02  0.46574716371E+03  0.56631986427E+03  0.00000000000E+00 0. -1.
          4    1    3    3  501    0 -0.31713516032E+03  0.56771984662E+02  0.43034822361E+03  0.53758474841E+03  0.00000000000E+00 0. -1.
<mgrwt>
<rscale>  0 0.64468477E+03</rscale>
<asrwt>0</asrwt>
<pdfrwt beam="1">0</pdfrwt>
<pdfrwt beam="2">  1        2 0.37783575E+00 0.64468477E+03</pdfrwt>
<totfact> 0.48166595E+00</totfact>
</mgrwt>
</event>
<event>
 5    1  0.2344661E-004  0.6502162E+03  0.7818608E-02  0.9806374E-01
         13   -1    0    0    0    0  0.00000000000E+00  0.00000000000E+00  0.10000000000E+04  0.10000000000E+04  0.00000000000E+00 0. -1.
          2   -1    0    0  501    0 -0.00000000000E+00 -0.00000000000E+00 -0.10569528872E+03  0.10569528872E+03  0.00000000000E+00 0. -1.
    9000006    2    1    2  501    0  0.00000000000E+00  0.00000000000E+00  0.89430471128E+03  0.11056952887E+04  0.65021623701E+03 0.  0.
         13    1    3    3    0    0 -0.40350193983E+02 -0.28821520539E+03  0.69357378065E+03  0.75215738511E+03  0.00000000000E+00 0. -1.
          4    1    3    3  501    0  0.40350193983E+02  0.28821520539E+03  0.20073093063E+03  0.35353790361E+03  0.00000000000E+00 0. -1.
<mgrwt>
<rscale>  0 0.65021624E+03</rscale>
<asrwt>0</asrwt>
<pdfrwt beam="1">0</pdfrwt>
<pdfrwt beam="2">  1        2 0.38434731E+00 0.65021624E+03</pdfrwt>
<totfact> 0.45552650E+00</totfact>
</mgrwt>
</event>
<event>
 5    1  0.2344661E-004  0.6473916E+03  0.7818608E-02  0.9811686E-01
         13   -1    0    0    0    0  0.00000000000E+00  0.00000000000E+00  0.10000000000E+04  0.10000000000E+04  0.00000000000E+00 0. -1.
          2   -1    0    0  501    0 -0.00000000000E+00 -0.00000000000E+00 -0.10477897171E+03  0.10477897171E+03  0.00000000000E+00 0. -1.
    9000006    2    1    2  501    0  0.00000000000E+00  0.00000000000E+00  0.89522102829E+03  0.11047789717E+04  0.64739160239E+03 0.  0.
         13    1    3    3    0    0 -0.31733502610E+03  0.50013900182E+02  0.37986273162E+03  0.49749231539E+03  0.00000000000E+00 0. -1.
          2    1    3    3  501    0  0.31733502610E+03 -0.50013900182E+02  0.51535829667E+03  0.60728665632E+03  0.00000000000E+00 0. -1.
<mgrwt>
<rscale>  0 0.64739160E+03</rscale>
<asrwt>0</asrwt>
<pdfrwt beam="1">0</pdfrwt>
<pdfrwt beam="2">  1        2 0.38101525E+00 0.64739160E+03</pdfrwt>
<totfact> 0.46873675E+00</totfact>
</mgrwt>
</event>
<event>
 5    1  0.2344661E-004  0.6658342E+03  0.7818608E-02  0.9777513E-01
         13   -1    0    0    0    0  0.00000000000E+00  0.00000000000E+00  0.10000000000E+04  0.10000000000E+04  0.00000000000E+00 0. -1.
          2   -1    0    0  501    0 -0.00000000000E+00 -0.00000000000E+00 -0.11083379863E+03  0.11083379863E+03  0.00000000000E+00 0. -1.
    9000006    2    1    2  501    0  0.00000000000E+00  0.00000000000E+00  0.88916620137E+03  0.11108337986E+04  0.66583420948E+03 0.  0.
         13    1    3    3    0    0  0.10644734237E+03  0.22969317019E+03  0.83884022670E+02  0.26669555375E+03  0.00000000000E+00 0. -1.
          4    1    3    3  501    0 -0.10644734237E+03 -0.22969317019E+03  0.80528217870E+03  0.84413824488E+03  0.00000000000E+00 0. -1.
<mgrwt>
<rscale>  0 0.66583421E+03</rscale>
<asrwt>0</asrwt>
<pdfrwt beam="1">0</pdfrwt>
<pdfrwt beam="2">  1        2 0.40303284E+00 0.66583421E+03</pdfrwt>
<totfact> 0.38748624E+00</totfact>
</mgrwt>
</event>
<event>
 5    1  0.2344661E-004  0.6469029E+03  0.7818608E-02  0.9812608E-01
         13   -1    0    0    0    0  0.00000000000E+00  0.00000000000E+00  0.10000000000E+04  0.10000000000E+04  0.00000000000E+00 0. -1.
          2   -1    0    0  501    0 -0.00000000000E+00 -0.00000000000E+00 -0.10462085145E+03  0.10462085145E+03  0.00000000000E+00 0. -1.
    9000006    2    1    2  501    0  0.00000000000E+00  0.00000000000E+00  0.89537914855E+03  0.11046208514E+04  0.64690293382E+03 0.  0.
         13    1    3    3    0    0  0.64874294285E+02 -0.16249421525E+03 -0.16839482828E+02  0.17577432188E+03  0.00000000000E+00 0. -1.
          4    1    3    3  501    0 -0.64874294285E+02  0.16249421525E+03  0.91221863138E+03  0.92884652957E+03  0.00000000000E+00 0. -1.
<mgrwt>
<rscale>  0 0.64690293E+03</rscale>
<asrwt>0</asrwt>
<pdfrwt beam="1">0</pdfrwt>
<pdfrwt beam="2">  1        2 0.38044026E+00 0.64690293E+03</pdfrwt>
<totfact> 0.47105122E+00</totfact>
</mgrwt>
</event>
<event>
 5    1  0.2344661E-004  0.6601149E+03  0.7818608E-02  0.9787982E-01
         13   -1    0    0    0    0  0.00000000000E+00  0.00000000000E+00  0.10000000000E+04  0.10000000000E+04  0.00000000000E+00 0. -1.
          2   -1    0    0  501    0 -0.00000000000E+00 -0.00000000000E+00 -0.10893791473E+03  0.10893791473E+03  0.00000000000E+00 0. -1.
    9000006    2    1    2  501    0  0.00000000000E+00  0.00000000000E+00  0.89106208527E+03  0.11089379147E+04  0.66011488311E+03 0.  0.
         13    1    3    3    0    0 -0.49726801087E+02 -0.28984315063E+03  0.19378946358E+03  0.35218768137E+03  0.00000000000E+00 0. -1.
          2    1    3    3  501    0  0.49726801087E+02  0.28984315063E+03  0.69727262169E+03  0.75675023335E+03  0.00000000000E+00 0. -1.
<mgrwt>
<rscale>  0 0.66011488E+03</rscale>
<asrwt>0</asrwt>
<pdfrwt beam="1">0</pdfrwt>
<pdfrwt beam="2">  1        2 0.39613871E+00 0.66011488E+03</pdfrwt>
<totfact> 0.41144137E+00</totfact>
</mgrwt>
</event>
<event>
 5    1  0.2344661E-004  0.6626754E+03  0.7818608E-02  0.9783281E-01
         13   -1    0    0    0    0  0.00000000000E+00  0.00000000000E+00  0.10000000000E+04  0.10000000000E+04  0.00000000000E+00 0. -1.
          2   -1    0    0  501    0 -0.00000000000E+00 -0.00000000000E+00 -0.10978468788E+03  0.10978468788E+03  0.00000000000E+00 0. -1.
    9000006    2    1    2  501    0  0.00000000000E+00  0.00000000000E+00  0.89021531212E+03  0.11097846879E+04  0.66267544961E+03 0.  0.
         13    1    3    3    0    0  0.69061082633E+02 -0.27172270488E+03  0.14938131195E+03  0.31767505071E+03  0.00000000000E+00 0. -1.
          4    1    3    3  501    0 -0.69061082633E+02  0.27172270488E+03  0.74083400017E+03  0.79210963717E+03  0.00000000000E+00 0. -1.
<mgrwt>
<rscale>  0 0.66267545E+03</rscale>
<asrwt>0</asrwt>
<pdfrwt beam="1">0</pdfrwt>
<pdfrwt beam="2">  1        2 0.39921789E+00 0.66267545E+03</pdfrwt>
<totfact> 0.40058248E+00</totfact>
</mgrwt>
</event>
<event>
 5    1  0.2344661E-004  0.6505159E+03  0.7818608E-02  0.9805812E-01
         13   -1    0    0    0    0  0.00000000000E+00  0.00000000000E+00  0.10000000000E+04  0.10000000000E+04  0.00000000000E+00 0. -1.
          2   -1    0    0  501    0 -0.00000000000E+00 -0.00000000000E+00 -0.10579274694E+03  0.10579274694E+03  0.00000000000E+00 0. -1.
    9000006    2    1    2  501    0  0.00000000000E+00  0.00000000000E+00  0.89420725306E+03  0.11057927469E+04  0.65051593965E+03 0.  0.
         13    1    3    3    0    0  0.15504191601E+03  0.50928663088E+02 -0.31164558455E+02  0.16614136796E+03  0.00000000000E+00 0. -1.
          4    1    3    3  501    0 -0.15504191601E+03 -0.50928663088E+02  0.92537181152E+03  0.93965137897E+03  0.00000000000E+00 0. -1.
<mgrwt>
<rscale>  0 0.65051594E+03</rscale>
<asrwt>0</asrwt>
<pdfrwt beam="1">0</pdfrwt>
<pdfrwt beam="2">  1        2 0.38470171E+00 0.65051594E+03</pdfrwt>
<totfact> 0.45414155E+00</totfact>
</mgrwt>
</event>
<event>
 5    1  0.2344661E-004  0.6504308E+03  0.7818608E-02  0.9805971E-01
         13   -1    0    0    0    0  0.00000000000E+00  0.00000000000E+00  0.10000000000E+04  0.10000000000E+04  0.00000000000E+00 0. -1.
          2   -1    0    0  501    0 -0.00000000000E+00 -0.00000000000E+00 -0.10576506589E+03  0.10576506589E+03  0.00000000000E+00 0. -1.
    9000006    2    1    2  501    0  0.00000000000E+00  0.00000000000E+00  0.89423493411E+03  0.11057650659E+04  0.65043082918E+03 0.  0.
         13    1    3    3    0    0 -0.25508506275E+02 -0.23610491473E+03  0.82485336377E+03  0.85835848361E+03  0.00000000000E+00 0. -1.
          4    1    3    3  501    0  0.25508506275E+02  0.23610491473E+03  0.69381570341E+02  0.24740658228E+03  0.00000000000E+00 0. -1.
<mgrwt>
<rscale>  0 0.65043083E+03</rscale>
<asrwt>0</asrwt>
<pdfrwt beam="1">0</pdfrwt>
<pdfrwt beam="2">  1        2 0.38460105E+00 0.65043083E+03</pdfrwt>
<totfact> 0.45453452E+00</totfact>
</mgrwt>
</event>
<event>
 5    1  0.2344661E-004  0.6533137E+03  0.7818608E-02  0.9800581E-01
         13   -1    0    0    0    0  0.00000000000E+00  0.00000000000E+00  0.10000000000E+04  0.10000000000E+04  0.00000000000E+00 0. -1.
          2   -1    0    0  501    0 -0.00000000000E+00 -0.00000000000E+00 -0.10670468206E+03  0.10670468206E+03  0.00000000000E+00 0. -1.
    9000006    2    1    2  501    0  0.00000000000E+00  0.00000000000E+00  0.89329531794E+03  0.11067046821E+04  0.65331365227E+03 0.  0.
         13    1    3    3    0    0 -0.22549272377E+03 -0.22771022102E+03  0.55386201836E+03  0.63989221640E+03  0.00000000000E+00 0. -1.
          4    1    3    3  501    0  0.22549272377E+03  0.22771022102E+03  0.33943329958E+03  0.46681246566E+03  0.00000000000E+00 0. -1.
<mgrwt>
<rscale>  0 0.65331365E+03</rscale>
<asrwt>0</asrwt>
<pdfrwt beam="1">0</pdfrwt>
<pdfrwt beam="2">  1        2 0.38801784E+00 0.65331365E+03</pdfrwt>
<totfact> 0.44136602E+00</totfact>
</mgrwt>
</event>
<event>
 5    1  0.2344661E-004  0.7122443E+03  0.7818608E-02  0.9696519E-01
         13   -1    0    0    0    0  0.00000000000E+00  0.00000000000E+00  0.10000000000E+04  0.10000000000E+04  0.00000000000E+00 0. -1.
          2   -1    0    0  501    0 -0.00000000000E+00 -0.00000000000E+00 -0.12682299371E+03  0.12682299371E+03  0.00000000000E+00 0. -1.
    9000006    2    1    2  501    0  0.00000000000E+00  0.00000000000E+00  0.87317700629E+03  0.11268229937E+04  0.71224432242E+03 0.  0.
         13    1    3    3    0    0  0.74654398190E+02  0.31184738708E+03  0.68168700952E+03  0.75333873586E+03  0.00000000000E+00 0. -1.
          4    1    3    3  501    0 -0.74654398190E+02 -0.31184738708E+03  0.19148999677E+03  0.37348425785E+03  0.00000000000E+00 0. -1.
<mgrwt>
<rscale>  0 0.71224432E+03</rscale>
<asrwt>0</asrwt>
<pdfrwt beam="1">0</pdfrwt>
<pdfrwt beam="2">  1        2 0.46117550E+00 0.71224432E+03</pdfrwt>
<totfact> 0.22976022E+00</totfact>
</mgrwt>
</event>
<event>
 5    1  0.2344661E-004  0.6524866E+03  0.7818608E-02  0.9802124E-01
         13   -1    0    0    0    0  0.00000000000E+00  0.00000000000E+00  0.10000000000E+04  0.10000000000E+04  0.00000000000E+00 0. -1.
          2   -1    0    0  501    0 -0.00000000000E+00 -0.00000000000E+00 -0.10643468211E+03  0.10643468211E+03  0.00000000000E+00 0. -1.
    9000006    2    1    2  501    0  0.00000000000E+00  0.00000000000E+00  0.89356531789E+03  0.11064346821E+04  0.65248657337E+03 0.  0.
         13    1    3    3    0    0 -0.15124790837E+03 -0.28841051612E+03  0.41380857314E+03  0.52658721101E+03  0.00000000000E+00 0. -1.
          4    1    3    3  501    0  0.15124790837E+03  0.28841051612E+03  0.47975674476E+03  0.57984747110E+03  0.00000000000E+00 0. -1.
<mgrwt>
<rscale>  0 0.65248657E+03</rscale>
<asrwt>0</asrwt>
<pdfrwt beam="1">0</pdfrwt>
<pdfrwt beam="2">  1        2 0.38703602E+00 0.65248657E+03</pdfrwt>
<totfact> 0.44511416E+00</totfact>
</mgrwt>
</event>
<event>
 5    1  0.2344661E-004  0.6484064E+03  0.7818608E-02  0.9809774E-01
         13   -1    0    0    0    0  0.00000000000E+00  0.00000000000E+00  0.10000000000E+04  0.10000000000E+04  0.00000000000E+00 0. -1.
          2   -1    0    0  501    0 -0.00000000000E+00 -0.00000000000E+00 -0.10510773099E+03  0.10510773099E+03  0.00000000000E+00 0. -1.
    9000006    2    1    2  501    0  0.00000000000E+00  0.00000000000E+00  0.89489226901E+03  0.11051077310E+04  0.64840644966E+03 0.  0.
         13    1    3    3    0    0 -0.18144258712E+03 -0.22549450585E+03  0.19848032653E+03  0.35094675466E+03  0.00000000000E+00 0. -1.
          4    1    3    3  501    0  0.18144258712E+03  0.22549450585E+03  0.69641194248E+03  0.75416097633E+03  0.00000000000E+00 0. -1.
<mgrwt>
<rscale>  0 0.64840645E+03</rscale>
<asrwt>0</asrwt>
<pdfrwt beam="1">0</pdfrwt>
<pdfrwt beam="2">  1        2 0.38221074E+00 0.64840645E+03</pdfrwt>
<totfact> 0.46395763E+00</totfact>
</mgrwt>
</event>
<event>
 5    1  0.2344661E-004  0.6538147E+03  0.7818608E-02  0.9799647E-01
         13   -1    0    0    0    0  0.00000000000E+00  0.00000000000E+00  0.10000000000E+04  0.10000000000E+04  0.00000000000E+00 0. -1.
          2   -1    0    0  501    0 -0.00000000000E+00 -0.00000000000E+00 -0.10686843113E+03  0.10686843113E+03  0.00000000000E+00 0. -1.
    9000006    2    1    2  501    0  0.00000000000E+00  0.00000000000E+00  0.89313156887E+03  0.11068684311E+04  0.65381474786E+03 0.  0.
         13    1    3    3    0    0 -0.30121678068E+03  0.91574226966E+02  0.29751942758E+03  0.43316878673E+03  0.00000000000E+00 0. -1.
          4    1    3    3  501    0  0.30121678068E+03 -0.91574226966E+02  0.59561214129E+03  0.67369964440E+03  0.00000000000E+00 0. -1.
<mgrwt>
<rscale>  0 0.65381475E+03</rscale>
<asrwt>0</asrwt>
<pdfrwt beam="1">0</pdfrwt>
<pdfrwt beam="2">  1        2 0.38861330E+00 0.65381475E+03</pdfrwt>
<totfact> 0.43910679E+00</totfact>
</mgrwt>
</event>
<event>
 5    1  0.2344661E-004  0.6508996E+03  0.7818608E-02  0.9805093E-01
         13   -1    0    0    0    0  0.00000000000E+00  0.00000000000E+00  0.10000000000E+04  0.10000000000E+04  0.00000000000E+00 0. -1.
          2   -1    0    0  501    0 -0.00000000000E+00 -0.00000000000E+00 -0.10591756358E+03  0.10591756358E+03  0.00000000000E+00 0. -1.
    9000006    2    1    2  501    0  0.00000000000E+00  0.00000000000E+00  0.89408243642E+03  0.11059175636E+04  0.65089957313E+03 0.  0.
         13    1    3    3    0    0 -0.15063058260E+03  0.77915417657E+02 -0.24909812126E+02  0.17140852798E+03  0.00000000000E+00 0. -1.
          4    1    3    3  501    0  0.15063058260E+03 -0.77915417657E+02  0.91899224855E+03  0.93450903560E+03  0.00000000000E+00 0. -1.
<mgrwt>
<rscale>  0 0.65089957E+03</rscale>
<asrwt>0</asrwt>
<pdfrwt beam="1">0</pdfrwt>
<pdfrwt beam="2">  1        2 0.38515559E+00 0.65089957E+03</pdfrwt>
<totfact> 0.45237339E+00</totfact>
</mgrwt>
</event>
<event>
 5    1  0.2344661E-004  0.6513251E+03  0.7818608E-02  0.9804296E-01
         13   -1    0    0    0    0  0.00000000000E+00  0.00000000000E+00  0.10000000000E+04  0.10000000000E+04  0.00000000000E+00 0. -1.
          2   -1    0    0  501    0 -0.00000000000E+00 -0.00000000000E+00 -0.10605609605E+03  0.10605609605E+03  0.00000000000E+00 0. -1.
    9000006    2    1    2  501    0  0.00000000000E+00  0.00000000000E+00  0.89394390395E+03  0.11060560960E+04  0.65132509870E+03 0.  0.
         13    1    3    3    0    0  0.28901361769E+03 -0.60174823995E+02  0.21347477164E+03  0.36430942725E+03  0.00000000000E+00 0. -1.
          4    1    3    3  501    0 -0.28901361769E+03  0.60174823995E+02  0.68046913231E+03  0.74174666880E+03  0.00000000000E+00 0. -1.
<mgrwt>
<rscale>  0 0.65132510E+03</rscale>
<asrwt>0</asrwt>
<pdfrwt beam="1">0</pdfrwt>
<pdfrwt beam="2">  1        2 0.38565934E+00 0.65132510E+03</pdfrwt>
<totfact> 0.45041825E+00</totfact>
</mgrwt>
</event>
<event>
 5    1  0.2344661E-004  0.6201008E+03  0.7818608E-02  0.9864559E-01
         13   -1    0    0    0    0  0.00000000000E+00  0.00000000000E+00  0.10000000000E+04  0.10000000000E+04  0.00000000000E+00 0. -1.
          2   -1    0    0  501    0 -0.00000000000E+00 -0.00000000000E+00 -0.96131261189E+02  0.96131261189E+02  0.00000000000E+00 0. -1.
    9000006    2    1    2  501    0  0.00000000000E+00  0.00000000000E+00  0.90386873881E+03  0.10961312612E+04  0.62010083434E+03 0.  0.
         13    1    3    3    0    0 -0.11810276983E+03 -0.17975809773E+03  0.84668245587E+03  0.87357450685E+03  0.00000000000E+00 0. -1.
          2    1    3    3  501    0  0.11810276983E+03  0.17975809773E+03  0.57186282938E+02  0.22255675433E+03  0.00000000000E+00 0. -1.
<mgrwt>
<rscale>  0 0.62010083E+03</rscale>
<asrwt>0</asrwt>
<pdfrwt beam="1">0</pdfrwt>
<pdfrwt beam="2">  1        2 0.34956896E+00 0.62010083E+03</pdfrwt>
<totfact> 0.61186933E+00</totfact>
</mgrwt>
</event>
<event>
 5    1  0.2344661E-004  0.6715568E+03  0.7818608E-02  0.9767149E-01
         13   -1    0    0    0    0  0.00000000000E+00  0.00000000000E+00  0.10000000000E+04  0.10000000000E+04  0.00000000000E+00 0. -1.
          2   -1    0    0  501    0 -0.00000000000E+00 -0.00000000000E+00 -0.11274714521E+03  0.11274714521E+03  0.00000000000E+00 0. -1.
    9000006    2    1    2  501    0  0.00000000000E+00  0.00000000000E+00  0.88725285479E+03  0.11127471452E+04  0.67155683366E+03 0.  0.
         13    1    3    3    0    0  0.81432776204E+02  0.24167313271E+03  0.81701767992E+02  0.26779167091E+03  0.00000000000E+00 0. -1.
          4    1    3    3  501    0 -0.81432776204E+02 -0.24167313271E+03  0.80555108680E+03  0.84495547430E+03  0.00000000000E+00 0. -1.
<mgrwt>
<rscale>  0 0.67155683E+03</rscale>
<asrwt>0</asrwt>
<pdfrwt beam="1">0</pdfrwt>
<pdfrwt beam="2">  1        2 0.40999048E+00 0.67155683E+03</pdfrwt>
<totfact> 0.36458523E+00</totfact>
</mgrwt>
</event>
<event>
 5    1  0.2344661E-004  0.6451369E+03  0.7818608E-02  0.9815947E-01
         13   -1    0    0    0    0  0.00000000000E+00  0.00000000000E+00  0.10000000000E+04  0.10000000000E+04  0.00000000000E+00 0. -1.
          2   -1    0    0  501    0 -0.00000000000E+00 -0.00000000000E+00 -0.10405041398E+03  0.10405041398E+03  0.00000000000E+00 0. -1.
    9000006    2    1    2  501    0  0.00000000000E+00  0.00000000000E+00  0.89594958602E+03  0.11040504140E+04  0.64513692803E+03 0.  0.
         13    1    3    3    0    0  0.11323153855E+03  0.29259634312E+03  0.57622749025E+03  0.65610374321E+03  0.00000000000E+00 0. -1.
          4    1    3    3  501    0 -0.11323153855E+03 -0.29259634312E+03  0.31972209577E+03  0.44794667077E+03  0.00000000000E+00 0. -1.
<mgrwt>
<rscale>  0 0.64513693E+03</rscale>
<asrwt>0</asrwt>
<pdfrwt beam="1">0</pdfrwt>
<pdfrwt beam="2">  1        2 0.37836594E+00 0.64513693E+03</pdfrwt>
<totfact> 0.47948766E+00</totfact>
</mgrwt>
</event>
<event>
 5    1  0.2344661E-004  0.6455718E+03  0.7818608E-02  0.9815124E-01
         13   -1    0    0    0    0  0.00000000000E+00  0.00000000000E+00  0.10000000000E+04  0.10000000000E+04  0.00000000000E+00 0. -1.
          2   -1    0    0  501    0 -0.00000000000E+00 -0.00000000000E+00 -0.10419073595E+03  0.10419073595E+03  0.00000000000E+00 0. -1.
    9000006    2    1    2  501    0  0.00000000000E+00  0.00000000000E+00  0.89580926405E+03  0.11041907359E+04  0.64557179601E+03 0.  0.
         13    1    3    3    0    0 -0.10252896328E+03  0.26613739734E+03  0.18935896247E+03  0.34234210848E+03  0.00000000000E+00 0. -1.
          2    1    3    3  501    0  0.10252896328E+03 -0.26613739734E+03  0.70645030158E+03  0.76184862747E+03  0.00000000000E+00 0. -1.
<mgrwt>
<rscale>  0 0.64557180E+03</rscale>
<asrwt>0</asrwt>
<pdfrwt beam="1">0</pdfrwt>
<pdfrwt beam="2">  1        2 0.37887620E+00 0.64557180E+03</pdfrwt>
<totfact> 0.47739972E+00</totfact>
</mgrwt>
</event>
<event>
 5    1  0.2344661E-004  0.6438762E+03  0.7818608E-02  0.9818338E-01
         13   -1    0    0    0    0  0.00000000000E+00  0.00000000000E+00  0.10000000000E+04  0.10000000000E+04  0.00000000000E+00 0. -1.
          2   -1    0    0  501    0 -0.00000000000E+00 -0.00000000000E+00 -0.10364413176E+03  0.10364413176E+03  0.00000000000E+00 0. -1.
    9000006    2    1    2  501    0  0.00000000000E+00  0.00000000000E+00  0.89635586824E+03  0.11036441318E+04  0.64387617367E+03 0.  0.
         13    1    3    3    0    0 -0.10675733535E+03 -0.17942645661E+03  0.28134114167E+02  0.21067156990E+03  0.00000000000E+00 0. -1.
          2    1    3    3  501    0  0.10675733535E+03  0.17942645661E+03  0.86822175408E+03  0.89297256186E+03  0.00000000000E+00 0. -1.
<mgrwt>
<rscale>  0 0.64387617E+03</rscale>
<asrwt>0</asrwt>
<pdfrwt beam="1">0</pdfrwt>
<pdfrwt beam="2">  1        2 0.37688855E+00 0.64387617E+03</pdfrwt>
<totfact> 0.48558002E+00</totfact>
</mgrwt>
</event>
<event>
 5    1  0.2344661E-004  0.6514026E+03  0.7818608E-02  0.9804151E-01
         13   -1    0    0    0    0  0.00000000000E+00  0.00000000000E+00  0.10000000000E+04  0.10000000000E+04  0.00000000000E+00 0. -1.
          2   -1    0    0  501    0 -0.00000000000E+00 -0.00000000000E+00 -0.10608134436E+03  0.10608134436E+03  0.00000000000E+00 0. -1.
    9000006    2    1    2  501    0  0.00000000000E+00  0.00000000000E+00  0.89391865564E+03  0.11060813444E+04  0.65140262315E+03 0.  0.
         13    1    3    3    0    0 -0.24139167121E+03  0.10980531275E+03  0.12588832160E+03  0.29355581267E+03  0.00000000000E+00 0. -1.
          4    1    3    3  501    0  0.24139167121E+03 -0.10980531275E+03  0.76803033404E+03  0.81252553169E+03  0.00000000000E+00 0. -1.
<mgrwt>
<rscale>  0 0.65140262E+03</rscale>
<asrwt>0</asrwt>
<pdfrwt beam="1">0</pdfrwt>
<pdfrwt beam="2">  1        2 0.38575116E+00 0.65140262E+03</pdfrwt>
<totfact> 0.45006274E+00</totfact>
</mgrwt>
</event>
<event>
 5    1  0.2344661E-004  0.6435264E+03  0.7818608E-02  0.9819003E-01
         13   -1    0    0    0    0  0.00000000000E+00  0.00000000000E+00  0.10000000000E+04  0.10000000000E+04  0.00000000000E+00 0. -1.
          4   -1    0    0  501    0 -0.00000000000E+00 -0.00000000000E+00 -0.10353156105E+03  0.10353156105E+03  0.00000000000E+00 0. -1.
    9000006    2    1    2  501    0  0.00000000000E+00  0.00000000000E+00  0.89646843895E+03  0.11035315611E+04  0.64352641298E+03 0.  0.
         13    1    3    3    0    0 -0.72540162962E+02  0.29818651002E+03  0.61408740632E+03  0.68649880743E+03  0.00000000000E+00 0. -1.
          4    1    3    3  501    0  0.72540162962E+02 -0.29818651002E+03  0.28238103263E+03  0.41703275362E+03  0.00000000000E+00 0. -1.
<mgrwt>
<rscale>  0 0.64352641E+03</rscale>
<asrwt>0</asrwt>
<pdfrwt beam="1">0</pdfrwt>
<pdfrwt beam="2">  1        4 0.37647920E+00 0.64352641E+03</pdfrwt>
<totfact> 0.46325040E-02</totfact>
</mgrwt>
</event>
<event>
 5    1  0.2344661E-004  0.6516521E+03  0.7818608E-02  0.9803684E-01
         13   -1    0    0    0    0  0.00000000000E+00  0.00000000000E+00  0.10000000000E+04  0.10000000000E+04  0.00000000000E+00 0. -1.
          2   -1    0    0  501    0 -0.00000000000E+00 -0.00000000000E+00 -0.10616261355E+03  0.10616261355E+03  0.00000000000E+00 0. -1.
    9000006    2    1    2  501    0  0.00000000000E+00  0.00000000000E+00  0.89383738645E+03  0.11061626135E+04  0.65165209598E+03 0.  0.
         13    1    3    3    0    0 -0.42013666747E+02 -0.26771143141E+03  0.13983038869E+03  0.30493785646E+03  0.00000000000E+00 0. -1.
          4    1    3    3  501    0  0.42013666747E+02  0.26771143141E+03  0.75400699776E+03  0.80122475709E+03  0.00000000000E+00 0. -1.
<mgrwt>
<rscale>  0 0.65165210E+03</rscale>
<asrwt>0</asrwt>
<pdfrwt beam="1">0</pdfrwt>
<pdfrwt beam="2">  1        2 0.38604668E+00 0.65165210E+03</pdfrwt>
<totfact> 0.44892015E+00</totfact>
</mgrwt>
</event>
<event>
 5    1  0.2344661E-004  0.6521929E+03  0.7818608E-02  0.9802673E-01
         13   -1    0    0    0    0  0.00000000000E+00  0.00000000000E+00  0.10000000000E+04  0.10000000000E+04  0.00000000000E+00 0. -1.
          2   -1    0    0  501    0 -0.00000000000E+00 -0.00000000000E+00 -0.10633889885E+03  0.10633889885E+03  0.00000000000E+00 0. -1.
    9000006    2    1    2  501    0  0.00000000000E+00  0.00000000000E+00  0.89366110115E+03  0.11063388989E+04  0.65219291272E+03 0.  0.
         13    1    3    3    0    0  0.24327292389E+03 -0.10485810302E+03  0.76941104083E+03  0.81373846352E+03  0.00000000000E+00 0. -1.
          2    1    3    3  501    0 -0.24327292389E+03  0.10485810302E+03  0.12425006032E+03  0.29260043533E+03  0.00000000000E+00 0. -1.
<mgrwt>
<rscale>  0 0.65219291E+03</rscale>
<asrwt>0</asrwt>
<pdfrwt beam="1">0</pdfrwt>
<pdfrwt beam="2">  1        2 0.38668772E+00 0.65219291E+03</pdfrwt>
<totfact> 0.44645073E+00</totfact>
</mgrwt>
</event>
<event>
 5    1  0.2344661E-004  0.6471628E+03  0.7818608E-02  0.9812118E-01
         13   -1    0    0    0    0  0.00000000000E+00  0.00000000000E+00  0.10000000000E+04  0.10000000000E+04  0.00000000000E+00 0. -1.
          2   -1    0    0  501    0 -0.00000000000E+00 -0.00000000000E+00 -0.10470493442E+03  0.10470493442E+03  0.00000000000E+00 0. -1.
    9000006    2    1    2  501    0  0.00000000000E+00  0.00000000000E+00  0.89529506558E+03  0.11047049344E+04  0.64716283708E+03 0.  0.
         13    1    3    3    0    0  0.16656536241E+03  0.24347101614E+03  0.22065687655E+03  0.36839057103E+03  0.00000000000E+00 0. -1.
          4    1    3    3  501    0 -0.16656536241E+03 -0.24347101614E+03  0.67463818902E+03  0.73631436339E+03  0.00000000000E+00 0. -1.
<mgrwt>
<rscale>  0 0.64716284E+03</rscale>
<asrwt>0</asrwt>
<pdfrwt beam="1">0</pdfrwt>
<pdfrwt beam="2">  1        2 0.38074602E+00 0.64716284E+03</pdfrwt>
<totfact> 0.46981918E+00</totfact>
</mgrwt>
</event>
<event>
 5    1  0.2344661E-004  0.6494768E+03  0.7818608E-02  0.9807761E-01
         13   -1    0    0    0    0  0.00000000000E+00  0.00000000000E+00  0.10000000000E+04  0.10000000000E+04  0.00000000000E+00 0. -1.
          2   -1    0    0  501    0 -0.00000000000E+00 -0.00000000000E+00 -0.10545501939E+03  0.10545501939E+03  0.00000000000E+00 0. -1.
    9000006    2    1    2  501    0  0.00000000000E+00  0.00000000000E+00  0.89454498061E+03  0.11054550194E+04  0.64947677215E+03 0.  0.
         13    1    3    3    0    0 -0.22323327703E+03 -0.22244514569E+03  0.58064443621E+03  0.66065338879E+03  0.00000000000E+00 0. -1.
          2    1    3    3  501    0  0.22323327703E+03  0.22244514569E+03  0.31390054440E+03  0.44480163060E+03  0.00000000000E+00 0. -1.
<mgrwt>
<rscale>  0 0.64947677E+03</rscale>
<asrwt>0</asrwt>
<pdfrwt beam="1">0</pdfrwt>
<pdfrwt beam="2">  1        2 0.38347361E+00 0.64947677E+03</pdfrwt>
<totfact> 0.45895727E+00</totfact>
</mgrwt>
</event>
<event>
 5    1  0.2344661E-004  0.6158561E+03  0.7818608E-02  0.9873045E-01
         13   -1    0    0    0    0  0.00000000000E+00  0.00000000000E+00  0.10000000000E+04  0.10000000000E+04  0.00000000000E+00 0. -1.
          2   -1    0    0  501    0 -0.00000000000E+00 -0.00000000000E+00 -0.94819696061E+02  0.94819696061E+02  0.00000000000E+00 0. -1.
    9000006    2    1    2  501    0  0.00000000000E+00  0.00000000000E+00  0.90518030394E+03  0.10948196961E+04  0.61585613924E+03 0.  0.
         13    1    3    3    0    0 -0.25738483088E+03  0.20846416255E+02  0.15438766204E+03  0.30086055646E+03  0.00000000000E+00 0. -1.
          4    1    3    3  501    0  0.25738483088E+03 -0.20846416255E+02  0.75079264190E+03  0.79395913961E+03  0.00000000000E+00 0. -1.
<mgrwt>
<rscale>  0 0.61585614E+03</rscale>
<asrwt>0</asrwt>
<pdfrwt beam="1">0</pdfrwt>
<pdfrwt beam="2">  1        2 0.34479962E+00 0.61585614E+03</pdfrwt>
<totfact> 0.63681347E+00</totfact>
</mgrwt>
</event>
<event>
 5    1  0.2344661E-004  0.6407237E+03  0.7818608E-02  0.9824343E-01
         13   -1    0    0    0    0  0.00000000000E+00  0.00000000000E+00  0.10000000000E+04  0.10000000000E+04  0.00000000000E+00 0. -1.
          2   -1    0    0  501    0 -0.00000000000E+00 -0.00000000000E+00 -0.10263172364E+03  0.10263172364E+03  0.00000000000E+00 0. -1.
    9000006    2    1    2  501    0  0.00000000000E+00  0.00000000000E+00  0.89736827636E+03  0.11026317236E+04  0.64072372718E+03 0.  0.
         13    1    3    3    0    0 -0.57039345569E+02  0.48963080896E+02  0.98460748515E+03  0.98747292118E+03  0.00000000000E+00 0. -1.
          2    1    3    3  501    0  0.57039345569E+02 -0.48963080896E+02 -0.87239208798E+02  0.11515880247E+03  0.00000000000E+00 0. -1.
<mgrwt>
<rscale>  0 0.64072373E+03</rscale>
<asrwt>0</asrwt>
<pdfrwt beam="1">0</pdfrwt>
<pdfrwt beam="2">  1        2 0.37320705E+00 0.64072373E+03</pdfrwt>
<totfact> 0.50107100E+00</totfact>
</mgrwt>
</event>
<event>
 5    1  0.2344661E-004  0.6251246E+03  0.7818608E-02  0.9854609E-01
         13   -1    0    0    0    0  0.00000000000E+00  0.00000000000E+00  0.10000000000E+04  0.10000000000E+04  0.00000000000E+00 0. -1.
          2   -1    0    0  501    0 -0.00000000000E+00 -0.00000000000E+00 -0.97695197466E+02  0.97695197466E+02  0.00000000000E+00 0. -1.
    9000006    2    1    2  501    0  0.00000000000E+00  0.00000000000E+00  0.90230480253E+03  0.10976951975E+04  0.62512461947E+03 0.  0.
         13    1    3    3    0    0  0.30927714199E+03  0.42968538476E+02  0.42653436181E+03  0.52861158487E+03  0.00000000000E+00 0. -1.
          2    1    3    3  501    0 -0.30927714199E+03 -0.42968538476E+02  0.47577044072E+03  0.56908361259E+03  0.00000000000E+00 0. -1.
<mgrwt>
<rscale>  0 0.62512462E+03</rscale>
<asrwt>0</asrwt>
<pdfrwt beam="1">0</pdfrwt>
<pdfrwt beam="2">  1        2 0.35525601E+00 0.62512462E+03</pdfrwt>
<totfact> 0.58331558E+00</totfact>
</mgrwt>
</event>
<event>
 5    1  0.2344661E-004  0.6105289E+03  0.7818608E-02  0.9883800E-01
         13   -1    0    0    0    0  0.00000000000E+00  0.00000000000E+00  0.10000000000E+04  0.10000000000E+04  0.00000000000E+00 0. -1.
          2   -1    0    0  501    0 -0.00000000000E+00 -0.00000000000E+00 -0.93186384061E+02  0.93186384061E+02  0.00000000000E+00 0. -1.
    9000006    2    1    2  501    0  0.00000000000E+00  0.00000000000E+00  0.90681361594E+03  0.10931863841E+04  0.61052889878E+03 0.  0.
         13    1    3    3    0    0 -0.21848932039E+03 -0.21316462182E+03  0.44784600264E+03  0.54198042511E+03  0.00000000000E+00 0. -1.
          4    1    3    3  501    0  0.21848932039E+03  0.21316462182E+03  0.45896761330E+03  0.55120595895E+03  0.00000000000E+00 0. -1.
<mgrwt>
<rscale>  0 0.61052890E+03</rscale>
<asrwt>0</asrwt>
<pdfrwt beam="1">0</pdfrwt>
<pdfrwt beam="2">  1        2 0.33886029E+00 0.61052890E+03</pdfrwt>
<totfact> 0.66920769E+00</totfact>
</mgrwt>
</event>
<event>
 5    1  0.2344661E-004  0.6458593E+03  0.7818608E-02  0.9814580E-01
         13   -1    0    0    0    0  0.00000000000E+00  0.00000000000E+00  0.10000000000E+04  0.10000000000E+04  0.00000000000E+00 0. -1.
          2   -1    0    0  501    0 -0.00000000000E+00 -0.00000000000E+00 -0.10428357199E+03  0.10428357199E+03  0.00000000000E+00 0. -1.
    9000006    2    1    2  501    0  0.00000000000E+00  0.00000000000E+00  0.89571642801E+03  0.11042835720E+04  0.64585934070E+03 0.  0.
         13    1    3    3    0    0 -0.17276567689E+03 -0.27042517938E+03  0.50964328248E+03  0.60225744672E+03  0.00000000000E+00 0. -1.
          4    1    3    3  501    0  0.17276567689E+03  0.27042517938E+03  0.38607314553E+03  0.50202612527E+03  0.00000000000E+00 0. -1.
<mgrwt>
<rscale>  0 0.64585934E+03</rscale>
<asrwt>0</asrwt>
<pdfrwt beam="1">0</pdfrwt>
<pdfrwt beam="2">  1        2 0.37921379E+00 0.64585934E+03</pdfrwt>
<totfact> 0.47602291E+00</totfact>
</mgrwt>
</event>
<event>
 5    1  0.2344661E-004  0.6535574E+03  0.7818608E-02  0.9800127E-01
         13   -1    0    0    0    0  0.00000000000E+00  0.00000000000E+00  0.10000000000E+04  0.10000000000E+04  0.00000000000E+00 0. -1.
          2   -1    0    0  501    0 -0.00000000000E+00 -0.00000000000E+00 -0.10678433037E+03  0.10678433037E+03  0.00000000000E+00 0. -1.
    9000006    2    1    2  501    0  0.00000000000E+00  0.00000000000E+00  0.89321566963E+03  0.11067843304E+04  0.65355743549E+03 0.  0.
         13    1    3    3    0    0  0.10634760145E+03 -0.23951998917E+03  0.77718166853E+03  0.82017740974E+03  0.00000000000E+00 0. -1.
          4    1    3    3  501    0 -0.10634760145E+03  0.23951998917E+03  0.11603400110E+03  0.28660692063E+03  0.00000000000E+00 0. -1.
<mgrwt>
<rscale>  0 0.65355744E+03</rscale>
<asrwt>0</asrwt>
<pdfrwt beam="1">0</pdfrwt>
<pdfrwt beam="2">  1        2 0.38830747E+00 0.65355744E+03</pdfrwt>
<totfact> 0.44026581E+00</totfact>
</mgrwt>
</event>
<event>
 5    1  0.2344661E-004  0.6437975E+03  0.7818608E-02  0.9818488E-01
         13   -1    0    0    0    0  0.00000000000E+00  0.00000000000E+00  0.10000000000E+04  0.10000000000E+04  0.00000000000E+00 0. -1.
          2   -1    0    0  501    0 -0.00000000000E+00 -0.00000000000E+00 -0.10361881828E+03  0.10361881828E+03  0.00000000000E+00 0. -1.
    9000006    2    1    2  501    0  0.00000000000E+00  0.00000000000E+00  0.89638118172E+03  0.11036188183E+04  0.64379754048E+03 0.  0.
         13    1    3    3    0    0 -0.61526300624E+02 -0.20791995137E+03  0.40352227100E+02  0.22055496839E+03  0.00000000000E+00 0. -1.
          4    1    3    3  501    0  0.61526300624E+02  0.20791995137E+03  0.85602895462E+03  0.88306384990E+03  0.00000000000E+00 0. -1.
<mgrwt>
<rscale>  0 0.64379754E+03</rscale>
<asrwt>0</asrwt>
<pdfrwt beam="1">0</pdfrwt>
<pdfrwt beam="2">  1        2 0.37679650E+00 0.64379754E+03</pdfrwt>
<totfact> 0.48596193E+00</totfact>
</mgrwt>
</event>
<event>
 5    1  0.2344661E-004  0.6580152E+03  0.7818608E-02  0.9791854E-01
         13   -1    0    0    0    0  0.00000000000E+00  0.00000000000E+00  0.10000000000E+04  0.10000000000E+04  0.00000000000E+00 0. -1.
          2   -1    0    0  501    0 -0.00000000000E+00 -0.00000000000E+00 -0.10824600565E+03  0.10824600565E+03  0.00000000000E+00 0. -1.
    9000006    2    1    2  501    0  0.00000000000E+00  0.00000000000E+00  0.89175399435E+03  0.11082460057E+04  0.65801521458E+03 0.  0.
         13    1    3    3    0    0  0.19899340723E+03  0.12539154928E+02  0.88665010299E+03  0.90879261202E+03  0.00000000000E+00 0. -1.
          2    1    3    3  501    0 -0.19899340723E+03 -0.12539154928E+02  0.51038913588E+01  0.19945339364E+03  0.00000000000E+00 0. -1.
<mgrwt>
<rscale>  0 0.65801521E+03</rscale>
<asrwt>0</asrwt>
<pdfrwt beam="1">0</pdfrwt>
<pdfrwt beam="2">  1        2 0.39362267E+00 0.65801521E+03</pdfrwt>
<totfact> 0.42051031E+00</totfact>
</mgrwt>
</event>
<event>
 5    1  0.2344661E-004  0.6527698E+03  0.7818608E-02  0.9801596E-01
         13   -1    0    0    0    0  0.00000000000E+00  0.00000000000E+00  0.10000000000E+04  0.10000000000E+04  0.00000000000E+00 0. -1.
          2   -1    0    0  501    0 -0.00000000000E+00 -0.00000000000E+00 -0.10652711067E+03  0.10652711067E+03  0.00000000000E+00 0. -1.
    9000006    2    1    2  501    0  0.00000000000E+00  0.00000000000E+00  0.89347288933E+03  0.11065271107E+04  0.65276982366E+03 0.  0.
         13    1    3    3    0    0 -0.17378217570E+03 -0.16402895680E+03  0.69894385642E+02  0.24897985541E+03  0.00000000000E+00 0. -1.
          4    1    3    3  501    0  0.17378217570E+03  0.16402895680E+03  0.82357850369E+03  0.85754725526E+03  0.00000000000E+00 0. -1.
<mgrwt>
<rscale>  0 0.65276982E+03</rscale>
<asrwt>0</asrwt>
<pdfrwt beam="1">0</pdfrwt>
<pdfrwt beam="2">  1        2 0.38737213E+00 0.65276982E+03</pdfrwt>
<totfact> 0.44382783E+00</totfact>
</mgrwt>
</event>
<event>
 5    1  0.2344661E-004  0.6460335E+03  0.7818608E-02  0.9814251E-01
         13   -1    0    0    0    0  0.00000000000E+00  0.00000000000E+00  0.10000000000E+04  0.10000000000E+04  0.00000000000E+00 0. -1.
          2   -1    0    0  501    0 -0.00000000000E+00 -0.00000000000E+00 -0.10433983661E+03  0.10433983661E+03  0.00000000000E+00 0. -1.
    9000006    2    1    2  501    0  0.00000000000E+00  0.00000000000E+00  0.89566016339E+03  0.11043398366E+04  0.64603354901E+03 0.  0.
         13    1    3    3    0    0 -0.18492315769E+03  0.25770366428E+03  0.55225962027E+03  0.63686610917E+03  0.00000000000E+00 0. -1.
          4    1    3    3  501    0  0.18492315769E+03 -0.25770366428E+03  0.34340054312E+03  0.46747372744E+03  0.00000000000E+00 0. -1.
<mgrwt>
<rscale>  0 0.64603355E+03</rscale>
<asrwt>0</asrwt>
<pdfrwt beam="1">0</pdfrwt>
<pdfrwt beam="2">  1        2 0.37941839E+00 0.64603355E+03</pdfrwt>
<totfact> 0.47519023E+00</totfact>
</mgrwt>
</event>
<event>
 5    1  0.2344661E-004  0.6427826E+03  0.7818608E-02  0.9820417E-01
         13   -1    0    0    0    0  0.00000000000E+00  0.00000000000E+00  0.10000000000E+04  0.10000000000E+04  0.00000000000E+00 0. -1.
          2   -1    0    0  501    0 -0.00000000000E+00 -0.00000000000E+00 -0.10329235264E+03  0.10329235264E+03  0.00000000000E+00 0. -1.
    9000006    2    1    2  501    0  0.00000000000E+00  0.00000000000E+00  0.89670764736E+03  0.11032923526E+04  0.64278255309E+03 0.  0.
         13    1    3    3    0    0 -0.29957794902E+03 -0.11489302847E+03  0.41647265317E+03  0.52573455884E+03  0.00000000000E+00 0. -1.
          4    1    3    3  501    0  0.29957794902E+03  0.11489302847E+03  0.48023499419E+03  0.57755779380E+03  0.00000000000E+00 0. -1.
<mgrwt>
<rscale>  0 0.64278255E+03</rscale>
<asrwt>0</asrwt>
<pdfrwt beam="1">0</pdfrwt>
<pdfrwt beam="2">  1        2 0.37560935E+00 0.64278255E+03</pdfrwt>
<totfact> 0.49091204E+00</totfact>
</mgrwt>
</event>
<event>
 5    1  0.2344661E-004  0.6501513E+03  0.7818608E-02  0.9806495E-01
         13   -1    0    0    0    0  0.00000000000E+00  0.00000000000E+00  0.10000000000E+04  0.10000000000E+04  0.00000000000E+00 0. -1.
          2   -1    0    0  501    0 -0.00000000000E+00 -0.00000000000E+00 -0.10567419423E+03  0.10567419423E+03  0.00000000000E+00 0. -1.
    9000006    2    1    2  501    0  0.00000000000E+00  0.00000000000E+00  0.89432580577E+03  0.11056741942E+04  0.65015134925E+03 0.  0.
         13    1    3    3    0    0  0.27451243155E+03 -0.14577942753E+03  0.60908572020E+03  0.68380854858E+03  0.00000000000E+00 0. -1.
          4    1    3    3  501    0 -0.27451243155E+03  0.14577942753E+03  0.28524008557E+03  0.42186564565E+03  0.00000000000E+00 0. -1.
<mgrwt>
<rscale>  0 0.65015135E+03</rscale>
<asrwt>0</asrwt>
<pdfrwt beam="1">0</pdfrwt>
<pdfrwt beam="2">  1        2 0.38427061E+00 0.65015135E+03</pdfrwt>
<totfact> 0.45582677E+00</totfact>
</mgrwt>
</event>
<event>
 5    1  0.2344661E-004  0.6523483E+03  0.7818608E-02  0.9802383E-01
         13   -1    0    0    0    0  0.00000000000E+00  0.00000000000E+00  0.10000000000E+04  0.10000000000E+04  0.00000000000E+00 0. -1.
          2   -1    0    0  501    0 -0.00000000000E+00 -0.00000000000E+00 -0.10638957520E+03  0.10638957520E+03  0.00000000000E+00 0. -1.
    9000006    2    1    2  501    0  0.00000000000E+00  0.00000000000E+00  0.89361042480E+03  0.11063895752E+04  0.65234829716E+03 0.  0.
         13    1    3    3    0    0 -0.49325329499E+02  0.23630303241E+03  0.74773546645E+02  0.25271168262E+03  0.00000000000E+00 0. -1.
          4    1    3    3  501    0  0.49325329499E+02 -0.23630303241E+03  0.81883687815E+03  0.85367789258E+03  0.00000000000E+00 0. -1.
<mgrwt>
<rscale>  0 0.65234830E+03</rscale>
<asrwt>0</asrwt>
<pdfrwt beam="1">0</pdfrwt>
<pdfrwt beam="2">  1        2 0.38687200E+00 0.65234830E+03</pdfrwt>
<totfact> 0.44574314E+00</totfact>
</mgrwt>
</event>
<event>
 5    1  0.2344661E-004  0.6456533E+03  0.7818608E-02  0.9814970E-01
         13   -1    0    0    0    0  0.00000000000E+00  0.00000000000E+00  0.10000000000E+04  0.10000000000E+04  0.00000000000E+00 0. -1.
          2   -1    0    0  501    0 -0.00000000000E+00 -0.00000000000E+00 -0.10421703868E+03  0.10421703868E+03  0.00000000000E+00 0. -1.
    9000006    2    1    2  501    0  0.00000000000E+00  0.00000000000E+00  0.89578296132E+03  0.11042170387E+04  0.64565327748E+03 0.  0.
         13    1    3    3    0    0  0.13906944819E+03 -0.28542226034E+03  0.34800951806E+03  0.47108046316E+03  0.00000000000E+00 0. -1.
          4    1    3    3  501    0 -0.13906944819E+03  0.28542226034E+03  0.54777344326E+03  0.63313657552E+03  0.00000000000E+00 0. -1.
<mgrwt>
<rscale>  0 0.64565328E+03</rscale>
<asrwt>0</asrwt>
<pdfrwt beam="1">0</pdfrwt>
<pdfrwt beam="2">  1        2 0.37897185E+00 0.64565328E+03</pdfrwt>
<totfact> 0.47700927E+00</totfact>
</mgrwt>
</event>
<event>
 5    1  0.2344661E-004  0.6469380E+03  0.7818608E-02  0.9812542E-01
         13   -1    0    0    0    0  0.00000000000E+00  0.00000000000E+00  0.10000000000E+04  0.10000000000E+04  0.00000000000E+00 0. -1.
          2   -1    0    0  501    0 -0.00000000000E+00 -0.00000000000E+00 -0.10463220634E+03  0.10463220634E+03  0.00000000000E+00 0. -1.
    9000006    2    1    2  501    0  0.00000000000E+00  0.00000000000E+00  0.89536779366E+03  0.11046322063E+04  0.64693803827E+03 0.  0.
         13    1    3    3    0    0  0.26191289060E+03  0.82299126309E+02  0.15560690031E+03  0.31557093636E+03  0.00000000000E+00 0. -1.
          2    1    3    3  501    0 -0.26191289060E+03 -0.82299126309E+02  0.73976089335E+03  0.78906126998E+03  0.00000000000E+00 0. -1.
<mgrwt>
<rscale>  0 0.64693804E+03</rscale>
<asrwt>0</asrwt>
<pdfrwt beam="1">0</pdfrwt>
<pdfrwt beam="2">  1        2 0.38048155E+00 0.64693804E+03</pdfrwt>
<totfact> 0.47088467E+00</totfact>
</mgrwt>
</event>
<event>
 5    1  0.2344661E-004  0.6514557E+03  0.7818608E-02  0.9804052E-01
         13   -1    0    0    0    0  0.00000000000E+00  0.00000000000E+00  0.10000000000E+04  0.10000000000E+04  0.00000000000E+00 0. -1.
          2   -1    0    0  501    0 -0.00000000000E+00 -0.00000000000E+00 -0.10609862897E+03  0.10609862897E+03  0.00000000000E+00 0. -1.
    9000006    2    1    2  501    0  0.00000000000E+00  0.00000000000E+00  0.89390137103E+03  0.11060986290E+04  0.65145568988E+03 0.  0.
         13    1    3    3    0    0 -0.10514922239E+03  0.30198246731E+03  0.34161512815E+03  0.46792164442E+03  0.00000000000E+00 0. -1.
          2    1    3    3  501    0  0.10514922239E+03 -0.30198246731E+03  0.55228624288E+03  0.63817698455E+03  0.00000000000E+00 0. -1.
<mgrwt>
<rscale>  0 0.65145569E+03</rscale>
<asrwt>0</asrwt>
<pdfrwt beam="1">0</pdfrwt>
<pdfrwt beam="2">  1        2 0.38581401E+00 0.65145569E+03</pdfrwt>
<totfact> 0.44981951E+00</totfact>
</mgrwt>
</event>
<event>
 5    1  0.2344661E-004  0.6535034E+03  0.7818608E-02  0.9800227E-01
         13   -1    0    0    0    0  0.00000000000E+00  0.00000000000E+00  0.10000000000E+04  0.10000000000E+04  0.00000000000E+00 0. -1.
          2   -1    0    0  501    0 -0.00000000000E+00 -0.00000000000E+00 -0.10676668516E+03  0.10676668516E+03  0.00000000000E+00 0. -1.
    9000006    2    1    2  501    0  0.00000000000E+00  0.00000000000E+00  0.89323331484E+03  0.11067666852E+04  0.65350343583E+03 0.  0.
         13    1    3    3    0    0 -0.12460391206E+02 -0.31814238419E+03  0.57103323868E+03  0.65379568494E+03  0.00000000000E+00 0. -1.
          2    1    3    3  501    0  0.12460391206E+02  0.31814238419E+03  0.32220007616E+03  0.45297100022E+03  0.00000000000E+00 0. -1.
<mgrwt>
<rscale>  0 0.65350344E+03</rscale>
<asrwt>0</asrwt>
<pdfrwt beam="1">0</pdfrwt>
<pdfrwt beam="2">  1        2 0.38824331E+00 0.65350344E+03</pdfrwt>
<totfact> 0.44050933E+00</totfact>
</mgrwt>
</event>
<event>
 5    1  0.2344661E-004  0.6609904E+03  0.7818608E-02  0.9786372E-01
         13   -1    0    0    0    0  0.00000000000E+00  0.00000000000E+00  0.10000000000E+04  0.10000000000E+04  0.00000000000E+00 0. -1.
          2   -1    0    0  501    0 -0.00000000000E+00 -0.00000000000E+00 -0.10922706394E+03  0.10922706394E+03  0.00000000000E+00 0. -1.
    9000006    2    1    2  501    0  0.00000000000E+00  0.00000000000E+00  0.89077293606E+03  0.11092270639E+04  0.66099035982E+03 0.  0.
         13    1    3    3    0    0 -0.18075562827E+03 -0.47557537419E+02  0.90278897588E+03  0.92193397350E+03  0.00000000000E+00 0. -1.
          4    1    3    3  501    0  0.18075562827E+03  0.47557537419E+02 -0.12016039825E+02  0.18729309044E+03  0.00000000000E+00 0. -1.
<mgrwt>
<rscale>  0 0.66099036E+03</rscale>
<asrwt>0</asrwt>
<pdfrwt beam="1">0</pdfrwt>
<pdfrwt beam="2">  1        2 0.39719016E+00 0.66099036E+03</pdfrwt>
<totfact> 0.40770396E+00</totfact>
</mgrwt>
</event>
<event>
 5    1  0.2344661E-004  0.6492527E+03  0.7818608E-02  0.9808182E-01
         13   -1    0    0    0    0  0.00000000000E+00  0.00000000000E+00  0.10000000000E+04  0.10000000000E+04  0.00000000000E+00 0. -1.
          2   -1    0    0  501    0 -0.00000000000E+00 -0.00000000000E+00 -0.10538228286E+03  0.10538228286E+03  0.00000000000E+00 0. -1.
    9000006    2    1    2  501    0  0.00000000000E+00  0.00000000000E+00  0.89461771714E+03  0.11053822829E+04  0.64925274851E+03 0.  0.
         13    1    3    3    0    0 -0.24988937842E+02 -0.22206296148E+03  0.46411374140E+02  0.22823326122E+03  0.00000000000E+00 0. -1.
          4    1    3    3  501    0  0.24988937842E+02  0.22206296148E+03  0.84820634300E+03  0.87714902165E+03  0.00000000000E+00 0. -1.
<mgrwt>
<rscale>  0 0.64925275E+03</rscale>
<asrwt>0</asrwt>
<pdfrwt beam="1">0</pdfrwt>
<pdfrwt beam="2">  1        2 0.38320911E+00 0.64925275E+03</pdfrwt>
<totfact> 0.46000049E+00</totfact>
</mgrwt>
</event>
<event>
 5    1  0.2344661E-004  0.6419182E+03  0.7818608E-02  0.9822063E-01
         13   -1    0    0    0    0  0.00000000000E+00  0.00000000000E+00  0.10000000000E+04  0.10000000000E+04  0.00000000000E+00 0. -1.
          2   -1    0    0  501    0 -0.00000000000E+00 -0.00000000000E+00 -0.10301474252E+03  0.10301474252E+03  0.00000000000E+00 0. -1.
    9000006    2    1    2  501    0  0.00000000000E+00  0.00000000000E+00  0.89698525748E+03  0.11030147425E+04  0.64191819578E+03 0.  0.
         13    1    3    3    0    0 -0.18774694718E+03  0.84891001261E+02  0.25636905832E+02  0.20763585724E+03  0.00000000000E+00 0. -1.
          4    1    3    3  501    0  0.18774694718E+03 -0.84891001261E+02  0.87134835165E+03  0.89537888527E+03  0.00000000000E+00 0. -1.
<mgrwt>
<rscale>  0 0.64191820E+03</rscale>
<asrwt>0</asrwt>
<pdfrwt beam="1">0</pdfrwt>
<pdfrwt beam="2">  1        2 0.37459985E+00 0.64191820E+03</pdfrwt>
<totfact> 0.49515788E+00</totfact>
</mgrwt>
</event>
<event>
 5    1  0.2344661E-004  0.6067642E+03  0.7818608E-02  0.9891471E-01
         13   -1    0    0    0    0  0.00000000000E+00  0.00000000000E+00  0.10000000000E+04  0.10000000000E+04  0.00000000000E+00 0. -1.
          2   -1    0    0  501    0 -0.00000000000E+00 -0.00000000000E+00 -0.92040686979E+02  0.92040686979E+02  0.00000000000E+00 0. -1.
    9000006    2    1    2  501    0  0.00000000000E+00  0.00000000000E+00  0.90795931302E+03  0.10920406870E+04  0.60676416169E+03 0.  0.
         13    1    3    3    0    0  0.27334440558E+02  0.29943900713E+03  0.52663801271E+03  0.60643094171E+03  0.00000000000E+00 0. -1.
          4    1    3    3  501    0 -0.27334440558E+02 -0.29943900713E+03  0.38132130031E+03  0.48560974527E+03  0.00000000000E+00 0. -1.
<mgrwt>
<rscale>  0 0.60676416E+03</rscale>
<asrwt>0</asrwt>
<pdfrwt beam="1">0</pdfrwt>
<pdfrwt beam="2">  1        2 0.33469411E+00 0.60676416E+03</pdfrwt>
<totfact> 0.69285067E+00</totfact>
</mgrwt>
</event>
<event>
 5    1  0.2344661E-004  0.7036874E+03  0.7818608E-02  0.9710947E-01
         13   -1    0    0    0    0  0.00000000000E+00  0.00000000000E+00  0.10000000000E+04  0.10000000000E+04  0.00000000000E+00 0. -1.
          2   -1    0    0  501    0 -0.00000000000E+00 -0.00000000000E+00 -0.12379398339E+03  0.12379398339E+03  0.00000000000E+00 0. -1.
    9000006    2    1    2  501    0  0.00000000000E+00  0.00000000000E+00  0.87620601661E+03  0.11237939834E+04  0.70368738341E+03 0.  0.
         13    1    3    3    0    0  0.68251042134E+01  0.12064223001E+03  0.96582360664E+03  0.97335315731E+03  0.00000000000E+00 0. -1.
          4    1    3    3  501    0 -0.68251042134E+01 -0.12064223001E+03 -0.89617590032E+02  0.15044082608E+03  0.00000000000E+00 0. -1.
<mgrwt>
<rscale>  0 0.70368738E+03</rscale>
<asrwt>0</asrwt>
<pdfrwt beam="1">0</pdfrwt>
<pdfrwt beam="2">  1        2 0.45016089E+00 0.70368738E+03</pdfrwt>
<totfact> 0.25432571E+00</totfact>
</mgrwt>
</event>
<event>
 5    1  0.2344661E-004  0.6542993E+03  0.7818608E-02  0.9798745E-01
         13   -1    0    0    0    0  0.00000000000E+00  0.00000000000E+00  0.10000000000E+04  0.10000000000E+04  0.00000000000E+00 0. -1.
          2   -1    0    0  501    0 -0.00000000000E+00 -0.00000000000E+00 -0.10702687775E+03  0.10702687775E+03  0.00000000000E+00 0. -1.
    9000006    2    1    2  501    0  0.00000000000E+00  0.00000000000E+00  0.89297312225E+03  0.11070268778E+04  0.65429925188E+03 0.  0.
         13    1    3    3    0    0  0.89632402483E+02  0.95483058299E+02  0.95371472238E+03  0.96266440346E+03  0.00000000000E+00 0. -1.
          4    1    3    3  501    0 -0.89632402483E+02 -0.95483058299E+02 -0.60741600136E+02  0.14436247429E+03  0.00000000000E+00 0. -1.
<mgrwt>
<rscale>  0 0.65429925E+03</rscale>
<asrwt>0</asrwt>
<pdfrwt beam="1">0</pdfrwt>
<pdfrwt beam="2">  1        2 0.38918947E+00 0.65429925E+03</pdfrwt>
<totfact> 0.43693068E+00</totfact>
</mgrwt>
</event>
<event>
 5    1  0.2344661E-004  0.6530859E+03  0.7818608E-02  0.9801006E-01
         13   -1    0    0    0    0  0.00000000000E+00  0.00000000000E+00  0.10000000000E+04  0.10000000000E+04  0.00000000000E+00 0. -1.
          2   -1    0    0  501    0 -0.00000000000E+00 -0.00000000000E+00 -0.10663028710E+03  0.10663028710E+03  0.00000000000E+00 0. -1.
    9000006    2    1    2  501    0  0.00000000000E+00  0.00000000000E+00  0.89336971290E+03  0.11066302871E+04  0.65308586602E+03 0.  0.
         13    1    3    3    0    0  0.30323515611E+03 -0.75056415307E+02  0.28553020841E+03  0.42321687737E+03  0.00000000000E+00 0. -1.
          4    1    3    3  501    0 -0.30323515611E+03  0.75056415307E+02  0.60783950449E+03  0.68341340973E+03  0.00000000000E+00 0. -1.
<mgrwt>
<rscale>  0 0.65308587E+03</rscale>
<asrwt>0</asrwt>
<pdfrwt beam="1">0</pdfrwt>
<pdfrwt beam="2">  1        2 0.38774732E+00 0.65308587E+03</pdfrwt>
<totfact> 0.44239591E+00</totfact>
</mgrwt>
</event>
<event>
 5    1  0.2344661E-004  0.5432926E+03  0.7818608E-02  0.1003058E+00
         13   -1    0    0    0    0  0.00000000000E+00  0.00000000000E+00  0.10000000000E+04  0.10000000000E+04  0.00000000000E+00 0. -1.
          2   -1    0    0  501    0 -0.00000000000E+00 -0.00000000000E+00 -0.73791720448E+02  0.73791720448E+02  0.00000000000E+00 0. -1.
    9000006    2    1    2  501    0  0.00000000000E+00  0.00000000000E+00  0.92620827955E+03  0.10737917204E+04  0.54329262998E+03 0.  0.
         13    1    3    3    0    0 -0.27054397663E+03 -0.67367269132E+01  0.41665568521E+03  0.49683134643E+03  0.00000000000E+00 0. -1.
          2    1    3    3  501    0  0.27054397663E+03  0.67367269132E+01  0.50955259435E+03  0.57696037402E+03  0.00000000000E+00 0. -1.
<mgrwt>
<rscale>  0 0.54329263E+03</rscale>
<asrwt>0</asrwt>
<pdfrwt beam="1">0</pdfrwt>
<pdfrwt beam="2">  1        2 0.26833409E+00 0.54329263E+03</pdfrwt>
<totfact> 0.11981570E+01</totfact>
</mgrwt>
</event>
<event>
 5    1  0.2344661E-004  0.6305849E+03  0.7818608E-02  0.9843908E-01
         13   -1    0    0    0    0  0.00000000000E+00  0.00000000000E+00  0.10000000000E+04  0.10000000000E+04  0.00000000000E+00 0. -1.
          2   -1    0    0  501    0 -0.00000000000E+00 -0.00000000000E+00 -0.99409327481E+02  0.99409327481E+02  0.00000000000E+00 0. -1.
    9000006    2    1    2  501    0  0.00000000000E+00  0.00000000000E+00  0.90059067252E+03  0.10994093275E+04  0.63058489510E+03 0.  0.
         13    1    3    3    0    0  0.28485703952E+03 -0.14334310116E+02  0.68459874077E+03  0.74163632684E+03  0.00000000000E+00 0. -1.
          2    1    3    3  501    0 -0.28485703952E+03  0.14334310116E+02  0.21599193174E+03  0.35777300065E+03  0.00000000000E+00 0. -1.
<mgrwt>
<rscale>  0 0.63058490E+03</rscale>
<asrwt>0</asrwt>
<pdfrwt beam="1">0</pdfrwt>
<pdfrwt beam="2">  1        2 0.36148923E+00 0.63058490E+03</pdfrwt>
<totfact> 0.55344375E+00</totfact>
</mgrwt>
</event>
<event>
 5    1  0.2344661E-004  0.6425786E+03  0.7818608E-02  0.9820805E-01
         13   -1    0    0    0    0  0.00000000000E+00  0.00000000000E+00  0.10000000000E+04  0.10000000000E+04  0.00000000000E+00 0. -1.
          2   -1    0    0  501    0 -0.00000000000E+00 -0.00000000000E+00 -0.10322681157E+03  0.10322681157E+03  0.00000000000E+00 0. -1.
    9000006    2    1    2  501    0  0.00000000000E+00  0.00000000000E+00  0.89677318843E+03  0.11032268116E+04  0.64257859151E+03 0.  0.
         13    1    3    3    0    0 -0.21026027764E+03 -0.18584749308E+03  0.71700003010E+03  0.76995955621E+03  0.00000000000E+00 0. -1.
          4    1    3    3  501    0  0.21026027764E+03  0.18584749308E+03  0.17977315833E+03  0.33326725536E+03  0.00000000000E+00 0. -1.
<mgrwt>
<rscale>  0 0.64257859E+03</rscale>
<asrwt>0</asrwt>
<pdfrwt beam="1">0</pdfrwt>
<pdfrwt beam="2">  1        2 0.37537102E+00 0.64257859E+03</pdfrwt>
<totfact> 0.49191140E+00</totfact>
</mgrwt>
</event>
<event>
 5    1  0.2344661E-004  0.6905993E+03  0.7818608E-02  0.9733445E-01
         13   -1    0    0    0    0  0.00000000000E+00  0.00000000000E+00  0.10000000000E+04  0.10000000000E+04  0.00000000000E+00 0. -1.
          2   -1    0    0  501    0 -0.00000000000E+00 -0.00000000000E+00 -0.11923184515E+03  0.11923184515E+03  0.00000000000E+00 0. -1.
    9000006    2    1    2  501    0  0.00000000000E+00  0.00000000000E+00  0.88076815485E+03  0.11192318451E+04  0.69059929090E+03 0.  0.
         13    1    3    3    0    0  0.14842349289E+03 -0.13542166159E+03 -0.14741626263E+02  0.20145936368E+03  0.00000000000E+00 0. -1.
          2    1    3    3  501    0 -0.14842349289E+03  0.13542166159E+03  0.89550978111E+03  0.91777248147E+03  0.00000000000E+00 0. -1.
<mgrwt>
<rscale>  0 0.69059929E+03</rscale>
<asrwt>0</asrwt>
<pdfrwt beam="1">0</pdfrwt>
<pdfrwt beam="2">  1        2 0.43357126E+00 0.69059929E+03</pdfrwt>
<totfact> 0.29565864E+00</totfact>
</mgrwt>
</event>
<event>
 5    1  0.2344661E-004  0.6447576E+03  0.7818608E-02  0.9816666E-01
         13   -1    0    0    0    0  0.00000000000E+00  0.00000000000E+00  0.10000000000E+04  0.10000000000E+04  0.00000000000E+00 0. -1.
          2   -1    0    0  501    0 -0.00000000000E+00 -0.00000000000E+00 -0.10392808023E+03  0.10392808023E+03  0.00000000000E+00 0. -1.
    9000006    2    1    2  501    0  0.00000000000E+00  0.00000000000E+00  0.89607191977E+03  0.11039280802E+04  0.64475756755E+03 0.  0.
         13    1    3    3    0    0 -0.12430772968E+03 -0.11914281576E+03  0.91467621781E+03  0.93074164279E+03  0.00000000000E+00 0. -1.
          4    1    3    3  501    0  0.12430772968E+03  0.11914281576E+03 -0.18604298033E+02  0.17318643744E+03  0.00000000000E+00 0. -1.
<mgrwt>
<rscale>  0 0.64475757E+03</rscale>
<asrwt>0</asrwt>
<pdfrwt beam="1">0</pdfrwt>
<pdfrwt beam="2">  1        2 0.37792109E+00 0.64475757E+03</pdfrwt>
<totfact> 0.48131473E+00</totfact>
</mgrwt>
</event>
<event>
 5    1  0.2344661E-004  0.5649132E+03  0.7818608E-02  0.9980998E-01
         13   -1    0    0    0    0  0.00000000000E+00  0.00000000000E+00  0.10000000000E+04  0.10000000000E+04  0.00000000000E+00 0. -1.
          2   -1    0    0  501    0 -0.00000000000E+00 -0.00000000000E+00 -0.79781743374E+02  0.79781743374E+02  0.00000000000E+00 0. -1.
    9000006    2    1    2  501    0  0.00000000000E+00  0.00000000000E+00  0.92021825663E+03  0.10797817434E+04  0.56491324422E+03 0.  0.
         13    1    3    3    0    0  0.11630700420E+03 -0.11023742132E+02 -0.31435564437E+02  0.12098362215E+03  0.00000000000E+00 0. -1.
          4    1    3    3  501    0 -0.11630700420E+03  0.11023742132E+02  0.95165382106E+03  0.95879812122E+03  0.00000000000E+00 0. -1.
<mgrwt>
<rscale>  0 0.56491324E+03</rscale>
<asrwt>0</asrwt>
<pdfrwt beam="1">0</pdfrwt>
<pdfrwt beam="2">  1        2 0.29011604E+00 0.56491324E+03</pdfrwt>
<totfact> 0.10015464E+01</totfact>
</mgrwt>
</event>
<event>
 5    1  0.2344661E-004  0.6436314E+03  0.7818608E-02  0.9818803E-01
         13   -1    0    0    0    0  0.00000000000E+00  0.00000000000E+00  0.10000000000E+04  0.10000000000E+04  0.00000000000E+00 0. -1.
          2   -1    0    0  501    0 -0.00000000000E+00 -0.00000000000E+00 -0.10356532972E+03  0.10356532972E+03  0.00000000000E+00 0. -1.
    9000006    2    1    2  501    0  0.00000000000E+00  0.00000000000E+00  0.89643467028E+03  0.11035653297E+04  0.64363135325E+03 0.  0.
         13    1    3    3    0    0 -0.19268977568E+03  0.10548374189E+03  0.44981251003E+02  0.22423086852E+03  0.00000000000E+00 0. -1.
          2    1    3    3  501    0  0.19268977568E+03 -0.10548374189E+03  0.85145341928E+03  0.87933446120E+03  0.00000000000E+00 0. -1.
<mgrwt>
<rscale>  0 0.64363135E+03</rscale>
<asrwt>0</asrwt>
<pdfrwt beam="1">0</pdfrwt>
<pdfrwt beam="2">  1        2 0.37660199E+00 0.64363135E+03</pdfrwt>
<totfact> 0.48676983E+00</totfact>
</mgrwt>
</event>
<event>
 5    1  0.2344661E-004  0.6354446E+03  0.7818608E-02  0.9834481E-01
         13   -1    0    0    0    0  0.00000000000E+00  0.00000000000E+00  0.10000000000E+04  0.10000000000E+04  0.00000000000E+00 0. -1.
          2   -1    0    0  501    0 -0.00000000000E+00 -0.00000000000E+00 -0.10094746264E+03  0.10094746264E+03  0.00000000000E+00 0. -1.
    9000006    2    1    2  501    0  0.00000000000E+00  0.00000000000E+00  0.89905253736E+03  0.11009474626E+04  0.63544460856E+03 0.  0.
         13    1    3    3    0    0 -0.30323102627E+03 -0.50674221187E+02  0.31059106509E+03  0.43701686661E+03  0.00000000000E+00 0. -1.
          4    1    3    3  501    0  0.30323102627E+03  0.50674221187E+02  0.58846147228E+03  0.66393059603E+03  0.00000000000E+00 0. -1.
<mgrwt>
<rscale>  0 0.63544461E+03</rscale>
<asrwt>0</asrwt>
<pdfrwt beam="1">0</pdfrwt>
<pdfrwt beam="2">  1        2 0.36708246E+00 0.63544461E+03</pdfrwt>
<totfact> 0.52784806E+00</totfact>
</mgrwt>
</event>
<event>
 5    1  0.2344661E-004  0.6537282E+03  0.7818608E-02  0.9799809E-01
         13   -1    0    0    0    0  0.00000000000E+00  0.00000000000E+00  0.10000000000E+04  0.10000000000E+04  0.00000000000E+00 0. -1.
          2   -1    0    0  501    0 -0.00000000000E+00 -0.00000000000E+00 -0.10684014084E+03  0.10684014084E+03  0.00000000000E+00 0. -1.
    9000006    2    1    2  501    0  0.00000000000E+00  0.00000000000E+00  0.89315985916E+03  0.11068401408E+04  0.65372820298E+03 0.  0.
         13    1    3    3    0    0  0.14704407716E+03  0.14002434623E+01  0.94083235723E+03  0.95225492686E+03  0.00000000000E+00 0. -1.
          2    1    3    3  501    0 -0.14704407716E+03 -0.14002434623E+01 -0.47672498075E+02  0.15458521398E+03  0.00000000000E+00 0. -1.
<mgrwt>
<rscale>  0 0.65372820E+03</rscale>
<asrwt>0</asrwt>
<pdfrwt beam="1">0</pdfrwt>
<pdfrwt beam="2">  1        2 0.38851042E+00 0.65372820E+03</pdfrwt>
<totfact> 0.43949636E+00</totfact>
</mgrwt>
</event>
<event>
 5    1  0.2344661E-004  0.6528443E+03  0.7818608E-02  0.9801457E-01
         13   -1    0    0    0    0  0.00000000000E+00  0.00000000000E+00  0.10000000000E+04  0.10000000000E+04  0.00000000000E+00 0. -1.
          2   -1    0    0  501    0 -0.00000000000E+00 -0.00000000000E+00 -0.10655140520E+03  0.10655140520E+03  0.00000000000E+00 0. -1.
    9000006    2    1    2  501    0  0.00000000000E+00  0.00000000000E+00  0.89344859480E+03  0.11065514052E+04  0.65284425463E+03 0.  0.
         13    1    3    3    0    0 -0.29346541554E+03 -0.74182540847E+02  0.23964359541E+03  0.38607518997E+03  0.00000000000E+00 0. -1.
          2    1    3    3  501    0  0.29346541554E+03  0.74182540847E+02  0.65380499939E+03  0.72047621523E+03  0.00000000000E+00 0. -1.
<mgrwt>
<rscale>  0 0.65284425E+03</rscale>
<asrwt>0</asrwt>
<pdfrwt beam="1">0</pdfrwt>
<pdfrwt beam="2">  1        2 0.38746047E+00 0.65284425E+03</pdfrwt>
<totfact> 0.44349029E+00</totfact>
</mgrwt>
</event>
<event>
 5    1  0.2344661E-004  0.6648041E+03  0.7818608E-02  0.9779390E-01
         13   -1    0    0    0    0  0.00000000000E+00  0.00000000000E+00  0.10000000000E+04  0.10000000000E+04  0.00000000000E+00 0. -1.
          2   -1    0    0  501    0 -0.00000000000E+00 -0.00000000000E+00 -0.11049113735E+03  0.11049113735E+03  0.00000000000E+00 0. -1.
    9000006    2    1    2  501    0  0.00000000000E+00  0.00000000000E+00  0.88950886265E+03  0.11104911374E+04  0.66480414364E+03 0.  0.
         13    1    3    3    0    0  0.27990232648E+03  0.14531300120E+03  0.26932264635E+03  0.41472384610E+03  0.00000000000E+00 0. -1.
          2    1    3    3  501    0 -0.27990232648E+03 -0.14531300120E+03  0.62018621630E+03  0.69576729125E+03  0.00000000000E+00 0. -1.
<mgrwt>
<rscale>  0 0.66480414E+03</rscale>
<asrwt>0</asrwt>
<pdfrwt beam="1">0</pdfrwt>
<pdfrwt beam="2">  1        2 0.40178680E+00 0.66480414E+03</pdfrwt>
<totfact> 0.39172086E+00</totfact>
</mgrwt>
</event>
<event>
 5    1  0.2344661E-004  0.6533535E+03  0.7818608E-02  0.9800507E-01
         13   -1    0    0    0    0  0.00000000000E+00  0.00000000000E+00  0.10000000000E+04  0.10000000000E+04  0.00000000000E+00 0. -1.
          2   -1    0    0  501    0 -0.00000000000E+00 -0.00000000000E+00 -0.10671768684E+03  0.10671768684E+03  0.00000000000E+00 0. -1.
    9000006    2    1    2  501    0  0.00000000000E+00  0.00000000000E+00  0.89328231316E+03  0.11067176868E+04  0.65335346281E+03 0.  0.
         13    1    3    3    0    0 -0.14223001122E+03  0.16838975884E+03  0.85505529478E+03  0.88300851870E+03  0.00000000000E+00 0. -1.
          2    1    3    3  501    0  0.14223001122E+03 -0.16838975884E+03  0.38227018379E+02  0.22370916814E+03  0.00000000000E+00 0. -1.
<mgrwt>
<rscale>  0 0.65335346E+03</rscale>
<asrwt>0</asrwt>
<pdfrwt beam="1">0</pdfrwt>
<pdfrwt beam="2">  1        2 0.38806513E+00 0.65335346E+03</pdfrwt>
<totfact> 0.44118621E+00</totfact>
</mgrwt>
</event>
<event>
 5    1  0.2344661E-004  0.7135773E+03  0.7818608E-02  0.9694291E-01
         13   -1    0    0    0    0  0.00000000000E+00  0.00000000000E+00  0.10000000000E+04  0.10000000000E+04  0.00000000000E+00 0. -1.
          2   -1    0    0  501    0 -0.00000000000E+00 -0.00000000000E+00 -0.12729812987E+03  0.12729812987E+03  0.00000000000E+00 0. -1.
    9000006    2    1    2  501    0  0.00000000000E+00  0.00000000000E+00  0.87270187013E+03  0.11272981299E+04  0.71357726945E+03 0.  0.
         13    1    3    3    0    0 -0.24837413213E+03  0.23200730760E+03  0.60782143036E+03  0.69639356078E+03  0.00000000000E+00 0. -1.
          4    1    3    3  501    0  0.24837413213E+03 -0.23200730760E+03  0.26488043977E+03  0.43090456909E+03  0.00000000000E+00 0. -1.
<mgrwt>
<rscale>  0 0.71357727E+03</rscale>
<asrwt>0</asrwt>
<pdfrwt beam="1">0</pdfrwt>
<pdfrwt beam="2">  1        2 0.46290327E+00 0.71357727E+03</pdfrwt>
<totfact> 0.22610050E+00</totfact>
</mgrwt>
</event>
<event>
 5    1  0.2344661E-004  0.6360491E+03  0.7818608E-02  0.9833315E-01
         13   -1    0    0    0    0  0.00000000000E+00  0.00000000000E+00  0.10000000000E+04  0.10000000000E+04  0.00000000000E+00 0. -1.
          2   -1    0    0  501    0 -0.00000000000E+00 -0.00000000000E+00 -0.10113961032E+03  0.10113961032E+03  0.00000000000E+00 0. -1.
    9000006    2    1    2  501    0  0.00000000000E+00  0.00000000000E+00  0.89886038968E+03  0.11011396103E+04  0.63604908717E+03 0.  0.
         13    1    3    3    0    0 -0.11349035633E+03 -0.27474182016E+03  0.25374526154E+03  0.39083217176E+03  0.00000000000E+00 0. -1.
          2    1    3    3  501    0  0.11349035633E+03  0.27474182016E+03  0.64511512814E+03  0.71030743857E+03  0.00000000000E+00 0. -1.
<mgrwt>
<rscale>  0 0.63604909E+03</rscale>
<asrwt>0</asrwt>
<pdfrwt beam="1">0</pdfrwt>
<pdfrwt beam="2">  1        2 0.36778118E+00 0.63604909E+03</pdfrwt>
<totfact> 0.52472826E+00</totfact>
</mgrwt>
</event>
<event>
 5    1  0.2344661E-004  0.6057940E+03  0.7818608E-02  0.9893458E-01
         13   -1    0    0    0    0  0.00000000000E+00  0.00000000000E+00  0.10000000000E+04  0.10000000000E+04  0.00000000000E+00 0. -1.
          2   -1    0    0  501    0 -0.00000000000E+00 -0.00000000000E+00 -0.91746603471E+02  0.91746603471E+02  0.00000000000E+00 0. -1.
    9000006    2    1    2  501    0  0.00000000000E+00  0.00000000000E+00  0.90825339653E+03  0.10917466035E+04  0.60579403586E+03 0.  0.
         13    1    3    3    0    0  0.27265451053E+03  0.93463398512E+02  0.28631420140E+03  0.40626556696E+03  0.00000000000E+00 0. -1.
          4    1    3    3  501    0 -0.27265451053E+03 -0.93463398512E+02  0.62193919513E+03  0.68548103651E+03  0.00000000000E+00 0. -1.
<mgrwt>
<rscale>  0 0.60579404E+03</rscale>
<asrwt>0</asrwt>
<pdfrwt beam="1">0</pdfrwt>
<pdfrwt beam="2">  1        2 0.33362472E+00 0.60579404E+03</pdfrwt>
<totfact> 0.69904534E+00</totfact>
</mgrwt>
</event>
<event>
 5    1  0.2344661E-004  0.6749843E+03  0.7818608E-02  0.9760995E-01
         13   -1    0    0    0    0  0.00000000000E+00  0.00000000000E+00  0.10000000000E+04  0.10000000000E+04  0.00000000000E+00 0. -1.
          2   -1    0    0  501    0 -0.00000000000E+00 -0.00000000000E+00 -0.11390096530E+03  0.11390096530E+03  0.00000000000E+00 0. -1.
    9000006    2    1    2  501    0  0.00000000000E+00  0.00000000000E+00  0.88609903470E+03  0.11139009653E+04  0.67498434145E+03 0.  0.
         13    1    3    3    0    0  0.88447025335E+02 -0.25972412181E+03  0.11873433524E+03  0.29896042900E+03  0.00000000000E+00 0. -1.
          4    1    3    3  501    0 -0.88447025335E+02  0.25972412181E+03  0.76736469946E+03  0.81494053630E+03  0.00000000000E+00 0. -1.
<mgrwt>
<rscale>  0 0.67498434E+03</rscale>
<asrwt>0</asrwt>
<pdfrwt beam="1">0</pdfrwt>
<pdfrwt beam="2">  1        2 0.41418620E+00 0.67498434E+03</pdfrwt>
<totfact> 0.35136716E+00</totfact>
</mgrwt>
</event>
<event>
 5    1  0.2344661E-004  0.6461062E+03  0.7818608E-02  0.9814113E-01
         13   -1    0    0    0    0  0.00000000000E+00  0.00000000000E+00  0.10000000000E+04  0.10000000000E+04  0.00000000000E+00 0. -1.
          2   -1    0    0  501    0 -0.00000000000E+00 -0.00000000000E+00 -0.10436331768E+03  0.10436331768E+03  0.00000000000E+00 0. -1.
    9000006    2    1    2  501    0  0.00000000000E+00  0.00000000000E+00  0.89563668232E+03  0.11043633177E+04  0.64610623795E+03 0.  0.
         13    1    3    3    0    0  0.27211372886E+03  0.17398646895E+03  0.43620733791E+03  0.54276515590E+03  0.00000000000E+00 0. -1.
          2    1    3    3  501    0 -0.27211372886E+03 -0.17398646895E+03  0.45942934441E+03  0.56159816178E+03  0.00000000000E+00 0. -1.
<mgrwt>
<rscale>  0 0.64610624E+03</rscale>
<asrwt>0</asrwt>
<pdfrwt beam="1">0</pdfrwt>
<pdfrwt beam="2">  1        2 0.37950377E+00 0.64610624E+03</pdfrwt>
<totfact> 0.47484312E+00</totfact>
</mgrwt>
</event>
<event>
 5    1  0.2344661E-004  0.6395684E+03  0.7818608E-02  0.9826553E-01
         13   -1    0    0    0    0  0.00000000000E+00  0.00000000000E+00  0.10000000000E+04  0.10000000000E+04  0.00000000000E+00 0. -1.
          2   -1    0    0  501    0 -0.00000000000E+00 -0.00000000000E+00 -0.10226192193E+03  0.10226192193E+03  0.00000000000E+00 0. -1.
    9000006    2    1    2  501    0  0.00000000000E+00  0.00000000000E+00  0.89773807807E+03  0.11022619219E+04  0.63956836047E+03 0.  0.
         13    1    3    3    0    0 -0.72675140812E+02  0.12650860035E+03  0.93929732514E+03  0.95056065934E+03  0.00000000000E+00 0. -1.
          2    1    3    3  501    0  0.72675140812E+02 -0.12650860035E+03 -0.41559247072E+02  0.15170126259E+03  0.00000000000E+00 0. -1.
<mgrwt>
<rscale>  0 0.63956836E+03</rscale>
<asrwt>0</asrwt>
<pdfrwt beam="1">0</pdfrwt>
<pdfrwt beam="2">  1        2 0.37186232E+00 0.63956836E+03</pdfrwt>
<totfact> 0.50684129E+00</totfact>
</mgrwt>
</event>
<event>
 5    1  0.2344661E-004  0.6321525E+03  0.7818608E-02  0.9840857E-01
         13   -1    0    0    0    0  0.00000000000E+00  0.00000000000E+00  0.10000000000E+04  0.10000000000E+04  0.00000000000E+00 0. -1.
          2   -1    0    0  501    0 -0.00000000000E+00 -0.00000000000E+00 -0.99904184306E+02  0.99904184306E+02  0.00000000000E+00 0. -1.
    9000006    2    1    2  501    0  0.00000000000E+00  0.00000000000E+00  0.90009581569E+03  0.10999041843E+04  0.63215246359E+03 0.  0.
         13    1    3    3    0    0  0.30022271546E+03  0.22829980925E+02  0.28271267542E+03  0.41301494374E+03  0.00000000000E+00 0. -1.
          4    1    3    3  501    0 -0.30022271546E+03 -0.22829980925E+02  0.61738314027E+03  0.68688924056E+03  0.00000000000E+00 0. -1.
<mgrwt>
<rscale>  0 0.63215246E+03</rscale>
<asrwt>0</asrwt>
<pdfrwt beam="1">0</pdfrwt>
<pdfrwt beam="2">  1        2 0.36328871E+00 0.63215246E+03</pdfrwt>
<totfact> 0.54508692E+00</totfact>
</mgrwt>
</event>
<event>
 5    1  0.2344661E-004  0.6392399E+03  0.7818608E-02  0.9827182E-01
         13   -1    0    0    0    0  0.00000000000E+00  0.00000000000E+00  0.10000000000E+04  0.10000000000E+04  0.00000000000E+00 0. -1.
          2   -1    0    0  501    0 -0.00000000000E+00 -0.00000000000E+00 -0.10215691133E+03  0.10215691133E+03  0.00000000000E+00 0. -1.
    9000006    2    1    2  501    0  0.00000000000E+00  0.00000000000E+00  0.89784308867E+03  0.11021569113E+04  0.63923989654E+03 0.  0.
         13    1    3    3    0    0 -0.21381459484E+03  0.77421712862E+02  0.61669791978E+02  0.23561401875E+03  0.00000000000E+00 0. -1.
          4    1    3    3  501    0  0.21381459484E+03 -0.77421712862E+02  0.83617329669E+03  0.86654289258E+03  0.00000000000E+00 0. -1.
<mgrwt>
<rscale>  0 0.63923990E+03</rscale>
<asrwt>0</asrwt>
<pdfrwt beam="1">0</pdfrwt>
<pdfrwt beam="2">  1        2 0.37148046E+00 0.63923990E+03</pdfrwt>
<totfact> 0.50849090E+00</totfact>
</mgrwt>
</event>
<event>
 5    1  0.2344661E-004  0.6616788E+03  0.7818608E-02  0.9785108E-01
         13   -1    0    0    0    0  0.00000000000E+00  0.00000000000E+00  0.10000000000E+04  0.10000000000E+04  0.00000000000E+00 0. -1.
          2   -1    0    0  501    0 -0.00000000000E+00 -0.00000000000E+00 -0.10945470995E+03  0.10945470995E+03  0.00000000000E+00 0. -1.
    9000006    2    1    2  501    0  0.00000000000E+00  0.00000000000E+00  0.89054529005E+03  0.11094547099E+04  0.66167880410E+03 0.  0.
         13    1    3    3    0    0  0.28118238106E+03 -0.60857208420E+02  0.71918835550E+03  0.77459603789E+03  0.00000000000E+00 0. -1.
          4    1    3    3  501    0 -0.28118238106E+03  0.60857208420E+02  0.17135693455E+03  0.33485867206E+03  0.00000000000E+00 0. -1.
<mgrwt>
<rscale>  0 0.66167880E+03</rscale>
<asrwt>0</asrwt>
<pdfrwt beam="1">0</pdfrwt>
<pdfrwt beam="2">  1        2 0.39801797E+00 0.66167880E+03</pdfrwt>
<totfact> 0.40478303E+00</totfact>
</mgrwt>
</event>
<event>
 5    1  0.2344661E-004  0.6785836E+03  0.7818608E-02  0.9754575E-01
         13   -1    0    0    0    0  0.00000000000E+00  0.00000000000E+00  0.10000000000E+04  0.10000000000E+04  0.00000000000E+00 0. -1.
          2   -1    0    0  501    0 -0.00000000000E+00 -0.00000000000E+00 -0.11511892463E+03  0.11511892463E+03  0.00000000000E+00 0. -1.
    9000006    2    1    2  501    0  0.00000000000E+00  0.00000000000E+00  0.88488107537E+03  0.11151189246E+04  0.67858359730E+03 0.  0.
         13    1    3    3    0    0 -0.20694710466E+02  0.18302857245E+03  0.91068461848E+03  0.92912550482E+03  0.00000000000E+00 0. -1.
          2    1    3    3  501    0  0.20694710466E+02 -0.18302857245E+03 -0.25803543108E+02  0.18599341981E+03  0.00000000000E+00 0. -1.
<mgrwt>
<rscale>  0 0.67858360E+03</rscale>
<asrwt>0</asrwt>
<pdfrwt beam="1">0</pdfrwt>
<pdfrwt beam="2">  1        2 0.41861515E+00 0.67858360E+03</pdfrwt>
<totfact> 0.33787939E+00</totfact>
</mgrwt>
</event>
<event>
 5    1  0.2344661E-004  0.6435407E+03  0.7818608E-02  0.9818976E-01
         13   -1    0    0    0    0  0.00000000000E+00  0.00000000000E+00  0.10000000000E+04  0.10000000000E+04  0.00000000000E+00 0. -1.
          2   -1    0    0  501    0 -0.00000000000E+00 -0.00000000000E+00 -0.10353616942E+03  0.10353616942E+03  0.00000000000E+00 0. -1.
    9000006    2    1    2  501    0  0.00000000000E+00  0.00000000000E+00  0.89646383058E+03  0.11035361694E+04  0.64354073506E+03 0.  0.
         13    1    3    3    0    0 -0.18727237621E+03  0.25733762315E+03  0.52943713474E+03  0.61773560268E+03  0.00000000000E+00 0. -1.
          2    1    3    3  501    0  0.18727237621E+03 -0.25733762315E+03  0.36702669584E+03  0.48580056674E+03  0.00000000000E+00 0. -1.
<mgrwt>
<rscale>  0 0.64354074E+03</rscale>
<asrwt>0</asrwt>
<pdfrwt beam="1">0</pdfrwt>
<pdfrwt beam="2">  1        2 0.37649596E+00 0.64354074E+03</pdfrwt>
<totfact> 0.48721079E+00</totfact>
</mgrwt>
</event>
<event>
 5    1  0.2344661E-004  0.6548914E+03  0.7818608E-02  0.9797644E-01
         13   -1    0    0    0    0  0.00000000000E+00  0.00000000000E+00  0.10000000000E+04  0.10000000000E+04  0.00000000000E+00 0. -1.
          2   -1    0    0  501    0 -0.00000000000E+00 -0.00000000000E+00 -0.10722068641E+03  0.10722068641E+03  0.00000000000E+00 0. -1.
    9000006    2    1    2  501    0  0.00000000000E+00  0.00000000000E+00  0.89277931359E+03  0.11072206864E+04  0.65489139987E+03 0.  0.
         13    1    3    3    0    0 -0.13473174073E+03 -0.14538025629E+03  0.57291760434E+01  0.19829494279E+03  0.00000000000E+00 0. -1.
          4    1    3    3  501    0  0.13473174073E+03  0.14538025629E+03  0.88705013755E+03  0.90892574362E+03  0.00000000000E+00 0. -1.
<mgrwt>
<rscale>  0 0.65489140E+03</rscale>
<asrwt>0</asrwt>
<pdfrwt beam="1">0</pdfrwt>
<pdfrwt beam="2">  1        2 0.38989423E+00 0.65489140E+03</pdfrwt>
<totfact> 0.43428217E+00</totfact>
</mgrwt>
</event>
<event>
 5    1  0.2344661E-004  0.6593703E+03  0.7818608E-02  0.9789354E-01
         13   -1    0    0    0    0  0.00000000000E+00  0.00000000000E+00  0.10000000000E+04  0.10000000000E+04  0.00000000000E+00 0. -1.
          2   -1    0    0  501    0 -0.00000000000E+00 -0.00000000000E+00 -0.10869229307E+03  0.10869229307E+03  0.00000000000E+00 0. -1.
    9000006    2    1    2  501    0  0.00000000000E+00  0.00000000000E+00  0.89130770693E+03  0.11086922931E+04  0.65937028465E+03 0.  0.
         13    1    3    3    0    0  0.31065458336E+03  0.10832102477E+03  0.48142465044E+03  0.58310325725E+03  0.00000000000E+00 0. -1.
          2    1    3    3  501    0 -0.31065458336E+03 -0.10832102477E+03  0.40988305649E+03  0.52558903582E+03  0.00000000000E+00 0. -1.
<mgrwt>
<rscale>  0 0.65937028E+03</rscale>
<asrwt>0</asrwt>
<pdfrwt beam="1">0</pdfrwt>
<pdfrwt beam="2">  1        2 0.39524554E+00 0.65937028E+03</pdfrwt>
<totfact> 0.41464036E+00</totfact>
</mgrwt>
</event>
<event>
 5    1  0.2344661E-004  0.6529780E+03  0.7818608E-02  0.9801207E-01
         13   -1    0    0    0    0  0.00000000000E+00  0.00000000000E+00  0.10000000000E+04  0.10000000000E+04  0.00000000000E+00 0. -1.
          2   -1    0    0  501    0 -0.00000000000E+00 -0.00000000000E+00 -0.10659506079E+03  0.10659506079E+03  0.00000000000E+00 0. -1.
    9000006    2    1    2  501    0  0.00000000000E+00  0.00000000000E+00  0.89340493921E+03  0.11065950608E+04  0.65297798061E+03 0.  0.
         13    1    3    3    0    0  0.93154147130E+02  0.31254499377E+03  0.42083456860E+03  0.53241318766E+03  0.00000000000E+00 0. -1.
          4    1    3    3  501    0 -0.93154147130E+02 -0.31254499377E+03  0.47257037061E+03  0.57418187313E+03  0.00000000000E+00 0. -1.
<mgrwt>
<rscale>  0 0.65297798E+03</rscale>
<asrwt>0</asrwt>
<pdfrwt beam="1">0</pdfrwt>
<pdfrwt beam="2">  1        2 0.38761922E+00 0.65297798E+03</pdfrwt>
<totfact> 0.44288432E+00</totfact>
</mgrwt>
</event>
<event>
 5    1  0.2344661E-004  0.7426441E+03  0.7818608E-02  0.9646962E-01
         13   -1    0    0    0    0  0.00000000000E+00  0.00000000000E+00  0.10000000000E+04  0.10000000000E+04  0.00000000000E+00 0. -1.
          2   -1    0    0  501    0 -0.00000000000E+00 -0.00000000000E+00 -0.13788008209E+03  0.13788008209E+03  0.00000000000E+00 0. -1.
    9000006    2    1    2  501    0  0.00000000000E+00  0.00000000000E+00  0.86211991791E+03  0.11378800821E+04  0.74264414653E+03 0.  0.
         13    1    3    3    0    0  0.33652151095E+03 -0.12216717928E+03  0.58203062984E+03  0.68332364301E+03  0.00000000000E+00 0. -1.
          2    1    3    3  501    0 -0.33652151095E+03  0.12216717928E+03  0.28008928806E+03  0.45455643908E+03  0.00000000000E+00 0. -1.
<mgrwt>
<rscale>  0 0.74264415E+03</rscale>
<asrwt>0</asrwt>
<pdfrwt beam="1">0</pdfrwt>
<pdfrwt beam="2">  1        2 0.50138317E+00 0.74264415E+03</pdfrwt>
<totfact> 0.15666805E+00</totfact>
</mgrwt>
</event>
<event>
 5    1  0.2344661E-004  0.6461958E+03  0.7818608E-02  0.9813944E-01
         13   -1    0    0    0    0  0.00000000000E+00  0.00000000000E+00  0.10000000000E+04  0.10000000000E+04  0.00000000000E+00 0. -1.
          2   -1    0    0  501    0 -0.00000000000E+00 -0.00000000000E+00 -0.10439226456E+03  0.10439226456E+03  0.00000000000E+00 0. -1.
    9000006    2    1    2  501    0  0.00000000000E+00  0.00000000000E+00  0.89560773544E+03  0.11043922646E+04  0.64619583583E+03 0.  0.
         13    1    3    3    0    0 -0.30020567254E+03  0.11437867756E+03  0.38893804580E+03  0.50445884984E+03  0.00000000000E+00 0. -1.
          4    1    3    3  501    0  0.30020567254E+03 -0.11437867756E+03  0.50666968963E+03  0.59993341472E+03  0.00000000000E+00 0. -1.
<mgrwt>
<rscale>  0 0.64619584E+03</rscale>
<asrwt>0</asrwt>
<pdfrwt beam="1">0</pdfrwt>
<pdfrwt beam="2">  1        2 0.37960904E+00 0.64619584E+03</pdfrwt>
<totfact> 0.47441553E+00</totfact>
</mgrwt>
</event>
<event>
 5    1  0.2344661E-004  0.6618150E+03  0.7818608E-02  0.9784858E-01
         13   -1    0    0    0    0  0.00000000000E+00  0.00000000000E+00  0.10000000000E+04  0.10000000000E+04  0.00000000000E+00 0. -1.
          2   -1    0    0  501    0 -0.00000000000E+00 -0.00000000000E+00 -0.10949977893E+03  0.10949977893E+03  0.00000000000E+00 0. -1.
    9000006    2    1    2  501    0  0.00000000000E+00  0.00000000000E+00  0.89050022107E+03  0.11094997789E+04  0.66181501623E+03 0.  0.
         13    1    3    3    0    0  0.26141380185E+03 -0.19720082509E+03  0.36529842445E+03  0.49057953496E+03  0.00000000000E+00 0. -1.
          2    1    3    3  501    0 -0.26141380185E+03  0.19720082509E+03  0.52520179663E+03  0.61892024397E+03  0.00000000000E+00 0. -1.
<mgrwt>
<rscale>  0 0.66181502E+03</rscale>
<asrwt>0</asrwt>
<pdfrwt beam="1">0</pdfrwt>
<pdfrwt beam="2">  1        2 0.39818185E+00 0.66181502E+03</pdfrwt>
<totfact> 0.40420699E+00</totfact>
</mgrwt>
</event>
<event>
 5    1  0.2344661E-004  0.6418559E+03  0.7818608E-02  0.9822182E-01
         13   -1    0    0    0    0  0.00000000000E+00  0.00000000000E+00  0.10000000000E+04  0.10000000000E+04  0.00000000000E+00 0. -1.
          2   -1    0    0  501    0 -0.00000000000E+00 -0.00000000000E+00 -0.10299473385E+03  0.10299473385E+03  0.00000000000E+00 0. -1.
    9000006    2    1    2  501    0  0.00000000000E+00  0.00000000000E+00  0.89700526615E+03  0.11029947338E+04  0.64185585250E+03 0.  0.
         13    1    3    3    0    0 -0.45092264413E+02  0.87571546370E+02 -0.76376900023E+02  0.12464156169E+03  0.00000000000E+00 0. -1.
          4    1    3    3  501    0  0.45092264413E+02 -0.87571546370E+02  0.97338216618E+03  0.97835317216E+03  0.00000000000E+00 0. -1.
<mgrwt>
<rscale>  0 0.64185585E+03</rscale>
<asrwt>0</asrwt>
<pdfrwt beam="1">0</pdfrwt>
<pdfrwt beam="2">  1        2 0.37452709E+00 0.64185585E+03</pdfrwt>
<totfact> 0.49546519E+00</totfact>
</mgrwt>
</event>
<event>
 5    1  0.2344661E-004  0.6481799E+03  0.7818608E-02  0.9810200E-01
         13   -1    0    0    0    0  0.00000000000E+00  0.00000000000E+00  0.10000000000E+04  0.10000000000E+04  0.00000000000E+00 0. -1.
          2   -1    0    0  501    0 -0.00000000000E+00 -0.00000000000E+00 -0.10503429730E+03  0.10503429730E+03  0.00000000000E+00 0. -1.
    9000006    2    1    2  501    0  0.00000000000E+00  0.00000000000E+00  0.89496570270E+03  0.11050342973E+04  0.64817990495E+03 0.  0.
         13    1    3    3    0    0  0.76975875074E+01  0.29651605226E+03  0.67011306085E+03  0.73282503808E+03  0.00000000000E+00 0. -1.
          4    1    3    3  501    0 -0.76975875074E+01 -0.29651605226E+03  0.22485264185E+03  0.37220925922E+03  0.00000000000E+00 0. -1.
<mgrwt>
<rscale>  0 0.64817990E+03</rscale>
<asrwt>0</asrwt>
<pdfrwt beam="1">0</pdfrwt>
<pdfrwt beam="2">  1        2 0.38194370E+00 0.64817990E+03</pdfrwt>
<totfact> 0.46502127E+00</totfact>
</mgrwt>
</event>
<event>
 5    1  0.2344661E-004  0.6287437E+03  0.7818608E-02  0.9847503E-01
         13   -1    0    0    0    0  0.00000000000E+00  0.00000000000E+00  0.10000000000E+04  0.10000000000E+04  0.00000000000E+00 0. -1.
          2   -1    0    0  501    0 -0.00000000000E+00 -0.00000000000E+00 -0.98829653645E+02  0.98829653645E+02  0.00000000000E+00 0. -1.
    9000006    2    1    2  501    0  0.00000000000E+00  0.00000000000E+00  0.90117034636E+03  0.10988296536E+04  0.62874367955E+03 0.  0.
         13    1    3    3    0    0 -0.30179131627E+03  0.65744737888E+02  0.34824208974E+03  0.46548138760E+03  0.00000000000E+00 0. -1.
          2    1    3    3  501    0  0.30179131627E+03 -0.65744737888E+02  0.55292825661E+03  0.63334826604E+03  0.00000000000E+00 0. -1.
<mgrwt>
<rscale>  0 0.62874368E+03</rscale>
<asrwt>0</asrwt>
<pdfrwt beam="1">0</pdfrwt>
<pdfrwt beam="2">  1        2 0.35938132E+00 0.62874368E+03</pdfrwt>
<totfact> 0.56338322E+00</totfact>
</mgrwt>
</event>
<event>
 5    1  0.2344661E-004  0.6448839E+03  0.7818608E-02  0.9816427E-01
         13   -1    0    0    0    0  0.00000000000E+00  0.00000000000E+00  0.10000000000E+04  0.10000000000E+04  0.00000000000E+00 0. -1.
          2   -1    0    0  501    0 -0.00000000000E+00 -0.00000000000E+00 -0.10396879587E+03  0.10396879587E+03  0.00000000000E+00 0. -1.
    9000006    2    1    2  501    0  0.00000000000E+00  0.00000000000E+00  0.89603120413E+03  0.11039687959E+04  0.64488385272E+03 0.  0.
         13    1    3    3    0    0 -0.26761496619E+03 -0.12712106623E+03  0.23018663993E+03  0.37518452102E+03  0.00000000000E+00 0. -1.
          2    1    3    3  501    0  0.26761496619E+03  0.12712106623E+03  0.66584456420E+03  0.72878427486E+03  0.00000000000E+00 0. -1.
<mgrwt>
<rscale>  0 0.64488385E+03</rscale>
<asrwt>0</asrwt>
<pdfrwt beam="1">0</pdfrwt>
<pdfrwt beam="2">  1        2 0.37806915E+00 0.64488385E+03</pdfrwt>
<totfact> 0.48070593E+00</totfact>
</mgrwt>
</event>
<event>
 5    1  0.2344661E-004  0.6614954E+03  0.7818608E-02  0.9785445E-01
         13   -1    0    0    0    0  0.00000000000E+00  0.00000000000E+00  0.10000000000E+04  0.10000000000E+04  0.00000000000E+00 0. -1.
          2   -1    0    0  501    0 -0.00000000000E+00 -0.00000000000E+00 -0.10939404543E+03  0.10939404543E+03  0.00000000000E+00 0. -1.
    9000006    2    1    2  501    0  0.00000000000E+00  0.00000000000E+00  0.89060595457E+03  0.11093940454E+04  0.66149541323E+03 0.  0.
         13    1    3    3    0    0  0.15545759147E+03  0.28129495292E+03  0.31431585076E+03  0.44954239769E+03  0.00000000000E+00 0. -1.
          4    1    3    3  501    0 -0.15545759147E+03 -0.28129495292E+03  0.57629010380E+03  0.65985164774E+03  0.00000000000E+00 0. -1.
<mgrwt>
<rscale>  0 0.66149541E+03</rscale>
<asrwt>0</asrwt>
<pdfrwt beam="1">0</pdfrwt>
<pdfrwt beam="2">  1        2 0.39779737E+00 0.66149541E+03</pdfrwt>
<totfact> 0.40555957E+00</totfact>
</mgrwt>
</event>
<event>
 5    1  0.2344661E-004  0.6524918E+03  0.7818608E-02  0.9802115E-01
         13   -1    0    0    0    0  0.00000000000E+00  0.00000000000E+00  0.10000000000E+04  0.10000000000E+04  0.00000000000E+00 0. -1.
          2   -1    0    0  501    0 -0.00000000000E+00 -0.00000000000E+00 -0.10643638642E+03  0.10643638642E+03  0.00000000000E+00 0. -1.
    9000006    2    1    2  501    0  0.00000000000E+00  0.00000000000E+00  0.89356361358E+03  0.11064363864E+04  0.65249179742E+03 0.  0.
         13    1    3    3    0    0  0.20831870558E+03  0.96031764311E+02  0.84016297961E+03  0.87091481510E+03  0.00000000000E+00 0. -1.
          4    1    3    3  501    0 -0.20831870558E+03 -0.96031764311E+02  0.53400633962E+02  0.23552157132E+03  0.00000000000E+00 0. -1.
<mgrwt>
<rscale>  0 0.65249180E+03</rscale>
<asrwt>0</asrwt>
<pdfrwt beam="1">0</pdfrwt>
<pdfrwt beam="2">  1        2 0.38704222E+00 0.65249180E+03</pdfrwt>
<totfact> 0.44509041E+00</totfact>
</mgrwt>
</event>
<event>
 5    1  0.2344661E-004  0.6380474E+03  0.7818608E-02  0.9829469E-01
         13   -1    0    0    0    0  0.00000000000E+00  0.00000000000E+00  0.10000000000E+04  0.10000000000E+04  0.00000000000E+00 0. -1.
          2   -1    0    0  501    0 -0.00000000000E+00 -0.00000000000E+00 -0.10177613258E+03  0.10177613258E+03  0.00000000000E+00 0. -1.
    9000006    2    1    2  501    0  0.00000000000E+00  0.00000000000E+00  0.89822386742E+03  0.11017761326E+04  0.63804743580E+03 0.  0.
         13    1    3    3    0    0  0.29974268891E+03  0.10484907274E+03  0.39625047443E+03  0.50779271961E+03  0.00000000000E+00 0. -1.
          4    1    3    3  501    0 -0.29974268891E+03 -0.10484907274E+03  0.50197339299E+03  0.59398341297E+03  0.00000000000E+00 0. -1.
<mgrwt>
<rscale>  0 0.63804744E+03</rscale>
<asrwt>0</asrwt>
<pdfrwt beam="1">0</pdfrwt>
<pdfrwt beam="2">  1        2 0.37009581E+00 0.63804744E+03</pdfrwt>
<totfact> 0.51451386E+00</totfact>
</mgrwt>
</event>
<event>
 5    1  0.2344661E-004  0.6565484E+03  0.7818608E-02  0.9794569E-01
         13   -1    0    0    0    0  0.00000000000E+00  0.00000000000E+00  0.10000000000E+04  0.10000000000E+04  0.00000000000E+00 0. -1.
          2   -1    0    0  501    0 -0.00000000000E+00 -0.00000000000E+00 -0.10776395543E+03  0.10776395543E+03  0.00000000000E+00 0. -1.
    9000006    2    1    2  501    0  0.00000000000E+00  0.00000000000E+00  0.89223604457E+03  0.11077639554E+04  0.65654841536E+03 0.  0.
         13    1    3    3    0    0  0.18123214059E+03 -0.17249242615E+03  0.87540895116E+02  0.26507005524E+03  0.00000000000E+00 0. -1.
          2    1    3    3  501    0 -0.18123214059E+03  0.17249242615E+03  0.80469514946E+03  0.84269390019E+03  0.00000000000E+00 0. -1.
<mgrwt>
<rscale>  0 0.65654842E+03</rscale>
<asrwt>0</asrwt>
<pdfrwt beam="1">0</pdfrwt>
<pdfrwt beam="2">  1        2 0.39186976E+00 0.65654842E+03</pdfrwt>
<totfact> 0.42693521E+00</totfact>
</mgrwt>
</event>
<event>
 5    1  0.2344661E-004  0.6494995E+03  0.7818608E-02  0.9807719E-01
         13   -1    0    0    0    0  0.00000000000E+00  0.00000000000E+00  0.10000000000E+04  0.10000000000E+04  0.00000000000E+00 0. -1.
          2   -1    0    0  501    0 -0.00000000000E+00 -0.00000000000E+00 -0.10546239780E+03  0.10546239780E+03  0.00000000000E+00 0. -1.
    9000006    2    1    2  501    0  0.00000000000E+00  0.00000000000E+00  0.89453760220E+03  0.11054623978E+04  0.64949949285E+03 0.  0.
         13    1    3    3    0    0  0.24048297406E+03 -0.12957016338E+03  0.74617559713E+03  0.79460588332E+03  0.00000000000E+00 0. -1.
          2    1    3    3  501    0 -0.24048297406E+03  0.12957016338E+03  0.14836200507E+03  0.31085651449E+03  0.00000000000E+00 0. -1.
<mgrwt>
<rscale>  0 0.64949949E+03</rscale>
<asrwt>0</asrwt>
<pdfrwt beam="1">0</pdfrwt>
<pdfrwt beam="2">  1        2 0.38350044E+00 0.64949949E+03</pdfrwt>
<totfact> 0.45885157E+00</totfact>
</mgrwt>
</event>
<event>
 5    1  0.2344661E-004  0.6413422E+03  0.7818608E-02  0.9823162E-01
         13   -1    0    0    0    0  0.00000000000E+00  0.00000000000E+00  0.10000000000E+04  0.10000000000E+04  0.00000000000E+00 0. -1.
          2   -1    0    0  501    0 -0.00000000000E+00 -0.00000000000E+00 -0.10282996524E+03  0.10282996524E+03  0.00000000000E+00 0. -1.
    9000006    2    1    2  501    0  0.00000000000E+00  0.00000000000E+00  0.89717003476E+03  0.11028299652E+04  0.64134223390E+03 0.  0.
         13    1    3    3    0    0  0.17750755972E+03 -0.14425015355E+03  0.62111290551E+02  0.23701234771E+03  0.00000000000E+00 0. -1.
          4    1    3    3  501    0 -0.17750755972E+03  0.14425015355E+03  0.83505874420E+03  0.86581761753E+03  0.00000000000E+00 0. -1.
<mgrwt>
<rscale>  0 0.64134223E+03</rscale>
<asrwt>0</asrwt>
<pdfrwt beam="1">0</pdfrwt>
<pdfrwt beam="2">  1        2 0.37392793E+00 0.64134223E+03</pdfrwt>
<totfact> 0.49800250E+00</totfact>
</mgrwt>
</event>
<event>
 5    1  0.2344661E-004  0.6560858E+03  0.7818608E-02  0.9795426E-01
         13   -1    0    0    0    0  0.00000000000E+00  0.00000000000E+00  0.10000000000E+04  0.10000000000E+04  0.00000000000E+00 0. -1.
          2   -1    0    0  501    0 -0.00000000000E+00 -0.00000000000E+00 -0.10761214175E+03  0.10761214175E+03  0.00000000000E+00 0. -1.
    9000006    2    1    2  501    0  0.00000000000E+00  0.00000000000E+00  0.89238785825E+03  0.11076121417E+04  0.65608579240E+03 0.  0.
         13    1    3    3    0    0  0.22773861515E+03  0.23507666548E+03  0.40896793677E+03  0.52381360118E+03  0.00000000000E+00 0. -1.
          2    1    3    3  501    0 -0.22773861515E+03 -0.23507666548E+03  0.48341992148E+03  0.58379854057E+03  0.00000000000E+00 0. -1.
<mgrwt>
<rscale>  0 0.65608579E+03</rscale>
<asrwt>0</asrwt>
<pdfrwt beam="1">0</pdfrwt>
<pdfrwt beam="2">  1        2 0.39131770E+00 0.65608579E+03</pdfrwt>
<totfact> 0.42897689E+00</totfact>
</mgrwt>
</event>
<event>
 5    1  0.2344661E-004  0.6445403E+03  0.7818608E-02  0.9817078E-01
         13   -1    0    0    0    0  0.00000000000E+00  0.00000000000E+00  0.10000000000E+04  0.10000000000E+04  0.00000000000E+00 0. -1.
          2   -1    0    0  501    0 -0.00000000000E+00 -0.00000000000E+00 -0.10385805394E+03  0.10385805394E+03  0.00000000000E+00 0. -1.
    9000006    2    1    2  501    0  0.00000000000E+00  0.00000000000E+00  0.89614194606E+03  0.11038580539E+04  0.64454031353E+03 0.  0.
         13    1    3    3    0    0 -0.29936371695E+03  0.10200824688E+03  0.55411208511E+03  0.63801608156E+03  0.00000000000E+00 0. -1.
          4    1    3    3  501    0  0.29936371695E+03 -0.10200824688E+03  0.34202986094E+03  0.46584197239E+03  0.00000000000E+00 0. -1.
<mgrwt>
<rscale>  0 0.64454031E+03</rscale>
<asrwt>0</asrwt>
<pdfrwt beam="1">0</pdfrwt>
<pdfrwt beam="2">  1        2 0.37766645E+00 0.64454031E+03</pdfrwt>
<totfact> 0.48236343E+00</totfact>
</mgrwt>
</event>
<event>
 5    1  0.2344661E-004  0.6281890E+03  0.7818608E-02  0.9848589E-01
         13   -1    0    0    0    0  0.00000000000E+00  0.00000000000E+00  0.10000000000E+04  0.10000000000E+04  0.00000000000E+00 0. -1.
          2   -1    0    0  501    0 -0.00000000000E+00 -0.00000000000E+00 -0.98655363967E+02  0.98655363967E+02  0.00000000000E+00 0. -1.
    9000006    2    1    2  501    0  0.00000000000E+00  0.00000000000E+00  0.90134463603E+03  0.10986553640E+04  0.62818902877E+03 0.  0.
         13    1    3    3    0    0 -0.17034092081E+03 -0.10259350913E+03  0.87589455075E+03  0.89818301111E+03  0.00000000000E+00 0. -1.
          2    1    3    3  501    0  0.17034092081E+03  0.10259350913E+03  0.25450085284E+02  0.20047235286E+03  0.00000000000E+00 0. -1.
<mgrwt>
<rscale>  0 0.62818903E+03</rscale>
<asrwt>0</asrwt>
<pdfrwt beam="1">0</pdfrwt>
<pdfrwt beam="2">  1        2 0.35874753E+00 0.62818903E+03</pdfrwt>
<totfact> 0.56640380E+00</totfact>
</mgrwt>
</event>
<event>
 5    1  0.2344661E-004  0.6504975E+03  0.7818608E-02  0.9805846E-01
         13   -1    0    0    0    0  0.00000000000E+00  0.00000000000E+00  0.10000000000E+04  0.10000000000E+04  0.00000000000E+00 0. -1.
          2   -1    0    0  501    0 -0.00000000000E+00 -0.00000000000E+00 -0.10578676531E+03  0.10578676531E+03  0.00000000000E+00 0. -1.
    9000006    2    1    2  501    0  0.00000000000E+00  0.00000000000E+00  0.89421323469E+03  0.11057867653E+04  0.65049754900E+03 0.  0.
         13    1    3    3    0    0  0.12530073256E+03  0.12107843862E+01 -0.63106977877E+02  0.14030049977E+03  0.00000000000E+00 0. -1.
          2    1    3    3  501    0 -0.12530073256E+03 -0.12107843862E+01  0.95732021256E+03  0.96548626555E+03  0.00000000000E+00 0. -1.
<mgrwt>
<rscale>  0 0.65049755E+03</rscale>
<asrwt>0</asrwt>
<pdfrwt beam="1">0</pdfrwt>
<pdfrwt beam="2">  1        2 0.38467996E+00 0.65049755E+03</pdfrwt>
<totfact> 0.45422644E+00</totfact>
</mgrwt>
</event>
<event>
 5    1  0.2344661E-004  0.6430210E+03  0.7818608E-02  0.9819964E-01
         13   -1    0    0    0    0  0.00000000000E+00  0.00000000000E+00  0.10000000000E+04  0.10000000000E+04  0.00000000000E+00 0. -1.
          2   -1    0    0  501    0 -0.00000000000E+00 -0.00000000000E+00 -0.10336898730E+03  0.10336898730E+03  0.00000000000E+00 0. -1.
    9000006    2    1    2  501    0  0.00000000000E+00  0.00000000000E+00  0.89663101270E+03  0.11033689873E+04  0.64302095549E+03 0.  0.
         13    1    3    3    0    0  0.39155406707E+02 -0.84580123875E+02 -0.79679067252E+02  0.12262013288E+03  0.00000000000E+00 0. -1.
          4    1    3    3  501    0 -0.39155406707E+02  0.84580123875E+02  0.97631007995E+03  0.98074885442E+03  0.00000000000E+00 0. -1.
<mgrwt>
<rscale>  0 0.64302096E+03</rscale>
<asrwt>0</asrwt>
<pdfrwt beam="1">0</pdfrwt>
<pdfrwt beam="2">  1        2 0.37588802E+00 0.64302096E+03</pdfrwt>
<totfact> 0.48974593E+00</totfact>
</mgrwt>
</event>
<event>
 5    1  0.2344661E-004  0.6381496E+03  0.7818608E-02  0.9829273E-01
         13   -1    0    0    0    0  0.00000000000E+00  0.00000000000E+00  0.10000000000E+04  0.10000000000E+04  0.00000000000E+00 0. -1.
          2   -1    0    0  501    0 -0.00000000000E+00 -0.00000000000E+00 -0.10180872273E+03  0.10180872273E+03  0.00000000000E+00 0. -1.
    9000006    2    1    2  501    0  0.00000000000E+00  0.00000000000E+00  0.89819127727E+03  0.11018087227E+04  0.63814958350E+03 0.  0.
         13    1    3    3    0    0  0.21402584920E+03 -0.22861384227E+03  0.55464770694E+03  0.63695010151E+03  0.00000000000E+00 0. -1.
          2    1    3    3  501    0 -0.21402584920E+03  0.22861384227E+03  0.34354357033E+03  0.46485862122E+03  0.00000000000E+00 0. -1.
<mgrwt>
<rscale>  0 0.63814958E+03</rscale>
<asrwt>0</asrwt>
<pdfrwt beam="1">0</pdfrwt>
<pdfrwt beam="2">  1        2 0.37021432E+00 0.63814958E+03</pdfrwt>
<totfact> 0.51399582E+00</totfact>
</mgrwt>
</event>
<event>
 5    1  0.2344661E-004  0.6532990E+03  0.7818608E-02  0.9800608E-01
         13   -1    0    0    0    0  0.00000000000E+00  0.00000000000E+00  0.10000000000E+04  0.10000000000E+04  0.00000000000E+00 0. -1.
          2   -1    0    0  501    0 -0.00000000000E+00 -0.00000000000E+00 -0.10669990198E+03  0.10669990198E+03  0.00000000000E+00 0. -1.
    9000006    2    1    2  501    0  0.00000000000E+00  0.00000000000E+00  0.89330009802E+03  0.11066999020E+04  0.65329901877E+03 0.  0.
         13    1    3    3    0    0  0.16003399835E+03 -0.26133851677E+03  0.63824035339E+03  0.70799678648E+03  0.00000000000E+00 0. -1.
          2    1    3    3  501    0 -0.16003399835E+03  0.26133851677E+03  0.25505974463E+03  0.39870311550E+03  0.00000000000E+00 0. -1.
<mgrwt>
<rscale>  0 0.65329902E+03</rscale>
<asrwt>0</asrwt>
<pdfrwt beam="1">0</pdfrwt>
<pdfrwt beam="2">  1        2 0.38800046E+00 0.65329902E+03</pdfrwt>
<totfact> 0.44143212E+00</totfact>
</mgrwt>
</event>
<event>
 5    1  0.2344661E-004  0.6676918E+03  0.7818608E-02  0.9774137E-01
         13   -1    0    0    0    0  0.00000000000E+00  0.00000000000E+00  0.10000000000E+04  0.10000000000E+04  0.00000000000E+00 0. -1.
          2   -1    0    0  501    0 -0.00000000000E+00 -0.00000000000E+00 -0.11145307047E+03  0.11145307047E+03  0.00000000000E+00 0. -1.
    9000006    2    1    2  501    0  0.00000000000E+00  0.00000000000E+00  0.88854692953E+03  0.11114530705E+04  0.66769175664E+03 0.  0.
         13    1    3    3    0    0  0.19057154041E+03  0.15140463889E+03  0.63907993198E+02  0.25164480580E+03  0.00000000000E+00 0. -1.
          4    1    3    3  501    0 -0.19057154041E+03 -0.15140463889E+03  0.82463893633E+03  0.85980826467E+03  0.00000000000E+00 0. -1.
<mgrwt>
<rscale>  0 0.66769176E+03</rscale>
<asrwt>0</asrwt>
<pdfrwt beam="1">0</pdfrwt>
<pdfrwt beam="2">  1        2 0.40528475E+00 0.66769176E+03</pdfrwt>
<totfact> 0.37993716E+00</totfact>
</mgrwt>
</event>
<event>
 5    1  0.2344661E-004  0.5404589E+03  0.7818608E-02  0.1003727E+00
         13   -1    0    0    0    0  0.00000000000E+00  0.00000000000E+00  0.10000000000E+04  0.10000000000E+04  0.00000000000E+00 0. -1.
          2   -1    0    0  501    0 -0.00000000000E+00 -0.00000000000E+00 -0.73023952448E+02  0.73023952448E+02  0.00000000000E+00 0. -1.
    9000006    2    1    2  501    0  0.00000000000E+00  0.00000000000E+00  0.92697604755E+03  0.10730239524E+04  0.54045888816E+03 0.  0.
         13    1    3    3    0    0 -0.64828452907E+02 -0.25427932376E+03  0.59159210919E+03  0.64717997996E+03  0.00000000000E+00 0. -1.
          2    1    3    3  501    0  0.64828452907E+02  0.25427932376E+03  0.33538393836E+03  0.42584397249E+03  0.00000000000E+00 0. -1.
<mgrwt>
<rscale>  0 0.54045889E+03</rscale>
<asrwt>0</asrwt>
<pdfrwt beam="1">0</pdfrwt>
<pdfrwt beam="2">  1        2 0.26554221E+00 0.54045889E+03</pdfrwt>
<totfact> 0.12260350E+01</totfact>
</mgrwt>
</event>
<event>
 5    1  0.2344661E-004  0.6655978E+03  0.7818608E-02  0.9777943E-01
         13   -1    0    0    0    0  0.00000000000E+00  0.00000000000E+00  0.10000000000E+04  0.10000000000E+04  0.00000000000E+00 0. -1.
          2   -1    0    0  501    0 -0.00000000000E+00 -0.00000000000E+00 -0.11075510176E+03  0.11075510176E+03  0.00000000000E+00 0. -1.
    9000006    2    1    2  501    0  0.00000000000E+00  0.00000000000E+00  0.88924489824E+03  0.11107551018E+04  0.66559778174E+03 0.  0.
         13    1    3    3    0    0 -0.15558437636E+02  0.16421962279E+03 -0.37732299528E+02  0.16921547187E+03  0.00000000000E+00 0. -1.
          4    1    3    3  501    0  0.15558437636E+02 -0.16421962279E+03  0.92697719776E+03  0.94153962990E+03  0.00000000000E+00 0. -1.
<mgrwt>
<rscale>  0 0.66559778E+03</rscale>
<asrwt>0</asrwt>
<pdfrwt beam="1">0</pdfrwt>
<pdfrwt beam="2">  1        2 0.40274667E+00 0.66559778E+03</pdfrwt>
<totfact> 0.38845513E+00</totfact>
</mgrwt>
</event>
<event>
 5    1  0.2344661E-004  0.6528736E+03  0.7818608E-02  0.9801402E-01
         13   -1    0    0    0    0  0.00000000000E+00  0.00000000000E+00  0.10000000000E+04  0.10000000000E+04  0.00000000000E+00 0. -1.
          2   -1    0    0  501    0 -0.00000000000E+00 -0.00000000000E+00 -0.10656098995E+03  0.10656098995E+03  0.00000000000E+00 0. -1.
    9000006    2    1    2  501    0  0.00000000000E+00  0.00000000000E+00  0.89343901005E+03  0.11065609899E+04  0.65287361701E+03 0.  0.
         13    1    3    3    0    0  0.12901204073E+03 -0.75416225808E+02  0.93862057952E+03  0.95044216345E+03  0.00000000000E+00 0. -1.
          4    1    3    3  501    0 -0.12901204073E+03  0.75416225808E+02 -0.45181569463E+02  0.15611882650E+03  0.00000000000E+00 0. -1.
<mgrwt>
<rscale>  0 0.65287362E+03</rscale>
<asrwt>0</asrwt>
<pdfrwt beam="1">0</pdfrwt>
<pdfrwt beam="2">  1        2 0.38749533E+00 0.65287362E+03</pdfrwt>
<totfact> 0.44335718E+00</totfact>
</mgrwt>
</event>
<event>
 5    1  0.2344661E-004  0.6483219E+03  0.7818608E-02  0.9809933E-01
         13   -1    0    0    0    0  0.00000000000E+00  0.00000000000E+00  0.10000000000E+04  0.10000000000E+04  0.00000000000E+00 0. -1.
          2   -1    0    0  501    0 -0.00000000000E+00 -0.00000000000E+00 -0.10508032802E+03  0.10508032802E+03  0.00000000000E+00 0. -1.
    9000006    2    1    2  501    0  0.00000000000E+00  0.00000000000E+00  0.89491967198E+03  0.11050803280E+04  0.64832192010E+03 0.  0.
         13    1    3    3    0    0  0.71223226345E+02  0.20408187232E+03  0.35690527858E+02  0.21907983102E+03  0.00000000000E+00 0. -1.
          2    1    3    3  501    0 -0.71223226345E+02 -0.20408187232E+03  0.85922914412E+03  0.88600049700E+03  0.00000000000E+00 0. -1.
<mgrwt>
<rscale>  0 0.64832192E+03</rscale>
<asrwt>0</asrwt>
<pdfrwt beam="1">0</pdfrwt>
<pdfrwt beam="2">  1        2 0.38211109E+00 0.64832192E+03</pdfrwt>
<totfact> 0.46435429E+00</totfact>
</mgrwt>
</event>
<event>
 5    1  0.2344661E-004  0.6530099E+03  0.7818608E-02  0.9801148E-01
         13   -1    0    0    0    0  0.00000000000E+00  0.00000000000E+00  0.10000000000E+04  0.10000000000E+04  0.00000000000E+00 0. -1.
          2   -1    0    0  501    0 -0.00000000000E+00 -0.00000000000E+00 -0.10660549311E+03  0.10660549311E+03  0.00000000000E+00 0. -1.
    9000006    2    1    2  501    0  0.00000000000E+00  0.00000000000E+00  0.89339450689E+03  0.11066054931E+04  0.65300993287E+03 0.  0.
         13    1    3    3    0    0 -0.21810008429E+03  0.14443801057E+03  0.11559247868E+03  0.28599231947E+03  0.00000000000E+00 0. -1.
          4    1    3    3  501    0  0.21810008429E+03 -0.14443801057E+03  0.77780202821E+03  0.82061317364E+03  0.00000000000E+00 0. -1.
<mgrwt>
<rscale>  0 0.65300993E+03</rscale>
<asrwt>0</asrwt>
<pdfrwt beam="1">0</pdfrwt>
<pdfrwt beam="2">  1        2 0.38765716E+00 0.65300993E+03</pdfrwt>
<totfact> 0.44273963E+00</totfact>
</mgrwt>
</event>
<event>
 5    1  0.2344661E-004  0.6548660E+03  0.7818608E-02  0.9797691E-01
         13   -1    0    0    0    0  0.00000000000E+00  0.00000000000E+00  0.10000000000E+04  0.10000000000E+04  0.00000000000E+00 0. -1.
          2   -1    0    0  501    0 -0.00000000000E+00 -0.00000000000E+00 -0.10721237138E+03  0.10721237138E+03  0.00000000000E+00 0. -1.
    9000006    2    1    2  501    0  0.00000000000E+00  0.00000000000E+00  0.89278762862E+03  0.11072123714E+04  0.65486600578E+03 0.  0.
         13    1    3    3    0    0 -0.25872151614E+03 -0.20048511887E+03  0.43115217081E+03  0.54131626634E+03  0.00000000000E+00 0. -1.
          4    1    3    3  501    0  0.25872151614E+03  0.20048511887E+03  0.46163545780E+03  0.56589610505E+03  0.00000000000E+00 0. -1.
<mgrwt>
<rscale>  0 0.65486601E+03</rscale>
<asrwt>0</asrwt>
<pdfrwt beam="1">0</pdfrwt>
<pdfrwt beam="2">  1        2 0.38986399E+00 0.65486601E+03</pdfrwt>
<totfact> 0.43439550E+00</totfact>
</mgrwt>
</event>
<event>
 5    1  0.2344661E-004  0.6495775E+03  0.7818608E-02  0.9807572E-01
         13   -1    0    0    0    0  0.00000000000E+00  0.00000000000E+00  0.10000000000E+04  0.10000000000E+04  0.00000000000E+00 0. -1.
          4   -1    0    0  501    0 -0.00000000000E+00 -0.00000000000E+00 -0.10548771664E+03  0.10548771664E+03  0.00000000000E+00 0. -1.
    9000006    2    1    2  501    0  0.00000000000E+00  0.00000000000E+00  0.89451228336E+03  0.11054877166E+04  0.64957745231E+03 0.  0.
         13    1    3    3    0    0  0.21780088083E+03 -0.23898703592E+03  0.49931430998E+03  0.59486705001E+03  0.00000000000E+00 0. -1.
          4    1    3    3  501    0 -0.21780088083E+03  0.23898703592E+03  0.39519797338E+03  0.51062066663E+03  0.00000000000E+00 0. -1.
<mgrwt>
<rscale>  0 0.64957745E+03</rscale>
<asrwt>0</asrwt>
<pdfrwt beam="1">0</pdfrwt>
<pdfrwt beam="2">  1        4 0.38359251E+00 0.64957745E+03</pdfrwt>
<totfact> 0.41494438E-02</totfact>
</mgrwt>
</event>
<event>
 5    1  0.2344661E-004  0.6339105E+03  0.7818608E-02  0.9837447E-01
         13   -1    0    0    0    0  0.00000000000E+00  0.00000000000E+00  0.10000000000E+04  0.10000000000E+04  0.00000000000E+00 0. -1.
          2   -1    0    0  501    0 -0.00000000000E+00 -0.00000000000E+00 -0.10046063613E+03  0.10046063613E+03  0.00000000000E+00 0. -1.
    9000006    2    1    2  501    0  0.00000000000E+00  0.00000000000E+00  0.89953936387E+03  0.11004606361E+04  0.63391051776E+03 0.  0.
         13    1    3    3    0    0  0.18064533111E+03 -0.14206589695E+03  0.70842249522E+02  0.24048717023E+03  0.00000000000E+00 0. -1.
          4    1    3    3  501    0 -0.18064533111E+03  0.14206589695E+03  0.82869711435E+03  0.85997346590E+03  0.00000000000E+00 0. -1.
<mgrwt>
<rscale>  0 0.63391052E+03</rscale>
<asrwt>0</asrwt>
<pdfrwt beam="1">0</pdfrwt>
<pdfrwt beam="2">  1        2 0.36531217E+00 0.63391052E+03</pdfrwt>
<totfact> 0.53582886E+00</totfact>
</mgrwt>
</event>
<event>
 5    1  0.2344661E-004  0.6540384E+03  0.7818608E-02  0.9799231E-01
         13   -1    0    0    0    0  0.00000000000E+00  0.00000000000E+00  0.10000000000E+04  0.10000000000E+04  0.00000000000E+00 0. -1.
          2   -1    0    0  501    0 -0.00000000000E+00 -0.00000000000E+00 -0.10694156691E+03  0.10694156691E+03  0.00000000000E+00 0. -1.
    9000006    2    1    2  501    0  0.00000000000E+00  0.00000000000E+00  0.89305843309E+03  0.11069415669E+04  0.65403842978E+03 0.  0.
         13    1    3    3    0    0 -0.14520133374E+03  0.66651324525E+02 -0.36391256634E+02  0.16386015361E+03  0.00000000000E+00 0. -1.
          4    1    3    3  501    0  0.14520133374E+03 -0.66651324525E+02  0.92944968973E+03  0.94308141330E+03  0.00000000000E+00 0. -1.
<mgrwt>
<rscale>  0 0.65403843E+03</rscale>
<asrwt>0</asrwt>
<pdfrwt beam="1">0</pdfrwt>
<pdfrwt beam="2">  1        2 0.38887925E+00 0.65403843E+03</pdfrwt>
<totfact> 0.43810112E+00</totfact>
</mgrwt>
</event>
<event>
 5    1  0.2344661E-004  0.6466214E+03  0.7818608E-02  0.9813140E-01
         13   -1    0    0    0    0  0.00000000000E+00  0.00000000000E+00  0.10000000000E+04  0.10000000000E+04  0.00000000000E+00 0. -1.
          2   -1    0    0  501    0 -0.00000000000E+00 -0.00000000000E+00 -0.10452980376E+03  0.10452980376E+03  0.00000000000E+00 0. -1.
    9000006    2    1    2  501    0  0.00000000000E+00  0.00000000000E+00  0.89547019624E+03  0.11045298038E+04  0.64662138461E+03 0.  0.
         13    1    3    3    0    0 -0.27369004203E+03 -0.15646531593E+03  0.32524511565E+03  0.45295918078E+03  0.00000000000E+00 0. -1.
          2    1    3    3  501    0  0.27369004203E+03  0.15646531593E+03  0.57022508059E+03  0.65157062298E+03  0.00000000000E+00 0. -1.
<mgrwt>
<rscale>  0 0.64662138E+03</rscale>
<asrwt>0</asrwt>
<pdfrwt beam="1">0</pdfrwt>
<pdfrwt beam="2">  1        2 0.38010918E+00 0.64662138E+03</pdfrwt>
<totfact> 0.47238864E+00</totfact>
</mgrwt>
</event>
<event>
 5    1  0.2344661E-004  0.6546826E+03  0.7818608E-02  0.9798032E-01
         13   -1    0    0    0    0  0.00000000000E+00  0.00000000000E+00  0.10000000000E+04  0.10000000000E+04  0.00000000000E+00 0. -1.
          2   -1    0    0  501    0 -0.00000000000E+00 -0.00000000000E+00 -0.10715233474E+03  0.10715233474E+03  0.00000000000E+00 0. -1.
    9000006    2    1    2  501    0  0.00000000000E+00  0.00000000000E+00  0.89284766526E+03  0.11071523347E+04  0.65468262461E+03 0.  0.
         13    1    3    3    0    0  0.24288144148E+03  0.64923800066E+02  0.91908149754E+02  0.26768190529E+03  0.00000000000E+00 0. -1.
          4    1    3    3  501    0 -0.24288144148E+03 -0.64923800066E+02  0.80093951550E+03  0.83947042945E+03  0.00000000000E+00 0. -1.
<mgrwt>
<rscale>  0 0.65468262E+03</rscale>
<asrwt>0</asrwt>
<pdfrwt beam="1">0</pdfrwt>
<pdfrwt beam="2">  1        2 0.38964568E+00 0.65468262E+03</pdfrwt>
<totfact> 0.43521457E+00</totfact>
</mgrwt>
</event>
<event>
 5    1  0.2344661E-004  0.6520838E+03  0.7818608E-02  0.9802877E-01
         13   -1    0    0    0    0  0.00000000000E+00  0.00000000000E+00  0.10000000000E+04  0.10000000000E+04  0.00000000000E+00 0. -1.
          2   -1    0    0  501    0 -0.00000000000E+00 -0.00000000000E+00 -0.10630331468E+03  0.10630331468E+03  0.00000000000E+00 0. -1.
    9000006    2    1    2  501    0  0.00000000000E+00  0.00000000000E+00  0.89369668532E+03  0.11063033147E+04  0.65208378198E+03 0.  0.
         13    1    3    3    0    0  0.14041628140E+03 -0.10884832757E+03 -0.16965134718E+02  0.17847270462E+03  0.00000000000E+00 0. -1.
          4    1    3    3  501    0 -0.14041628140E+03  0.10884832757E+03  0.91066182004E+03  0.92783061006E+03  0.00000000000E+00 0. -1.
<mgrwt>
<rscale>  0 0.65208378E+03</rscale>
<asrwt>0</asrwt>
<pdfrwt beam="1">0</pdfrwt>
<pdfrwt beam="2">  1        2 0.38655832E+00 0.65208378E+03</pdfrwt>
<totfact> 0.44694821E+00</totfact>
</mgrwt>
</event>
<event>
 5    1  0.2344661E-004  0.6529422E+03  0.7818608E-02  0.9801274E-01
         13   -1    0    0    0    0  0.00000000000E+00  0.00000000000E+00  0.10000000000E+04  0.10000000000E+04  0.00000000000E+00 0. -1.
          2   -1    0    0  501    0 -0.00000000000E+00 -0.00000000000E+00 -0.10658338800E+03  0.10658338800E+03  0.00000000000E+00 0. -1.
    9000006    2    1    2  501    0  0.00000000000E+00  0.00000000000E+00  0.89341661200E+03  0.11065833880E+04  0.65294222716E+03 0.  0.
         13    1    3    3    0    0  0.13573484332E+03 -0.12514870334E+03  0.90302896780E+03  0.92170899004E+03  0.00000000000E+00 0. -1.
          4    1    3    3  501    0 -0.13573484332E+03  0.12514870334E+03 -0.96123557965E+01  0.18487439796E+03  0.00000000000E+00 0. -1.
<mgrwt>
<rscale>  0 0.65294223E+03</rscale>
<asrwt>0</asrwt>
<pdfrwt beam="1">0</pdfrwt>
<pdfrwt beam="2">  1        2 0.38757677E+00 0.65294223E+03</pdfrwt>
<totfact> 0.44304627E+00</totfact>
</mgrwt>
</event>
<event>
 5    1  0.2344661E-004  0.6583708E+03  0.7818608E-02  0.9791198E-01
         13   -1    0    0    0    0  0.00000000000E+00  0.00000000000E+00  0.10000000000E+04  0.10000000000E+04  0.00000000000E+00 0. -1.
          2   -1    0    0  501    0 -0.00000000000E+00 -0.00000000000E+00 -0.10836302313E+03  0.10836302313E+03  0.00000000000E+00 0. -1.
    9000006    2    1    2  501    0  0.00000000000E+00  0.00000000000E+00  0.89163697687E+03  0.11083630231E+04  0.65837078649E+03 0.  0.
         13    1    3    3    0    0  0.68767737126E+02  0.74593030048E+02 -0.81386299535E+02  0.13006479752E+03  0.00000000000E+00 0. -1.
          4    1    3    3  501    0 -0.68767737126E+02 -0.74593030048E+02  0.97302327641E+03  0.97829822561E+03  0.00000000000E+00 0. -1.
<mgrwt>
<rscale>  0 0.65837079E+03</rscale>
<asrwt>0</asrwt>
<pdfrwt beam="1">0</pdfrwt>
<pdfrwt beam="2">  1        2 0.39404819E+00 0.65837079E+03</pdfrwt>
<totfact> 0.41896394E+00</totfact>
</mgrwt>
</event>
<event>
 5    1  0.2344661E-004  0.6520818E+03  0.7818608E-02  0.9802881E-01
         13   -1    0    0    0    0  0.00000000000E+00  0.00000000000E+00  0.10000000000E+04  0.10000000000E+04  0.00000000000E+00 0. -1.
          2   -1    0    0  501    0 -0.00000000000E+00 -0.00000000000E+00 -0.10630266535E+03  0.10630266535E+03  0.00000000000E+00 0. -1.
    9000006    2    1    2  501    0  0.00000000000E+00  0.00000000000E+00  0.89369733465E+03  0.11063026654E+04  0.65208179043E+03 0.  0.
         13    1    3    3    0    0 -0.17119740980E+03 -0.25094472289E+03  0.24595826618E+03  0.39086733782E+03  0.00000000000E+00 0. -1.
          4    1    3    3  501    0  0.17119740980E+03  0.25094472289E+03  0.64773906847E+03  0.71543532754E+03  0.00000000000E+00 0. -1.
<mgrwt>
<rscale>  0 0.65208179E+03</rscale>
<asrwt>0</asrwt>
<pdfrwt beam="1">0</pdfrwt>
<pdfrwt beam="2">  1        2 0.38655596E+00 0.65208179E+03</pdfrwt>
<totfact> 0.44695729E+00</totfact>
</mgrwt>
</event>
<event>
 5    1  0.2344661E-004  0.6545407E+03  0.7818608E-02  0.9798296E-01
         13   -1    0    0    0    0  0.00000000000E+00  0.00000000000E+00  0.10000000000E+04  0.10000000000E+04  0.00000000000E+00 0. -1.
          2   -1    0    0  501    0 -0.00000000000E+00 -0.00000000000E+00 -0.10710588170E+03  0.10710588170E+03  0.00000000000E+00 0. -1.
    9000006    2    1    2  501    0  0.00000000000E+00  0.00000000000E+00  0.89289411830E+03  0.11071058817E+04  0.65454069912E+03 0.  0.
         13    1    3    3    0    0  0.18787127348E+03 -0.26195663668E+03  0.54196366096E+03  0.63058822118E+03  0.00000000000E+00 0. -1.
          4    1    3    3  501    0 -0.18787127348E+03  0.26195663668E+03  0.35093045734E+03  0.47651766052E+03  0.00000000000E+00 0. -1.
<mgrwt>
<rscale>  0 0.65454070E+03</rscale>
<asrwt>0</asrwt>
<pdfrwt beam="1">0</pdfrwt>
<pdfrwt beam="2">  1        2 0.38947675E+00 0.65454070E+03</pdfrwt>
<totfact> 0.43584928E+00</totfact>
</mgrwt>
</event>
<event>
 5    1  0.2344661E-004  0.6523718E+03  0.7818608E-02  0.9802339E-01
         13   -1    0    0    0    0  0.00000000000E+00  0.00000000000E+00  0.10000000000E+04  0.10000000000E+04  0.00000000000E+00 0. -1.
          2   -1    0    0  501    0 -0.00000000000E+00 -0.00000000000E+00 -0.10639722740E+03  0.10639722740E+03  0.00000000000E+00 0. -1.
    9000006    2    1    2  501    0  0.00000000000E+00  0.00000000000E+00  0.89360277260E+03  0.11063972274E+04  0.65237175719E+03 0.  0.
         13    1    3    3    0    0  0.19267313599E+03 -0.21662254035E+03  0.19326246624E+03  0.34842308072E+03  0.00000000000E+00 0. -1.
          4    1    3    3  501    0 -0.19267313599E+03  0.21662254035E+03  0.70034030636E+03  0.75797414668E+03  0.00000000000E+00 0. -1.
<mgrwt>
<rscale>  0 0.65237176E+03</rscale>
<asrwt>0</asrwt>
<pdfrwt beam="1">0</pdfrwt>
<pdfrwt beam="2">  1        2 0.38689982E+00 0.65237176E+03</pdfrwt>
<totfact> 0.44563638E+00</totfact>
</mgrwt>
</event>
<event>
 5    1  0.2344661E-004  0.6464124E+03  0.7818608E-02  0.9813534E-01
         13   -1    0    0    0    0  0.00000000000E+00  0.00000000000E+00  0.10000000000E+04  0.10000000000E+04  0.00000000000E+00 0. -1.
          2   -1    0    0  501    0 -0.00000000000E+00 -0.00000000000E+00 -0.10446224142E+03  0.10446224142E+03  0.00000000000E+00 0. -1.
    9000006    2    1    2  501    0  0.00000000000E+00  0.00000000000E+00  0.89553775858E+03  0.11044622414E+04  0.64641238053E+03 0.  0.
         13    1    3    3    0    0 -0.14424418343E+03  0.22781937636E+03  0.75223692397E+03  0.79910477566E+03  0.00000000000E+00 0. -1.
          4    1    3    3  501    0  0.14424418343E+03 -0.22781937636E+03  0.14330083461E+03  0.30535746576E+03  0.00000000000E+00 0. -1.
<mgrwt>
<rscale>  0 0.64641238E+03</rscale>
<asrwt>0</asrwt>
<pdfrwt beam="1">0</pdfrwt>
<pdfrwt beam="2">  1        2 0.37986350E+00 0.64641238E+03</pdfrwt>
<totfact> 0.47338330E+00</totfact>
</mgrwt>
</event>
<event>
 5    1  0.2344661E-004  0.6400237E+03  0.7818608E-02  0.9825681E-01
         13   -1    0    0    0    0  0.00000000000E+00  0.00000000000E+00  0.10000000000E+04  0.10000000000E+04  0.00000000000E+00 0. -1.
          2   -1    0    0  501    0 -0.00000000000E+00 -0.00000000000E+00 -0.10240757955E+03  0.10240757955E+03  0.00000000000E+00 0. -1.
    9000006    2    1    2  501    0  0.00000000000E+00  0.00000000000E+00  0.89759242045E+03  0.11024075796E+04  0.64002368567E+03 0.  0.
         13    1    3    3    0    0  0.58993221960E+02  0.16043227981E+03  0.91477767697E+03  0.93061104384E+03  0.00000000000E+00 0. -1.
          4    1    3    3  501    0 -0.58993221960E+02 -0.16043227981E+03 -0.17185256521E+02  0.17179653571E+03  0.00000000000E+00 0. -1.
<mgrwt>
<rscale>  0 0.64002369E+03</rscale>
<asrwt>0</asrwt>
<pdfrwt beam="1">0</pdfrwt>
<pdfrwt beam="2">  1        2 0.37239198E+00 0.64002369E+03</pdfrwt>
<totfact> 0.50456127E+00</totfact>
</mgrwt>
</event>
<event>
 5    1  0.2344661E-004  0.6577434E+03  0.7818608E-02  0.9792357E-01
         13   -1    0    0    0    0  0.00000000000E+00  0.00000000000E+00  0.10000000000E+04  0.10000000000E+04  0.00000000000E+00 0. -1.
          2   -1    0    0  501    0 -0.00000000000E+00 -0.00000000000E+00 -0.10815659011E+03  0.10815659011E+03  0.00000000000E+00 0. -1.
    9000006    2    1    2  501    0  0.00000000000E+00  0.00000000000E+00  0.89184340989E+03  0.11081565901E+04  0.65774338494E+03 0.  0.
         13    1    3    3    0    0 -0.23261046366E+03  0.23306224386E+02  0.83563480371E+03  0.86771904040E+03  0.00000000000E+00 0. -1.
          4    1    3    3  501    0  0.23261046366E+03 -0.23306224386E+02  0.56208606185E+02  0.24043754971E+03  0.00000000000E+00 0. -1.
<mgrwt>
<rscale>  0 0.65774338E+03</rscale>
<asrwt>0</asrwt>
<pdfrwt beam="1">0</pdfrwt>
<pdfrwt beam="2">  1        2 0.39329752E+00 0.65774338E+03</pdfrwt>
<totfact> 0.42169544E+00</totfact>
</mgrwt>
</event>
<event>
 5    1  0.2344661E-004  0.6623452E+03  0.7818608E-02  0.9783886E-01
         13   -1    0    0    0    0  0.00000000000E+00  0.00000000000E+00  0.10000000000E+04  0.10000000000E+04  0.00000000000E+00 0. -1.
          2   -1    0    0  501    0 -0.00000000000E+00 -0.00000000000E+00 -0.10967530540E+03  0.10967530540E+03  0.00000000000E+00 0. -1.
    9000006    2    1    2  501    0  0.00000000000E+00  0.00000000000E+00  0.89032469460E+03  0.11096753054E+04  0.66234524351E+03 0.  0.
         13    1    3    3    0    0 -0.28604775445E+02 -0.30428965910E+03  0.65882906194E+03  0.72626865736E+03  0.00000000000E+00 0. -1.
          4    1    3    3  501    0  0.28604775445E+02  0.30428965910E+03  0.23149563266E+03  0.38340664804E+03  0.00000000000E+00 0. -1.
<mgrwt>
<rscale>  0 0.66234524E+03</rscale>
<asrwt>0</asrwt>
<pdfrwt beam="1">0</pdfrwt>
<pdfrwt beam="2">  1        2 0.39882013E+00 0.66234524E+03</pdfrwt>
<totfact> 0.40197053E+00</totfact>
</mgrwt>
</event>
<event>
 5    1  0.2344661E-004  0.6565315E+03  0.7818608E-02  0.9794600E-01
         13   -1    0    0    0    0  0.00000000000E+00  0.00000000000E+00  0.10000000000E+04  0.10000000000E+04  0.00000000000E+00 0. -1.
          2   -1    0    0  501    0 -0.00000000000E+00 -0.00000000000E+00 -0.10775840652E+03  0.10775840652E+03  0.00000000000E+00 0. -1.
    9000006    2    1    2  501    0  0.00000000000E+00  0.00000000000E+00  0.89224159348E+03  0.11077584065E+04  0.65653151188E+03 0.  0.
         13    1    3    3    0    0  0.33199196889E+02  0.32371547722E+03  0.51897788270E+03  0.61256178431E+03  0.00000000000E+00 0. -1.
          4    1    3    3  501    0 -0.33199196889E+02 -0.32371547722E+03  0.37326371078E+03  0.49519662222E+03  0.00000000000E+00 0. -1.
<mgrwt>
<rscale>  0 0.65653151E+03</rscale>
<asrwt>0</asrwt>
<pdfrwt beam="1">0</pdfrwt>
<pdfrwt beam="2">  1        2 0.39184958E+00 0.65653151E+03</pdfrwt>
<totfact> 0.42700968E+00</totfact>
</mgrwt>
</event>
<event>
 5    1  0.2344661E-004  0.6439719E+03  0.7818608E-02  0.9818157E-01
         13   -1    0    0    0    0  0.00000000000E+00  0.00000000000E+00  0.10000000000E+04  0.10000000000E+04  0.00000000000E+00 0. -1.
          2   -1    0    0  501    0 -0.00000000000E+00 -0.00000000000E+00 -0.10367495774E+03  0.10367495774E+03  0.00000000000E+00 0. -1.
    9000006    2    1    2  501    0  0.00000000000E+00  0.00000000000E+00  0.89632504226E+03  0.11036749577E+04  0.64397191783E+03 0.  0.
         13    1    3    3    0    0  0.20587826982E+03  0.20696985036E+03  0.68097313187E+03  0.74090943257E+03  0.00000000000E+00 0. -1.
          2    1    3    3  501    0 -0.20587826982E+03 -0.20696985036E+03  0.21535191039E+03  0.36276552517E+03  0.00000000000E+00 0. -1.
<mgrwt>
<rscale>  0 0.64397192E+03</rscale>
<asrwt>0</asrwt>
<pdfrwt beam="1">0</pdfrwt>
<pdfrwt beam="2">  1        2 0.37700064E+00 0.64397192E+03</pdfrwt>
<totfact> 0.48511531E+00</totfact>
</mgrwt>
</event>
<event>
 5    1  0.2344661E-004  0.6535126E+03  0.7818608E-02  0.9800210E-01
         13   -1    0    0    0    0  0.00000000000E+00  0.00000000000E+00  0.10000000000E+04  0.10000000000E+04  0.00000000000E+00 0. -1.
          2   -1    0    0  501    0 -0.00000000000E+00 -0.00000000000E+00 -0.10676968256E+03  0.10676968256E+03  0.00000000000E+00 0. -1.
    9000006    2    1    2  501    0  0.00000000000E+00  0.00000000000E+00  0.89323031744E+03  0.11067696826E+04  0.65351260910E+03 0.  0.
         13    1    3    3    0    0  0.19333858524E+02 -0.27988733270E+03  0.16292837076E+03  0.32443238292E+03  0.00000000000E+00 0. -1.
          2    1    3    3  501    0 -0.19333858524E+02  0.27988733270E+03  0.73030194668E+03  0.78233729964E+03  0.00000000000E+00 0. -1.
<mgrwt>
<rscale>  0 0.65351261E+03</rscale>
<asrwt>0</asrwt>
<pdfrwt beam="1">0</pdfrwt>
<pdfrwt beam="2">  1        2 0.38825421E+00 0.65351261E+03</pdfrwt>
<totfact> 0.44046795E+00</totfact>
</mgrwt>
</event>
<event>
 5    1  0.2344661E-004  0.6526779E+03  0.7818608E-02  0.9801767E-01
         13   -1    0    0    0    0  0.00000000000E+00  0.00000000000E+00  0.10000000000E+04  0.10000000000E+04  0.00000000000E+00 0. -1.
          2   -1    0    0  501    0 -0.00000000000E+00 -0.00000000000E+00 -0.10649710045E+03  0.10649710045E+03  0.00000000000E+00 0. -1.
    9000006    2    1    2  501    0  0.00000000000E+00  0.00000000000E+00  0.89350289955E+03  0.11064971005E+04  0.65267786987E+03 0.  0.
         13    1    3    3    0    0  0.23250690378E+03 -0.25409670650E+02  0.83256962864E+03  0.86479899295E+03  0.00000000000E+00 0. -1.
          2    1    3    3  501    0 -0.23250690378E+03  0.25409670650E+02  0.60933270902E+02  0.24169810750E+03  0.00000000000E+00 0. -1.
<mgrwt>
<rscale>  0 0.65267787E+03</rscale>
<asrwt>0</asrwt>
<pdfrwt beam="1">0</pdfrwt>
<pdfrwt beam="2">  1        2 0.38726300E+00 0.65267787E+03</pdfrwt>
<totfact> 0.44424512E+00</totfact>
</mgrwt>
</event>
<event>
 5    1  0.2344661E-004  0.6184977E+03  0.7818608E-02  0.9867755E-01
         13   -1    0    0    0    0  0.00000000000E+00  0.00000000000E+00  0.10000000000E+04  0.10000000000E+04  0.00000000000E+00 0. -1.
          2   -1    0    0  501    0 -0.00000000000E+00 -0.00000000000E+00 -0.95634864549E+02  0.95634864549E+02  0.00000000000E+00 0. -1.
    9000006    2    1    2  501    0  0.00000000000E+00  0.00000000000E+00  0.90436513545E+03  0.10956348645E+04  0.61849774308E+03 0.  0.
         13    1    3    3    0    0 -0.29593601381E+02  0.71635033121E+02  0.98251523404E+03  0.98556762545E+03  0.00000000000E+00 0. -1.
          2    1    3    3  501    0  0.29593601381E+02 -0.71635033121E+02 -0.78150098591E+02  0.11006723910E+03  0.00000000000E+00 0. -1.
<mgrwt>
<rscale>  0 0.61849774E+03</rscale>
<asrwt>0</asrwt>
<pdfrwt beam="1">0</pdfrwt>
<pdfrwt beam="2">  1        2 0.34776388E+00 0.61849774E+03</pdfrwt>
<totfact> 0.62120084E+00</totfact>
</mgrwt>
</event>
<event>
 5    1  0.2344661E-004  0.6548745E+03  0.7818608E-02  0.9797675E-01
         13   -1    0    0    0    0  0.00000000000E+00  0.00000000000E+00  0.10000000000E+04  0.10000000000E+04  0.00000000000E+00 0. -1.
          2   -1    0    0  501    0 -0.00000000000E+00 -0.00000000000E+00 -0.10721516406E+03  0.10721516406E+03  0.00000000000E+00 0. -1.
    9000006    2    1    2  501    0  0.00000000000E+00  0.00000000000E+00  0.89278483594E+03  0.11072151641E+04  0.65487453473E+03 0.  0.
         13    1    3    3    0    0 -0.78690175118E+02 -0.18092242711E+02  0.98290432611E+03  0.98621518301E+03  0.00000000000E+00 0. -1.
          2    1    3    3  501    0  0.78690175118E+02  0.18092242711E+02 -0.90119490168E+02  0.12099998105E+03  0.00000000000E+00 0. -1.
<mgrwt>
<rscale>  0 0.65487453E+03</rscale>
<asrwt>0</asrwt>
<pdfrwt beam="1">0</pdfrwt>
<pdfrwt beam="2">  1        2 0.38987415E+00 0.65487453E+03</pdfrwt>
<totfact> 0.43435743E+00</totfact>
</mgrwt>
</event>
<event>
 5    1  0.2344661E-004  0.6550677E+03  0.7818608E-02  0.9797316E-01
         13   -1    0    0    0    0  0.00000000000E+00  0.00000000000E+00  0.10000000000E+04  0.10000000000E+04  0.00000000000E+00 0. -1.
          2   -1    0    0  501    0 -0.00000000000E+00 -0.00000000000E+00 -0.10727843667E+03  0.10727843667E+03  0.00000000000E+00 0. -1.
    9000006    2    1    2  501    0  0.00000000000E+00  0.00000000000E+00  0.89272156333E+03  0.11072784367E+04  0.65506774204E+03 0.  0.
         13    1    3    3    0    0 -0.15341131040E+03 -0.14084036326E+03  0.19047690047E+02  0.20912640335E+03  0.00000000000E+00 0. -1.
          4    1    3    3  501    0  0.15341131040E+03  0.14084036326E+03  0.87367387329E+03  0.89815203331E+03  0.00000000000E+00 0. -1.
<mgrwt>
<rscale>  0 0.65506774E+03</rscale>
<asrwt>0</asrwt>
<pdfrwt beam="1">0</pdfrwt>
<pdfrwt beam="2">  1        2 0.39010423E+00 0.65506774E+03</pdfrwt>
<totfact> 0.43349579E+00</totfact>
</mgrwt>
</event>
<event>
 5    1  0.2344661E-004  0.6614309E+03  0.7818608E-02  0.9785563E-01
         13   -1    0    0    0    0  0.00000000000E+00  0.00000000000E+00  0.10000000000E+04  0.10000000000E+04  0.00000000000E+00 0. -1.
          2   -1    0    0  501    0 -0.00000000000E+00 -0.00000000000E+00 -0.10937270783E+03  0.10937270783E+03  0.00000000000E+00 0. -1.
    9000006    2    1    2  501    0  0.00000000000E+00  0.00000000000E+00  0.89062729217E+03  0.11093727078E+04  0.66143089685E+03 0.  0.
         13    1    3    3    0    0  0.59462684773E+02  0.68116218052E+02  0.97886593263E+03  0.98303313480E+03  0.00000000000E+00 0. -1.
          4    1    3    3  501    0 -0.59462684773E+02 -0.68116218052E+02 -0.88238640461E+02  0.12633957303E+03  0.00000000000E+00 0. -1.
<mgrwt>
<rscale>  0 0.66143090E+03</rscale>
<asrwt>0</asrwt>
<pdfrwt beam="1">0</pdfrwt>
<pdfrwt beam="2">  1        2 0.39771978E+00 0.66143090E+03</pdfrwt>
<totfact> 0.40583302E+00</totfact>
</mgrwt>
</event>
<event>
 5    1  0.2344661E-004  0.6871236E+03  0.7818608E-02  0.9739509E-01
         13   -1    0    0    0    0  0.00000000000E+00  0.00000000000E+00  0.10000000000E+04  0.10000000000E+04  0.00000000000E+00 0. -1.
          2   -1    0    0  501    0 -0.00000000000E+00 -0.00000000000E+00 -0.11803472592E+03  0.11803472592E+03  0.00000000000E+00 0. -1.
    9000006    2    1    2  501    0  0.00000000000E+00  0.00000000000E+00  0.88196527408E+03  0.11180347259E+04  0.68712364512E+03 0.  0.
         13    1    3    3    0    0  0.10615002192E+03 -0.21863891569E+03  0.83608860132E+03  0.87069796822E+03  0.00000000000E+00 0. -1.
          4    1    3    3  501    0 -0.10615002192E+03  0.21863891569E+03  0.45876672758E+02  0.24733675770E+03  0.00000000000E+00 0. -1.
<mgrwt>
<rscale>  0 0.68712365E+03</rscale>
<asrwt>0</asrwt>
<pdfrwt beam="1">0</pdfrwt>
<pdfrwt beam="2">  1        2 0.42921809E+00 0.68712365E+03</pdfrwt>
<totfact> 0.30743709E+00</totfact>
</mgrwt>
</event>
<event>
 5    1  0.2344661E-004  0.4951230E+03  0.7818608E-02  0.1015060E+00
         13   -1    0    0    0    0  0.00000000000E+00  0.00000000000E+00  0.10000000000E+04  0.10000000000E+04  0.00000000000E+00 0. -1.
          2   -1    0    0  501    0 -0.00000000000E+00 -0.00000000000E+00 -0.61286685215E+02  0.61286685215E+02  0.00000000000E+00 0. -1.
    9000006    2    1    2  501    0  0.00000000000E+00  0.00000000000E+00  0.93871331478E+03  0.10612866852E+04  0.49512295530E+03 0.  0.
         13    1    3    3    0    0 -0.20379199305E+03 -0.13918336135E+03  0.42738049436E+03  0.49351521909E+03  0.00000000000E+00 0. -1.
          4    1    3    3  501    0  0.20379199305E+03  0.13918336135E+03  0.51133282042E+03  0.56777146613E+03  0.00000000000E+00 0. -1.
<mgrwt>
<rscale>  0 0.49512296E+03</rscale>
<asrwt>0</asrwt>
<pdfrwt beam="1">0</pdfrwt>
<pdfrwt beam="2">  1        2 0.22286114E+00 0.49512296E+03</pdfrwt>
<totfact> 0.17481943E+01</totfact>
</mgrwt>
</event>
<event>
 5    1  0.2344661E-004  0.6444399E+03  0.7818608E-02  0.9817269E-01
         13   -1    0    0    0    0  0.00000000000E+00  0.00000000000E+00  0.10000000000E+04  0.10000000000E+04  0.00000000000E+00 0. -1.
          2   -1    0    0  501    0 -0.00000000000E+00 -0.00000000000E+00 -0.10382570665E+03  0.10382570665E+03  0.00000000000E+00 0. -1.
    9000006    2    1    2  501    0  0.00000000000E+00  0.00000000000E+00  0.89617429335E+03  0.11038257067E+04  0.64443993251E+03 0.  0.
         13    1    3    3    0    0  0.29569005557E+03  0.10066767312E+03  0.31257612950E+03  0.44189413450E+03  0.00000000000E+00 0. -1.
          4    1    3    3  501    0 -0.29569005557E+03 -0.10066767312E+03  0.58359816385E+03  0.66193157216E+03  0.00000000000E+00 0. -1.
<mgrwt>
<rscale>  0 0.64443993E+03</rscale>
<asrwt>0</asrwt>
<pdfrwt beam="1">0</pdfrwt>
<pdfrwt beam="2">  1        2 0.37754882E+00 0.64443993E+03</pdfrwt>
<totfact> 0.48284857E+00</totfact>
</mgrwt>
</event>
<event>
 5    1  0.2344661E-004  0.6432951E+03  0.7818608E-02  0.9819442E-01
         13   -1    0    0    0    0  0.00000000000E+00  0.00000000000E+00  0.10000000000E+04  0.10000000000E+04  0.00000000000E+00 0. -1.
          2   -1    0    0  501    0 -0.00000000000E+00 -0.00000000000E+00 -0.10345714894E+03  0.10345714894E+03  0.00000000000E+00 0. -1.
    9000006    2    1    2  501    0  0.00000000000E+00  0.00000000000E+00  0.89654285106E+03  0.11034571489E+04  0.64329510783E+03 0.  0.
         13    1    3    3    0    0  0.24108509839E+03  0.13743847766E+02  0.81273654679E+03  0.84785117356E+03  0.00000000000E+00 0. -1.
          4    1    3    3  501    0 -0.24108509839E+03 -0.13743847766E+02  0.83806304274E+02  0.25560597538E+03  0.00000000000E+00 0. -1.
<mgrwt>
<rscale>  0 0.64329511E+03</rscale>
<asrwt>0</asrwt>
<pdfrwt beam="1">0</pdfrwt>
<pdfrwt beam="2">  1        2 0.37620861E+00 0.64329511E+03</pdfrwt>
<totfact> 0.48840756E+00</totfact>
</mgrwt>
</event>
<event>
 5    1  0.2344661E-004  0.6461012E+03  0.7818608E-02  0.9814123E-01
         13   -1    0    0    0    0  0.00000000000E+00  0.00000000000E+00  0.10000000000E+04  0.10000000000E+04  0.00000000000E+00 0. -1.
          2   -1    0    0  501    0 -0.00000000000E+00 -0.00000000000E+00 -0.10436170110E+03  0.10436170110E+03  0.00000000000E+00 0. -1.
    9000006    2    1    2  501    0  0.00000000000E+00  0.00000000000E+00  0.89563829890E+03  0.11043617011E+04  0.64610123385E+03 0.  0.
         13    1    3    3    0    0  0.99283717685E+02  0.25781312636E+03  0.16161543217E+03  0.32006938722E+03  0.00000000000E+00 0. -1.
          2    1    3    3  501    0 -0.99283717685E+02 -0.25781312636E+03  0.73402286673E+03  0.78429231387E+03  0.00000000000E+00 0. -1.
<mgrwt>
<rscale>  0 0.64610123E+03</rscale>
<asrwt>0</asrwt>
<pdfrwt beam="1">0</pdfrwt>
<pdfrwt beam="2">  1        2 0.37949790E+00 0.64610123E+03</pdfrwt>
<totfact> 0.47486701E+00</totfact>
</mgrwt>
</event>
<event>
 5    1  0.2344661E-004  0.6662456E+03  0.7818608E-02  0.9776764E-01
         13   -1    0    0    0    0  0.00000000000E+00  0.00000000000E+00  0.10000000000E+04  0.10000000000E+04  0.00000000000E+00 0. -1.
          2   -1    0    0  501    0 -0.00000000000E+00 -0.00000000000E+00 -0.11097081327E+03  0.11097081327E+03  0.00000000000E+00 0. -1.
    9000006    2    1    2  501    0  0.00000000000E+00  0.00000000000E+00  0.88902918673E+03  0.11109708133E+04  0.66624564021E+03 0.  0.
         13    1    3    3    0    0  0.70730932371E+02 -0.71358315760E+02  0.97413177418E+03  0.97929953921E+03  0.00000000000E+00 0. -1.
          4    1    3    3  501    0 -0.70730932371E+02  0.71358315760E+02 -0.85102587456E+02  0.13167127407E+03  0.00000000000E+00 0. -1.
<mgrwt>
<rscale>  0 0.66624564E+03</rscale>
<asrwt>0</asrwt>
<pdfrwt beam="1">0</pdfrwt>
<pdfrwt beam="2">  1        2 0.40353108E+00 0.66624564E+03</pdfrwt>
<totfact> 0.38580452E+00</totfact>
</mgrwt>
</event>
<event>
 5    1  0.2344661E-004  0.6549001E+03  0.7818608E-02  0.9797628E-01
         13   -1    0    0    0    0  0.00000000000E+00  0.00000000000E+00  0.10000000000E+04  0.10000000000E+04  0.00000000000E+00 0. -1.
          2   -1    0    0  501    0 -0.00000000000E+00 -0.00000000000E+00 -0.10722352672E+03  0.10722352672E+03  0.00000000000E+00 0. -1.
    9000006    2    1    2  501    0  0.00000000000E+00  0.00000000000E+00  0.89277647328E+03  0.11072235267E+04  0.65490007395E+03 0.  0.
         13    1    3    3    0    0 -0.12495984546E+02 -0.78824627326E+02 -0.90528508113E+02  0.12068505410E+03  0.00000000000E+00 0. -1.
          4    1    3    3  501    0  0.12495984546E+02  0.78824627326E+02  0.98330498140E+03  0.98653847261E+03  0.00000000000E+00 0. -1.
<mgrwt>
<rscale>  0 0.65490007E+03</rscale>
<asrwt>0</asrwt>
<pdfrwt beam="1">0</pdfrwt>
<pdfrwt beam="2">  1        2 0.38990456E+00 0.65490007E+03</pdfrwt>
<totfact> 0.43424346E+00</totfact>
</mgrwt>
</event>
<event>
 5    1  0.2344661E-004  0.6586207E+03  0.7818608E-02  0.9790736E-01
         13   -1    0    0    0    0  0.00000000000E+00  0.00000000000E+00  0.10000000000E+04  0.10000000000E+04  0.00000000000E+00 0. -1.
          2   -1    0    0  501    0 -0.00000000000E+00 -0.00000000000E+00 -0.10844531616E+03  0.10844531616E+03  0.00000000000E+00 0. -1.
    9000006    2    1    2  501    0  0.00000000000E+00  0.00000000000E+00  0.89155468384E+03  0.11084453162E+04  0.65862072898E+03 0.  0.
         13    1    3    3    0    0  0.19653327793E+00 -0.10517335491E+03 -0.79419772894E+02  0.13179140160E+03  0.00000000000E+00 0. -1.
          4    1    3    3  501    0 -0.19653327793E+00  0.10517335491E+03  0.97097445673E+03  0.97665391457E+03  0.00000000000E+00 0. -1.
<mgrwt>
<rscale>  0 0.65862073E+03</rscale>
<asrwt>0</asrwt>
<pdfrwt beam="1">0</pdfrwt>
<pdfrwt beam="2">  1        2 0.39434744E+00 0.65862073E+03</pdfrwt>
<totfact> 0.41787957E+00</totfact>
</mgrwt>
</event>
<event>
 5    1  0.2344661E-004  0.6642079E+03  0.7818608E-02  0.9780478E-01
         13   -1    0    0    0    0  0.00000000000E+00  0.00000000000E+00  0.10000000000E+04  0.10000000000E+04  0.00000000000E+00 0. -1.
          2   -1    0    0  501    0 -0.00000000000E+00 -0.00000000000E+00 -0.11029303252E+03  0.11029303252E+03  0.00000000000E+00 0. -1.
    9000006    2    1    2  501    0  0.00000000000E+00  0.00000000000E+00  0.88970696748E+03  0.11102930325E+04  0.66420789672E+03 0.  0.
         13    1    3    3    0    0 -0.96764248263E+02  0.30676536915E+03  0.30675909473E+03  0.44448785546E+03  0.00000000000E+00 0. -1.
          4    1    3    3  501    0  0.96764248263E+02 -0.30676536915E+03  0.58294787276E+03  0.66580517706E+03  0.00000000000E+00 0. -1.
<mgrwt>
<rscale>  0 0.66420790E+03</rscale>
<asrwt>0</asrwt>
<pdfrwt beam="1">0</pdfrwt>
<pdfrwt beam="2">  1        2 0.40106642E+00 0.66420790E+03</pdfrwt>
<totfact> 0.39418794E+00</totfact>
</mgrwt>
</event>
<event>
 5    1  0.2344661E-004  0.6604324E+03  0.7818608E-02  0.9787398E-01
         13   -1    0    0    0    0  0.00000000000E+00  0.00000000000E+00  0.10000000000E+04  0.10000000000E+04  0.00000000000E+00 0. -1.
          2   -1    0    0  501    0 -0.00000000000E+00 -0.00000000000E+00 -0.10904275510E+03  0.10904275510E+03  0.00000000000E+00 0. -1.
    9000006    2    1    2  501    0  0.00000000000E+00  0.00000000000E+00  0.89095724490E+03  0.11090427551E+04  0.66043244953E+03 0.  0.
         13    1    3    3    0    0  0.59778511090E+02  0.32378101653E+03  0.40315781464E+03  0.52052266095E+03  0.00000000000E+00 0. -1.
          4    1    3    3  501    0 -0.59778511090E+02 -0.32378101653E+03  0.48779943026E+03  0.58852009415E+03  0.00000000000E+00 0. -1.
<mgrwt>
<rscale>  0 0.66043245E+03</rscale>
<asrwt>0</asrwt>
<pdfrwt beam="1">0</pdfrwt>
<pdfrwt beam="2">  1        2 0.39651995E+00 0.66043245E+03</pdfrwt>
<totfact> 0.41008270E+00</totfact>
</mgrwt>
</event>
<event>
 5    1  0.2344661E-004  0.6572061E+03  0.7818608E-02  0.9793351E-01
         13   -1    0    0    0    0  0.00000000000E+00  0.00000000000E+00  0.10000000000E+04  0.10000000000E+04  0.00000000000E+00 0. -1.
          2   -1    0    0  501    0 -0.00000000000E+00 -0.00000000000E+00 -0.10797996743E+03  0.10797996743E+03  0.00000000000E+00 0. -1.
    9000006    2    1    2  501    0  0.00000000000E+00  0.00000000000E+00  0.89202003257E+03  0.11079799674E+04  0.65720610902E+03 0.  0.
         13    1    3    3    0    0  0.32165089146E+03  0.53193347158E+02  0.37668020718E+03  0.49817347043E+03  0.00000000000E+00 0. -1.
          4    1    3    3  501    0 -0.32165089146E+03 -0.53193347158E+02  0.51533982539E+03  0.60980649700E+03  0.00000000000E+00 0. -1.
<mgrwt>
<rscale>  0 0.65720611E+03</rscale>
<asrwt>0</asrwt>
<pdfrwt beam="1">0</pdfrwt>
<pdfrwt beam="2">  1        2 0.39265526E+00 0.65720611E+03</pdfrwt>
<totfact> 0.42404527E+00</totfact>
</mgrwt>
</event>
<event>
 5    1  0.2344661E-004  0.6503351E+03  0.7818608E-02  0.9806151E-01
         13   -1    0    0    0    0  0.00000000000E+00  0.00000000000E+00  0.10000000000E+04  0.10000000000E+04  0.00000000000E+00 0. -1.
          2   -1    0    0  501    0 -0.00000000000E+00 -0.00000000000E+00 -0.10573392200E+03  0.10573392200E+03  0.00000000000E+00 0. -1.
    9000006    2    1    2  501    0  0.00000000000E+00  0.00000000000E+00  0.89426607800E+03  0.11057339220E+04  0.65033505827E+03 0.  0.
         13    1    3    3    0    0  0.11524397057E+03 -0.99948417421E+01  0.96383323152E+03  0.97075000273E+03  0.00000000000E+00 0. -1.
          2    1    3    3  501    0 -0.11524397057E+03  0.99948417421E+01 -0.69567153522E+02  0.13498391928E+03  0.00000000000E+00 0. -1.
<mgrwt>
<rscale>  0 0.65033506E+03</rscale>
<asrwt>0</asrwt>
<pdfrwt beam="1">0</pdfrwt>
<pdfrwt beam="2">  1        2 0.38448780E+00 0.65033506E+03</pdfrwt>
<totfact> 0.45497703E+00</totfact>
</mgrwt>
</event>
<event>
 5    1  0.2344661E-004  0.6553331E+03  0.7818608E-02  0.9796823E-01
         13   -1    0    0    0    0  0.00000000000E+00  0.00000000000E+00  0.10000000000E+04  0.10000000000E+04  0.00000000000E+00 0. -1.
          4   -1    0    0  501    0 -0.00000000000E+00 -0.00000000000E+00 -0.10736537550E+03  0.10736537550E+03  0.00000000000E+00 0. -1.
    9000006    2    1    2  501    0  0.00000000000E+00  0.00000000000E+00  0.89263462450E+03  0.11073653755E+04  0.65533312292E+03 0.  0.
         13    1    3    3    0    0 -0.11535426257E+03 -0.15137746295E+02  0.96392270857E+03  0.97091850603E+03  0.00000000000E+00 0. -1.
          2    1    3    3  501    0  0.11535426257E+03  0.15137746295E+02 -0.71288084069E+02  0.13644686947E+03  0.00000000000E+00 0. -1.
<mgrwt>
<rscale>  0 0.65533312E+03</rscale>
<asrwt>0</asrwt>
<pdfrwt beam="1">0</pdfrwt>
<pdfrwt beam="2">  1        4 0.39042037E+00 0.65533312E+03</pdfrwt>
<totfact> 0.37292710E-02</totfact>
</mgrwt>
</event>
<event>
 5    1  0.2344661E-004  0.6303869E+03  0.7818608E-02  0.9844294E-01
         13   -1    0    0    0    0  0.00000000000E+00  0.00000000000E+00  0.10000000000E+04  0.10000000000E+04  0.00000000000E+00 0. -1.
          2   -1    0    0  501    0 -0.00000000000E+00 -0.00000000000E+00 -0.99346924528E+02  0.99346924528E+02  0.00000000000E+00 0. -1.
    9000006    2    1    2  501    0  0.00000000000E+00  0.00000000000E+00  0.90065307547E+03  0.10993469245E+04  0.63038694316E+03 0.  0.
         13    1    3    3    0    0 -0.65253776622E+02  0.13872548698E+03  0.93059988008E+03  0.94314312430E+03  0.00000000000E+00 0. -1.
          2    1    3    3  501    0  0.65253776622E+02 -0.13872548698E+03 -0.29946804608E+02  0.15620380023E+03  0.00000000000E+00 0. -1.
<mgrwt>
<rscale>  0 0.63038694E+03</rscale>
<asrwt>0</asrwt>
<pdfrwt beam="1">0</pdfrwt>
<pdfrwt beam="2">  1        2 0.36126231E+00 0.63038694E+03</pdfrwt>
<totfact> 0.55450593E+00</totfact>
</mgrwt>
</event>
<event>
 5    1  0.2344661E-004  0.6573213E+03  0.7818608E-02  0.9793137E-01
         13   -1    0    0    0    0  0.00000000000E+00  0.00000000000E+00  0.10000000000E+04  0.10000000000E+04  0.00000000000E+00 0. -1.
          2   -1    0    0  501    0 -0.00000000000E+00 -0.00000000000E+00 -0.10801783729E+03  0.10801783729E+03  0.00000000000E+00 0. -1.
    9000006    2    1    2  501    0  0.00000000000E+00  0.00000000000E+00  0.89198216271E+03  0.11080178373E+04  0.65732134391E+03 0.  0.
         13    1    3    3    0    0  0.29276470828E+03 -0.13293642584E+03  0.56074663691E+03  0.64639002045E+03  0.00000000000E+00 0. -1.
          4    1    3    3  501    0 -0.29276470828E+03  0.13293642584E+03  0.33123552580E+03  0.46162781684E+03  0.00000000000E+00 0. -1.
<mgrwt>
<rscale>  0 0.65732134E+03</rscale>
<asrwt>0</asrwt>
<pdfrwt beam="1">0</pdfrwt>
<pdfrwt beam="2">  1        2 0.39279296E+00 0.65732134E+03</pdfrwt>
<totfact> 0.42354045E+00</totfact>
</mgrwt>
</event>
<event>
 5    1  0.2344661E-004  0.6506699E+03  0.7818608E-02  0.9805523E-01
         13   -1    0    0    0    0  0.00000000000E+00  0.00000000000E+00  0.10000000000E+04  0.10000000000E+04  0.00000000000E+00 0. -1.
          2   -1    0    0  501    0 -0.00000000000E+00 -0.00000000000E+00 -0.10584283245E+03  0.10584283245E+03  0.00000000000E+00 0. -1.
    9000006    2    1    2  501    0  0.00000000000E+00  0.00000000000E+00  0.89415716755E+03  0.11058428324E+04  0.65066990847E+03 0.  0.
         13    1    3    3    0    0 -0.26829346558E+03 -0.11048982318E+03  0.19698864907E+03  0.35070487958E+03  0.00000000000E+00 0. -1.
          4    1    3    3  501    0  0.26829346558E+03  0.11048982318E+03  0.69716851848E+03  0.75513795287E+03  0.00000000000E+00 0. -1.
<mgrwt>
<rscale>  0 0.65066991E+03</rscale>
<asrwt>0</asrwt>
<pdfrwt beam="1">0</pdfrwt>
<pdfrwt beam="2">  1        2 0.38488384E+00 0.65066991E+03</pdfrwt>
<totfact> 0.45343128E+00</totfact>
</mgrwt>
</event>
<event>
 5    1  0.2344661E-004  0.6147698E+03  0.7818608E-02  0.9875229E-01
         13   -1    0    0    0    0  0.00000000000E+00  0.00000000000E+00  0.10000000000E+04  0.10000000000E+04  0.00000000000E+00 0. -1.
          2   -1    0    0  501    0 -0.00000000000E+00 -0.00000000000E+00 -0.94485465433E+02  0.94485465433E+02  0.00000000000E+00 0. -1.
    9000006    2    1    2  501    0  0.00000000000E+00  0.00000000000E+00  0.90551453457E+03  0.10944854654E+04  0.61476976319E+03 0.  0.
         13    1    3    3    0    0  0.14523793017E+03  0.10773041618E+03  0.89528553336E+03  0.91336525288E+03  0.00000000000E+00 0. -1.
          2    1    3    3  501    0 -0.14523793017E+03 -0.10773041618E+03  0.10229001211E+02  0.18112021255E+03  0.00000000000E+00 0. -1.
<mgrwt>
<rscale>  0 0.61476976E+03</rscale>
<asrwt>0</asrwt>
<pdfrwt beam="1">0</pdfrwt>
<pdfrwt beam="2">  1        2 0.34358424E+00 0.61476976E+03</pdfrwt>
<totfact> 0.64332031E+00</totfact>
</mgrwt>
</event>
<event>
 5    1  0.2344661E-004  0.6412320E+03  0.7818608E-02  0.9823372E-01
         13   -1    0    0    0    0  0.00000000000E+00  0.00000000000E+00  0.10000000000E+04  0.10000000000E+04  0.00000000000E+00 0. -1.
          2   -1    0    0  501    0 -0.00000000000E+00 -0.00000000000E+00 -0.10279462012E+03  0.10279462012E+03  0.00000000000E+00 0. -1.
    9000006    2    1    2  501    0  0.00000000000E+00  0.00000000000E+00  0.89720537988E+03  0.11027946201E+04  0.64123200207E+03 0.  0.
         13    1    3    3    0    0  0.19152270518E+03  0.11347293594E+03  0.84541811634E+03  0.87423614958E+03  0.00000000000E+00 0. -1.
          2    1    3    3  501    0 -0.19152270518E+03 -0.11347293594E+03  0.51787263538E+02  0.22855847054E+03  0.00000000000E+00 0. -1.
<mgrwt>
<rscale>  0 0.64123200E+03</rscale>
<asrwt>0</asrwt>
<pdfrwt beam="1">0</pdfrwt>
<pdfrwt beam="2">  1        2 0.37379941E+00 0.64123200E+03</pdfrwt>
<totfact> 0.49854833E+00</totfact>
</mgrwt>
</event>
<event>
 5    1  0.2344661E-004  0.6528445E+03  0.7818608E-02  0.9801456E-01
         13   -1    0    0    0    0  0.00000000000E+00  0.00000000000E+00  0.10000000000E+04  0.10000000000E+04  0.00000000000E+00 0. -1.
          2   -1    0    0  501    0 -0.00000000000E+00 -0.00000000000E+00 -0.10655147237E+03  0.10655147237E+03  0.00000000000E+00 0. -1.
    9000006    2    1    2  501    0  0.00000000000E+00  0.00000000000E+00  0.89344852763E+03  0.11065514724E+04  0.65284446040E+03 0.  0.
         13    1    3    3    0    0  0.14773973216E+03 -0.27799124605E+03  0.30047175668E+03  0.43518896804E+03  0.00000000000E+00 0. -1.
          4    1    3    3  501    0 -0.14773973216E+03  0.27799124605E+03  0.59297677095E+03  0.67136250433E+03  0.00000000000E+00 0. -1.
<mgrwt>
<rscale>  0 0.65284446E+03</rscale>
<asrwt>0</asrwt>
<pdfrwt beam="1">0</pdfrwt>
<pdfrwt beam="2">  1        2 0.38746072E+00 0.65284446E+03</pdfrwt>
<totfact> 0.44348935E+00</totfact>
</mgrwt>
</event>
<event>
 5    1  0.2344661E-004  0.6302790E+03  0.7818608E-02  0.9844504E-01
         13   -1    0    0    0    0  0.00000000000E+00  0.00000000000E+00  0.10000000000E+04  0.10000000000E+04  0.00000000000E+00 0. -1.
          2   -1    0    0  501    0 -0.00000000000E+00 -0.00000000000E+00 -0.99312905920E+02  0.99312905920E+02  0.00000000000E+00 0. -1.
    9000006    2    1    2  501    0  0.00000000000E+00  0.00000000000E+00  0.90068709408E+03  0.10993129059E+04  0.63027900463E+03 0.  0.
         13    1    3    3    0    0 -0.19338616682E+03 -0.12915391167E+03  0.79388907009E+02  0.24572655733E+03  0.00000000000E+00 0. -1.
          4    1    3    3  501    0  0.19338616682E+03  0.12915391167E+03  0.82129818707E+03  0.85358634859E+03  0.00000000000E+00 0. -1.
<mgrwt>
<rscale>  0 0.63027900E+03</rscale>
<asrwt>0</asrwt>
<pdfrwt beam="1">0</pdfrwt>
<pdfrwt beam="2">  1        2 0.36113860E+00 0.63027900E+03</pdfrwt>
<totfact> 0.55508575E+00</totfact>
</mgrwt>
</event>
<event>
 5    1  0.2344661E-004  0.6480803E+03  0.7818608E-02  0.9810388E-01
         13   -1    0    0    0    0  0.00000000000E+00  0.00000000000E+00  0.10000000000E+04  0.10000000000E+04  0.00000000000E+00 0. -1.
          2   -1    0    0  501    0 -0.00000000000E+00 -0.00000000000E+00 -0.10500200358E+03  0.10500200358E+03  0.00000000000E+00 0. -1.
    9000006    2    1    2  501    0  0.00000000000E+00  0.00000000000E+00  0.89499799642E+03  0.11050020036E+04  0.64808025299E+03 0.  0.
         13    1    3    3    0    0  0.52349868412E+01  0.12807397905E+03 -0.59937445986E+02  0.14150210821E+03  0.00000000000E+00 0. -1.
          4    1    3    3  501    0 -0.52349868412E+01 -0.12807397905E+03  0.95493544241E+03  0.96349989536E+03  0.00000000000E+00 0. -1.
<mgrwt>
<rscale>  0 0.64808025E+03</rscale>
<asrwt>0</asrwt>
<pdfrwt beam="1">0</pdfrwt>
<pdfrwt beam="2">  1        2 0.38182627E+00 0.64808025E+03</pdfrwt>
<totfact> 0.46548972E+00</totfact>
</mgrwt>
</event>
<event>
 5    1  0.2344661E-004  0.6567669E+03  0.7818608E-02  0.9794164E-01
         13   -1    0    0    0    0  0.00000000000E+00  0.00000000000E+00  0.10000000000E+04  0.10000000000E+04  0.00000000000E+00 0. -1.
          2   -1    0    0  501    0 -0.00000000000E+00 -0.00000000000E+00 -0.10783569514E+03  0.10783569514E+03  0.00000000000E+00 0. -1.
    9000006    2    1    2  501    0  0.00000000000E+00  0.00000000000E+00  0.89216430486E+03  0.11078356951E+04  0.65676691494E+03 0.  0.
         13    1    3    3    0    0 -0.26039847726E+03  0.69886254682E+02  0.76230348391E+03  0.80857779905E+03  0.00000000000E+00 0. -1.
          2    1    3    3  501    0  0.26039847726E+03 -0.69886254682E+02  0.12986082095E+03  0.29925789609E+03  0.00000000000E+00 0. -1.
<mgrwt>
<rscale>  0 0.65676691E+03</rscale>
<asrwt>0</asrwt>
<pdfrwt beam="1">0</pdfrwt>
<pdfrwt beam="2">  1        2 0.39213063E+00 0.65676691E+03</pdfrwt>
<totfact> 0.42597347E+00</totfact>
</mgrwt>
</event>
<event>
 5    1  0.2344661E-004  0.5366770E+03  0.7818608E-02  0.1004626E+00
         13   -1    0    0    0    0  0.00000000000E+00  0.00000000000E+00  0.10000000000E+04  0.10000000000E+04  0.00000000000E+00 0. -1.
          2   -1    0    0  501    0 -0.00000000000E+00 -0.00000000000E+00 -0.72005557184E+02  0.72005557184E+02  0.00000000000E+00 0. -1.
    9000006    2    1    2  501    0  0.00000000000E+00  0.00000000000E+00  0.92799444282E+03  0.10720055572E+04  0.53667702460E+03 0.  0.
         13    1    3    3    0    0 -0.22803356873E+03  0.13898788519E+03  0.41158015126E+03  0.49062731437E+03  0.00000000000E+00 0. -1.
          4    1    3    3  501    0  0.22803356873E+03 -0.13898788519E+03  0.51641429156E+03  0.58137824282E+03  0.00000000000E+00 0. -1.
<mgrwt>
<rscale>  0 0.53667702E+03</rscale>
<asrwt>0</asrwt>
<pdfrwt beam="1">0</pdfrwt>
<pdfrwt beam="2">  1        2 0.26183894E+00 0.53667702E+03</pdfrwt>
<totfact> 0.12640462E+01</totfact>
</mgrwt>
</event>
<event>
 5    1  0.2344661E-004  0.5705815E+03  0.7818608E-02  0.9968393E-01
         13   -1    0    0    0    0  0.00000000000E+00  0.00000000000E+00  0.10000000000E+04  0.10000000000E+04  0.00000000000E+00 0. -1.
          2   -1    0    0  501    0 -0.00000000000E+00 -0.00000000000E+00 -0.81390803618E+02  0.81390803618E+02  0.00000000000E+00 0. -1.
    9000006    2    1    2  501    0  0.00000000000E+00  0.00000000000E+00  0.91860919638E+03  0.10813908036E+04  0.57058147049E+03 0.  0.
         13    1    3    3    0    0  0.20074283639E+03 -0.17428427340E+03  0.26309326041E+03  0.37401972941E+03  0.00000000000E+00 0. -1.
          2    1    3    3  501    0 -0.20074283639E+03  0.17428427340E+03  0.65551593598E+03  0.70737107421E+03  0.00000000000E+00 0. -1.
<mgrwt>
<rscale>  0 0.57058147E+03</rscale>
<asrwt>0</asrwt>
<pdfrwt beam="1">0</pdfrwt>
<pdfrwt beam="2">  1        2 0.29596718E+00 0.57058147E+03</pdfrwt>
<totfact> 0.95445700E+00</totfact>
</mgrwt>
</event>
<event>
 5    1  0.2344661E-004  0.6694753E+03  0.7818608E-02  0.9770906E-01
         13   -1    0    0    0    0  0.00000000000E+00  0.00000000000E+00  0.10000000000E+04  0.10000000000E+04  0.00000000000E+00 0. -1.
          2   -1    0    0  501    0 -0.00000000000E+00 -0.00000000000E+00 -0.11204928907E+03  0.11204928907E+03  0.00000000000E+00 0. -1.
    9000006    2    1    2  501    0  0.00000000000E+00  0.00000000000E+00  0.88795071093E+03  0.11120492891E+04  0.66947528430E+03 0.  0.
         13    1    3    3    0    0 -0.21437779159E+03  0.59118084138E+02  0.85956481737E+03  0.88786511400E+03  0.00000000000E+00 0. -1.
          4    1    3    3  501    0  0.21437779159E+03 -0.59118084138E+02  0.28385893557E+02  0.22418417507E+03  0.00000000000E+00 0. -1.
<mgrwt>
<rscale>  0 0.66947528E+03</rscale>
<asrwt>0</asrwt>
<pdfrwt beam="1">0</pdfrwt>
<pdfrwt beam="2">  1        2 0.40745282E+00 0.66947528E+03</pdfrwt>
<totfact> 0.37279374E+00</totfact>
</mgrwt>
</event>
<event>
 5    1  0.2344661E-004  0.5771324E+03  0.7818608E-02  0.9954019E-01
         13   -1    0    0    0    0  0.00000000000E+00  0.00000000000E+00  0.10000000000E+04  0.10000000000E+04  0.00000000000E+00 0. -1.
          2   -1    0    0  501    0 -0.00000000000E+00 -0.00000000000E+00 -0.83270445811E+02  0.83270445811E+02  0.00000000000E+00 0. -1.
    9000006    2    1    2  501    0  0.00000000000E+00  0.00000000000E+00  0.91672955419E+03  0.10832704458E+04  0.57713237931E+03 0.  0.
         13    1    3    3    0    0 -0.13341815132E+03 -0.12021718315E+03  0.34406984446E+02  0.18285626816E+03  0.00000000000E+00 0. -1.
          2    1    3    3  501    0  0.13341815132E+03  0.12021718315E+03  0.88232256974E+03  0.90041417765E+03  0.00000000000E+00 0. -1.
<mgrwt>
<rscale>  0 0.57713238E+03</rscale>
<asrwt>0</asrwt>
<pdfrwt beam="1">0</pdfrwt>
<pdfrwt beam="2">  1        2 0.30280226E+00 0.57713238E+03</pdfrwt>
<totfact> 0.90220102E+00</totfact>
</mgrwt>
</event>
<event>
 5    1  0.2344661E-004  0.6572704E+03  0.7818608E-02  0.9793232E-01
         13   -1    0    0    0    0  0.00000000000E+00  0.00000000000E+00  0.10000000000E+04  0.10000000000E+04  0.00000000000E+00 0. -1.
          2   -1    0    0  501    0 -0.00000000000E+00 -0.00000000000E+00 -0.10800110874E+03  0.10800110874E+03  0.00000000000E+00 0. -1.
    9000006    2    1    2  501    0  0.00000000000E+00  0.00000000000E+00  0.89199889126E+03  0.11080011087E+04  0.65727044278E+03 0.  0.
         13    1    3    3    0    0 -0.28423582089E+03 -0.93789091224E+01  0.16836963393E+03  0.33049402331E+03  0.00000000000E+00 0. -1.
          4    1    3    3  501    0  0.28423582089E+03  0.93789091224E+01  0.72362925734E+03  0.77750708543E+03  0.00000000000E+00 0. -1.
<mgrwt>
<rscale>  0 0.65727044E+03</rscale>
<asrwt>0</asrwt>
<pdfrwt beam="1">0</pdfrwt>
<pdfrwt beam="2">  1        2 0.39273213E+00 0.65727044E+03</pdfrwt>
<totfact> 0.42376338E+00</totfact>
</mgrwt>
</event>
<event>
 5    1  0.2344661E-004  0.6417309E+03  0.7818608E-02  0.9822420E-01
         13   -1    0    0    0    0  0.00000000000E+00  0.00000000000E+00  0.10000000000E+04  0.10000000000E+04  0.00000000000E+00 0. -1.
          2   -1    0    0  501    0 -0.00000000000E+00 -0.00000000000E+00 -0.10295464782E+03  0.10295464782E+03  0.00000000000E+00 0. -1.
    9000006    2    1    2  501    0  0.00000000000E+00  0.00000000000E+00  0.89704535218E+03  0.11029546478E+04  0.64173093370E+03 0.  0.
         13    1    3    3    0    0 -0.18191881699E+03 -0.89128877257E+02  0.20854483667E+02  0.20364999932E+03  0.00000000000E+00 0. -1.
          2    1    3    3  501    0  0.18191881699E+03  0.89128877257E+02  0.87619086852E+03  0.89930464850E+03  0.00000000000E+00 0. -1.
<mgrwt>
<rscale>  0 0.64173093E+03</rscale>
<asrwt>0</asrwt>
<pdfrwt beam="1">0</pdfrwt>
<pdfrwt beam="2">  1        2 0.37438133E+00 0.64173093E+03</pdfrwt>
<totfact> 0.49608139E+00</totfact>
</mgrwt>
</event>
<event>
 5    1  0.2344661E-004  0.6431151E+03  0.7818608E-02  0.9819785E-01
         13   -1    0    0    0    0  0.00000000000E+00  0.00000000000E+00  0.10000000000E+04  0.10000000000E+04  0.00000000000E+00 0. -1.
          2   -1    0    0  501    0 -0.00000000000E+00 -0.00000000000E+00 -0.10339925992E+03  0.10339925992E+03  0.00000000000E+00 0. -1.
    9000006    2    1    2  501    0  0.00000000000E+00  0.00000000000E+00  0.89660074008E+03  0.11033992599E+04  0.64311510610E+03 0.  0.
         13    1    3    3    0    0 -0.24315173977E+03  0.15336628668E+03  0.20112328426E+03  0.35084834603E+03  0.00000000000E+00 0. -1.
          2    1    3    3  501    0  0.24315173977E+03 -0.15336628668E+03  0.69547745582E+03  0.75255091389E+03  0.00000000000E+00 0. -1.
<mgrwt>
<rscale>  0 0.64311511E+03</rscale>
<asrwt>0</asrwt>
<pdfrwt beam="1">0</pdfrwt>
<pdfrwt beam="2">  1        2 0.37599810E+00 0.64311511E+03</pdfrwt>
<totfact> 0.48928599E+00</totfact>
</mgrwt>
</event>
<event>
 5    1  0.2344661E-004  0.6673623E+03  0.7818608E-02  0.9774735E-01
         13   -1    0    0    0    0  0.00000000000E+00  0.00000000000E+00  0.10000000000E+04  0.10000000000E+04  0.00000000000E+00 0. -1.
          2   -1    0    0  501    0 -0.00000000000E+00 -0.00000000000E+00 -0.11134310041E+03  0.11134310041E+03  0.00000000000E+00 0. -1.
    9000006    2    1    2  501    0  0.00000000000E+00  0.00000000000E+00  0.88865689959E+03  0.11113431004E+04  0.66736227166E+03 0.  0.
         13    1    3    3    0    0 -0.62481698551E+02  0.30229675407E+03  0.23331865263E+03  0.38694299818E+03  0.00000000000E+00 0. -1.
          2    1    3    3  501    0  0.62481698551E+02 -0.30229675407E+03  0.65533824696E+03  0.72440010222E+03  0.00000000000E+00 0. -1.
<mgrwt>
<rscale>  0 0.66736227E+03</rscale>
<asrwt>0</asrwt>
<pdfrwt beam="1">0</pdfrwt>
<pdfrwt beam="2">  1        2 0.40488486E+00 0.66736227E+03</pdfrwt>
<totfact> 0.38126803E+00</totfact>
</mgrwt>
</event>
<event>
 5    1  0.2344661E-004  0.6481790E+03  0.7818608E-02  0.9810202E-01
         13   -1    0    0    0    0  0.00000000000E+00  0.00000000000E+00  0.10000000000E+04  0.10000000000E+04  0.00000000000E+00 0. -1.
          2   -1    0    0  501    0 -0.00000000000E+00 -0.00000000000E+00 -0.10503400106E+03  0.10503400106E+03  0.00000000000E+00 0. -1.
    9000006    2    1    2  501    0  0.00000000000E+00  0.00000000000E+00  0.89496599894E+03  0.11050340011E+04  0.64817899089E+03 0.  0.
         13    1    3    3    0    0 -0.28764295759E+03 -0.14577526337E+03  0.50259677393E+03  0.59715359467E+03  0.00000000000E+00 0. -1.
          2    1    3    3  501    0  0.28764295759E+03  0.14577526337E+03  0.39236922501E+03  0.50788040639E+03  0.00000000000E+00 0. -1.
<mgrwt>
<rscale>  0 0.64817899E+03</rscale>
<asrwt>0</asrwt>
<pdfrwt beam="1">0</pdfrwt>
<pdfrwt beam="2">  1        2 0.38194263E+00 0.64817899E+03</pdfrwt>
<totfact> 0.46502556E+00</totfact>
</mgrwt>
</event>
<event>
 5    1  0.2344661E-004  0.6499208E+03  0.7818608E-02  0.9806928E-01
         13   -1    0    0    0    0  0.00000000000E+00  0.00000000000E+00  0.10000000000E+04  0.10000000000E+04  0.00000000000E+00 0. -1.
          2   -1    0    0  501    0 -0.00000000000E+00 -0.00000000000E+00 -0.10559925047E+03  0.10559925047E+03  0.00000000000E+00 0. -1.
    9000006    2    1    2  501    0  0.00000000000E+00  0.00000000000E+00  0.89440074953E+03  0.11055992505E+04  0.64992076585E+03 0.  0.
         13    1    3    3    0    0 -0.22171899641E+03  0.22641686040E+03  0.32482138406E+03  0.45379823665E+03  0.00000000000E+00 0. -1.
          4    1    3    3  501    0  0.22171899641E+03 -0.22641686040E+03  0.56957936547E+03  0.65180101382E+03  0.00000000000E+00 0. -1.
<mgrwt>
<rscale>  0 0.64992077E+03</rscale>
<asrwt>0</asrwt>
<pdfrwt beam="1">0</pdfrwt>
<pdfrwt beam="2">  1        2 0.38399808E+00 0.64992077E+03</pdfrwt>
<totfact> 0.45689501E+00</totfact>
</mgrwt>
</event>
<event>
 5    1  0.2344661E-004  0.6751143E+03  0.7818608E-02  0.9760763E-01
         13   -1    0    0    0    0  0.00000000000E+00  0.00000000000E+00  0.10000000000E+04  0.10000000000E+04  0.00000000000E+00 0. -1.
          2   -1    0    0  501    0 -0.00000000000E+00 -0.00000000000E+00 -0.11394482449E+03  0.11394482449E+03  0.00000000000E+00 0. -1.
    9000006    2    1    2  501    0  0.00000000000E+00  0.00000000000E+00  0.88605517551E+03  0.11139448245E+04  0.67511428510E+03 0.  0.
         13    1    3    3    0    0 -0.99264589895E+02 -0.10455138721E+03 -0.60591279787E+02  0.15638335768E+03  0.00000000000E+00 0. -1.
          4    1    3    3  501    0  0.99264589895E+02  0.10455138721E+03  0.94664645530E+03  0.95756146680E+03  0.00000000000E+00 0. -1.
<mgrwt>
<rscale>  0 0.67511429E+03</rscale>
<asrwt>0</asrwt>
<pdfrwt beam="1">0</pdfrwt>
<pdfrwt beam="2">  1        2 0.41434569E+00 0.67511429E+03</pdfrwt>
<totfact> 0.35087327E+00</totfact>
</mgrwt>
</event>
<event>
 5    1  0.2344661E-004  0.6881900E+03  0.7818608E-02  0.9737645E-01
         13   -1    0    0    0    0  0.00000000000E+00  0.00000000000E+00  0.10000000000E+04  0.10000000000E+04  0.00000000000E+00 0. -1.
          2   -1    0    0  501    0 -0.00000000000E+00 -0.00000000000E+00 -0.11840135759E+03  0.11840135759E+03  0.00000000000E+00 0. -1.
    9000006    2    1    2  501    0  0.00000000000E+00  0.00000000000E+00  0.88159864241E+03  0.11184013576E+04  0.68818996678E+03 0.  0.
         13    1    3    3    0    0 -0.52080532512E+02 -0.19643283373E+03  0.89205774088E+03  0.91491270244E+03  0.00000000000E+00 0. -1.
          4    1    3    3  501    0  0.52080532512E+02  0.19643283373E+03 -0.10459098471E+02  0.20348865515E+03  0.00000000000E+00 0. -1.
<mgrwt>
<rscale>  0 0.68818997E+03</rscale>
<asrwt>0</asrwt>
<pdfrwt beam="1">0</pdfrwt>
<pdfrwt beam="2">  1        2 0.43055130E+00 0.68818997E+03</pdfrwt>
<totfact> 0.30378643E+00</totfact>
</mgrwt>
</event>
<event>
 5    1  0.2344661E-004  0.6533277E+03  0.7818608E-02  0.9800555E-01
         13   -1    0    0    0    0  0.00000000000E+00  0.00000000000E+00  0.10000000000E+04  0.10000000000E+04  0.00000000000E+00 0. -1.
          2   -1    0    0  501    0 -0.00000000000E+00 -0.00000000000E+00 -0.10670926643E+03  0.10670926643E+03  0.00000000000E+00 0. -1.
    9000006    2    1    2  501    0  0.00000000000E+00  0.00000000000E+00  0.89329073357E+03  0.11067092664E+04  0.65332768634E+03 0.  0.
         13    1    3    3    0    0 -0.21493848057E+03  0.20349863400E+03  0.68074894267E+03  0.74231352367E+03  0.00000000000E+00 0. -1.
          4    1    3    3  501    0  0.21493848057E+03 -0.20349863400E+03  0.21254179089E+03  0.36439574277E+03  0.00000000000E+00 0. -1.
<mgrwt>
<rscale>  0 0.65332769E+03</rscale>
<asrwt>0</asrwt>
<pdfrwt beam="1">0</pdfrwt>
<pdfrwt beam="2">  1        2 0.38803451E+00 0.65332769E+03</pdfrwt>
<totfact> 0.44130262E+00</totfact>
</mgrwt>
</event>
<event>
 5    1  0.2344661E-004  0.6503447E+03  0.7818608E-02  0.9806133E-01
         13   -1    0    0    0    0  0.00000000000E+00  0.00000000000E+00  0.10000000000E+04  0.10000000000E+04  0.00000000000E+00 0. -1.
          2   -1    0    0  501    0 -0.00000000000E+00 -0.00000000000E+00 -0.10573704624E+03  0.10573704624E+03  0.00000000000E+00 0. -1.
    9000006    2    1    2  501    0  0.00000000000E+00  0.00000000000E+00  0.89426295376E+03  0.11057370462E+04  0.65034466628E+03 0.  0.
         13    1    3    3    0    0 -0.19988701779E+03  0.15239297234E+01  0.11062796940E+02  0.20019872057E+03  0.00000000000E+00 0. -1.
          2    1    3    3  501    0  0.19988701779E+03 -0.15239297234E+01  0.88320015682E+03  0.90553832567E+03  0.00000000000E+00 0. -1.
<mgrwt>
<rscale>  0 0.65034467E+03</rscale>
<asrwt>0</asrwt>
<pdfrwt beam="1">0</pdfrwt>
<pdfrwt beam="2">  1        2 0.38449916E+00 0.65034467E+03</pdfrwt>
<totfact> 0.45493262E+00</totfact>
</mgrwt>
</event>
<event>
 5    1  0.2344661E-004  0.6498742E+03  0.7818608E-02  0.9807015E-01
         13   -1    0    0    0    0  0.00000000000E+00  0.00000000000E+00  0.10000000000E+04  0.10000000000E+04  0.00000000000E+00 0. -1.
          2   -1    0    0  501    0 -0.00000000000E+00 -0.00000000000E+00 -0.10558411853E+03  0.10558411853E+03  0.00000000000E+00 0. -1.
    9000006    2    1    2  501    0  0.00000000000E+00  0.00000000000E+00  0.89441588147E+03  0.11055841185E+04  0.64987419869E+03 0.  0.
         13    1    3    3    0    0  0.36695392209E+01 -0.30485778938E+03  0.25600035892E+03  0.39810541448E+03  0.00000000000E+00 0. -1.
          2    1    3    3  501    0 -0.36695392209E+01  0.30485778938E+03  0.63841552254E+03  0.70747870406E+03  0.00000000000E+00 0. -1.
<mgrwt>
<rscale>  0 0.64987420E+03</rscale>
<asrwt>0</asrwt>
<pdfrwt beam="1">0</pdfrwt>
<pdfrwt beam="2">  1        2 0.38394306E+00 0.64987420E+03</pdfrwt>
<totfact> 0.45711098E+00</totfact>
</mgrwt>
</event>
<event>
 5    1  0.2344661E-004  0.6491048E+03  0.7818608E-02  0.9808460E-01
         13   -1    0    0    0    0  0.00000000000E+00  0.00000000000E+00  0.10000000000E+04  0.10000000000E+04  0.00000000000E+00 0. -1.
          2   -1    0    0  501    0 -0.00000000000E+00 -0.00000000000E+00 -0.10533426495E+03  0.10533426495E+03  0.00000000000E+00 0. -1.
    9000006    2    1    2  501    0  0.00000000000E+00  0.00000000000E+00  0.89466573505E+03  0.11053342649E+04  0.64910481418E+03 0.  0.
         13    1    3    3    0    0 -0.32075960489E+03  0.20484446361E+01  0.36316018418E+03  0.48453713958E+03  0.00000000000E+00 0. -1.
          2    1    3    3  501    0  0.32075960489E+03 -0.20484446361E+01  0.53150555087E+03  0.62079712537E+03  0.00000000000E+00 0. -1.
<mgrwt>
<rscale>  0 0.64910481E+03</rscale>
<asrwt>0</asrwt>
<pdfrwt beam="1">0</pdfrwt>
<pdfrwt beam="2">  1        2 0.38303450E+00 0.64910481E+03</pdfrwt>
<totfact> 0.46069035E+00</totfact>
</mgrwt>
</event>
<event>
 5    1  0.2344661E-004  0.6429114E+03  0.7818608E-02  0.9820172E-01
         13   -1    0    0    0    0  0.00000000000E+00  0.00000000000E+00  0.10000000000E+04  0.10000000000E+04  0.00000000000E+00 0. -1.
          2   -1    0    0  501    0 -0.00000000000E+00 -0.00000000000E+00 -0.10333375960E+03  0.10333375960E+03  0.00000000000E+00 0. -1.
    9000006    2    1    2  501    0  0.00000000000E+00  0.00000000000E+00  0.89666624040E+03  0.11033337596E+04  0.64291137678E+03 0.  0.
         13    1    3    3    0    0 -0.23469735420E+03  0.19479293118E+03  0.27410668782E+03  0.41007512777E+03  0.00000000000E+00 0. -1.
          4    1    3    3  501    0  0.23469735420E+03 -0.19479293118E+03  0.62255955258E+03  0.69325863183E+03  0.00000000000E+00 0. -1.
<mgrwt>
<rscale>  0 0.64291138E+03</rscale>
<asrwt>0</asrwt>
<pdfrwt beam="1">0</pdfrwt>
<pdfrwt beam="2">  1        2 0.37575992E+00 0.64291138E+03</pdfrwt>
<totfact> 0.49028166E+00</totfact>
</mgrwt>
</event>
<event>
 5    1  0.2344661E-004  0.6439001E+03  0.7818608E-02  0.9818293E-01
         13   -1    0    0    0    0  0.00000000000E+00  0.00000000000E+00  0.10000000000E+04  0.10000000000E+04  0.00000000000E+00 0. -1.
          2   -1    0    0  501    0 -0.00000000000E+00 -0.00000000000E+00 -0.10365182430E+03  0.10365182430E+03  0.00000000000E+00 0. -1.
    9000006    2    1    2  501    0  0.00000000000E+00  0.00000000000E+00  0.89634817570E+03  0.11036518243E+04  0.64390006770E+03 0.  0.
         13    1    3    3    0    0  0.17139973493E+03  0.15118568562E+03  0.59517242663E+02  0.23617214663E+03  0.00000000000E+00 0. -1.
          4    1    3    3  501    0 -0.17139973493E+03 -0.15118568562E+03  0.83683093304E+03  0.86747967767E+03  0.00000000000E+00 0. -1.
<mgrwt>
<rscale>  0 0.64390007E+03</rscale>
<asrwt>0</asrwt>
<pdfrwt beam="1">0</pdfrwt>
<pdfrwt beam="2">  1        2 0.37691652E+00 0.64390007E+03</pdfrwt>
<totfact> 0.48546402E+00</totfact>
</mgrwt>
</event>
<event>
 5    1  0.2344661E-004  0.6620491E+03  0.7818608E-02  0.9784429E-01
         13   -1    0    0    0    0  0.00000000000E+00  0.00000000000E+00  0.10000000000E+04  0.10000000000E+04  0.00000000000E+00 0. -1.
          2   -1    0    0  501    0 -0.00000000000E+00 -0.00000000000E+00 -0.10957726189E+03  0.10957726189E+03  0.00000000000E+00 0. -1.
    9000006    2    1    2  501    0  0.00000000000E+00  0.00000000000E+00  0.89042273811E+03  0.11095772619E+04  0.66204912774E+03 0.  0.
         13    1    3    3    0    0 -0.20651934373E+03  0.25869109147E+03  0.44112606539E+03  0.55151022267E+03  0.00000000000E+00 0. -1.
          2    1    3    3  501    0  0.20651934373E+03 -0.25869109147E+03  0.44929667272E+03  0.55806703921E+03  0.00000000000E+00 0. -1.
<mgrwt>
<rscale>  0 0.66204913E+03</rscale>
<asrwt>0</asrwt>
<pdfrwt beam="1">0</pdfrwt>
<pdfrwt beam="2">  1        2 0.39846361E+00 0.66204913E+03</pdfrwt>
<totfact> 0.40321837E+00</totfact>
</mgrwt>
</event>
<event>
 5    1  0.2344661E-004  0.6559353E+03  0.7818608E-02  0.9795705E-01
         13   -1    0    0    0    0  0.00000000000E+00  0.00000000000E+00  0.10000000000E+04  0.10000000000E+04  0.00000000000E+00 0. -1.
          2   -1    0    0  501    0 -0.00000000000E+00 -0.00000000000E+00 -0.10756278722E+03  0.10756278722E+03  0.00000000000E+00 0. -1.
    9000006    2    1    2  501    0  0.00000000000E+00  0.00000000000E+00  0.89243721278E+03  0.11075627872E+04  0.65593532370E+03 0.  0.
         13    1    3    3    0    0  0.97801903387E+01 -0.27597009043E+03  0.14745167152E+03  0.31304494625E+03  0.00000000000E+00 0. -1.
          2    1    3    3  501    0 -0.97801903387E+01  0.27597009043E+03  0.74498554126E+03  0.79451784097E+03  0.00000000000E+00 0. -1.
<mgrwt>
<rscale>  0 0.65593532E+03</rscale>
<asrwt>0</asrwt>
<pdfrwt beam="1">0</pdfrwt>
<pdfrwt beam="2">  1        2 0.39113823E+00 0.65593532E+03</pdfrwt>
<totfact> 0.42964254E+00</totfact>
</mgrwt>
</event>
<event>
 5    1  0.2344661E-004  0.6558977E+03  0.7818608E-02  0.9795775E-01
         13   -1    0    0    0    0  0.00000000000E+00  0.00000000000E+00  0.10000000000E+04  0.10000000000E+04  0.00000000000E+00 0. -1.
          2   -1    0    0  501    0 -0.00000000000E+00 -0.00000000000E+00 -0.10755044084E+03  0.10755044084E+03  0.00000000000E+00 0. -1.
    9000006    2    1    2  501    0  0.00000000000E+00  0.00000000000E+00  0.89244955916E+03  0.11075504408E+04  0.65589767750E+03 0.  0.
         13    1    3    3    0    0 -0.78636490100E+02  0.19342958215E+03  0.87325007703E+03  0.89786658133E+03  0.00000000000E+00 0. -1.
          4    1    3    3  501    0  0.78636490100E+02 -0.19342958215E+03  0.19199482131E+02  0.20968385951E+03  0.00000000000E+00 0. -1.
<mgrwt>
<rscale>  0 0.65589768E+03</rscale>
<asrwt>0</asrwt>
<pdfrwt beam="1">0</pdfrwt>
<pdfrwt beam="2">  1        2 0.39109334E+00 0.65589768E+03</pdfrwt>
<totfact> 0.42980920E+00</totfact>
</mgrwt>
</event>
<event>
 5    1  0.2344661E-004  0.6504652E+03  0.7818608E-02  0.9805907E-01
         13   -1    0    0    0    0  0.00000000000E+00  0.00000000000E+00  0.10000000000E+04  0.10000000000E+04  0.00000000000E+00 0. -1.
          2   -1    0    0  501    0 -0.00000000000E+00 -0.00000000000E+00 -0.10577624808E+03  0.10577624808E+03  0.00000000000E+00 0. -1.
    9000006    2    1    2  501    0  0.00000000000E+00  0.00000000000E+00  0.89422375192E+03  0.11057762481E+04  0.65046521224E+03 0.  0.
         13    1    3    3    0    0 -0.34448792747E+02 -0.16192078362E+03 -0.28794363755E+02  0.16803027963E+03  0.00000000000E+00 0. -1.
          2    1    3    3  501    0  0.34448792747E+02  0.16192078362E+03  0.92301811567E+03  0.93774596845E+03  0.00000000000E+00 0. -1.
<mgrwt>
<rscale>  0 0.65046521E+03</rscale>
<asrwt>0</asrwt>
<pdfrwt beam="1">0</pdfrwt>
<pdfrwt beam="2">  1        2 0.38464171E+00 0.65046521E+03</pdfrwt>
<totfact> 0.45437574E+00</totfact>
</mgrwt>
</event>
<event>
 5    1  0.2344661E-004  0.6218106E+03  0.7818608E-02  0.9861161E-01
         13   -1    0    0    0    0  0.00000000000E+00  0.00000000000E+00  0.10000000000E+04  0.10000000000E+04  0.00000000000E+00 0. -1.
          2   -1    0    0  501    0 -0.00000000000E+00 -0.00000000000E+00 -0.96662091336E+02  0.96662091336E+02  0.00000000000E+00 0. -1.
    9000006    2    1    2  501    0  0.00000000000E+00  0.00000000000E+00  0.90333790866E+03  0.10966620913E+04  0.62181055422E+03 0.  0.
         13    1    3    3    0    0 -0.15714981128E+03 -0.25815132079E+03  0.32298314608E+03  0.44233051021E+03  0.00000000000E+00 0. -1.
          2    1    3    3  501    0  0.15714981128E+03  0.25815132079E+03  0.58035476258E+03  0.65433158113E+03  0.00000000000E+00 0. -1.
<mgrwt>
<rscale>  0 0.62181055E+03</rscale>
<asrwt>0</asrwt>
<pdfrwt beam="1">0</pdfrwt>
<pdfrwt beam="2">  1        2 0.35149926E+00 0.62181055E+03</pdfrwt>
<totfact> 0.60203511E+00</totfact>
</mgrwt>
</event>
<event>
 5    1  0.2344661E-004  0.6457290E+03  0.7818608E-02  0.9814826E-01
         13   -1    0    0    0    0  0.00000000000E+00  0.00000000000E+00  0.10000000000E+04  0.10000000000E+04  0.00000000000E+00 0. -1.
          2   -1    0    0  501    0 -0.00000000000E+00 -0.00000000000E+00 -0.10424149835E+03  0.10424149835E+03  0.00000000000E+00 0. -1.
    9000006    2    1    2  501    0  0.00000000000E+00  0.00000000000E+00  0.89575850165E+03  0.11042414983E+04  0.64572904022E+03 0.  0.
         13    1    3    3    0    0 -0.25520746946E+03 -0.13965480445E+03  0.20842567316E+03  0.35787648443E+03  0.00000000000E+00 0. -1.
          2    1    3    3  501    0  0.25520746946E+03  0.13965480445E+03  0.68733282850E+03  0.74636501392E+03  0.00000000000E+00 0. -1.
<mgrwt>
<rscale>  0 0.64572904E+03</rscale>
<asrwt>0</asrwt>
<pdfrwt beam="1">0</pdfrwt>
<pdfrwt beam="2">  1        2 0.37906079E+00 0.64572904E+03</pdfrwt>
<totfact> 0.47664643E+00</totfact>
</mgrwt>
</event>
<event>
 5    1  0.2344661E-004  0.6588265E+03  0.7818608E-02  0.9790356E-01
         13   -1    0    0    0    0  0.00000000000E+00  0.00000000000E+00  0.10000000000E+04  0.10000000000E+04  0.00000000000E+00 0. -1.
          2   -1    0    0  501    0 -0.00000000000E+00 -0.00000000000E+00 -0.10851308298E+03  0.10851308298E+03  0.00000000000E+00 0. -1.
    9000006    2    1    2  501    0  0.00000000000E+00  0.00000000000E+00  0.89148691702E+03  0.11085130830E+04  0.65882648088E+03 0.  0.
         13    1    3    3    0    0  0.16558013198E+03  0.57090091762E+02  0.91516486302E+03  0.93177399899E+03  0.00000000000E+00 0. -1.
          4    1    3    3  501    0 -0.16558013198E+03 -0.57090091762E+02 -0.23677945999E+02  0.17673908399E+03  0.00000000000E+00 0. -1.
<mgrwt>
<rscale>  0 0.65882648E+03</rscale>
<asrwt>0</asrwt>
<pdfrwt beam="1">0</pdfrwt>
<pdfrwt beam="2">  1        2 0.39459386E+00 0.65882648E+03</pdfrwt>
<totfact> 0.41698852E+00</totfact>
</mgrwt>
</event>
<event>
 5    1  0.2344661E-004  0.5979017E+03  0.7818608E-02  0.9909769E-01
         13   -1    0    0    0    0  0.00000000000E+00  0.00000000000E+00  0.10000000000E+04  0.10000000000E+04  0.00000000000E+00 0. -1.
          2   -1    0    0  501    0 -0.00000000000E+00 -0.00000000000E+00 -0.89371614093E+02  0.89371614093E+02  0.00000000000E+00 0. -1.
    9000006    2    1    2  501    0  0.00000000000E+00  0.00000000000E+00  0.91062838591E+03  0.10893716141E+04  0.59790171130E+03 0.  0.
         13    1    3    3    0    0 -0.29709500487E+03 -0.25533920988E+02  0.41648435783E+03  0.51222714039E+03  0.00000000000E+00 0. -1.
          2    1    3    3  501    0  0.29709500487E+03  0.25533920988E+02  0.49414402808E+03  0.57714447370E+03  0.00000000000E+00 0. -1.
<mgrwt>
<rscale>  0 0.59790171E+03</rscale>
<asrwt>0</asrwt>
<pdfrwt beam="1">0</pdfrwt>
<pdfrwt beam="2">  1        2 0.32498837E+00 0.59790171E+03</pdfrwt>
<totfact> 0.75103146E+00</totfact>
</mgrwt>
</event>
<event>
 5    1  0.2344661E-004  0.6511788E+03  0.7818608E-02  0.9804570E-01
         13   -1    0    0    0    0  0.00000000000E+00  0.00000000000E+00  0.10000000000E+04  0.10000000000E+04  0.00000000000E+00 0. -1.
          2   -1    0    0  501    0 -0.00000000000E+00 -0.00000000000E+00 -0.10600847078E+03  0.10600847078E+03  0.00000000000E+00 0. -1.
    9000006    2    1    2  501    0  0.00000000000E+00  0.00000000000E+00  0.89399152922E+03  0.11060084708E+04  0.65117884113E+03 0.  0.
         13    1    3    3    0    0 -0.45025838692E+02  0.32244943079E+03  0.44234145157E+03  0.54924213362E+03  0.00000000000E+00 0. -1.
          4    1    3    3  501    0  0.45025838692E+02 -0.32244943079E+03  0.45165007765E+03  0.55676633717E+03  0.00000000000E+00 0. -1.
<mgrwt>
<rscale>  0 0.65117884E+03</rscale>
<asrwt>0</asrwt>
<pdfrwt beam="1">0</pdfrwt>
<pdfrwt beam="2">  1        2 0.38548616E+00 0.65117884E+03</pdfrwt>
<totfact> 0.45108953E+00</totfact>
</mgrwt>
</event>
<event>
 5    1  0.2344661E-004  0.6491978E+03  0.7818608E-02  0.9808286E-01
         13   -1    0    0    0    0  0.00000000000E+00  0.00000000000E+00  0.10000000000E+04  0.10000000000E+04  0.00000000000E+00 0. -1.
          2   -1    0    0  501    0 -0.00000000000E+00 -0.00000000000E+00 -0.10536443853E+03  0.10536443853E+03  0.00000000000E+00 0. -1.
    9000006    2    1    2  501    0  0.00000000000E+00  0.00000000000E+00  0.89463556147E+03  0.11053644385E+04  0.64919777736E+03 0.  0.
         13    1    3    3    0    0  0.20666186637E+03  0.19005050260E+03  0.72467990759E+03  0.77716747810E+03  0.00000000000E+00 0. -1.
          2    1    3    3  501    0 -0.20666186637E+03 -0.19005050260E+03  0.16995565388E+03  0.32819696043E+03  0.00000000000E+00 0. -1.
<mgrwt>
<rscale>  0 0.64919778E+03</rscale>
<asrwt>0</asrwt>
<pdfrwt beam="1">0</pdfrwt>
<pdfrwt beam="2">  1        2 0.38314422E+00 0.64919778E+03</pdfrwt>
<totfact> 0.46025674E+00</totfact>
</mgrwt>
</event>
<event>
 5    1  0.2344661E-004  0.6559151E+03  0.7818608E-02  0.9795743E-01
         13   -1    0    0    0    0  0.00000000000E+00  0.00000000000E+00  0.10000000000E+04  0.10000000000E+04  0.00000000000E+00 0. -1.
          2   -1    0    0  501    0 -0.00000000000E+00 -0.00000000000E+00 -0.10755616223E+03  0.10755616223E+03  0.00000000000E+00 0. -1.
    9000006    2    1    2  501    0  0.00000000000E+00  0.00000000000E+00  0.89244383777E+03  0.11075561622E+04  0.65591512327E+03 0.  0.
         13    1    3    3    0    0  0.43805111436E+02 -0.13666832053E+03 -0.51716336285E+02  0.15255063770E+03  0.00000000000E+00 0. -1.
          4    1    3    3  501    0 -0.43805111436E+02  0.13666832053E+03  0.94416017405E+03  0.95500552453E+03  0.00000000000E+00 0. -1.
<mgrwt>
<rscale>  0 0.65591512E+03</rscale>
<asrwt>0</asrwt>
<pdfrwt beam="1">0</pdfrwt>
<pdfrwt beam="2">  1        2 0.39111414E+00 0.65591512E+03</pdfrwt>
<totfact> 0.42973196E+00</totfact>
</mgrwt>
</event>
<event>
 5    1  0.2344661E-004  0.6913239E+03  0.7818608E-02  0.9732186E-01
         13   -1    0    0    0    0  0.00000000000E+00  0.00000000000E+00  0.10000000000E+04  0.10000000000E+04  0.00000000000E+00 0. -1.
          2   -1    0    0  501    0 -0.00000000000E+00 -0.00000000000E+00 -0.11948217511E+03  0.11948217511E+03  0.00000000000E+00 0. -1.
    9000006    2    1    2  501    0  0.00000000000E+00  0.00000000000E+00  0.88051782489E+03  0.11194821751E+04  0.69132387522E+03 0.  0.
         13    1    3    3    0    0  0.28868744282E+03  0.13604083963E+03  0.65529866263E+03  0.72887851315E+03  0.00000000000E+00 0. -1.
          4    1    3    3  501    0 -0.28868744282E+03 -0.13604083963E+03  0.22521916226E+03  0.39060366196E+03  0.00000000000E+00 0. -1.
<mgrwt>
<rscale>  0 0.69132388E+03</rscale>
<asrwt>0</asrwt>
<pdfrwt beam="1">0</pdfrwt>
<pdfrwt beam="2">  1        2 0.43448155E+00 0.69132388E+03</pdfrwt>
<totfact> 0.29324661E+00</totfact>
</mgrwt>
</event>
<event>
 5    1  0.2344661E-004  0.6519866E+03  0.7818608E-02  0.9803059E-01
         13   -1    0    0    0    0  0.00000000000E+00  0.00000000000E+00  0.10000000000E+04  0.10000000000E+04  0.00000000000E+00 0. -1.
          2   -1    0    0  501    0 -0.00000000000E+00 -0.00000000000E+00 -0.10627161857E+03  0.10627161857E+03  0.00000000000E+00 0. -1.
    9000006    2    1    2  501    0  0.00000000000E+00  0.00000000000E+00  0.89372838143E+03  0.11062716186E+04  0.65198655990E+03 0.  0.
         13    1    3    3    0    0  0.31190404065E+03  0.27346507345E+02  0.29284399113E+03  0.42870685227E+03  0.00000000000E+00 0. -1.
          2    1    3    3  501    0 -0.31190404065E+03 -0.27346507345E+02  0.60088439030E+03  0.67756476631E+03  0.00000000000E+00 0. -1.
<mgrwt>
<rscale>  0 0.65198656E+03</rscale>
<asrwt>0</asrwt>
<pdfrwt beam="1">0</pdfrwt>
<pdfrwt beam="2">  1        2 0.38644306E+00 0.65198656E+03</pdfrwt>
<totfact> 0.44739175E+00</totfact>
</mgrwt>
</event>
<event>
 5    1  0.2344661E-004  0.6199265E+03  0.7818608E-02  0.9864906E-01
         13   -1    0    0    0    0  0.00000000000E+00  0.00000000000E+00  0.10000000000E+04  0.10000000000E+04  0.00000000000E+00 0. -1.
          2   -1    0    0  501    0 -0.00000000000E+00 -0.00000000000E+00 -0.96077212611E+02  0.96077212611E+02  0.00000000000E+00 0. -1.
    9000006    2    1    2  501    0  0.00000000000E+00  0.00000000000E+00  0.90392278739E+03  0.10960772126E+04  0.61992648794E+03 0.  0.
         13    1    3    3    0    0  0.30067217238E+03  0.54848196682E+02  0.54323818688E+03  0.62331357085E+03  0.00000000000E+00 0. -1.
          2    1    3    3  501    0 -0.30067217238E+03 -0.54848196682E+02  0.36068460051E+03  0.47276364176E+03  0.00000000000E+00 0. -1.
<mgrwt>
<rscale>  0 0.61992649E+03</rscale>
<asrwt>0</asrwt>
<pdfrwt beam="1">0</pdfrwt>
<pdfrwt beam="2">  1        2 0.34937242E+00 0.61992649E+03</pdfrwt>
<totfact> 0.61287898E+00</totfact>
</mgrwt>
</event>
<event>
 5    1  0.2344661E-004  0.6305425E+03  0.7818608E-02  0.9843991E-01
         13   -1    0    0    0    0  0.00000000000E+00  0.00000000000E+00  0.10000000000E+04  0.10000000000E+04  0.00000000000E+00 0. -1.
          2   -1    0    0  501    0 -0.00000000000E+00 -0.00000000000E+00 -0.99395973809E+02  0.99395973809E+02  0.00000000000E+00 0. -1.
    9000006    2    1    2  501    0  0.00000000000E+00  0.00000000000E+00  0.90060402619E+03  0.10993959738E+04  0.63054254039E+03 0.  0.
         13    1    3    3    0    0  0.96754432354E+02 -0.26560208543E+03  0.20688741179E+03  0.35029742951E+03  0.00000000000E+00 0. -1.
          4    1    3    3  501    0 -0.96754432354E+02  0.26560208543E+03  0.69371661440E+03  0.74909854430E+03  0.00000000000E+00 0. -1.
<mgrwt>
<rscale>  0 0.63054254E+03</rscale>
<asrwt>0</asrwt>
<pdfrwt beam="1">0</pdfrwt>
<pdfrwt beam="2">  1        2 0.36144067E+00 0.63054254E+03</pdfrwt>
<totfact> 0.55367089E+00</totfact>
</mgrwt>
</event>
<event>
 5    1  0.2344661E-004  0.6096119E+03  0.7818608E-02  0.9885663E-01
         13   -1    0    0    0    0  0.00000000000E+00  0.00000000000E+00  0.10000000000E+04  0.10000000000E+04  0.00000000000E+00 0. -1.
          2   -1    0    0  501    0 -0.00000000000E+00 -0.00000000000E+00 -0.92906652751E+02  0.92906652751E+02  0.00000000000E+00 0. -1.
    9000006    2    1    2  501    0  0.00000000000E+00  0.00000000000E+00  0.90709334725E+03  0.10929066528E+04  0.60961185274E+03 0.  0.
         13    1    3    3    0    0 -0.85876459435E+02  0.28516279869E+03  0.33716616060E+03  0.44985954241E+03  0.00000000000E+00 0. -1.
          4    1    3    3  501    0  0.85876459435E+02 -0.28516279869E+03  0.56992718664E+03  0.64304711034E+03  0.00000000000E+00 0. -1.
<mgrwt>
<rscale>  0 0.60961185E+03</rscale>
<asrwt>0</asrwt>
<pdfrwt beam="1">0</pdfrwt>
<pdfrwt beam="2">  1        2 0.33784309E+00 0.60961185E+03</pdfrwt>
<totfact> 0.67490911E+00</totfact>
</mgrwt>
</event>
<event>
 5    1  0.2344661E-004  0.5490250E+03  0.7818608E-02  0.1001720E+00
         13   -1    0    0    0    0  0.00000000000E+00  0.00000000000E+00  0.10000000000E+04  0.10000000000E+04  0.00000000000E+00 0. -1.
          2   -1    0    0  501    0 -0.00000000000E+00 -0.00000000000E+00 -0.75357120374E+02  0.75357120374E+02  0.00000000000E+00 0. -1.
    9000006    2    1    2  501    0  0.00000000000E+00  0.00000000000E+00  0.92464287963E+03  0.10753571204E+04  0.54902502811E+03 0.  0.
         13    1    3    3    0    0  0.37299325180E+01  0.27386216333E+03  0.49858183207E+03  0.56885695932E+03  0.00000000000E+00 0. -1.
          2    1    3    3  501    0 -0.37299325180E+01 -0.27386216333E+03  0.42606104756E+03  0.50650016105E+03  0.00000000000E+00 0. -1.
<mgrwt>
<rscale>  0 0.54902503E+03</rscale>
<asrwt>0</asrwt>
<pdfrwt beam="1">0</pdfrwt>
<pdfrwt beam="2">  1        2 0.27402647E+00 0.54902503E+03</pdfrwt>
<totfact> 0.11433005E+01</totfact>
</mgrwt>
</event>
<event>
 5    1  0.2344661E-004  0.6515924E+03  0.7818608E-02  0.9803796E-01
         13   -1    0    0    0    0  0.00000000000E+00  0.00000000000E+00  0.10000000000E+04  0.10000000000E+04  0.00000000000E+00 0. -1.
          2   -1    0    0  501    0 -0.00000000000E+00 -0.00000000000E+00 -0.10614314808E+03  0.10614314808E+03  0.00000000000E+00 0. -1.
    9000006    2    1    2  501    0  0.00000000000E+00  0.00000000000E+00  0.89385685192E+03  0.11061431481E+04  0.65159235134E+03 0.  0.
         13    1    3    3    0    0 -0.16030828901E+03  0.28286181312E+03  0.48227746452E+03  0.58163657522E+03  0.00000000000E+00 0. -1.
          2    1    3    3  501    0  0.16030828901E+03 -0.28286181312E+03  0.41157938740E+03  0.52450657287E+03  0.00000000000E+00 0. -1.
<mgrwt>
<rscale>  0 0.65159235E+03</rscale>
<asrwt>0</asrwt>
<pdfrwt beam="1">0</pdfrwt>
<pdfrwt beam="2">  1        2 0.38597590E+00 0.65159235E+03</pdfrwt>
<totfact> 0.44919358E+00</totfact>
</mgrwt>
</event>
<event>
 5    1  0.2344661E-004  0.6432900E+03  0.7818608E-02  0.9819452E-01
         13   -1    0    0    0    0  0.00000000000E+00  0.00000000000E+00  0.10000000000E+04  0.10000000000E+04  0.00000000000E+00 0. -1.
          2   -1    0    0  501    0 -0.00000000000E+00 -0.00000000000E+00 -0.10345549143E+03  0.10345549143E+03  0.00000000000E+00 0. -1.
    9000006    2    1    2  501    0  0.00000000000E+00  0.00000000000E+00  0.89654450857E+03  0.11034554914E+04  0.64328995462E+03 0.  0.
         13    1    3    3    0    0 -0.18973897408E+03 -0.22732927236E+03  0.66372235771E+03  0.72677840122E+03  0.00000000000E+00 0. -1.
          2    1    3    3  501    0  0.18973897408E+03  0.22732927236E+03  0.23282215086E+03  0.37667709021E+03  0.00000000000E+00 0. -1.
<mgrwt>
<rscale>  0 0.64328995E+03</rscale>
<asrwt>0</asrwt>
<pdfrwt beam="1">0</pdfrwt>
<pdfrwt beam="2">  1        2 0.37620258E+00 0.64328995E+03</pdfrwt>
<totfact> 0.48843269E+00</totfact>
</mgrwt>
</event>
<event>
 5    1  0.2344661E-004  0.6645850E+03  0.7818608E-02  0.9779790E-01
         13   -1    0    0    0    0  0.00000000000E+00  0.00000000000E+00  0.10000000000E+04  0.10000000000E+04  0.00000000000E+00 0. -1.
          2   -1    0    0  501    0 -0.00000000000E+00 -0.00000000000E+00 -0.11041829018E+03  0.11041829018E+03  0.00000000000E+00 0. -1.
    9000006    2    1    2  501    0  0.00000000000E+00  0.00000000000E+00  0.88958170982E+03  0.11104182902E+04  0.66458495372E+03 0.  0.
         13    1    3    3    0    0 -0.32566800147E+03 -0.33258436825E+01  0.33462170936E+03  0.46695010096E+03  0.00000000000E+00 0. -1.
          4    1    3    3  501    0  0.32566800147E+03  0.33258436825E+01  0.55496000047E+03  0.64346818922E+03  0.00000000000E+00 0. -1.
<mgrwt>
<rscale>  0 0.66458495E+03</rscale>
<asrwt>0</asrwt>
<pdfrwt beam="1">0</pdfrwt>
<pdfrwt beam="2">  1        2 0.40152190E+00 0.66458495E+03</pdfrwt>
<totfact> 0.39262644E+00</totfact>
</mgrwt>
</event>
<event>
 5    1  0.2344661E-004  0.6435689E+03  0.7818608E-02  0.9818922E-01
         13   -1    0    0    0    0  0.00000000000E+00  0.00000000000E+00  0.10000000000E+04  0.10000000000E+04  0.00000000000E+00 0. -1.
          2   -1    0    0  501    0 -0.00000000000E+00 -0.00000000000E+00 -0.10354523407E+03  0.10354523407E+03  0.00000000000E+00 0. -1.
    9000006    2    1    2  501    0  0.00000000000E+00  0.00000000000E+00  0.89645476593E+03  0.11035452341E+04  0.64356890563E+03 0.  0.
         13    1    3    3    0    0 -0.17205346272E+03 -0.45318300804E+02 -0.11527748053E+02  0.17829478792E+03  0.00000000000E+00 0. -1.
          4    1    3    3  501    0  0.17205346272E+03  0.45318300804E+02  0.90798251398E+03  0.92525044616E+03  0.00000000000E+00 0. -1.
<mgrwt>
<rscale>  0 0.64356891E+03</rscale>
<asrwt>0</asrwt>
<pdfrwt beam="1">0</pdfrwt>
<pdfrwt beam="2">  1        2 0.37652892E+00 0.64356891E+03</pdfrwt>
<totfact> 0.48707368E+00</totfact>
</mgrwt>
</event>
<event>
 5    1  0.2344661E-004  0.6587997E+03  0.7818608E-02  0.9790406E-01
         13   -1    0    0    0    0  0.00000000000E+00  0.00000000000E+00  0.10000000000E+04  0.10000000000E+04  0.00000000000E+00 0. -1.
          2   -1    0    0  501    0 -0.00000000000E+00 -0.00000000000E+00 -0.10850427003E+03  0.10850427003E+03  0.00000000000E+00 0. -1.
    9000006    2    1    2  501    0  0.00000000000E+00  0.00000000000E+00  0.89149572997E+03  0.11085042700E+04  0.65879972686E+03 0.  0.
         13    1    3    3    0    0 -0.15689101727E+03  0.80925817940E+02 -0.22189172914E+02  0.17792172072E+03  0.00000000000E+00 0. -1.
          2    1    3    3  501    0  0.15689101727E+03 -0.80925817940E+02  0.91368490289E+03  0.93058254931E+03  0.00000000000E+00 0. -1.
<mgrwt>
<rscale>  0 0.65879973E+03</rscale>
<asrwt>0</asrwt>
<pdfrwt beam="1">0</pdfrwt>
<pdfrwt beam="2">  1        2 0.39456181E+00 0.65879973E+03</pdfrwt>
<totfact> 0.41710430E+00</totfact>
</mgrwt>
</event>
<event>
 5    1  0.2344661E-004  0.6235667E+03  0.7818608E-02  0.9857684E-01
         13   -1    0    0    0    0  0.00000000000E+00  0.00000000000E+00  0.10000000000E+04  0.10000000000E+04  0.00000000000E+00 0. -1.
          2   -1    0    0  501    0 -0.00000000000E+00 -0.00000000000E+00 -0.97208867207E+02  0.97208867207E+02  0.00000000000E+00 0. -1.
    9000006    2    1    2  501    0  0.00000000000E+00  0.00000000000E+00  0.90279113279E+03  0.10972088672E+04  0.62356673166E+03 0.  0.
         13    1    3    3    0    0 -0.12591316807E+03  0.33858711610E+02  0.94972450298E+03  0.95863296929E+03  0.00000000000E+00 0. -1.
          4    1    3    3  501    0  0.12591316807E+03 -0.33858711610E+02 -0.46933370192E+02  0.13857589791E+03  0.00000000000E+00 0. -1.
<mgrwt>
<rscale>  0 0.62356673E+03</rscale>
<asrwt>0</asrwt>
<pdfrwt beam="1">0</pdfrwt>
<pdfrwt beam="2">  1        2 0.35348754E+00 0.62356673E+03</pdfrwt>
<totfact> 0.59205932E+00</totfact>
</mgrwt>
</event>
<event>
 5    1  0.2344661E-004  0.6581478E+03  0.7818608E-02  0.9791609E-01
         13   -1    0    0    0    0  0.00000000000E+00  0.00000000000E+00  0.10000000000E+04  0.10000000000E+04  0.00000000000E+00 0. -1.
          2   -1    0    0  501    0 -0.00000000000E+00 -0.00000000000E+00 -0.10828962260E+03  0.10828962260E+03  0.00000000000E+00 0. -1.
    9000006    2    1    2  501    0  0.00000000000E+00  0.00000000000E+00  0.89171037740E+03  0.11082896226E+04  0.65814777245E+03 0.  0.
         13    1    3    3    0    0  0.26258925574E+03 -0.13677787551E+03  0.68771391498E+03  0.74874009730E+03  0.00000000000E+00 0. -1.
          2    1    3    3  501    0 -0.26258925574E+03  0.13677787551E+03  0.20399646243E+03  0.35954952529E+03  0.00000000000E+00 0. -1.
<mgrwt>
<rscale>  0 0.65814777E+03</rscale>
<asrwt>0</asrwt>
<pdfrwt beam="1">0</pdfrwt>
<pdfrwt beam="2">  1        2 0.39378128E+00 0.65814777E+03</pdfrwt>
<totfact> 0.41993330E+00</totfact>
</mgrwt>
</event>
<event>
 5    1  0.2344661E-004  0.6207942E+03  0.7818608E-02  0.9863180E-01
         13   -1    0    0    0    0  0.00000000000E+00  0.00000000000E+00  0.10000000000E+04  0.10000000000E+04  0.00000000000E+00 0. -1.
          2   -1    0    0  501    0 -0.00000000000E+00 -0.00000000000E+00 -0.96346365206E+02  0.96346365206E+02  0.00000000000E+00 0. -1.
    9000006    2    1    2  501    0  0.00000000000E+00  0.00000000000E+00  0.90365363479E+03  0.10963463652E+04  0.62079421778E+03 0.  0.
         13    1    3    3    0    0  0.21127261181E+03 -0.15529690373E+03  0.15846706803E+03  0.30637404665E+03  0.00000000000E+00 0. -1.
          4    1    3    3  501    0 -0.21127261181E+03  0.15529690373E+03  0.74518656676E+03  0.78997231856E+03  0.00000000000E+00 0. -1.
<mgrwt>
<rscale>  0 0.62079422E+03</rscale>
<asrwt>0</asrwt>
<pdfrwt beam="1">0</pdfrwt>
<pdfrwt beam="2">  1        2 0.35035116E+00 0.62079422E+03</pdfrwt>
<totfact> 0.60786640E+00</totfact>
</mgrwt>
</event>
<event>
 5    1  0.2344661E-004  0.6124233E+03  0.7818608E-02  0.9879962E-01
         13   -1    0    0    0    0  0.00000000000E+00  0.00000000000E+00  0.10000000000E+04  0.10000000000E+04  0.00000000000E+00 0. -1.
          2   -1    0    0  501    0 -0.00000000000E+00 -0.00000000000E+00 -0.93765560598E+02  0.93765560598E+02  0.00000000000E+00 0. -1.
    9000006    2    1    2  501    0  0.00000000000E+00  0.00000000000E+00  0.90623443940E+03  0.10937655606E+04  0.61242325429E+03 0.  0.
         13    1    3    3    0    0  0.48828173852E+02  0.12318882509E+02  0.99255392377E+03  0.99383058769E+03  0.00000000000E+00 0. -1.
          4    1    3    3  501    0 -0.48828173852E+02 -0.12318882509E+02 -0.86319484372E+02  0.99934972909E+02  0.00000000000E+00 0. -1.
<mgrwt>
<rscale>  0 0.61242325E+03</rscale>
<asrwt>0</asrwt>
<pdfrwt beam="1">0</pdfrwt>
<pdfrwt beam="2">  1        2 0.34096639E+00 0.61242325E+03</pdfrwt>
<totfact> 0.65754767E+00</totfact>
</mgrwt>
</event>
<event>
 5    1  0.2344661E-004  0.6471318E+03  0.7818608E-02  0.9812176E-01
         13   -1    0    0    0    0  0.00000000000E+00  0.00000000000E+00  0.10000000000E+04  0.10000000000E+04  0.00000000000E+00 0. -1.
          2   -1    0    0  501    0 -0.00000000000E+00 -0.00000000000E+00 -0.10469488556E+03  0.10469488556E+03  0.00000000000E+00 0. -1.
    9000006    2    1    2  501    0  0.00000000000E+00  0.00000000000E+00  0.89530511444E+03  0.11046948856E+04  0.64713178121E+03 0.  0.
         13    1    3    3    0    0  0.20865816150E+03 -0.24501488284E+03  0.50489302256E+03  0.59873824448E+03  0.00000000000E+00 0. -1.
          4    1    3    3  501    0 -0.20865816150E+03  0.24501488284E+03  0.39041209188E+03  0.50595664109E+03  0.00000000000E+00 0. -1.
<mgrwt>
<rscale>  0 0.64713178E+03</rscale>
<asrwt>0</asrwt>
<pdfrwt beam="1">0</pdfrwt>
<pdfrwt beam="2">  1        2 0.38070948E+00 0.64713178E+03</pdfrwt>
<totfact> 0.46996626E+00</totfact>
</mgrwt>
</event>
<event>
 5    1  0.2344661E-004  0.6600830E+03  0.7818608E-02  0.9788041E-01
         13   -1    0    0    0    0  0.00000000000E+00  0.00000000000E+00  0.10000000000E+04  0.10000000000E+04  0.00000000000E+00 0. -1.
          2   -1    0    0  501    0 -0.00000000000E+00 -0.00000000000E+00 -0.10892738966E+03  0.10892738966E+03  0.00000000000E+00 0. -1.
    9000006    2    1    2  501    0  0.00000000000E+00  0.00000000000E+00  0.89107261034E+03  0.11089273897E+04  0.66008299375E+03 0.  0.
         13    1    3    3    0    0  0.82699686286E+02 -0.20964892088E+03  0.40470853451E+02  0.22897554043E+03  0.00000000000E+00 0. -1.
          2    1    3    3  501    0 -0.82699686286E+02  0.20964892088E+03  0.85060175689E+03  0.87995184923E+03  0.00000000000E+00 0. -1.
<mgrwt>
<rscale>  0 0.66008299E+03</rscale>
<asrwt>0</asrwt>
<pdfrwt beam="1">0</pdfrwt>
<pdfrwt beam="2">  1        2 0.39610043E+00 0.66008299E+03</pdfrwt>
<totfact> 0.41157799E+00</totfact>
</mgrwt>
</event>
<event>
 5    1  0.2344661E-004  0.6487349E+03  0.7818608E-02  0.9809156E-01
         13   -1    0    0    0    0  0.00000000000E+00  0.00000000000E+00  0.10000000000E+04  0.10000000000E+04  0.00000000000E+00 0. -1.
          2   -1    0    0  501    0 -0.00000000000E+00 -0.00000000000E+00 -0.10521425409E+03  0.10521425409E+03  0.00000000000E+00 0. -1.
    9000006    2    1    2  501    0  0.00000000000E+00  0.00000000000E+00  0.89478574591E+03  0.11052142541E+04  0.64873493537E+03 0.  0.
         13    1    3    3    0    0 -0.36281503741E+02 -0.10009541411E+03  0.96938384297E+03  0.97521304054E+03  0.00000000000E+00 0. -1.
          2    1    3    3  501    0  0.36281503741E+02  0.10009541411E+03 -0.74598097059E+02  0.13000121355E+03  0.00000000000E+00 0. -1.
<mgrwt>
<rscale>  0 0.64873494E+03</rscale>
<asrwt>0</asrwt>
<pdfrwt beam="1">0</pdfrwt>
<pdfrwt beam="2">  1        2 0.38259809E+00 0.64873494E+03</pdfrwt>
<totfact> 0.46241865E+00</totfact>
</mgrwt>
</event>
<event>
 5    1  0.2344661E-004  0.6385246E+03  0.7818608E-02  0.9828553E-01
         13   -1    0    0    0    0  0.00000000000E+00  0.00000000000E+00  0.10000000000E+04  0.10000000000E+04  0.00000000000E+00 0. -1.
          2   -1    0    0  501    0 -0.00000000000E+00 -0.00000000000E+00 -0.10192840632E+03  0.10192840632E+03  0.00000000000E+00 0. -1.
    9000006    2    1    2  501    0  0.00000000000E+00  0.00000000000E+00  0.89807159368E+03  0.11019284063E+04  0.63852456905E+03 0.  0.
         13    1    3    3    0    0  0.21519492540E+03  0.12818472993E+03  0.79066388054E+03  0.82939107355E+03  0.00000000000E+00 0. -1.
          2    1    3    3  501    0 -0.21519492540E+03 -0.12818472993E+03  0.10740771314E+03  0.27253733277E+03  0.00000000000E+00 0. -1.
<mgrwt>
<rscale>  0 0.63852457E+03</rscale>
<asrwt>0</asrwt>
<pdfrwt beam="1">0</pdfrwt>
<pdfrwt beam="2">  1        2 0.37064953E+00 0.63852457E+03</pdfrwt>
<totfact> 0.51209747E+00</totfact>
</mgrwt>
</event>
<event>
 5    1  0.2344661E-004  0.6590419E+03  0.7818608E-02  0.9789959E-01
         13   -1    0    0    0    0  0.00000000000E+00  0.00000000000E+00  0.10000000000E+04  0.10000000000E+04  0.00000000000E+00 0. -1.
          2   -1    0    0  501    0 -0.00000000000E+00 -0.00000000000E+00 -0.10858405389E+03  0.10858405389E+03  0.00000000000E+00 0. -1.
    9000006    2    1    2  501    0  0.00000000000E+00  0.00000000000E+00  0.89141594611E+03  0.11085840539E+04  0.65904189212E+03 0.  0.
         13    1    3    3    0    0  0.88863767277E+02  0.49386896063E+02  0.97295962560E+03  0.97825674937E+03  0.00000000000E+00 0. -1.
          4    1    3    3  501    0 -0.88863767277E+02 -0.49386896063E+02 -0.81543679496E+02  0.13032730452E+03  0.00000000000E+00 0. -1.
<mgrwt>
<rscale>  0 0.65904189E+03</rscale>
<asrwt>0</asrwt>
<pdfrwt beam="1">0</pdfrwt>
<pdfrwt beam="2">  1        2 0.39485194E+00 0.65904189E+03</pdfrwt>
<totfact> 0.41605717E+00</totfact>
</mgrwt>
</event>
<event>
 5    1  0.2344661E-004  0.6457257E+03  0.7818608E-02  0.9814833E-01
         13   -1    0    0    0    0  0.00000000000E+00  0.00000000000E+00  0.10000000000E+04  0.10000000000E+04  0.00000000000E+00 0. -1.
          2   -1    0    0  501    0 -0.00000000000E+00 -0.00000000000E+00 -0.10424042039E+03  0.10424042039E+03  0.00000000000E+00 0. -1.
    9000006    2    1    2  501    0  0.00000000000E+00  0.00000000000E+00  0.89575957961E+03  0.11042404204E+04  0.64572570149E+03 0.  0.
         13    1    3    3    0    0  0.25412311960E+03  0.11440724541E+03  0.72664243420E+03  0.77825240437E+03  0.00000000000E+00 0. -1.
          4    1    3    3  501    0 -0.25412311960E+03 -0.11440724541E+03  0.16911714541E+03  0.32598801602E+03  0.00000000000E+00 0. -1.
<mgrwt>
<rscale>  0 0.64572570E+03</rscale>
<asrwt>0</asrwt>
<pdfrwt beam="1">0</pdfrwt>
<pdfrwt beam="2">  1        2 0.37905687E+00 0.64572570E+03</pdfrwt>
<totfact> 0.47666242E+00</totfact>
</mgrwt>
</event>
<event>
 5    1  0.2344661E-004  0.6599917E+03  0.7818608E-02  0.9788209E-01
         13   -1    0    0    0    0  0.00000000000E+00  0.00000000000E+00  0.10000000000E+04  0.10000000000E+04  0.00000000000E+00 0. -1.
          4   -1    0    0  501    0 -0.00000000000E+00 -0.00000000000E+00 -0.10889726629E+03  0.10889726629E+03  0.00000000000E+00 0. -1.
    9000006    2    1    2  501    0  0.00000000000E+00  0.00000000000E+00  0.89110273371E+03  0.11088972663E+04  0.65999171599E+03 0.  0.
         13    1    3    3    0    0 -0.18466286169E+03 -0.20472631525E+03  0.14087038677E+03  0.30960895095E+03  0.00000000000E+00 0. -1.
          2    1    3    3  501    0  0.18466286169E+03  0.20472631525E+03  0.75023234694E+03  0.79928831534E+03  0.00000000000E+00 0. -1.
<mgrwt>
<rscale>  0 0.65999172E+03</rscale>
<asrwt>0</asrwt>
<pdfrwt beam="1">0</pdfrwt>
<pdfrwt beam="2">  1        4 0.39599089E+00 0.65999172E+03</pdfrwt>
<totfact> 0.34154557E-02</totfact>
</mgrwt>
</event>
<event>
 5    1  0.2344661E-004  0.6454804E+03  0.7818608E-02  0.9815297E-01
         13   -1    0    0    0    0  0.00000000000E+00  0.00000000000E+00  0.10000000000E+04  0.10000000000E+04  0.00000000000E+00 0. -1.
          2   -1    0    0  501    0 -0.00000000000E+00 -0.00000000000E+00 -0.10416124662E+03  0.10416124662E+03  0.00000000000E+00 0. -1.
    9000006    2    1    2  501    0  0.00000000000E+00  0.00000000000E+00  0.89583875338E+03  0.11041612466E+04  0.64548043074E+03 0.  0.
         13    1    3    3    0    0  0.89477844445E+02  0.19761269395E+03  0.39145259151E+02  0.22043006322E+03  0.00000000000E+00 0. -1.
          4    1    3    3  501    0 -0.89477844445E+02 -0.19761269395E+03  0.85669349423E+03  0.88373118340E+03  0.00000000000E+00 0. -1.
<mgrwt>
<rscale>  0 0.64548043E+03</rscale>
<asrwt>0</asrwt>
<pdfrwt beam="1">0</pdfrwt>
<pdfrwt beam="2">  1        2 0.37876897E+00 0.64548043E+03</pdfrwt>
<totfact> 0.47783782E+00</totfact>
</mgrwt>
</event>
<event>
 5    1  0.2344661E-004  0.6321048E+03  0.7818608E-02  0.9840950E-01
         13   -1    0    0    0    0  0.00000000000E+00  0.00000000000E+00  0.10000000000E+04  0.10000000000E+04  0.00000000000E+00 0. -1.
          2   -1    0    0  501    0 -0.00000000000E+00 -0.00000000000E+00 -0.99889129414E+02  0.99889129414E+02  0.00000000000E+00 0. -1.
    9000006    2    1    2  501    0  0.00000000000E+00  0.00000000000E+00  0.90011087059E+03  0.10998891294E+04  0.63210483122E+03 0.  0.
         13    1    3    3    0    0  0.70567475677E+02  0.30135493944E+03  0.33871228960E+03  0.45882522083E+03  0.00000000000E+00 0. -1.
          4    1    3    3  501    0 -0.70567475677E+02 -0.30135493944E+03  0.56139858099E+03  0.64106390858E+03  0.00000000000E+00 0. -1.
<mgrwt>
<rscale>  0 0.63210483E+03</rscale>
<asrwt>0</asrwt>
<pdfrwt beam="1">0</pdfrwt>
<pdfrwt beam="2">  1        2 0.36323396E+00 0.63210483E+03</pdfrwt>
<totfact> 0.54533943E+00</totfact>
</mgrwt>
</event>
<event>
 5    1  0.2344661E-004  0.6475079E+03  0.7818608E-02  0.9811467E-01
         13   -1    0    0    0    0  0.00000000000E+00  0.00000000000E+00  0.10000000000E+04  0.10000000000E+04  0.00000000000E+00 0. -1.
          2   -1    0    0  501    0 -0.00000000000E+00 -0.00000000000E+00 -0.10481661214E+03  0.10481661214E+03  0.00000000000E+00 0. -1.
    9000006    2    1    2  501    0  0.00000000000E+00  0.00000000000E+00  0.89518338786E+03  0.11048166121E+04  0.64750787529E+03 0.  0.
         13    1    3    3    0    0 -0.28225150986E+03  0.21705243831E+02  0.17954279933E+03  0.33522029954E+03  0.00000000000E+00 0. -1.
          4    1    3    3  501    0  0.28225150986E+03 -0.21705243831E+02  0.71564058852E+03  0.76959631260E+03  0.00000000000E+00 0. -1.
<mgrwt>
<rscale>  0 0.64750788E+03</rscale>
<asrwt>0</asrwt>
<pdfrwt beam="1">0</pdfrwt>
<pdfrwt beam="2">  1        2 0.38115212E+00 0.64750788E+03</pdfrwt>
<totfact> 0.46818732E+00</totfact>
</mgrwt>
</event>
<event>
 5    1  0.2344661E-004  0.6531635E+03  0.7818608E-02  0.9800861E-01
         13   -1    0    0    0    0  0.00000000000E+00  0.00000000000E+00  0.10000000000E+04  0.10000000000E+04  0.00000000000E+00 0. -1.
          2   -1    0    0  501    0 -0.00000000000E+00 -0.00000000000E+00 -0.10665563750E+03  0.10665563750E+03  0.00000000000E+00 0. -1.
    9000006    2    1    2  501    0  0.00000000000E+00  0.00000000000E+00  0.89334436250E+03  0.11066556375E+04  0.65316349407E+03 0.  0.
         13    1    3    3    0    0 -0.13170960106E+03  0.26042687983E+03  0.19831942940E+03  0.35284582303E+03  0.00000000000E+00 0. -1.
          4    1    3    3  501    0  0.13170960106E+03 -0.26042687983E+03  0.69502493311E+03  0.75380981447E+03  0.00000000000E+00 0. -1.
<mgrwt>
<rscale>  0 0.65316349E+03</rscale>
<asrwt>0</asrwt>
<pdfrwt beam="1">0</pdfrwt>
<pdfrwt beam="2">  1        2 0.38783950E+00 0.65316349E+03</pdfrwt>
<totfact> 0.44204472E+00</totfact>
</mgrwt>
</event>
<event>
 5    1  0.2344661E-004  0.6579034E+03  0.7818608E-02  0.9792061E-01
         13   -1    0    0    0    0  0.00000000000E+00  0.00000000000E+00  0.10000000000E+04  0.10000000000E+04  0.00000000000E+00 0. -1.
          2   -1    0    0  501    0 -0.00000000000E+00 -0.00000000000E+00 -0.10820922022E+03  0.10820922022E+03  0.00000000000E+00 0. -1.
    9000006    2    1    2  501    0  0.00000000000E+00  0.00000000000E+00  0.89179077978E+03  0.11082092202E+04  0.65790339785E+03 0.  0.
         13    1    3    3    0    0 -0.21883296847E+03  0.59066814787E+02  0.84746225542E+03  0.87725083702E+03  0.00000000000E+00 0. -1.
          2    1    3    3  501    0  0.21883296847E+03 -0.59066814787E+02  0.44328524357E+02  0.23095838320E+03  0.00000000000E+00 0. -1.
<mgrwt>
<rscale>  0 0.65790340E+03</rscale>
<asrwt>0</asrwt>
<pdfrwt beam="1">0</pdfrwt>
<pdfrwt beam="2">  1        2 0.39348890E+00 0.65790340E+03</pdfrwt>
<totfact> 0.42099751E+00</totfact>
</mgrwt>
</event>
<event>
 5    1  0.2344661E-004  0.6475497E+03  0.7818608E-02  0.9811388E-01
         13   -1    0    0    0    0  0.00000000000E+00  0.00000000000E+00  0.10000000000E+04  0.10000000000E+04  0.00000000000E+00 0. -1.
          2   -1    0    0  501    0 -0.00000000000E+00 -0.00000000000E+00 -0.10483016187E+03  0.10483016187E+03  0.00000000000E+00 0. -1.
    9000006    2    1    2  501    0  0.00000000000E+00  0.00000000000E+00  0.89516983813E+03  0.11048301619E+04  0.64754972587E+03 0.  0.
         13    1    3    3    0    0  0.24931878337E+03  0.20644773554E+03  0.45960568745E+03  0.56215470396E+03  0.00000000000E+00 0. -1.
          4    1    3    3  501    0 -0.24931878337E+03 -0.20644773554E+03  0.43556415069E+03  0.54267545791E+03  0.00000000000E+00 0. -1.
<mgrwt>
<rscale>  0 0.64754973E+03</rscale>
<asrwt>0</asrwt>
<pdfrwt beam="1">0</pdfrwt>
<pdfrwt beam="2">  1        2 0.38120139E+00 0.64754973E+03</pdfrwt>
<totfact> 0.46798968E+00</totfact>
</mgrwt>
</event>
<event>
 5    1  0.2344661E-004  0.6415392E+03  0.7818608E-02  0.9822786E-01
         13   -1    0    0    0    0  0.00000000000E+00  0.00000000000E+00  0.10000000000E+04  0.10000000000E+04  0.00000000000E+00 0. -1.
          2   -1    0    0  501    0 -0.00000000000E+00 -0.00000000000E+00 -0.10289313419E+03  0.10289313419E+03  0.00000000000E+00 0. -1.
    9000006    2    1    2  501    0  0.00000000000E+00  0.00000000000E+00  0.89710686581E+03  0.11028931342E+04  0.64153919346E+03 0.  0.
         13    1    3    3    0    0  0.30851278921E+03 -0.41040533610E+02  0.31507198414E+03  0.44287111184E+03  0.00000000000E+00 0. -1.
          4    1    3    3  501    0 -0.30851278921E+03  0.41040533610E+02  0.58203488167E+03  0.66002202235E+03  0.00000000000E+00 0. -1.
<mgrwt>
<rscale>  0 0.64153919E+03</rscale>
<asrwt>0</asrwt>
<pdfrwt beam="1">0</pdfrwt>
<pdfrwt beam="2">  1        2 0.37415764E+00 0.64153919E+03</pdfrwt>
<totfact> 0.49702834E+00</totfact>
</mgrwt>
</event>
<event>
 5    1  0.2344661E-004  0.6872906E+03  0.7818608E-02  0.9739217E-01
         13   -1    0    0    0    0  0.00000000000E+00  0.00000000000E+00  0.10000000000E+04  0.10000000000E+04  0.00000000000E+00 0. -1.
          2   -1    0    0  501    0 -0.00000000000E+00 -0.00000000000E+00 -0.11809207760E+03  0.11809207760E+03  0.00000000000E+00 0. -1.
    9000006    2    1    2  501    0  0.00000000000E+00  0.00000000000E+00  0.88190792240E+03  0.11180920776E+04  0.68729055748E+03 0.  0.
         13    1    3    3    0    0  0.16101762032E+03 -0.18161469321E+03  0.45195506133E+02  0.24688702804E+03  0.00000000000E+00 0. -1.
          2    1    3    3  501    0 -0.16101762032E+03  0.18161469321E+03  0.83671241626E+03  0.87120504956E+03  0.00000000000E+00 0. -1.
<mgrwt>
<rscale>  0 0.68729056E+03</rscale>
<asrwt>0</asrwt>
<pdfrwt beam="1">0</pdfrwt>
<pdfrwt beam="2">  1        2 0.42942664E+00 0.68729056E+03</pdfrwt>
<totfact> 0.30686348E+00</totfact>
</mgrwt>
</event>
<event>
 5    1  0.2344661E-004  0.5875392E+03  0.7818608E-02  0.9931601E-01
         13   -1    0    0    0    0  0.00000000000E+00  0.00000000000E+00  0.10000000000E+04  0.10000000000E+04  0.00000000000E+00 0. -1.
          2   -1    0    0  501    0 -0.00000000000E+00 -0.00000000000E+00 -0.86300566955E+02  0.86300566955E+02  0.00000000000E+00 0. -1.
    9000006    2    1    2  501    0  0.00000000000E+00  0.00000000000E+00  0.91369943305E+03  0.10863005670E+04  0.58753916280E+03 0.  0.
         13    1    3    3    0    0  0.27968442647E+03  0.72631991437E+02  0.35898404400E+03  0.46083438287E+03  0.00000000000E+00 0. -1.
          4    1    3    3  501    0 -0.27968442647E+03 -0.72631991437E+02  0.55471538905E+03  0.62546618409E+03  0.00000000000E+00 0. -1.
<mgrwt>
<rscale>  0 0.58753916E+03</rscale>
<asrwt>0</asrwt>
<pdfrwt beam="1">0</pdfrwt>
<pdfrwt beam="2">  1        2 0.31382091E+00 0.58753916E+03</pdfrwt>
<totfact> 0.82378054E+00</totfact>
</mgrwt>
</event>
<event>
 5    1  0.2344661E-004  0.6570855E+03  0.7818608E-02  0.9793574E-01
         13   -1    0    0    0    0  0.00000000000E+00  0.00000000000E+00  0.10000000000E+04  0.10000000000E+04  0.00000000000E+00 0. -1.
          2   -1    0    0  501    0 -0.00000000000E+00 -0.00000000000E+00 -0.10794033120E+03  0.10794033120E+03  0.00000000000E+00 0. -1.
    9000006    2    1    2  501    0  0.00000000000E+00  0.00000000000E+00  0.89205966880E+03  0.11079403312E+04  0.65708547753E+03 0.  0.
         13    1    3    3    0    0 -0.13500909305E+03 -0.60848933184E+01 -0.58901420546E+02  0.14742407699E+03  0.00000000000E+00 0. -1.
          2    1    3    3  501    0  0.13500909305E+03  0.60848933184E+01  0.95096108935E+03  0.96051625421E+03  0.00000000000E+00 0. -1.
<mgrwt>
<rscale>  0 0.65708548E+03</rscale>
<asrwt>0</asrwt>
<pdfrwt beam="1">0</pdfrwt>
<pdfrwt beam="2">  1        2 0.39251112E+00 0.65708548E+03</pdfrwt>
<totfact> 0.42457422E+00</totfact>
</mgrwt>
</event>
<event>
 5    1  0.2344661E-004  0.6546371E+03  0.7818608E-02  0.9798117E-01
         13   -1    0    0    0    0  0.00000000000E+00  0.00000000000E+00  0.10000000000E+04  0.10000000000E+04  0.00000000000E+00 0. -1.
          2   -1    0    0  501    0 -0.00000000000E+00 -0.00000000000E+00 -0.10713744106E+03  0.10713744106E+03  0.00000000000E+00 0. -1.
    9000006    2    1    2  501    0  0.00000000000E+00  0.00000000000E+00  0.89286255894E+03  0.11071374411E+04  0.65463712410E+03 0.  0.
         13    1    3    3    0    0 -0.76403285978E+02 -0.10847515153E+03  0.95248050924E+03  0.96167741010E+03  0.00000000000E+00 0. -1.
          2    1    3    3  501    0  0.76403285978E+02  0.10847515153E+03 -0.59617950306E+02  0.14546003096E+03  0.00000000000E+00 0. -1.
<mgrwt>
<rscale>  0 0.65463712E+03</rscale>
<asrwt>0</asrwt>
<pdfrwt beam="1">0</pdfrwt>
<pdfrwt beam="2">  1        2 0.38959152E+00 0.65463712E+03</pdfrwt>
<totfact> 0.43541798E+00</totfact>
</mgrwt>
</event>
<event>
 5    1  0.2344661E-004  0.6430595E+03  0.7818608E-02  0.9819890E-01
         13   -1    0    0    0    0  0.00000000000E+00  0.00000000000E+00  0.10000000000E+04  0.10000000000E+04  0.00000000000E+00 0. -1.
          2   -1    0    0  501    0 -0.00000000000E+00 -0.00000000000E+00 -0.10338136710E+03  0.10338136710E+03  0.00000000000E+00 0. -1.
    9000006    2    1    2  501    0  0.00000000000E+00  0.00000000000E+00  0.89661863290E+03  0.11033813671E+04  0.64305945945E+03 0.  0.
         13    1    3    3    0    0  0.11789174631E+03  0.29501509956E+03  0.36339744745E+03  0.48269045736E+03  0.00000000000E+00 0. -1.
          4    1    3    3  501    0 -0.11789174631E+03 -0.29501509956E+03  0.53322118545E+03  0.62069090973E+03  0.00000000000E+00 0. -1.
<mgrwt>
<rscale>  0 0.64305946E+03</rscale>
<asrwt>0</asrwt>
<pdfrwt beam="1">0</pdfrwt>
<pdfrwt beam="2">  1        2 0.37593304E+00 0.64305946E+03</pdfrwt>
<totfact> 0.48955780E+00</totfact>
</mgrwt>
</event>
<event>
 5    1  0.2344661E-004  0.4610208E+03  0.7818608E-02  0.1024486E+00
         13   -1    0    0    0    0  0.00000000000E+00  0.00000000000E+00  0.10000000000E+04  0.10000000000E+04  0.00000000000E+00 0. -1.
          2   -1    0    0  501    0 -0.00000000000E+00 -0.00000000000E+00 -0.53135039134E+02  0.53135039134E+02  0.00000000000E+00 0. -1.
    9000006    2    1    2  501    0  0.00000000000E+00  0.00000000000E+00  0.94686496087E+03  0.10531350391E+04  0.46102077669E+03 0.  0.
         13    1    3    3    0    0  0.51492065409E+02  0.13599005553E+02  0.98575309342E+03  0.98719072470E+03  0.00000000000E+00 0. -1.
          4    1    3    3  501    0 -0.51492065409E+02 -0.13599005553E+02 -0.38888132555E+02  0.65944314431E+02  0.00000000000E+00 0. -1.
<mgrwt>
<rscale>  0 0.46102078E+03</rscale>
<asrwt>0</asrwt>
<pdfrwt beam="1">0</pdfrwt>
<pdfrwt beam="2">  1        2 0.19321873E+00 0.46102078E+03</pdfrwt>
<totfact> 0.22533348E+01</totfact>
</mgrwt>
</event>
<event>
 5    1  0.2344661E-004  0.6199616E+03  0.7818608E-02  0.9864836E-01
         13   -1    0    0    0    0  0.00000000000E+00  0.00000000000E+00  0.10000000000E+04  0.10000000000E+04  0.00000000000E+00 0. -1.
          2   -1    0    0  501    0 -0.00000000000E+00 -0.00000000000E+00 -0.96088085649E+02  0.96088085649E+02  0.00000000000E+00 0. -1.
    9000006    2    1    2  501    0  0.00000000000E+00  0.00000000000E+00  0.90391191435E+03  0.10960880856E+04  0.61996156542E+03 0.  0.
         13    1    3    3    0    0 -0.30649318763E+03 -0.45089898243E+02  0.43283932140E+03  0.53227911019E+03  0.00000000000E+00 0. -1.
          2    1    3    3  501    0  0.30649318763E+03  0.45089898243E+02  0.47107259295E+03  0.56380897546E+03  0.00000000000E+00 0. -1.
<mgrwt>
<rscale>  0 0.61996157E+03</rscale>
<asrwt>0</asrwt>
<pdfrwt beam="1">0</pdfrwt>
<pdfrwt beam="2">  1        2 0.34941196E+00 0.61996157E+03</pdfrwt>
<totfact> 0.61267575E+00</totfact>
</mgrwt>
</event>
<event>
 5    1  0.2344661E-004  0.6509871E+03  0.7818608E-02  0.9804929E-01
         13   -1    0    0    0    0  0.00000000000E+00  0.00000000000E+00  0.10000000000E+04  0.10000000000E+04  0.00000000000E+00 0. -1.
          2   -1    0    0  501    0 -0.00000000000E+00 -0.00000000000E+00 -0.10594604123E+03  0.10594604123E+03  0.00000000000E+00 0. -1.
    9000006    2    1    2  501    0  0.00000000000E+00  0.00000000000E+00  0.89405395877E+03  0.11059460412E+04  0.65098706970E+03 0.  0.
         13    1    3    3    0    0  0.26316238833E+03 -0.16852891968E+03  0.29234902801E+03  0.42793036066E+03  0.00000000000E+00 0. -1.
          4    1    3    3  501    0 -0.26316238833E+03  0.16852891968E+03  0.60170493076E+03  0.67801568057E+03  0.00000000000E+00 0. -1.
<mgrwt>
<rscale>  0 0.65098707E+03</rscale>
<asrwt>0</asrwt>
<pdfrwt beam="1">0</pdfrwt>
<pdfrwt beam="2">  1        2 0.38525914E+00 0.65098707E+03</pdfrwt>
<totfact> 0.45197085E+00</totfact>
</mgrwt>
</event>
<event>
 5    1  0.2344661E-004  0.6432973E+03  0.7818608E-02  0.9819438E-01
         13   -1    0    0    0    0  0.00000000000E+00  0.00000000000E+00  0.10000000000E+04  0.10000000000E+04  0.00000000000E+00 0. -1.
          2   -1    0    0  501    0 -0.00000000000E+00 -0.00000000000E+00 -0.10345786830E+03  0.10345786830E+03  0.00000000000E+00 0. -1.
    9000006    2    1    2  501    0  0.00000000000E+00  0.00000000000E+00  0.89654213170E+03  0.11034578683E+04  0.64329734432E+03 0.  0.
         13    1    3    3    0    0 -0.31412168169E+03  0.49656293977E+02  0.36565605588E+03  0.48460554025E+03  0.00000000000E+00 0. -1.
          2    1    3    3  501    0  0.31412168169E+03 -0.49656293977E+02  0.53088607582E+03  0.61885232805E+03  0.00000000000E+00 0. -1.
<mgrwt>
<rscale>  0 0.64329734E+03</rscale>
<asrwt>0</asrwt>
<pdfrwt beam="1">0</pdfrwt>
<pdfrwt beam="2">  1        2 0.37621122E+00 0.64329734E+03</pdfrwt>
<totfact> 0.48839665E+00</totfact>
</mgrwt>
</event>
<event>
 5    1  0.2344661E-004  0.6567226E+03  0.7818608E-02  0.9794246E-01
         13   -1    0    0    0    0  0.00000000000E+00  0.00000000000E+00  0.10000000000E+04  0.10000000000E+04  0.00000000000E+00 0. -1.
          2   -1    0    0  501    0 -0.00000000000E+00 -0.00000000000E+00 -0.10782114256E+03  0.10782114256E+03  0.00000000000E+00 0. -1.
    9000006    2    1    2  501    0  0.00000000000E+00  0.00000000000E+00  0.89217885744E+03  0.11078211426E+04  0.65672259764E+03 0.  0.
         13    1    3    3    0    0  0.23076191356E+03 -0.12239079080E+03  0.11044178732E+03  0.28359822780E+03  0.00000000000E+00 0. -1.
          4    1    3    3  501    0 -0.23076191356E+03  0.12239079080E+03  0.78173707012E+03  0.82422291477E+03  0.00000000000E+00 0. -1.
<mgrwt>
<rscale>  0 0.65672260E+03</rscale>
<asrwt>0</asrwt>
<pdfrwt beam="1">0</pdfrwt>
<pdfrwt beam="2">  1        2 0.39207771E+00 0.65672260E+03</pdfrwt>
<totfact> 0.42616840E+00</totfact>
</mgrwt>
</event>
<event>
 5    1  0.2344661E-004  0.6460160E+03  0.7818608E-02  0.9814284E-01
         13   -1    0    0    0    0  0.00000000000E+00  0.00000000000E+00  0.10000000000E+04  0.10000000000E+04  0.00000000000E+00 0. -1.
          2   -1    0    0  501    0 -0.00000000000E+00 -0.00000000000E+00 -0.10433416960E+03  0.10433416960E+03  0.00000000000E+00 0. -1.
    9000006    2    1    2  501    0  0.00000000000E+00  0.00000000000E+00  0.89566583040E+03  0.11043341696E+04  0.64601600476E+03 0.  0.
         13    1    3    3    0    0  0.15619853606E+03  0.25283002837E+03  0.66415248173E+03  0.72761220778E+03  0.00000000000E+00 0. -1.
          4    1    3    3  501    0 -0.15619853606E+03 -0.25283002837E+03  0.23151334867E+03  0.37672196183E+03  0.00000000000E+00 0. -1.
<mgrwt>
<rscale>  0 0.64601600E+03</rscale>
<asrwt>0</asrwt>
<pdfrwt beam="1">0</pdfrwt>
<pdfrwt beam="2">  1        2 0.37939778E+00 0.64601600E+03</pdfrwt>
<totfact> 0.47527404E+00</totfact>
</mgrwt>
</event>
<event>
 5    1  0.2344661E-004  0.6341397E+03  0.7818608E-02  0.9837004E-01
         13   -1    0    0    0    0  0.00000000000E+00  0.00000000000E+00  0.10000000000E+04  0.10000000000E+04  0.00000000000E+00 0. -1.
          2   -1    0    0  501    0 -0.00000000000E+00 -0.00000000000E+00 -0.10053329133E+03  0.10053329133E+03  0.00000000000E+00 0. -1.
    9000006    2    1    2  501    0  0.00000000000E+00  0.00000000000E+00  0.89946670867E+03  0.11005332913E+04  0.63413970490E+03 0.  0.
         13    1    3    3    0    0  0.16089825529E+03  0.26964726251E+03  0.52608233182E+03  0.61266672391E+03  0.00000000000E+00 0. -1.
          4    1    3    3  501    0 -0.16089825529E+03 -0.26964726251E+03  0.37338437685E+03  0.48786656743E+03  0.00000000000E+00 0. -1.
<mgrwt>
<rscale>  0 0.63413970E+03</rscale>
<asrwt>0</asrwt>
<pdfrwt beam="1">0</pdfrwt>
<pdfrwt beam="2">  1        2 0.36557638E+00 0.63413970E+03</pdfrwt>
<totfact> 0.53463079E+00</totfact>
</mgrwt>
</event>
<event>
 5    1  0.2344661E-004  0.6519607E+03  0.7818608E-02  0.9803107E-01
         13   -1    0    0    0    0  0.00000000000E+00  0.00000000000E+00  0.10000000000E+04  0.10000000000E+04  0.00000000000E+00 0. -1.
          2   -1    0    0  501    0 -0.00000000000E+00 -0.00000000000E+00 -0.10626320199E+03  0.10626320199E+03  0.00000000000E+00 0. -1.
    9000006    2    1    2  501    0  0.00000000000E+00  0.00000000000E+00  0.89373679801E+03  0.11062632020E+04  0.65196074111E+03 0.  0.
         13    1    3    3    0    0  0.11118270303E+02  0.31942151401E+03  0.33809302471E+03  0.46525327823E+03  0.00000000000E+00 0. -1.
          2    1    3    3  501    0 -0.11118270303E+02 -0.31942151401E+03  0.55564377330E+03  0.64100992375E+03  0.00000000000E+00 0. -1.
<mgrwt>
<rscale>  0 0.65196074E+03</rscale>
<asrwt>0</asrwt>
<pdfrwt beam="1">0</pdfrwt>
<pdfrwt beam="2">  1        2 0.38641246E+00 0.65196074E+03</pdfrwt>
<totfact> 0.44750959E+00</totfact>
</mgrwt>
</event>
<event>
 5    1  0.2344661E-004  0.6521016E+03  0.7818608E-02  0.9802844E-01
         13   -1    0    0    0    0  0.00000000000E+00  0.00000000000E+00  0.10000000000E+04  0.10000000000E+04  0.00000000000E+00 0. -1.
          2   -1    0    0  501    0 -0.00000000000E+00 -0.00000000000E+00 -0.10630911365E+03  0.10630911365E+03  0.00000000000E+00 0. -1.
    9000006    2    1    2  501    0  0.00000000000E+00  0.00000000000E+00  0.89369088635E+03  0.11063091136E+04  0.65210156770E+03 0.  0.
         13    1    3    3    0    0 -0.53033663033E+02 -0.59569188242E+02 -0.89504725605E+02  0.11988391680E+03  0.00000000000E+00 0. -1.
          4    1    3    3  501    0  0.53033663033E+02  0.59569188242E+02  0.98319561196E+03  0.98642519685E+03  0.00000000000E+00 0. -1.
<mgrwt>
<rscale>  0 0.65210157E+03</rscale>
<asrwt>0</asrwt>
<pdfrwt beam="1">0</pdfrwt>
<pdfrwt beam="2">  1        2 0.38657941E+00 0.65210157E+03</pdfrwt>
<totfact> 0.44686710E+00</totfact>
</mgrwt>
</event>
<event>
 5    1  0.2344661E-004  0.6391973E+03  0.7818608E-02  0.9827263E-01
         13   -1    0    0    0    0  0.00000000000E+00  0.00000000000E+00  0.10000000000E+04  0.10000000000E+04  0.00000000000E+00 0. -1.
          2   -1    0    0  501    0 -0.00000000000E+00 -0.00000000000E+00 -0.10214331179E+03  0.10214331179E+03  0.00000000000E+00 0. -1.
    9000006    2    1    2  501    0  0.00000000000E+00  0.00000000000E+00  0.89785668821E+03  0.11021433118E+04  0.63919734603E+03 0.  0.
         13    1    3    3    0    0  0.22993940372E+03 -0.13438987742E+03  0.75354508726E+03  0.79922648046E+03  0.00000000000E+00 0. -1.
          4    1    3    3  501    0 -0.22993940372E+03  0.13438987742E+03  0.14431160095E+03  0.30291683133E+03  0.00000000000E+00 0. -1.
<mgrwt>
<rscale>  0 0.63919735E+03</rscale>
<asrwt>0</asrwt>
<pdfrwt beam="1">0</pdfrwt>
<pdfrwt beam="2">  1        2 0.37143101E+00 0.63919735E+03</pdfrwt>
<totfact> 0.50870489E+00</totfact>
</mgrwt>
</event>
<event>
 5    1  0.2344661E-004  0.5986616E+03  0.7818608E-02  0.9908187E-01
         13   -1    0    0    0    0  0.00000000000E+00  0.00000000000E+00  0.10000000000E+04  0.10000000000E+04  0.00000000000E+00 0. -1.
          2   -1    0    0  501    0 -0.00000000000E+00 -0.00000000000E+00 -0.89598921181E+02  0.89598921181E+02  0.00000000000E+00 0. -1.
    9000006    2    1    2  501    0  0.00000000000E+00  0.00000000000E+00  0.91040107882E+03  0.10895989212E+04  0.59866157779E+03 0.  0.
         13    1    3    3    0    0 -0.28530919729E+03 -0.30226369345E+02  0.61053533426E+03  0.67458755240E+03  0.00000000000E+00 0. -1.
          4    1    3    3  501    0  0.28530919729E+03  0.30226369345E+02  0.29986574455E+03  0.41501136878E+03  0.00000000000E+00 0. -1.
<mgrwt>
<rscale>  0 0.59866158E+03</rscale>
<asrwt>0</asrwt>
<pdfrwt beam="1">0</pdfrwt>
<pdfrwt beam="2">  1        2 0.32581495E+00 0.59866158E+03</pdfrwt>
<totfact> 0.74590131E+00</totfact>
</mgrwt>
</event>
<event>
 5    1  0.2344661E-004  0.6582827E+03  0.7818608E-02  0.9791360E-01
         13   -1    0    0    0    0  0.00000000000E+00  0.00000000000E+00  0.10000000000E+04  0.10000000000E+04  0.00000000000E+00 0. -1.
          2   -1    0    0  501    0 -0.00000000000E+00 -0.00000000000E+00 -0.10833403342E+03  0.10833403342E+03  0.00000000000E+00 0. -1.
    9000006    2    1    2  501    0  0.00000000000E+00  0.00000000000E+00  0.89166596658E+03  0.11083340334E+04  0.65828271561E+03 0.  0.
         13    1    3    3    0    0  0.20818495013E+03  0.92290285907E+02  0.45714603043E+02  0.23226772325E+03  0.00000000000E+00 0. -1.
          2    1    3    3  501    0 -0.20818495013E+03 -0.92290285907E+02  0.84595136354E+03  0.87606631017E+03  0.00000000000E+00 0. -1.
<mgrwt>
<rscale>  0 0.65828272E+03</rscale>
<asrwt>0</asrwt>
<pdfrwt beam="1">0</pdfrwt>
<pdfrwt beam="2">  1        2 0.39394277E+00 0.65828272E+03</pdfrwt>
<totfact> 0.41934654E+00</totfact>
</mgrwt>
</event>
<event>
 5    1  0.2344661E-004  0.6600215E+03  0.7818608E-02  0.9788154E-01
         13   -1    0    0    0    0  0.00000000000E+00  0.00000000000E+00  0.10000000000E+04  0.10000000000E+04  0.00000000000E+00 0. -1.
          2   -1    0    0  501    0 -0.00000000000E+00 -0.00000000000E+00 -0.10890708516E+03  0.10890708516E+03  0.00000000000E+00 0. -1.
    9000006    2    1    2  501    0  0.00000000000E+00  0.00000000000E+00  0.89109291484E+03  0.11089070852E+04  0.66002146984E+03 0.  0.
         13    1    3    3    0    0 -0.12207410642E+03  0.29040513225E+03  0.61076056098E+03  0.68721589849E+03  0.00000000000E+00 0. -1.
          2    1    3    3  501    0  0.12207410642E+03 -0.29040513225E+03  0.28033235386E+03  0.42169118667E+03  0.00000000000E+00 0. -1.
<mgrwt>
<rscale>  0 0.66002147E+03</rscale>
<asrwt>0</asrwt>
<pdfrwt beam="1">0</pdfrwt>
<pdfrwt beam="2">  1        2 0.39602660E+00 0.66002147E+03</pdfrwt>
<totfact> 0.41184167E+00</totfact>
</mgrwt>
</event>
<event>
 5    1  0.2344661E-004  0.6486154E+03  0.7818608E-02  0.9809381E-01
         13   -1    0    0    0    0  0.00000000000E+00  0.00000000000E+00  0.10000000000E+04  0.10000000000E+04  0.00000000000E+00 0. -1.
          2   -1    0    0  501    0 -0.00000000000E+00 -0.00000000000E+00 -0.10517549079E+03  0.10517549079E+03  0.00000000000E+00 0. -1.
    9000006    2    1    2  501    0  0.00000000000E+00  0.00000000000E+00  0.89482450921E+03  0.11051754908E+04  0.64861542008E+03 0.  0.
         13    1    3    3    0    0 -0.14922499618E+03 -0.18495379058E+03  0.82342811808E+03  0.85703551256E+03  0.00000000000E+00 0. -1.
          2    1    3    3  501    0  0.14922499618E+03  0.18495379058E+03  0.71396391126E+02  0.24813997824E+03  0.00000000000E+00 0. -1.
<mgrwt>
<rscale>  0 0.64861542E+03</rscale>
<asrwt>0</asrwt>
<pdfrwt beam="1">0</pdfrwt>
<pdfrwt beam="2">  1        2 0.38245714E+00 0.64861542E+03</pdfrwt>
<totfact> 0.46297814E+00</totfact>
</mgrwt>
</event>
<event>
 5    1  0.2344661E-004  0.6447399E+03  0.7818608E-02  0.9816700E-01
         13   -1    0    0    0    0  0.00000000000E+00  0.00000000000E+00  0.10000000000E+04  0.10000000000E+04  0.00000000000E+00 0. -1.
          2   -1    0    0  501    0 -0.00000000000E+00 -0.00000000000E+00 -0.10392239901E+03  0.10392239901E+03  0.00000000000E+00 0. -1.
    9000006    2    1    2  501    0  0.00000000000E+00  0.00000000000E+00  0.89607760099E+03  0.11039223990E+04  0.64473994449E+03 0.  0.
         13    1    3    3    0    0 -0.18298812652E+03 -0.26401357309E+03  0.49444466457E+03  0.58962983943E+03  0.00000000000E+00 0. -1.
          2    1    3    3  501    0  0.18298812652E+03  0.26401357309E+03  0.40163293642E+03  0.51429255958E+03  0.00000000000E+00 0. -1.
<mgrwt>
<rscale>  0 0.64473994E+03</rscale>
<asrwt>0</asrwt>
<pdfrwt beam="1">0</pdfrwt>
<pdfrwt beam="2">  1        2 0.37790043E+00 0.64473994E+03</pdfrwt>
<totfact> 0.48139973E+00</totfact>
</mgrwt>
</event>
<event>
 5    1  0.2344661E-004  0.6645709E+03  0.7818608E-02  0.9779816E-01
         13   -1    0    0    0    0  0.00000000000E+00  0.00000000000E+00  0.10000000000E+04  0.10000000000E+04  0.00000000000E+00 0. -1.
          2   -1    0    0  501    0 -0.00000000000E+00 -0.00000000000E+00 -0.11041360954E+03  0.11041360954E+03  0.00000000000E+00 0. -1.
    9000006    2    1    2  501    0  0.00000000000E+00  0.00000000000E+00  0.88958639046E+03  0.11104136095E+04  0.66457086768E+03 0.  0.
         13    1    3    3    0    0  0.13665475720E+03 -0.20844256213E+02  0.94967511060E+03  0.95968318802E+03  0.00000000000E+00 0. -1.
          4    1    3    3  501    0 -0.13665475720E+03  0.20844256213E+02 -0.60088720139E+02  0.15073042152E+03  0.00000000000E+00 0. -1.
<mgrwt>
<rscale>  0 0.66457087E+03</rscale>
<asrwt>0</asrwt>
<pdfrwt beam="1">0</pdfrwt>
<pdfrwt beam="2">  1        2 0.40150488E+00 0.66457087E+03</pdfrwt>
<totfact> 0.39268469E+00</totfact>
</mgrwt>
</event>
<event>
 5    1  0.2344661E-004  0.6476341E+03  0.7818608E-02  0.9811229E-01
         13   -1    0    0    0    0  0.00000000000E+00  0.00000000000E+00  0.10000000000E+04  0.10000000000E+04  0.00000000000E+00 0. -1.
          2   -1    0    0  501    0 -0.00000000000E+00 -0.00000000000E+00 -0.10485746771E+03  0.10485746771E+03  0.00000000000E+00 0. -1.
    9000006    2    1    2  501    0  0.00000000000E+00  0.00000000000E+00  0.89514253229E+03  0.11048574677E+04  0.64763405628E+03 0.  0.
         13    1    3    3    0    0 -0.32279841720E+02 -0.31678405076E+03  0.34717341043E+03  0.47108757137E+03  0.00000000000E+00 0. -1.
          4    1    3    3  501    0  0.32279841720E+02  0.31678405076E+03  0.54796912186E+03  0.63376989634E+03  0.00000000000E+00 0. -1.
<mgrwt>
<rscale>  0 0.64763406E+03</rscale>
<asrwt>0</asrwt>
<pdfrwt beam="1">0</pdfrwt>
<pdfrwt beam="2">  1        2 0.38130069E+00 0.64763406E+03</pdfrwt>
<totfact> 0.46759162E+00</totfact>
</mgrwt>
</event>
<event>
 5    1  0.2344661E-004  0.6499326E+03  0.7818608E-02  0.9806906E-01
         13   -1    0    0    0    0  0.00000000000E+00  0.00000000000E+00  0.10000000000E+04  0.10000000000E+04  0.00000000000E+00 0. -1.
          2   -1    0    0  501    0 -0.00000000000E+00 -0.00000000000E+00 -0.10560309039E+03  0.10560309039E+03  0.00000000000E+00 0. -1.
    9000006    2    1    2  501    0  0.00000000000E+00  0.00000000000E+00  0.89439690961E+03  0.11056030904E+04  0.64993258230E+03 0.  0.
         13    1    3    3    0    0 -0.16268826278E+02 -0.31921639807E-01  0.99930681506E+03  0.99943923595E+03  0.00000000000E+00 0. -1.
          2    1    3    3  501    0  0.16268826278E+02  0.31921639807E-01 -0.10490990545E+03  0.10616385443E+03  0.00000000000E+00 0. -1.
<mgrwt>
<rscale>  0 0.64993258E+03</rscale>
<asrwt>0</asrwt>
<pdfrwt beam="1">0</pdfrwt>
<pdfrwt beam="2">  1        2 0.38401205E+00 0.64993258E+03</pdfrwt>
<totfact> 0.45684022E+00</totfact>
</mgrwt>
</event>
<event>
 5    1  0.2344661E-004  0.6479342E+03  0.7818608E-02  0.9810663E-01
         13   -1    0    0    0    0  0.00000000000E+00  0.00000000000E+00  0.10000000000E+04  0.10000000000E+04  0.00000000000E+00 0. -1.
          2   -1    0    0  501    0 -0.00000000000E+00 -0.00000000000E+00 -0.10495469555E+03  0.10495469555E+03  0.00000000000E+00 0. -1.
    9000006    2    1    2  501    0  0.00000000000E+00  0.00000000000E+00  0.89504530445E+03  0.11049546955E+04  0.64793424219E+03 0.  0.
         13    1    3    3    0    0 -0.16235659187E+03  0.25724019993E+02 -0.28552037896E+02  0.16684306098E+03  0.00000000000E+00 0. -1.
          2    1    3    3  501    0  0.16235659187E+03 -0.25724019993E+02  0.92359734235E+03  0.93811163457E+03  0.00000000000E+00 0. -1.
<mgrwt>
<rscale>  0 0.64793424E+03</rscale>
<asrwt>0</asrwt>
<pdfrwt beam="1">0</pdfrwt>
<pdfrwt beam="2">  1        2 0.38165424E+00 0.64793424E+03</pdfrwt>
<totfact> 0.46617675E+00</totfact>
</mgrwt>
</event>
<event>
 5    1  0.2344661E-004  0.6298581E+03  0.7818608E-02  0.9845326E-01
         13   -1    0    0    0    0  0.00000000000E+00  0.00000000000E+00  0.10000000000E+04  0.10000000000E+04  0.00000000000E+00 0. -1.
          2   -1    0    0  501    0 -0.00000000000E+00 -0.00000000000E+00 -0.99180295939E+02  0.99180295939E+02  0.00000000000E+00 0. -1.
    9000006    2    1    2  501    0  0.00000000000E+00  0.00000000000E+00  0.90081970406E+03  0.10991802959E+04  0.62985806636E+03 0.  0.
         13    1    3    3    0    0  0.67777132342E+02  0.30332447010E+03  0.36175443558E+03  0.47693369088E+03  0.00000000000E+00 0. -1.
          4    1    3    3  501    0 -0.67777132342E+02 -0.30332447010E+03  0.53906526848E+03  0.62224660506E+03  0.00000000000E+00 0. -1.
<mgrwt>
<rscale>  0 0.62985807E+03</rscale>
<asrwt>0</asrwt>
<pdfrwt beam="1">0</pdfrwt>
<pdfrwt beam="2">  1        2 0.36065638E+00 0.62985807E+03</pdfrwt>
<totfact> 0.55735136E+00</totfact>
</mgrwt>
</event>
<event>
 5    1  0.2344661E-004  0.6504233E+03  0.7818608E-02  0.9805985E-01
         13   -1    0    0    0    0  0.00000000000E+00  0.00000000000E+00  0.10000000000E+04  0.10000000000E+04  0.00000000000E+00 0. -1.
          2   -1    0    0  501    0 -0.00000000000E+00 -0.00000000000E+00 -0.10576260146E+03  0.10576260146E+03  0.00000000000E+00 0. -1.
    9000006    2    1    2  501    0  0.00000000000E+00  0.00000000000E+00  0.89423739854E+03  0.11057626015E+04  0.65042325131E+03 0.  0.
         13    1    3    3    0    0  0.29870490334E+03  0.72104703258E+02  0.26608843473E+03  0.40648094987E+03  0.00000000000E+00 0. -1.
          4    1    3    3  501    0 -0.29870490334E+03 -0.72104703258E+02  0.62814896381E+03  0.69928165159E+03  0.00000000000E+00 0. -1.
<mgrwt>
<rscale>  0 0.65042325E+03</rscale>
<asrwt>0</asrwt>
<pdfrwt beam="1">0</pdfrwt>
<pdfrwt beam="2">  1        2 0.38459209E+00 0.65042325E+03</pdfrwt>
<totfact> 0.45456953E+00</totfact>
</mgrwt>
</event>
<event>
 5    1  0.2344661E-004  0.6425328E+03  0.7818608E-02  0.9820893E-01
         13   -1    0    0    0    0  0.00000000000E+00  0.00000000000E+00  0.10000000000E+04  0.10000000000E+04  0.00000000000E+00 0. -1.
          2   -1    0    0  501    0 -0.00000000000E+00 -0.00000000000E+00 -0.10321210841E+03  0.10321210841E+03  0.00000000000E+00 0. -1.
    9000006    2    1    2  501    0  0.00000000000E+00  0.00000000000E+00  0.89678789159E+03  0.11032121084E+04  0.64253282691E+03 0.  0.
         13    1    3    3    0    0  0.31355636188E+03  0.49856372828E+02  0.36412465525E+03  0.48310455861E+03  0.00000000000E+00 0. -1.
          4    1    3    3  501    0 -0.31355636188E+03 -0.49856372828E+02  0.53266323634E+03  0.62010754981E+03  0.00000000000E+00 0. -1.
<mgrwt>
<rscale>  0 0.64253283E+03</rscale>
<asrwt>0</asrwt>
<pdfrwt beam="1">0</pdfrwt>
<pdfrwt beam="2">  1        2 0.37531755E+00 0.64253283E+03</pdfrwt>
<totfact> 0.49213586E+00</totfact>
</mgrwt>
</event>
<event>
 5    1  0.2344661E-004  0.6089767E+03  0.7818608E-02  0.9886955E-01
         13   -1    0    0    0    0  0.00000000000E+00  0.00000000000E+00  0.10000000000E+04  0.10000000000E+04  0.00000000000E+00 0. -1.
          2   -1    0    0  501    0 -0.00000000000E+00 -0.00000000000E+00 -0.92713153720E+02  0.92713153720E+02  0.00000000000E+00 0. -1.
    9000006    2    1    2  501    0  0.00000000000E+00  0.00000000000E+00  0.90728684628E+03  0.10927131537E+04  0.60897669486E+03 0.  0.
         13    1    3    3    0    0 -0.17918743754E+03  0.23750248556E+03  0.33739013021E+03  0.44983071081E+03  0.00000000000E+00 0. -1.
          2    1    3    3  501    0  0.17918743754E+03 -0.23750248556E+03  0.56989671607E+03  0.64288244291E+03  0.00000000000E+00 0. -1.
<mgrwt>
<rscale>  0 0.60897669E+03</rscale>
<asrwt>0</asrwt>
<pdfrwt beam="1">0</pdfrwt>
<pdfrwt beam="2">  1        2 0.33713945E+00 0.60897669E+03</pdfrwt>
<totfact> 0.67887971E+00</totfact>
</mgrwt>
</event>
<event>
 5    1  0.2344661E-004  0.6534594E+03  0.7818608E-02  0.9800309E-01
         13   -1    0    0    0    0  0.00000000000E+00  0.00000000000E+00  0.10000000000E+04  0.10000000000E+04  0.00000000000E+00 0. -1.
          2   -1    0    0  501    0 -0.00000000000E+00 -0.00000000000E+00 -0.10675230716E+03  0.10675230716E+03  0.00000000000E+00 0. -1.
    9000006    2    1    2  501    0  0.00000000000E+00  0.00000000000E+00  0.89324769284E+03  0.11067523072E+04  0.65345943152E+03 0.  0.
         13    1    3    3    0    0 -0.11315593512E+03 -0.30352317822E+03  0.37433474403E+03  0.49503240899E+03  0.00000000000E+00 0. -1.
          4    1    3    3  501    0  0.11315593512E+03  0.30352317822E+03  0.51891294881E+03  0.61171989817E+03  0.00000000000E+00 0. -1.
<mgrwt>
<rscale>  0 0.65345943E+03</rscale>
<asrwt>0</asrwt>
<pdfrwt beam="1">0</pdfrwt>
<pdfrwt beam="2">  1        2 0.38819103E+00 0.65345943E+03</pdfrwt>
<totfact> 0.44070786E+00</totfact>
</mgrwt>
</event>
<event>
 5    1  0.2344661E-004  0.6232543E+03  0.7818608E-02  0.9858302E-01
         13   -1    0    0    0    0  0.00000000000E+00  0.00000000000E+00  0.10000000000E+04  0.10000000000E+04  0.00000000000E+00 0. -1.
          2   -1    0    0  501    0 -0.00000000000E+00 -0.00000000000E+00 -0.97111467708E+02  0.97111467708E+02  0.00000000000E+00 0. -1.
    9000006    2    1    2  501    0  0.00000000000E+00  0.00000000000E+00  0.90288853229E+03  0.10971114677E+04  0.62325425858E+03 0.  0.
         13    1    3    3    0    0 -0.31959244233E+02  0.30808876602E+03  0.39119723666E+03  0.49897430696E+03  0.00000000000E+00 0. -1.
          4    1    3    3  501    0  0.31959244233E+02 -0.30808876602E+03  0.51169129563E+03  0.59813716075E+03  0.00000000000E+00 0. -1.
<mgrwt>
<rscale>  0 0.62325426E+03</rscale>
<asrwt>0</asrwt>
<pdfrwt beam="1">0</pdfrwt>
<pdfrwt beam="2">  1        2 0.35313335E+00 0.62325426E+03</pdfrwt>
<totfact> 0.59382503E+00</totfact>
</mgrwt>
</event>
<event>
 5    1  0.2344661E-004  0.6529543E+03  0.7818608E-02  0.9801251E-01
         13   -1    0    0    0    0  0.00000000000E+00  0.00000000000E+00  0.10000000000E+04  0.10000000000E+04  0.00000000000E+00 0. -1.
          2   -1    0    0  501    0 -0.00000000000E+00 -0.00000000000E+00 -0.10658731902E+03  0.10658731902E+03  0.00000000000E+00 0. -1.
    9000006    2    1    2  501    0  0.00000000000E+00  0.00000000000E+00  0.89341268098E+03  0.11065873190E+04  0.65295426799E+03 0.  0.
         13    1    3    3    0    0  0.12101149706E+03  0.94666813466E+02  0.93490228706E+03  0.94744280795E+03  0.00000000000E+00 0. -1.
          2    1    3    3  501    0 -0.12101149706E+03 -0.94666813466E+02 -0.41489606081E+02  0.15914451107E+03  0.00000000000E+00 0. -1.
<mgrwt>
<rscale>  0 0.65295427E+03</rscale>
<asrwt>0</asrwt>
<pdfrwt beam="1">0</pdfrwt>
<pdfrwt beam="2">  1        2 0.38759107E+00 0.65295427E+03</pdfrwt>
<totfact> 0.44299173E+00</totfact>
</mgrwt>
</event>
<event>
 5    1  0.2344661E-004  0.6155135E+03  0.7818608E-02  0.9873733E-01
         13   -1    0    0    0    0  0.00000000000E+00  0.00000000000E+00  0.10000000000E+04  0.10000000000E+04  0.00000000000E+00 0. -1.
          2   -1    0    0  501    0 -0.00000000000E+00 -0.00000000000E+00 -0.94714205999E+02  0.94714205999E+02  0.00000000000E+00 0. -1.
    9000006    2    1    2  501    0  0.00000000000E+00  0.00000000000E+00  0.90528579400E+03  0.10947142060E+04  0.61551346370E+03 0.  0.
         13    1    3    3    0    0  0.30352614618E+03 -0.34355133860E+02  0.51932762940E+03  0.60250276621E+03  0.00000000000E+00 0. -1.
          2    1    3    3  501    0 -0.30352614618E+03  0.34355133860E+02  0.38595816460E+03  0.49221143979E+03  0.00000000000E+00 0. -1.
<mgrwt>
<rscale>  0 0.61551346E+03</rscale>
<asrwt>0</asrwt>
<pdfrwt beam="1">0</pdfrwt>
<pdfrwt beam="2">  1        2 0.34441602E+00 0.61551346E+03</pdfrwt>
<totfact> 0.63886048E+00</totfact>
</mgrwt>
</event>
<event>
 5    1  0.2344661E-004  0.6511351E+03  0.7818608E-02  0.9804652E-01
         13   -1    0    0    0    0  0.00000000000E+00  0.00000000000E+00  0.10000000000E+04  0.10000000000E+04  0.00000000000E+00 0. -1.
          2   -1    0    0  501    0 -0.00000000000E+00 -0.00000000000E+00 -0.10599421667E+03  0.10599421667E+03  0.00000000000E+00 0. -1.
    9000006    2    1    2  501    0  0.00000000000E+00  0.00000000000E+00  0.89400578333E+03  0.11059942167E+04  0.65113506024E+03 0.  0.
         13    1    3    3    0    0  0.25877263870E+03 -0.11497187455E+03  0.17410761373E+03  0.33240829056E+03  0.00000000000E+00 0. -1.
          2    1    3    3  501    0 -0.25877263870E+03  0.11497187455E+03  0.71989816960E+03  0.77358592611E+03  0.00000000000E+00 0. -1.
<mgrwt>
<rscale>  0 0.65113506E+03</rscale>
<asrwt>0</asrwt>
<pdfrwt beam="1">0</pdfrwt>
<pdfrwt beam="2">  1        2 0.38543433E+00 0.65113506E+03</pdfrwt>
<totfact> 0.45129062E+00</totfact>
</mgrwt>
</event>
<event>
 5    1  0.2344661E-004  0.7203812E+03  0.7818608E-02  0.9682999E-01
         13   -1    0    0    0    0  0.00000000000E+00  0.00000000000E+00  0.10000000000E+04  0.10000000000E+04  0.00000000000E+00 0. -1.
          2   -1    0    0  501    0 -0.00000000000E+00 -0.00000000000E+00 -0.12973727741E+03  0.12973727741E+03  0.00000000000E+00 0. -1.
    9000006    2    1    2  501    0  0.00000000000E+00  0.00000000000E+00  0.87026272259E+03  0.11297372774E+04  0.72038122522E+03 0.  0.
         13    1    3    3    0    0 -0.63575728732E+01 -0.25419020706E+03  0.35045826029E+02  0.25667350861E+03  0.00000000000E+00 0. -1.
          4    1    3    3  501    0  0.63575728732E+01  0.25419020706E+03  0.83521689656E+03  0.87306376880E+03  0.00000000000E+00 0. -1.
<mgrwt>
<rscale>  0 0.72038123E+03</rscale>
<asrwt>0</asrwt>
<pdfrwt beam="1">0</pdfrwt>
<pdfrwt beam="2">  1        2 0.47177291E+00 0.72038123E+03</pdfrwt>
<totfact> 0.20809915E+00</totfact>
</mgrwt>
</event>
<event>
 5    1  0.2344661E-004  0.6481476E+03  0.7818608E-02  0.9810261E-01
         13   -1    0    0    0    0  0.00000000000E+00  0.00000000000E+00  0.10000000000E+04  0.10000000000E+04  0.00000000000E+00 0. -1.
          2   -1    0    0  501    0 -0.00000000000E+00 -0.00000000000E+00 -0.10502383560E+03  0.10502383560E+03  0.00000000000E+00 0. -1.
    9000006    2    1    2  501    0  0.00000000000E+00  0.00000000000E+00  0.89497616440E+03  0.11050238356E+04  0.64814762393E+03 0.  0.
         13    1    3    3    0    0 -0.16581308096E+03 -0.25106983002E+03  0.24223541075E+03  0.38627455467E+03  0.00000000000E+00 0. -1.
          2    1    3    3  501    0  0.16581308096E+03  0.25106983002E+03  0.65274075365E+03  0.71874928093E+03  0.00000000000E+00 0. -1.
<mgrwt>
<rscale>  0 0.64814762E+03</rscale>
<asrwt>0</asrwt>
<pdfrwt beam="1">0</pdfrwt>
<pdfrwt beam="2">  1        2 0.38190566E+00 0.64814762E+03</pdfrwt>
<totfact> 0.46517298E+00</totfact>
</mgrwt>
</event>
<event>
 5    1  0.2344661E-004  0.6558604E+03  0.7818608E-02  0.9795844E-01
         13   -1    0    0    0    0  0.00000000000E+00  0.00000000000E+00  0.10000000000E+04  0.10000000000E+04  0.00000000000E+00 0. -1.
          2   -1    0    0  501    0 -0.00000000000E+00 -0.00000000000E+00 -0.10753820520E+03  0.10753820520E+03  0.00000000000E+00 0. -1.
    9000006    2    1    2  501    0  0.00000000000E+00  0.00000000000E+00  0.89246179480E+03  0.11075382052E+04  0.65586036683E+03 0.  0.
         13    1    3    3    0    0  0.62773667735E+02  0.22688435260E+03  0.60704273564E+02  0.24310913526E+03  0.00000000000E+00 0. -1.
          2    1    3    3  501    0 -0.62773667735E+02 -0.22688435260E+03  0.83175752124E+03  0.86442906994E+03  0.00000000000E+00 0. -1.
<mgrwt>
<rscale>  0 0.65586037E+03</rscale>
<asrwt>0</asrwt>
<pdfrwt beam="1">0</pdfrwt>
<pdfrwt beam="2">  1        2 0.39104884E+00 0.65586037E+03</pdfrwt>
<totfact> 0.42997442E+00</totfact>
</mgrwt>
</event>
<event>
 5    1  0.2344661E-004  0.6443511E+03  0.7818608E-02  0.9817437E-01
         13   -1    0    0    0    0  0.00000000000E+00  0.00000000000E+00  0.10000000000E+04  0.10000000000E+04  0.00000000000E+00 0. -1.
          2   -1    0    0  501    0 -0.00000000000E+00 -0.00000000000E+00 -0.10379709796E+03  0.10379709796E+03  0.00000000000E+00 0. -1.
    9000006    2    1    2  501    0  0.00000000000E+00  0.00000000000E+00  0.89620290204E+03  0.11037970980E+04  0.64435114017E+03 0.  0.
         13    1    3    3    0    0 -0.71197514815E+02 -0.21110434657E+03  0.84677540983E+03  0.87559278546E+03  0.00000000000E+00 0. -1.
          2    1    3    3  501    0  0.71197514815E+02  0.21110434657E+03  0.49427492211E+02  0.22820431250E+03  0.00000000000E+00 0. -1.
<mgrwt>
<rscale>  0 0.64435114E+03</rscale>
<asrwt>0</asrwt>
<pdfrwt beam="1">0</pdfrwt>
<pdfrwt beam="2">  1        2 0.37744479E+00 0.64435114E+03</pdfrwt>
<totfact> 0.48327800E+00</totfact>
</mgrwt>
</event>
<event>
 5    1  0.2344661E-004  0.6535734E+03  0.7818608E-02  0.9800097E-01
         13   -1    0    0    0    0  0.00000000000E+00  0.00000000000E+00  0.10000000000E+04  0.10000000000E+04  0.00000000000E+00 0. -1.
          2   -1    0    0  501    0 -0.00000000000E+00 -0.00000000000E+00 -0.10678953565E+03  0.10678953565E+03  0.00000000000E+00 0. -1.
    9000006    2    1    2  501    0  0.00000000000E+00  0.00000000000E+00  0.89321046435E+03  0.11067895357E+04  0.65357336437E+03 0.  0.
         13    1    3    3    0    0 -0.51016370924E+02  0.32255961688E+03  0.42641422199E+03  0.53710005144E+03  0.00000000000E+00 0. -1.
          2    1    3    3  501    0  0.51016370924E+02 -0.32255961688E+03  0.46679624236E+03  0.56968948422E+03  0.00000000000E+00 0. -1.
<mgrwt>
<rscale>  0 0.65357336E+03</rscale>
<asrwt>0</asrwt>
<pdfrwt beam="1">0</pdfrwt>
<pdfrwt beam="2">  1        2 0.38832640E+00 0.65357336E+03</pdfrwt>
<totfact> 0.44019399E+00</totfact>
</mgrwt>
</event>
<event>
 5    1  0.2344661E-004  0.5035595E+03  0.7818608E-02  0.1012854E+00
         13   -1    0    0    0    0  0.00000000000E+00  0.00000000000E+00  0.10000000000E+04  0.10000000000E+04  0.00000000000E+00 0. -1.
          2   -1    0    0  501    0 -0.00000000000E+00 -0.00000000000E+00 -0.63393041661E+02  0.63393041661E+02  0.00000000000E+00 0. -1.
    9000006    2    1    2  501    0  0.00000000000E+00  0.00000000000E+00  0.93660695834E+03  0.10633930417E+04  0.50355949663E+03 0.  0.
         13    1    3    3    0    0 -0.15883245683E+03  0.14610863609E+03  0.74216089172E+03  0.77290249843E+03  0.00000000000E+00 0. -1.
          4    1    3    3  501    0  0.15883245683E+03 -0.14610863609E+03  0.19444606662E+03  0.29049054323E+03  0.00000000000E+00 0. -1.
<mgrwt>
<rscale>  0 0.50355950E+03</rscale>
<asrwt>0</asrwt>
<pdfrwt beam="1">0</pdfrwt>
<pdfrwt beam="2">  1        2 0.23052064E+00 0.50355950E+03</pdfrwt>
<totfact> 0.16392859E+01</totfact>
</mgrwt>
</event>
<event>
 5    1  0.2344661E-004  0.6451999E+03  0.7818608E-02  0.9815828E-01
         13   -1    0    0    0    0  0.00000000000E+00  0.00000000000E+00  0.10000000000E+04  0.10000000000E+04  0.00000000000E+00 0. -1.
          2   -1    0    0  501    0 -0.00000000000E+00 -0.00000000000E+00 -0.10407073427E+03  0.10407073427E+03  0.00000000000E+00 0. -1.
    9000006    2    1    2  501    0  0.00000000000E+00  0.00000000000E+00  0.89592926573E+03  0.11040707343E+04  0.64519992023E+03 0.  0.
         13    1    3    3    0    0 -0.19044361882E+03 -0.22533106461E+03  0.22466767704E+03  0.37083476878E+03  0.00000000000E+00 0. -1.
          4    1    3    3  501    0  0.19044361882E+03  0.22533106461E+03  0.67126158869E+03  0.73323596549E+03  0.00000000000E+00 0. -1.
<mgrwt>
<rscale>  0 0.64519992E+03</rscale>
<asrwt>0</asrwt>
<pdfrwt beam="1">0</pdfrwt>
<pdfrwt beam="2">  1        2 0.37843983E+00 0.64519992E+03</pdfrwt>
<totfact> 0.47918479E+00</totfact>
</mgrwt>
</event>
<event>
 5    1  0.2344661E-004  0.6598621E+03  0.7818608E-02  0.9788448E-01
         13   -1    0    0    0    0  0.00000000000E+00  0.00000000000E+00  0.10000000000E+04  0.10000000000E+04  0.00000000000E+00 0. -1.
          2   -1    0    0  501    0 -0.00000000000E+00 -0.00000000000E+00 -0.10885451246E+03  0.10885451246E+03  0.00000000000E+00 0. -1.
    9000006    2    1    2  501    0  0.00000000000E+00  0.00000000000E+00  0.89114548754E+03  0.11088545125E+04  0.65986214457E+03 0.  0.
         13    1    3    3    0    0  0.21963538925E+03 -0.20454019048E+03  0.67584806366E+03  0.73949104044E+03  0.00000000000E+00 0. -1.
          2    1    3    3  501    0 -0.21963538925E+03  0.20454019048E+03  0.21529742388E+03  0.36936347202E+03  0.00000000000E+00 0. -1.
<mgrwt>
<rscale>  0 0.65986214E+03</rscale>
<asrwt>0</asrwt>
<pdfrwt beam="1">0</pdfrwt>
<pdfrwt beam="2">  1        2 0.39583543E+00 0.65986214E+03</pdfrwt>
<totfact> 0.41252510E+00</totfact>
</mgrwt>
</event>
<event>
 5    1  0.2344661E-004  0.6532190E+03  0.7818608E-02  0.9800758E-01
         13   -1    0    0    0    0  0.00000000000E+00  0.00000000000E+00  0.10000000000E+04  0.10000000000E+04  0.00000000000E+00 0. -1.
          2   -1    0    0  501    0 -0.00000000000E+00 -0.00000000000E+00 -0.10667376207E+03  0.10667376207E+03  0.00000000000E+00 0. -1.
    9000006    2    1    2  501    0  0.00000000000E+00  0.00000000000E+00  0.89332623793E+03  0.11066737621E+04  0.65321898952E+03 0.  0.
         13    1    3    3    0    0 -0.20650842899E+03 -0.10275009636E+03  0.83842098515E+03  0.86957061926E+03  0.00000000000E+00 0. -1.
          2    1    3    3  501    0  0.20650842899E+03  0.10275009636E+03  0.54905252787E+02  0.23710314281E+03  0.00000000000E+00 0. -1.
<mgrwt>
<rscale>  0 0.65321899E+03</rscale>
<asrwt>0</asrwt>
<pdfrwt beam="1">0</pdfrwt>
<pdfrwt beam="2">  1        2 0.38790541E+00 0.65321899E+03</pdfrwt>
<totfact> 0.44179379E+00</totfact>
</mgrwt>
</event>
<event>
 5    1  0.2344661E-004  0.6387078E+03  0.7818608E-02  0.9828202E-01
         13   -1    0    0    0    0  0.00000000000E+00  0.00000000000E+00  0.10000000000E+04  0.10000000000E+04  0.00000000000E+00 0. -1.
          2   -1    0    0  501    0 -0.00000000000E+00 -0.00000000000E+00 -0.10198691118E+03  0.10198691118E+03  0.00000000000E+00 0. -1.
    9000006    2    1    2  501    0  0.00000000000E+00  0.00000000000E+00  0.89801308882E+03  0.11019869112E+04  0.63870779292E+03 0.  0.
         13    1    3    3    0    0 -0.63014735241E+02  0.18567330924E+02  0.98821627922E+03  0.99039740364E+03  0.00000000000E+00 0. -1.
          4    1    3    3  501    0  0.63014735241E+02 -0.18567330924E+02 -0.90203190399E+02  0.11158950754E+03  0.00000000000E+00 0. -1.
<mgrwt>
<rscale>  0 0.63870779E+03</rscale>
<asrwt>0</asrwt>
<pdfrwt beam="1">0</pdfrwt>
<pdfrwt beam="2">  1        2 0.37086228E+00 0.63870779E+03</pdfrwt>
<totfact> 0.51117185E+00</totfact>
</mgrwt>
</event>
<event>
 5    1  0.2344661E-004  0.6412516E+03  0.7818608E-02  0.9823335E-01
         13   -1    0    0    0    0  0.00000000000E+00  0.00000000000E+00  0.10000000000E+04  0.10000000000E+04  0.00000000000E+00 0. -1.
          2   -1    0    0  501    0 -0.00000000000E+00 -0.00000000000E+00 -0.10280091183E+03  0.10280091183E+03  0.00000000000E+00 0. -1.
    9000006    2    1    2  501    0  0.00000000000E+00  0.00000000000E+00  0.89719908817E+03  0.11028009118E+04  0.64125162558E+03 0.  0.
         13    1    3    3    0    0 -0.17329483963E+03  0.16661672045E+03  0.83747511493E+02  0.25456998774E+03  0.00000000000E+00 0. -1.
          4    1    3    3  501    0  0.17329483963E+03 -0.16661672045E+03  0.81345157668E+03  0.84823092409E+03  0.00000000000E+00 0. -1.
<mgrwt>
<rscale>  0 0.64125163E+03</rscale>
<asrwt>0</asrwt>
<pdfrwt beam="1">0</pdfrwt>
<pdfrwt beam="2">  1        2 0.37382229E+00 0.64125163E+03</pdfrwt>
<totfact> 0.49845113E+00</totfact>
</mgrwt>
</event>
<event>
 5    1  0.2344661E-004  0.6423539E+03  0.7818608E-02  0.9821233E-01
         13   -1    0    0    0    0  0.00000000000E+00  0.00000000000E+00  0.10000000000E+04  0.10000000000E+04  0.00000000000E+00 0. -1.
          2   -1    0    0  501    0 -0.00000000000E+00 -0.00000000000E+00 -0.10315463258E+03  0.10315463258E+03  0.00000000000E+00 0. -1.
    9000006    2    1    2  501    0  0.00000000000E+00  0.00000000000E+00  0.89684536742E+03  0.11031546326E+04  0.64235389804E+03 0.  0.
         13    1    3    3    0    0 -0.11771930814E+03  0.13358815275E+03  0.90747923800E+03  0.92478224327E+03  0.00000000000E+00 0. -1.
          4    1    3    3  501    0  0.11771930814E+03 -0.13358815275E+03 -0.10633870581E+02  0.17837238931E+03  0.00000000000E+00 0. -1.
<mgrwt>
<rscale>  0 0.64235390E+03</rscale>
<asrwt>0</asrwt>
<pdfrwt beam="1">0</pdfrwt>
<pdfrwt beam="2">  1        2 0.37510855E+00 0.64235390E+03</pdfrwt>
<totfact> 0.49301417E+00</totfact>
</mgrwt>
</event>
<event>
 5    1  0.2344661E-004  0.5962353E+03  0.7818608E-02  0.9913248E-01
         13   -1    0    0    0    0  0.00000000000E+00  0.00000000000E+00  0.10000000000E+04  0.10000000000E+04  0.00000000000E+00 0. -1.
          2   -1    0    0  501    0 -0.00000000000E+00 -0.00000000000E+00 -0.88874123660E+02  0.88874123660E+02  0.00000000000E+00 0. -1.
    9000006    2    1    2  501    0  0.00000000000E+00  0.00000000000E+00  0.91112587634E+03  0.10888741237E+04  0.59623526786E+03 0.  0.
         13    1    3    3    0    0 -0.87130687430E+02  0.25526000078E+03  0.68746564808E+03  0.73848388065E+03  0.00000000000E+00 0. -1.
          2    1    3    3  501    0  0.87130687430E+02 -0.25526000078E+03  0.22366022826E+03  0.35039024301E+03  0.00000000000E+00 0. -1.
<mgrwt>
<rscale>  0 0.59623527E+03</rscale>
<asrwt>0</asrwt>
<pdfrwt beam="1">0</pdfrwt>
<pdfrwt beam="2">  1        2 0.32317931E+00 0.59623527E+03</pdfrwt>
<totfact> 0.76237764E+00</totfact>
</mgrwt>
</event>
<event>
 5    1  0.2344661E-004  0.6406487E+03  0.7818608E-02  0.9824486E-01
         13   -1    0    0    0    0  0.00000000000E+00  0.00000000000E+00  0.10000000000E+04  0.10000000000E+04  0.00000000000E+00 0. -1.
          2   -1    0    0  501    0 -0.00000000000E+00 -0.00000000000E+00 -0.10260767675E+03  0.10260767675E+03  0.00000000000E+00 0. -1.
    9000006    2    1    2  501    0  0.00000000000E+00  0.00000000000E+00  0.89739232325E+03  0.11026076768E+04  0.64064866113E+03 0.  0.
         13    1    3    3    0    0 -0.15082434050E+03 -0.21129569142E+03  0.12572949950E+03  0.28844714931E+03  0.00000000000E+00 0. -1.
          2    1    3    3  501    0  0.15082434050E+03  0.21129569142E+03  0.77166282375E+03  0.81416052745E+03  0.00000000000E+00 0. -1.
<mgrwt>
<rscale>  0 0.64064866E+03</rscale>
<asrwt>0</asrwt>
<pdfrwt beam="1">0</pdfrwt>
<pdfrwt beam="2">  1        2 0.37311961E+00 0.64064866E+03</pdfrwt>
<totfact> 0.50144439E+00</totfact>
</mgrwt>
</event>
<event>
 5    1  0.2344661E-004  0.6475162E+03  0.7818608E-02  0.9811451E-01
         13   -1    0    0    0    0  0.00000000000E+00  0.00000000000E+00  0.10000000000E+04  0.10000000000E+04  0.00000000000E+00 0. -1.
          2   -1    0    0  501    0 -0.00000000000E+00 -0.00000000000E+00 -0.10481929863E+03  0.10481929863E+03  0.00000000000E+00 0. -1.
    9000006    2    1    2  501    0  0.00000000000E+00  0.00000000000E+00  0.89518070137E+03  0.11048192986E+04  0.64751617317E+03 0.  0.
         13    1    3    3    0    0 -0.29590520832E+03 -0.10389750290E+03  0.31040260167E+03  0.44125316831E+03  0.00000000000E+00 0. -1.
          4    1    3    3  501    0  0.29590520832E+03  0.10389750290E+03  0.58477809970E+03  0.66356613032E+03  0.00000000000E+00 0. -1.
<mgrwt>
<rscale>  0 0.64751617E+03</rscale>
<asrwt>0</asrwt>
<pdfrwt beam="1">0</pdfrwt>
<pdfrwt beam="2">  1        2 0.38116189E+00 0.64751617E+03</pdfrwt>
<totfact> 0.46814813E+00</totfact>
</mgrwt>
</event>
<event>
 5    1  0.2344661E-004  0.6557285E+03  0.7818608E-02  0.9796089E-01
         13   -1    0    0    0    0  0.00000000000E+00  0.00000000000E+00  0.10000000000E+04  0.10000000000E+04  0.00000000000E+00 0. -1.
          2   -1    0    0  501    0 -0.00000000000E+00 -0.00000000000E+00 -0.10749495162E+03  0.10749495162E+03  0.00000000000E+00 0. -1.
    9000006    2    1    2  501    0  0.00000000000E+00  0.00000000000E+00  0.89250504838E+03  0.11074949516E+04  0.65572845484E+03 0.  0.
         13    1    3    3    0    0  0.11450873796E+03 -0.29556363700E+03  0.30469405677E+03  0.43966871940E+03  0.00000000000E+00 0. -1.
          2    1    3    3  501    0 -0.11450873796E+03  0.29556363700E+03  0.58781099161E+03  0.66782623222E+03  0.00000000000E+00 0. -1.
<mgrwt>
<rscale>  0 0.65572845E+03</rscale>
<asrwt>0</asrwt>
<pdfrwt beam="1">0</pdfrwt>
<pdfrwt beam="2">  1        2 0.39089156E+00 0.65572845E+03</pdfrwt>
<totfact> 0.43055896E+00</totfact>
</mgrwt>
</event>
<event>
 5    1  0.2344661E-004  0.6528622E+03  0.7818608E-02  0.9801423E-01
         13   -1    0    0    0    0  0.00000000000E+00  0.00000000000E+00  0.10000000000E+04  0.10000000000E+04  0.00000000000E+00 0. -1.
          2   -1    0    0  501    0 -0.00000000000E+00 -0.00000000000E+00 -0.10655724929E+03  0.10655724929E+03  0.00000000000E+00 0. -1.
    9000006    2    1    2  501    0  0.00000000000E+00  0.00000000000E+00  0.89344275071E+03  0.11065572493E+04  0.65286215786E+03 0.  0.
         13    1    3    3    0    0  0.24832018036E+03 -0.21175369875E+03  0.43418478758E+03  0.54315648820E+03  0.00000000000E+00 0. -1.
          2    1    3    3  501    0 -0.24832018036E+03  0.21175369875E+03  0.45925796313E+03  0.56340076109E+03  0.00000000000E+00 0. -1.
<mgrwt>
<rscale>  0 0.65286216E+03</rscale>
<asrwt>0</asrwt>
<pdfrwt beam="1">0</pdfrwt>
<pdfrwt beam="2">  1        2 0.38748172E+00 0.65286216E+03</pdfrwt>
<totfact> 0.44340912E+00</totfact>
</mgrwt>
</event>
<event>
 5    1  0.2344661E-004  0.6274288E+03  0.7818608E-02  0.9850079E-01
         13   -1    0    0    0    0  0.00000000000E+00  0.00000000000E+00  0.10000000000E+04  0.10000000000E+04  0.00000000000E+00 0. -1.
          2   -1    0    0  501    0 -0.00000000000E+00 -0.00000000000E+00 -0.98416727507E+02  0.98416727507E+02  0.00000000000E+00 0. -1.
    9000006    2    1    2  501    0  0.00000000000E+00  0.00000000000E+00  0.90158327249E+03  0.10984167275E+04  0.62742880873E+03 0.  0.
         13    1    3    3    0    0  0.19784850836E+03  0.12043022237E+03  0.82121009870E+03  0.85324878959E+03  0.00000000000E+00 0. -1.
          2    1    3    3  501    0 -0.19784850836E+03 -0.12043022237E+03  0.80373173790E+02  0.24516793792E+03  0.00000000000E+00 0. -1.
<mgrwt>
<rscale>  0 0.62742881E+03</rscale>
<asrwt>0</asrwt>
<pdfrwt beam="1">0</pdfrwt>
<pdfrwt beam="2">  1        2 0.35787976E+00 0.62742881E+03</pdfrwt>
<totfact> 0.57056386E+00</totfact>
</mgrwt>
</event>
<event>
 5    1  0.2344661E-004  0.6508154E+03  0.7818608E-02  0.9805250E-01
         13   -1    0    0    0    0  0.00000000000E+00  0.00000000000E+00  0.10000000000E+04  0.10000000000E+04  0.00000000000E+00 0. -1.
          2   -1    0    0  501    0 -0.00000000000E+00 -0.00000000000E+00 -0.10589015767E+03  0.10589015767E+03  0.00000000000E+00 0. -1.
    9000006    2    1    2  501    0  0.00000000000E+00  0.00000000000E+00  0.89410984233E+03  0.11058901577E+04  0.65081535836E+03 0.  0.
         13    1    3    3    0    0 -0.17223548549E+02 -0.16355384565E+03  0.92418582976E+03  0.93870440447E+03  0.00000000000E+00 0. -1.
          4    1    3    3  501    0  0.17223548549E+02  0.16355384565E+03 -0.30075987428E+02  0.16718575319E+03  0.00000000000E+00 0. -1.
<mgrwt>
<rscale>  0 0.65081536E+03</rscale>
<asrwt>0</asrwt>
<pdfrwt beam="1">0</pdfrwt>
<pdfrwt beam="2">  1        2 0.38505593E+00 0.65081536E+03</pdfrwt>
<totfact> 0.45276109E+00</totfact>
</mgrwt>
</event>
<event>
 5    1  0.2344661E-004  0.6626409E+03  0.7818608E-02  0.9783344E-01
         13   -1    0    0    0    0  0.00000000000E+00  0.00000000000E+00  0.10000000000E+04  0.10000000000E+04  0.00000000000E+00 0. -1.
          2   -1    0    0  501    0 -0.00000000000E+00 -0.00000000000E+00 -0.10977322572E+03  0.10977322572E+03  0.00000000000E+00 0. -1.
    9000006    2    1    2  501    0  0.00000000000E+00  0.00000000000E+00  0.89022677428E+03  0.11097732257E+04  0.66264085514E+03 0.  0.
         13    1    3    3    0    0  0.11723707291E+03 -0.16121784978E+03  0.88833542870E+03  0.91042603227E+03  0.00000000000E+00 0. -1.
          2    1    3    3  501    0 -0.11723707291E+03  0.16121784978E+03  0.18913455794E+01  0.19934719346E+03  0.00000000000E+00 0. -1.
<mgrwt>
<rscale>  0 0.66264086E+03</rscale>
<asrwt>0</asrwt>
<pdfrwt beam="1">0</pdfrwt>
<pdfrwt beam="2">  1        2 0.39917621E+00 0.66264086E+03</pdfrwt>
<totfact> 0.40072773E+00</totfact>
</mgrwt>
</event>
<event>
 5    1  0.2344661E-004  0.6448496E+03  0.7818608E-02  0.9816492E-01
         13   -1    0    0    0    0  0.00000000000E+00  0.00000000000E+00  0.10000000000E+04  0.10000000000E+04  0.00000000000E+00 0. -1.
          2   -1    0    0  501    0 -0.00000000000E+00 -0.00000000000E+00 -0.10395775638E+03  0.10395775638E+03  0.00000000000E+00 0. -1.
    9000006    2    1    2  501    0  0.00000000000E+00  0.00000000000E+00  0.89604224362E+03  0.11039577564E+04  0.64484961467E+03 0.  0.
         13    1    3    3    0    0 -0.88825361997E+02 -0.30919092057E+03  0.48508760360E+03  0.58206438945E+03  0.00000000000E+00 0. -1.
          4    1    3    3  501    0  0.88825361997E+02  0.30919092057E+03  0.41095464002E+03  0.52189336694E+03  0.00000000000E+00 0. -1.
<mgrwt>
<rscale>  0 0.64484961E+03</rscale>
<asrwt>0</asrwt>
<pdfrwt beam="1">0</pdfrwt>
<pdfrwt beam="2">  1        2 0.37802900E+00 0.64484961E+03</pdfrwt>
<totfact> 0.48087093E+00</totfact>
</mgrwt>
</event>
<event>
 5    1  0.2344661E-004  0.6547202E+03  0.7818608E-02  0.9797962E-01
         13   -1    0    0    0    0  0.00000000000E+00  0.00000000000E+00  0.10000000000E+04  0.10000000000E+04  0.00000000000E+00 0. -1.
          2   -1    0    0  501    0 -0.00000000000E+00 -0.00000000000E+00 -0.10716462741E+03  0.10716462741E+03  0.00000000000E+00 0. -1.
    9000006    2    1    2  501    0  0.00000000000E+00  0.00000000000E+00  0.89283537259E+03  0.11071646274E+04  0.65472017660E+03 0.  0.
         13    1    3    3    0    0  0.29403543596E+03 -0.17698142554E+02  0.68791577982E+03  0.74833026263E+03  0.00000000000E+00 0. -1.
          4    1    3    3  501    0 -0.29403543596E+03  0.17698142554E+02  0.20491959277E+03  0.35883436478E+03  0.00000000000E+00 0. -1.
<mgrwt>
<rscale>  0 0.65472018E+03</rscale>
<asrwt>0</asrwt>
<pdfrwt beam="1">0</pdfrwt>
<pdfrwt beam="2">  1        2 0.38969038E+00 0.65472018E+03</pdfrwt>
<totfact> 0.43504675E+00</totfact>
</mgrwt>
</event>
<event>
 5    1  0.2344661E-004  0.6397426E+03  0.7818608E-02  0.9826219E-01
         13   -1    0    0    0    0  0.00000000000E+00  0.00000000000E+00  0.10000000000E+04  0.10000000000E+04  0.00000000000E+00 0. -1.
          2   -1    0    0  501    0 -0.00000000000E+00 -0.00000000000E+00 -0.10231765397E+03  0.10231765397E+03  0.00000000000E+00 0. -1.
    9000006    2    1    2  501    0  0.00000000000E+00  0.00000000000E+00  0.89768234603E+03  0.11023176540E+04  0.63974261690E+03 0.  0.
         13    1    3    3    0    0  0.18516569177E+03 -0.20384894729E+03  0.16846876517E+03  0.32283502220E+03  0.00000000000E+00 0. -1.
          4    1    3    3  501    0 -0.18516569177E+03  0.20384894729E+03  0.72921358086E+03  0.77948263177E+03  0.00000000000E+00 0. -1.
<mgrwt>
<rscale>  0 0.63974262E+03</rscale>
<asrwt>0</asrwt>
<pdfrwt beam="1">0</pdfrwt>
<pdfrwt beam="2">  1        2 0.37206498E+00 0.63974262E+03</pdfrwt>
<totfact> 0.50596779E+00</totfact>
</mgrwt>
</event>
<event>
 5    1  0.2344661E-004  0.6438329E+03  0.7818608E-02  0.9818421E-01
         13   -1    0    0    0    0  0.00000000000E+00  0.00000000000E+00  0.10000000000E+04  0.10000000000E+04  0.00000000000E+00 0. -1.
          2   -1    0    0  501    0 -0.00000000000E+00 -0.00000000000E+00 -0.10363018543E+03  0.10363018543E+03  0.00000000000E+00 0. -1.
    9000006    2    1    2  501    0  0.00000000000E+00  0.00000000000E+00  0.89636981457E+03  0.11036301854E+04  0.64383285231E+03 0.  0.
         13    1    3    3    0    0 -0.27926874347E+02  0.14207867472E+03 -0.44657929930E+02  0.15152752498E+03  0.00000000000E+00 0. -1.
          2    1    3    3  501    0  0.27926874347E+02 -0.14207867472E+03  0.94102774450E+03  0.95210266045E+03  0.00000000000E+00 0. -1.
<mgrwt>
<rscale>  0 0.64383285E+03</rscale>
<asrwt>0</asrwt>
<pdfrwt beam="1">0</pdfrwt>
<pdfrwt beam="2">  1        2 0.37683783E+00 0.64383285E+03</pdfrwt>
<totfact> 0.48579040E+00</totfact>
</mgrwt>
</event>
<event>
 5    1  0.2344661E-004  0.6495765E+03  0.7818608E-02  0.9807574E-01
         13   -1    0    0    0    0  0.00000000000E+00  0.00000000000E+00  0.10000000000E+04  0.10000000000E+04  0.00000000000E+00 0. -1.
          2   -1    0    0  501    0 -0.00000000000E+00 -0.00000000000E+00 -0.10548740743E+03  0.10548740743E+03  0.00000000000E+00 0. -1.
    9000006    2    1    2  501    0  0.00000000000E+00  0.00000000000E+00  0.89451259257E+03  0.11054874074E+04  0.64957650028E+03 0.  0.
         13    1    3    3    0    0  0.10663000116E+03  0.14581055315E+03 -0.12109167694E+02  0.18104503998E+03  0.00000000000E+00 0. -1.
          2    1    3    3  501    0 -0.10663000116E+03 -0.14581055315E+03  0.90662176026E+03  0.92444236745E+03  0.00000000000E+00 0. -1.
<mgrwt>
<rscale>  0 0.64957650E+03</rscale>
<asrwt>0</asrwt>
<pdfrwt beam="1">0</pdfrwt>
<pdfrwt beam="2">  1        2 0.38359138E+00 0.64957650E+03</pdfrwt>
<totfact> 0.45849345E+00</totfact>
</mgrwt>
</event>
<event>
 5    1  0.2344661E-004  0.6461073E+03  0.7818608E-02  0.9814111E-01
         13   -1    0    0    0    0  0.00000000000E+00  0.00000000000E+00  0.10000000000E+04  0.10000000000E+04  0.00000000000E+00 0. -1.
          2   -1    0    0  501    0 -0.00000000000E+00 -0.00000000000E+00 -0.10436366674E+03  0.10436366674E+03  0.00000000000E+00 0. -1.
    9000006    2    1    2  501    0  0.00000000000E+00  0.00000000000E+00  0.89563633326E+03  0.11043636667E+04  0.64610731847E+03 0.  0.
         13    1    3    3    0    0  0.93718642895E+02  0.17206105785E+03  0.87836022062E+01  0.19612583543E+03  0.00000000000E+00 0. -1.
          4    1    3    3  501    0 -0.93718642895E+02 -0.17206105785E+03  0.88685273105E+03  0.90823783131E+03  0.00000000000E+00 0. -1.
<mgrwt>
<rscale>  0 0.64610732E+03</rscale>
<asrwt>0</asrwt>
<pdfrwt beam="1">0</pdfrwt>
<pdfrwt beam="2">  1        2 0.37950504E+00 0.64610732E+03</pdfrwt>
<totfact> 0.47483796E+00</totfact>
</mgrwt>
</event>
<event>
 5    1  0.2344661E-004  0.6478832E+03  0.7818608E-02  0.9810759E-01
         13   -1    0    0    0    0  0.00000000000E+00  0.00000000000E+00  0.10000000000E+04  0.10000000000E+04  0.00000000000E+00 0. -1.
          2   -1    0    0  501    0 -0.00000000000E+00 -0.00000000000E+00 -0.10493817556E+03  0.10493817556E+03  0.00000000000E+00 0. -1.
    9000006    2    1    2  501    0  0.00000000000E+00  0.00000000000E+00  0.89506182444E+03  0.11049381756E+04  0.64788324739E+03 0.  0.
         13    1    3    3    0    0  0.10530485045E+03 -0.30622416629E+03  0.43268029154E+03  0.54043925305E+03  0.00000000000E+00 0. -1.
          2    1    3    3  501    0 -0.10530485045E+03  0.30622416629E+03  0.46238153290E+03  0.56449892251E+03  0.00000000000E+00 0. -1.
<mgrwt>
<rscale>  0 0.64788325E+03</rscale>
<asrwt>0</asrwt>
<pdfrwt beam="1">0</pdfrwt>
<pdfrwt beam="2">  1        2 0.38159417E+00 0.64788325E+03</pdfrwt>
<totfact> 0.46641687E+00</totfact>
</mgrwt>
</event>
<event>
 5    1  0.2344661E-004  0.6494719E+03  0.7818608E-02  0.9807771E-01
         13   -1    0    0    0    0  0.00000000000E+00  0.00000000000E+00  0.10000000000E+04  0.10000000000E+04  0.00000000000E+00 0. -1.
          2   -1    0    0  501    0 -0.00000000000E+00 -0.00000000000E+00 -0.10545344575E+03  0.10545344575E+03  0.00000000000E+00 0. -1.
    9000006    2    1    2  501    0  0.00000000000E+00  0.00000000000E+00  0.89454655425E+03  0.11054534457E+04  0.64947192625E+03 0.  0.
         13    1    3    3    0    0  0.91484126278E+02 -0.15839041967E+03 -0.94319622920E+01  0.18315521373E+03  0.00000000000E+00 0. -1.
          2    1    3    3  501    0 -0.91484126278E+02  0.15839041967E+03  0.90397851654E+03  0.92229823201E+03  0.00000000000E+00 0. -1.
<mgrwt>
<rscale>  0 0.64947193E+03</rscale>
<asrwt>0</asrwt>
<pdfrwt beam="1">0</pdfrwt>
<pdfrwt beam="2">  1        2 0.38346788E+00 0.64947193E+03</pdfrwt>
<totfact> 0.45897982E+00</totfact>
</mgrwt>
</event>
<event>
 5    1  0.2344661E-004  0.6397859E+03  0.7818608E-02  0.9826136E-01
         13   -1    0    0    0    0  0.00000000000E+00  0.00000000000E+00  0.10000000000E+04  0.10000000000E+04  0.00000000000E+00 0. -1.
          2   -1    0    0  501    0 -0.00000000000E+00 -0.00000000000E+00 -0.10233151137E+03  0.10233151137E+03  0.00000000000E+00 0. -1.
    9000006    2    1    2  501    0  0.00000000000E+00  0.00000000000E+00  0.89766848863E+03  0.11023315114E+04  0.63978593723E+03 0.  0.
         13    1    3    3    0    0 -0.22827925829E+03  0.18137848924E+03  0.22206939386E+03  0.36650292197E+03  0.00000000000E+00 0. -1.
          2    1    3    3  501    0  0.22827925829E+03 -0.18137848924E+03  0.67559909477E+03  0.73582858940E+03  0.00000000000E+00 0. -1.
<mgrwt>
<rscale>  0 0.63978594E+03</rscale>
<asrwt>0</asrwt>
<pdfrwt beam="1">0</pdfrwt>
<pdfrwt beam="2">  1        2 0.37211537E+00 0.63978594E+03</pdfrwt>
<totfact> 0.50575081E+00</totfact>
</mgrwt>
</event>
<event>
 5    1  0.2344661E-004  0.6540267E+03  0.7818608E-02  0.9799253E-01
         13   -1    0    0    0    0  0.00000000000E+00  0.00000000000E+00  0.10000000000E+04  0.10000000000E+04  0.00000000000E+00 0. -1.
          2   -1    0    0  501    0 -0.00000000000E+00 -0.00000000000E+00 -0.10693772518E+03  0.10693772518E+03  0.00000000000E+00 0. -1.
    9000006    2    1    2  501    0  0.00000000000E+00  0.00000000000E+00  0.89306227482E+03  0.11069377252E+04  0.65402668196E+03 0.  0.
         13    1    3    3    0    0 -0.75087022274E+02 -0.25727871247E+03  0.12940896119E+03  0.29761901156E+03  0.00000000000E+00 0. -1.
          2    1    3    3  501    0  0.75087022274E+02  0.25727871247E+03  0.76365331363E+03  0.80931871362E+03  0.00000000000E+00 0. -1.
<mgrwt>
<rscale>  0 0.65402668E+03</rscale>
<asrwt>0</asrwt>
<pdfrwt beam="1">0</pdfrwt>
<pdfrwt beam="2">  1        2 0.38886528E+00 0.65402668E+03</pdfrwt>
<totfact> 0.43815390E+00</totfact>
</mgrwt>
</event>
<event>
 5    1  0.2344661E-004  0.6265116E+03  0.7818608E-02  0.9851880E-01
         13   -1    0    0    0    0  0.00000000000E+00  0.00000000000E+00  0.10000000000E+04  0.10000000000E+04  0.00000000000E+00 0. -1.
          2   -1    0    0  501    0 -0.00000000000E+00 -0.00000000000E+00 -0.98129199584E+02  0.98129199584E+02  0.00000000000E+00 0. -1.
    9000006    2    1    2  501    0  0.00000000000E+00  0.00000000000E+00  0.90187080042E+03  0.10981291996E+04  0.62651161070E+03 0.  0.
         13    1    3    3    0    0 -0.22178555203E+03  0.67143634357E+02  0.81470879437E+02  0.24563103004E+03  0.00000000000E+00 0. -1.
          4    1    3    3  501    0  0.22178555203E+03 -0.67143634357E+02  0.82039992098E+03  0.85249816954E+03  0.00000000000E+00 0. -1.
<mgrwt>
<rscale>  0 0.62651161E+03</rscale>
<asrwt>0</asrwt>
<pdfrwt beam="1">0</pdfrwt>
<pdfrwt beam="2">  1        2 0.35683421E+00 0.62651161E+03</pdfrwt>
<totfact> 0.57561392E+00</totfact>
</mgrwt>
</event>
<event>
 5    1  0.2344661E-004  0.6426650E+03  0.7818608E-02  0.9820641E-01
         13   -1    0    0    0    0  0.00000000000E+00  0.00000000000E+00  0.10000000000E+04  0.10000000000E+04  0.00000000000E+00 0. -1.
          2   -1    0    0  501    0 -0.00000000000E+00 -0.00000000000E+00 -0.10325458802E+03  0.10325458802E+03  0.00000000000E+00 0. -1.
    9000006    2    1    2  501    0  0.00000000000E+00  0.00000000000E+00  0.89674541198E+03  0.11032545880E+04  0.64266503879E+03 0.  0.
         13    1    3    3    0    0 -0.13799317572E+03 -0.26773031762E+03  0.64055691253E+03  0.70783811546E+03  0.00000000000E+00 0. -1.
          4    1    3    3  501    0  0.13799317572E+03  0.26773031762E+03  0.25618849945E+03  0.39541647256E+03  0.00000000000E+00 0. -1.
<mgrwt>
<rscale>  0 0.64266504E+03</rscale>
<asrwt>0</asrwt>
<pdfrwt beam="1">0</pdfrwt>
<pdfrwt beam="2">  1        2 0.37547202E+00 0.64266504E+03</pdfrwt>
<totfact> 0.49148763E+00</totfact>
</mgrwt>
</event>
<event>
 5    1  0.2344661E-004  0.6478741E+03  0.7818608E-02  0.9810777E-01
         13   -1    0    0    0    0  0.00000000000E+00  0.00000000000E+00  0.10000000000E+04  0.10000000000E+04  0.00000000000E+00 0. -1.
          2   -1    0    0  501    0 -0.00000000000E+00 -0.00000000000E+00 -0.10493519818E+03  0.10493519818E+03  0.00000000000E+00 0. -1.
    9000006    2    1    2  501    0  0.00000000000E+00  0.00000000000E+00  0.89506480182E+03  0.11049351982E+04  0.64787405621E+03 0.  0.
         13    1    3    3    0    0 -0.64426149168E+02 -0.23427060235E+03  0.82138863821E+02  0.25647658133E+03  0.00000000000E+00 0. -1.
          2    1    3    3  501    0  0.64426149168E+02  0.23427060235E+03  0.81292593800E+03  0.84845861685E+03  0.00000000000E+00 0. -1.
<mgrwt>
<rscale>  0 0.64787406E+03</rscale>
<asrwt>0</asrwt>
<pdfrwt beam="1">0</pdfrwt>
<pdfrwt beam="2">  1        2 0.38158334E+00 0.64787406E+03</pdfrwt>
<totfact> 0.46646016E+00</totfact>
</mgrwt>
</event>
<event>
 5    1  0.2344661E-004  0.6566141E+03  0.7818608E-02  0.9794447E-01
         13   -1    0    0    0    0  0.00000000000E+00  0.00000000000E+00  0.10000000000E+04  0.10000000000E+04  0.00000000000E+00 0. -1.
          2   -1    0    0  501    0 -0.00000000000E+00 -0.00000000000E+00 -0.10778552641E+03  0.10778552641E+03  0.00000000000E+00 0. -1.
    9000006    2    1    2  501    0  0.00000000000E+00  0.00000000000E+00  0.89221447359E+03  0.11077855264E+04  0.65661412234E+03 0.  0.
         13    1    3    3    0    0  0.14694938282E+03  0.27257679315E+03  0.26211622737E+03  0.40570573810E+03  0.00000000000E+00 0. -1.
          2    1    3    3  501    0 -0.14694938282E+03 -0.27257679315E+03  0.63009824622E+03  0.70207978832E+03  0.00000000000E+00 0. -1.
<mgrwt>
<rscale>  0 0.65661412E+03</rscale>
<asrwt>0</asrwt>
<pdfrwt beam="1">0</pdfrwt>
<pdfrwt beam="2">  1        2 0.39194820E+00 0.65661412E+03</pdfrwt>
<totfact> 0.42664582E+00</totfact>
</mgrwt>
</event>
<event>
 5    1  0.2344661E-004  0.6510085E+03  0.7818608E-02  0.9804889E-01
         13   -1    0    0    0    0  0.00000000000E+00  0.00000000000E+00  0.10000000000E+04  0.10000000000E+04  0.00000000000E+00 0. -1.
          2   -1    0    0  501    0 -0.00000000000E+00 -0.00000000000E+00 -0.10595301330E+03  0.10595301330E+03  0.00000000000E+00 0. -1.
    9000006    2    1    2  501    0  0.00000000000E+00  0.00000000000E+00  0.89404698670E+03  0.11059530133E+04  0.65100848935E+03 0.  0.
         13    1    3    3    0    0  0.10383633676E+03 -0.30227955468E+03  0.55172023874E+03  0.63761284166E+03  0.00000000000E+00 0. -1.
          4    1    3    3  501    0 -0.10383633676E+03  0.30227955468E+03  0.34232674796E+03  0.46834017164E+03  0.00000000000E+00 0. -1.
<mgrwt>
<rscale>  0 0.65100849E+03</rscale>
<asrwt>0</asrwt>
<pdfrwt beam="1">0</pdfrwt>
<pdfrwt beam="2">  1        2 0.38528450E+00 0.65100849E+03</pdfrwt>
<totfact> 0.45187235E+00</totfact>
</mgrwt>
</event>
<event>
 5    1  0.2344661E-004  0.6344733E+03  0.7818608E-02  0.9836358E-01
         13   -1    0    0    0    0  0.00000000000E+00  0.00000000000E+00  0.10000000000E+04  0.10000000000E+04  0.00000000000E+00 0. -1.
          2   -1    0    0  501    0 -0.00000000000E+00 -0.00000000000E+00 -0.10063909552E+03  0.10063909552E+03  0.00000000000E+00 0. -1.
    9000006    2    1    2  501    0  0.00000000000E+00  0.00000000000E+00  0.89936090448E+03  0.11006390955E+04  0.63447331076E+03 0.  0.
         13    1    3    3    0    0 -0.23806869184E+01  0.25943867680E+03  0.13300335054E+03  0.29155443050E+03  0.00000000000E+00 0. -1.
          4    1    3    3  501    0  0.23806869184E+01 -0.25943867680E+03  0.76635755394E+03  0.80908466502E+03  0.00000000000E+00 0. -1.
<mgrwt>
<rscale>  0 0.63447331E+03</rscale>
<asrwt>0</asrwt>
<pdfrwt beam="1">0</pdfrwt>
<pdfrwt beam="2">  1        2 0.36596112E+00 0.63447331E+03</pdfrwt>
<totfact> 0.53289049E+00</totfact>
</mgrwt>
</event>
<event>
 5    1  0.2344661E-004  0.6568677E+03  0.7818608E-02  0.9793977E-01
         13   -1    0    0    0    0  0.00000000000E+00  0.00000000000E+00  0.10000000000E+04  0.10000000000E+04  0.00000000000E+00 0. -1.
          2   -1    0    0  501    0 -0.00000000000E+00 -0.00000000000E+00 -0.10786880470E+03  0.10786880470E+03  0.00000000000E+00 0. -1.
    9000006    2    1    2  501    0  0.00000000000E+00  0.00000000000E+00  0.89213119530E+03  0.11078688047E+04  0.65686773312E+03 0.  0.
         13    1    3    3    0    0  0.32316063487E+03  0.41106995254E+02  0.51654469695E+03  0.61068895924E+03  0.00000000000E+00 0. -1.
          2    1    3    3  501    0 -0.32316063487E+03 -0.41106995254E+02  0.37558649835E+03  0.49717984546E+03  0.00000000000E+00 0. -1.
<mgrwt>
<rscale>  0 0.65686773E+03</rscale>
<asrwt>0</asrwt>
<pdfrwt beam="1">0</pdfrwt>
<pdfrwt beam="2">  1        2 0.39225103E+00 0.65686773E+03</pdfrwt>
<totfact> 0.42553026E+00</totfact>
</mgrwt>
</event>
<event>
 5    1  0.2344661E-004  0.6246764E+03  0.7818608E-02  0.9855493E-01
         13   -1    0    0    0    0  0.00000000000E+00  0.00000000000E+00  0.10000000000E+04  0.10000000000E+04  0.00000000000E+00 0. -1.
          2   -1    0    0  501    0 -0.00000000000E+00 -0.00000000000E+00 -0.97555137753E+02  0.97555137753E+02  0.00000000000E+00 0. -1.
    9000006    2    1    2  501    0  0.00000000000E+00  0.00000000000E+00  0.90244486225E+03  0.10975551378E+04  0.62467635702E+03 0.  0.
         13    1    3    3    0    0  0.77873019486E+02 -0.96931815791E+01 -0.79952027524E+02  0.11202897678E+03  0.00000000000E+00 0. -1.
          2    1    3    3  501    0 -0.77873019486E+02  0.96931815791E+01  0.98239688977E+03  0.98552616097E+03  0.00000000000E+00 0. -1.
<mgrwt>
<rscale>  0 0.62467636E+03</rscale>
<asrwt>0</asrwt>
<pdfrwt beam="1">0</pdfrwt>
<pdfrwt beam="2">  1        2 0.35474670E+00 0.62467636E+03</pdfrwt>
<totfact> 0.58582135E+00</totfact>
</mgrwt>
</event>
<event>
 5    1  0.2344661E-004  0.6505281E+03  0.7818608E-02  0.9805789E-01
         13   -1    0    0    0    0  0.00000000000E+00  0.00000000000E+00  0.10000000000E+04  0.10000000000E+04  0.00000000000E+00 0. -1.
          2   -1    0    0  501    0 -0.00000000000E+00 -0.00000000000E+00 -0.10579671451E+03  0.10579671451E+03  0.00000000000E+00 0. -1.
    9000006    2    1    2  501    0  0.00000000000E+00  0.00000000000E+00  0.89420328549E+03  0.11057967145E+04  0.65052813779E+03 0.  0.
         13    1    3    3    0    0  0.21645846429E+03 -0.16305566785E+03  0.75286251172E+03  0.80015209750E+03  0.00000000000E+00 0. -1.
          4    1    3    3  501    0 -0.21645846429E+03  0.16305566785E+03  0.14134077377E+03  0.30564461702E+03  0.00000000000E+00 0. -1.
<mgrwt>
<rscale>  0 0.65052814E+03</rscale>
<asrwt>0</asrwt>
<pdfrwt beam="1">0</pdfrwt>
<pdfrwt beam="2">  1        2 0.38471614E+00 0.65052814E+03</pdfrwt>
<totfact> 0.45408525E+00</totfact>
</mgrwt>
</event>
<event>
 5    1  0.2344661E-004  0.7057946E+03  0.7818608E-02  0.9707374E-01
         13   -1    0    0    0    0  0.00000000000E+00  0.00000000000E+00  0.10000000000E+04  0.10000000000E+04  0.00000000000E+00 0. -1.
          2   -1    0    0  501    0 -0.00000000000E+00 -0.00000000000E+00 -0.12453651620E+03  0.12453651620E+03  0.00000000000E+00 0. -1.
    9000006    2    1    2  501    0  0.00000000000E+00  0.00000000000E+00  0.87546348380E+03  0.11245365162E+04  0.70579463357E+03 0.  0.
         13    1    3    3    0    0  0.92055678860E+02 -0.32829292889E+03  0.29269827585E+03  0.44935818214E+03  0.00000000000E+00 0. -1.
          4    1    3    3  501    0 -0.92055678860E+02  0.32829292889E+03  0.58276520796E+03  0.67517833406E+03  0.00000000000E+00 0. -1.
<mgrwt>
<rscale>  0 0.70579463E+03</rscale>
<asrwt>0</asrwt>
<pdfrwt beam="1">0</pdfrwt>
<pdfrwt beam="2">  1        2 0.45286101E+00 0.70579463E+03</pdfrwt>
<totfact> 0.24810134E+00</totfact>
</mgrwt>
</event>
<event>
 5    1  0.2344661E-004  0.6468241E+03  0.7818608E-02  0.9812757E-01
         13   -1    0    0    0    0  0.00000000000E+00  0.00000000000E+00  0.10000000000E+04  0.10000000000E+04  0.00000000000E+00 0. -1.
          2   -1    0    0  501    0 -0.00000000000E+00 -0.00000000000E+00 -0.10459536728E+03  0.10459536728E+03  0.00000000000E+00 0. -1.
    9000006    2    1    2  501    0  0.00000000000E+00  0.00000000000E+00  0.89540463272E+03  0.11045953673E+04  0.64682414079E+03 0.  0.
         13    1    3    3    0    0 -0.11012981867E+03  0.13500900938E+03 -0.17598805960E+02  0.17511632576E+03  0.00000000000E+00 0. -1.
          4    1    3    3  501    0  0.11012981867E+03 -0.13500900938E+03  0.91300343868E+03  0.92947904152E+03  0.00000000000E+00 0. -1.
<mgrwt>
<rscale>  0 0.64682414E+03</rscale>
<asrwt>0</asrwt>
<pdfrwt beam="1">0</pdfrwt>
<pdfrwt beam="2">  1        2 0.38034759E+00 0.64682414E+03</pdfrwt>
<totfact> 0.47142522E+00</totfact>
</mgrwt>
</event>
<event>
 5    1  0.2344661E-004  0.6503348E+03  0.7818608E-02  0.9806151E-01
         13   -1    0    0    0    0  0.00000000000E+00  0.00000000000E+00  0.10000000000E+04  0.10000000000E+04  0.00000000000E+00 0. -1.
          2   -1    0    0  501    0 -0.00000000000E+00 -0.00000000000E+00 -0.10573384394E+03  0.10573384394E+03  0.00000000000E+00 0. -1.
    9000006    2    1    2  501    0  0.00000000000E+00  0.00000000000E+00  0.89426615606E+03  0.11057338439E+04  0.65033481820E+03 0.  0.
         13    1    3    3    0    0  0.19550463243E+03 -0.17818371261E+03  0.76866685633E+03  0.81290850209E+03  0.00000000000E+00 0. -1.
          2    1    3    3  501    0 -0.19550463243E+03  0.17818371261E+03  0.12559929972E+03  0.29282534185E+03  0.00000000000E+00 0. -1.
<mgrwt>
<rscale>  0 0.65033482E+03</rscale>
<asrwt>0</asrwt>
<pdfrwt beam="1">0</pdfrwt>
<pdfrwt beam="2">  1        2 0.38448752E+00 0.65033482E+03</pdfrwt>
<totfact> 0.45497814E+00</totfact>
</mgrwt>
</event>
<event>
 5    1  0.2344661E-004  0.6368670E+03  0.7818608E-02  0.9831739E-01
         13   -1    0    0    0    0  0.00000000000E+00  0.00000000000E+00  0.10000000000E+04  0.10000000000E+04  0.00000000000E+00 0. -1.
          2   -1    0    0  501    0 -0.00000000000E+00 -0.00000000000E+00 -0.10139989023E+03  0.10139989023E+03  0.00000000000E+00 0. -1.
    9000006    2    1    2  501    0  0.00000000000E+00  0.00000000000E+00  0.89860010977E+03  0.11013998902E+04  0.63686698839E+03 0.  0.
         13    1    3    3    0    0 -0.23707746985E+03  0.11091729500E+03  0.13565514478E+03  0.29480619285E+03  0.00000000000E+00 0. -1.
          2    1    3    3  501    0  0.23707746985E+03 -0.11091729500E+03  0.76294496499E+03  0.80659369737E+03  0.00000000000E+00 0. -1.
<mgrwt>
<rscale>  0 0.63686699E+03</rscale>
<asrwt>0</asrwt>
<pdfrwt beam="1">0</pdfrwt>
<pdfrwt beam="2">  1        2 0.36872765E+00 0.63686699E+03</pdfrwt>
<totfact> 0.52052923E+00</totfact>
</mgrwt>
</event>
<event>
 5    1  0.2344661E-004  0.6441512E+03  0.7818608E-02  0.9817816E-01
         13   -1    0    0    0    0  0.00000000000E+00  0.00000000000E+00  0.10000000000E+04  0.10000000000E+04  0.00000000000E+00 0. -1.
          2   -1    0    0  501    0 -0.00000000000E+00 -0.00000000000E+00 -0.10373268231E+03  0.10373268231E+03  0.00000000000E+00 0. -1.
    9000006    2    1    2  501    0  0.00000000000E+00  0.00000000000E+00  0.89626731769E+03  0.11037326823E+04  0.64415116955E+03 0.  0.
         13    1    3    3    0    0  0.31382676326E+03 -0.55819417636E+02  0.52720679327E+03  0.61607633261E+03  0.00000000000E+00 0. -1.
          2    1    3    3  501    0 -0.31382676326E+03  0.55819417636E+02  0.36906052442E+03  0.48765634970E+03  0.00000000000E+00 0. -1.
<mgrwt>
<rscale>  0 0.64415117E+03</rscale>
<asrwt>0</asrwt>
<pdfrwt beam="1">0</pdfrwt>
<pdfrwt beam="2">  1        2 0.37721055E+00 0.64415117E+03</pdfrwt>
<totfact> 0.48424619E+00</totfact>
</mgrwt>
</event>
<event>
 5    1  0.2344661E-004  0.6469041E+03  0.7818608E-02  0.9812606E-01
         13   -1    0    0    0    0  0.00000000000E+00  0.00000000000E+00  0.10000000000E+04  0.10000000000E+04  0.00000000000E+00 0. -1.
          2   -1    0    0  501    0 -0.00000000000E+00 -0.00000000000E+00 -0.10462124145E+03  0.10462124145E+03  0.00000000000E+00 0. -1.
    9000006    2    1    2  501    0  0.00000000000E+00  0.00000000000E+00  0.89537875855E+03  0.11046212414E+04  0.64690413957E+03 0.  0.
         13    1    3    3    0    0  0.12384796449E+03  0.10575387568E+03 -0.29506088648E+02  0.16550773334E+03  0.00000000000E+00 0. -1.
          4    1    3    3  501    0 -0.12384796449E+03 -0.10575387568E+03  0.92488484720E+03  0.93911350811E+03  0.00000000000E+00 0. -1.
<mgrwt>
<rscale>  0 0.64690414E+03</rscale>
<asrwt>0</asrwt>
<pdfrwt beam="1">0</pdfrwt>
<pdfrwt beam="2">  1        2 0.38044168E+00 0.64690414E+03</pdfrwt>
<totfact> 0.47104550E+00</totfact>
</mgrwt>
</event>
<event>
 5    1  0.2344661E-004  0.6557506E+03  0.7818608E-02  0.9796048E-01
         13   -1    0    0    0    0  0.00000000000E+00  0.00000000000E+00  0.10000000000E+04  0.10000000000E+04  0.00000000000E+00 0. -1.
          2   -1    0    0  501    0 -0.00000000000E+00 -0.00000000000E+00 -0.10750220485E+03  0.10750220485E+03  0.00000000000E+00 0. -1.
    9000006    2    1    2  501    0  0.00000000000E+00  0.00000000000E+00  0.89249779515E+03  0.11075022049E+04  0.65575057713E+03 0.  0.
         13    1    3    3    0    0  0.20594572243E+03  0.25154175125E+03  0.37429049483E+03  0.49576230971E+03  0.00000000000E+00 0. -1.
          4    1    3    3  501    0 -0.20594572243E+03 -0.25154175125E+03  0.51820730031E+03  0.61173989514E+03  0.00000000000E+00 0. -1.
<mgrwt>
<rscale>  0 0.65575058E+03</rscale>
<asrwt>0</asrwt>
<pdfrwt beam="1">0</pdfrwt>
<pdfrwt beam="2">  1        2 0.39091793E+00 0.65575058E+03</pdfrwt>
<totfact> 0.43046089E+00</totfact>
</mgrwt>
</event>
<event>
 5    1  0.2344661E-004  0.7041729E+03  0.7818608E-02  0.9710123E-01
         13   -1    0    0    0    0  0.00000000000E+00  0.00000000000E+00  0.10000000000E+04  0.10000000000E+04  0.00000000000E+00 0. -1.
          2   -1    0    0  501    0 -0.00000000000E+00 -0.00000000000E+00 -0.12396486151E+03  0.12396486151E+03  0.00000000000E+00 0. -1.
    9000006    2    1    2  501    0  0.00000000000E+00  0.00000000000E+00  0.87603513849E+03  0.11239648615E+04  0.70417288078E+03 0.  0.
         13    1    3    3    0    0 -0.82936068743E+02  0.32124258343E+03  0.62613084366E+03  0.70860074957E+03  0.00000000000E+00 0. -1.
          2    1    3    3  501    0  0.82936068743E+02 -0.32124258343E+03  0.24990429484E+03  0.41536411194E+03  0.00000000000E+00 0. -1.
<mgrwt>
<rscale>  0 0.70417288E+03</rscale>
<asrwt>0</asrwt>
<pdfrwt beam="1">0</pdfrwt>
<pdfrwt beam="2">  1        2 0.45078227E+00 0.70417288E+03</pdfrwt>
<totfact> 0.25288136E+00</totfact>
</mgrwt>
</event>
<event>
 5    1  0.2344661E-004  0.6036517E+03  0.7818608E-02  0.9897859E-01
         13   -1    0    0    0    0  0.00000000000E+00  0.00000000000E+00  0.10000000000E+04  0.10000000000E+04  0.00000000000E+00 0. -1.
          2   -1    0    0  501    0 -0.00000000000E+00 -0.00000000000E+00 -0.91098850903E+02  0.91098850903E+02  0.00000000000E+00 0. -1.
    9000006    2    1    2  501    0  0.00000000000E+00  0.00000000000E+00  0.90890114910E+03  0.10910988509E+04  0.60365172377E+03 0.  0.
         13    1    3    3    0    0  0.24346923447E+03 -0.80290126337E+02  0.74237688324E+03  0.78539621166E+03  0.00000000000E+00 0. -1.
          4    1    3    3  501    0 -0.24346923447E+03  0.80290126337E+02  0.16652426585E+03  0.30570263924E+03  0.00000000000E+00 0. -1.
<mgrwt>
<rscale>  0 0.60365172E+03</rscale>
<asrwt>0</asrwt>
<pdfrwt beam="1">0</pdfrwt>
<pdfrwt beam="2">  1        2 0.33126925E+00 0.60365172E+03</pdfrwt>
<totfact> 0.71287501E+00</totfact>
</mgrwt>
</event>
<event>
 5    1  0.2344661E-004  0.6726682E+03  0.7818608E-02  0.9765150E-01
         13   -1    0    0    0    0  0.00000000000E+00  0.00000000000E+00  0.10000000000E+04  0.10000000000E+04  0.00000000000E+00 0. -1.
          2   -1    0    0  501    0 -0.00000000000E+00 -0.00000000000E+00 -0.11312063168E+03  0.11312063168E+03  0.00000000000E+00 0. -1.
    9000006    2    1    2  501    0  0.00000000000E+00  0.00000000000E+00  0.88687936832E+03  0.11131206317E+04  0.67266821446E+03 0.  0.
         13    1    3    3    0    0 -0.10825257124E+03 -0.65238967288E+02 -0.72327303276E+02  0.14562273460E+03  0.00000000000E+00 0. -1.
          2    1    3    3  501    0  0.10825257124E+03  0.65238967288E+02  0.95920667159E+03  0.96749789708E+03  0.00000000000E+00 0. -1.
<mgrwt>
<rscale>  0 0.67266821E+03</rscale>
<asrwt>0</asrwt>
<pdfrwt beam="1">0</pdfrwt>
<pdfrwt beam="2">  1        2 0.41134862E+00 0.67266821E+03</pdfrwt>
<totfact> 0.36025872E+00</totfact>
</mgrwt>
</event>
<event>
 5    1  0.2344661E-004  0.6527488E+03  0.7818608E-02  0.9801635E-01
         13   -1    0    0    0    0  0.00000000000E+00  0.00000000000E+00  0.10000000000E+04  0.10000000000E+04  0.00000000000E+00 0. -1.
          2   -1    0    0  501    0 -0.00000000000E+00 -0.00000000000E+00 -0.10652023939E+03  0.10652023939E+03  0.00000000000E+00 0. -1.
    9000006    2    1    2  501    0  0.00000000000E+00  0.00000000000E+00  0.89347976061E+03  0.11065202394E+04  0.65274877062E+03 0.  0.
         13    1    3    3    0    0  0.83814498043E+02  0.59854841399E+02  0.97173045948E+03  0.97717324872E+03  0.00000000000E+00 0. -1.
          4    1    3    3  501    0 -0.83814498043E+02 -0.59854841399E+02 -0.78250698870E+02  0.12934699067E+03  0.00000000000E+00 0. -1.
<mgrwt>
<rscale>  0 0.65274877E+03</rscale>
<asrwt>0</asrwt>
<pdfrwt beam="1">0</pdfrwt>
<pdfrwt beam="2">  1        2 0.38734714E+00 0.65274877E+03</pdfrwt>
<totfact> 0.44392335E+00</totfact>
</mgrwt>
</event>
<event>
 5    1  0.2344661E-004  0.6267333E+03  0.7818608E-02  0.9851444E-01
         13   -1    0    0    0    0  0.00000000000E+00  0.00000000000E+00  0.10000000000E+04  0.10000000000E+04  0.00000000000E+00 0. -1.
          2   -1    0    0  501    0 -0.00000000000E+00 -0.00000000000E+00 -0.98198671303E+02  0.98198671303E+02  0.00000000000E+00 0. -1.
    9000006    2    1    2  501    0  0.00000000000E+00  0.00000000000E+00  0.90180132870E+03  0.10981986713E+04  0.62673334458E+03 0.  0.
         13    1    3    3    0    0 -0.20267942115E+03 -0.23835617069E+03  0.42024568689E+03  0.52392656853E+03  0.00000000000E+00 0. -1.
          4    1    3    3  501    0  0.20267942115E+03  0.23835617069E+03  0.48155564181E+03  0.57427210277E+03  0.00000000000E+00 0. -1.
<mgrwt>
<rscale>  0 0.62673334E+03</rscale>
<asrwt>0</asrwt>
<pdfrwt beam="1">0</pdfrwt>
<pdfrwt beam="2">  1        2 0.35708683E+00 0.62673334E+03</pdfrwt>
<totfact> 0.57438988E+00</totfact>
</mgrwt>
</event>
<event>
 5    1  0.2344661E-004  0.6503276E+03  0.7818608E-02  0.9806165E-01
         13   -1    0    0    0    0  0.00000000000E+00  0.00000000000E+00  0.10000000000E+04  0.10000000000E+04  0.00000000000E+00 0. -1.
          2   -1    0    0  501    0 -0.00000000000E+00 -0.00000000000E+00 -0.10573150773E+03  0.10573150773E+03  0.00000000000E+00 0. -1.
    9000006    2    1    2  501    0  0.00000000000E+00  0.00000000000E+00  0.89426849227E+03  0.11057315077E+04  0.65032763351E+03 0.  0.
         13    1    3    3    0    0  0.20785558376E+03  0.18512149608E+03  0.73294928750E+03  0.78402077144E+03  0.00000000000E+00 0. -1.
          4    1    3    3  501    0 -0.20785558376E+03 -0.18512149608E+03  0.16131920478E+03  0.32171073628E+03  0.00000000000E+00 0. -1.
<mgrwt>
<rscale>  0 0.65032763E+03</rscale>
<asrwt>0</asrwt>
<pdfrwt beam="1">0</pdfrwt>
<pdfrwt beam="2">  1        2 0.38447902E+00 0.65032763E+03</pdfrwt>
<totfact> 0.45501135E+00</totfact>
</mgrwt>
</event>
<event>
 5    1  0.2344661E-004  0.6470832E+03  0.7818608E-02  0.9812268E-01
         13   -1    0    0    0    0  0.00000000000E+00  0.00000000000E+00  0.10000000000E+04  0.10000000000E+04  0.00000000000E+00 0. -1.
          2   -1    0    0  501    0 -0.00000000000E+00 -0.00000000000E+00 -0.10467917763E+03  0.10467917763E+03  0.00000000000E+00 0. -1.
    9000006    2    1    2  501    0  0.00000000000E+00  0.00000000000E+00  0.89532082237E+03  0.11046791776E+04  0.64708323306E+03 0.  0.
         13    1    3    3    0    0 -0.12988672771E+03  0.29623783898E+03  0.45994233045E+03  0.56229384365E+03  0.00000000000E+00 0. -1.
          4    1    3    3  501    0  0.12988672771E+03 -0.29623783898E+03  0.43537849193E+03  0.54238533397E+03  0.00000000000E+00 0. -1.
<mgrwt>
<rscale>  0 0.64708323E+03</rscale>
<asrwt>0</asrwt>
<pdfrwt beam="1">0</pdfrwt>
<pdfrwt beam="2">  1        2 0.38065236E+00 0.64708323E+03</pdfrwt>
<totfact> 0.47019627E+00</totfact>
</mgrwt>
</event>
<event>
 5    1  0.2344661E-004  0.5664766E+03  0.7818608E-02  0.9977506E-01
         13   -1    0    0    0    0  0.00000000000E+00  0.00000000000E+00  0.10000000000E+04  0.10000000000E+04  0.00000000000E+00 0. -1.
          2   -1    0    0  501    0 -0.00000000000E+00 -0.00000000000E+00 -0.80223931501E+02  0.80223931501E+02  0.00000000000E+00 0. -1.
    9000006    2    1    2  501    0  0.00000000000E+00  0.00000000000E+00  0.91977606850E+03  0.10802239315E+04  0.56647658910E+03 0.  0.
         13    1    3    3    0    0 -0.15854200648E+03  0.23454463773E+03  0.47664034173E+03  0.55437601885E+03  0.00000000000E+00 0. -1.
          2    1    3    3  501    0  0.15854200648E+03 -0.23454463773E+03  0.44313572676E+03  0.52584791265E+03  0.00000000000E+00 0. -1.
<mgrwt>
<rscale>  0 0.56647659E+03</rscale>
<asrwt>0</asrwt>
<pdfrwt beam="1">0</pdfrwt>
<pdfrwt beam="2">  1        2 0.29172400E+00 0.56647659E+03</pdfrwt>
<totfact> 0.98838176E+00</totfact>
</mgrwt>
</event>
<event>
 5    1  0.2344661E-004  0.5865500E+03  0.7818608E-02  0.9933710E-01
         13   -1    0    0    0    0  0.00000000000E+00  0.00000000000E+00  0.10000000000E+04  0.10000000000E+04  0.00000000000E+00 0. -1.
          2   -1    0    0  501    0 -0.00000000000E+00 -0.00000000000E+00 -0.86010238342E+02  0.86010238342E+02  0.00000000000E+00 0. -1.
    9000006    2    1    2  501    0  0.00000000000E+00  0.00000000000E+00  0.91398976166E+03  0.10860102383E+04  0.58655004336E+03 0.  0.
         13    1    3    3    0    0  0.77680665112E+02 -0.23732864226E+03  0.74173864919E+03  0.78264640412E+03  0.00000000000E+00 0. -1.
          4    1    3    3  501    0 -0.77680665112E+02  0.23732864226E+03  0.17225111247E+03  0.30336383423E+03  0.00000000000E+00 0. -1.
<mgrwt>
<rscale>  0 0.58655004E+03</rscale>
<asrwt>0</asrwt>
<pdfrwt beam="1">0</pdfrwt>
<pdfrwt beam="2">  1        2 0.31276516E+00 0.58655004E+03</pdfrwt>
<totfact> 0.83099881E+00</totfact>
</mgrwt>
</event>
<event>
 5    1  0.2344661E-004  0.6065055E+03  0.7818608E-02  0.9892000E-01
         13   -1    0    0    0    0  0.00000000000E+00  0.00000000000E+00  0.10000000000E+04  0.10000000000E+04  0.00000000000E+00 0. -1.
          2   -1    0    0  501    0 -0.00000000000E+00 -0.00000000000E+00 -0.91962220863E+02  0.91962220863E+02  0.00000000000E+00 0. -1.
    9000006    2    1    2  501    0  0.00000000000E+00  0.00000000000E+00  0.90803777914E+03  0.10919622209E+04  0.60650546861E+03 0.  0.
         13    1    3    3    0    0  0.11329736496E+03  0.27174684175E+03  0.58483844228E+03  0.65476609753E+03  0.00000000000E+00 0. -1.
          4    1    3    3  501    0 -0.11329736496E+03 -0.27174684175E+03  0.32319933686E+03  0.43719612333E+03  0.00000000000E+00 0. -1.
<mgrwt>
<rscale>  0 0.60650547E+03</rscale>
<asrwt>0</asrwt>
<pdfrwt beam="1">0</pdfrwt>
<pdfrwt beam="2">  1        2 0.33440878E+00 0.60650547E+03</pdfrwt>
<totfact> 0.69449841E+00</totfact>
</mgrwt>
</event>
<event>
 5    1  0.2344661E-004  0.6523193E+03  0.7818608E-02  0.9802437E-01
         13   -1    0    0    0    0  0.00000000000E+00  0.00000000000E+00  0.10000000000E+04  0.10000000000E+04  0.00000000000E+00 0. -1.
          2   -1    0    0  501    0 -0.00000000000E+00 -0.00000000000E+00 -0.10638011946E+03  0.10638011946E+03  0.00000000000E+00 0. -1.
    9000006    2    1    2  501    0  0.00000000000E+00  0.00000000000E+00  0.89361988054E+03  0.11063801195E+04  0.65231930666E+03 0.  0.
         13    1    3    3    0    0  0.17342232623E+03 -0.25518735684E+03  0.62617884608E+03  0.69806578315E+03  0.00000000000E+00 0. -1.
          2    1    3    3  501    0 -0.17342232623E+03  0.25518735684E+03  0.26744103446E+03  0.40831433631E+03  0.00000000000E+00 0. -1.
<mgrwt>
<rscale>  0 0.65231931E+03</rscale>
<asrwt>0</asrwt>
<pdfrwt beam="1">0</pdfrwt>
<pdfrwt beam="2">  1        2 0.38683761E+00 0.65231931E+03</pdfrwt>
<totfact> 0.44587509E+00</totfact>
</mgrwt>
</event>
<event>
 5    1  0.2344661E-004  0.6632227E+03  0.7818608E-02  0.9782279E-01
         13   -1    0    0    0    0  0.00000000000E+00  0.00000000000E+00  0.10000000000E+04  0.10000000000E+04  0.00000000000E+00 0. -1.
          2   -1    0    0  501    0 -0.00000000000E+00 -0.00000000000E+00 -0.10996607681E+03  0.10996607681E+03  0.00000000000E+00 0. -1.
    9000006    2    1    2  501    0  0.00000000000E+00  0.00000000000E+00  0.89003392319E+03  0.11099660768E+04  0.66322266792E+03 0.  0.
         13    1    3    3    0    0 -0.12969000587E+03  0.27007521176E+03  0.20711935092E+03  0.36422320513E+03  0.00000000000E+00 0. -1.
          2    1    3    3  501    0  0.12969000587E+03 -0.27007521176E+03  0.68291457227E+03  0.74574287168E+03  0.00000000000E+00 0. -1.
<mgrwt>
<rscale>  0 0.66322267E+03</rscale>
<asrwt>0</asrwt>
<pdfrwt beam="1">0</pdfrwt>
<pdfrwt beam="2">  1        2 0.39987749E+00 0.66322267E+03</pdfrwt>
<totfact> 0.39829015E+00</totfact>
</mgrwt>
</event>
<event>
 5    1  0.2344661E-004  0.6460147E+03  0.7818608E-02  0.9814286E-01
         13   -1    0    0    0    0  0.00000000000E+00  0.00000000000E+00  0.10000000000E+04  0.10000000000E+04  0.00000000000E+00 0. -1.
          2   -1    0    0  501    0 -0.00000000000E+00 -0.00000000000E+00 -0.10433373478E+03  0.10433373478E+03  0.00000000000E+00 0. -1.
    9000006    2    1    2  501    0  0.00000000000E+00  0.00000000000E+00  0.89566626522E+03  0.11043337348E+04  0.64601465859E+03 0.  0.
         13    1    3    3    0    0 -0.95270569436E+02  0.29352651706E+03  0.28476645176E+03  0.41991216899E+03  0.00000000000E+00 0. -1.
          2    1    3    3  501    0  0.95270569436E+02 -0.29352651706E+03  0.61089981346E+03  0.68442156578E+03  0.00000000000E+00 0. -1.
<mgrwt>
<rscale>  0 0.64601466E+03</rscale>
<asrwt>0</asrwt>
<pdfrwt beam="1">0</pdfrwt>
<pdfrwt beam="2">  1        2 0.37939620E+00 0.64601466E+03</pdfrwt>
<totfact> 0.47528047E+00</totfact>
</mgrwt>
</event>
<event>
 5    1  0.2344661E-004  0.6496056E+03  0.7818608E-02  0.9807520E-01
         13   -1    0    0    0    0  0.00000000000E+00  0.00000000000E+00  0.10000000000E+04  0.10000000000E+04  0.00000000000E+00 0. -1.
          2   -1    0    0  501    0 -0.00000000000E+00 -0.00000000000E+00 -0.10549684408E+03  0.10549684408E+03  0.00000000000E+00 0. -1.
    9000006    2    1    2  501    0  0.00000000000E+00  0.00000000000E+00  0.89450315592E+03  0.11054968441E+04  0.64960555440E+03 0.  0.
         13    1    3    3    0    0  0.23791721859E+03 -0.13818106352E+02  0.82281047895E+03  0.85662864021E+03  0.00000000000E+00 0. -1.
          4    1    3    3  501    0 -0.23791721859E+03  0.13818106352E+02  0.71692676971E+02  0.24886820386E+03  0.00000000000E+00 0. -1.
<mgrwt>
<rscale>  0 0.64960555E+03</rscale>
<asrwt>0</asrwt>
<pdfrwt beam="1">0</pdfrwt>
<pdfrwt beam="2">  1        2 0.38362570E+00 0.64960555E+03</pdfrwt>
<totfact> 0.45835838E+00</totfact>
</mgrwt>
</event>
<event>
 5    1  0.2344661E-004  0.6549325E+03  0.7818608E-02  0.9797567E-01
         13   -1    0    0    0    0  0.00000000000E+00  0.00000000000E+00  0.10000000000E+04  0.10000000000E+04  0.00000000000E+00 0. -1.
          2   -1    0    0  501    0 -0.00000000000E+00 -0.00000000000E+00 -0.10723414627E+03  0.10723414627E+03  0.00000000000E+00 0. -1.
    9000006    2    1    2  501    0  0.00000000000E+00  0.00000000000E+00  0.89276585373E+03  0.11072341463E+04  0.65493250422E+03 0.  0.
         13    1    3    3    0    0 -0.26488286655E+03 -0.16698764114E+03  0.60841993163E+03  0.68426794349E+03  0.00000000000E+00 0. -1.
          4    1    3    3  501    0  0.26488286655E+03  0.16698764114E+03  0.28434592210E+03  0.42296620278E+03  0.00000000000E+00 0. -1.
<mgrwt>
<rscale>  0 0.65493250E+03</rscale>
<asrwt>0</asrwt>
<pdfrwt beam="1">0</pdfrwt>
<pdfrwt beam="2">  1        2 0.38994317E+00 0.65493250E+03</pdfrwt>
<totfact> 0.43409877E+00</totfact>
</mgrwt>
</event>
<event>
 5    1  0.2344661E-004  0.6131434E+03  0.7818608E-02  0.9878507E-01
         13   -1    0    0    0    0  0.00000000000E+00  0.00000000000E+00  0.10000000000E+04  0.10000000000E+04  0.00000000000E+00 0. -1.
          2   -1    0    0  501    0 -0.00000000000E+00 -0.00000000000E+00 -0.93986218189E+02  0.93986218189E+02  0.00000000000E+00 0. -1.
    9000006    2    1    2  501    0  0.00000000000E+00  0.00000000000E+00  0.90601378181E+03  0.10939862182E+04  0.61314343571E+03 0.  0.
         13    1    3    3    0    0 -0.12817273047E+03 -0.12504749705E+03  0.89699268453E+03  0.91469175215E+03  0.00000000000E+00 0. -1.
          4    1    3    3  501    0  0.12817273047E+03  0.12504749705E+03  0.90210972812E+01  0.17929446604E+03  0.00000000000E+00 0. -1.
<mgrwt>
<rscale>  0 0.61314344E+03</rscale>
<asrwt>0</asrwt>
<pdfrwt beam="1">0</pdfrwt>
<pdfrwt beam="2">  1        2 0.34176879E+00 0.61314344E+03</pdfrwt>
<totfact> 0.65315579E+00</totfact>
</mgrwt>
</event>
<event>
 5    1  0.2344661E-004  0.5919284E+03  0.7818608E-02  0.9922295E-01
         13   -1    0    0    0    0  0.00000000000E+00  0.00000000000E+00  0.10000000000E+04  0.10000000000E+04  0.00000000000E+00 0. -1.
          2   -1    0    0  501    0 -0.00000000000E+00 -0.00000000000E+00 -0.87594812308E+02  0.87594812308E+02  0.00000000000E+00 0. -1.
    9000006    2    1    2  501    0  0.00000000000E+00  0.00000000000E+00  0.91240518769E+03  0.10875948123E+04  0.59192841563E+03 0.  0.
         13    1    3    3    0    0  0.21803451810E+03  0.10489161580E+03  0.14302026908E+03  0.28106244772E+03  0.00000000000E+00 0. -1.
          4    1    3    3  501    0 -0.21803451810E+03 -0.10489161580E+03  0.76938491861E+03  0.80653236459E+03  0.00000000000E+00 0. -1.
<mgrwt>
<rscale>  0 0.59192842E+03</rscale>
<asrwt>0</asrwt>
<pdfrwt beam="1">0</pdfrwt>
<pdfrwt beam="2">  1        2 0.31852726E+00 0.59192842E+03</pdfrwt>
<totfact> 0.79233001E+00</totfact>
</mgrwt>
</event>
<event>
 5    1  0.2344661E-004  0.6465547E+03  0.7818608E-02  0.9813266E-01
         13   -1    0    0    0    0  0.00000000000E+00  0.00000000000E+00  0.10000000000E+04  0.10000000000E+04  0.00000000000E+00 0. -1.
          2   -1    0    0  501    0 -0.00000000000E+00 -0.00000000000E+00 -0.10450823535E+03  0.10450823535E+03  0.00000000000E+00 0. -1.
    9000006    2    1    2  501    0  0.00000000000E+00  0.00000000000E+00  0.89549176465E+03  0.11045082354E+04  0.64655467009E+03 0.  0.
         13    1    3    3    0    0 -0.24546515651E+03 -0.20582740610E+03  0.52201602794E+03  0.61246942584E+03  0.00000000000E+00 0. -1.
          4    1    3    3  501    0  0.24546515651E+03  0.20582740610E+03  0.37347573671E+03  0.49203880952E+03  0.00000000000E+00 0. -1.
<mgrwt>
<rscale>  0 0.64655467E+03</rscale>
<asrwt>0</asrwt>
<pdfrwt beam="1">0</pdfrwt>
<pdfrwt beam="2">  1        2 0.38003075E+00 0.64655467E+03</pdfrwt>
<totfact> 0.47270597E+00</totfact>
</mgrwt>
</event>
<event>
 5    1  0.2344661E-004  0.6470315E+03  0.7818608E-02  0.9812365E-01
         13   -1    0    0    0    0  0.00000000000E+00  0.00000000000E+00  0.10000000000E+04  0.10000000000E+04  0.00000000000E+00 0. -1.
          2   -1    0    0  501    0 -0.00000000000E+00 -0.00000000000E+00 -0.10466243805E+03  0.10466243805E+03  0.00000000000E+00 0. -1.
    9000006    2    1    2  501    0  0.00000000000E+00  0.00000000000E+00  0.89533756195E+03  0.11046624381E+04  0.64703149245E+03 0.  0.
         13    1    3    3    0    0  0.18245805756E+03 -0.17050362564E+03  0.96533557441E+02  0.26773336893E+03  0.00000000000E+00 0. -1.
          2    1    3    3  501    0 -0.18245805756E+03  0.17050362564E+03  0.79880400450E+03  0.83692906912E+03  0.00000000000E+00 0. -1.
<mgrwt>
<rscale>  0 0.64703149E+03</rscale>
<asrwt>0</asrwt>
<pdfrwt beam="1">0</pdfrwt>
<pdfrwt beam="2">  1        2 0.38059149E+00 0.64703149E+03</pdfrwt>
<totfact> 0.47044150E+00</totfact>
</mgrwt>
</event>
<event>
 5    1  0.2344661E-004  0.6495445E+03  0.7818608E-02  0.9807634E-01
         13   -1    0    0    0    0  0.00000000000E+00  0.00000000000E+00  0.10000000000E+04  0.10000000000E+04  0.00000000000E+00 0. -1.
          2   -1    0    0  501    0 -0.00000000000E+00 -0.00000000000E+00 -0.10547702646E+03  0.10547702646E+03  0.00000000000E+00 0. -1.
    9000006    2    1    2  501    0  0.00000000000E+00  0.00000000000E+00  0.89452297354E+03  0.11054770265E+04  0.64954453722E+03 0.  0.
         13    1    3    3    0    0 -0.16049793023E+03 -0.21860136167E+03  0.75138238775E+03  0.79882515831E+03  0.00000000000E+00 0. -1.
          2    1    3    3  501    0  0.16049793023E+03  0.21860136167E+03  0.14314058579E+03  0.30665186814E+03  0.00000000000E+00 0. -1.
<mgrwt>
<rscale>  0 0.64954454E+03</rscale>
<asrwt>0</asrwt>
<pdfrwt beam="1">0</pdfrwt>
<pdfrwt beam="2">  1        2 0.38355363E+00 0.64954454E+03</pdfrwt>
<totfact> 0.45864207E+00</totfact>
</mgrwt>
</event>
<event>
 5    1  0.2344661E-004  0.6466454E+03  0.7818608E-02  0.9813094E-01
         13   -1    0    0    0    0  0.00000000000E+00  0.00000000000E+00  0.10000000000E+04  0.10000000000E+04  0.00000000000E+00 0. -1.
          2   -1    0    0  501    0 -0.00000000000E+00 -0.00000000000E+00 -0.10453757592E+03  0.10453757592E+03  0.00000000000E+00 0. -1.
    9000006    2    1    2  501    0  0.00000000000E+00  0.00000000000E+00  0.89546242408E+03  0.11045375759E+04  0.64664542345E+03 0.  0.
         13    1    3    3    0    0  0.64237536941E+02  0.19356135694E+03  0.19187324140E+02  0.20484289947E+03  0.00000000000E+00 0. -1.
          2    1    3    3  501    0 -0.64237536941E+02 -0.19356135694E+03  0.87627509994E+03  0.89969467645E+03  0.00000000000E+00 0. -1.
<mgrwt>
<rscale>  0 0.64664542E+03</rscale>
<asrwt>0</asrwt>
<pdfrwt beam="1">0</pdfrwt>
<pdfrwt beam="2">  1        2 0.38013744E+00 0.64664542E+03</pdfrwt>
<totfact> 0.47227434E+00</totfact>
</mgrwt>
</event>
<event>
 5    1  0.2344661E-004  0.6573131E+03  0.7818608E-02  0.9793153E-01
         13   -1    0    0    0    0  0.00000000000E+00  0.00000000000E+00  0.10000000000E+04  0.10000000000E+04  0.00000000000E+00 0. -1.
          2   -1    0    0  501    0 -0.00000000000E+00 -0.00000000000E+00 -0.10801512387E+03  0.10801512387E+03  0.00000000000E+00 0. -1.
    9000006    2    1    2  501    0  0.00000000000E+00  0.00000000000E+00  0.89198487613E+03  0.11080151239E+04  0.65731308788E+03 0.  0.
         13    1    3    3    0    0 -0.22948012722E+03  0.26216974516E+02  0.51866788036E+02  0.23672478164E+03  0.00000000000E+00 0. -1.
          4    1    3    3  501    0  0.22948012722E+03 -0.26216974516E+02  0.84011808809E+03  0.87129034224E+03  0.00000000000E+00 0. -1.
<mgrwt>
<rscale>  0 0.65731309E+03</rscale>
<asrwt>0</asrwt>
<pdfrwt beam="1">0</pdfrwt>
<pdfrwt beam="2">  1        2 0.39278310E+00 0.65731309E+03</pdfrwt>
<totfact> 0.42357660E+00</totfact>
</mgrwt>
</event>
<event>
 5    1  0.2344661E-004  0.6478728E+03  0.7818608E-02  0.9810779E-01
         13   -1    0    0    0    0  0.00000000000E+00  0.00000000000E+00  0.10000000000E+04  0.10000000000E+04  0.00000000000E+00 0. -1.
          2   -1    0    0  501    0 -0.00000000000E+00 -0.00000000000E+00 -0.10493479730E+03  0.10493479730E+03  0.00000000000E+00 0. -1.
    9000006    2    1    2  501    0  0.00000000000E+00  0.00000000000E+00  0.89506520270E+03  0.11049347973E+04  0.64787281869E+03 0.  0.
         13    1    3    3    0    0  0.67348366054E+02  0.28918076507E+03  0.22665154083E+03  0.37354014277E+03  0.00000000000E+00 0. -1.
          4    1    3    3  501    0 -0.67348366054E+02 -0.28918076507E+03  0.66841366187E+03  0.73139465453E+03  0.00000000000E+00 0. -1.
<mgrwt>
<rscale>  0 0.64787282E+03</rscale>
<asrwt>0</asrwt>
<pdfrwt beam="1">0</pdfrwt>
<pdfrwt beam="2">  1        2 0.38158189E+00 0.64787282E+03</pdfrwt>
<totfact> 0.46646599E+00</totfact>
</mgrwt>
</event>
<event>
 5    1  0.2344661E-004  0.6717610E+03  0.7818608E-02  0.9766782E-01
         13   -1    0    0    0    0  0.00000000000E+00  0.00000000000E+00  0.10000000000E+04  0.10000000000E+04  0.00000000000E+00 0. -1.
          2   -1    0    0  501    0 -0.00000000000E+00 -0.00000000000E+00 -0.11281571438E+03  0.11281571438E+03  0.00000000000E+00 0. -1.
    9000006    2    1    2  501    0  0.00000000000E+00  0.00000000000E+00  0.88718428562E+03  0.11128157144E+04  0.67176101220E+03 0.  0.
         13    1    3    3    0    0 -0.16667290497E+02  0.73439923195E+02  0.98583442993E+03  0.98870660164E+03  0.00000000000E+00 0. -1.
          4    1    3    3  501    0  0.16667290497E+02 -0.73439923195E+02 -0.98650144311E+02  0.12410911274E+03  0.00000000000E+00 0. -1.
<mgrwt>
<rscale>  0 0.67176101E+03</rscale>
<asrwt>0</asrwt>
<pdfrwt beam="1">0</pdfrwt>
<pdfrwt beam="2">  1        2 0.41023983E+00 0.67176101E+03</pdfrwt>
<totfact> 0.36378746E+00</totfact>
</mgrwt>
</event>
<event>
 5    1  0.2344661E-004  0.6601979E+03  0.7818608E-02  0.9787829E-01
         13   -1    0    0    0    0  0.00000000000E+00  0.00000000000E+00  0.10000000000E+04  0.10000000000E+04  0.00000000000E+00 0. -1.
          2   -1    0    0  501    0 -0.00000000000E+00 -0.00000000000E+00 -0.10896532133E+03  0.10896532133E+03  0.00000000000E+00 0. -1.
    9000006    2    1    2  501    0  0.00000000000E+00  0.00000000000E+00  0.89103467867E+03  0.11089653213E+04  0.66019791376E+03 0.  0.
         13    1    3    3    0    0  0.27764066026E+03  0.17791498956E+03  0.42019593812E+03  0.53413734765E+03  0.00000000000E+00 0. -1.
          2    1    3    3  501    0 -0.27764066026E+03 -0.17791498956E+03  0.47083874055E+03  0.57482797369E+03  0.00000000000E+00 0. -1.
<mgrwt>
<rscale>  0 0.66019791E+03</rscale>
<asrwt>0</asrwt>
<pdfrwt beam="1">0</pdfrwt>
<pdfrwt beam="2">  1        2 0.39623837E+00 0.66019791E+03</pdfrwt>
<totfact> 0.41108580E+00</totfact>
</mgrwt>
</event>
<event>
 5    1  0.2344661E-004  0.6427969E+03  0.7818608E-02  0.9820390E-01
         13   -1    0    0    0    0  0.00000000000E+00  0.00000000000E+00  0.10000000000E+04  0.10000000000E+04  0.00000000000E+00 0. -1.
          2   -1    0    0  501    0 -0.00000000000E+00 -0.00000000000E+00 -0.10329695485E+03  0.10329695485E+03  0.00000000000E+00 0. -1.
    9000006    2    1    2  501    0  0.00000000000E+00  0.00000000000E+00  0.89670304515E+03  0.11032969548E+04  0.64279687257E+03 0.  0.
         13    1    3    3    0    0 -0.22506353700E+03 -0.59524182646E+02  0.82868138942E+03  0.86076104069E+03  0.00000000000E+00 0. -1.
          2    1    3    3  501    0  0.22506353700E+03  0.59524182646E+02  0.68021655736E+02  0.24253591416E+03  0.00000000000E+00 0. -1.
<mgrwt>
<rscale>  0 0.64279687E+03</rscale>
<asrwt>0</asrwt>
<pdfrwt beam="1">0</pdfrwt>
<pdfrwt beam="2">  1        2 0.37562608E+00 0.64279687E+03</pdfrwt>
<totfact> 0.49084194E+00</totfact>
</mgrwt>
</event>
<event>
 5    1  0.2344661E-004  0.6517273E+03  0.7818608E-02  0.9803543E-01
         13   -1    0    0    0    0  0.00000000000E+00  0.00000000000E+00  0.10000000000E+04  0.10000000000E+04  0.00000000000E+00 0. -1.
          2   -1    0    0  501    0 -0.00000000000E+00 -0.00000000000E+00 -0.10618712107E+03  0.10618712107E+03  0.00000000000E+00 0. -1.
    9000006    2    1    2  501    0  0.00000000000E+00  0.00000000000E+00  0.89381287893E+03  0.11061871211E+04  0.65172730821E+03 0.  0.
         13    1    3    3    0    0  0.84972911977E+02  0.12958601205E+03 -0.39646831964E+02  0.15995249786E+03  0.00000000000E+00 0. -1.
          4    1    3    3  501    0 -0.84972911977E+02 -0.12958601205E+03  0.93345971090E+03  0.94623462321E+03  0.00000000000E+00 0. -1.
<mgrwt>
<rscale>  0 0.65172731E+03</rscale>
<asrwt>0</asrwt>
<pdfrwt beam="1">0</pdfrwt>
<pdfrwt beam="2">  1        2 0.38613580E+00 0.65172731E+03</pdfrwt>
<totfact> 0.44857611E+00</totfact>
</mgrwt>
</event>
<event>
 5    1  0.2344661E-004  0.6471055E+03  0.7818608E-02  0.9812226E-01
         13   -1    0    0    0    0  0.00000000000E+00  0.00000000000E+00  0.10000000000E+04  0.10000000000E+04  0.00000000000E+00 0. -1.
          2   -1    0    0  501    0 -0.00000000000E+00 -0.00000000000E+00 -0.10468637976E+03  0.10468637976E+03  0.00000000000E+00 0. -1.
    9000006    2    1    2  501    0  0.00000000000E+00  0.00000000000E+00  0.89531362024E+03  0.11046863798E+04  0.64710549297E+03 0.  0.
         13    1    3    3    0    0 -0.83622195657E+02  0.27401033151E+03  0.70436152584E+03  0.76039430065E+03  0.00000000000E+00 0. -1.
          2    1    3    3  501    0  0.83622195657E+02 -0.27401033151E+03  0.19095209441E+03  0.34429207911E+03  0.00000000000E+00 0. -1.
<mgrwt>
<rscale>  0 0.64710549E+03</rscale>
<asrwt>0</asrwt>
<pdfrwt beam="1">0</pdfrwt>
<pdfrwt beam="2">  1        2 0.38067855E+00 0.64710549E+03</pdfrwt>
<totfact> 0.47009080E+00</totfact>
</mgrwt>
</event>
<event>
 5    1  0.2344661E-004  0.6472139E+03  0.7818608E-02  0.9812021E-01
         13   -1    0    0    0    0  0.00000000000E+00  0.00000000000E+00  0.10000000000E+04  0.10000000000E+04  0.00000000000E+00 0. -1.
          2   -1    0    0  501    0 -0.00000000000E+00 -0.00000000000E+00 -0.10472146784E+03  0.10472146784E+03  0.00000000000E+00 0. -1.
    9000006    2    1    2  501    0  0.00000000000E+00  0.00000000000E+00  0.89527853216E+03  0.11047214678E+04  0.64721393012E+03 0.  0.
         13    1    3    3    0    0  0.10604397407E+03 -0.26816084357E+03  0.19697710177E+03  0.34922133537E+03  0.00000000000E+00 0. -1.
          2    1    3    3  501    0 -0.10604397407E+03  0.26816084357E+03  0.69830143039E+03  0.75550013246E+03  0.00000000000E+00 0. -1.
<mgrwt>
<rscale>  0 0.64721393E+03</rscale>
<asrwt>0</asrwt>
<pdfrwt beam="1">0</pdfrwt>
<pdfrwt beam="2">  1        2 0.38080614E+00 0.64721393E+03</pdfrwt>
<totfact> 0.46957726E+00</totfact>
</mgrwt>
</event>
<event>
 5    1  0.2344661E-004  0.6462467E+03  0.7818608E-02  0.9813847E-01
         13   -1    0    0    0    0  0.00000000000E+00  0.00000000000E+00  0.10000000000E+04  0.10000000000E+04  0.00000000000E+00 0. -1.
          2   -1    0    0  501    0 -0.00000000000E+00 -0.00000000000E+00 -0.10440871399E+03  0.10440871399E+03  0.00000000000E+00 0. -1.
    9000006    2    1    2  501    0  0.00000000000E+00  0.00000000000E+00  0.89559128601E+03  0.11044087140E+04  0.64624674542E+03 0.  0.
         13    1    3    3    0    0  0.85662722136E+02 -0.14963333434E+02  0.97962694268E+03  0.98347900340E+03  0.00000000000E+00 0. -1.
          4    1    3    3  501    0 -0.85662722136E+02  0.14963333434E+02 -0.84035656671E+02  0.12092971059E+03  0.00000000000E+00 0. -1.
<mgrwt>
<rscale>  0 0.64624675E+03</rscale>
<asrwt>0</asrwt>
<pdfrwt beam="1">0</pdfrwt>
<pdfrwt beam="2">  1        2 0.37966885E+00 0.64624675E+03</pdfrwt>
<totfact> 0.47417270E+00</totfact>
</mgrwt>
</event>
<event>
 5    1  0.2344661E-004  0.6562241E+03  0.7818608E-02  0.9795170E-01
         13   -1    0    0    0    0  0.00000000000E+00  0.00000000000E+00  0.10000000000E+04  0.10000000000E+04  0.00000000000E+00 0. -1.
          2   -1    0    0  501    0 -0.00000000000E+00 -0.00000000000E+00 -0.10765752442E+03  0.10765752442E+03  0.00000000000E+00 0. -1.
    9000006    2    1    2  501    0  0.00000000000E+00  0.00000000000E+00  0.89234247558E+03  0.11076575244E+04  0.65622412153E+03 0.  0.
         13    1    3    3    0    0 -0.20289121575E+03  0.11156718494E+03  0.83857471695E+03  0.86995381377E+03  0.00000000000E+00 0. -1.
          4    1    3    3  501    0  0.20289121575E+03 -0.11156718494E+03  0.53767758628E+02  0.23770371065E+03  0.00000000000E+00 0. -1.
<mgrwt>
<rscale>  0 0.65622412E+03</rscale>
<asrwt>0</asrwt>
<pdfrwt beam="1">0</pdfrwt>
<pdfrwt beam="2">  1        2 0.39148273E+00 0.65622412E+03</pdfrwt>
<totfact> 0.42836564E+00</totfact>
</mgrwt>
</event>
<event>
 5    1  0.2344661E-004  0.6432456E+03  0.7818608E-02  0.9819537E-01
         13   -1    0    0    0    0  0.00000000000E+00  0.00000000000E+00  0.10000000000E+04  0.10000000000E+04  0.00000000000E+00 0. -1.
          2   -1    0    0  501    0 -0.00000000000E+00 -0.00000000000E+00 -0.10344122785E+03  0.10344122785E+03  0.00000000000E+00 0. -1.
    9000006    2    1    2  501    0  0.00000000000E+00  0.00000000000E+00  0.89655877215E+03  0.11034412278E+04  0.64324560735E+03 0.  0.
         13    1    3    3    0    0 -0.74937917703E+02 -0.39664233999E+02  0.98048310036E+03  0.98414229309E+03  0.00000000000E+00 0. -1.
          4    1    3    3  501    0  0.74937917703E+02  0.39664233999E+02 -0.83924328203E+02  0.11929893475E+03  0.00000000000E+00 0. -1.
<mgrwt>
<rscale>  0 0.64324561E+03</rscale>
<asrwt>0</asrwt>
<pdfrwt beam="1">0</pdfrwt>
<pdfrwt beam="2">  1        2 0.37615071E+00 0.64324561E+03</pdfrwt>
<totfact> 0.48864901E+00</totfact>
</mgrwt>
</event>
<event>
 5    1  0.2344661E-004  0.6504936E+03  0.7818608E-02  0.9805853E-01
         13   -1    0    0    0    0  0.00000000000E+00  0.00000000000E+00  0.10000000000E+04  0.10000000000E+04  0.00000000000E+00 0. -1.
          2   -1    0    0  501    0 -0.00000000000E+00 -0.00000000000E+00 -0.10578549073E+03  0.10578549073E+03  0.00000000000E+00 0. -1.
    9000006    2    1    2  501    0  0.00000000000E+00  0.00000000000E+00  0.89421450927E+03  0.11057854907E+04  0.65049363019E+03 0.  0.
         13    1    3    3    0    0  0.82960094273E+01  0.97013863536E+02 -0.80428870994E+02  0.12629060448E+03  0.00000000000E+00 0. -1.
          4    1    3    3  501    0 -0.82960094273E+01 -0.97013863536E+02  0.97464338027E+03  0.97949488625E+03  0.00000000000E+00 0. -1.
<mgrwt>
<rscale>  0 0.65049363E+03</rscale>
<asrwt>0</asrwt>
<pdfrwt beam="1">0</pdfrwt>
<pdfrwt beam="2">  1        2 0.38467532E+00 0.65049363E+03</pdfrwt>
<totfact> 0.45424453E+00</totfact>
</mgrwt>
</event>
<event>
 5    1  0.2344661E-004  0.6516464E+03  0.7818608E-02  0.9803695E-01
         13   -1    0    0    0    0  0.00000000000E+00  0.00000000000E+00  0.10000000000E+04  0.10000000000E+04  0.00000000000E+00 0. -1.
          2   -1    0    0  501    0 -0.00000000000E+00 -0.00000000000E+00 -0.10616074813E+03  0.10616074813E+03  0.00000000000E+00 0. -1.
    9000006    2    1    2  501    0  0.00000000000E+00  0.00000000000E+00  0.89383925187E+03  0.11061607481E+04  0.65164637076E+03 0.  0.
         13    1    3    3    0    0  0.74517709944E+02 -0.12873385492E+03  0.93900169158E+03  0.95070998275E+03  0.00000000000E+00 0. -1.
          2    1    3    3  501    0 -0.74517709944E+02  0.12873385492E+03 -0.45162439714E+02  0.15545076539E+03  0.00000000000E+00 0. -1.
<mgrwt>
<rscale>  0 0.65164637E+03</rscale>
<asrwt>0</asrwt>
<pdfrwt beam="1">0</pdfrwt>
<pdfrwt beam="2">  1        2 0.38603990E+00 0.65164637E+03</pdfrwt>
<totfact> 0.44894635E+00</totfact>
</mgrwt>
</event>
<event>
 5    1  0.2344661E-004  0.6679449E+03  0.7818608E-02  0.9773678E-01
         13   -1    0    0    0    0  0.00000000000E+00  0.00000000000E+00  0.10000000000E+04  0.10000000000E+04  0.00000000000E+00 0. -1.
          2   -1    0    0  501    0 -0.00000000000E+00 -0.00000000000E+00 -0.11153759707E+03  0.11153759707E+03  0.00000000000E+00 0. -1.
    9000006    2    1    2  501    0  0.00000000000E+00  0.00000000000E+00  0.88846240293E+03  0.11115375971E+04  0.66794489912E+03 0.  0.
         13    1    3    3    0    0 -0.79638748162E+02  0.13713966585E+02  0.98348479274E+03  0.98679924029E+03  0.00000000000E+00 0. -1.
          2    1    3    3  501    0  0.79638748162E+02 -0.13713966585E+02 -0.95022389802E+02  0.12473835678E+03  0.00000000000E+00 0. -1.
<mgrwt>
<rscale>  0 0.66794490E+03</rscale>
<asrwt>0</asrwt>
<pdfrwt beam="1">0</pdfrwt>
<pdfrwt beam="2">  1        2 0.40559212E+00 0.66794490E+03</pdfrwt>
<totfact> 0.37891704E+00</totfact>
</mgrwt>
</event>
<event>
 5    1  0.2344661E-004  0.6440879E+03  0.7818608E-02  0.9817937E-01
         13   -1    0    0    0    0  0.00000000000E+00  0.00000000000E+00  0.10000000000E+04  0.10000000000E+04  0.00000000000E+00 0. -1.
          2   -1    0    0  501    0 -0.00000000000E+00 -0.00000000000E+00 -0.10371229748E+03  0.10371229748E+03  0.00000000000E+00 0. -1.
    9000006    2    1    2  501    0  0.00000000000E+00  0.00000000000E+00  0.89628770252E+03  0.11037122975E+04  0.64408787438E+03 0.  0.
         13    1    3    3    0    0  0.52336309396E+02 -0.27903522512E+03  0.70866003206E+03  0.76341259301E+03  0.00000000000E+00 0. -1.
          2    1    3    3  501    0 -0.52336309396E+02  0.27903522512E+03  0.18762767046E+03  0.34029970447E+03  0.00000000000E+00 0. -1.
<mgrwt>
<rscale>  0 0.64408787E+03</rscale>
<asrwt>0</asrwt>
<pdfrwt beam="1">0</pdfrwt>
<pdfrwt beam="2">  1        2 0.37713642E+00 0.64408787E+03</pdfrwt>
<totfact> 0.48455295E+00</totfact>
</mgrwt>
</event>
<event>
 5    1  0.2344661E-004  0.6063863E+03  0.7818608E-02  0.9892244E-01
         13   -1    0    0    0    0  0.00000000000E+00  0.00000000000E+00  0.10000000000E+04  0.10000000000E+04  0.00000000000E+00 0. -1.
          2   -1    0    0  501    0 -0.00000000000E+00 -0.00000000000E+00 -0.91926099870E+02  0.91926099870E+02  0.00000000000E+00 0. -1.
    9000006    2    1    2  501    0  0.00000000000E+00  0.00000000000E+00  0.90807390013E+03  0.10919260999E+04  0.60638634506E+03 0.  0.
         13    1    3    3    0    0 -0.28392105987E+03  0.82509199309E+02  0.33314552479E+03  0.44542662347E+03  0.00000000000E+00 0. -1.
          4    1    3    3  501    0  0.28392105987E+03 -0.82509199309E+02  0.57492837534E+03  0.64649947640E+03  0.00000000000E+00 0. -1.
<mgrwt>
<rscale>  0 0.60638635E+03</rscale>
<asrwt>0</asrwt>
<pdfrwt beam="1">0</pdfrwt>
<pdfrwt beam="2">  1        2 0.33427743E+00 0.60638635E+03</pdfrwt>
<totfact> 0.69525818E+00</totfact>
</mgrwt>
</event>
<event>
 5    1  0.2344661E-004  0.6519974E+03  0.7818608E-02  0.9803038E-01
         13   -1    0    0    0    0  0.00000000000E+00  0.00000000000E+00  0.10000000000E+04  0.10000000000E+04  0.00000000000E+00 0. -1.
          2   -1    0    0  501    0 -0.00000000000E+00 -0.00000000000E+00 -0.10627515670E+03  0.10627515670E+03  0.00000000000E+00 0. -1.
    9000006    2    1    2  501    0  0.00000000000E+00  0.00000000000E+00  0.89372484330E+03  0.11062751567E+04  0.65199741317E+03 0.  0.
         13    1    3    3    0    0  0.15131297919E+03 -0.22886329224E+03  0.74561115087E+03  0.79448726391E+03  0.00000000000E+00 0. -1.
          2    1    3    3  501    0 -0.15131297919E+03  0.22886329224E+03  0.14811369243E+03  0.31178789279E+03  0.00000000000E+00 0. -1.
<mgrwt>
<rscale>  0 0.65199741E+03</rscale>
<asrwt>0</asrwt>
<pdfrwt beam="1">0</pdfrwt>
<pdfrwt beam="2">  1        2 0.38645593E+00 0.65199741E+03</pdfrwt>
<totfact> 0.44734222E+00</totfact>
</mgrwt>
</event>
<event>
 5    1  0.2344661E-004  0.6477713E+03  0.7818608E-02  0.9810970E-01
         13   -1    0    0    0    0  0.00000000000E+00  0.00000000000E+00  0.10000000000E+04  0.10000000000E+04  0.00000000000E+00 0. -1.
          2   -1    0    0  501    0 -0.00000000000E+00 -0.00000000000E+00 -0.10490190842E+03  0.10490190842E+03  0.00000000000E+00 0. -1.
    9000006    2    1    2  501    0  0.00000000000E+00  0.00000000000E+00  0.89509809158E+03  0.11049019084E+04  0.64777128192E+03 0.  0.
         13    1    3    3    0    0  0.32345472403E+03 -0.14064768847E+02  0.43218524550E+03  0.54000450244E+03  0.00000000000E+00 0. -1.
          4    1    3    3  501    0 -0.32345472403E+03  0.14064768847E+02  0.46291284608E+03  0.56489740598E+03  0.00000000000E+00 0. -1.
<mgrwt>
<rscale>  0 0.64777128E+03</rscale>
<asrwt>0</asrwt>
<pdfrwt beam="1">0</pdfrwt>
<pdfrwt beam="2">  1        2 0.38146229E+00 0.64777128E+03</pdfrwt>
<totfact> 0.46694443E+00</totfact>
</mgrwt>
</event>
<event>
 5    1  0.2344661E-004  0.5754622E+03  0.7818608E-02  0.9957664E-01
         13   -1    0    0    0    0  0.00000000000E+00  0.00000000000E+00  0.10000000000E+04  0.10000000000E+04  0.00000000000E+00 0. -1.
          2   -1    0    0  501    0 -0.00000000000E+00 -0.00000000000E+00 -0.82789183306E+02  0.82789183306E+02  0.00000000000E+00 0. -1.
    9000006    2    1    2  501    0  0.00000000000E+00  0.00000000000E+00  0.91721081669E+03  0.10827891833E+04  0.57546219096E+03 0.  0.
         13    1    3    3    0    0 -0.17296374817E+03 -0.15273829913E+03  0.13519065394E+03  0.26743589721E+03  0.00000000000E+00 0. -1.
          4    1    3    3  501    0  0.17296374817E+03  0.15273829913E+03  0.78202016275E+03  0.81535328610E+03  0.00000000000E+00 0. -1.
<mgrwt>
<rscale>  0 0.57546219E+03</rscale>
<asrwt>0</asrwt>
<pdfrwt beam="1">0</pdfrwt>
<pdfrwt beam="2">  1        2 0.30105221E+00 0.57546219E+03</pdfrwt>
<totfact> 0.91530709E+00</totfact>
</mgrwt>
</event>
<event>
 5    1  0.2344661E-004  0.6537760E+03  0.7818608E-02  0.9799720E-01
         13   -1    0    0    0    0  0.00000000000E+00  0.00000000000E+00  0.10000000000E+04  0.10000000000E+04  0.00000000000E+00 0. -1.
          2   -1    0    0  501    0 -0.00000000000E+00 -0.00000000000E+00 -0.10685575200E+03  0.10685575200E+03  0.00000000000E+00 0. -1.
    9000006    2    1    2  501    0  0.00000000000E+00  0.00000000000E+00  0.89314424800E+03  0.11068557520E+04  0.65377596164E+03 0.  0.
         13    1    3    3    0    0  0.83259652252E+02  0.28085031341E+03  0.69218657532E+03  0.75161913446E+03  0.00000000000E+00 0. -1.
          2    1    3    3  501    0 -0.83259652252E+02 -0.28085031341E+03  0.20095767268E+03  0.35523661754E+03  0.00000000000E+00 0. -1.
<mgrwt>
<rscale>  0 0.65377596E+03</rscale>
<asrwt>0</asrwt>
<pdfrwt beam="1">0</pdfrwt>
<pdfrwt beam="2">  1        2 0.38856719E+00 0.65377596E+03</pdfrwt>
<totfact> 0.43928134E+00</totfact>
</mgrwt>
</event>
<event>
 5    1  0.2344661E-004  0.6441263E+03  0.7818608E-02  0.9817864E-01
         13   -1    0    0    0    0  0.00000000000E+00  0.00000000000E+00  0.10000000000E+04  0.10000000000E+04  0.00000000000E+00 0. -1.
          2   -1    0    0  501    0 -0.00000000000E+00 -0.00000000000E+00 -0.10372466952E+03  0.10372466952E+03  0.00000000000E+00 0. -1.
    9000006    2    1    2  501    0  0.00000000000E+00  0.00000000000E+00  0.89627533048E+03  0.11037246695E+04  0.64412629049E+03 0.  0.
         13    1    3    3    0    0  0.14121345858E+03 -0.88821142219E+02 -0.23918977295E+02  0.16853057189E+03  0.00000000000E+00 0. -1.
          2    1    3    3  501    0 -0.14121345858E+03  0.88821142219E+02  0.92019430777E+03  0.93519409763E+03  0.00000000000E+00 0. -1.
<mgrwt>
<rscale>  0 0.64412629E+03</rscale>
<asrwt>0</asrwt>
<pdfrwt beam="1">0</pdfrwt>
<pdfrwt beam="2">  1        2 0.37718141E+00 0.64412629E+03</pdfrwt>
<totfact> 0.48436675E+00</totfact>
</mgrwt>
</event>
<event>
 5    1  0.2344661E-004  0.6664228E+03  0.7818608E-02  0.9776442E-01
         13   -1    0    0    0    0  0.00000000000E+00  0.00000000000E+00  0.10000000000E+04  0.10000000000E+04  0.00000000000E+00 0. -1.
          2   -1    0    0  501    0 -0.00000000000E+00 -0.00000000000E+00 -0.11102983850E+03  0.11102983850E+03  0.00000000000E+00 0. -1.
    9000006    2    1    2  501    0  0.00000000000E+00  0.00000000000E+00  0.88897016150E+03  0.11110298385E+04  0.66642280424E+03 0.  0.
         13    1    3    3    0    0  0.26448797779E+03  0.16241799036E+03  0.24237846257E+03  0.39380301307E+03  0.00000000000E+00 0. -1.
          2    1    3    3  501    0 -0.26448797779E+03 -0.16241799036E+03  0.64659169893E+03  0.71722682543E+03  0.00000000000E+00 0. -1.
<mgrwt>
<rscale>  0 0.66642280E+03</rscale>
<asrwt>0</asrwt>
<pdfrwt beam="1">0</pdfrwt>
<pdfrwt beam="2">  1        2 0.40374572E+00 0.66642280E+03</pdfrwt>
<totfact> 0.38508206E+00</totfact>
</mgrwt>
</event>
<event>
 5    1  0.2344661E-004  0.6534502E+03  0.7818608E-02  0.9800327E-01
         13   -1    0    0    0    0  0.00000000000E+00  0.00000000000E+00  0.10000000000E+04  0.10000000000E+04  0.00000000000E+00 0. -1.
          2   -1    0    0  501    0 -0.00000000000E+00 -0.00000000000E+00 -0.10674928221E+03  0.10674928221E+03  0.00000000000E+00 0. -1.
    9000006    2    1    2  501    0  0.00000000000E+00  0.00000000000E+00  0.89325071779E+03  0.11067492822E+04  0.65345017319E+03 0.  0.
         13    1    3    3    0    0 -0.17845168464E+03 -0.54518632292E+02  0.90087838685E+03  0.91999953963E+03  0.00000000000E+00 0. -1.
          4    1    3    3  501    0  0.17845168464E+03  0.54518632292E+02 -0.76276690631E+01  0.18674974258E+03  0.00000000000E+00 0. -1.
<mgrwt>
<rscale>  0 0.65345017E+03</rscale>
<asrwt>0</asrwt>
<pdfrwt beam="1">0</pdfrwt>
<pdfrwt beam="2">  1        2 0.38818003E+00 0.65345017E+03</pdfrwt>
<totfact> 0.44074963E+00</totfact>
</mgrwt>
</event>
<event>
 5    1  0.2344661E-004  0.6423709E+03  0.7818608E-02  0.9821201E-01
         13   -1    0    0    0    0  0.00000000000E+00  0.00000000000E+00  0.10000000000E+04  0.10000000000E+04  0.00000000000E+00 0. -1.
          2   -1    0    0  501    0 -0.00000000000E+00 -0.00000000000E+00 -0.10316008242E+03  0.10316008242E+03  0.00000000000E+00 0. -1.
    9000006    2    1    2  501    0  0.00000000000E+00  0.00000000000E+00  0.89683991758E+03  0.11031600824E+04  0.64237086616E+03 0.  0.
         13    1    3    3    0    0 -0.12366691762E+03 -0.29411255291E+03  0.38498616094E+03  0.50001004431E+03  0.00000000000E+00 0. -1.
          4    1    3    3  501    0  0.12366691762E+03  0.29411255291E+03  0.51185375664E+03  0.60315003812E+03  0.00000000000E+00 0. -1.
<mgrwt>
<rscale>  0 0.64237087E+03</rscale>
<asrwt>0</asrwt>
<pdfrwt beam="1">0</pdfrwt>
<pdfrwt beam="2">  1        2 0.37512836E+00 0.64237087E+03</pdfrwt>
<totfact> 0.49293083E+00</totfact>
</mgrwt>
</event>
<event>
 5    1  0.2344661E-004  0.6447585E+03  0.7818608E-02  0.9816665E-01
         13   -1    0    0    0    0  0.00000000000E+00  0.00000000000E+00  0.10000000000E+04  0.10000000000E+04  0.00000000000E+00 0. -1.
          2   -1    0    0  501    0 -0.00000000000E+00 -0.00000000000E+00 -0.10392836973E+03  0.10392836973E+03  0.00000000000E+00 0. -1.
    9000006    2    1    2  501    0  0.00000000000E+00  0.00000000000E+00  0.89607163027E+03  0.11039283697E+04  0.64475846556E+03 0.  0.
         13    1    3    3    0    0  0.88106312905E+02  0.77244778741E+01 -0.82749680415E+02  0.12111936072E+03  0.00000000000E+00 0. -1.
          2    1    3    3  501    0 -0.88106312905E+02 -0.77244778741E+01  0.97882131069E+03  0.98280900901E+03  0.00000000000E+00 0. -1.
<mgrwt>
<rscale>  0 0.64475847E+03</rscale>
<asrwt>0</asrwt>
<pdfrwt beam="1">0</pdfrwt>
<pdfrwt beam="2">  1        2 0.37792214E+00 0.64475847E+03</pdfrwt>
<totfact> 0.48131040E+00</totfact>
</mgrwt>
</event>
<event>
 5    1  0.2344661E-004  0.5286444E+03  0.7818608E-02  0.1006561E+00
         13   -1    0    0    0    0  0.00000000000E+00  0.00000000000E+00  0.10000000000E+04  0.10000000000E+04  0.00000000000E+00 0. -1.
          2   -1    0    0  501    0 -0.00000000000E+00 -0.00000000000E+00 -0.69866224069E+02  0.69866224069E+02  0.00000000000E+00 0. -1.
    9000006    2    1    2  501    0  0.00000000000E+00  0.00000000000E+00  0.93013377593E+03  0.10698662241E+04  0.52864439491E+03 0.  0.
         13    1    3    3    0    0 -0.25856369052E+03  0.52516556827E+02  0.49726065686E+03  0.56292213641E+03  0.00000000000E+00 0. -1.
          4    1    3    3  501    0  0.25856369052E+03 -0.52516556827E+02  0.43287311907E+03  0.50694408766E+03  0.00000000000E+00 0. -1.
<mgrwt>
<rscale>  0 0.52864439E+03</rscale>
<asrwt>0</asrwt>
<pdfrwt beam="1">0</pdfrwt>
<pdfrwt beam="2">  1        2 0.25405953E+00 0.52864439E+03</pdfrwt>
<totfact> 0.13479110E+01</totfact>
</mgrwt>
</event>
<event>
 5    1  0.2344661E-004  0.6847156E+03  0.7818608E-02  0.9743734E-01
         13   -1    0    0    0    0  0.00000000000E+00  0.00000000000E+00  0.10000000000E+04  0.10000000000E+04  0.00000000000E+00 0. -1.
          2   -1    0    0  501    0 -0.00000000000E+00 -0.00000000000E+00 -0.11720886254E+03  0.11720886254E+03  0.00000000000E+00 0. -1.
    9000006    2    1    2  501    0  0.00000000000E+00  0.00000000000E+00  0.88279113746E+03  0.11172088625E+04  0.68471559802E+03 0.  0.
         13    1    3    3    0    0  0.25151312400E+03  0.71256116225E+02  0.80210439571E+03  0.84362773026E+03  0.00000000000E+00 0. -1.
          2    1    3    3  501    0 -0.25151312400E+03 -0.71256116225E+02  0.80686741744E+02  0.27358113228E+03  0.00000000000E+00 0. -1.
<mgrwt>
<rscale>  0 0.68471560E+03</rscale>
<asrwt>0</asrwt>
<pdfrwt beam="1">0</pdfrwt>
<pdfrwt beam="2">  1        2 0.42621494E+00 0.68471560E+03</pdfrwt>
<totfact> 0.31580273E+00</totfact>
</mgrwt>
</event>
<event>
 5    1  0.2344661E-004  0.6722350E+03  0.7818608E-02  0.9765929E-01
         13   -1    0    0    0    0  0.00000000000E+00  0.00000000000E+00  0.10000000000E+04  0.10000000000E+04  0.00000000000E+00 0. -1.
          2   -1    0    0  501    0 -0.00000000000E+00 -0.00000000000E+00 -0.11297497134E+03  0.11297497134E+03  0.00000000000E+00 0. -1.
    9000006    2    1    2  501    0  0.00000000000E+00  0.00000000000E+00  0.88702502866E+03  0.11129749713E+04  0.67223499265E+03 0.  0.
         13    1    3    3    0    0 -0.14579621942E+03  0.29922293793E+03  0.36613811751E+03  0.49482120536E+03  0.00000000000E+00 0. -1.
          2    1    3    3  501    0  0.14579621942E+03 -0.29922293793E+03  0.52088691116E+03  0.61815376598E+03  0.00000000000E+00 0. -1.
<mgrwt>
<rscale>  0 0.67223499E+03</rscale>
<asrwt>0</asrwt>
<pdfrwt beam="1">0</pdfrwt>
<pdfrwt beam="2">  1        2 0.41081894E+00 0.67223499E+03</pdfrwt>
<totfact> 0.36194059E+00</totfact>
</mgrwt>
</event>
<event>
 5    1  0.2344661E-004  0.6435924E+03  0.7818608E-02  0.9818877E-01
         13   -1    0    0    0    0  0.00000000000E+00  0.00000000000E+00  0.10000000000E+04  0.10000000000E+04  0.00000000000E+00 0. -1.
          2   -1    0    0  501    0 -0.00000000000E+00 -0.00000000000E+00 -0.10355279347E+03  0.10355279347E+03  0.00000000000E+00 0. -1.
    9000006    2    1    2  501    0  0.00000000000E+00  0.00000000000E+00  0.89644720653E+03  0.11035527935E+04  0.64359239732E+03 0.  0.
         13    1    3    3    0    0 -0.16761627364E+03  0.23626927936E+03  0.68848892478E+03  0.74695072603E+03  0.00000000000E+00 0. -1.
          4    1    3    3  501    0  0.16761627364E+03 -0.23626927936E+03  0.20795828174E+03  0.35660206744E+03  0.00000000000E+00 0. -1.
<mgrwt>
<rscale>  0 0.64359240E+03</rscale>
<asrwt>0</asrwt>
<pdfrwt beam="1">0</pdfrwt>
<pdfrwt beam="2">  1        2 0.37655641E+00 0.64359240E+03</pdfrwt>
<totfact> 0.48695936E+00</totfact>
</mgrwt>
</event>
<event>
 5    1  0.2344661E-004  0.6612761E+03  0.7818608E-02  0.9785847E-01
         13   -1    0    0    0    0  0.00000000000E+00  0.00000000000E+00  0.10000000000E+04  0.10000000000E+04  0.00000000000E+00 0. -1.
          2   -1    0    0  501    0 -0.00000000000E+00 -0.00000000000E+00 -0.10932153510E+03  0.10932153510E+03  0.00000000000E+00 0. -1.
    9000006    2    1    2  501    0  0.00000000000E+00  0.00000000000E+00  0.89067846490E+03  0.11093215351E+04  0.66127614533E+03 0.  0.
         13    1    3    3    0    0  0.20921267260E+03  0.11390203347E+03  0.82999857601E+03  0.86350521237E+03  0.00000000000E+00 0. -1.
          4    1    3    3  501    0 -0.20921267260E+03 -0.11390203347E+03  0.60679888892E+02  0.24581632273E+03  0.00000000000E+00 0. -1.
<mgrwt>
<rscale>  0 0.66127615E+03</rscale>
<asrwt>0</asrwt>
<pdfrwt beam="1">0</pdfrwt>
<pdfrwt beam="2">  1        2 0.39753369E+00 0.66127615E+03</pdfrwt>
<totfact> 0.40648950E+00</totfact>
</mgrwt>
</event>
<event>
 5    1  0.2344661E-004  0.6633542E+03  0.7818608E-02  0.9782039E-01
         13   -1    0    0    0    0  0.00000000000E+00  0.00000000000E+00  0.10000000000E+04  0.10000000000E+04  0.00000000000E+00 0. -1.
          2   -1    0    0  501    0 -0.00000000000E+00 -0.00000000000E+00 -0.11000968662E+03  0.11000968662E+03  0.00000000000E+00 0. -1.
    9000006    2    1    2  501    0  0.00000000000E+00  0.00000000000E+00  0.88999031338E+03  0.11100096866E+04  0.66335416368E+03 0.  0.
         13    1    3    3    0    0 -0.15024752255E+03  0.24746228291E+03  0.71583566094E+03  0.77216098902E+03  0.00000000000E+00 0. -1.
          2    1    3    3  501    0  0.15024752255E+03 -0.24746228291E+03  0.17415465245E+03  0.33784869760E+03  0.00000000000E+00 0. -1.
<mgrwt>
<rscale>  0 0.66335416E+03</rscale>
<asrwt>0</asrwt>
<pdfrwt beam="1">0</pdfrwt>
<pdfrwt beam="2">  1        2 0.40003607E+00 0.66335416E+03</pdfrwt>
<totfact> 0.39774079E+00</totfact>
</mgrwt>
</event>
<event>
 5    1  0.2344661E-004  0.6466599E+03  0.7818608E-02  0.9813067E-01
         13   -1    0    0    0    0  0.00000000000E+00  0.00000000000E+00  0.10000000000E+04  0.10000000000E+04  0.00000000000E+00 0. -1.
          2   -1    0    0  501    0 -0.00000000000E+00 -0.00000000000E+00 -0.10454225417E+03  0.10454225417E+03  0.00000000000E+00 0. -1.
    9000006    2    1    2  501    0  0.00000000000E+00  0.00000000000E+00  0.89545774583E+03  0.11045422542E+04  0.64665989257E+03 0.  0.
         13    1    3    3    0    0 -0.31338043445E+03  0.38119650291E+02  0.56707232948E+03  0.64902344434E+03  0.00000000000E+00 0. -1.
          2    1    3    3  501    0  0.31338043445E+03 -0.38119650291E+02  0.32838541635E+03  0.45551880983E+03  0.00000000000E+00 0. -1.
<mgrwt>
<rscale>  0 0.64665989E+03</rscale>
<asrwt>0</asrwt>
<pdfrwt beam="1">0</pdfrwt>
<pdfrwt beam="2">  1        2 0.38015445E+00 0.64665989E+03</pdfrwt>
<totfact> 0.47220555E+00</totfact>
</mgrwt>
</event>
<event>
 5    1  0.2344661E-004  0.6537461E+03  0.7818608E-02  0.9799775E-01
         13   -1    0    0    0    0  0.00000000000E+00  0.00000000000E+00  0.10000000000E+04  0.10000000000E+04  0.00000000000E+00 0. -1.
          2   -1    0    0  501    0 -0.00000000000E+00 -0.00000000000E+00 -0.10684600169E+03  0.10684600169E+03  0.00000000000E+00 0. -1.
    9000006    2    1    2  501    0  0.00000000000E+00  0.00000000000E+00  0.89315399831E+03  0.11068460017E+04  0.65374613327E+03 0.  0.
         13    1    3    3    0    0 -0.10051043867E+02  0.32474576434E+03  0.38588131532E+03  0.50444546232E+03  0.00000000000E+00 0. -1.
          4    1    3    3  501    0  0.10051043867E+02 -0.32474576434E+03  0.50727268298E+03  0.60240053937E+03  0.00000000000E+00 0. -1.
<mgrwt>
<rscale>  0 0.65374613E+03</rscale>
<asrwt>0</asrwt>
<pdfrwt beam="1">0</pdfrwt>
<pdfrwt beam="2">  1        2 0.38853173E+00 0.65374613E+03</pdfrwt>
<totfact> 0.43941562E+00</totfact>
</mgrwt>
</event>
<event>
 5    1  0.2344661E-004  0.6507401E+03  0.7818608E-02  0.9805391E-01
         13   -1    0    0    0    0  0.00000000000E+00  0.00000000000E+00  0.10000000000E+04  0.10000000000E+04  0.00000000000E+00 0. -1.
          2   -1    0    0  501    0 -0.00000000000E+00 -0.00000000000E+00 -0.10586566623E+03  0.10586566623E+03  0.00000000000E+00 0. -1.
    9000006    2    1    2  501    0  0.00000000000E+00  0.00000000000E+00  0.89413433377E+03  0.11058656662E+04  0.65074009013E+03 0.  0.
         13    1    3    3    0    0  0.14718803814E+03  0.15369102669E+03  0.86534123195E+03  0.89112327877E+03  0.00000000000E+00 0. -1.
          4    1    3    3  501    0 -0.14718803814E+03 -0.15369102669E+03  0.28793101827E+02  0.21474238746E+03  0.00000000000E+00 0. -1.
<mgrwt>
<rscale>  0 0.65074009E+03</rscale>
<asrwt>0</asrwt>
<pdfrwt beam="1">0</pdfrwt>
<pdfrwt beam="2">  1        2 0.38496687E+00 0.65074009E+03</pdfrwt>
<totfact> 0.45310781E+00</totfact>
</mgrwt>
</event>
<event>
 5    1  0.2344661E-004  0.6437818E+03  0.7818608E-02  0.9818518E-01
         13   -1    0    0    0    0  0.00000000000E+00  0.00000000000E+00  0.10000000000E+04  0.10000000000E+04  0.00000000000E+00 0. -1.
          2   -1    0    0  501    0 -0.00000000000E+00 -0.00000000000E+00 -0.10361375690E+03  0.10361375690E+03  0.00000000000E+00 0. -1.
    9000006    2    1    2  501    0  0.00000000000E+00  0.00000000000E+00  0.89638624310E+03  0.11036137569E+04  0.64378181678E+03 0.  0.
         13    1    3    3    0    0 -0.13257782560E+03  0.23404084137E+03  0.14509368922E+03  0.30562096447E+03  0.00000000000E+00 0. -1.
          4    1    3    3  501    0  0.13257782560E+03 -0.23404084137E+03  0.75129255387E+03  0.79799279243E+03  0.00000000000E+00 0. -1.
<mgrwt>
<rscale>  0 0.64378182E+03</rscale>
<asrwt>0</asrwt>
<pdfrwt beam="1">0</pdfrwt>
<pdfrwt beam="2">  1        2 0.37677809E+00 0.64378182E+03</pdfrwt>
<totfact> 0.48603833E+00</totfact>
</mgrwt>
</event>
<event>
 5    1  0.2344661E-004  0.5045694E+03  0.7818608E-02  0.1012593E+00
         13   -1    0    0    0    0  0.00000000000E+00  0.00000000000E+00  0.10000000000E+04  0.10000000000E+04  0.00000000000E+00 0. -1.
          2   -1    0    0  501    0 -0.00000000000E+00 -0.00000000000E+00 -0.63647578309E+02  0.63647578309E+02  0.00000000000E+00 0. -1.
    9000006    2    1    2  501    0  0.00000000000E+00  0.00000000000E+00  0.93635242169E+03  0.10636475783E+04  0.50456943351E+03 0.  0.
         13    1    3    3    0    0 -0.58367799691E+02  0.17449767747E+03  0.83202574932E+03  0.85212856249E+03  0.00000000000E+00 0. -1.
          2    1    3    3  501    0  0.58367799691E+02 -0.17449767747E+03  0.10432667237E+03  0.21151901581E+03  0.00000000000E+00 0. -1.
<mgrwt>
<rscale>  0 0.50456943E+03</rscale>
<asrwt>0</asrwt>
<pdfrwt beam="1">0</pdfrwt>
<pdfrwt beam="2">  1        2 0.23144623E+00 0.50456943E+03</pdfrwt>
<totfact> 0.16266356E+01</totfact>
</mgrwt>
</event>
<event>
 5    1  0.2344661E-004  0.6458139E+03  0.7818608E-02  0.9814666E-01
         13   -1    0    0    0    0  0.00000000000E+00  0.00000000000E+00  0.10000000000E+04  0.10000000000E+04  0.00000000000E+00 0. -1.
          2   -1    0    0  501    0 -0.00000000000E+00 -0.00000000000E+00 -0.10426889728E+03  0.10426889728E+03  0.00000000000E+00 0. -1.
    9000006    2    1    2  501    0  0.00000000000E+00  0.00000000000E+00  0.89573110272E+03  0.11042688973E+04  0.64581389666E+03 0.  0.
         13    1    3    3    0    0 -0.14037836999E+03  0.80343208523E+02 -0.30009766053E+02  0.16450441932E+03  0.00000000000E+00 0. -1.
          4    1    3    3  501    0  0.14037836999E+03 -0.80343208523E+02  0.92574086877E+03  0.93976447796E+03  0.00000000000E+00 0. -1.
<mgrwt>
<rscale>  0 0.64581390E+03</rscale>
<asrwt>0</asrwt>
<pdfrwt beam="1">0</pdfrwt>
<pdfrwt beam="2">  1        2 0.37916043E+00 0.64581390E+03</pdfrwt>
<totfact> 0.47624030E+00</totfact>
</mgrwt>
</event>
<event>
 5    1  0.2344661E-004  0.6560366E+03  0.7818608E-02  0.9795517E-01
         13   -1    0    0    0    0  0.00000000000E+00  0.00000000000E+00  0.10000000000E+04  0.10000000000E+04  0.00000000000E+00 0. -1.
          2   -1    0    0  501    0 -0.00000000000E+00 -0.00000000000E+00 -0.10759599104E+03  0.10759599104E+03  0.00000000000E+00 0. -1.
    9000006    2    1    2  501    0  0.00000000000E+00  0.00000000000E+00  0.89240400896E+03  0.11075959910E+04  0.65603655703E+03 0.  0.
         13    1    3    3    0    0 -0.32042920861E+03 -0.57840324642E+02  0.37918612522E+03  0.49980245942E+03  0.00000000000E+00 0. -1.
          2    1    3    3  501    0  0.32042920861E+03  0.57840324642E+02  0.51321788374E+03  0.60779353162E+03  0.00000000000E+00 0. -1.
<mgrwt>
<rscale>  0 0.65603656E+03</rscale>
<asrwt>0</asrwt>
<pdfrwt beam="1">0</pdfrwt>
<pdfrwt beam="2">  1        2 0.39125897E+00 0.65603656E+03</pdfrwt>
<totfact> 0.42919461E+00</totfact>
</mgrwt>
</event>
<event>
 5    1  0.2344661E-004  0.6462428E+03  0.7818608E-02  0.9813855E-01
         13   -1    0    0    0    0  0.00000000000E+00  0.00000000000E+00  0.10000000000E+04  0.10000000000E+04  0.00000000000E+00 0. -1.
          2   -1    0    0  501    0 -0.00000000000E+00 -0.00000000000E+00 -0.10440743955E+03  0.10440743955E+03  0.00000000000E+00 0. -1.
    9000006    2    1    2  501    0  0.00000000000E+00  0.00000000000E+00  0.89559256045E+03  0.11044074395E+04  0.64624280127E+03 0.  0.
         13    1    3    3    0    0  0.26101200590E+03 -0.17610073922E+03  0.32374952129E+03  0.45161099423E+03  0.00000000000E+00 0. -1.
          4    1    3    3  501    0 -0.26101200590E+03  0.17610073922E+03  0.57184303916E+03  0.65279644531E+03  0.00000000000E+00 0. -1.
<mgrwt>
<rscale>  0 0.64624280E+03</rscale>
<asrwt>0</asrwt>
<pdfrwt beam="1">0</pdfrwt>
<pdfrwt beam="2">  1        2 0.37966422E+00 0.64624280E+03</pdfrwt>
<totfact> 0.47419151E+00</totfact>
</mgrwt>
</event>
<event>
 5    1  0.2344661E-004  0.6358887E+03  0.7818608E-02  0.9833624E-01
         13   -1    0    0    0    0  0.00000000000E+00  0.00000000000E+00  0.10000000000E+04  0.10000000000E+04  0.00000000000E+00 0. -1.
          2   -1    0    0  501    0 -0.00000000000E+00 -0.00000000000E+00 -0.10108861014E+03  0.10108861014E+03  0.00000000000E+00 0. -1.
    9000006    2    1    2  501    0  0.00000000000E+00  0.00000000000E+00  0.89891138986E+03  0.11010886101E+04  0.63588870138E+03 0.  0.
         13    1    3    3    0    0  0.28391498383E+03 -0.13028371748E+03  0.34691132180E+03  0.46682869479E+03  0.00000000000E+00 0. -1.
          4    1    3    3  501    0 -0.28391498383E+03  0.13028371748E+03  0.55200006806E+03  0.63425991535E+03  0.00000000000E+00 0. -1.
<mgrwt>
<rscale>  0 0.63588870E+03</rscale>
<asrwt>0</asrwt>
<pdfrwt beam="1">0</pdfrwt>
<pdfrwt beam="2">  1        2 0.36759572E+00 0.63588870E+03</pdfrwt>
<totfact> 0.52555467E+00</totfact>
</mgrwt>
</event>
<event>
 5    1  0.2344661E-004  0.6639681E+03  0.7818608E-02  0.9780916E-01
         13   -1    0    0    0    0  0.00000000000E+00  0.00000000000E+00  0.10000000000E+04  0.10000000000E+04  0.00000000000E+00 0. -1.
          2   -1    0    0  501    0 -0.00000000000E+00 -0.00000000000E+00 -0.11021342439E+03  0.11021342439E+03  0.00000000000E+00 0. -1.
    9000006    2    1    2  501    0  0.00000000000E+00  0.00000000000E+00  0.88978657561E+03  0.11102134244E+04  0.66396814499E+03 0.  0.
         13    1    3    3    0    0 -0.30293796360E+03  0.12284819664E+03  0.54167724153E+03  0.63267473729E+03  0.00000000000E+00 0. -1.
          2    1    3    3  501    0  0.30293796360E+03 -0.12284819664E+03  0.34810933408E+03  0.47753868710E+03  0.00000000000E+00 0. -1.
<mgrwt>
<rscale>  0 0.66396814E+03</rscale>
<asrwt>0</asrwt>
<pdfrwt beam="1">0</pdfrwt>
<pdfrwt beam="2">  1        2 0.40077693E+00 0.66396814E+03</pdfrwt>
<totfact> 0.39518325E+00</totfact>
</mgrwt>
</event>
<event>
 5    1  0.2344661E-004  0.6578655E+03  0.7818608E-02  0.9792131E-01
         13   -1    0    0    0    0  0.00000000000E+00  0.00000000000E+00  0.10000000000E+04  0.10000000000E+04  0.00000000000E+00 0. -1.
          2   -1    0    0  501    0 -0.00000000000E+00 -0.00000000000E+00 -0.10819675359E+03  0.10819675359E+03  0.00000000000E+00 0. -1.
    9000006    2    1    2  501    0  0.00000000000E+00  0.00000000000E+00  0.89180324641E+03  0.11081967536E+04  0.65786549870E+03 0.  0.
         13    1    3    3    0    0 -0.13925262099E+03  0.26448893977E+03  0.21461651408E+03  0.36797546091E+03  0.00000000000E+00 0. -1.
          2    1    3    3  501    0  0.13925262099E+03 -0.26448893977E+03  0.67718673232E+03  0.74022129269E+03  0.00000000000E+00 0. -1.
<mgrwt>
<rscale>  0 0.65786550E+03</rscale>
<asrwt>0</asrwt>
<pdfrwt beam="1">0</pdfrwt>
<pdfrwt beam="2">  1        2 0.39344357E+00 0.65786550E+03</pdfrwt>
<totfact> 0.42116273E+00</totfact>
</mgrwt>
</event>
<event>
 5    1  0.2344661E-004  0.6499581E+03  0.7818608E-02  0.9806858E-01
         13   -1    0    0    0    0  0.00000000000E+00  0.00000000000E+00  0.10000000000E+04  0.10000000000E+04  0.00000000000E+00 0. -1.
          2   -1    0    0  501    0 -0.00000000000E+00 -0.00000000000E+00 -0.10561136893E+03  0.10561136893E+03  0.00000000000E+00 0. -1.
    9000006    2    1    2  501    0  0.00000000000E+00  0.00000000000E+00  0.89438863107E+03  0.11056113689E+04  0.64995805691E+03 0.  0.
         13    1    3    3    0    0 -0.14308394269E+03  0.24603340228E+03  0.18036289925E+03  0.33695136907E+03  0.00000000000E+00 0. -1.
          2    1    3    3  501    0  0.14308394269E+03 -0.24603340228E+03  0.71402573182E+03  0.76865999986E+03  0.00000000000E+00 0. -1.
<mgrwt>
<rscale>  0 0.64995806E+03</rscale>
<asrwt>0</asrwt>
<pdfrwt beam="1">0</pdfrwt>
<pdfrwt beam="2">  1        2 0.38404215E+00 0.64995806E+03</pdfrwt>
<totfact> 0.45672212E+00</totfact>
</mgrwt>
</event>
<event>
 5    1  0.2344661E-004  0.7034930E+03  0.7818608E-02  0.9711277E-01
         13   -1    0    0    0    0  0.00000000000E+00  0.00000000000E+00  0.10000000000E+04  0.10000000000E+04  0.00000000000E+00 0. -1.
          2   -1    0    0  501    0 -0.00000000000E+00 -0.00000000000E+00 -0.12372558540E+03  0.12372558540E+03  0.00000000000E+00 0. -1.
    9000006    2    1    2  501    0  0.00000000000E+00  0.00000000000E+00  0.87627441460E+03  0.11237255854E+04  0.70349295775E+03 0.  0.
         13    1    3    3    0    0 -0.30223045932E+03  0.17862215200E+03  0.47300420098E+03  0.58905186348E+03  0.00000000000E+00 0. -1.
          2    1    3    3  501    0  0.30223045932E+03 -0.17862215200E+03  0.40327021362E+03  0.53467372192E+03  0.00000000000E+00 0. -1.
<mgrwt>
<rscale>  0 0.70349296E+03</rscale>
<asrwt>0</asrwt>
<pdfrwt beam="1">0</pdfrwt>
<pdfrwt beam="2">  1        2 0.44991217E+00 0.70349296E+03</pdfrwt>
<totfact> 0.25490586E+00</totfact>
</mgrwt>
</event>
<event>
 5    1  0.2344661E-004  0.6499205E+03  0.7818608E-02  0.9806928E-01
         13   -1    0    0    0    0  0.00000000000E+00  0.00000000000E+00  0.10000000000E+04  0.10000000000E+04  0.00000000000E+00 0. -1.
          2   -1    0    0  501    0 -0.00000000000E+00 -0.00000000000E+00 -0.10559917936E+03  0.10559917936E+03  0.00000000000E+00 0. -1.
    9000006    2    1    2  501    0  0.00000000000E+00  0.00000000000E+00  0.89440082064E+03  0.11055991794E+04  0.64992054702E+03 0.  0.
         13    1    3    3    0    0 -0.13146424993E+03 -0.28411558141E+03  0.29895140044E+03  0.43287001794E+03  0.00000000000E+00 0. -1.
          2    1    3    3  501    0  0.13146424993E+03  0.28411558141E+03  0.59544942020E+03  0.67272916142E+03  0.00000000000E+00 0. -1.
<mgrwt>
<rscale>  0 0.64992055E+03</rscale>
<asrwt>0</asrwt>
<pdfrwt beam="1">0</pdfrwt>
<pdfrwt beam="2">  1        2 0.38399783E+00 0.64992055E+03</pdfrwt>
<totfact> 0.45689603E+00</totfact>
</mgrwt>
</event>
<event>
 5    1  0.2344661E-004  0.6523437E+03  0.7818608E-02  0.9802391E-01
         13   -1    0    0    0    0  0.00000000000E+00  0.00000000000E+00  0.10000000000E+04  0.10000000000E+04  0.00000000000E+00 0. -1.
          2   -1    0    0  501    0 -0.00000000000E+00 -0.00000000000E+00 -0.10638807944E+03  0.10638807944E+03  0.00000000000E+00 0. -1.
    9000006    2    1    2  501    0  0.00000000000E+00  0.00000000000E+00  0.89361192056E+03  0.11063880794E+04  0.65234371136E+03 0.  0.
         13    1    3    3    0    0 -0.31134654636E+03 -0.55412942935E+02  0.31132788279E+03  0.44377056773E+03  0.00000000000E+00 0. -1.
          2    1    3    3  501    0  0.31134654636E+03  0.55412942935E+02  0.58228403778E+03  0.66261751171E+03  0.00000000000E+00 0. -1.
<mgrwt>
<rscale>  0 0.65234371E+03</rscale>
<asrwt>0</asrwt>
<pdfrwt beam="1">0</pdfrwt>
<pdfrwt beam="2">  1        2 0.38686656E+00 0.65234371E+03</pdfrwt>
<totfact> 0.44576401E+00</totfact>
</mgrwt>
</event>
<event>
 5    1  0.2344661E-004  0.6595157E+03  0.7818608E-02  0.9789086E-01
         13   -1    0    0    0    0  0.00000000000E+00  0.00000000000E+00  0.10000000000E+04  0.10000000000E+04  0.00000000000E+00 0. -1.
          2   -1    0    0  501    0 -0.00000000000E+00 -0.00000000000E+00 -0.10874023305E+03  0.10874023305E+03  0.00000000000E+00 0. -1.
    9000006    2    1    2  501    0  0.00000000000E+00  0.00000000000E+00  0.89125976695E+03  0.11087402331E+04  0.65951568004E+03 0.  0.
         13    1    3    3    0    0 -0.20316447876E+03 -0.13478060619E+03  0.81889898770E+03  0.85442212594E+03  0.00000000000E+00 0. -1.
          4    1    3    3  501    0  0.20316447876E+03  0.13478060619E+03  0.72360779243E+02  0.25431810711E+03  0.00000000000E+00 0. -1.
<mgrwt>
<rscale>  0 0.65951568E+03</rscale>
<asrwt>0</asrwt>
<pdfrwt beam="1">0</pdfrwt>
<pdfrwt beam="2">  1        2 0.39541986E+00 0.65951568E+03</pdfrwt>
<totfact> 0.41401423E+00</totfact>
</mgrwt>
</event>
<event>
 5    1  0.2344661E-004  0.6524986E+03  0.7818608E-02  0.9802102E-01
         13   -1    0    0    0    0  0.00000000000E+00  0.00000000000E+00  0.10000000000E+04  0.10000000000E+04  0.00000000000E+00 0. -1.
          2   -1    0    0  501    0 -0.00000000000E+00 -0.00000000000E+00 -0.10643860420E+03  0.10643860420E+03  0.00000000000E+00 0. -1.
    9000006    2    1    2  501    0  0.00000000000E+00  0.00000000000E+00  0.89356139580E+03  0.11064386042E+04  0.65249859525E+03 0.  0.
         13    1    3    3    0    0  0.20021265996E+03  0.21144024313E+03  0.69626416355E+03  0.75470250501E+03  0.00000000000E+00 0. -1.
          2    1    3    3  501    0 -0.20021265996E+03 -0.21144024313E+03  0.19729723225E+03  0.35173609920E+03  0.00000000000E+00 0. -1.
<mgrwt>
<rscale>  0 0.65249860E+03</rscale>
<asrwt>0</asrwt>
<pdfrwt beam="1">0</pdfrwt>
<pdfrwt beam="2">  1        2 0.38705029E+00 0.65249860E+03</pdfrwt>
<totfact> 0.44505951E+00</totfact>
</mgrwt>
</event>
<event>
 5    1  0.2344661E-004  0.6624537E+03  0.7818608E-02  0.9783687E-01
         13   -1    0    0    0    0  0.00000000000E+00  0.00000000000E+00  0.10000000000E+04  0.10000000000E+04  0.00000000000E+00 0. -1.
          2   -1    0    0  501    0 -0.00000000000E+00 -0.00000000000E+00 -0.10971122484E+03  0.10971122484E+03  0.00000000000E+00 0. -1.
    9000006    2    1    2  501    0  0.00000000000E+00  0.00000000000E+00  0.89028877516E+03  0.11097112248E+04  0.66245369602E+03 0.  0.
         13    1    3    3    0    0 -0.23812716200E+03  0.22990117113E+03  0.42448281298E+03  0.53827943699E+03  0.00000000000E+00 0. -1.
          2    1    3    3  501    0  0.23812716200E+03 -0.22990117113E+03  0.46580596218E+03  0.57143178785E+03  0.00000000000E+00 0. -1.
<mgrwt>
<rscale>  0 0.66245370E+03</rscale>
<asrwt>0</asrwt>
<pdfrwt beam="1">0</pdfrwt>
<pdfrwt beam="2">  1        2 0.39895075E+00 0.66245370E+03</pdfrwt>
<totfact> 0.40151424E+00</totfact>
</mgrwt>
</event>
<event>
 5    1  0.2344661E-004  0.6484895E+03  0.7818608E-02  0.9809618E-01
         13   -1    0    0    0    0  0.00000000000E+00  0.00000000000E+00  0.10000000000E+04  0.10000000000E+04  0.00000000000E+00 0. -1.
          2   -1    0    0  501    0 -0.00000000000E+00 -0.00000000000E+00 -0.10513466139E+03  0.10513466139E+03  0.00000000000E+00 0. -1.
    9000006    2    1    2  501    0  0.00000000000E+00  0.00000000000E+00  0.89486533861E+03  0.11051346614E+04  0.64848951076E+03 0.  0.
         13    1    3    3    0    0 -0.17458162800E+03  0.13795984896E+03  0.84935250082E+03  0.87801556672E+03  0.00000000000E+00 0. -1.
          2    1    3    3  501    0  0.17458162800E+03 -0.13795984896E+03  0.45512837794E+02  0.22711909467E+03  0.00000000000E+00 0. -1.
<mgrwt>
<rscale>  0 0.64848951E+03</rscale>
<asrwt>0</asrwt>
<pdfrwt beam="1">0</pdfrwt>
<pdfrwt beam="2">  1        2 0.38230867E+00 0.64848951E+03</pdfrwt>
<totfact> 0.46356812E+00</totfact>
</mgrwt>
</event>
<event>
 5    1  0.2344661E-004  0.6485935E+03  0.7818608E-02  0.9809422E-01
         13   -1    0    0    0    0  0.00000000000E+00  0.00000000000E+00  0.10000000000E+04  0.10000000000E+04  0.00000000000E+00 0. -1.
          2   -1    0    0  501    0 -0.00000000000E+00 -0.00000000000E+00 -0.10516839403E+03  0.10516839403E+03  0.00000000000E+00 0. -1.
    9000006    2    1    2  501    0  0.00000000000E+00  0.00000000000E+00  0.89483160597E+03  0.11051683940E+04  0.64859353691E+03 0.  0.
         13    1    3    3    0    0  0.17127704973E+03  0.93048735772E+00  0.91664090456E+03  0.93250589354E+03  0.00000000000E+00 0. -1.
          4    1    3    3  501    0 -0.17127704973E+03 -0.93048735772E+00 -0.21809298592E+02  0.17266250049E+03  0.00000000000E+00 0. -1.
<mgrwt>
<rscale>  0 0.64859354E+03</rscale>
<asrwt>0</asrwt>
<pdfrwt beam="1">0</pdfrwt>
<pdfrwt beam="2">  1        2 0.38243133E+00 0.64859354E+03</pdfrwt>
<totfact> 0.46308064E+00</totfact>
</mgrwt>
</event>
<event>
 5    1  0.2344661E-004  0.6591539E+03  0.7818608E-02  0.9789753E-01
         13   -1    0    0    0    0  0.00000000000E+00  0.00000000000E+00  0.10000000000E+04  0.10000000000E+04  0.00000000000E+00 0. -1.
          2   -1    0    0  501    0 -0.00000000000E+00 -0.00000000000E+00 -0.10862096407E+03  0.10862096407E+03  0.00000000000E+00 0. -1.
    9000006    2    1    2  501    0  0.00000000000E+00  0.00000000000E+00  0.89137903593E+03  0.11086209641E+04  0.65915389424E+03 0.  0.
         13    1    3    3    0    0 -0.11911140378E+03 -0.24141922908E+03  0.76546972337E+03  0.81142754950E+03  0.00000000000E+00 0. -1.
          4    1    3    3  501    0  0.11911140378E+03  0.24141922908E+03  0.12590931255E+03  0.29719341458E+03  0.00000000000E+00 0. -1.
<mgrwt>
<rscale>  0 0.65915389E+03</rscale>
<asrwt>0</asrwt>
<pdfrwt beam="1">0</pdfrwt>
<pdfrwt beam="2">  1        2 0.39498616E+00 0.65915389E+03</pdfrwt>
<totfact> 0.41557354E+00</totfact>
</mgrwt>
</event>
<event>
 5    1  0.2344661E-004  0.7069895E+03  0.7818608E-02  0.9705353E-01
         13   -1    0    0    0    0  0.00000000000E+00  0.00000000000E+00  0.10000000000E+04  0.10000000000E+04  0.00000000000E+00 0. -1.
          2   -1    0    0  501    0 -0.00000000000E+00 -0.00000000000E+00 -0.12495852733E+03  0.12495852733E+03  0.00000000000E+00 0. -1.
    9000006    2    1    2  501    0  0.00000000000E+00  0.00000000000E+00  0.87504147267E+03  0.11249585273E+04  0.70698946903E+03 0.  0.
         13    1    3    3    0    0  0.34887695836E+03 -0.33348268495E+02  0.36406179561E+03  0.50533971753E+03  0.00000000000E+00 0. -1.
          2    1    3    3  501    0 -0.34887695836E+03  0.33348268495E+02  0.51097967706E+03  0.61961880980E+03  0.00000000000E+00 0. -1.
<mgrwt>
<rscale>  0 0.70698947E+03</rscale>
<asrwt>0</asrwt>
<pdfrwt beam="1">0</pdfrwt>
<pdfrwt beam="2">  1        2 0.45439560E+00 0.70698947E+03</pdfrwt>
<totfact> 0.24462333E+00</totfact>
</mgrwt>
</event>
<event>
 5    1  0.2344661E-004  0.6495574E+03  0.7818608E-02  0.9807610E-01
         13   -1    0    0    0    0  0.00000000000E+00  0.00000000000E+00  0.10000000000E+04  0.10000000000E+04  0.00000000000E+00 0. -1.
          2   -1    0    0  501    0 -0.00000000000E+00 -0.00000000000E+00 -0.10548121222E+03  0.10548121222E+03  0.00000000000E+00 0. -1.
    9000006    2    1    2  501    0  0.00000000000E+00  0.00000000000E+00  0.89451878778E+03  0.11054812122E+04  0.64955742538E+03 0.  0.
         13    1    3    3    0    0 -0.70795102271E+02 -0.38600397294E+02 -0.88174610106E+02  0.11948514152E+03  0.00000000000E+00 0. -1.
          4    1    3    3  501    0  0.70795102271E+02  0.38600397294E+02  0.98269339789E+03  0.98599607070E+03  0.00000000000E+00 0. -1.
<mgrwt>
<rscale>  0 0.64955743E+03</rscale>
<asrwt>0</asrwt>
<pdfrwt beam="1">0</pdfrwt>
<pdfrwt beam="2">  1        2 0.38356885E+00 0.64955743E+03</pdfrwt>
<totfact> 0.45858213E+00</totfact>
</mgrwt>
</event>
<event>
 5    1  0.2344661E-004  0.6818326E+03  0.7818608E-02  0.9748815E-01
         13   -1    0    0    0    0  0.00000000000E+00  0.00000000000E+00  0.10000000000E+04  0.10000000000E+04  0.00000000000E+00 0. -1.
          2   -1    0    0  501    0 -0.00000000000E+00 -0.00000000000E+00 -0.11622393557E+03  0.11622393557E+03  0.00000000000E+00 0. -1.
    9000006    2    1    2  501    0  0.00000000000E+00  0.00000000000E+00  0.88377606443E+03  0.11162239356E+04  0.68183263510E+03 0.  0.
         13    1    3    3    0    0  0.23704909726E+03  0.11916006973E+03  0.91410240151E+02  0.28061936628E+03  0.00000000000E+00 0. -1.
          2    1    3    3  501    0 -0.23704909726E+03 -0.11916006973E+03  0.79236582428E+03  0.83560456929E+03  0.00000000000E+00 0. -1.
<mgrwt>
<rscale>  0 0.68183264E+03</rscale>
<asrwt>0</asrwt>
<pdfrwt beam="1">0</pdfrwt>
<pdfrwt beam="2">  1        2 0.42263338E+00 0.68183264E+03</pdfrwt>
<totfact> 0.32604227E+00</totfact>
</mgrwt>
</event>
<event>
 5    1  0.2344661E-004  0.6507591E+03  0.7818608E-02  0.9805356E-01
         13   -1    0    0    0    0  0.00000000000E+00  0.00000000000E+00  0.10000000000E+04  0.10000000000E+04  0.00000000000E+00 0. -1.
          2   -1    0    0  501    0 -0.00000000000E+00 -0.00000000000E+00 -0.10587183650E+03  0.10587183650E+03  0.00000000000E+00 0. -1.
    9000006    2    1    2  501    0  0.00000000000E+00  0.00000000000E+00  0.89412816350E+03  0.11058718365E+04  0.65075905373E+03 0.  0.
         13    1    3    3    0    0 -0.32277031441E+03  0.38551837652E+02  0.47139020995E+03  0.57260427006E+03  0.00000000000E+00 0. -1.
          4    1    3    3  501    0  0.32277031441E+03 -0.38551837652E+02  0.42273795354E+03  0.53326756644E+03  0.00000000000E+00 0. -1.
<mgrwt>
<rscale>  0 0.65075905E+03</rscale>
<asrwt>0</asrwt>
<pdfrwt beam="1">0</pdfrwt>
<pdfrwt beam="2">  1        2 0.38498931E+00 0.65075905E+03</pdfrwt>
<totfact> 0.45302044E+00</totfact>
</mgrwt>
</event>
<event>
 5    1  0.2344661E-004  0.6541031E+03  0.7818608E-02  0.9799110E-01
         13   -1    0    0    0    0  0.00000000000E+00  0.00000000000E+00  0.10000000000E+04  0.10000000000E+04  0.00000000000E+00 0. -1.
          2   -1    0    0  501    0 -0.00000000000E+00 -0.00000000000E+00 -0.10696273029E+03  0.10696273029E+03  0.00000000000E+00 0. -1.
    9000006    2    1    2  501    0  0.00000000000E+00  0.00000000000E+00  0.89303726971E+03  0.11069627303E+04  0.65410314261E+03 0.  0.
         13    1    3    3    0    0 -0.23179017453E+03 -0.77476951449E+02  0.78719064791E+02  0.25676069438E+03  0.00000000000E+00 0. -1.
          4    1    3    3  501    0  0.23179017453E+03  0.77476951449E+02  0.81431820492E+03  0.85020203592E+03  0.00000000000E+00 0. -1.
<mgrwt>
<rscale>  0 0.65410314E+03</rscale>
<asrwt>0</asrwt>
<pdfrwt beam="1">0</pdfrwt>
<pdfrwt beam="2">  1        2 0.38895620E+00 0.65410314E+03</pdfrwt>
<totfact> 0.43781050E+00</totfact>
</mgrwt>
</event>
<event>
 5    1  0.2344661E-004  0.6500057E+03  0.7818608E-02  0.9806768E-01
         13   -1    0    0    0    0  0.00000000000E+00  0.00000000000E+00  0.10000000000E+04  0.10000000000E+04  0.00000000000E+00 0. -1.
          2   -1    0    0  501    0 -0.00000000000E+00 -0.00000000000E+00 -0.10562685415E+03  0.10562685415E+03  0.00000000000E+00 0. -1.
    9000006    2    1    2  501    0  0.00000000000E+00  0.00000000000E+00  0.89437314585E+03  0.11056268542E+04  0.65000570506E+03 0.  0.
         13    1    3    3    0    0  0.11809446909E+03 -0.24343537583E+03  0.75345086433E+03  0.80055936119E+03  0.00000000000E+00 0. -1.
          2    1    3    3  501    0 -0.11809446909E+03  0.24343537583E+03  0.14092228152E+03  0.30506749296E+03  0.00000000000E+00 0. -1.
<mgrwt>
<rscale>  0 0.65000571E+03</rscale>
<asrwt>0</asrwt>
<pdfrwt beam="1">0</pdfrwt>
<pdfrwt beam="2">  1        2 0.38409846E+00 0.65000571E+03</pdfrwt>
<totfact> 0.45650129E+00</totfact>
</mgrwt>
</event>
<event>
 5    1  0.2344661E-004  0.6509800E+03  0.7818608E-02  0.9804942E-01
         13   -1    0    0    0    0  0.00000000000E+00  0.00000000000E+00  0.10000000000E+04  0.10000000000E+04  0.00000000000E+00 0. -1.
          2   -1    0    0  501    0 -0.00000000000E+00 -0.00000000000E+00 -0.10594373217E+03  0.10594373217E+03  0.00000000000E+00 0. -1.
    9000006    2    1    2  501    0  0.00000000000E+00  0.00000000000E+00  0.89405626783E+03  0.11059437322E+04  0.65097997564E+03 0.  0.
         13    1    3    3    0    0 -0.10420591693E+03  0.30211304159E+03  0.34212842904E+03  0.46816986765E+03  0.00000000000E+00 0. -1.
          4    1    3    3  501    0  0.10420591693E+03 -0.30211304159E+03  0.55192783879E+03  0.63777386452E+03  0.00000000000E+00 0. -1.
<mgrwt>
<rscale>  0 0.65097998E+03</rscale>
<asrwt>0</asrwt>
<pdfrwt beam="1">0</pdfrwt>
<pdfrwt beam="2">  1        2 0.38525075E+00 0.65097998E+03</pdfrwt>
<totfact> 0.45200348E+00</totfact>
</mgrwt>
</event>
<event>
 5    1  0.2344661E-004  0.6530320E+03  0.7818608E-02  0.9801106E-01
         13   -1    0    0    0    0  0.00000000000E+00  0.00000000000E+00  0.10000000000E+04  0.10000000000E+04  0.00000000000E+00 0. -1.
          2   -1    0    0  501    0 -0.00000000000E+00 -0.00000000000E+00 -0.10661271232E+03  0.10661271232E+03  0.00000000000E+00 0. -1.
    9000006    2    1    2  501    0  0.00000000000E+00  0.00000000000E+00  0.89338728768E+03  0.11066127123E+04  0.65303204308E+03 0.  0.
         13    1    3    3    0    0 -0.22209750452E+02  0.29662254173E+03  0.67489280327E+03  0.73753542368E+03  0.00000000000E+00 0. -1.
          2    1    3    3  501    0  0.22209750452E+02 -0.29662254173E+03  0.21849448440E+03  0.36907728864E+03  0.00000000000E+00 0. -1.
<mgrwt>
<rscale>  0 0.65303204E+03</rscale>
<asrwt>0</asrwt>
<pdfrwt beam="1">0</pdfrwt>
<pdfrwt beam="2">  1        2 0.38768341E+00 0.65303204E+03</pdfrwt>
<totfact> 0.44263952E+00</totfact>
</mgrwt>
</event>
<event>
 5    1  0.2344661E-004  0.6524282E+03  0.7818608E-02  0.9802234E-01
         13   -1    0    0    0    0  0.00000000000E+00  0.00000000000E+00  0.10000000000E+04  0.10000000000E+04  0.00000000000E+00 0. -1.
          2   -1    0    0  501    0 -0.00000000000E+00 -0.00000000000E+00 -0.10641563088E+03  0.10641563088E+03  0.00000000000E+00 0. -1.
    9000006    2    1    2  501    0  0.00000000000E+00  0.00000000000E+00  0.89358436912E+03  0.11064156309E+04  0.65242817498E+03 0.  0.
         13    1    3    3    0    0  0.58859003334E+02 -0.23111463347E+03  0.82423542359E+03  0.85804568035E+03  0.00000000000E+00 0. -1.
          2    1    3    3  501    0 -0.58859003334E+02  0.23111463347E+03  0.69348945535E+02  0.24836995052E+03  0.00000000000E+00 0. -1.
<mgrwt>
<rscale>  0 0.65242817E+03</rscale>
<asrwt>0</asrwt>
<pdfrwt beam="1">0</pdfrwt>
<pdfrwt beam="2">  1        2 0.38696675E+00 0.65242817E+03</pdfrwt>
<totfact> 0.44537972E+00</totfact>
</mgrwt>
</event>
<event>
 5    1  0.2344661E-004  0.6628072E+03  0.7818608E-02  0.9783040E-01
         13   -1    0    0    0    0  0.00000000000E+00  0.00000000000E+00  0.10000000000E+04  0.10000000000E+04  0.00000000000E+00 0. -1.
          2   -1    0    0  501    0 -0.00000000000E+00 -0.00000000000E+00 -0.10982834841E+03  0.10982834841E+03  0.00000000000E+00 0. -1.
    9000006    2    1    2  501    0  0.00000000000E+00  0.00000000000E+00  0.89017165159E+03  0.11098283484E+04  0.66280720699E+03 0.  0.
         13    1    3    3    0    0  0.16339552825E+03 -0.27134925983E+03  0.28188344703E+03  0.42401273232E+03  0.00000000000E+00 0. -1.
          2    1    3    3  501    0 -0.16339552825E+03  0.27134925983E+03  0.60828820456E+03  0.68581561609E+03  0.00000000000E+00 0. -1.
<mgrwt>
<rscale>  0 0.66280721E+03</rscale>
<asrwt>0</asrwt>
<pdfrwt beam="1">0</pdfrwt>
<pdfrwt beam="2">  1        2 0.39937665E+00 0.66280721E+03</pdfrwt>
<totfact> 0.40002963E+00</totfact>
</mgrwt>
</event>
<event>
 5    1  0.2344661E-004  0.6478034E+03  0.7818608E-02  0.9810910E-01
         13   -1    0    0    0    0  0.00000000000E+00  0.00000000000E+00  0.10000000000E+04  0.10000000000E+04  0.00000000000E+00 0. -1.
          2   -1    0    0  501    0 -0.00000000000E+00 -0.00000000000E+00 -0.10491232394E+03  0.10491232394E+03  0.00000000000E+00 0. -1.
    9000006    2    1    2  501    0  0.00000000000E+00  0.00000000000E+00  0.89508767606E+03  0.11049123239E+04  0.64780343915E+03 0.  0.
         13    1    3    3    0    0 -0.22216733393E+03  0.21044643715E+03  0.62858409683E+03  0.69911658110E+03  0.00000000000E+00 0. -1.
          4    1    3    3  501    0  0.22216733393E+03 -0.21044643715E+03  0.26650357922E+03  0.40579574285E+03  0.00000000000E+00 0. -1.
<mgrwt>
<rscale>  0 0.64780344E+03</rscale>
<asrwt>0</asrwt>
<pdfrwt beam="1">0</pdfrwt>
<pdfrwt beam="2">  1        2 0.38150016E+00 0.64780344E+03</pdfrwt>
<totfact> 0.46679286E+00</totfact>
</mgrwt>
</event>
<event>
 5    1  0.2344661E-004  0.6517937E+03  0.7818608E-02  0.9803419E-01
         13   -1    0    0    0    0  0.00000000000E+00  0.00000000000E+00  0.10000000000E+04  0.10000000000E+04  0.00000000000E+00 0. -1.
          2   -1    0    0  501    0 -0.00000000000E+00 -0.00000000000E+00 -0.10620875421E+03  0.10620875421E+03  0.00000000000E+00 0. -1.
    9000006    2    1    2  501    0  0.00000000000E+00  0.00000000000E+00  0.89379124579E+03  0.11062087542E+04  0.65179369194E+03 0.  0.
         13    1    3    3    0    0  0.17737459704E+02  0.19424894144E+03  0.38010187851E+01  0.19509412208E+03  0.00000000000E+00 0. -1.
          4    1    3    3  501    0 -0.17737459704E+02 -0.19424894144E+03  0.88999022700E+03  0.91111463213E+03  0.00000000000E+00 0. -1.
<mgrwt>
<rscale>  0 0.65179369E+03</rscale>
<asrwt>0</asrwt>
<pdfrwt beam="1">0</pdfrwt>
<pdfrwt beam="2">  1        2 0.38621447E+00 0.65179369E+03</pdfrwt>
<totfact> 0.44827262E+00</totfact>
</mgrwt>
</event>
<event>
 5    1  0.2344661E-004  0.6692840E+03  0.7818608E-02  0.9771252E-01
         13   -1    0    0    0    0  0.00000000000E+00  0.00000000000E+00  0.10000000000E+04  0.10000000000E+04  0.00000000000E+00 0. -1.
          2   -1    0    0  501    0 -0.00000000000E+00 -0.00000000000E+00 -0.11198527009E+03  0.11198527009E+03  0.00000000000E+00 0. -1.
    9000006    2    1    2  501    0  0.00000000000E+00  0.00000000000E+00  0.88801472991E+03  0.11119852701E+04  0.66928400576E+03 0.  0.
         13    1    3    3    0    0 -0.27067669542E+03 -0.56608731724E+02  0.75711493580E+03  0.80603563690E+03  0.00000000000E+00 0. -1.
          2    1    3    3  501    0  0.27067669542E+03  0.56608731724E+02  0.13089979411E+03  0.30594963319E+03  0.00000000000E+00 0. -1.
<mgrwt>
<rscale>  0 0.66928401E+03</rscale>
<asrwt>0</asrwt>
<pdfrwt beam="1">0</pdfrwt>
<pdfrwt beam="2">  1        2 0.40722002E+00 0.66928401E+03</pdfrwt>
<totfact> 0.37355497E+00</totfact>
</mgrwt>
</event>
<event>
 5    1  0.2344661E-004  0.6528468E+03  0.7818608E-02  0.9801452E-01
         13   -1    0    0    0    0  0.00000000000E+00  0.00000000000E+00  0.10000000000E+04  0.10000000000E+04  0.00000000000E+00 0. -1.
          2   -1    0    0  501    0 -0.00000000000E+00 -0.00000000000E+00 -0.10655223436E+03  0.10655223436E+03  0.00000000000E+00 0. -1.
    9000006    2    1    2  501    0  0.00000000000E+00  0.00000000000E+00  0.89344776564E+03  0.11065522344E+04  0.65284679478E+03 0.  0.
         13    1    3    3    0    0 -0.12977773654E+03 -0.29728123341E+03  0.38482072664E+03  0.50329453036E+03  0.00000000000E+00 0. -1.
          2    1    3    3  501    0  0.12977773654E+03  0.29728123341E+03  0.50862703900E+03  0.60325770400E+03  0.00000000000E+00 0. -1.
<mgrwt>
<rscale>  0 0.65284679E+03</rscale>
<asrwt>0</asrwt>
<pdfrwt beam="1">0</pdfrwt>
<pdfrwt beam="2">  1        2 0.38746349E+00 0.65284679E+03</pdfrwt>
<totfact> 0.44347877E+00</totfact>
</mgrwt>
</event>
<event>
 5    1  0.2344661E-004  0.6520973E+03  0.7818608E-02  0.9802852E-01
         13   -1    0    0    0    0  0.00000000000E+00  0.00000000000E+00  0.10000000000E+04  0.10000000000E+04  0.00000000000E+00 0. -1.
          2   -1    0    0  501    0 -0.00000000000E+00 -0.00000000000E+00 -0.10630771677E+03  0.10630771677E+03  0.00000000000E+00 0. -1.
    9000006    2    1    2  501    0  0.00000000000E+00  0.00000000000E+00  0.89369228323E+03  0.11063077168E+04  0.65209728345E+03 0.  0.
         13    1    3    3    0    0  0.22716767076E+03  0.20764760741E+03  0.62945097483E+03  0.70066483373E+03  0.00000000000E+00 0. -1.
          2    1    3    3  501    0 -0.22716767076E+03 -0.20764760741E+03  0.26424130840E+03  0.40564288304E+03  0.00000000000E+00 0. -1.
<mgrwt>
<rscale>  0 0.65209728E+03</rscale>
<asrwt>0</asrwt>
<pdfrwt beam="1">0</pdfrwt>
<pdfrwt beam="2">  1        2 0.38657433E+00 0.65209728E+03</pdfrwt>
<totfact> 0.44688664E+00</totfact>
</mgrwt>
</event>
<event>
 5    1  0.2344661E-004  0.5282338E+03  0.7818608E-02  0.1006661E+00
         13   -1    0    0    0    0  0.00000000000E+00  0.00000000000E+00  0.10000000000E+04  0.10000000000E+04  0.00000000000E+00 0. -1.
          2   -1    0    0  501    0 -0.00000000000E+00 -0.00000000000E+00 -0.69757740359E+02  0.69757740359E+02  0.00000000000E+00 0. -1.
    9000006    2    1    2  501    0  0.00000000000E+00  0.00000000000E+00  0.93024225964E+03  0.10697577404E+04  0.52823381323E+03 0.  0.
         13    1    3    3    0    0  0.20212098851E+03  0.14695322367E+03  0.63826452896E+03  0.68544128331E+03  0.00000000000E+00 0. -1.
          4    1    3    3  501    0 -0.20212098851E+03 -0.14695322367E+03  0.29197773068E+03  0.38431645705E+03  0.00000000000E+00 0. -1.
<mgrwt>
<rscale>  0 0.52823381E+03</rscale>
<asrwt>0</asrwt>
<pdfrwt beam="1">0</pdfrwt>
<pdfrwt beam="2">  1        2 0.25366505E+00 0.52823381E+03</pdfrwt>
<totfact> 0.13523146E+01</totfact>
</mgrwt>
</event>
<event>
 5    1  0.2344661E-004  0.5021013E+03  0.7818608E-02  0.1013232E+00
         13   -1    0    0    0    0  0.00000000000E+00  0.00000000000E+00  0.10000000000E+04  0.10000000000E+04  0.00000000000E+00 0. -1.
          4   -1    0    0  501    0 -0.00000000000E+00 -0.00000000000E+00 -0.63026427989E+02  0.63026427989E+02  0.00000000000E+00 0. -1.
    9000006    2    1    2  501    0  0.00000000000E+00  0.00000000000E+00  0.93697357201E+03  0.10630264280E+04  0.50210129651E+03 0.  0.
         13    1    3    3    0    0 -0.60532364756E+02 -0.67878450364E+02  0.96389559578E+03  0.96817682825E+03  0.00000000000E+00 0. -1.
          4    1    3    3  501    0  0.60532364756E+02  0.67878450364E+02 -0.26922023764E+02  0.94849599738E+02  0.00000000000E+00 0. -1.
<mgrwt>
<rscale>  0 0.50210130E+03</rscale>
<asrwt>0</asrwt>
<pdfrwt beam="1">0</pdfrwt>
<pdfrwt beam="2">  1        4 0.22918749E+00 0.50210130E+03</pdfrwt>
<totfact> 0.38713232E-01</totfact>
</mgrwt>
</event>
<event>
 5    1  0.2344661E-004  0.6480742E+03  0.7818608E-02  0.9810400E-01
         13   -1    0    0    0    0  0.00000000000E+00  0.00000000000E+00  0.10000000000E+04  0.10000000000E+04  0.00000000000E+00 0. -1.
          4   -1    0    0  501    0 -0.00000000000E+00 -0.00000000000E+00 -0.10500004698E+03  0.10500004698E+03  0.00000000000E+00 0. -1.
    9000006    2    1    2  501    0  0.00000000000E+00  0.00000000000E+00  0.89499995302E+03  0.11050000470E+04  0.64807421481E+03 0.  0.
         13    1    3    3    0    0 -0.24507374594E+02  0.60500950531E+02 -0.93673525830E+02  0.11417401572E+03  0.00000000000E+00 0. -1.
          4    1    3    3  501    0  0.24507374594E+02 -0.60500950531E+02  0.98867347885E+03  0.99082603125E+03  0.00000000000E+00 0. -1.
<mgrwt>
<rscale>  0 0.64807421E+03</rscale>
<asrwt>0</asrwt>
<pdfrwt beam="1">0</pdfrwt>
<pdfrwt beam="2">  1        4 0.38181916E+00 0.64807421E+03</pdfrwt>
<totfact> 0.42653839E-02</totfact>
</mgrwt>
</event>
<event>
 5    1  0.2344661E-004  0.6590630E+03  0.7818608E-02  0.9789920E-01
         13   -1    0    0    0    0  0.00000000000E+00  0.00000000000E+00  0.10000000000E+04  0.10000000000E+04  0.00000000000E+00 0. -1.
          2   -1    0    0  501    0 -0.00000000000E+00 -0.00000000000E+00 -0.10859101796E+03  0.10859101796E+03  0.00000000000E+00 0. -1.
    9000006    2    1    2  501    0  0.00000000000E+00  0.00000000000E+00  0.89140898204E+03  0.11085910180E+04  0.65906302570E+03 0.  0.
         13    1    3    3    0    0  0.58011660797E+02  0.28531302971E+03  0.18608649321E+03  0.34553879762E+03  0.00000000000E+00 0. -1.
          4    1    3    3  501    0 -0.58011660797E+02 -0.28531302971E+03  0.70532248883E+03  0.76305222034E+03  0.00000000000E+00 0. -1.
<mgrwt>
<rscale>  0 0.65906303E+03</rscale>
<asrwt>0</asrwt>
<pdfrwt beam="1">0</pdfrwt>
<pdfrwt beam="2">  1        2 0.39487726E+00 0.65906303E+03</pdfrwt>
<totfact> 0.41596588E+00</totfact>
</mgrwt>
</event>
<event>
 5    1  0.2344661E-004  0.6508572E+03  0.7818608E-02  0.9805172E-01
         13   -1    0    0    0    0  0.00000000000E+00  0.00000000000E+00  0.10000000000E+04  0.10000000000E+04  0.00000000000E+00 0. -1.
          2   -1    0    0  501    0 -0.00000000000E+00 -0.00000000000E+00 -0.10590377500E+03  0.10590377500E+03  0.00000000000E+00 0. -1.
    9000006    2    1    2  501    0  0.00000000000E+00  0.00000000000E+00  0.89409622500E+03  0.11059037750E+04  0.65085720399E+03 0.  0.
         13    1    3    3    0    0  0.28617807394E+03 -0.45991257745E+01  0.18390072134E+03  0.34020364088E+03  0.00000000000E+00 0. -1.
          2    1    3    3  501    0 -0.28617807394E+03  0.45991257745E+01  0.71019550366E+03  0.76570013411E+03  0.00000000000E+00 0. -1.
<mgrwt>
<rscale>  0 0.65085720E+03</rscale>
<asrwt>0</asrwt>
<pdfrwt beam="1">0</pdfrwt>
<pdfrwt beam="2">  1        2 0.38510545E+00 0.65085720E+03</pdfrwt>
<totfact> 0.45256841E+00</totfact>
</mgrwt>
</event>
<event>
 5    1  0.2344661E-004  0.6532922E+03  0.7818608E-02  0.9800621E-01
         13   -1    0    0    0    0  0.00000000000E+00  0.00000000000E+00  0.10000000000E+04  0.10000000000E+04  0.00000000000E+00 0. -1.
          2   -1    0    0  501    0 -0.00000000000E+00 -0.00000000000E+00 -0.10669767062E+03  0.10669767062E+03  0.00000000000E+00 0. -1.
    9000006    2    1    2  501    0  0.00000000000E+00  0.00000000000E+00  0.89330232938E+03  0.11066976706E+04  0.65329218767E+03 0.  0.
         13    1    3    3    0    0 -0.25321908984E+02 -0.13958264315E+03  0.94509147673E+03  0.95567903227E+03  0.00000000000E+00 0. -1.
          4    1    3    3  501    0  0.25321908984E+02  0.13958264315E+03 -0.51789147347E+02  0.15101863834E+03  0.00000000000E+00 0. -1.
<mgrwt>
<rscale>  0 0.65329219E+03</rscale>
<asrwt>0</asrwt>
<pdfrwt beam="1">0</pdfrwt>
<pdfrwt beam="2">  1        2 0.38799235E+00 0.65329219E+03</pdfrwt>
<totfact> 0.44146299E+00</totfact>
</mgrwt>
</event>
<event>
 5    1  0.2344661E-004  0.6475012E+03  0.7818608E-02  0.9811479E-01
         13   -1    0    0    0    0  0.00000000000E+00  0.00000000000E+00  0.10000000000E+04  0.10000000000E+04  0.00000000000E+00 0. -1.
          2   -1    0    0  501    0 -0.00000000000E+00 -0.00000000000E+00 -0.10481446447E+03  0.10481446447E+03  0.00000000000E+00 0. -1.
    9000006    2    1    2  501    0  0.00000000000E+00  0.00000000000E+00  0.89518553553E+03  0.11048144645E+04  0.64750124160E+03 0.  0.
         13    1    3    3    0    0 -0.16714692322E+03 -0.16034846087E+03  0.83354551679E+03  0.86512880625E+03  0.00000000000E+00 0. -1.
          4    1    3    3  501    0  0.16714692322E+03  0.16034846087E+03  0.61640018743E+02  0.23968565822E+03  0.00000000000E+00 0. -1.
<mgrwt>
<rscale>  0 0.64750124E+03</rscale>
<asrwt>0</asrwt>
<pdfrwt beam="1">0</pdfrwt>
<pdfrwt beam="2">  1        2 0.38114431E+00 0.64750124E+03</pdfrwt>
<totfact> 0.46821865E+00</totfact>
</mgrwt>
</event>
<event>
 5    1  0.2344661E-004  0.5431588E+03  0.7818608E-02  0.1003090E+00
         13   -1    0    0    0    0  0.00000000000E+00  0.00000000000E+00  0.10000000000E+04  0.10000000000E+04  0.00000000000E+00 0. -1.
          2   -1    0    0  501    0 -0.00000000000E+00 -0.00000000000E+00 -0.73755374660E+02  0.73755374660E+02  0.00000000000E+00 0. -1.
    9000006    2    1    2  501    0  0.00000000000E+00  0.00000000000E+00  0.92624462534E+03  0.10737553747E+04  0.54315881530E+03 0.  0.
         13    1    3    3    0    0  0.67922922378E+02  0.10915986554E+03 -0.97840081805E+01  0.12893845991E+03  0.00000000000E+00 0. -1.
          2    1    3    3  501    0 -0.67922922378E+02 -0.10915986554E+03  0.93602863352E+03  0.94481691475E+03  0.00000000000E+00 0. -1.
<mgrwt>
<rscale>  0 0.54315882E+03</rscale>
<asrwt>0</asrwt>
<pdfrwt beam="1">0</pdfrwt>
<pdfrwt beam="2">  1        2 0.26820193E+00 0.54315882E+03</pdfrwt>
<totfact> 0.11994620E+01</totfact>
</mgrwt>
</event>
<event>
 5    1  0.2344661E-004  0.6348196E+03  0.7818608E-02  0.9835689E-01
         13   -1    0    0    0    0  0.00000000000E+00  0.00000000000E+00  0.10000000000E+04  0.10000000000E+04  0.00000000000E+00 0. -1.
          2   -1    0    0  501    0 -0.00000000000E+00 -0.00000000000E+00 -0.10074898265E+03  0.10074898265E+03  0.00000000000E+00 0. -1.
    9000006    2    1    2  501    0  0.00000000000E+00  0.00000000000E+00  0.89925101735E+03  0.11007489827E+04  0.63481960477E+03 0.  0.
         13    1    3    3    0    0  0.23387245733E+03 -0.19736950640E+03  0.59570994523E+03  0.66971739353E+03  0.00000000000E+00 0. -1.
          4    1    3    3  501    0 -0.23387245733E+03  0.19736950640E+03  0.30354107212E+03  0.43103158912E+03  0.00000000000E+00 0. -1.
<mgrwt>
<rscale>  0 0.63481960E+03</rscale>
<asrwt>0</asrwt>
<pdfrwt beam="1">0</pdfrwt>
<pdfrwt beam="2">  1        2 0.36636071E+00 0.63481960E+03</pdfrwt>
<totfact> 0.53108856E+00</totfact>
</mgrwt>
</event>
<event>
 5    1  0.2344661E-004  0.6526438E+03  0.7818608E-02  0.9801831E-01
         13   -1    0    0    0    0  0.00000000000E+00  0.00000000000E+00  0.10000000000E+04  0.10000000000E+04  0.00000000000E+00 0. -1.
          2   -1    0    0  501    0 -0.00000000000E+00 -0.00000000000E+00 -0.10648597397E+03  0.10648597397E+03  0.00000000000E+00 0. -1.
    9000006    2    1    2  501    0  0.00000000000E+00  0.00000000000E+00  0.89351402603E+03  0.11064859740E+04  0.65264377409E+03 0.  0.
         13    1    3    3    0    0  0.18294453989E+02  0.32286022311E+03  0.37261273896E+03  0.49336970311E+03  0.00000000000E+00 0. -1.
          4    1    3    3  501    0 -0.18294453989E+02 -0.32286022311E+03  0.52090128708E+03  0.61311627086E+03  0.00000000000E+00 0. -1.
<mgrwt>
<rscale>  0 0.65264377E+03</rscale>
<asrwt>0</asrwt>
<pdfrwt beam="1">0</pdfrwt>
<pdfrwt beam="2">  1        2 0.38722254E+00 0.65264377E+03</pdfrwt>
<totfact> 0.44439992E+00</totfact>
</mgrwt>
</event>
<event>
 5    1  0.2344661E-004  0.6466183E+03  0.7818608E-02  0.9813146E-01
         13   -1    0    0    0    0  0.00000000000E+00  0.00000000000E+00  0.10000000000E+04  0.10000000000E+04  0.00000000000E+00 0. -1.
          2   -1    0    0  501    0 -0.00000000000E+00 -0.00000000000E+00 -0.10452879320E+03  0.10452879320E+03  0.00000000000E+00 0. -1.
    9000006    2    1    2  501    0  0.00000000000E+00  0.00000000000E+00  0.89547120680E+03  0.11045287932E+04  0.64661825896E+03 0.  0.
         13    1    3    3    0    0  0.21150357130E+03  0.45033726156E+02  0.85828835757E+03  0.88511055914E+03  0.00000000000E+00 0. -1.
          4    1    3    3  501    0 -0.21150357130E+03 -0.45033726156E+02  0.37182849229E+02  0.21941823407E+03  0.00000000000E+00 0. -1.
<mgrwt>
<rscale>  0 0.64661826E+03</rscale>
<asrwt>0</asrwt>
<pdfrwt beam="1">0</pdfrwt>
<pdfrwt beam="2">  1        2 0.38010550E+00 0.64661826E+03</pdfrwt>
<totfact> 0.47240350E+00</totfact>
</mgrwt>
</event>
<event>
 5    1  0.2344661E-004  0.6378502E+03  0.7818608E-02  0.9829848E-01
         13   -1    0    0    0    0  0.00000000000E+00  0.00000000000E+00  0.10000000000E+04  0.10000000000E+04  0.00000000000E+00 0. -1.
          2   -1    0    0  501    0 -0.00000000000E+00 -0.00000000000E+00 -0.10171322520E+03  0.10171322520E+03  0.00000000000E+00 0. -1.
    9000006    2    1    2  501    0  0.00000000000E+00  0.00000000000E+00  0.89828677480E+03  0.11017132252E+04  0.63785021816E+03 0.  0.
         13    1    3    3    0    0 -0.69446561698E+02 -0.29083183535E+03  0.25752805512E+03  0.39462219978E+03  0.00000000000E+00 0. -1.
          4    1    3    3  501    0  0.69446561698E+02  0.29083183535E+03  0.64075871968E+03  0.70709102542E+03  0.00000000000E+00 0. -1.
<mgrwt>
<rscale>  0 0.63785022E+03</rscale>
<asrwt>0</asrwt>
<pdfrwt beam="1">0</pdfrwt>
<pdfrwt beam="2">  1        2 0.36986705E+00 0.63785022E+03</pdfrwt>
<totfact> 0.51551517E+00</totfact>
</mgrwt>
</event>
<event>
 5    1  0.2344661E-004  0.6497702E+03  0.7818608E-02  0.9807210E-01
         13   -1    0    0    0    0  0.00000000000E+00  0.00000000000E+00  0.10000000000E+04  0.10000000000E+04  0.00000000000E+00 0. -1.
          2   -1    0    0  501    0 -0.00000000000E+00 -0.00000000000E+00 -0.10555034127E+03  0.10555034127E+03  0.00000000000E+00 0. -1.
    9000006    2    1    2  501    0  0.00000000000E+00  0.00000000000E+00  0.89444965873E+03  0.11055503413E+04  0.64977024022E+03 0.  0.
         13    1    3    3    0    0 -0.10041784830E+03  0.30600982551E+03  0.51990243351E+03  0.61157525942E+03  0.00000000000E+00 0. -1.
          4    1    3    3  501    0  0.10041784830E+03 -0.30600982551E+03  0.37454722522E+03  0.49397508185E+03  0.00000000000E+00 0. -1.
<mgrwt>
<rscale>  0 0.64977024E+03</rscale>
<asrwt>0</asrwt>
<pdfrwt beam="1">0</pdfrwt>
<pdfrwt beam="2">  1        2 0.38382023E+00 0.64977024E+03</pdfrwt>
<totfact> 0.45759339E+00</totfact>
</mgrwt>
</event>
<event>
 5    1  0.2344661E-004  0.6449564E+03  0.7818608E-02  0.9816289E-01
         13   -1    0    0    0    0  0.00000000000E+00  0.00000000000E+00  0.10000000000E+04  0.10000000000E+04  0.00000000000E+00 0. -1.
          2   -1    0    0  501    0 -0.00000000000E+00 -0.00000000000E+00 -0.10399218027E+03  0.10399218027E+03  0.00000000000E+00 0. -1.
    9000006    2    1    2  501    0  0.00000000000E+00  0.00000000000E+00  0.89600781973E+03  0.11039921803E+04  0.64495637147E+03 0.  0.
         13    1    3    3    0    0  0.11118475426E+03  0.28373168764E+03  0.62856084226E+03  0.69853736663E+03  0.00000000000E+00 0. -1.
          2    1    3    3  501    0 -0.11118475426E+03 -0.28373168764E+03  0.26744697747E+03  0.40545481365E+03  0.00000000000E+00 0. -1.
<mgrwt>
<rscale>  0 0.64495637E+03</rscale>
<asrwt>0</asrwt>
<pdfrwt beam="1">0</pdfrwt>
<pdfrwt beam="2">  1        2 0.37815418E+00 0.64495637E+03</pdfrwt>
<totfact> 0.48035660E+00</totfact>
</mgrwt>
</event>
<event>
 5    1  0.2344661E-004  0.6504476E+03  0.7818608E-02  0.9805940E-01
         13   -1    0    0    0    0  0.00000000000E+00  0.00000000000E+00  0.10000000000E+04  0.10000000000E+04  0.00000000000E+00 0. -1.
          2   -1    0    0  501    0 -0.00000000000E+00 -0.00000000000E+00 -0.10577051933E+03  0.10577051933E+03  0.00000000000E+00 0. -1.
    9000006    2    1    2  501    0  0.00000000000E+00  0.00000000000E+00  0.89422948067E+03  0.11057705193E+04  0.65044759768E+03 0.  0.
         13    1    3    3    0    0  0.21005742054E+02 -0.57319916969E+02  0.99017222402E+03  0.99205234101E+03  0.00000000000E+00 0. -1.
          2    1    3    3  501    0 -0.21005742054E+02  0.57319916969E+02 -0.95942743347E+02  0.11371817832E+03  0.00000000000E+00 0. -1.
<mgrwt>
<rscale>  0 0.65044760E+03</rscale>
<asrwt>0</asrwt>
<pdfrwt beam="1">0</pdfrwt>
<pdfrwt beam="2">  1        2 0.38462088E+00 0.65044760E+03</pdfrwt>
<totfact> 0.45445708E+00</totfact>
</mgrwt>
</event>
<event>
 5    1  0.2344661E-004  0.6426759E+03  0.7818608E-02  0.9820620E-01
         13   -1    0    0    0    0  0.00000000000E+00  0.00000000000E+00  0.10000000000E+04  0.10000000000E+04  0.00000000000E+00 0. -1.
          2   -1    0    0  501    0 -0.00000000000E+00 -0.00000000000E+00 -0.10325807731E+03  0.10325807731E+03  0.00000000000E+00 0. -1.
    9000006    2    1    2  501    0  0.00000000000E+00  0.00000000000E+00  0.89674192269E+03  0.11032580773E+04  0.64267589752E+03 0.  0.
         13    1    3    3    0    0 -0.21856116512E+03 -0.13072416811E+03  0.78476813177E+03  0.82505685360E+03  0.00000000000E+00 0. -1.
          2    1    3    3  501    0  0.21856116512E+03  0.13072416811E+03  0.11197379091E+03  0.27820122371E+03  0.00000000000E+00 0. -1.
<mgrwt>
<rscale>  0 0.64267590E+03</rscale>
<asrwt>0</asrwt>
<pdfrwt beam="1">0</pdfrwt>
<pdfrwt beam="2">  1        2 0.37548471E+00 0.64267590E+03</pdfrwt>
<totfact> 0.49143442E+00</totfact>
</mgrwt>
</event>
<event>
 5    1  0.2344661E-004  0.6648889E+03  0.7818608E-02  0.9779235E-01
         13   -1    0    0    0    0  0.00000000000E+00  0.00000000000E+00  0.10000000000E+04  0.10000000000E+04  0.00000000000E+00 0. -1.
          2   -1    0    0  501    0 -0.00000000000E+00 -0.00000000000E+00 -0.11051932408E+03  0.11051932408E+03  0.00000000000E+00 0. -1.
    9000006    2    1    2  501    0  0.00000000000E+00  0.00000000000E+00  0.88948067592E+03  0.11105193241E+04  0.66488893532E+03 0.  0.
         13    1    3    3    0    0  0.31104825748E+03  0.76477946502E+02  0.29610435578E+03  0.43620830379E+03  0.00000000000E+00 0. -1.
          4    1    3    3  501    0 -0.31104825748E+03 -0.76477946502E+02  0.59337632014E+03  0.67431102029E+03  0.00000000000E+00 0. -1.
<mgrwt>
<rscale>  0 0.66488894E+03</rscale>
<asrwt>0</asrwt>
<pdfrwt beam="1">0</pdfrwt>
<pdfrwt beam="2">  1        2 0.40188930E+00 0.66488894E+03</pdfrwt>
<totfact> 0.39137097E+00</totfact>
</mgrwt>
</event>
<event>
 5    1  0.2344661E-004  0.6463967E+03  0.7818608E-02  0.9813564E-01
         13   -1    0    0    0    0  0.00000000000E+00  0.00000000000E+00  0.10000000000E+04  0.10000000000E+04  0.00000000000E+00 0. -1.
          2   -1    0    0  501    0 -0.00000000000E+00 -0.00000000000E+00 -0.10445717360E+03  0.10445717360E+03  0.00000000000E+00 0. -1.
    9000006    2    1    2  501    0  0.00000000000E+00  0.00000000000E+00  0.89554282640E+03  0.11044571736E+04  0.64639670050E+03 0.  0.
         13    1    3    3    0    0  0.20284134744E+03  0.46753925282E+02  0.87021136319E+03  0.89476162098E+03  0.00000000000E+00 0. -1.
          2    1    3    3  501    0 -0.20284134744E+03 -0.46753925282E+02  0.25331463209E+02  0.20969555262E+03  0.00000000000E+00 0. -1.
<mgrwt>
<rscale>  0 0.64639670E+03</rscale>
<asrwt>0</asrwt>
<pdfrwt beam="1">0</pdfrwt>
<pdfrwt beam="2">  1        2 0.37984507E+00 0.64639670E+03</pdfrwt>
<totfact> 0.47345799E+00</totfact>
</mgrwt>
</event>
<event>
 5    1  0.2344661E-004  0.6316340E+03  0.7818608E-02  0.9841865E-01
         13   -1    0    0    0    0  0.00000000000E+00  0.00000000000E+00  0.10000000000E+04  0.10000000000E+04  0.00000000000E+00 0. -1.
          2   -1    0    0  501    0 -0.00000000000E+00 -0.00000000000E+00 -0.99740386673E+02  0.99740386673E+02  0.00000000000E+00 0. -1.
    9000006    2    1    2  501    0  0.00000000000E+00  0.00000000000E+00  0.90025961333E+03  0.10997403867E+04  0.63163402908E+03 0.  0.
         13    1    3    3    0    0  0.23166787468E+03  0.17394264778E+03  0.23117717954E+03  0.37063315720E+03  0.00000000000E+00 0. -1.
          2    1    3    3  501    0 -0.23166787468E+03 -0.17394264778E+03  0.66908243379E+03  0.72910722948E+03  0.00000000000E+00 0. -1.
<mgrwt>
<rscale>  0 0.63163403E+03</rscale>
<asrwt>0</asrwt>
<pdfrwt beam="1">0</pdfrwt>
<pdfrwt beam="2">  1        2 0.36269308E+00 0.63163403E+03</pdfrwt>
<totfact> 0.54784006E+00</totfact>
</mgrwt>
</event>
<event>
 5    1  0.2344661E-004  0.6372268E+03  0.7818608E-02  0.9831047E-01
         13   -1    0    0    0    0  0.00000000000E+00  0.00000000000E+00  0.10000000000E+04  0.10000000000E+04  0.00000000000E+00 0. -1.
          2   -1    0    0  501    0 -0.00000000000E+00 -0.00000000000E+00 -0.10151450358E+03  0.10151450358E+03  0.00000000000E+00 0. -1.
    9000006    2    1    2  501    0  0.00000000000E+00  0.00000000000E+00  0.89848549642E+03  0.11015145036E+04  0.63722681543E+03 0.  0.
         13    1    3    3    0    0  0.12909722226E+03 -0.22132872105E+03  0.12189189421E+03  0.28374306940E+03  0.00000000000E+00 0. -1.
          4    1    3    3  501    0 -0.12909722226E+03  0.22132872105E+03  0.77659360221E+03  0.81777143418E+03  0.00000000000E+00 0. -1.
<mgrwt>
<rscale>  0 0.63722682E+03</rscale>
<asrwt>0</asrwt>
<pdfrwt beam="1">0</pdfrwt>
<pdfrwt beam="2">  1        2 0.36914443E+00 0.63722682E+03</pdfrwt>
<totfact> 0.51868999E+00</totfact>
</mgrwt>
</event>
<event>
 5    1  0.2344661E-004  0.6485720E+03  0.7818608E-02  0.9809462E-01
         13   -1    0    0    0    0  0.00000000000E+00  0.00000000000E+00  0.10000000000E+04  0.10000000000E+04  0.00000000000E+00 0. -1.
          2   -1    0    0  501    0 -0.00000000000E+00 -0.00000000000E+00 -0.10516141979E+03  0.10516141979E+03  0.00000000000E+00 0. -1.
    9000006    2    1    2  501    0  0.00000000000E+00  0.00000000000E+00  0.89483858021E+03  0.11051614198E+04  0.64857203080E+03 0.  0.
         13    1    3    3    0    0  0.25701706958E+03 -0.34325264051E+02  0.77926232789E+03  0.82127082834E+03  0.00000000000E+00 0. -1.
          2    1    3    3  501    0 -0.25701706958E+03  0.34325264051E+02  0.11557625232E+03  0.28389059144E+03  0.00000000000E+00 0. -1.
<mgrwt>
<rscale>  0 0.64857203E+03</rscale>
<asrwt>0</asrwt>
<pdfrwt beam="1">0</pdfrwt>
<pdfrwt beam="2">  1        2 0.38240597E+00 0.64857203E+03</pdfrwt>
<totfact> 0.46318139E+00</totfact>
</mgrwt>
</event>
<event>
 5    1  0.2344661E-004  0.6447909E+03  0.7818608E-02  0.9816603E-01
         13   -1    0    0    0    0  0.00000000000E+00  0.00000000000E+00  0.10000000000E+04  0.10000000000E+04  0.00000000000E+00 0. -1.
          2   -1    0    0  501    0 -0.00000000000E+00 -0.00000000000E+00 -0.10393883858E+03  0.10393883858E+03  0.00000000000E+00 0. -1.
    9000006    2    1    2  501    0  0.00000000000E+00  0.00000000000E+00  0.89606116142E+03  0.11039388386E+04  0.64479093845E+03 0.  0.
         13    1    3    3    0    0  0.14056993400E+03 -0.10363408315E+03 -0.15938666599E+02  0.17536810037E+03  0.00000000000E+00 0. -1.
          4    1    3    3  501    0 -0.14056993400E+03  0.10363408315E+03  0.91199982802E+03  0.92857073820E+03  0.00000000000E+00 0. -1.
<mgrwt>
<rscale>  0 0.64479094E+03</rscale>
<asrwt>0</asrwt>
<pdfrwt beam="1">0</pdfrwt>
<pdfrwt beam="2">  1        2 0.37796021E+00 0.64479094E+03</pdfrwt>
<totfact> 0.48115380E+00</totfact>
</mgrwt>
</event>
<event>
 5    1  0.2344661E-004  0.6434461E+03  0.7818608E-02  0.9819155E-01
         13   -1    0    0    0    0  0.00000000000E+00  0.00000000000E+00  0.10000000000E+04  0.10000000000E+04  0.00000000000E+00 0. -1.
          2   -1    0    0  501    0 -0.00000000000E+00 -0.00000000000E+00 -0.10350572028E+03  0.10350572028E+03  0.00000000000E+00 0. -1.
    9000006    2    1    2  501    0  0.00000000000E+00  0.00000000000E+00  0.89649427972E+03  0.11035057203E+04  0.64344609808E+03 0.  0.
         13    1    3    3    0    0 -0.27353223436E+03 -0.99816818644E+02  0.21358466956E+03  0.36111174390E+03  0.00000000000E+00 0. -1.
          2    1    3    3  501    0  0.27353223436E+03  0.99816818644E+02  0.68290961016E+03  0.74239397638E+03  0.00000000000E+00 0. -1.
<mgrwt>
<rscale>  0 0.64344610E+03</rscale>
<asrwt>0</asrwt>
<pdfrwt beam="1">0</pdfrwt>
<pdfrwt beam="2">  1        2 0.37638523E+00 0.64344610E+03</pdfrwt>
<totfact> 0.48767163E+00</totfact>
</mgrwt>
</event>
<event>
 5    1  0.2344661E-004  0.6667786E+03  0.7818608E-02  0.9775795E-01
         13   -1    0    0    0    0  0.00000000000E+00  0.00000000000E+00  0.10000000000E+04  0.10000000000E+04  0.00000000000E+00 0. -1.
          2   -1    0    0  501    0 -0.00000000000E+00 -0.00000000000E+00 -0.11114843346E+03  0.11114843346E+03  0.00000000000E+00 0. -1.
    9000006    2    1    2  501    0  0.00000000000E+00  0.00000000000E+00  0.88885156654E+03  0.11111484335E+04  0.66677862431E+03 0.  0.
         13    1    3    3    0    0  0.45303900558E+02  0.29603759587E+03  0.68853395434E+03  0.75084599477E+03  0.00000000000E+00 0. -1.
          2    1    3    3  501    0 -0.45303900558E+02 -0.29603759587E+03  0.20031761220E+03  0.36030243869E+03  0.00000000000E+00 0. -1.
<mgrwt>
<rscale>  0 0.66677862E+03</rscale>
<asrwt>0</asrwt>
<pdfrwt beam="1">0</pdfrwt>
<pdfrwt beam="2">  1        2 0.40417697E+00 0.66677862E+03</pdfrwt>
<totfact> 0.38363414E+00</totfact>
</mgrwt>
</event>
<event>
 5    1  0.2344661E-004  0.5842159E+03  0.7818608E-02  0.9938705E-01
         13   -1    0    0    0    0  0.00000000000E+00  0.00000000000E+00  0.10000000000E+04  0.10000000000E+04  0.00000000000E+00 0. -1.
          2   -1    0    0  501    0 -0.00000000000E+00 -0.00000000000E+00 -0.85327063917E+02  0.85327063917E+02  0.00000000000E+00 0. -1.
    9000006    2    1    2  501    0  0.00000000000E+00  0.00000000000E+00  0.91467293608E+03  0.10853270639E+04  0.58421593240E+03 0.  0.
         13    1    3    3    0    0  0.14688440629E+03 -0.25051909901E+03  0.39881834621E+03  0.49334665404E+03  0.00000000000E+00 0. -1.
          4    1    3    3  501    0 -0.14688440629E+03  0.25051909901E+03  0.51585458987E+03  0.59198040987E+03  0.00000000000E+00 0. -1.
<mgrwt>
<rscale>  0 0.58421593E+03</rscale>
<asrwt>0</asrwt>
<pdfrwt beam="1">0</pdfrwt>
<pdfrwt beam="2">  1        2 0.31028089E+00 0.58421593E+03</pdfrwt>
<totfact> 0.84822582E+00</totfact>
</mgrwt>
</event>
<event>
 5    1  0.2344661E-004  0.6405757E+03  0.7818608E-02  0.9824626E-01
         13   -1    0    0    0    0  0.00000000000E+00  0.00000000000E+00  0.10000000000E+04  0.10000000000E+04  0.00000000000E+00 0. -1.
          2   -1    0    0  501    0 -0.00000000000E+00 -0.00000000000E+00 -0.10258431571E+03  0.10258431571E+03  0.00000000000E+00 0. -1.
    9000006    2    1    2  501    0  0.00000000000E+00  0.00000000000E+00  0.89741568429E+03  0.11025843157E+04  0.64057572764E+03 0.  0.
         13    1    3    3    0    0 -0.12625058066E+03  0.19627843234E+03  0.82628317662E+03  0.85860836246E+03  0.00000000000E+00 0. -1.
          2    1    3    3  501    0  0.12625058066E+03 -0.19627843234E+03  0.71132507671E+02  0.24397595325E+03  0.00000000000E+00 0. -1.
<mgrwt>
<rscale>  0 0.64057573E+03</rscale>
<asrwt>0</asrwt>
<pdfrwt beam="1">0</pdfrwt>
<pdfrwt beam="2">  1        2 0.37303466E+00 0.64057573E+03</pdfrwt>
<totfact> 0.50180737E+00</totfact>
</mgrwt>
</event>
<event>
 5    1  0.2344661E-004  0.6567678E+03  0.7818608E-02  0.9794162E-01
         13   -1    0    0    0    0  0.00000000000E+00  0.00000000000E+00  0.10000000000E+04  0.10000000000E+04  0.00000000000E+00 0. -1.
          2   -1    0    0  501    0 -0.00000000000E+00 -0.00000000000E+00 -0.10783598901E+03  0.10783598901E+03  0.00000000000E+00 0. -1.
    9000006    2    1    2  501    0  0.00000000000E+00  0.00000000000E+00  0.89216401099E+03  0.11078359890E+04  0.65676780985E+03 0.  0.
         13    1    3    3    0    0  0.22846648964E+03 -0.13204672256E+03  0.77577576456E+03  0.81942742858E+03  0.00000000000E+00 0. -1.
          4    1    3    3  501    0 -0.22846648964E+03  0.13204672256E+03  0.11638824642E+03  0.28840856043E+03  0.00000000000E+00 0. -1.
<mgrwt>
<rscale>  0 0.65676781E+03</rscale>
<asrwt>0</asrwt>
<pdfrwt beam="1">0</pdfrwt>
<pdfrwt beam="2">  1        2 0.39213170E+00 0.65676781E+03</pdfrwt>
<totfact> 0.42596953E+00</totfact>
</mgrwt>
</event>
<event>
 5    1  0.2344661E-004  0.6324997E+03  0.7818608E-02  0.9840183E-01
         13   -1    0    0    0    0  0.00000000000E+00  0.00000000000E+00  0.10000000000E+04  0.10000000000E+04  0.00000000000E+00 0. -1.
          2   -1    0    0  501    0 -0.00000000000E+00 -0.00000000000E+00 -0.10001395686E+03  0.10001395686E+03  0.00000000000E+00 0. -1.
    9000006    2    1    2  501    0  0.00000000000E+00  0.00000000000E+00  0.89998604314E+03  0.11000139569E+04  0.63249966596E+03 0.  0.
         13    1    3    3    0    0  0.25789966131E+02 -0.25886232345E+03  0.13723959646E+03  0.29412502731E+03  0.00000000000E+00 0. -1.
          2    1    3    3  501    0 -0.25789966131E+02  0.25886232345E+03  0.76274644668E+03  0.80588892955E+03  0.00000000000E+00 0. -1.
<mgrwt>
<rscale>  0 0.63249967E+03</rscale>
<asrwt>0</asrwt>
<pdfrwt beam="1">0</pdfrwt>
<pdfrwt beam="2">  1        2 0.36368788E+00 0.63249967E+03</pdfrwt>
<totfact> 0.54324898E+00</totfact>
</mgrwt>
</event>
<event>
 5    1  0.2344661E-004  0.6471024E+03  0.7818608E-02  0.9812232E-01
         13   -1    0    0    0    0  0.00000000000E+00  0.00000000000E+00  0.10000000000E+04  0.10000000000E+04  0.00000000000E+00 0. -1.
          2   -1    0    0  501    0 -0.00000000000E+00 -0.00000000000E+00 -0.10468537994E+03  0.10468537994E+03  0.00000000000E+00 0. -1.
    9000006    2    1    2  501    0  0.00000000000E+00  0.00000000000E+00  0.89531462006E+03  0.11046853799E+04  0.64710240283E+03 0.  0.
         13    1    3    3    0    0  0.30612935390E+03 -0.99967913557E+02  0.50100643025E+03  0.59558056400E+03  0.00000000000E+00 0. -1.
          2    1    3    3  501    0 -0.30612935390E+03  0.99967913557E+02  0.39430818982E+03  0.50910481594E+03  0.00000000000E+00 0. -1.
<mgrwt>
<rscale>  0 0.64710240E+03</rscale>
<asrwt>0</asrwt>
<pdfrwt beam="1">0</pdfrwt>
<pdfrwt beam="2">  1        2 0.38067491E+00 0.64710240E+03</pdfrwt>
<totfact> 0.47010544E+00</totfact>
</mgrwt>
</event>
<event>
 5    1  0.2344661E-004  0.6347509E+03  0.7818608E-02  0.9835821E-01
         13   -1    0    0    0    0  0.00000000000E+00  0.00000000000E+00  0.10000000000E+04  0.10000000000E+04  0.00000000000E+00 0. -1.
          2   -1    0    0  501    0 -0.00000000000E+00 -0.00000000000E+00 -0.10072718022E+03  0.10072718022E+03  0.00000000000E+00 0. -1.
    9000006    2    1    2  501    0  0.00000000000E+00  0.00000000000E+00  0.89927281978E+03  0.11007271802E+04  0.63475091246E+03 0.  0.
         13    1    3    3    0    0  0.21977334843E+03  0.66148100431E+02  0.69509288435E+02  0.23980708298E+03  0.00000000000E+00 0. -1.
          4    1    3    3  501    0 -0.21977334843E+03 -0.66148100431E+02  0.82976353135E+03  0.86092009724E+03  0.00000000000E+00 0. -1.
<mgrwt>
<rscale>  0 0.63475091E+03</rscale>
<asrwt>0</asrwt>
<pdfrwt beam="1">0</pdfrwt>
<pdfrwt beam="2">  1        2 0.36628143E+00 0.63475091E+03</pdfrwt>
<totfact> 0.53144563E+00</totfact>
</mgrwt>
</event>
<event>
 5    1  0.2344661E-004  0.6499389E+03  0.7818608E-02  0.9806894E-01
         13   -1    0    0    0    0  0.00000000000E+00  0.00000000000E+00  0.10000000000E+04  0.10000000000E+04  0.00000000000E+00 0. -1.
          2   -1    0    0  501    0 -0.00000000000E+00 -0.00000000000E+00 -0.10560512763E+03  0.10560512763E+03  0.00000000000E+00 0. -1.
    9000006    2    1    2  501    0  0.00000000000E+00  0.00000000000E+00  0.89439487237E+03  0.11056051276E+04  0.64993885137E+03 0.  0.
         13    1    3    3    0    0 -0.22099125342E+03 -0.17135730862E+03  0.16559279712E+03  0.32499451651E+03  0.00000000000E+00 0. -1.
          2    1    3    3  501    0  0.22099125342E+03  0.17135730862E+03  0.72880207525E+03  0.78061061112E+03  0.00000000000E+00 0. -1.
<mgrwt>
<rscale>  0 0.64993885E+03</rscale>
<asrwt>0</asrwt>
<pdfrwt beam="1">0</pdfrwt>
<pdfrwt beam="2">  1        2 0.38401946E+00 0.64993885E+03</pdfrwt>
<totfact> 0.45681116E+00</totfact>
</mgrwt>
</event>
<event>
 5    1  0.2344661E-004  0.6613594E+03  0.7818608E-02  0.9785694E-01
         13   -1    0    0    0    0  0.00000000000E+00  0.00000000000E+00  0.10000000000E+04  0.10000000000E+04  0.00000000000E+00 0. -1.
          2   -1    0    0  501    0 -0.00000000000E+00 -0.00000000000E+00 -0.10934908017E+03  0.10934908017E+03  0.00000000000E+00 0. -1.
    9000006    2    1    2  501    0  0.00000000000E+00  0.00000000000E+00  0.89065091983E+03  0.11093490802E+04  0.66135944892E+03 0.  0.
         13    1    3    3    0    0  0.90709223857E+02 -0.31713544475E+03  0.40612983907E+03  0.52320598219E+03  0.00000000000E+00 0. -1.
          4    1    3    3  501    0 -0.90709223857E+02  0.31713544475E+03  0.48452108076E+03  0.58614309798E+03  0.00000000000E+00 0. -1.
<mgrwt>
<rscale>  0 0.66135945E+03</rscale>
<asrwt>0</asrwt>
<pdfrwt beam="1">0</pdfrwt>
<pdfrwt beam="2">  1        2 0.39763386E+00 0.66135945E+03</pdfrwt>
<totfact> 0.40613602E+00</totfact>
</mgrwt>
</event>
<event>
 5    1  0.2344661E-004  0.6489993E+03  0.7818608E-02  0.9808659E-01
         13   -1    0    0    0    0  0.00000000000E+00  0.00000000000E+00  0.10000000000E+04  0.10000000000E+04  0.00000000000E+00 0. -1.
          2   -1    0    0  501    0 -0.00000000000E+00 -0.00000000000E+00 -0.10530000715E+03  0.10530000715E+03  0.00000000000E+00 0. -1.
    9000006    2    1    2  501    0  0.00000000000E+00  0.00000000000E+00  0.89469999285E+03  0.11053000071E+04  0.64899925162E+03 0.  0.
         13    1    3    3    0    0  0.18619434780E+03  0.19397892541E+03  0.75674854299E+03  0.80309682852E+03  0.00000000000E+00 0. -1.
          4    1    3    3  501    0 -0.18619434780E+03 -0.19397892541E+03  0.13795144986E+03  0.30220317863E+03  0.00000000000E+00 0. -1.
<mgrwt>
<rscale>  0 0.64899925E+03</rscale>
<asrwt>0</asrwt>
<pdfrwt beam="1">0</pdfrwt>
<pdfrwt beam="2">  1        2 0.38290992E+00 0.64899925E+03</pdfrwt>
<totfact> 0.46118311E+00</totfact>
</mgrwt>
</event>
<event>
 5    1  0.2344661E-004  0.6554262E+03  0.7818608E-02  0.9796650E-01
         13   -1    0    0    0    0  0.00000000000E+00  0.00000000000E+00  0.10000000000E+04  0.10000000000E+04  0.00000000000E+00 0. -1.
          2   -1    0    0  501    0 -0.00000000000E+00 -0.00000000000E+00 -0.10739587338E+03  0.10739587338E+03  0.00000000000E+00 0. -1.
    9000006    2    1    2  501    0  0.00000000000E+00  0.00000000000E+00  0.89260412662E+03  0.11073958734E+04  0.65542619228E+03 0.  0.
         13    1    3    3    0    0 -0.23356436131E+03  0.21529548969E+03  0.31017364989E+03  0.44397314316E+03  0.00000000000E+00 0. -1.
          4    1    3    3  501    0  0.23356436131E+03 -0.21529548969E+03  0.58243047673E+03  0.66342273022E+03  0.00000000000E+00 0. -1.
<mgrwt>
<rscale>  0 0.65542619E+03</rscale>
<asrwt>0</asrwt>
<pdfrwt beam="1">0</pdfrwt>
<pdfrwt beam="2">  1        2 0.39053127E+00 0.65542619E+03</pdfrwt>
<totfact> 0.43190063E+00</totfact>
</mgrwt>
</event>
<event>
 5    1  0.2344661E-004  0.6530374E+03  0.7818608E-02  0.9801096E-01
         13   -1    0    0    0    0  0.00000000000E+00  0.00000000000E+00  0.10000000000E+04  0.10000000000E+04  0.00000000000E+00 0. -1.
          2   -1    0    0  501    0 -0.00000000000E+00 -0.00000000000E+00 -0.10661445241E+03  0.10661445241E+03  0.00000000000E+00 0. -1.
    9000006    2    1    2  501    0  0.00000000000E+00  0.00000000000E+00  0.89338554759E+03  0.11066144524E+04  0.65303737231E+03 0.  0.
         13    1    3    3    0    0  0.30943737731E+03  0.96874472397E+02  0.51184651741E+03  0.60590676780E+03  0.00000000000E+00 0. -1.
          4    1    3    3  501    0 -0.30943737731E+03 -0.96874472397E+02  0.38153903018E+03  0.50070768461E+03  0.00000000000E+00 0. -1.
<mgrwt>
<rscale>  0 0.65303737E+03</rscale>
<asrwt>0</asrwt>
<pdfrwt beam="1">0</pdfrwt>
<pdfrwt beam="2">  1        2 0.38768974E+00 0.65303737E+03</pdfrwt>
<totfact> 0.44261540E+00</totfact>
</mgrwt>
</event>
<event>
 5    1  0.2344661E-004  0.6645426E+03  0.7818608E-02  0.9779867E-01
         13   -1    0    0    0    0  0.00000000000E+00  0.00000000000E+00  0.10000000000E+04  0.10000000000E+04  0.00000000000E+00 0. -1.
          2   -1    0    0  501    0 -0.00000000000E+00 -0.00000000000E+00 -0.11040420736E+03  0.11040420736E+03  0.00000000000E+00 0. -1.
    9000006    2    1    2  501    0  0.00000000000E+00  0.00000000000E+00  0.88959579264E+03  0.11104042074E+04  0.66454257157E+03 0.  0.
         13    1    3    3    0    0  0.16907953503E+03  0.13412917731E+03  0.86693742698E+03  0.89339746343E+03  0.00000000000E+00 0. -1.
          2    1    3    3  501    0 -0.16907953503E+03 -0.13412917731E+03  0.22658365664E+02  0.21700674392E+03  0.00000000000E+00 0. -1.
<mgrwt>
<rscale>  0 0.66454257E+03</rscale>
<asrwt>0</asrwt>
<pdfrwt beam="1">0</pdfrwt>
<pdfrwt beam="2">  1        2 0.40147069E+00 0.66454257E+03</pdfrwt>
<totfact> 0.39280172E+00</totfact>
</mgrwt>
</event>
<event>
 5    1  0.2344661E-004  0.6617126E+03  0.7818608E-02  0.9785046E-01
         13   -1    0    0    0    0  0.00000000000E+00  0.00000000000E+00  0.10000000000E+04  0.10000000000E+04  0.00000000000E+00 0. -1.
          2   -1    0    0  501    0 -0.00000000000E+00 -0.00000000000E+00 -0.10946589622E+03  0.10946589622E+03  0.00000000000E+00 0. -1.
    9000006    2    1    2  501    0  0.00000000000E+00  0.00000000000E+00  0.89053410378E+03  0.11094658962E+04  0.66171261501E+03 0.  0.
         13    1    3    3    0    0 -0.27358661256E+03 -0.12960063309E+03  0.66908640267E+03  0.73438584743E+03  0.00000000000E+00 0. -1.
          4    1    3    3  501    0  0.27358661256E+03  0.12960063309E+03  0.22144770111E+03  0.37508004878E+03  0.00000000000E+00 0. -1.
<mgrwt>
<rscale>  0 0.66171262E+03</rscale>
<asrwt>0</asrwt>
<pdfrwt beam="1">0</pdfrwt>
<pdfrwt beam="2">  1        2 0.39805864E+00 0.66171262E+03</pdfrwt>
<totfact> 0.40463998E+00</totfact>
</mgrwt>
</event>
<event>
 5    1  0.2344661E-004  0.6479392E+03  0.7818608E-02  0.9810654E-01
         13   -1    0    0    0    0  0.00000000000E+00  0.00000000000E+00  0.10000000000E+04  0.10000000000E+04  0.00000000000E+00 0. -1.
          2   -1    0    0  501    0 -0.00000000000E+00 -0.00000000000E+00 -0.10495631623E+03  0.10495631623E+03  0.00000000000E+00 0. -1.
    9000006    2    1    2  501    0  0.00000000000E+00  0.00000000000E+00  0.89504368377E+03  0.11049563162E+04  0.64793924477E+03 0.  0.
         13    1    3    3    0    0  0.16525407474E+03 -0.50592191016E+02  0.91482166984E+03  0.93100331182E+03  0.00000000000E+00 0. -1.
          2    1    3    3  501    0 -0.16525407474E+03  0.50592191016E+02 -0.19777986068E+02  0.17395300441E+03  0.00000000000E+00 0. -1.
<mgrwt>
<rscale>  0 0.64793924E+03</rscale>
<asrwt>0</asrwt>
<pdfrwt beam="1">0</pdfrwt>
<pdfrwt beam="2">  1        2 0.38166014E+00 0.64793924E+03</pdfrwt>
<totfact> 0.46615319E+00</totfact>
</mgrwt>
</event>
<event>
 5    1  0.2344661E-004  0.5597414E+03  0.7818608E-02  0.9992640E-01
         13   -1    0    0    0    0  0.00000000000E+00  0.00000000000E+00  0.10000000000E+04  0.10000000000E+04  0.00000000000E+00 0. -1.
          2   -1    0    0  501    0 -0.00000000000E+00 -0.00000000000E+00 -0.78327600708E+02  0.78327600708E+02  0.00000000000E+00 0. -1.
    9000006    2    1    2  501    0  0.00000000000E+00  0.00000000000E+00  0.92167239929E+03  0.10783276007E+04  0.55974137138E+03 0.  0.
         13    1    3    3    0    0  0.20393779633E+03  0.14175164744E+03  0.70936970467E+03  0.75159133326E+03  0.00000000000E+00 0. -1.
          2    1    3    3  501    0 -0.20393779633E+03 -0.14175164744E+03  0.21230269462E+03  0.32673626745E+03  0.00000000000E+00 0. -1.
<mgrwt>
<rscale>  0 0.55974137E+03</rscale>
<asrwt>0</asrwt>
<pdfrwt beam="1">0</pdfrwt>
<pdfrwt beam="2">  1        2 0.28482824E+00 0.55974137E+03</pdfrwt>
<totfact> 0.10460773E+01</totfact>
</mgrwt>
</event>
<event>
 5    1  0.2344661E-004  0.5974450E+03  0.7818608E-02  0.9910721E-01
         13   -1    0    0    0    0  0.00000000000E+00  0.00000000000E+00  0.10000000000E+04  0.10000000000E+04  0.00000000000E+00 0. -1.
          2   -1    0    0  501    0 -0.00000000000E+00 -0.00000000000E+00 -0.89235143387E+02  0.89235143387E+02  0.00000000000E+00 0. -1.
    9000006    2    1    2  501    0  0.00000000000E+00  0.00000000000E+00  0.91076485661E+03  0.10892351434E+04  0.59744503810E+03 0.  0.
         13    1    3    3    0    0 -0.61501803958E+02  0.25699149543E+03  0.20139363379E+03  0.33224463328E+03  0.00000000000E+00 0. -1.
          2    1    3    3  501    0  0.61501803958E+02 -0.25699149543E+03  0.70937122282E+03  0.75699051010E+03  0.00000000000E+00 0. -1.
<mgrwt>
<rscale>  0 0.59744504E+03</rscale>
<asrwt>0</asrwt>
<pdfrwt beam="1">0</pdfrwt>
<pdfrwt beam="2">  1        2 0.32449211E+00 0.59744504E+03</pdfrwt>
<totfact> 0.75412765E+00</totfact>
</mgrwt>
</event>
<event>
 5    1  0.2344661E-004  0.6597243E+03  0.7818608E-02  0.9788701E-01
         13   -1    0    0    0    0  0.00000000000E+00  0.00000000000E+00  0.10000000000E+04  0.10000000000E+04  0.00000000000E+00 0. -1.
          2   -1    0    0  501    0 -0.00000000000E+00 -0.00000000000E+00 -0.10880905386E+03  0.10880905386E+03  0.00000000000E+00 0. -1.
    9000006    2    1    2  501    0  0.00000000000E+00  0.00000000000E+00  0.89119094614E+03  0.11088090539E+04  0.65972434807E+03 0.  0.
         13    1    3    3    0    0 -0.13419073638E+03  0.29123616667E+03  0.31558806476E+03  0.44991275279E+03  0.00000000000E+00 0. -1.
          4    1    3    3  501    0  0.13419073638E+03 -0.29123616667E+03  0.57560288138E+03  0.65889630107E+03  0.00000000000E+00 0. -1.
<mgrwt>
<rscale>  0 0.65972435E+03</rscale>
<asrwt>0</asrwt>
<pdfrwt beam="1">0</pdfrwt>
<pdfrwt beam="2">  1        2 0.39567012E+00 0.65972435E+03</pdfrwt>
<totfact> 0.41311687E+00</totfact>
</mgrwt>
</event>
<event>
 5    1  0.2344661E-004  0.6711427E+03  0.7818608E-02  0.9767896E-01
         13   -1    0    0    0    0  0.00000000000E+00  0.00000000000E+00  0.10000000000E+04  0.10000000000E+04  0.00000000000E+00 0. -1.
          2   -1    0    0  501    0 -0.00000000000E+00 -0.00000000000E+00 -0.11260811934E+03  0.11260811934E+03  0.00000000000E+00 0. -1.
    9000006    2    1    2  501    0  0.00000000000E+00  0.00000000000E+00  0.88739188066E+03  0.11126081193E+04  0.67114266542E+03 0.  0.
         13    1    3    3    0    0 -0.27304456265E+03  0.17202672891E+03  0.29120172024E+03  0.43467800786E+03  0.00000000000E+00 0. -1.
          4    1    3    3  501    0  0.27304456265E+03 -0.17202672891E+03  0.59619016043E+03  0.67793011147E+03  0.00000000000E+00 0. -1.
<mgrwt>
<rscale>  0 0.67114267E+03</rscale>
<asrwt>0</asrwt>
<pdfrwt beam="1">0</pdfrwt>
<pdfrwt beam="2">  1        2 0.40948493E+00 0.67114267E+03</pdfrwt>
<totfact> 0.36620752E+00</totfact>
</mgrwt>
</event>
<event>
 5    1  0.2344661E-004  0.5656601E+03  0.7818608E-02  0.9979328E-01
         13   -1    0    0    0    0  0.00000000000E+00  0.00000000000E+00  0.10000000000E+04  0.10000000000E+04  0.00000000000E+00 0. -1.
          2   -1    0    0  501    0 -0.00000000000E+00 -0.00000000000E+00 -0.79992850514E+02  0.79992850514E+02  0.00000000000E+00 0. -1.
    9000006    2    1    2  501    0  0.00000000000E+00  0.00000000000E+00  0.92000714949E+03  0.10799928505E+04  0.56566014713E+03 0.  0.
         13    1    3    3    0    0  0.27573893644E+03  0.54600447393E+02  0.40024399281E+03  0.48908938212E+03  0.00000000000E+00 0. -1.
          2    1    3    3  501    0 -0.27573893644E+03 -0.54600447393E+02  0.51976315668E+03  0.59090346840E+03  0.00000000000E+00 0. -1.
<mgrwt>
<rscale>  0 0.56566015E+03</rscale>
<asrwt>0</asrwt>
<pdfrwt beam="1">0</pdfrwt>
<pdfrwt beam="2">  1        2 0.29088371E+00 0.56566015E+03</pdfrwt>
<totfact> 0.99523989E+00</totfact>
</mgrwt>
</event>
<event>
 5    1  0.2344661E-004  0.6524595E+03  0.7818608E-02  0.9802175E-01
         13   -1    0    0    0    0  0.00000000000E+00  0.00000000000E+00  0.10000000000E+04  0.10000000000E+04  0.00000000000E+00 0. -1.
          2   -1    0    0  501    0 -0.00000000000E+00 -0.00000000000E+00 -0.10642584592E+03  0.10642584592E+03  0.00000000000E+00 0. -1.
    9000006    2    1    2  501    0  0.00000000000E+00  0.00000000000E+00  0.89357415408E+03  0.11064258459E+04  0.65245948816E+03 0.  0.
         13    1    3    3    0    0  0.26371115769E+03  0.29818050375E+02  0.12506658803E+03  0.29338429109E+03  0.00000000000E+00 0. -1.
          4    1    3    3  501    0 -0.26371115769E+03 -0.29818050375E+02  0.76850756604E+03  0.81304155483E+03  0.00000000000E+00 0. -1.
<mgrwt>
<rscale>  0 0.65245949E+03</rscale>
<asrwt>0</asrwt>
<pdfrwt beam="1">0</pdfrwt>
<pdfrwt beam="2">  1        2 0.38700389E+00 0.65245949E+03</pdfrwt>
<totfact> 0.44523731E+00</totfact>
</mgrwt>
</event>
<event>
 5    1  0.2344661E-004  0.6519845E+03  0.7818608E-02  0.9803063E-01
         13   -1    0    0    0    0  0.00000000000E+00  0.00000000000E+00  0.10000000000E+04  0.10000000000E+04  0.00000000000E+00 0. -1.
          2   -1    0    0  501    0 -0.00000000000E+00 -0.00000000000E+00 -0.10627094354E+03  0.10627094354E+03  0.00000000000E+00 0. -1.
    9000006    2    1    2  501    0  0.00000000000E+00  0.00000000000E+00  0.89372905646E+03  0.11062709435E+04  0.65198448919E+03 0.  0.
         13    1    3    3    0    0 -0.10857849445E+03  0.20125766774E+03  0.52653622734E+02  0.23466218755E+03  0.00000000000E+00 0. -1.
          4    1    3    3  501    0  0.10857849445E+03 -0.20125766774E+03  0.84107543373E+03  0.87160875598E+03  0.00000000000E+00 0. -1.
<mgrwt>
<rscale>  0 0.65198449E+03</rscale>
<asrwt>0</asrwt>
<pdfrwt beam="1">0</pdfrwt>
<pdfrwt beam="2">  1        2 0.38644061E+00 0.65198449E+03</pdfrwt>
<totfact> 0.44740120E+00</totfact>
</mgrwt>
</event>
<event>
 5    1  0.2344661E-004  0.6643429E+03  0.7818608E-02  0.9780232E-01
         13   -1    0    0    0    0  0.00000000000E+00  0.00000000000E+00  0.10000000000E+04  0.10000000000E+04  0.00000000000E+00 0. -1.
          2   -1    0    0  501    0 -0.00000000000E+00 -0.00000000000E+00 -0.11033786552E+03  0.11033786552E+03  0.00000000000E+00 0. -1.
    9000006    2    1    2  501    0  0.00000000000E+00  0.00000000000E+00  0.88966213448E+03  0.11103378655E+04  0.66434287991E+03 0.  0.
         13    1    3    3    0    0 -0.17998310116E+03 -0.12985863767E+03  0.31769481137E+02  0.22420187870E+03  0.00000000000E+00 0. -1.
          4    1    3    3  501    0  0.17998310116E+03  0.12985863767E+03  0.85789265334E+03  0.88613598682E+03  0.00000000000E+00 0. -1.
<mgrwt>
<rscale>  0 0.66434288E+03</rscale>
<asrwt>0</asrwt>
<pdfrwt beam="1">0</pdfrwt>
<pdfrwt beam="2">  1        2 0.40122945E+00 0.66434288E+03</pdfrwt>
<totfact> 0.39362840E+00</totfact>
</mgrwt>
</event>
<event>
 5    1  0.2344661E-004  0.6253253E+03  0.7818608E-02  0.9854214E-01
         13   -1    0    0    0    0  0.00000000000E+00  0.00000000000E+00  0.10000000000E+04  0.10000000000E+04  0.00000000000E+00 0. -1.
          2   -1    0    0  501    0 -0.00000000000E+00 -0.00000000000E+00 -0.97757937361E+02  0.97757937361E+02  0.00000000000E+00 0. -1.
    9000006    2    1    2  501    0  0.00000000000E+00  0.00000000000E+00  0.90224206264E+03  0.10977579374E+04  0.62532531489E+03 0.  0.
         13    1    3    3    0    0 -0.64815937352E+02  0.18444743481E+03  0.87946268812E+03  0.90093095281E+03  0.00000000000E+00 0. -1.
          4    1    3    3  501    0  0.64815937352E+02 -0.18444743481E+03  0.22779374524E+02  0.19682698455E+03  0.00000000000E+00 0. -1.
<mgrwt>
<rscale>  0 0.62532531E+03</rscale>
<asrwt>0</asrwt>
<pdfrwt beam="1">0</pdfrwt>
<pdfrwt beam="2">  1        2 0.35548416E+00 0.62532531E+03</pdfrwt>
<totfact> 0.58219634E+00</totfact>
</mgrwt>
</event>
<event>
 5    1  0.2344661E-004  0.6391886E+03  0.7818608E-02  0.9827280E-01
         13   -1    0    0    0    0  0.00000000000E+00  0.00000000000E+00  0.10000000000E+04  0.10000000000E+04  0.00000000000E+00 0. -1.
          2   -1    0    0  501    0 -0.00000000000E+00 -0.00000000000E+00 -0.10214050722E+03  0.10214050722E+03  0.00000000000E+00 0. -1.
    9000006    2    1    2  501    0  0.00000000000E+00  0.00000000000E+00  0.89785949278E+03  0.11021405072E+04  0.63918857067E+03 0.  0.
         13    1    3    3    0    0 -0.15902047486E+03  0.15985192333E+03  0.83947212164E+03  0.86922585777E+03  0.00000000000E+00 0. -1.
          2    1    3    3  501    0  0.15902047486E+03 -0.15985192333E+03  0.58387371144E+02  0.23291464944E+03  0.00000000000E+00 0. -1.
<mgrwt>
<rscale>  0 0.63918857E+03</rscale>
<asrwt>0</asrwt>
<pdfrwt beam="1">0</pdfrwt>
<pdfrwt beam="2">  1        2 0.37142081E+00 0.63918857E+03</pdfrwt>
<totfact> 0.50874903E+00</totfact>
</mgrwt>
</event>
<event>
 5    1  0.2344661E-004  0.6737950E+03  0.7818608E-02  0.9763126E-01
         13   -1    0    0    0    0  0.00000000000E+00  0.00000000000E+00  0.10000000000E+04  0.10000000000E+04  0.00000000000E+00 0. -1.
          2   -1    0    0  501    0 -0.00000000000E+00 -0.00000000000E+00 -0.11349993893E+03  0.11349993893E+03  0.00000000000E+00 0. -1.
    9000006    2    1    2  501    0  0.00000000000E+00  0.00000000000E+00  0.88650006107E+03  0.11134999389E+04  0.67379503984E+03 0.  0.
         13    1    3    3    0    0 -0.30542611534E+03  0.12896254323E+03  0.34432289083E+03  0.47799027463E+03  0.00000000000E+00 0. -1.
          4    1    3    3  501    0  0.30542611534E+03 -0.12896254323E+03  0.54217717024E+03  0.63550966430E+03  0.00000000000E+00 0. -1.
<mgrwt>
<rscale>  0 0.67379504E+03</rscale>
<asrwt>0</asrwt>
<pdfrwt beam="1">0</pdfrwt>
<pdfrwt beam="2">  1        2 0.41272792E+00 0.67379504E+03</pdfrwt>
<totfact> 0.35591183E+00</totfact>
</mgrwt>
</event>
<event>
 5    1  0.2344661E-004  0.6460958E+03  0.7818608E-02  0.9814133E-01
         13   -1    0    0    0    0  0.00000000000E+00  0.00000000000E+00  0.10000000000E+04  0.10000000000E+04  0.00000000000E+00 0. -1.
          2   -1    0    0  501    0 -0.00000000000E+00 -0.00000000000E+00 -0.10435996114E+03  0.10435996114E+03  0.00000000000E+00 0. -1.
    9000006    2    1    2  501    0  0.00000000000E+00  0.00000000000E+00  0.89564003886E+03  0.11043599611E+04  0.64609584780E+03 0.  0.
         13    1    3    3    0    0 -0.11830384623E+03  0.24332877698E+03  0.74952289139E+03  0.79686213265E+03  0.00000000000E+00 0. -1.
          2    1    3    3  501    0  0.11830384623E+03 -0.24332877698E+03  0.14611714748E+03  0.30749782849E+03  0.00000000000E+00 0. -1.
<mgrwt>
<rscale>  0 0.64609585E+03</rscale>
<asrwt>0</asrwt>
<pdfrwt beam="1">0</pdfrwt>
<pdfrwt beam="2">  1        2 0.37949157E+00 0.64609585E+03</pdfrwt>
<totfact> 0.47489272E+00</totfact>
</mgrwt>
</event>
<event>
 5    1  0.2344661E-004  0.6623820E+03  0.7818608E-02  0.9783819E-01
         13   -1    0    0    0    0  0.00000000000E+00  0.00000000000E+00  0.10000000000E+04  0.10000000000E+04  0.00000000000E+00 0. -1.
          2   -1    0    0  501    0 -0.00000000000E+00 -0.00000000000E+00 -0.10968747459E+03  0.10968747459E+03  0.00000000000E+00 0. -1.
    9000006    2    1    2  501    0  0.00000000000E+00  0.00000000000E+00  0.89031252541E+03  0.11096874746E+04  0.66238198826E+03 0.  0.
         13    1    3    3    0    0  0.27049797917E+03 -0.18273113679E+03  0.53884798204E+03  0.63001347036E+03  0.00000000000E+00 0. -1.
          4    1    3    3  501    0 -0.27049797917E+03  0.18273113679E+03  0.35146454337E+03  0.47967400423E+03  0.00000000000E+00 0. -1.
<mgrwt>
<rscale>  0 0.66238199E+03</rscale>
<asrwt>0</asrwt>
<pdfrwt beam="1">0</pdfrwt>
<pdfrwt beam="2">  1        2 0.39886439E+00 0.66238199E+03</pdfrwt>
<totfact> 0.40181589E+00</totfact>
</mgrwt>
</event>
<event>
 5    1  0.2344661E-004  0.6530789E+03  0.7818608E-02  0.9801019E-01
         13   -1    0    0    0    0  0.00000000000E+00  0.00000000000E+00  0.10000000000E+04  0.10000000000E+04  0.00000000000E+00 0. -1.
          2   -1    0    0  501    0 -0.00000000000E+00 -0.00000000000E+00 -0.10662802034E+03  0.10662802034E+03  0.00000000000E+00 0. -1.
    9000006    2    1    2  501    0  0.00000000000E+00  0.00000000000E+00  0.89337197966E+03  0.11066280203E+04  0.65307892430E+03 0.  0.
         13    1    3    3    0    0 -0.30413610084E+02  0.16724194163E+03 -0.25745862545E+02  0.17192354160E+03  0.00000000000E+00 0. -1.
          2    1    3    3  501    0  0.30413610084E+02 -0.16724194163E+03  0.91911784220E+03  0.93470447874E+03  0.00000000000E+00 0. -1.
<mgrwt>
<rscale>  0 0.65307892E+03</rscale>
<asrwt>0</asrwt>
<pdfrwt beam="1">0</pdfrwt>
<pdfrwt beam="2">  1        2 0.38773907E+00 0.65307892E+03</pdfrwt>
<totfact> 0.44242732E+00</totfact>
</mgrwt>
</event>
<event>
 5    1  0.2344661E-004  0.6438566E+03  0.7818608E-02  0.9818376E-01
         13   -1    0    0    0    0  0.00000000000E+00  0.00000000000E+00  0.10000000000E+04  0.10000000000E+04  0.00000000000E+00 0. -1.
          2   -1    0    0  501    0 -0.00000000000E+00 -0.00000000000E+00 -0.10363782763E+03  0.10363782763E+03  0.00000000000E+00 0. -1.
    9000006    2    1    2  501    0  0.00000000000E+00  0.00000000000E+00  0.89636217237E+03  0.11036378276E+04  0.64385659158E+03 0.  0.
         13    1    3    3    0    0 -0.29393620993E+03  0.84227376558E+02  0.62083053428E+03  0.69204284460E+03  0.00000000000E+00 0. -1.
          2    1    3    3  501    0  0.29393620993E+03 -0.84227376558E+02  0.27553163809E+03  0.41159498303E+03  0.00000000000E+00 0. -1.
<mgrwt>
<rscale>  0 0.64385659E+03</rscale>
<asrwt>0</asrwt>
<pdfrwt beam="1">0</pdfrwt>
<pdfrwt beam="2">  1        2 0.37686562E+00 0.64385659E+03</pdfrwt>
<totfact> 0.48567511E+00</totfact>
</mgrwt>
</event>
<event>
 5    1  0.2344661E-004  0.6365313E+03  0.7818608E-02  0.9832386E-01
         13   -1    0    0    0    0  0.00000000000E+00  0.00000000000E+00  0.10000000000E+04  0.10000000000E+04  0.00000000000E+00 0. -1.
          2   -1    0    0  501    0 -0.00000000000E+00 -0.00000000000E+00 -0.10129303239E+03  0.10129303239E+03  0.00000000000E+00 0. -1.
    9000006    2    1    2  501    0  0.00000000000E+00  0.00000000000E+00  0.89870696761E+03  0.11012930324E+04  0.63653132645E+03 0.  0.
         13    1    3    3    0    0  0.34384839088E+02  0.12334587348E+03 -0.54759670463E+02  0.13926644669E+03  0.00000000000E+00 0. -1.
          4    1    3    3  501    0 -0.34384839088E+02 -0.12334587348E+03  0.95346663808E+03  0.96202658570E+03  0.00000000000E+00 0. -1.
<mgrwt>
<rscale>  0 0.63653133E+03</rscale>
<asrwt>0</asrwt>
<pdfrwt beam="1">0</pdfrwt>
<pdfrwt beam="2">  1        2 0.36833908E+00 0.63653133E+03</pdfrwt>
<totfact> 0.52224939E+00</totfact>
</mgrwt>
</event>
<event>
 5    1  0.2344661E-004  0.6378983E+03  0.7818608E-02  0.9829756E-01
         13   -1    0    0    0    0  0.00000000000E+00  0.00000000000E+00  0.10000000000E+04  0.10000000000E+04  0.00000000000E+00 0. -1.
          2   -1    0    0  501    0 -0.00000000000E+00 -0.00000000000E+00 -0.10172855596E+03  0.10172855596E+03  0.00000000000E+00 0. -1.
    9000006    2    1    2  501    0  0.00000000000E+00  0.00000000000E+00  0.89827144404E+03  0.11017285560E+04  0.63789828643E+03 0.  0.
         13    1    3    3    0    0 -0.23935755306E+03 -0.14779020808E+03  0.18952344188E+03  0.33919480956E+03  0.00000000000E+00 0. -1.
          2    1    3    3  501    0  0.23935755306E+03  0.14779020808E+03  0.70874800217E+03  0.76253374639E+03  0.00000000000E+00 0. -1.
<mgrwt>
<rscale>  0 0.63789829E+03</rscale>
<asrwt>0</asrwt>
<pdfrwt beam="1">0</pdfrwt>
<pdfrwt beam="2">  1        2 0.36992280E+00 0.63789829E+03</pdfrwt>
<totfact> 0.51527098E+00</totfact>
</mgrwt>
</event>
<event>
 5    1  0.2344661E-004  0.6529709E+03  0.7818608E-02  0.9801220E-01
         13   -1    0    0    0    0  0.00000000000E+00  0.00000000000E+00  0.10000000000E+04  0.10000000000E+04  0.00000000000E+00 0. -1.
          2   -1    0    0  501    0 -0.00000000000E+00 -0.00000000000E+00 -0.10659275445E+03  0.10659275445E+03  0.00000000000E+00 0. -1.
    9000006    2    1    2  501    0  0.00000000000E+00  0.00000000000E+00  0.89340724555E+03  0.11065927544E+04  0.65297091649E+03 0.  0.
         13    1    3    3    0    0  0.19836072745E+03  0.22983791641E+03  0.24319572930E+03  0.38899435570E+03  0.00000000000E+00 0. -1.
          4    1    3    3  501    0 -0.19836072745E+03 -0.22983791641E+03  0.65021151625E+03  0.71759839874E+03  0.00000000000E+00 0. -1.
<mgrwt>
<rscale>  0 0.65297092E+03</rscale>
<asrwt>0</asrwt>
<pdfrwt beam="1">0</pdfrwt>
<pdfrwt beam="2">  1        2 0.38761083E+00 0.65297092E+03</pdfrwt>
<totfact> 0.44291632E+00</totfact>
</mgrwt>
</event>
<event>
 5    1  0.2344661E-004  0.6815155E+03  0.7818608E-02  0.9749376E-01
         13   -1    0    0    0    0  0.00000000000E+00  0.00000000000E+00  0.10000000000E+04  0.10000000000E+04  0.00000000000E+00 0. -1.
          2   -1    0    0  501    0 -0.00000000000E+00 -0.00000000000E+00 -0.11611585933E+03  0.11611585933E+03  0.00000000000E+00 0. -1.
    9000006    2    1    2  501    0  0.00000000000E+00  0.00000000000E+00  0.88388414067E+03  0.11161158593E+04  0.68151554446E+03 0.  0.
         13    1    3    3    0    0  0.19845325776E+03 -0.13827143213E+03  0.83503426233E+03  0.86935890386E+03  0.00000000000E+00 0. -1.
          2    1    3    3  501    0 -0.19845325776E+03  0.13827143213E+03  0.48849878339E+02  0.24675695547E+03  0.00000000000E+00 0. -1.
<mgrwt>
<rscale>  0 0.68151554E+03</rscale>
<asrwt>0</asrwt>
<pdfrwt beam="1">0</pdfrwt>
<pdfrwt beam="2">  1        2 0.42224038E+00 0.68151554E+03</pdfrwt>
<totfact> 0.32718356E+00</totfact>
</mgrwt>
</event>
<event>
 5    1  0.2344661E-004  0.6500751E+03  0.7818608E-02  0.9806638E-01
         13   -1    0    0    0    0  0.00000000000E+00  0.00000000000E+00  0.10000000000E+04  0.10000000000E+04  0.00000000000E+00 0. -1.
          2   -1    0    0  501    0 -0.00000000000E+00 -0.00000000000E+00 -0.10564939570E+03  0.10564939570E+03  0.00000000000E+00 0. -1.
    9000006    2    1    2  501    0  0.00000000000E+00  0.00000000000E+00  0.89435060430E+03  0.11056493957E+04  0.65007505937E+03 0.  0.
         13    1    3    3    0    0  0.11368290082E+03  0.15536222579E+03  0.89260435937E+03  0.91312855913E+03  0.00000000000E+00 0. -1.
          2    1    3    3  501    0 -0.11368290082E+03 -0.15536222579E+03  0.17462449304E+01  0.19252083657E+03  0.00000000000E+00 0. -1.
<mgrwt>
<rscale>  0 0.65007506E+03</rscale>
<asrwt>0</asrwt>
<pdfrwt beam="1">0</pdfrwt>
<pdfrwt beam="2">  1        2 0.38418043E+00 0.65007506E+03</pdfrwt>
<totfact> 0.45617999E+00</totfact>
</mgrwt>
</event>
<event>
 5    1  0.2344661E-004  0.6534625E+03  0.7818608E-02  0.9800304E-01
         13   -1    0    0    0    0  0.00000000000E+00  0.00000000000E+00  0.10000000000E+04  0.10000000000E+04  0.00000000000E+00 0. -1.
          2   -1    0    0  501    0 -0.00000000000E+00 -0.00000000000E+00 -0.10675332256E+03  0.10675332256E+03  0.00000000000E+00 0. -1.
    9000006    2    1    2  501    0  0.00000000000E+00  0.00000000000E+00  0.89324667744E+03  0.11067533226E+04  0.65346253928E+03 0.  0.
         13    1    3    3    0    0  0.15616031732E+02 -0.31726172347E+02 -0.10350290321E+03  0.10937669511E+03  0.00000000000E+00 0. -1.
          4    1    3    3  501    0 -0.15616031732E+02  0.31726172347E+02  0.99674958065E+03  0.99737662745E+03  0.00000000000E+00 0. -1.
<mgrwt>
<rscale>  0 0.65346254E+03</rscale>
<asrwt>0</asrwt>
<pdfrwt beam="1">0</pdfrwt>
<pdfrwt beam="2">  1        2 0.38819472E+00 0.65346254E+03</pdfrwt>
<totfact> 0.44069383E+00</totfact>
</mgrwt>
</event>
<event>
 5    1  0.2344661E-004  0.6615496E+03  0.7818608E-02  0.9785345E-01
         13   -1    0    0    0    0  0.00000000000E+00  0.00000000000E+00  0.10000000000E+04  0.10000000000E+04  0.00000000000E+00 0. -1.
          2   -1    0    0  501    0 -0.00000000000E+00 -0.00000000000E+00 -0.10941197464E+03  0.10941197464E+03  0.00000000000E+00 0. -1.
    9000006    2    1    2  501    0  0.00000000000E+00  0.00000000000E+00  0.89058802536E+03  0.11094119746E+04  0.66154961911E+03 0.  0.
         13    1    3    3    0    0 -0.20075568432E+03  0.15321618669E+03  0.87053777495E+02  0.26712619644E+03  0.00000000000E+00 0. -1.
          4    1    3    3  501    0  0.20075568432E+03 -0.15321618669E+03  0.80353424787E+03  0.84228577819E+03  0.00000000000E+00 0. -1.
<mgrwt>
<rscale>  0 0.66154962E+03</rscale>
<asrwt>0</asrwt>
<pdfrwt beam="1">0</pdfrwt>
<pdfrwt beam="2">  1        2 0.39786256E+00 0.66154962E+03</pdfrwt>
<totfact> 0.40532993E+00</totfact>
</mgrwt>
</event>
<event>
 5    1  0.2344661E-004  0.6201303E+03  0.7818608E-02  0.9864500E-01
         13   -1    0    0    0    0  0.00000000000E+00  0.00000000000E+00  0.10000000000E+04  0.10000000000E+04  0.00000000000E+00 0. -1.
          2   -1    0    0  501    0 -0.00000000000E+00 -0.00000000000E+00 -0.96140384953E+02  0.96140384953E+02  0.00000000000E+00 0. -1.
    9000006    2    1    2  501    0  0.00000000000E+00  0.00000000000E+00  0.90385961505E+03  0.10961403850E+04  0.62013026036E+03 0.  0.
         13    1    3    3    0    0  0.10115453484E+03 -0.27824930544E+02  0.96767426060E+03  0.97334471864E+03  0.00000000000E+00 0. -1.
          2    1    3    3  501    0 -0.10115453484E+03  0.27824930544E+02 -0.63814645550E+02  0.12279566632E+03  0.00000000000E+00 0. -1.
<mgrwt>
<rscale>  0 0.62013026E+03</rscale>
<asrwt>0</asrwt>
<pdfrwt beam="1">0</pdfrwt>
<pdfrwt beam="2">  1        2 0.34960214E+00 0.62013026E+03</pdfrwt>
<totfact> 0.61169904E+00</totfact>
</mgrwt>
</event>
<event>
 5    1  0.2344661E-004  0.6176337E+03  0.7818608E-02  0.9869482E-01
         13   -1    0    0    0    0  0.00000000000E+00  0.00000000000E+00  0.10000000000E+04  0.10000000000E+04  0.00000000000E+00 0. -1.
          2   -1    0    0  501    0 -0.00000000000E+00 -0.00000000000E+00 -0.95367837317E+02  0.95367837317E+02  0.00000000000E+00 0. -1.
    9000006    2    1    2  501    0  0.00000000000E+00  0.00000000000E+00  0.90463216268E+03  0.10953678373E+04  0.61763366915E+03 0.  0.
         13    1    3    3    0    0  0.13195149612E+02 -0.30846222127E+03  0.44044780882E+03  0.53788226056E+03  0.00000000000E+00 0. -1.
          4    1    3    3  501    0 -0.13195149612E+02  0.30846222127E+03  0.46418435386E+03  0.55748557676E+03  0.00000000000E+00 0. -1.
<mgrwt>
<rscale>  0 0.61763367E+03</rscale>
<asrwt>0</asrwt>
<pdfrwt beam="1">0</pdfrwt>
<pdfrwt beam="2">  1        2 0.34679287E+00 0.61763367E+03</pdfrwt>
<totfact> 0.62627530E+00</totfact>
</mgrwt>
</event>
<event>
 5    1  0.2344661E-004  0.6478182E+03  0.7818608E-02  0.9810882E-01
         13   -1    0    0    0    0  0.00000000000E+00  0.00000000000E+00  0.10000000000E+04  0.10000000000E+04  0.00000000000E+00 0. -1.
          2   -1    0    0  501    0 -0.00000000000E+00 -0.00000000000E+00 -0.10491711782E+03  0.10491711782E+03  0.00000000000E+00 0. -1.
    9000006    2    1    2  501    0  0.00000000000E+00  0.00000000000E+00  0.89508288218E+03  0.11049171178E+04  0.64781823940E+03 0.  0.
         13    1    3    3    0    0  0.11852205408E+03  0.21028009605E+03  0.79148500294E+02  0.25402693006E+03  0.00000000000E+00 0. -1.
          4    1    3    3  501    0 -0.11852205408E+03 -0.21028009605E+03  0.81593438188E+03  0.85089018776E+03  0.00000000000E+00 0. -1.
<mgrwt>
<rscale>  0 0.64781824E+03</rscale>
<asrwt>0</asrwt>
<pdfrwt beam="1">0</pdfrwt>
<pdfrwt beam="2">  1        2 0.38151760E+00 0.64781824E+03</pdfrwt>
<totfact> 0.46672312E+00</totfact>
</mgrwt>
</event>
<event>
 5    1  0.2344661E-004  0.6495624E+03  0.7818608E-02  0.9807601E-01
         13   -1    0    0    0    0  0.00000000000E+00  0.00000000000E+00  0.10000000000E+04  0.10000000000E+04  0.00000000000E+00 0. -1.
          2   -1    0    0  501    0 -0.00000000000E+00 -0.00000000000E+00 -0.10548283955E+03  0.10548283955E+03  0.00000000000E+00 0. -1.
    9000006    2    1    2  501    0  0.00000000000E+00  0.00000000000E+00  0.89451716045E+03  0.11054828396E+04  0.64956243596E+03 0.  0.
         13    1    3    3    0    0  0.22629033569E+02 -0.28831102273E+03  0.69881313307E+03  0.75629036351E+03  0.00000000000E+00 0. -1.
          4    1    3    3  501    0 -0.22629033569E+02  0.28831102273E+03  0.19570402738E+03  0.34919247604E+03  0.00000000000E+00 0. -1.
<mgrwt>
<rscale>  0 0.64956244E+03</rscale>
<asrwt>0</asrwt>
<pdfrwt beam="1">0</pdfrwt>
<pdfrwt beam="2">  1        2 0.38357477E+00 0.64956244E+03</pdfrwt>
<totfact> 0.45855884E+00</totfact>
</mgrwt>
</event>
<event>
 5    1  0.2344661E-004  0.6571621E+03  0.7818608E-02  0.9793432E-01
         13   -1    0    0    0    0  0.00000000000E+00  0.00000000000E+00  0.10000000000E+04  0.10000000000E+04  0.00000000000E+00 0. -1.
          2   -1    0    0  501    0 -0.00000000000E+00 -0.00000000000E+00 -0.10796552044E+03  0.10796552044E+03  0.00000000000E+00 0. -1.
    9000006    2    1    2  501    0  0.00000000000E+00  0.00000000000E+00  0.89203447956E+03  0.11079655204E+04  0.65716214268E+03 0.  0.
         13    1    3    3    0    0 -0.82843225408E+02  0.31232746415E+03  0.54652903697E+03  0.63490584586E+03  0.00000000000E+00 0. -1.
          4    1    3    3  501    0  0.82843225408E+02 -0.31232746415E+03  0.34550544258E+03  0.47305967458E+03  0.00000000000E+00 0. -1.
<mgrwt>
<rscale>  0 0.65716214E+03</rscale>
<asrwt>0</asrwt>
<pdfrwt beam="1">0</pdfrwt>
<pdfrwt beam="2">  1        2 0.39260272E+00 0.65716214E+03</pdfrwt>
<totfact> 0.42423800E+00</totfact>
</mgrwt>
</event>
<event>
 5    1  0.2344661E-004  0.6062614E+03  0.7818608E-02  0.9892500E-01
         13   -1    0    0    0    0  0.00000000000E+00  0.00000000000E+00  0.10000000000E+04  0.10000000000E+04  0.00000000000E+00 0. -1.
          2   -1    0    0  501    0 -0.00000000000E+00 -0.00000000000E+00 -0.91888225773E+02  0.91888225773E+02  0.00000000000E+00 0. -1.
    9000006    2    1    2  501    0  0.00000000000E+00  0.00000000000E+00  0.90811177423E+03  0.10918882258E+04  0.60626141481E+03 0.  0.
         13    1    3    3    0    0 -0.80785866564E+02  0.27582122060E+03  0.28051649524E+03  0.40161325435E+03  0.00000000000E+00 0. -1.
          4    1    3    3  501    0  0.80785866564E+02 -0.27582122060E+03  0.62759527899E+03  0.69027497142E+03  0.00000000000E+00 0. -1.
<mgrwt>
<rscale>  0 0.60626141E+03</rscale>
<asrwt>0</asrwt>
<pdfrwt beam="1">0</pdfrwt>
<pdfrwt beam="2">  1        2 0.33413971E+00 0.60626141E+03</pdfrwt>
<totfact> 0.69605566E+00</totfact>
</mgrwt>
</event>
<event>
 5    1  0.2344661E-004  0.6117617E+03  0.7818608E-02  0.9881300E-01
         13   -1    0    0    0    0  0.00000000000E+00  0.00000000000E+00  0.10000000000E+04  0.10000000000E+04  0.00000000000E+00 0. -1.
          2   -1    0    0  501    0 -0.00000000000E+00 -0.00000000000E+00 -0.93563095718E+02  0.93563095718E+02  0.00000000000E+00 0. -1.
    9000006    2    1    2  501    0  0.00000000000E+00  0.00000000000E+00  0.90643690428E+03  0.10935630957E+04  0.61176170432E+03 0.  0.
         13    1    3    3    0    0 -0.16078260361E+03  0.19349588239E+03  0.14220600810E+03  0.28898832306E+03  0.00000000000E+00 0. -1.
          2    1    3    3  501    0  0.16078260361E+03 -0.19349588239E+03  0.76423089618E+03  0.80457477266E+03  0.00000000000E+00 0. -1.
<mgrwt>
<rscale>  0 0.61176170E+03</rscale>
<asrwt>0</asrwt>
<pdfrwt beam="1">0</pdfrwt>
<pdfrwt beam="2">  1        2 0.34023016E+00 0.61176170E+03</pdfrwt>
<totfact> 0.66160182E+00</totfact>
</mgrwt>
</event>
<event>
 5    1  0.2344661E-004  0.6650385E+03  0.7818608E-02  0.9778963E-01
         13   -1    0    0    0    0  0.00000000000E+00  0.00000000000E+00  0.10000000000E+04  0.10000000000E+04  0.00000000000E+00 0. -1.
          2   -1    0    0  501    0 -0.00000000000E+00 -0.00000000000E+00 -0.11056905126E+03  0.11056905126E+03  0.00000000000E+00 0. -1.
    9000006    2    1    2  501    0  0.00000000000E+00  0.00000000000E+00  0.88943094874E+03  0.11105690513E+04  0.66503849891E+03 0.  0.
         13    1    3    3    0    0  0.54402288275E+01 -0.25233412690E+03  0.80623528044E+03  0.84481798934E+03  0.00000000000E+00 0. -1.
          2    1    3    3  501    0 -0.54402288275E+01  0.25233412690E+03  0.83195668305E+02  0.26575106192E+03  0.00000000000E+00 0. -1.
<mgrwt>
<rscale>  0 0.66503850E+03</rscale>
<asrwt>0</asrwt>
<pdfrwt beam="1">0</pdfrwt>
<pdfrwt beam="2">  1        2 0.40207013E+00 0.66503850E+03</pdfrwt>
<totfact> 0.39075437E+00</totfact>
</mgrwt>
</event>
<event>
 5    1  0.2344661E-004  0.6531551E+03  0.7818608E-02  0.9800877E-01
         13   -1    0    0    0    0  0.00000000000E+00  0.00000000000E+00  0.10000000000E+04  0.10000000000E+04  0.00000000000E+00 0. -1.
          2   -1    0    0  501    0 -0.00000000000E+00 -0.00000000000E+00 -0.10665289476E+03  0.10665289476E+03  0.00000000000E+00 0. -1.
    9000006    2    1    2  501    0  0.00000000000E+00  0.00000000000E+00  0.89334710524E+03  0.11066528948E+04  0.65315509570E+03 0.  0.
         13    1    3    3    0    0 -0.16161174718E+03 -0.19114707681E+03  0.80206607067E+03  0.84021755725E+03  0.00000000000E+00 0. -1.
          2    1    3    3  501    0  0.16161174718E+03  0.19114707681E+03  0.91281034573E+02  0.26643533751E+03  0.00000000000E+00 0. -1.
<mgrwt>
<rscale>  0 0.65315510E+03</rscale>
<asrwt>0</asrwt>
<pdfrwt beam="1">0</pdfrwt>
<pdfrwt beam="2">  1        2 0.38782953E+00 0.65315510E+03</pdfrwt>
<totfact> 0.44208271E+00</totfact>
</mgrwt>
</event>
<event>
 5    1  0.2344661E-004  0.6487662E+03  0.7818608E-02  0.9809097E-01
         13   -1    0    0    0    0  0.00000000000E+00  0.00000000000E+00  0.10000000000E+04  0.10000000000E+04  0.00000000000E+00 0. -1.
          2   -1    0    0  501    0 -0.00000000000E+00 -0.00000000000E+00 -0.10522440303E+03  0.10522440303E+03  0.00000000000E+00 0. -1.
    9000006    2    1    2  501    0  0.00000000000E+00  0.00000000000E+00  0.89477559697E+03  0.11052244030E+04  0.64876622302E+03 0.  0.
         13    1    3    3    0    0  0.17913648355E+03  0.26762312175E+03  0.51363901316E+03  0.60624834093E+03  0.00000000000E+00 0. -1.
          2    1    3    3  501    0 -0.17913648355E+03 -0.26762312175E+03  0.38113658381E+03  0.49897606210E+03  0.00000000000E+00 0. -1.
<mgrwt>
<rscale>  0 0.64876622E+03</rscale>
<asrwt>0</asrwt>
<pdfrwt beam="1">0</pdfrwt>
<pdfrwt beam="2">  1        2 0.38263500E+00 0.64876622E+03</pdfrwt>
<totfact> 0.46227226E+00</totfact>
</mgrwt>
</event>
<event>
 5    1  0.2344661E-004  0.6600043E+03  0.7818608E-02  0.9788186E-01
         13   -1    0    0    0    0  0.00000000000E+00  0.00000000000E+00  0.10000000000E+04  0.10000000000E+04  0.00000000000E+00 0. -1.
          2   -1    0    0  501    0 -0.00000000000E+00 -0.00000000000E+00 -0.10890143037E+03  0.10890143037E+03  0.00000000000E+00 0. -1.
    9000006    2    1    2  501    0  0.00000000000E+00  0.00000000000E+00  0.89109856963E+03  0.11089014304E+04  0.66000433445E+03 0.  0.
         13    1    3    3    0    0 -0.23520616722E+02  0.18004086317E+03 -0.17431387189E+02  0.18240555113E+03  0.00000000000E+00 0. -1.
          4    1    3    3  501    0  0.23520616722E+02 -0.18004086317E+03  0.90852995682E+03  0.92649587924E+03  0.00000000000E+00 0. -1.
<mgrwt>
<rscale>  0 0.66000433E+03</rscale>
<asrwt>0</asrwt>
<pdfrwt beam="1">0</pdfrwt>
<pdfrwt beam="2">  1        2 0.39600604E+00 0.66000433E+03</pdfrwt>
<totfact> 0.41191513E+00</totfact>
</mgrwt>
</event>
<event>
 5    1  0.2344661E-004  0.5993537E+03  0.7818608E-02  0.9906748E-01
         13   -1    0    0    0    0  0.00000000000E+00  0.00000000000E+00  0.10000000000E+04  0.10000000000E+04  0.00000000000E+00 0. -1.
          2   -1    0    0  501    0 -0.00000000000E+00 -0.00000000000E+00 -0.89806201764E+02  0.89806201764E+02  0.00000000000E+00 0. -1.
    9000006    2    1    2  501    0  0.00000000000E+00  0.00000000000E+00  0.91019379824E+03  0.10898062018E+04  0.59935365775E+03 0.  0.
         13    1    3    3    0    0 -0.22220471165E+02 -0.24993081042E+03  0.15716682854E+03  0.29607527983E+03  0.00000000000E+00 0. -1.
          4    1    3    3  501    0  0.22220471165E+02  0.24993081042E+03  0.75302696970E+03  0.79373092193E+03  0.00000000000E+00 0. -1.
<mgrwt>
<rscale>  0 0.59935366E+03</rscale>
<asrwt>0</asrwt>
<pdfrwt beam="1">0</pdfrwt>
<pdfrwt beam="2">  1        2 0.32656870E+00 0.59935366E+03</pdfrwt>
<totfact> 0.74125224E+00</totfact>
</mgrwt>
</event>
<event>
 5    1  0.2344661E-004  0.5860888E+03  0.7818608E-02  0.9934695E-01
         13   -1    0    0    0    0  0.00000000000E+00  0.00000000000E+00  0.10000000000E+04  0.10000000000E+04  0.00000000000E+00 0. -1.
          2   -1    0    0  501    0 -0.00000000000E+00 -0.00000000000E+00 -0.85875010847E+02  0.85875010847E+02  0.00000000000E+00 0. -1.
    9000006    2    1    2  501    0  0.00000000000E+00  0.00000000000E+00  0.91412498915E+03  0.10858750108E+04  0.58608876750E+03 0.  0.
         13    1    3    3    0    0  0.14659860127E+03  0.19087019982E+03  0.14730187255E+03  0.28217091404E+03  0.00000000000E+00 0. -1.
          4    1    3    3  501    0 -0.14659860127E+03 -0.19087019982E+03  0.76682311660E+03  0.80370409681E+03  0.00000000000E+00 0. -1.
<mgrwt>
<rscale>  0 0.58608877E+03</rscale>
<asrwt>0</asrwt>
<pdfrwt beam="1">0</pdfrwt>
<pdfrwt beam="2">  1        2 0.31227343E+00 0.58608877E+03</pdfrwt>
<totfact> 0.83438168E+00</totfact>
</mgrwt>
</event>
<event>
 5    1  0.2344661E-004  0.6465392E+03  0.7818608E-02  0.9813295E-01
         13   -1    0    0    0    0  0.00000000000E+00  0.00000000000E+00  0.10000000000E+04  0.10000000000E+04  0.00000000000E+00 0. -1.
          2   -1    0    0  501    0 -0.00000000000E+00 -0.00000000000E+00 -0.10450322121E+03  0.10450322121E+03  0.00000000000E+00 0. -1.
    9000006    2    1    2  501    0  0.00000000000E+00  0.00000000000E+00  0.89549677879E+03  0.11045032212E+04  0.64653915956E+03 0.  0.
         13    1    3    3    0    0 -0.16990797766E+03  0.26026003576E+03  0.29591611573E+03  0.42915073650E+03  0.00000000000E+00 0. -1.
          4    1    3    3  501    0  0.16990797766E+03 -0.26026003576E+03  0.59958066306E+03  0.67535248471E+03  0.00000000000E+00 0. -1.
<mgrwt>
<rscale>  0 0.64653916E+03</rscale>
<asrwt>0</asrwt>
<pdfrwt beam="1">0</pdfrwt>
<pdfrwt beam="2">  1        2 0.38001251E+00 0.64653916E+03</pdfrwt>
<totfact> 0.47277976E+00</totfact>
</mgrwt>
</event>
<event>
 5    1  0.2344661E-004  0.6586406E+03  0.7818608E-02  0.9790699E-01
         13   -1    0    0    0    0  0.00000000000E+00  0.00000000000E+00  0.10000000000E+04  0.10000000000E+04  0.00000000000E+00 0. -1.
          2   -1    0    0  501    0 -0.00000000000E+00 -0.00000000000E+00 -0.10845185854E+03  0.10845185854E+03  0.00000000000E+00 0. -1.
    9000006    2    1    2  501    0  0.00000000000E+00  0.00000000000E+00  0.89154814146E+03  0.11084518585E+04  0.65864059559E+03 0.  0.
         13    1    3    3    0    0  0.29046375493E+03  0.13444937691E+03  0.57619945148E+03  0.65912945296E+03  0.00000000000E+00 0. -1.
          4    1    3    3  501    0 -0.29046375493E+03 -0.13444937691E+03  0.31534868999E+03  0.44932240558E+03  0.00000000000E+00 0. -1.
<mgrwt>
<rscale>  0 0.65864060E+03</rscale>
<asrwt>0</asrwt>
<pdfrwt beam="1">0</pdfrwt>
<pdfrwt beam="2">  1        2 0.39437123E+00 0.65864060E+03</pdfrwt>
<totfact> 0.41779347E+00</totfact>
</mgrwt>
</event>
<event>
 5    1  0.2344661E-004  0.6448968E+03  0.7818608E-02  0.9816402E-01
         13   -1    0    0    0    0  0.00000000000E+00  0.00000000000E+00  0.10000000000E+04  0.10000000000E+04  0.00000000000E+00 0. -1.
          2   -1    0    0  501    0 -0.00000000000E+00 -0.00000000000E+00 -0.10397298067E+03  0.10397298067E+03  0.00000000000E+00 0. -1.
    9000006    2    1    2  501    0  0.00000000000E+00  0.00000000000E+00  0.89602701933E+03  0.11039729807E+04  0.64489683104E+03 0.  0.
         13    1    3    3    0    0  0.22304656041E+03 -0.15478047111E+02  0.50273486790E+02  0.22916535848E+03  0.00000000000E+00 0. -1.
          2    1    3    3  501    0 -0.22304656041E+03  0.15478047111E+02  0.84575353254E+03  0.87480762220E+03  0.00000000000E+00 0. -1.
<mgrwt>
<rscale>  0 0.64489683E+03</rscale>
<asrwt>0</asrwt>
<pdfrwt beam="1">0</pdfrwt>
<pdfrwt beam="2">  1        2 0.37808436E+00 0.64489683E+03</pdfrwt>
<totfact> 0.48064340E+00</totfact>
</mgrwt>
</event>
<event>
 5    1  0.2344661E-004  0.6545959E+03  0.7818608E-02  0.9798193E-01
         13   -1    0    0    0    0  0.00000000000E+00  0.00000000000E+00  0.10000000000E+04  0.10000000000E+04  0.00000000000E+00 0. -1.
          2   -1    0    0  501    0 -0.00000000000E+00 -0.00000000000E+00 -0.10712393685E+03  0.10712393685E+03  0.00000000000E+00 0. -1.
    9000006    2    1    2  501    0  0.00000000000E+00  0.00000000000E+00  0.89287606315E+03  0.11071239369E+04  0.65459586572E+03 0.  0.
         13    1    3    3    0    0 -0.18813065393E+03  0.19015424174E+03  0.76542878212E+03  0.81082242143E+03  0.00000000000E+00 0. -1.
          2    1    3    3  501    0  0.18813065393E+03 -0.19015424174E+03  0.12744728103E+03  0.29630151542E+03  0.00000000000E+00 0. -1.
<mgrwt>
<rscale>  0 0.65459587E+03</rscale>
<asrwt>0</asrwt>
<pdfrwt beam="1">0</pdfrwt>
<pdfrwt beam="2">  1        2 0.38954241E+00 0.65459587E+03</pdfrwt>
<totfact> 0.43560249E+00</totfact>
</mgrwt>
</event>
<event>
 5    1  0.2344661E-004  0.6559241E+03  0.7818608E-02  0.9795726E-01
         13   -1    0    0    0    0  0.00000000000E+00  0.00000000000E+00  0.10000000000E+04  0.10000000000E+04  0.00000000000E+00 0. -1.
          2   -1    0    0  501    0 -0.00000000000E+00 -0.00000000000E+00 -0.10755911213E+03  0.10755911213E+03  0.00000000000E+00 0. -1.
    9000006    2    1    2  501    0  0.00000000000E+00  0.00000000000E+00  0.89244088787E+03  0.11075591121E+04  0.65592411795E+03 0.  0.
         13    1    3    3    0    0  0.23872467831E+03 -0.20023966646E+02  0.82442752468E+03  0.85852849383E+03  0.00000000000E+00 0. -1.
          4    1    3    3  501    0 -0.23872467831E+03  0.20023966646E+02  0.68013363193E+02  0.24903061829E+03  0.00000000000E+00 0. -1.
<mgrwt>
<rscale>  0 0.65592412E+03</rscale>
<asrwt>0</asrwt>
<pdfrwt beam="1">0</pdfrwt>
<pdfrwt beam="2">  1        2 0.39112487E+00 0.65592412E+03</pdfrwt>
<totfact> 0.42969214E+00</totfact>
</mgrwt>
</event>
<event>
 5    1  0.2344661E-004  0.6537132E+03  0.7818608E-02  0.9799836E-01
         13   -1    0    0    0    0  0.00000000000E+00  0.00000000000E+00  0.10000000000E+04  0.10000000000E+04  0.00000000000E+00 0. -1.
          2   -1    0    0  501    0 -0.00000000000E+00 -0.00000000000E+00 -0.10683524982E+03  0.10683524982E+03  0.00000000000E+00 0. -1.
    9000006    2    1    2  501    0  0.00000000000E+00  0.00000000000E+00  0.89316475018E+03  0.11068352498E+04  0.65371323935E+03 0.  0.
         13    1    3    3    0    0 -0.21876802248E+03 -0.24262955870E+03  0.46407184760E+03  0.56753081867E+03  0.00000000000E+00 0. -1.
          4    1    3    3  501    0  0.21876802248E+03  0.24262955870E+03  0.42909290258E+03  0.53930443115E+03  0.00000000000E+00 0. -1.
<mgrwt>
<rscale>  0 0.65371324E+03</rscale>
<asrwt>0</asrwt>
<pdfrwt beam="1">0</pdfrwt>
<pdfrwt beam="2">  1        2 0.38849264E+00 0.65371324E+03</pdfrwt>
<totfact> 0.43956374E+00</totfact>
</mgrwt>
</event>
<event>
 5    1  0.2344661E-004  0.6388302E+03  0.7818608E-02  0.9827967E-01
         13   -1    0    0    0    0  0.00000000000E+00  0.00000000000E+00  0.10000000000E+04  0.10000000000E+04  0.00000000000E+00 0. -1.
          2   -1    0    0  501    0 -0.00000000000E+00 -0.00000000000E+00 -0.10202601185E+03  0.10202601185E+03  0.00000000000E+00 0. -1.
    9000006    2    1    2  501    0  0.00000000000E+00  0.00000000000E+00  0.89797398815E+03  0.11020260118E+04  0.63883021797E+03 0.  0.
         13    1    3    3    0    0  0.20941573545E+03  0.14477844372E+03  0.78175209217E+03  0.82216305051E+03  0.00000000000E+00 0. -1.
          4    1    3    3  501    0 -0.20941573545E+03 -0.14477844372E+03  0.11622189599E+03  0.27986296133E+03  0.00000000000E+00 0. -1.
<mgrwt>
<rscale>  0 0.63883022E+03</rscale>
<asrwt>0</asrwt>
<pdfrwt beam="1">0</pdfrwt>
<pdfrwt beam="2">  1        2 0.37100446E+00 0.63883022E+03</pdfrwt>
<totfact> 0.51055407E+00</totfact>
</mgrwt>
</event>
<event>
 5    1  0.2344661E-004  0.6477727E+03  0.7818608E-02  0.9810968E-01
         13   -1    0    0    0    0  0.00000000000E+00  0.00000000000E+00  0.10000000000E+04  0.10000000000E+04  0.00000000000E+00 0. -1.
          2   -1    0    0  501    0 -0.00000000000E+00 -0.00000000000E+00 -0.10490235842E+03  0.10490235842E+03  0.00000000000E+00 0. -1.
    9000006    2    1    2  501    0  0.00000000000E+00  0.00000000000E+00  0.89509764158E+03  0.11049023584E+04  0.64777267131E+03 0.  0.
         13    1    3    3    0    0 -0.97817060204E+02 -0.27114575077E+03  0.69947340809E+03  0.75653899044E+03  0.00000000000E+00 0. -1.
          2    1    3    3  501    0  0.97817060204E+02  0.27114575077E+03  0.19562423349E+03  0.34836336799E+03  0.00000000000E+00 0. -1.
<mgrwt>
<rscale>  0 0.64777267E+03</rscale>
<asrwt>0</asrwt>
<pdfrwt beam="1">0</pdfrwt>
<pdfrwt beam="2">  1        2 0.38146393E+00 0.64777267E+03</pdfrwt>
<totfact> 0.46693788E+00</totfact>
</mgrwt>
</event>
<event>
 5    1  0.2344661E-004  0.6604018E+03  0.7818608E-02  0.9787454E-01
         13   -1    0    0    0    0  0.00000000000E+00  0.00000000000E+00  0.10000000000E+04  0.10000000000E+04  0.00000000000E+00 0. -1.
          2   -1    0    0  501    0 -0.00000000000E+00 -0.00000000000E+00 -0.10903262932E+03  0.10903262932E+03  0.00000000000E+00 0. -1.
    9000006    2    1    2  501    0  0.00000000000E+00  0.00000000000E+00  0.89096737068E+03  0.11090326293E+04  0.66040178473E+03 0.  0.
         13    1    3    3    0    0 -0.21098858136E+03 -0.24751022000E+03  0.54129589247E+03  0.63148929815E+03  0.00000000000E+00 0. -1.
          4    1    3    3  501    0  0.21098858136E+03  0.24751022000E+03  0.34967147821E+03  0.47754333117E+03  0.00000000000E+00 0. -1.
<mgrwt>
<rscale>  0 0.66040178E+03</rscale>
<asrwt>0</asrwt>
<pdfrwt beam="1">0</pdfrwt>
<pdfrwt beam="2">  1        2 0.39648312E+00 0.66040178E+03</pdfrwt>
<totfact> 0.41021375E+00</totfact>
</mgrwt>
</event>
<event>
 5    1  0.2344661E-004  0.6319334E+03  0.7818608E-02  0.9841283E-01
         13   -1    0    0    0    0  0.00000000000E+00  0.00000000000E+00  0.10000000000E+04  0.10000000000E+04  0.00000000000E+00 0. -1.
          2   -1    0    0  501    0 -0.00000000000E+00 -0.00000000000E+00 -0.99834948343E+02  0.99834948343E+02  0.00000000000E+00 0. -1.
    9000006    2    1    2  501    0  0.00000000000E+00  0.00000000000E+00  0.90016505166E+03  0.10998349483E+04  0.63193337732E+03 0.  0.
         13    1    3    3    0    0  0.15573883868E+03  0.69857747637E+02 -0.12689096032E+02  0.17115987829E+03  0.00000000000E+00 0. -1.
          4    1    3    3  501    0 -0.15573883868E+03 -0.69857747637E+02  0.91285414769E+03  0.92867507005E+03  0.00000000000E+00 0. -1.
<mgrwt>
<rscale>  0 0.63193338E+03</rscale>
<asrwt>0</asrwt>
<pdfrwt beam="1">0</pdfrwt>
<pdfrwt beam="2">  1        2 0.36303694E+00 0.63193338E+03</pdfrwt>
<totfact> 0.54624909E+00</totfact>
</mgrwt>
</event>
<event>
 5    1  0.2344661E-004  0.6520857E+03  0.7818608E-02  0.9802873E-01
         13   -1    0    0    0    0  0.00000000000E+00  0.00000000000E+00  0.10000000000E+04  0.10000000000E+04  0.00000000000E+00 0. -1.
          2   -1    0    0  501    0 -0.00000000000E+00 -0.00000000000E+00 -0.10630392386E+03  0.10630392386E+03  0.00000000000E+00 0. -1.
    9000006    2    1    2  501    0  0.00000000000E+00  0.00000000000E+00  0.89369607614E+03  0.11063039239E+04  0.65208565038E+03 0.  0.
         13    1    3    3    0    0  0.14055882053E+03 -0.28690393733E+03  0.55723249509E+03  0.64232289767E+03  0.00000000000E+00 0. -1.
          2    1    3    3  501    0 -0.14055882053E+03  0.28690393733E+03  0.33646358105E+03  0.46398102619E+03  0.00000000000E+00 0. -1.
<mgrwt>
<rscale>  0 0.65208565E+03</rscale>
<asrwt>0</asrwt>
<pdfrwt beam="1">0</pdfrwt>
<pdfrwt beam="2">  1        2 0.38656054E+00 0.65208565E+03</pdfrwt>
<totfact> 0.44693969E+00</totfact>
</mgrwt>
</event>
<event>
 5    1  0.2344661E-004  0.6401070E+03  0.7818608E-02  0.9825522E-01
         13   -1    0    0    0    0  0.00000000000E+00  0.00000000000E+00  0.10000000000E+04  0.10000000000E+04  0.00000000000E+00 0. -1.
          2   -1    0    0  501    0 -0.00000000000E+00 -0.00000000000E+00 -0.10243423069E+03  0.10243423069E+03  0.00000000000E+00 0. -1.
    9000006    2    1    2  501    0  0.00000000000E+00  0.00000000000E+00  0.89756576931E+03  0.11024342307E+04  0.64010696198E+03 0.  0.
         13    1    3    3    0    0 -0.20538280162E+03 -0.17994830822E+03  0.16125868490E+03  0.31712434831E+03  0.00000000000E+00 0. -1.
          2    1    3    3  501    0  0.20538280162E+03  0.17994830822E+03  0.73630708440E+03  0.78530988239E+03  0.00000000000E+00 0. -1.
<mgrwt>
<rscale>  0 0.64010696E+03</rscale>
<asrwt>0</asrwt>
<pdfrwt beam="1">0</pdfrwt>
<pdfrwt beam="2">  1        2 0.37248890E+00 0.64010696E+03</pdfrwt>
<totfact> 0.50414511E+00</totfact>
</mgrwt>
</event>
<event>
 5    1  0.2344661E-004  0.6563576E+03  0.7818608E-02  0.9794922E-01
         13   -1    0    0    0    0  0.00000000000E+00  0.00000000000E+00  0.10000000000E+04  0.10000000000E+04  0.00000000000E+00 0. -1.
          2   -1    0    0  501    0 -0.00000000000E+00 -0.00000000000E+00 -0.10770133704E+03  0.10770133704E+03  0.00000000000E+00 0. -1.
    9000006    2    1    2  501    0  0.00000000000E+00  0.00000000000E+00  0.89229866296E+03  0.11077013370E+04  0.65635763740E+03 0.  0.
         13    1    3    3    0    0 -0.37007010549E+02 -0.94342535621E+02 -0.80633236182E+02  0.12950579769E+03  0.00000000000E+00 0. -1.
          4    1    3    3  501    0  0.37007010549E+02  0.94342535621E+02  0.97293189914E+03  0.97819553936E+03  0.00000000000E+00 0. -1.
<mgrwt>
<rscale>  0 0.65635764E+03</rscale>
<asrwt>0</asrwt>
<pdfrwt beam="1">0</pdfrwt>
<pdfrwt beam="2">  1        2 0.39164205E+00 0.65635764E+03</pdfrwt>
<totfact> 0.42777627E+00</totfact>
</mgrwt>
</event>
<event>
 5    1  0.2344661E-004  0.6461181E+03  0.7818608E-02  0.9814091E-01
         13   -1    0    0    0    0  0.00000000000E+00  0.00000000000E+00  0.10000000000E+04  0.10000000000E+04  0.00000000000E+00 0. -1.
          2   -1    0    0  501    0 -0.00000000000E+00 -0.00000000000E+00 -0.10436715976E+03  0.10436715976E+03  0.00000000000E+00 0. -1.
    9000006    2    1    2  501    0  0.00000000000E+00  0.00000000000E+00  0.89563284024E+03  0.11043671598E+04  0.64611813087E+03 0.  0.
         13    1    3    3    0    0 -0.16463373232E+03  0.27450812605E+03  0.37315237258E+03  0.49163164081E+03  0.00000000000E+00 0. -1.
          2    1    3    3  501    0  0.16463373232E+03 -0.27450812605E+03  0.52248046766E+03  0.61273551895E+03  0.00000000000E+00 0. -1.
<mgrwt>
<rscale>  0 0.64611813E+03</rscale>
<asrwt>0</asrwt>
<pdfrwt beam="1">0</pdfrwt>
<pdfrwt beam="2">  1        2 0.37951774E+00 0.64611813E+03</pdfrwt>
<totfact> 0.47478635E+00</totfact>
</mgrwt>
</event>
<event>
 5    1  0.2344661E-004  0.6552763E+03  0.7818608E-02  0.9796929E-01
         13   -1    0    0    0    0  0.00000000000E+00  0.00000000000E+00  0.10000000000E+04  0.10000000000E+04  0.00000000000E+00 0. -1.
          2   -1    0    0  501    0 -0.00000000000E+00 -0.00000000000E+00 -0.10734675152E+03  0.10734675152E+03  0.00000000000E+00 0. -1.
    9000006    2    1    2  501    0  0.00000000000E+00  0.00000000000E+00  0.89265324848E+03  0.11073467515E+04  0.65527628224E+03 0.  0.
         13    1    3    3    0    0  0.11083425081E+03 -0.28352868287E+03  0.65103402241E+03  0.71869189747E+03  0.00000000000E+00 0. -1.
          4    1    3    3  501    0 -0.11083425081E+03  0.28352868287E+03  0.24161922608E+03  0.38865485404E+03  0.00000000000E+00 0. -1.
<mgrwt>
<rscale>  0 0.65527628E+03</rscale>
<asrwt>0</asrwt>
<pdfrwt beam="1">0</pdfrwt>
<pdfrwt beam="2">  1        2 0.39035265E+00 0.65527628E+03</pdfrwt>
<totfact> 0.43256721E+00</totfact>
</mgrwt>
</event>
<event>
 5    1  0.2344661E-004  0.6734636E+03  0.7818608E-02  0.9763721E-01
         13   -1    0    0    0    0  0.00000000000E+00  0.00000000000E+00  0.10000000000E+04  0.10000000000E+04  0.00000000000E+00 0. -1.
          2   -1    0    0  501    0 -0.00000000000E+00 -0.00000000000E+00 -0.11338831038E+03  0.11338831038E+03  0.00000000000E+00 0. -1.
    9000006    2    1    2  501    0  0.00000000000E+00  0.00000000000E+00  0.88661168962E+03  0.11133883104E+04  0.67346361559E+03 0.  0.
         13    1    3    3    0    0  0.77523590021E+02  0.30835911777E+03  0.26000583740E+03  0.41072897147E+03  0.00000000000E+00 0. -1.
          2    1    3    3  501    0 -0.77523590021E+02 -0.30835911777E+03  0.62660585222E+03  0.70265933891E+03  0.00000000000E+00 0. -1.
<mgrwt>
<rscale>  0 0.67346362E+03</rscale>
<asrwt>0</asrwt>
<pdfrwt beam="1">0</pdfrwt>
<pdfrwt beam="2">  1        2 0.41232200E+00 0.67346362E+03</pdfrwt>
<totfact> 0.35718615E+00</totfact>
</mgrwt>
</event>
<event>
 5    1  0.2344661E-004  0.6468342E+03  0.7818608E-02  0.9812738E-01
         13   -1    0    0    0    0  0.00000000000E+00  0.00000000000E+00  0.10000000000E+04  0.10000000000E+04  0.00000000000E+00 0. -1.
          2   -1    0    0  501    0 -0.00000000000E+00 -0.00000000000E+00 -0.10459862651E+03  0.10459862651E+03  0.00000000000E+00 0. -1.
    9000006    2    1    2  501    0  0.00000000000E+00  0.00000000000E+00  0.89540137349E+03  0.11045986265E+04  0.64683421836E+03 0.  0.
         13    1    3    3    0    0 -0.16124432055E+03  0.18461395985E+03  0.87393922604E+02  0.26023017271E+03  0.00000000000E+00 0. -1.
          4    1    3    3  501    0  0.16124432055E+03 -0.18461395985E+03  0.80800745088E+03  0.84436845380E+03  0.00000000000E+00 0. -1.
<mgrwt>
<rscale>  0 0.64683422E+03</rscale>
<asrwt>0</asrwt>
<pdfrwt beam="1">0</pdfrwt>
<pdfrwt beam="2">  1        2 0.38035944E+00 0.64683422E+03</pdfrwt>
<totfact> 0.47137737E+00</totfact>
</mgrwt>
</event>
<event>
 5    1  0.2344661E-004  0.7255392E+03  0.7818608E-02  0.9674527E-01
         13   -1    0    0    0    0  0.00000000000E+00  0.00000000000E+00  0.10000000000E+04  0.10000000000E+04  0.00000000000E+00 0. -1.
          2   -1    0    0  501    0 -0.00000000000E+00 -0.00000000000E+00 -0.13160176947E+03  0.13160176947E+03  0.00000000000E+00 0. -1.
    9000006    2    1    2  501    0  0.00000000000E+00  0.00000000000E+00  0.86839823053E+03  0.11316017695E+04  0.72553916357E+03 0.  0.
         13    1    3    3    0    0  0.31822315054E+03 -0.14677338797E+03  0.58045400503E+03  0.67803779608E+03  0.00000000000E+00 0. -1.
          2    1    3    3  501    0 -0.31822315054E+03  0.14677338797E+03  0.28794422550E+03  0.45356397339E+03  0.00000000000E+00 0. -1.
<mgrwt>
<rscale>  0 0.72553916E+03</rscale>
<asrwt>0</asrwt>
<pdfrwt beam="1">0</pdfrwt>
<pdfrwt beam="2">  1        2 0.47855290E+00 0.72553916E+03</pdfrwt>
<totfact> 0.19519527E+00</totfact>
</mgrwt>
</event>
<event>
 5    1  0.2344661E-004  0.6459459E+03  0.7818608E-02  0.9814416E-01
         13   -1    0    0    0    0  0.00000000000E+00  0.00000000000E+00  0.10000000000E+04  0.10000000000E+04  0.00000000000E+00 0. -1.
          2   -1    0    0  501    0 -0.00000000000E+00 -0.00000000000E+00 -0.10431151717E+03  0.10431151717E+03  0.00000000000E+00 0. -1.
    9000006    2    1    2  501    0  0.00000000000E+00  0.00000000000E+00  0.89568848283E+03  0.11043115172E+04  0.64594587134E+03 0.  0.
         13    1    3    3    0    0 -0.16183901543E+03 -0.27766286004E+03  0.50252448078E+03  0.59650598031E+03  0.00000000000E+00 0. -1.
          4    1    3    3  501    0  0.16183901543E+03  0.27766286004E+03  0.39316400204E+03  0.50780553686E+03  0.00000000000E+00 0. -1.
<mgrwt>
<rscale>  0 0.64594587E+03</rscale>
<asrwt>0</asrwt>
<pdfrwt beam="1">0</pdfrwt>
<pdfrwt beam="2">  1        2 0.37931541E+00 0.64594587E+03</pdfrwt>
<totfact> 0.47560917E+00</totfact>
</mgrwt>
</event>
<event>
 5    1  0.2344661E-004  0.6399166E+03  0.7818608E-02  0.9825886E-01
         13   -1    0    0    0    0  0.00000000000E+00  0.00000000000E+00  0.10000000000E+04  0.10000000000E+04  0.00000000000E+00 0. -1.
          2   -1    0    0  501    0 -0.00000000000E+00 -0.00000000000E+00 -0.10237332235E+03  0.10237332235E+03  0.00000000000E+00 0. -1.
    9000006    2    1    2  501    0  0.00000000000E+00  0.00000000000E+00  0.89762667765E+03  0.11023733223E+04  0.63991662691E+03 0.  0.
         13    1    3    3    0    0  0.12638527576E+03 -0.26975224598E+03  0.24766617095E+03  0.38739907637E+03  0.00000000000E+00 0. -1.
          4    1    3    3  501    0 -0.12638527576E+03  0.26975224598E+03  0.64996050671E+03  0.71497424598E+03  0.00000000000E+00 0. -1.
<mgrwt>
<rscale>  0 0.63991663E+03</rscale>
<asrwt>0</asrwt>
<pdfrwt beam="1">0</pdfrwt>
<pdfrwt beam="2">  1        2 0.37226741E+00 0.63991663E+03</pdfrwt>
<totfact> 0.50509666E+00</totfact>
</mgrwt>
</event>
<event>
 5    1  0.2344661E-004  0.6495745E+03  0.7818608E-02  0.9807578E-01
         13   -1    0    0    0    0  0.00000000000E+00  0.00000000000E+00  0.10000000000E+04  0.10000000000E+04  0.00000000000E+00 0. -1.
          2   -1    0    0  501    0 -0.00000000000E+00 -0.00000000000E+00 -0.10548676170E+03  0.10548676170E+03  0.00000000000E+00 0. -1.
    9000006    2    1    2  501    0  0.00000000000E+00  0.00000000000E+00  0.89451323830E+03  0.11054867617E+04  0.64957451211E+03 0.  0.
         13    1    3    3    0    0 -0.28567219158E+03  0.11306335017E+03  0.62651731691E+03  0.69779357304E+03  0.00000000000E+00 0. -1.
          2    1    3    3  501    0  0.28567219158E+03 -0.11306335017E+03  0.26799592139E+03  0.40769318865E+03  0.00000000000E+00 0. -1.
<mgrwt>
<rscale>  0 0.64957451E+03</rscale>
<asrwt>0</asrwt>
<pdfrwt beam="1">0</pdfrwt>
<pdfrwt beam="2">  1        2 0.38358903E+00 0.64957451E+03</pdfrwt>
<totfact> 0.45850269E+00</totfact>
</mgrwt>
</event>
<event>
 5    1  0.2344661E-004  0.6277137E+03  0.7818608E-02  0.9849521E-01
         13   -1    0    0    0    0  0.00000000000E+00  0.00000000000E+00  0.10000000000E+04  0.10000000000E+04  0.00000000000E+00 0. -1.
          2   -1    0    0  501    0 -0.00000000000E+00 -0.00000000000E+00 -0.98506125263E+02  0.98506125263E+02  0.00000000000E+00 0. -1.
    9000006    2    1    2  501    0  0.00000000000E+00  0.00000000000E+00  0.90149387474E+03  0.10985061253E+04  0.62771370947E+03 0.  0.
         13    1    3    3    0    0  0.28047183516E+03  0.12081630432E+03  0.32400580845E+03  0.44524239872E+03  0.00000000000E+00 0. -1.
          2    1    3    3  501    0 -0.28047183516E+03 -0.12081630432E+03  0.57748806629E+03  0.65326372654E+03  0.00000000000E+00 0. -1.
<mgrwt>
<rscale>  0 0.62771371E+03</rscale>
<asrwt>0</asrwt>
<pdfrwt beam="1">0</pdfrwt>
<pdfrwt beam="2">  1        2 0.35820485E+00 0.62771371E+03</pdfrwt>
<totfact> 0.56900212E+00</totfact>
</mgrwt>
</event>
<event>
 5    1  0.2344661E-004  0.6408969E+03  0.7818608E-02  0.9824012E-01
         13   -1    0    0    0    0  0.00000000000E+00  0.00000000000E+00  0.10000000000E+04  0.10000000000E+04  0.00000000000E+00 0. -1.
          2   -1    0    0  501    0 -0.00000000000E+00 -0.00000000000E+00 -0.10268721391E+03  0.10268721391E+03  0.00000000000E+00 0. -1.
    9000006    2    1    2  501    0  0.00000000000E+00  0.00000000000E+00  0.89731278609E+03  0.11026872139E+04  0.64089691498E+03 0.  0.
         13    1    3    3    0    0  0.18477229486E+03  0.22160646560E+03  0.68852788363E+03  0.74653926426E+03  0.00000000000E+00 0. -1.
          2    1    3    3  501    0 -0.18477229486E+03 -0.22160646560E+03  0.20878490246E+03  0.35614794965E+03  0.00000000000E+00 0. -1.
<mgrwt>
<rscale>  0 0.64089691E+03</rscale>
<asrwt>0</asrwt>
<pdfrwt beam="1">0</pdfrwt>
<pdfrwt beam="2">  1        2 0.37340884E+00 0.64089691E+03</pdfrwt>
<totfact> 0.50021035E+00</totfact>
</mgrwt>
</event>
<event>
 5    1  0.2344661E-004  0.6517914E+03  0.7818608E-02  0.9803424E-01
         13   -1    0    0    0    0  0.00000000000E+00  0.00000000000E+00  0.10000000000E+04  0.10000000000E+04  0.00000000000E+00 0. -1.
          2   -1    0    0  501    0 -0.00000000000E+00 -0.00000000000E+00 -0.10620801397E+03  0.10620801397E+03  0.00000000000E+00 0. -1.
    9000006    2    1    2  501    0  0.00000000000E+00  0.00000000000E+00  0.89379198603E+03  0.11062080140E+04  0.65179142054E+03 0.  0.
         13    1    3    3    0    0  0.22998111302E+03  0.96284599565E+02  0.80308563597E+03  0.84089748196E+03  0.00000000000E+00 0. -1.
          2    1    3    3  501    0 -0.22998111302E+03 -0.96284599565E+02  0.90706350055E+02  0.26531053202E+03  0.00000000000E+00 0. -1.
<mgrwt>
<rscale>  0 0.65179142E+03</rscale>
<asrwt>0</asrwt>
<pdfrwt beam="1">0</pdfrwt>
<pdfrwt beam="2">  1        2 0.38621177E+00 0.65179142E+03</pdfrwt>
<totfact> 0.44828300E+00</totfact>
</mgrwt>
</event>
<event>
 5    1  0.2344661E-004  0.6600513E+03  0.7818608E-02  0.9788099E-01
         13   -1    0    0    0    0  0.00000000000E+00  0.00000000000E+00  0.10000000000E+04  0.10000000000E+04  0.00000000000E+00 0. -1.
          2   -1    0    0  501    0 -0.00000000000E+00 -0.00000000000E+00 -0.10891692344E+03  0.10891692344E+03  0.00000000000E+00 0. -1.
    9000006    2    1    2  501    0  0.00000000000E+00  0.00000000000E+00  0.89108307656E+03  0.11089169234E+04  0.66005128117E+03 0.  0.
         13    1    3    3    0    0 -0.21513821560E+03 -0.14587293670E+03  0.10389441075E+03  0.27992394335E+03  0.00000000000E+00 0. -1.
          2    1    3    3  501    0  0.21513821560E+03  0.14587293670E+03  0.78718866581E+03  0.82899298010E+03  0.00000000000E+00 0. -1.
<mgrwt>
<rscale>  0 0.66005128E+03</rscale>
<asrwt>0</asrwt>
<pdfrwt beam="1">0</pdfrwt>
<pdfrwt beam="2">  1        2 0.39606237E+00 0.66005128E+03</pdfrwt>
<totfact> 0.41171389E+00</totfact>
</mgrwt>
</event>
<event>
 5    1  0.2344661E-004  0.6529559E+03  0.7818608E-02  0.9801248E-01
         13   -1    0    0    0    0  0.00000000000E+00  0.00000000000E+00  0.10000000000E+04  0.10000000000E+04  0.00000000000E+00 0. -1.
          2   -1    0    0  501    0 -0.00000000000E+00 -0.00000000000E+00 -0.10658783783E+03  0.10658783783E+03  0.00000000000E+00 0. -1.
    9000006    2    1    2  501    0  0.00000000000E+00  0.00000000000E+00  0.89341216217E+03  0.11065878378E+04  0.65295585711E+03 0.  0.
         13    1    3    3    0    0  0.89908432271E+02  0.23470839411E+03  0.93581148400E+02  0.26819580123E+03  0.00000000000E+00 0. -1.
          2    1    3    3  501    0 -0.89908432271E+02 -0.23470839411E+03  0.79983101377E+03  0.83839203661E+03  0.00000000000E+00 0. -1.
<mgrwt>
<rscale>  0 0.65295586E+03</rscale>
<asrwt>0</asrwt>
<pdfrwt beam="1">0</pdfrwt>
<pdfrwt beam="2">  1        2 0.38759295E+00 0.65295586E+03</pdfrwt>
<totfact> 0.44298453E+00</totfact>
</mgrwt>
</event>
<event>
 5    1  0.2344661E-004  0.6654924E+03  0.7818608E-02  0.9778135E-01
         13   -1    0    0    0    0  0.00000000000E+00  0.00000000000E+00  0.10000000000E+04  0.10000000000E+04  0.00000000000E+00 0. -1.
          2   -1    0    0  501    0 -0.00000000000E+00 -0.00000000000E+00 -0.11072003942E+03  0.11072003942E+03  0.00000000000E+00 0. -1.
    9000006    2    1    2  501    0  0.00000000000E+00  0.00000000000E+00  0.88927996058E+03  0.11107200394E+04  0.66549241746E+03 0.  0.
         13    1    3    3    0    0 -0.59149627091E+02 -0.14371267447E+03  0.93570642447E+03  0.94852439293E+03  0.00000000000E+00 0. -1.
          2    1    3    3  501    0  0.59149627091E+02  0.14371267447E+03 -0.46426463897E+02  0.16219564649E+03  0.00000000000E+00 0. -1.
<mgrwt>
<rscale>  0 0.66549242E+03</rscale>
<asrwt>0</asrwt>
<pdfrwt beam="1">0</pdfrwt>
<pdfrwt beam="2">  1        2 0.40261917E+00 0.66549242E+03</pdfrwt>
<totfact> 0.38888751E+00</totfact>
</mgrwt>
</event>
<event>
 5    1  0.2344661E-004  0.6413076E+03  0.7818608E-02  0.9823228E-01
         13   -1    0    0    0    0  0.00000000000E+00  0.00000000000E+00  0.10000000000E+04  0.10000000000E+04  0.00000000000E+00 0. -1.
          2   -1    0    0  501    0 -0.00000000000E+00 -0.00000000000E+00 -0.10281887074E+03  0.10281887074E+03  0.00000000000E+00 0. -1.
    9000006    2    1    2  501    0  0.00000000000E+00  0.00000000000E+00  0.89718112926E+03  0.11028188707E+04  0.64130763520E+03 0.  0.
         13    1    3    3    0    0  0.15130184235E+03 -0.24074116018E+03  0.19369871996E+03  0.34404614199E+03  0.00000000000E+00 0. -1.
          2    1    3    3  501    0 -0.15130184235E+03  0.24074116018E+03  0.70348240930E+03  0.75877272875E+03  0.00000000000E+00 0. -1.
<mgrwt>
<rscale>  0 0.64130764E+03</rscale>
<asrwt>0</asrwt>
<pdfrwt beam="1">0</pdfrwt>
<pdfrwt beam="2">  1        2 0.37388759E+00 0.64130764E+03</pdfrwt>
<totfact> 0.49817377E+00</totfact>
</mgrwt>
</event>
<event>
 5    1  0.2344661E-004  0.6435188E+03  0.7818608E-02  0.9819017E-01
         13   -1    0    0    0    0  0.00000000000E+00  0.00000000000E+00  0.10000000000E+04  0.10000000000E+04  0.00000000000E+00 0. -1.
          2   -1    0    0  501    0 -0.00000000000E+00 -0.00000000000E+00 -0.10352910426E+03  0.10352910426E+03  0.00000000000E+00 0. -1.
    9000006    2    1    2  501    0  0.00000000000E+00  0.00000000000E+00  0.89647089574E+03  0.11035291043E+04  0.64351877752E+03 0.  0.
         13    1    3    3    0    0 -0.25105354179E+03  0.18868668395E+03  0.32821459002E+03  0.45426353876E+03  0.00000000000E+00 0. -1.
          2    1    3    3  501    0  0.25105354179E+03 -0.18868668395E+03  0.56825630572E+03  0.64926556549E+03  0.00000000000E+00 0. -1.
<mgrwt>
<rscale>  0 0.64351878E+03</rscale>
<asrwt>0</asrwt>
<pdfrwt beam="1">0</pdfrwt>
<pdfrwt beam="2">  1        2 0.37647026E+00 0.64351878E+03</pdfrwt>
<totfact> 0.48731768E+00</totfact>
</mgrwt>
</event>
<event>
 5    1  0.2344661E-004  0.6571587E+03  0.7818608E-02  0.9793438E-01
         13   -1    0    0    0    0  0.00000000000E+00  0.00000000000E+00  0.10000000000E+04  0.10000000000E+04  0.00000000000E+00 0. -1.
          2   -1    0    0  501    0 -0.00000000000E+00 -0.00000000000E+00 -0.10796438289E+03  0.10796438289E+03  0.00000000000E+00 0. -1.
    9000006    2    1    2  501    0  0.00000000000E+00  0.00000000000E+00  0.89203561711E+03  0.11079643829E+04  0.65715868065E+03 0.  0.
         13    1    3    3    0    0  0.22315010938E+03  0.19363561504E+03  0.20360015845E+03  0.35880878926E+03  0.00000000000E+00 0. -1.
          4    1    3    3  501    0 -0.22315010938E+03 -0.19363561504E+03  0.68843545866E+03  0.74915559363E+03  0.00000000000E+00 0. -1.
<mgrwt>
<rscale>  0 0.65715868E+03</rscale>
<asrwt>0</asrwt>
<pdfrwt beam="1">0</pdfrwt>
<pdfrwt beam="2">  1        2 0.39259858E+00 0.65715868E+03</pdfrwt>
<totfact> 0.42425318E+00</totfact>
</mgrwt>
</event>
<event>
 5    1  0.2344661E-004  0.6463718E+03  0.7818608E-02  0.9813611E-01
         13   -1    0    0    0    0  0.00000000000E+00  0.00000000000E+00  0.10000000000E+04  0.10000000000E+04  0.00000000000E+00 0. -1.
          2   -1    0    0  501    0 -0.00000000000E+00 -0.00000000000E+00 -0.10444913082E+03  0.10444913082E+03  0.00000000000E+00 0. -1.
    9000006    2    1    2  501    0  0.00000000000E+00  0.00000000000E+00  0.89555086918E+03  0.11044491308E+04  0.64637181505E+03 0.  0.
         13    1    3    3    0    0  0.18882369597E+03 -0.24373648347E+03  0.61332686791E+03  0.68646318797E+03  0.00000000000E+00 0. -1.
          2    1    3    3  501    0 -0.18882369597E+03  0.24373648347E+03  0.28222400126E+03  0.41798594285E+03  0.00000000000E+00 0. -1.
<mgrwt>
<rscale>  0 0.64637182E+03</rscale>
<asrwt>0</asrwt>
<pdfrwt beam="1">0</pdfrwt>
<pdfrwt beam="2">  1        2 0.37981582E+00 0.64637182E+03</pdfrwt>
<totfact> 0.47357654E+00</totfact>
</mgrwt>
</event>
<event>
 5    1  0.2344661E-004  0.5177654E+03  0.7818608E-02  0.1009243E+00
         13   -1    0    0    0    0  0.00000000000E+00  0.00000000000E+00  0.10000000000E+04  0.10000000000E+04  0.00000000000E+00 0. -1.
          2   -1    0    0  501    0 -0.00000000000E+00 -0.00000000000E+00 -0.67020243148E+02  0.67020243148E+02  0.00000000000E+00 0. -1.
    9000006    2    1    2  501    0  0.00000000000E+00  0.00000000000E+00  0.93297975685E+03  0.10670202431E+04  0.51776536442E+03 0.  0.
         13    1    3    3    0    0 -0.11098694327E+03  0.20195931653E+03  0.22339564725E+03  0.32095370744E+03  0.00000000000E+00 0. -1.
          4    1    3    3  501    0  0.11098694327E+03 -0.20195931653E+03  0.70958410960E+03  0.74606653571E+03  0.00000000000E+00 0. -1.
<mgrwt>
<rscale>  0 0.51776536E+03</rscale>
<asrwt>0</asrwt>
<pdfrwt beam="1">0</pdfrwt>
<pdfrwt beam="2">  1        2 0.24371049E+00 0.51776536E+03</pdfrwt>
<totfact> 0.14685854E+01</totfact>
</mgrwt>
</event>
<event>
 5    1  0.2344661E-004  0.6505783E+03  0.7818608E-02  0.9805695E-01
         13   -1    0    0    0    0  0.00000000000E+00  0.00000000000E+00  0.10000000000E+04  0.10000000000E+04  0.00000000000E+00 0. -1.
          2   -1    0    0  501    0 -0.00000000000E+00 -0.00000000000E+00 -0.10581301539E+03  0.10581301539E+03  0.00000000000E+00 0. -1.
    9000006    2    1    2  501    0  0.00000000000E+00  0.00000000000E+00  0.89418698461E+03  0.11058130154E+04  0.65057825167E+03 0.  0.
         13    1    3    3    0    0  0.66419212390E+02  0.16960015259E+03 -0.11008286541E+02  0.18247439795E+03  0.00000000000E+00 0. -1.
          4    1    3    3  501    0 -0.66419212390E+02 -0.16960015259E+03  0.90519527115E+03  0.92333861744E+03  0.00000000000E+00 0. -1.
<mgrwt>
<rscale>  0 0.65057825E+03</rscale>
<asrwt>0</asrwt>
<pdfrwt beam="1">0</pdfrwt>
<pdfrwt beam="2">  1        2 0.38477541E+00 0.65057825E+03</pdfrwt>
<totfact> 0.45385400E+00</totfact>
</mgrwt>
</event>
<event>
 5    1  0.2344661E-004  0.6149075E+03  0.7818608E-02  0.9874951E-01
         13   -1    0    0    0    0  0.00000000000E+00  0.00000000000E+00  0.10000000000E+04  0.10000000000E+04  0.00000000000E+00 0. -1.
          2   -1    0    0  501    0 -0.00000000000E+00 -0.00000000000E+00 -0.94527813637E+02  0.94527813637E+02  0.00000000000E+00 0. -1.
    9000006    2    1    2  501    0  0.00000000000E+00  0.00000000000E+00  0.90547218636E+03  0.10945278136E+04  0.61490751707E+03 0.  0.
         13    1    3    3    0    0  0.15749700925E+03  0.47113379401E+01 -0.17195184424E+02  0.15850293056E+03  0.00000000000E+00 0. -1.
          4    1    3    3  501    0 -0.15749700925E+03 -0.47113379401E+01  0.92266737079E+03  0.93602488308E+03  0.00000000000E+00 0. -1.
<mgrwt>
<rscale>  0 0.61490752E+03</rscale>
<asrwt>0</asrwt>
<pdfrwt beam="1">0</pdfrwt>
<pdfrwt beam="2">  1        2 0.34373823E+00 0.61490752E+03</pdfrwt>
<totfact> 0.64249244E+00</totfact>
</mgrwt>
</event>
<event>
 5    1  0.2344661E-004  0.6481905E+03  0.7818608E-02  0.9810180E-01
         13   -1    0    0    0    0  0.00000000000E+00  0.00000000000E+00  0.10000000000E+04  0.10000000000E+04  0.00000000000E+00 0. -1.
          2   -1    0    0  501    0 -0.00000000000E+00 -0.00000000000E+00 -0.10503773747E+03  0.10503773747E+03  0.00000000000E+00 0. -1.
    9000006    2    1    2  501    0  0.00000000000E+00  0.00000000000E+00  0.89496226253E+03  0.11050377375E+04  0.64819051973E+03 0.  0.
         13    1    3    3    0    0 -0.26704202434E+03 -0.12618989604E+03  0.22001655556E+03  0.36829691466E+03  0.00000000000E+00 0. -1.
          4    1    3    3  501    0  0.26704202434E+03  0.12618989604E+03  0.67494570698E+03  0.73674082281E+03  0.00000000000E+00 0. -1.
<mgrwt>
<rscale>  0 0.64819052E+03</rscale>
<asrwt>0</asrwt>
<pdfrwt beam="1">0</pdfrwt>
<pdfrwt beam="2">  1        2 0.38195621E+00 0.64819052E+03</pdfrwt>
<totfact> 0.46497139E+00</totfact>
</mgrwt>
</event>
<event>
 5    1  0.2344661E-004  0.6480246E+03  0.7818608E-02  0.9810493E-01
         13   -1    0    0    0    0  0.00000000000E+00  0.00000000000E+00  0.10000000000E+04  0.10000000000E+04  0.00000000000E+00 0. -1.
          2   -1    0    0  501    0 -0.00000000000E+00 -0.00000000000E+00 -0.10498398549E+03  0.10498398549E+03  0.00000000000E+00 0. -1.
    9000006    2    1    2  501    0  0.00000000000E+00  0.00000000000E+00  0.89501601451E+03  0.11049839855E+04  0.64802464610E+03 0.  0.
         13    1    3    3    0    0 -0.12176733629E+02  0.32217491556E+03  0.50247219925E+03  0.59701194300E+03  0.00000000000E+00 0. -1.
          4    1    3    3  501    0  0.12176733629E+02 -0.32217491556E+03  0.39254381526E+03  0.50797204249E+03  0.00000000000E+00 0. -1.
<mgrwt>
<rscale>  0 0.64802465E+03</rscale>
<asrwt>0</asrwt>
<pdfrwt beam="1">0</pdfrwt>
<pdfrwt beam="2">  1        2 0.38176075E+00 0.64802465E+03</pdfrwt>
<totfact> 0.46575128E+00</totfact>
</mgrwt>
</event>
<event>
 5    1  0.2344661E-004  0.6446722E+03  0.7818608E-02  0.9816828E-01
         13   -1    0    0    0    0  0.00000000000E+00  0.00000000000E+00  0.10000000000E+04  0.10000000000E+04  0.00000000000E+00 0. -1.
          2   -1    0    0  501    0 -0.00000000000E+00 -0.00000000000E+00 -0.10390056386E+03  0.10390056386E+03  0.00000000000E+00 0. -1.
    9000006    2    1    2  501    0  0.00000000000E+00  0.00000000000E+00  0.89609943614E+03  0.11039005639E+04  0.64467220774E+03 0.  0.
         13    1    3    3    0    0  0.52697769684E+02 -0.13286591063E+03 -0.46667045721E+02  0.15036029494E+03  0.00000000000E+00 0. -1.
          2    1    3    3  501    0 -0.52697769684E+02  0.13286591063E+03  0.94276648186E+03  0.95354026892E+03  0.00000000000E+00 0. -1.
<mgrwt>
<rscale>  0 0.64467221E+03</rscale>
<asrwt>0</asrwt>
<pdfrwt beam="1">0</pdfrwt>
<pdfrwt beam="2">  1        2 0.37782103E+00 0.64467221E+03</pdfrwt>
<totfact> 0.48172656E+00</totfact>
</mgrwt>
</event>
<event>
 5    1  0.2344661E-004  0.6481061E+03  0.7818608E-02  0.9810339E-01
         13   -1    0    0    0    0  0.00000000000E+00  0.00000000000E+00  0.10000000000E+04  0.10000000000E+04  0.00000000000E+00 0. -1.
          2   -1    0    0  501    0 -0.00000000000E+00 -0.00000000000E+00 -0.10501037668E+03  0.10501037668E+03  0.00000000000E+00 0. -1.
    9000006    2    1    2  501    0  0.00000000000E+00  0.00000000000E+00  0.89498962332E+03  0.11050103767E+04  0.64810609219E+03 0.  0.
         13    1    3    3    0    0 -0.30261986255E+03 -0.10024494036E+02  0.64435292878E+03  0.71194800971E+03  0.00000000000E+00 0. -1.
          2    1    3    3  501    0  0.30261986255E+03  0.10024494036E+02  0.25063669453E+03  0.39306236698E+03  0.00000000000E+00 0. -1.
<mgrwt>
<rscale>  0 0.64810609E+03</rscale>
<asrwt>0</asrwt>
<pdfrwt beam="1">0</pdfrwt>
<pdfrwt beam="2">  1        2 0.38185672E+00 0.64810609E+03</pdfrwt>
<totfact> 0.46536822E+00</totfact>
</mgrwt>
</event>
<event>
 5    1  0.2344661E-004  0.6470788E+03  0.7818608E-02  0.9812276E-01
         13   -1    0    0    0    0  0.00000000000E+00  0.00000000000E+00  0.10000000000E+04  0.10000000000E+04  0.00000000000E+00 0. -1.
          2   -1    0    0  501    0 -0.00000000000E+00 -0.00000000000E+00 -0.10467775870E+03  0.10467775870E+03  0.00000000000E+00 0. -1.
    9000006    2    1    2  501    0  0.00000000000E+00  0.00000000000E+00  0.89532224130E+03  0.11046777587E+04  0.64707884744E+03 0.  0.
         13    1    3    3    0    0 -0.13685720800E+03 -0.13232902062E+03  0.10561513308E+01  0.19037326634E+03  0.00000000000E+00 0. -1.
          4    1    3    3  501    0  0.13685720800E+03  0.13232902062E+03  0.89426608997E+03  0.91430449236E+03  0.00000000000E+00 0. -1.
<mgrwt>
<rscale>  0 0.64707885E+03</rscale>
<asrwt>0</asrwt>
<pdfrwt beam="1">0</pdfrwt>
<pdfrwt beam="2">  1        2 0.38064720E+00 0.64707885E+03</pdfrwt>
<totfact> 0.47021705E+00</totfact>
</mgrwt>
</event>
<event>
 5    1  0.2344661E-004  0.6587930E+03  0.7818608E-02  0.9790418E-01
         13   -1    0    0    0    0  0.00000000000E+00  0.00000000000E+00  0.10000000000E+04  0.10000000000E+04  0.00000000000E+00 0. -1.
          2   -1    0    0  501    0 -0.00000000000E+00 -0.00000000000E+00 -0.10850206036E+03  0.10850206036E+03  0.00000000000E+00 0. -1.
    9000006    2    1    2  501    0  0.00000000000E+00  0.00000000000E+00  0.89149793964E+03  0.11085020604E+04  0.65879301866E+03 0.  0.
         13    1    3    3    0    0  0.79822668182E+02 -0.13748208282E+03  0.93117723509E+03  0.94465021283E+03  0.00000000000E+00 0. -1.
          2    1    3    3  501    0 -0.79822668182E+02  0.13748208282E+03 -0.39679295445E+02  0.16385184753E+03  0.00000000000E+00 0. -1.
<mgrwt>
<rscale>  0 0.65879302E+03</rscale>
<asrwt>0</asrwt>
<pdfrwt beam="1">0</pdfrwt>
<pdfrwt beam="2">  1        2 0.39455378E+00 0.65879302E+03</pdfrwt>
<totfact> 0.41713334E+00</totfact>
</mgrwt>
</event>
<event>
 5    1  0.2344661E-004  0.6243963E+03  0.7818608E-02  0.9856045E-01
         13   -1    0    0    0    0  0.00000000000E+00  0.00000000000E+00  0.10000000000E+04  0.10000000000E+04  0.00000000000E+00 0. -1.
          2   -1    0    0  501    0 -0.00000000000E+00 -0.00000000000E+00 -0.97467674570E+02  0.97467674570E+02  0.00000000000E+00 0. -1.
    9000006    2    1    2  501    0  0.00000000000E+00  0.00000000000E+00  0.90253232543E+03  0.10974676746E+04  0.62439626703E+03 0.  0.
         13    1    3    3    0    0 -0.20363976181E+03  0.14108623355E+03  0.11734486982E+03  0.27412460007E+03  0.00000000000E+00 0. -1.
          2    1    3    3  501    0  0.20363976181E+03 -0.14108623355E+03  0.78518745561E+03  0.82334307450E+03  0.00000000000E+00 0. -1.
<mgrwt>
<rscale>  0 0.62439627E+03</rscale>
<asrwt>0</asrwt>
<pdfrwt beam="1">0</pdfrwt>
<pdfrwt beam="2">  1        2 0.35442865E+00 0.62439627E+03</pdfrwt>
<totfact> 0.58739119E+00</totfact>
</mgrwt>
</event>
<event>
 5    1  0.2344661E-004  0.6726916E+03  0.7818608E-02  0.9765108E-01
         13   -1    0    0    0    0  0.00000000000E+00  0.00000000000E+00  0.10000000000E+04  0.10000000000E+04  0.00000000000E+00 0. -1.
          2   -1    0    0  501    0 -0.00000000000E+00 -0.00000000000E+00 -0.11312848532E+03  0.11312848532E+03  0.00000000000E+00 0. -1.
    9000006    2    1    2  501    0  0.00000000000E+00  0.00000000000E+00  0.88687151468E+03  0.11131284853E+04  0.67269156473E+03 0.  0.
         13    1    3    3    0    0 -0.65335279882E+02 -0.93593397529E+02 -0.80100168517E+02  0.13944339301E+03  0.00000000000E+00 0. -1.
          4    1    3    3  501    0  0.65335279882E+02  0.93593397529E+02  0.96697168320E+03  0.97368509230E+03  0.00000000000E+00 0. -1.
<mgrwt>
<rscale>  0 0.67269156E+03</rscale>
<asrwt>0</asrwt>
<pdfrwt beam="1">0</pdfrwt>
<pdfrwt beam="2">  1        2 0.41137718E+00 0.67269156E+03</pdfrwt>
<totfact> 0.36016824E+00</totfact>
</mgrwt>
</event>
<event>
 5    1  0.2344661E-004  0.6602234E+03  0.7818608E-02  0.9787783E-01
         13   -1    0    0    0    0  0.00000000000E+00  0.00000000000E+00  0.10000000000E+04  0.10000000000E+04  0.00000000000E+00 0. -1.
          2   -1    0    0  501    0 -0.00000000000E+00 -0.00000000000E+00 -0.10897374583E+03  0.10897374583E+03  0.00000000000E+00 0. -1.
    9000006    2    1    2  501    0  0.00000000000E+00  0.00000000000E+00  0.89102625417E+03  0.11089737458E+04  0.66022343440E+03 0.  0.
         13    1    3    3    0    0 -0.10391767112E+03 -0.29446275986E+03  0.62537812122E+03  0.69900285680E+03  0.00000000000E+00 0. -1.
          4    1    3    3  501    0  0.10391767112E+03  0.29446275986E+03  0.26564813295E+03  0.40997088903E+03  0.00000000000E+00 0. -1.
<mgrwt>
<rscale>  0 0.66022343E+03</rscale>
<asrwt>0</asrwt>
<pdfrwt beam="1">0</pdfrwt>
<pdfrwt beam="2">  1        2 0.39626900E+00 0.66022343E+03</pdfrwt>
<totfact> 0.41097656E+00</totfact>
</mgrwt>
</event>
<event>
 5    1  0.2344661E-004  0.4579738E+03  0.7818608E-02  0.1025371E+00
         13   -1    0    0    0    0  0.00000000000E+00  0.00000000000E+00  0.10000000000E+04  0.10000000000E+04  0.00000000000E+00 0. -1.
          4   -1    0    0  501    0 -0.00000000000E+00 -0.00000000000E+00 -0.52434997762E+02  0.52434997762E+02  0.00000000000E+00 0. -1.
    9000006    2    1    2  501    0  0.00000000000E+00  0.00000000000E+00  0.94756500224E+03  0.10524349978E+04  0.45797378860E+03 0.  0.
         13    1    3    3    0    0  0.34569718305E+02 -0.19489667682E+03  0.20920793558E+03  0.28800649362E+03  0.00000000000E+00 0. -1.
          4    1    3    3  501    0 -0.34569718305E+02  0.19489667682E+03  0.73835706665E+03  0.76442850414E+03  0.00000000000E+00 0. -1.
<mgrwt>
<rscale>  0 0.45797379E+03</rscale>
<asrwt>0</asrwt>
<pdfrwt beam="1">0</pdfrwt>
<pdfrwt beam="2">  1        4 0.19067312E+00 0.45797379E+03</pdfrwt>
<totfact> 0.68339595E-01</totfact>
</mgrwt>
</event>
<event>
 5    1  0.2344661E-004  0.6773783E+03  0.7818608E-02  0.9756720E-01
         13   -1    0    0    0    0  0.00000000000E+00  0.00000000000E+00  0.10000000000E+04  0.10000000000E+04  0.00000000000E+00 0. -1.
          2   -1    0    0  501    0 -0.00000000000E+00 -0.00000000000E+00 -0.11471033356E+03  0.11471033356E+03  0.00000000000E+00 0. -1.
    9000006    2    1    2  501    0  0.00000000000E+00  0.00000000000E+00  0.88528966644E+03  0.11147103336E+04  0.67737828001E+03 0.  0.
         13    1    3    3    0    0 -0.29820873926E+03 -0.14873329257E+03  0.34308401603E+03  0.47828515192E+03  0.00000000000E+00 0. -1.
          4    1    3    3  501    0  0.29820873926E+03  0.14873329257E+03  0.54220565041E+03  0.63642518164E+03  0.00000000000E+00 0. -1.
<mgrwt>
<rscale>  0 0.67737828E+03</rscale>
<asrwt>0</asrwt>
<pdfrwt beam="1">0</pdfrwt>
<pdfrwt beam="2">  1        2 0.41712937E+00 0.67737828E+03</pdfrwt>
<totfact> 0.34235193E+00</totfact>
</mgrwt>
</event>
<event>
 5    1  0.2344661E-004  0.6597084E+03  0.7818608E-02  0.9788731E-01
         13   -1    0    0    0    0  0.00000000000E+00  0.00000000000E+00  0.10000000000E+04  0.10000000000E+04  0.00000000000E+00 0. -1.
          2   -1    0    0  501    0 -0.00000000000E+00 -0.00000000000E+00 -0.10880380262E+03  0.10880380262E+03  0.00000000000E+00 0. -1.
    9000006    2    1    2  501    0  0.00000000000E+00  0.00000000000E+00  0.89119619738E+03  0.11088038026E+04  0.65970842838E+03 0.  0.
         13    1    3    3    0    0  0.28005573743E+03 -0.14600162860E+03  0.60554415723E+03  0.68295784495E+03  0.00000000000E+00 0. -1.
          4    1    3    3  501    0 -0.28005573743E+03  0.14600162860E+03  0.28565204015E+03  0.42584595767E+03  0.00000000000E+00 0. -1.
<mgrwt>
<rscale>  0 0.65970843E+03</rscale>
<asrwt>0</asrwt>
<pdfrwt beam="1">0</pdfrwt>
<pdfrwt beam="2">  1        2 0.39565103E+00 0.65970843E+03</pdfrwt>
<totfact> 0.41318528E+00</totfact>
</mgrwt>
</event>
<event>
 5    1  0.2344661E-004  0.6640739E+03  0.7818608E-02  0.9780723E-01
         13   -1    0    0    0    0  0.00000000000E+00  0.00000000000E+00  0.10000000000E+04  0.10000000000E+04  0.00000000000E+00 0. -1.
          2   -1    0    0  501    0 -0.00000000000E+00 -0.00000000000E+00 -0.11024854213E+03  0.11024854213E+03  0.00000000000E+00 0. -1.
    9000006    2    1    2  501    0  0.00000000000E+00  0.00000000000E+00  0.88975145787E+03  0.11102485421E+04  0.66407391797E+03 0.  0.
         13    1    3    3    0    0  0.16912483404E+03  0.27164969302E+03  0.59302099029E+03  0.67384765350E+03  0.00000000000E+00 0. -1.
          2    1    3    3  501    0 -0.16912483404E+03 -0.27164969302E+03  0.29673046758E+03  0.43640088863E+03  0.00000000000E+00 0. -1.
<mgrwt>
<rscale>  0 0.66407392E+03</rscale>
<asrwt>0</asrwt>
<pdfrwt beam="1">0</pdfrwt>
<pdfrwt beam="2">  1        2 0.40090463E+00 0.66407392E+03</pdfrwt>
<totfact> 0.39474391E+00</totfact>
</mgrwt>
</event>
<event>
 5    1  0.2344661E-004  0.6505172E+03  0.7818608E-02  0.9805809E-01
         13   -1    0    0    0    0  0.00000000000E+00  0.00000000000E+00  0.10000000000E+04  0.10000000000E+04  0.00000000000E+00 0. -1.
          2   -1    0    0  501    0 -0.00000000000E+00 -0.00000000000E+00 -0.10579315374E+03  0.10579315374E+03  0.00000000000E+00 0. -1.
    9000006    2    1    2  501    0  0.00000000000E+00  0.00000000000E+00  0.89420684626E+03  0.11057931537E+04  0.65051719037E+03 0.  0.
         13    1    3    3    0    0 -0.19073335619E+03  0.22884097061E+03  0.66903708858E+03  0.73236468299E+03  0.00000000000E+00 0. -1.
          4    1    3    3  501    0  0.19073335619E+03 -0.22884097061E+03  0.22516975768E+03  0.37342847075E+03  0.00000000000E+00 0. -1.
<mgrwt>
<rscale>  0 0.65051719E+03</rscale>
<asrwt>0</asrwt>
<pdfrwt beam="1">0</pdfrwt>
<pdfrwt beam="2">  1        2 0.38470319E+00 0.65051719E+03</pdfrwt>
<totfact> 0.45413577E+00</totfact>
</mgrwt>
</event>
<event>
 5    1  0.2344661E-004  0.6491759E+03  0.7818608E-02  0.9808327E-01
         13   -1    0    0    0    0  0.00000000000E+00  0.00000000000E+00  0.10000000000E+04  0.10000000000E+04  0.00000000000E+00 0. -1.
          2   -1    0    0  501    0 -0.00000000000E+00 -0.00000000000E+00 -0.10535734583E+03  0.10535734583E+03  0.00000000000E+00 0. -1.
    9000006    2    1    2  501    0  0.00000000000E+00  0.00000000000E+00  0.89464265417E+03  0.11053573458E+04  0.64917592631E+03 0.  0.
         13    1    3    3    0    0  0.15776702488E+03 -0.25283813181E+03  0.22834089852E+03  0.37544256681E+03  0.00000000000E+00 0. -1.
          2    1    3    3  501    0 -0.15776702488E+03  0.25283813181E+03  0.66630175565E+03  0.72991477901E+03  0.00000000000E+00 0. -1.
<mgrwt>
<rscale>  0 0.64917593E+03</rscale>
<asrwt>0</asrwt>
<pdfrwt beam="1">0</pdfrwt>
<pdfrwt beam="2">  1        2 0.38311843E+00 0.64917593E+03</pdfrwt>
<totfact> 0.46035864E+00</totfact>
</mgrwt>
</event>
<event>
 5    1  0.2344661E-004  0.6541534E+03  0.7818608E-02  0.9799017E-01
         13   -1    0    0    0    0  0.00000000000E+00  0.00000000000E+00  0.10000000000E+04  0.10000000000E+04  0.00000000000E+00 0. -1.
          2   -1    0    0  501    0 -0.00000000000E+00 -0.00000000000E+00 -0.10697917562E+03  0.10697917562E+03  0.00000000000E+00 0. -1.
    9000006    2    1    2  501    0  0.00000000000E+00  0.00000000000E+00  0.89302082438E+03  0.11069791756E+04  0.65415342426E+03 0.  0.
         13    1    3    3    0    0  0.32127523972E+03 -0.56413057091E+02  0.40579252663E+03  0.52064170726E+03  0.00000000000E+00 0. -1.
          4    1    3    3  501    0 -0.32127523972E+03  0.56413057091E+02  0.48722829775E+03  0.58633746836E+03  0.00000000000E+00 0. -1.
<mgrwt>
<rscale>  0 0.65415342E+03</rscale>
<asrwt>0</asrwt>
<pdfrwt beam="1">0</pdfrwt>
<pdfrwt beam="2">  1        2 0.38901600E+00 0.65415342E+03</pdfrwt>
<totfact> 0.43758479E+00</totfact>
</mgrwt>
</event>
<event>
 5    1  0.2344661E-004  0.6911520E+03  0.7818608E-02  0.9732484E-01
         13   -1    0    0    0    0  0.00000000000E+00  0.00000000000E+00  0.10000000000E+04  0.10000000000E+04  0.00000000000E+00 0. -1.
          2   -1    0    0  501    0 -0.00000000000E+00 -0.00000000000E+00 -0.11942277254E+03  0.11942277254E+03  0.00000000000E+00 0. -1.
    9000006    2    1    2  501    0  0.00000000000E+00  0.00000000000E+00  0.88057722746E+03  0.11194227725E+04  0.69115200223E+03 0.  0.
         13    1    3    3    0    0 -0.83372588186E+02  0.13082647410E+03 -0.59855400446E+02  0.16628055734E+03  0.00000000000E+00 0. -1.
          4    1    3    3  501    0  0.83372588186E+02 -0.13082647410E+03  0.94043262790E+03  0.95314221521E+03  0.00000000000E+00 0. -1.
<mgrwt>
<rscale>  0 0.69115200E+03</rscale>
<asrwt>0</asrwt>
<pdfrwt beam="1">0</pdfrwt>
<pdfrwt beam="2">  1        2 0.43426554E+00 0.69115200E+03</pdfrwt>
<totfact> 0.29381740E+00</totfact>
</mgrwt>
</event>
<event>
 5    1  0.2344661E-004  0.6774119E+03  0.7818608E-02  0.9756660E-01
         13   -1    0    0    0    0  0.00000000000E+00  0.00000000000E+00  0.10000000000E+04  0.10000000000E+04  0.00000000000E+00 0. -1.
          2   -1    0    0  501    0 -0.00000000000E+00 -0.00000000000E+00 -0.11472171400E+03  0.11472171400E+03  0.00000000000E+00 0. -1.
    9000006    2    1    2  501    0  0.00000000000E+00  0.00000000000E+00  0.88527828600E+03  0.11147217140E+04  0.67741188062E+03 0.  0.
         13    1    3    3    0    0  0.18246823372E+03  0.28176926226E+03  0.36844026280E+03  0.49843434946E+03  0.00000000000E+00 0. -1.
          4    1    3    3  501    0 -0.18246823372E+03 -0.28176926226E+03  0.51683802320E+03  0.61628736454E+03  0.00000000000E+00 0. -1.
<mgrwt>
<rscale>  0 0.67741188E+03</rscale>
<asrwt>0</asrwt>
<pdfrwt beam="1">0</pdfrwt>
<pdfrwt beam="2">  1        2 0.41717075E+00 0.67741188E+03</pdfrwt>
<totfact> 0.34222665E+00</totfact>
</mgrwt>
</event>
<event>
 5    1  0.2344661E-004  0.6504936E+03  0.7818608E-02  0.9805853E-01
         13   -1    0    0    0    0  0.00000000000E+00  0.00000000000E+00  0.10000000000E+04  0.10000000000E+04  0.00000000000E+00 0. -1.
          2   -1    0    0  501    0 -0.00000000000E+00 -0.00000000000E+00 -0.10578548955E+03  0.10578548955E+03  0.00000000000E+00 0. -1.
    9000006    2    1    2  501    0  0.00000000000E+00  0.00000000000E+00  0.89421451045E+03  0.11057854896E+04  0.65049362658E+03 0.  0.
         13    1    3    3    0    0 -0.28976270241E+03  0.14428615928E+03  0.39322844931E+03  0.50932262154E+03  0.00000000000E+00 0. -1.
          2    1    3    3  501    0  0.28976270241E+03 -0.14428615928E+03  0.50098606114E+03  0.59646286802E+03  0.00000000000E+00 0. -1.
<mgrwt>
<rscale>  0 0.65049363E+03</rscale>
<asrwt>0</asrwt>
<pdfrwt beam="1">0</pdfrwt>
<pdfrwt beam="2">  1        2 0.38467532E+00 0.65049363E+03</pdfrwt>
<totfact> 0.45424455E+00</totfact>
</mgrwt>
</event>
<event>
 5    1  0.2344661E-004  0.7143294E+03  0.7818608E-02  0.9693036E-01
         13   -1    0    0    0    0  0.00000000000E+00  0.00000000000E+00  0.10000000000E+04  0.10000000000E+04  0.00000000000E+00 0. -1.
          2   -1    0    0  501    0 -0.00000000000E+00 -0.00000000000E+00 -0.12756662923E+03  0.12756662923E+03  0.00000000000E+00 0. -1.
    9000006    2    1    2  501    0  0.00000000000E+00  0.00000000000E+00  0.87243337077E+03  0.11275666292E+04  0.71432941764E+03 0.  0.
         13    1    3    3    0    0  0.82517232957E+02 -0.18148335317E+03  0.90399887094E+03  0.92572094060E+03  0.00000000000E+00 0. -1.
          4    1    3    3  501    0 -0.82517232957E+02  0.18148335317E+03 -0.31565500164E+02  0.20184568862E+03  0.00000000000E+00 0. -1.
<mgrwt>
<rscale>  0 0.71432942E+03</rscale>
<asrwt>0</asrwt>
<pdfrwt beam="1">0</pdfrwt>
<pdfrwt beam="2">  1        2 0.46387963E+00 0.71432942E+03</pdfrwt>
<totfact> 0.22405484E+00</totfact>
</mgrwt>
</event>
<event>
 5    1  0.2344661E-004  0.6508244E+03  0.7818608E-02  0.9805233E-01
         13   -1    0    0    0    0  0.00000000000E+00  0.00000000000E+00  0.10000000000E+04  0.10000000000E+04  0.00000000000E+00 0. -1.
          2   -1    0    0  501    0 -0.00000000000E+00 -0.00000000000E+00 -0.10589310527E+03  0.10589310527E+03  0.00000000000E+00 0. -1.
    9000006    2    1    2  501    0  0.00000000000E+00  0.00000000000E+00  0.89410689473E+03  0.11058931053E+04  0.65082441648E+03 0.  0.
         13    1    3    3    0    0  0.30909286423E+03  0.10136457922E+03  0.46224494219E+03  0.56522877069E+03  0.00000000000E+00 0. -1.
          2    1    3    3  501    0 -0.30909286423E+03 -0.10136457922E+03  0.43186195253E+03  0.54066433458E+03  0.00000000000E+00 0. -1.
<mgrwt>
<rscale>  0 0.65082442E+03</rscale>
<asrwt>0</asrwt>
<pdfrwt beam="1">0</pdfrwt>
<pdfrwt beam="2">  1        2 0.38506665E+00 0.65082442E+03</pdfrwt>
<totfact> 0.45271938E+00</totfact>
</mgrwt>
</event>
<event>
 5    1  0.2344661E-004  0.6732785E+03  0.7818608E-02  0.9764053E-01
         13   -1    0    0    0    0  0.00000000000E+00  0.00000000000E+00  0.10000000000E+04  0.10000000000E+04  0.00000000000E+00 0. -1.
          2   -1    0    0  501    0 -0.00000000000E+00 -0.00000000000E+00 -0.11332598803E+03  0.11332598803E+03  0.00000000000E+00 0. -1.
    9000006    2    1    2  501    0  0.00000000000E+00  0.00000000000E+00  0.88667401197E+03  0.11133259880E+04  0.67327851008E+03 0.  0.
         13    1    3    3    0    0  0.15690840395E+03 -0.20593545703E+03  0.87541163673E+02  0.27330041169E+03  0.00000000000E+00 0. -1.
          4    1    3    3  501    0 -0.15690840395E+03  0.20593545703E+03  0.79913284829E+03  0.84002557634E+03  0.00000000000E+00 0. -1.
<mgrwt>
<rscale>  0 0.67327851E+03</rscale>
<asrwt>0</asrwt>
<pdfrwt beam="1">0</pdfrwt>
<pdfrwt beam="2">  1        2 0.41209537E+00 0.67327851E+03</pdfrwt>
<totfact> 0.35789941E+00</totfact>
</mgrwt>
</event>
<event>
 5    1  0.2344661E-004  0.6539742E+03  0.7818608E-02  0.9799350E-01
         13   -1    0    0    0    0  0.00000000000E+00  0.00000000000E+00  0.10000000000E+04  0.10000000000E+04  0.00000000000E+00 0. -1.
          2   -1    0    0  501    0 -0.00000000000E+00 -0.00000000000E+00 -0.10692057988E+03  0.10692057988E+03  0.00000000000E+00 0. -1.
    9000006    2    1    2  501    0  0.00000000000E+00  0.00000000000E+00  0.89307942012E+03  0.11069205799E+04  0.65397424988E+03 0.  0.
         13    1    3    3    0    0 -0.29764115911E+03  0.78478753647E+02  0.63327490504E+03  0.70412092692E+03  0.00000000000E+00 0. -1.
          2    1    3    3  501    0  0.29764115911E+03 -0.78478753647E+02  0.25980451508E+03  0.40279965296E+03  0.00000000000E+00 0. -1.
<mgrwt>
<rscale>  0 0.65397425E+03</rscale>
<asrwt>0</asrwt>
<pdfrwt beam="1">0</pdfrwt>
<pdfrwt beam="2">  1        2 0.38880293E+00 0.65397425E+03</pdfrwt>
<totfact> 0.43838949E+00</totfact>
</mgrwt>
</event>
<event>
 5    1  0.2344661E-004  0.6632938E+03  0.7818608E-02  0.9782149E-01
         13   -1    0    0    0    0  0.00000000000E+00  0.00000000000E+00  0.10000000000E+04  0.10000000000E+04  0.00000000000E+00 0. -1.
          2   -1    0    0  501    0 -0.00000000000E+00 -0.00000000000E+00 -0.10998968010E+03  0.10998968010E+03  0.00000000000E+00 0. -1.
    9000006    2    1    2  501    0  0.00000000000E+00  0.00000000000E+00  0.89001031990E+03  0.11099896801E+04  0.66329384166E+03 0.  0.
         13    1    3    3    0    0  0.26480802838E+03 -0.14313186983E+03  0.67796765464E+03  0.74178849060E+03  0.00000000000E+00 0. -1.
          4    1    3    3  501    0 -0.26480802838E+03  0.14313186983E+03  0.21204266527E+03  0.36820118950E+03  0.00000000000E+00 0. -1.
<mgrwt>
<rscale>  0 0.66329384E+03</rscale>
<asrwt>0</asrwt>
<pdfrwt beam="1">0</pdfrwt>
<pdfrwt beam="2">  1        2 0.39996332E+00 0.66329384E+03</pdfrwt>
<totfact> 0.39799273E+00</totfact>
</mgrwt>
</event>
<event>
 5    1  0.2344661E-004  0.6534806E+03  0.7818608E-02  0.9800270E-01
         13   -1    0    0    0    0  0.00000000000E+00  0.00000000000E+00  0.10000000000E+04  0.10000000000E+04  0.00000000000E+00 0. -1.
          2   -1    0    0  501    0 -0.00000000000E+00 -0.00000000000E+00 -0.10675922980E+03  0.10675922980E+03  0.00000000000E+00 0. -1.
    9000006    2    1    2  501    0  0.00000000000E+00  0.00000000000E+00  0.89324077020E+03  0.11067592298E+04  0.65348061883E+03 0.  0.
         13    1    3    3    0    0 -0.14944546549E+03 -0.28975438448E+03  0.48324680940E+03  0.58293998771E+03  0.00000000000E+00 0. -1.
          4    1    3    3  501    0  0.14944546549E+03  0.28975438448E+03  0.40999396080E+03  0.52381924208E+03  0.00000000000E+00 0. -1.
<mgrwt>
<rscale>  0 0.65348062E+03</rscale>
<asrwt>0</asrwt>
<pdfrwt beam="1">0</pdfrwt>
<pdfrwt beam="2">  1        2 0.38821620E+00 0.65348062E+03</pdfrwt>
<totfact> 0.44061226E+00</totfact>
</mgrwt>
</event>
<event>
 5    1  0.2344661E-004  0.6729900E+03  0.7818608E-02  0.9764571E-01
         13   -1    0    0    0    0  0.00000000000E+00  0.00000000000E+00  0.10000000000E+04  0.10000000000E+04  0.00000000000E+00 0. -1.
          2   -1    0    0  501    0 -0.00000000000E+00 -0.00000000000E+00 -0.11322889975E+03  0.11322889975E+03  0.00000000000E+00 0. -1.
    9000006    2    1    2  501    0  0.00000000000E+00  0.00000000000E+00  0.88677110025E+03  0.11132288997E+04  0.67299004376E+03 0.  0.
         13    1    3    3    0    0  0.67067940450E+02  0.32656419357E+03  0.36782460717E+03  0.49642443816E+03  0.00000000000E+00 0. -1.
          2    1    3    3  501    0 -0.67067940450E+02 -0.32656419357E+03  0.51894649308E+03  0.61680446159E+03  0.00000000000E+00 0. -1.
<mgrwt>
<rscale>  0 0.67299004E+03</rscale>
<asrwt>0</asrwt>
<pdfrwt beam="1">0</pdfrwt>
<pdfrwt beam="2">  1        2 0.41174232E+00 0.67299004E+03</pdfrwt>
<totfact> 0.35901312E+00</totfact>
</mgrwt>
</event>
<event>
 5    1  0.2344661E-004  0.6498495E+03  0.7818608E-02  0.9807062E-01
         13   -1    0    0    0    0  0.00000000000E+00  0.00000000000E+00  0.10000000000E+04  0.10000000000E+04  0.00000000000E+00 0. -1.
          4   -1    0    0  501    0 -0.00000000000E+00 -0.00000000000E+00 -0.10557608205E+03  0.10557608205E+03  0.00000000000E+00 0. -1.
    9000006    2    1    2  501    0  0.00000000000E+00  0.00000000000E+00  0.89442391795E+03  0.11055760821E+04  0.64984946581E+03 0.  0.
         13    1    3    3    0    0 -0.30333931579E+02  0.50649083014E+02 -0.96374659593E+02  0.11302013992E+03  0.00000000000E+00 0. -1.
          4    1    3    3  501    0  0.30333931579E+02 -0.50649083014E+02  0.99079857754E+03  0.99255594214E+03  0.00000000000E+00 0. -1.
<mgrwt>
<rscale>  0 0.64984947E+03</rscale>
<asrwt>0</asrwt>
<pdfrwt beam="1">0</pdfrwt>
<pdfrwt beam="2">  1        4 0.38391384E+00 0.64984947E+03</pdfrwt>
<totfact> 0.41287446E-02</totfact>
</mgrwt>
</event>
<event>
 5    1  0.2344661E-004  0.6443641E+03  0.7818608E-02  0.9817412E-01
         13   -1    0    0    0    0  0.00000000000E+00  0.00000000000E+00  0.10000000000E+04  0.10000000000E+04  0.00000000000E+00 0. -1.
          2   -1    0    0  501    0 -0.00000000000E+00 -0.00000000000E+00 -0.10380127695E+03  0.10380127695E+03  0.00000000000E+00 0. -1.
    9000006    2    1    2  501    0  0.00000000000E+00  0.00000000000E+00  0.89619872305E+03  0.11038012770E+04  0.64436411120E+03 0.  0.
         13    1    3    3    0    0 -0.31200096171E+03 -0.68844880058E+02  0.37711671309E+03  0.49426838146E+03  0.00000000000E+00 0. -1.
          4    1    3    3  501    0  0.31200096171E+03  0.68844880058E+02  0.51908200996E+03  0.60953289549E+03  0.00000000000E+00 0. -1.
<mgrwt>
<rscale>  0 0.64436411E+03</rscale>
<asrwt>0</asrwt>
<pdfrwt beam="1">0</pdfrwt>
<pdfrwt beam="2">  1        2 0.37745998E+00 0.64436411E+03</pdfrwt>
<totfact> 0.48321525E+00</totfact>
</mgrwt>
</event>
<event>
 5    1  0.2344661E-004  0.6537987E+03  0.7818608E-02  0.9799677E-01
         13   -1    0    0    0    0  0.00000000000E+00  0.00000000000E+00  0.10000000000E+04  0.10000000000E+04  0.00000000000E+00 0. -1.
          2   -1    0    0  501    0 -0.00000000000E+00 -0.00000000000E+00 -0.10686317005E+03  0.10686317005E+03  0.00000000000E+00 0. -1.
    9000006    2    1    2  501    0  0.00000000000E+00  0.00000000000E+00  0.89313682995E+03  0.11068631701E+04  0.65379865419E+03 0.  0.
         13    1    3    3    0    0  0.88103499320E+02  0.31416204961E+03  0.41257590189E+03  0.52600275173E+03  0.00000000000E+00 0. -1.
          2    1    3    3  501    0 -0.88103499320E+02 -0.31416204961E+03  0.48056092805E+03  0.58086041833E+03  0.00000000000E+00 0. -1.
<mgrwt>
<rscale>  0 0.65379865E+03</rscale>
<asrwt>0</asrwt>
<pdfrwt beam="1">0</pdfrwt>
<pdfrwt beam="2">  1        2 0.38859417E+00 0.65379865E+03</pdfrwt>
<totfact> 0.43917921E+00</totfact>
</mgrwt>
</event>
<event>
 5    1  0.2344661E-004  0.6537231E+03  0.7818608E-02  0.9799818E-01
         13   -1    0    0    0    0  0.00000000000E+00  0.00000000000E+00  0.10000000000E+04  0.10000000000E+04  0.00000000000E+00 0. -1.
          2   -1    0    0  501    0 -0.00000000000E+00 -0.00000000000E+00 -0.10683846440E+03  0.10683846440E+03  0.00000000000E+00 0. -1.
    9000006    2    1    2  501    0  0.00000000000E+00  0.00000000000E+00  0.89316153560E+03  0.11068384644E+04  0.65372307411E+03 0.  0.
         13    1    3    3    0    0  0.29285148697E+03 -0.50827614472E+02  0.67682799161E+03  0.73921686266E+03  0.00000000000E+00 0. -1.
          4    1    3    3  501    0 -0.29285148697E+03  0.50827614472E+02  0.21633354398E+03  0.36762160174E+03  0.00000000000E+00 0. -1.
<mgrwt>
<rscale>  0 0.65372307E+03</rscale>
<asrwt>0</asrwt>
<pdfrwt beam="1">0</pdfrwt>
<pdfrwt beam="2">  1        2 0.38850433E+00 0.65372307E+03</pdfrwt>
<totfact> 0.43951945E+00</totfact>
</mgrwt>
</event>
<event>
 5    1  0.2344661E-004  0.5513275E+03  0.7818608E-02  0.1001187E+00
         13   -1    0    0    0    0  0.00000000000E+00  0.00000000000E+00  0.10000000000E+04  0.10000000000E+04  0.00000000000E+00 0. -1.
          2   -1    0    0  501    0 -0.00000000000E+00 -0.00000000000E+00 -0.75990515569E+02  0.75990515569E+02  0.00000000000E+00 0. -1.
    9000006    2    1    2  501    0  0.00000000000E+00  0.00000000000E+00  0.92400948443E+03  0.10759905156E+04  0.55132754536E+03 0.  0.
         13    1    3    3    0    0 -0.23190018453E+02  0.23590780789E+03  0.73662592402E+03  0.77382686869E+03  0.00000000000E+00 0. -1.
          4    1    3    3  501    0  0.23190018453E+02 -0.23590780789E+03  0.18738356041E+03  0.30216364687E+03  0.00000000000E+00 0. -1.
<mgrwt>
<rscale>  0 0.55132755E+03</rscale>
<asrwt>0</asrwt>
<pdfrwt beam="1">0</pdfrwt>
<pdfrwt beam="2">  1        2 0.27632973E+00 0.55132755E+03</pdfrwt>
<totfact> 0.11218341E+01</totfact>
</mgrwt>
</event>
<event>
 5    1  0.2344661E-004  0.6520171E+03  0.7818608E-02  0.9803002E-01
         13   -1    0    0    0    0  0.00000000000E+00  0.00000000000E+00  0.10000000000E+04  0.10000000000E+04  0.00000000000E+00 0. -1.
          2   -1    0    0  501    0 -0.00000000000E+00 -0.00000000000E+00 -0.10628156139E+03  0.10628156139E+03  0.00000000000E+00 0. -1.
    9000006    2    1    2  501    0  0.00000000000E+00  0.00000000000E+00  0.89371843861E+03  0.11062815614E+04  0.65201705927E+03 0.  0.
         13    1    3    3    0    0 -0.30799358840E+03  0.10230241594E+03  0.49931260794E+03  0.59551567171E+03  0.00000000000E+00 0. -1.
          4    1    3    3  501    0  0.30799358840E+03 -0.10230241594E+03  0.39440583066E+03  0.51076588968E+03  0.00000000000E+00 0. -1.
<mgrwt>
<rscale>  0 0.65201706E+03</rscale>
<asrwt>0</asrwt>
<pdfrwt beam="1">0</pdfrwt>
<pdfrwt beam="2">  1        2 0.38647922E+00 0.65201706E+03</pdfrwt>
<totfact> 0.44725257E+00</totfact>
</mgrwt>
</event>
<event>
 5    1  0.2344661E-004  0.6574027E+03  0.7818608E-02  0.9792987E-01
         13   -1    0    0    0    0  0.00000000000E+00  0.00000000000E+00  0.10000000000E+04  0.10000000000E+04  0.00000000000E+00 0. -1.
          2   -1    0    0  501    0 -0.00000000000E+00 -0.00000000000E+00 -0.10804458233E+03  0.10804458233E+03  0.00000000000E+00 0. -1.
    9000006    2    1    2  501    0  0.00000000000E+00  0.00000000000E+00  0.89195541767E+03  0.11080445823E+04  0.65740271471E+03 0.  0.
         13    1    3    3    0    0  0.24751623464E+03 -0.14832371804E+03  0.71130360509E+03  0.76760473575E+03  0.00000000000E+00 0. -1.
          2    1    3    3  501    0 -0.24751623464E+03  0.14832371804E+03  0.18065181259E+03  0.34043984657E+03  0.00000000000E+00 0. -1.
<mgrwt>
<rscale>  0 0.65740271E+03</rscale>
<asrwt>0</asrwt>
<pdfrwt beam="1">0</pdfrwt>
<pdfrwt beam="2">  1        2 0.39289022E+00 0.65740271E+03</pdfrwt>
<totfact> 0.42318425E+00</totfact>
</mgrwt>
</event>
<event>
 5    1  0.2344661E-004  0.6266795E+03  0.7818608E-02  0.9851550E-01
         13   -1    0    0    0    0  0.00000000000E+00  0.00000000000E+00  0.10000000000E+04  0.10000000000E+04  0.00000000000E+00 0. -1.
          2   -1    0    0  501    0 -0.00000000000E+00 -0.00000000000E+00 -0.98181812642E+02  0.98181812642E+02  0.00000000000E+00 0. -1.
    9000006    2    1    2  501    0  0.00000000000E+00  0.00000000000E+00  0.90181818736E+03  0.10981818126E+04  0.62667954376E+03 0.  0.
         13    1    3    3    0    0 -0.11577481799E+03  0.25379602429E+03  0.20083014006E+03  0.34372805469E+03  0.00000000000E+00 0. -1.
          4    1    3    3  501    0  0.11577481799E+03 -0.25379602429E+03  0.70098804730E+03  0.75445375795E+03  0.00000000000E+00 0. -1.
<mgrwt>
<rscale>  0 0.62667954E+03</rscale>
<asrwt>0</asrwt>
<pdfrwt beam="1">0</pdfrwt>
<pdfrwt beam="2">  1        2 0.35702553E+00 0.62667954E+03</pdfrwt>
<totfact> 0.57468669E+00</totfact>
</mgrwt>
</event>
<event>
 5    1  0.2344661E-004  0.6438105E+03  0.7818608E-02  0.9818463E-01
         13   -1    0    0    0    0  0.00000000000E+00  0.00000000000E+00  0.10000000000E+04  0.10000000000E+04  0.00000000000E+00 0. -1.
          2   -1    0    0  501    0 -0.00000000000E+00 -0.00000000000E+00 -0.10362297579E+03  0.10362297579E+03  0.00000000000E+00 0. -1.
    9000006    2    1    2  501    0  0.00000000000E+00  0.00000000000E+00  0.89637702421E+03  0.11036229758E+04  0.64381045594E+03 0.  0.
         13    1    3    3    0    0 -0.10990872351E+03  0.30201673089E+03  0.47927865616E+03  0.57706330978E+03  0.00000000000E+00 0. -1.
          2    1    3    3  501    0  0.10990872351E+03 -0.30201673089E+03  0.41709836805E+03  0.52655966601E+03  0.00000000000E+00 0. -1.
<mgrwt>
<rscale>  0 0.64381046E+03</rscale>
<asrwt>0</asrwt>
<pdfrwt beam="1">0</pdfrwt>
<pdfrwt beam="2">  1        2 0.37681162E+00 0.64381046E+03</pdfrwt>
<totfact> 0.48589919E+00</totfact>
</mgrwt>
</event>
<event>
 5    1  0.2344661E-004  0.6437707E+03  0.7818608E-02  0.9818539E-01
         13   -1    0    0    0    0  0.00000000000E+00  0.00000000000E+00  0.10000000000E+04  0.10000000000E+04  0.00000000000E+00 0. -1.
          2   -1    0    0  501    0 -0.00000000000E+00 -0.00000000000E+00 -0.10361018083E+03  0.10361018083E+03  0.00000000000E+00 0. -1.
    9000006    2    1    2  501    0  0.00000000000E+00  0.00000000000E+00  0.89638981917E+03  0.11036101808E+04  0.64377070711E+03 0.  0.
         13    1    3    3    0    0 -0.25448535586E+03  0.18850212021E+03  0.54688707972E+03  0.63196623615E+03  0.00000000000E+00 0. -1.
          2    1    3    3  501    0  0.25448535586E+03 -0.18850212021E+03  0.34950273945E+03  0.47164394468E+03  0.00000000000E+00 0. -1.
<mgrwt>
<rscale>  0 0.64377071E+03</rscale>
<asrwt>0</asrwt>
<pdfrwt beam="1">0</pdfrwt>
<pdfrwt beam="2">  1        2 0.37676509E+00 0.64377071E+03</pdfrwt>
<totfact> 0.48609231E+00</totfact>
</mgrwt>
</event>
<event>
 5    1  0.2344661E-004  0.6402739E+03  0.7818608E-02  0.9825203E-01
         13   -1    0    0    0    0  0.00000000000E+00  0.00000000000E+00  0.10000000000E+04  0.10000000000E+04  0.00000000000E+00 0. -1.
          2   -1    0    0  501    0 -0.00000000000E+00 -0.00000000000E+00 -0.10248767920E+03  0.10248767920E+03  0.00000000000E+00 0. -1.
    9000006    2    1    2  501    0  0.00000000000E+00  0.00000000000E+00  0.89751232080E+03  0.11024876792E+04  0.64027393886E+03 0.  0.
         13    1    3    3    0    0 -0.30030089034E+03 -0.10230958135E+03  0.37489881377E+03  0.49111810773E+03  0.00000000000E+00 0. -1.
          4    1    3    3  501    0  0.30030089034E+03  0.10230958135E+03  0.52261350704E+03  0.61136957147E+03  0.00000000000E+00 0. -1.
<mgrwt>
<rscale>  0 0.64027394E+03</rscale>
<asrwt>0</asrwt>
<pdfrwt beam="1">0</pdfrwt>
<pdfrwt beam="2">  1        2 0.37268326E+00 0.64027394E+03</pdfrwt>
<totfact> 0.50331145E+00</totfact>
</mgrwt>
</event>
<event>
 5    1  0.2344661E-004  0.6505602E+03  0.7818608E-02  0.9805729E-01
         13   -1    0    0    0    0  0.00000000000E+00  0.00000000000E+00  0.10000000000E+04  0.10000000000E+04  0.00000000000E+00 0. -1.
          2   -1    0    0  501    0 -0.00000000000E+00 -0.00000000000E+00 -0.10580714882E+03  0.10580714882E+03  0.00000000000E+00 0. -1.
    9000006    2    1    2  501    0  0.00000000000E+00  0.00000000000E+00  0.89419285118E+03  0.11058071488E+04  0.65056021650E+03 0.  0.
         13    1    3    3    0    0  0.20002822616E+03  0.15296607065E+03  0.97102361832E+02  0.26988660342E+03  0.00000000000E+00 0. -1.
          2    1    3    3  501    0 -0.20002822616E+03 -0.15296607065E+03  0.79709048934E+03  0.83592054541E+03  0.00000000000E+00 0. -1.
<mgrwt>
<rscale>  0 0.65056022E+03</rscale>
<asrwt>0</asrwt>
<pdfrwt beam="1">0</pdfrwt>
<pdfrwt beam="2">  1        2 0.38475408E+00 0.65056022E+03</pdfrwt>
<totfact> 0.45393721E+00</totfact>
</mgrwt>
</event>
<event>
 5    1  0.2344661E-004  0.6493013E+03  0.7818608E-02  0.9808091E-01
         13   -1    0    0    0    0  0.00000000000E+00  0.00000000000E+00  0.10000000000E+04  0.10000000000E+04  0.00000000000E+00 0. -1.
          2   -1    0    0  501    0 -0.00000000000E+00 -0.00000000000E+00 -0.10539803826E+03  0.10539803826E+03  0.00000000000E+00 0. -1.
    9000006    2    1    2  501    0  0.00000000000E+00  0.00000000000E+00  0.89460196174E+03  0.11053980383E+04  0.64930128064E+03 0.  0.
         13    1    3    3    0    0 -0.28226839053E+03  0.12850927885E+03  0.61066414015E+03  0.68490931598E+03  0.00000000000E+00 0. -1.
          4    1    3    3  501    0  0.28226839053E+03 -0.12850927885E+03  0.28393782159E+03  0.42048872228E+03  0.00000000000E+00 0. -1.
<mgrwt>
<rscale>  0 0.64930128E+03</rscale>
<asrwt>0</asrwt>
<pdfrwt beam="1">0</pdfrwt>
<pdfrwt beam="2">  1        2 0.38326640E+00 0.64930128E+03</pdfrwt>
<totfact> 0.45977433E+00</totfact>
</mgrwt>
</event>
<event>
 5    1  0.2344661E-004  0.6436897E+03  0.7818608E-02  0.9818693E-01
         13   -1    0    0    0    0  0.00000000000E+00  0.00000000000E+00  0.10000000000E+04  0.10000000000E+04  0.00000000000E+00 0. -1.
          2   -1    0    0  501    0 -0.00000000000E+00 -0.00000000000E+00 -0.10358412098E+03  0.10358412098E+03  0.00000000000E+00 0. -1.
    9000006    2    1    2  501    0  0.00000000000E+00  0.00000000000E+00  0.89641587902E+03  0.11035841210E+04  0.64368974196E+03 0.  0.
         13    1    3    3    0    0  0.24232461049E+03  0.18637494251E+03  0.27567367001E+03  0.41164646042E+03  0.00000000000E+00 0. -1.
          2    1    3    3  501    0 -0.24232461049E+03 -0.18637494251E+03  0.62074220901E+03  0.69193766055E+03  0.00000000000E+00 0. -1.
<mgrwt>
<rscale>  0 0.64368974E+03</rscale>
<asrwt>0</asrwt>
<pdfrwt beam="1">0</pdfrwt>
<pdfrwt beam="2">  1        2 0.37667033E+00 0.64368974E+03</pdfrwt>
<totfact> 0.48648587E+00</totfact>
</mgrwt>
</event>
<event>
 5    1  0.2344661E-004  0.7709239E+03  0.7818608E-02  0.9603084E-01
         13   -1    0    0    0    0  0.00000000000E+00  0.00000000000E+00  0.10000000000E+04  0.10000000000E+04  0.00000000000E+00 0. -1.
          2   -1    0    0  501    0 -0.00000000000E+00 -0.00000000000E+00 -0.14858091863E+03  0.14858091863E+03  0.00000000000E+00 0. -1.
    9000006    2    1    2  501    0  0.00000000000E+00  0.00000000000E+00  0.85141908137E+03  0.11485809186E+04  0.77092390967E+03 0.  0.
         13    1    3    3    0    0 -0.10608013179E+03 -0.27447484275E+03  0.79666016103E+03  0.84926841802E+03  0.00000000000E+00 0. -1.
          2    1    3    3  501    0  0.10608013179E+03  0.27447484275E+03  0.54758920341E+02  0.29931250061E+03  0.00000000000E+00 0. -1.
<mgrwt>
<rscale>  0 0.77092391E+03</rscale>
<asrwt>0</asrwt>
<pdfrwt beam="1">0</pdfrwt>
<pdfrwt beam="2">  1        2 0.54029539E+00 0.77092391E+03</pdfrwt>
<totfact> 0.10585250E+00</totfact>
</mgrwt>
</event>
<event>
 5    1  0.2344661E-004  0.6598308E+03  0.7818608E-02  0.9788505E-01
         13   -1    0    0    0    0  0.00000000000E+00  0.00000000000E+00  0.10000000000E+04  0.10000000000E+04  0.00000000000E+00 0. -1.
          2   -1    0    0  501    0 -0.00000000000E+00 -0.00000000000E+00 -0.10884416980E+03  0.10884416980E+03  0.00000000000E+00 0. -1.
    9000006    2    1    2  501    0  0.00000000000E+00  0.00000000000E+00  0.89115583020E+03  0.11088441698E+04  0.65983079587E+03 0.  0.
         13    1    3    3    0    0 -0.11679196709E+03 -0.28258727911E+03  0.65377141639E+03  0.72174302822E+03  0.00000000000E+00 0. -1.
          2    1    3    3  501    0  0.11679196709E+03  0.28258727911E+03  0.23738441381E+03  0.38710114158E+03  0.00000000000E+00 0. -1.
<mgrwt>
<rscale>  0 0.65983080E+03</rscale>
<asrwt>0</asrwt>
<pdfrwt beam="1">0</pdfrwt>
<pdfrwt beam="2">  1        2 0.39579782E+00 0.65983080E+03</pdfrwt>
<totfact> 0.41265967E+00</totfact>
</mgrwt>
</event>
<event>
 5    1  0.2344661E-004  0.6304580E+03  0.7818608E-02  0.9844155E-01
         13   -1    0    0    0    0  0.00000000000E+00  0.00000000000E+00  0.10000000000E+04  0.10000000000E+04  0.00000000000E+00 0. -1.
          2   -1    0    0  501    0 -0.00000000000E+00 -0.00000000000E+00 -0.99369321991E+02  0.99369321991E+02  0.00000000000E+00 0. -1.
    9000006    2    1    2  501    0  0.00000000000E+00  0.00000000000E+00  0.90063067801E+03  0.10993693220E+04  0.63045799857E+03 0.  0.
         13    1    3    3    0    0 -0.12772461589E+02  0.87800694738E+02  0.97777762698E+03  0.98179487959E+03  0.00000000000E+00 0. -1.
          2    1    3    3  501    0  0.12772461589E+02 -0.87800694738E+02 -0.77146948967E+02  0.11757444240E+03  0.00000000000E+00 0. -1.
<mgrwt>
<rscale>  0 0.63045800E+03</rscale>
<asrwt>0</asrwt>
<pdfrwt beam="1">0</pdfrwt>
<pdfrwt beam="2">  1        2 0.36134375E+00 0.63045800E+03</pdfrwt>
<totfact> 0.55412448E+00</totfact>
</mgrwt>
</event>
<event>
 5    1  0.2344661E-004  0.6648400E+03  0.7818608E-02  0.9779325E-01
         13   -1    0    0    0    0  0.00000000000E+00  0.00000000000E+00  0.10000000000E+04  0.10000000000E+04  0.00000000000E+00 0. -1.
          2   -1    0    0  501    0 -0.00000000000E+00 -0.00000000000E+00 -0.11050304173E+03  0.11050304173E+03  0.00000000000E+00 0. -1.
    9000006    2    1    2  501    0  0.00000000000E+00  0.00000000000E+00  0.88949695827E+03  0.11105030417E+04  0.66483995587E+03 0.  0.
         13    1    3    3    0    0 -0.23817303885E+03 -0.51298699070E+02  0.66998361015E+02  0.25267911140E+03  0.00000000000E+00 0. -1.
          4    1    3    3  501    0  0.23817303885E+03  0.51298699070E+02  0.82249859726E+03  0.85782393033E+03  0.00000000000E+00 0. -1.
<mgrwt>
<rscale>  0 0.66483996E+03</rscale>
<asrwt>0</asrwt>
<pdfrwt beam="1">0</pdfrwt>
<pdfrwt beam="2">  1        2 0.40183009E+00 0.66483996E+03</pdfrwt>
<totfact> 0.39157305E+00</totfact>
</mgrwt>
</event>
<event>
 5    1  0.2344661E-004  0.6468078E+03  0.7818608E-02  0.9812788E-01
         13   -1    0    0    0    0  0.00000000000E+00  0.00000000000E+00  0.10000000000E+04  0.10000000000E+04  0.00000000000E+00 0. -1.
          2   -1    0    0  501    0 -0.00000000000E+00 -0.00000000000E+00 -0.10459007707E+03  0.10459007707E+03  0.00000000000E+00 0. -1.
    9000006    2    1    2  501    0  0.00000000000E+00  0.00000000000E+00  0.89540992293E+03  0.11045900771E+04  0.64680778311E+03 0.  0.
         13    1    3    3    0    0 -0.25907349287E+03 -0.15545902580E+03  0.25073102970E+03  0.39262276126E+03  0.00000000000E+00 0. -1.
          4    1    3    3  501    0  0.25907349287E+03  0.15545902580E+03  0.64467889323E+03  0.71196731581E+03  0.00000000000E+00 0. -1.
<mgrwt>
<rscale>  0 0.64680778E+03</rscale>
<asrwt>0</asrwt>
<pdfrwt beam="1">0</pdfrwt>
<pdfrwt beam="2">  1        2 0.38032836E+00 0.64680778E+03</pdfrwt>
<totfact> 0.47150289E+00</totfact>
</mgrwt>
</event>
<event>
 5    1  0.2344661E-004  0.6350458E+03  0.7818608E-02  0.9835252E-01
         13   -1    0    0    0    0  0.00000000000E+00  0.00000000000E+00  0.10000000000E+04  0.10000000000E+04  0.00000000000E+00 0. -1.
          2   -1    0    0  501    0 -0.00000000000E+00 -0.00000000000E+00 -0.10082077674E+03  0.10082077674E+03  0.00000000000E+00 0. -1.
    9000006    2    1    2  501    0  0.00000000000E+00  0.00000000000E+00  0.89917922326E+03  0.11008207767E+04  0.63504575186E+03 0.  0.
         13    1    3    3    0    0  0.28114154277E+03  0.12311137816E+03  0.59066951393E+03  0.66564814518E+03  0.00000000000E+00 0. -1.
          4    1    3    3  501    0 -0.28114154277E+03 -0.12311137816E+03  0.30850970933E+03  0.43517263156E+03  0.00000000000E+00 0. -1.
<mgrwt>
<rscale>  0 0.63504575E+03</rscale>
<asrwt>0</asrwt>
<pdfrwt beam="1">0</pdfrwt>
<pdfrwt beam="2">  1        2 0.36662178E+00 0.63504575E+03</pdfrwt>
<totfact> 0.52991431E+00</totfact>
</mgrwt>
</event>
<event>
 5    1  0.2344661E-004  0.6490139E+03  0.7818608E-02  0.9808631E-01
         13   -1    0    0    0    0  0.00000000000E+00  0.00000000000E+00  0.10000000000E+04  0.10000000000E+04  0.00000000000E+00 0. -1.
          2   -1    0    0  501    0 -0.00000000000E+00 -0.00000000000E+00 -0.10530474723E+03  0.10530474723E+03  0.00000000000E+00 0. -1.
    9000006    2    1    2  501    0  0.00000000000E+00  0.00000000000E+00  0.89469525277E+03  0.11053047472E+04  0.64901385882E+03 0.  0.
         13    1    3    3    0    0  0.96998247811E+02  0.18518335934E+03  0.24650069114E+02  0.21049741699E+03  0.00000000000E+00 0. -1.
          2    1    3    3  501    0 -0.96998247811E+02 -0.18518335934E+03  0.87004518365E+03  0.89480733024E+03  0.00000000000E+00 0. -1.
<mgrwt>
<rscale>  0 0.64901386E+03</rscale>
<asrwt>0</asrwt>
<pdfrwt beam="1">0</pdfrwt>
<pdfrwt beam="2">  1        2 0.38292716E+00 0.64901386E+03</pdfrwt>
<totfact> 0.46111490E+00</totfact>
</mgrwt>
</event>
<event>
 5    1  0.2344661E-004  0.6498380E+03  0.7818608E-02  0.9807083E-01
         13   -1    0    0    0    0  0.00000000000E+00  0.00000000000E+00  0.10000000000E+04  0.10000000000E+04  0.00000000000E+00 0. -1.
          2   -1    0    0  501    0 -0.00000000000E+00 -0.00000000000E+00 -0.10557236128E+03  0.10557236128E+03  0.00000000000E+00 0. -1.
    9000006    2    1    2  501    0  0.00000000000E+00  0.00000000000E+00  0.89442763872E+03  0.11055723613E+04  0.64983801453E+03 0.  0.
         13    1    3    3    0    0 -0.15517152054E+03  0.13199791862E+03  0.16576336832E+02  0.20439282338E+03  0.00000000000E+00 0. -1.
          2    1    3    3  501    0  0.15517152054E+03 -0.13199791862E+03  0.87785130188E+03  0.90117953790E+03  0.00000000000E+00 0. -1.
<mgrwt>
<rscale>  0 0.64983801E+03</rscale>
<asrwt>0</asrwt>
<pdfrwt beam="1">0</pdfrwt>
<pdfrwt beam="2">  1        2 0.38390031E+00 0.64983801E+03</pdfrwt>
<totfact> 0.45727884E+00</totfact>
</mgrwt>
</event>
<event>
 5    1  0.2344661E-004  0.6699433E+03  0.7818608E-02  0.9770060E-01
         13   -1    0    0    0    0  0.00000000000E+00  0.00000000000E+00  0.10000000000E+04  0.10000000000E+04  0.00000000000E+00 0. -1.
          2   -1    0    0  501    0 -0.00000000000E+00 -0.00000000000E+00 -0.11220601280E+03  0.11220601280E+03  0.00000000000E+00 0. -1.
    9000006    2    1    2  501    0  0.00000000000E+00  0.00000000000E+00  0.88779398720E+03  0.11122060128E+04  0.66994331941E+03 0.  0.
         13    1    3    3    0    0  0.28127194784E+03 -0.16597142803E+03  0.32026780269E+03  0.45741872393E+03  0.00000000000E+00 0. -1.
          2    1    3    3  501    0 -0.28127194784E+03  0.16597142803E+03  0.56752618451E+03  0.65478728887E+03  0.00000000000E+00 0. -1.
<mgrwt>
<rscale>  0 0.66994332E+03</rscale>
<asrwt>0</asrwt>
<pdfrwt beam="1">0</pdfrwt>
<pdfrwt beam="2">  1        2 0.40802273E+00 0.66994332E+03</pdfrwt>
<totfact> 0.37093605E+00</totfact>
</mgrwt>
</event>
<event>
 5    1  0.2344661E-004  0.6357857E+03  0.7818608E-02  0.9833823E-01
         13   -1    0    0    0    0  0.00000000000E+00  0.00000000000E+00  0.10000000000E+04  0.10000000000E+04  0.00000000000E+00 0. -1.
          2   -1    0    0  501    0 -0.00000000000E+00 -0.00000000000E+00 -0.10105586685E+03  0.10105586685E+03  0.00000000000E+00 0. -1.
    9000006    2    1    2  501    0  0.00000000000E+00  0.00000000000E+00  0.89894413315E+03  0.11010558668E+04  0.63578570871E+03 0.  0.
         13    1    3    3    0    0  0.98240821859E+02 -0.11429638931E+03 -0.35250223914E+02  0.15478211129E+03  0.00000000000E+00 0. -1.
          4    1    3    3  501    0 -0.98240821859E+02  0.11429638931E+03  0.93419435707E+03  0.94627375556E+03  0.00000000000E+00 0. -1.
<mgrwt>
<rscale>  0 0.63578571E+03</rscale>
<asrwt>0</asrwt>
<pdfrwt beam="1">0</pdfrwt>
<pdfrwt beam="2">  1        2 0.36747665E+00 0.63578571E+03</pdfrwt>
<totfact> 0.52608587E+00</totfact>
</mgrwt>
</event>
<event>
 5    1  0.2344661E-004  0.6551184E+03  0.7818608E-02  0.9797222E-01
         13   -1    0    0    0    0  0.00000000000E+00  0.00000000000E+00  0.10000000000E+04  0.10000000000E+04  0.00000000000E+00 0. -1.
          2   -1    0    0  501    0 -0.00000000000E+00 -0.00000000000E+00 -0.10729503336E+03  0.10729503336E+03  0.00000000000E+00 0. -1.
    9000006    2    1    2  501    0  0.00000000000E+00  0.00000000000E+00  0.89270496664E+03  0.11072950334E+04  0.65511841177E+03 0.  0.
         13    1    3    3    0    0 -0.29639365043E+03  0.18067508709E+02  0.21264064878E+03  0.36522825246E+03  0.00000000000E+00 0. -1.
          4    1    3    3  501    0  0.29639365043E+03 -0.18067508709E+02  0.68006431786E+03  0.74206678090E+03  0.00000000000E+00 0. -1.
<mgrwt>
<rscale>  0 0.65511841E+03</rscale>
<asrwt>0</asrwt>
<pdfrwt beam="1">0</pdfrwt>
<pdfrwt beam="2">  1        2 0.39016458E+00 0.65511841E+03</pdfrwt>
<totfact> 0.43327003E+00</totfact>
</mgrwt>
</event>
<event>
 5    1  0.2344661E-004  0.6482369E+03  0.7818608E-02  0.9810093E-01
         13   -1    0    0    0    0  0.00000000000E+00  0.00000000000E+00  0.10000000000E+04  0.10000000000E+04  0.00000000000E+00 0. -1.
          2   -1    0    0  501    0 -0.00000000000E+00 -0.00000000000E+00 -0.10505276160E+03  0.10505276160E+03  0.00000000000E+00 0. -1.
    9000006    2    1    2  501    0  0.00000000000E+00  0.00000000000E+00  0.89494723840E+03  0.11050527616E+04  0.64823687523E+03 0.  0.
         13    1    3    3    0    0  0.60325539000E+02 -0.59997714664E+02 -0.85676477317E+02  0.12074500067E+03  0.00000000000E+00 0. -1.
          4    1    3    3  501    0 -0.60325539000E+02  0.59997714664E+02  0.98062371571E+03  0.98430776094E+03  0.00000000000E+00 0. -1.
<mgrwt>
<rscale>  0 0.64823688E+03</rscale>
<asrwt>0</asrwt>
<pdfrwt beam="1">0</pdfrwt>
<pdfrwt beam="2">  1        2 0.38201085E+00 0.64823688E+03</pdfrwt>
<totfact> 0.46475362E+00</totfact>
</mgrwt>
</event>
<event>
 5    1  0.2344661E-004  0.6563158E+03  0.7818608E-02  0.9795000E-01
         13   -1    0    0    0    0  0.00000000000E+00  0.00000000000E+00  0.10000000000E+04  0.10000000000E+04  0.00000000000E+00 0. -1.
          2   -1    0    0  501    0 -0.00000000000E+00 -0.00000000000E+00 -0.10768760329E+03  0.10768760329E+03  0.00000000000E+00 0. -1.
    9000006    2    1    2  501    0  0.00000000000E+00  0.00000000000E+00  0.89231239671E+03  0.11076876033E+04  0.65631578768E+03 0.  0.
         13    1    3    3    0    0 -0.14034848601E+03  0.94767723979E+02 -0.28241620105E+02  0.17168636562E+03  0.00000000000E+00 0. -1.
          2    1    3    3  501    0  0.14034848601E+03 -0.94767723979E+02  0.92055401682E+03  0.93600123767E+03  0.00000000000E+00 0. -1.
<mgrwt>
<rscale>  0 0.65631579E+03</rscale>
<asrwt>0</asrwt>
<pdfrwt beam="1">0</pdfrwt>
<pdfrwt beam="2">  1        2 0.39159211E+00 0.65631579E+03</pdfrwt>
<totfact> 0.42796094E+00</totfact>
</mgrwt>
</event>
<event>
 5    1  0.2344661E-004  0.6312571E+03  0.7818608E-02  0.9842599E-01
         13   -1    0    0    0    0  0.00000000000E+00  0.00000000000E+00  0.10000000000E+04  0.10000000000E+04  0.00000000000E+00 0. -1.
          2   -1    0    0  501    0 -0.00000000000E+00 -0.00000000000E+00 -0.99621366229E+02  0.99621366229E+02  0.00000000000E+00 0. -1.
    9000006    2    1    2  501    0  0.00000000000E+00  0.00000000000E+00  0.90037863377E+03  0.10996213662E+04  0.63125705138E+03 0.  0.
         13    1    3    3    0    0 -0.35500486595E+02  0.25554754946E+03  0.76690208330E+03  0.80913759025E+03  0.00000000000E+00 0. -1.
          2    1    3    3  501    0  0.35500486595E+02 -0.25554754946E+03  0.13347655047E+03  0.29048377598E+03  0.00000000000E+00 0. -1.
<mgrwt>
<rscale>  0 0.63125705E+03</rscale>
<asrwt>0</asrwt>
<pdfrwt beam="1">0</pdfrwt>
<pdfrwt beam="2">  1        2 0.36226028E+00 0.63125705E+03</pdfrwt>
<totfact> 0.54984862E+00</totfact>
</mgrwt>
</event>
<event>
 5    1  0.2344661E-004  0.6609325E+03  0.7818608E-02  0.9786479E-01
         13   -1    0    0    0    0  0.00000000000E+00  0.00000000000E+00  0.10000000000E+04  0.10000000000E+04  0.00000000000E+00 0. -1.
          2   -1    0    0  501    0 -0.00000000000E+00 -0.00000000000E+00 -0.10920795151E+03  0.10920795151E+03  0.00000000000E+00 0. -1.
    9000006    2    1    2  501    0  0.00000000000E+00  0.00000000000E+00  0.89079204849E+03  0.11092079515E+04  0.66093252759E+03 0.  0.
         13    1    3    3    0    0  0.18531493370E+03 -0.26836833136E+03  0.53490757690E+03  0.62648966612E+03  0.00000000000E+00 0. -1.
          4    1    3    3  501    0 -0.18531493370E+03  0.26836833136E+03  0.35588447159E+03  0.48271828539E+03  0.00000000000E+00 0. -1.
<mgrwt>
<rscale>  0 0.66093253E+03</rscale>
<asrwt>0</asrwt>
<pdfrwt beam="1">0</pdfrwt>
<pdfrwt beam="2">  1        2 0.39712066E+00 0.66093253E+03</pdfrwt>
<totfact> 0.40795005E+00</totfact>
</mgrwt>
</event>
<event>
 5    1  0.2344661E-004  0.6516055E+03  0.7818608E-02  0.9803771E-01
         13   -1    0    0    0    0  0.00000000000E+00  0.00000000000E+00  0.10000000000E+04  0.10000000000E+04  0.00000000000E+00 0. -1.
          2   -1    0    0  501    0 -0.00000000000E+00 -0.00000000000E+00 -0.10614741679E+03  0.10614741679E+03  0.00000000000E+00 0. -1.
    9000006    2    1    2  501    0  0.00000000000E+00  0.00000000000E+00  0.89385258321E+03  0.11061474168E+04  0.65160545360E+03 0.  0.
         13    1    3    3    0    0  0.25088239079E+03  0.10247854530E+03  0.75391755581E+03  0.80114637065E+03  0.00000000000E+00 0. -1.
          2    1    3    3  501    0 -0.25088239079E+03 -0.10247854530E+03  0.13993502740E+03  0.30500104614E+03  0.00000000000E+00 0. -1.
<mgrwt>
<rscale>  0 0.65160545E+03</rscale>
<asrwt>0</asrwt>
<pdfrwt beam="1">0</pdfrwt>
<pdfrwt beam="2">  1        2 0.38599142E+00 0.65160545E+03</pdfrwt>
<totfact> 0.44913361E+00</totfact>
</mgrwt>
</event>
<event>
 5    1  0.2344661E-004  0.6484864E+03  0.7818608E-02  0.9809624E-01
         13   -1    0    0    0    0  0.00000000000E+00  0.00000000000E+00  0.10000000000E+04  0.10000000000E+04  0.00000000000E+00 0. -1.
          2   -1    0    0  501    0 -0.00000000000E+00 -0.00000000000E+00 -0.10513364821E+03  0.10513364821E+03  0.00000000000E+00 0. -1.
    9000006    2    1    2  501    0  0.00000000000E+00  0.00000000000E+00  0.89486635179E+03  0.11051336482E+04  0.64848638600E+03 0.  0.
         13    1    3    3    0    0 -0.45719965437E+02 -0.27797415791E+03  0.72102450409E+03  0.77410353520E+03  0.00000000000E+00 0. -1.
          4    1    3    3  501    0  0.45719965437E+02  0.27797415791E+03  0.17384184770E+03  0.33103011301E+03  0.00000000000E+00 0. -1.
<mgrwt>
<rscale>  0 0.64848639E+03</rscale>
<asrwt>0</asrwt>
<pdfrwt beam="1">0</pdfrwt>
<pdfrwt beam="2">  1        2 0.38230498E+00 0.64848639E+03</pdfrwt>
<totfact> 0.46358277E+00</totfact>
</mgrwt>
</event>
<event>
 5    1  0.2344661E-004  0.6650067E+03  0.7818608E-02  0.9779021E-01
         13   -1    0    0    0    0  0.00000000000E+00  0.00000000000E+00  0.10000000000E+04  0.10000000000E+04  0.00000000000E+00 0. -1.
          2   -1    0    0  501    0 -0.00000000000E+00 -0.00000000000E+00 -0.11055847517E+03  0.11055847517E+03  0.00000000000E+00 0. -1.
    9000006    2    1    2  501    0  0.00000000000E+00  0.00000000000E+00  0.88944152483E+03  0.11105584752E+04  0.66500669220E+03 0.  0.
         13    1    3    3    0    0 -0.24924332028E+03 -0.16003426486E+03  0.19241716730E+03  0.35321036919E+03  0.00000000000E+00 0. -1.
          2    1    3    3  501    0  0.24924332028E+03  0.16003426486E+03  0.69702435753E+03  0.75734810597E+03  0.00000000000E+00 0. -1.
<mgrwt>
<rscale>  0 0.66500669E+03</rscale>
<asrwt>0</asrwt>
<pdfrwt beam="1">0</pdfrwt>
<pdfrwt beam="2">  1        2 0.40203167E+00 0.66500669E+03</pdfrwt>
<totfact> 0.39088544E+00</totfact>
</mgrwt>
</event>
<event>
 5    1  0.2344661E-004  0.6478775E+03  0.7818608E-02  0.9810770E-01
         13   -1    0    0    0    0  0.00000000000E+00  0.00000000000E+00  0.10000000000E+04  0.10000000000E+04  0.00000000000E+00 0. -1.
          2   -1    0    0  501    0 -0.00000000000E+00 -0.00000000000E+00 -0.10493630356E+03  0.10493630356E+03  0.00000000000E+00 0. -1.
    9000006    2    1    2  501    0  0.00000000000E+00  0.00000000000E+00  0.89506369644E+03  0.11049363036E+04  0.64787746855E+03 0.  0.
         13    1    3    3    0    0 -0.58198600949E+02  0.30587964227E+03  0.29511509803E+03  0.42900157784E+03  0.00000000000E+00 0. -1.
          2    1    3    3  501    0  0.58198600949E+02 -0.30587964227E+03  0.59994859841E+03  0.67593472572E+03  0.00000000000E+00 0. -1.
<mgrwt>
<rscale>  0 0.64787747E+03</rscale>
<asrwt>0</asrwt>
<pdfrwt beam="1">0</pdfrwt>
<pdfrwt beam="2">  1        2 0.38158736E+00 0.64787747E+03</pdfrwt>
<totfact> 0.46644409E+00</totfact>
</mgrwt>
</event>
<event>
 5    1  0.2344661E-004  0.6484828E+03  0.7818608E-02  0.9809630E-01
         13   -1    0    0    0    0  0.00000000000E+00  0.00000000000E+00  0.10000000000E+04  0.10000000000E+04  0.00000000000E+00 0. -1.
          2   -1    0    0  501    0 -0.00000000000E+00 -0.00000000000E+00 -0.10513249864E+03  0.10513249864E+03  0.00000000000E+00 0. -1.
    9000006    2    1    2  501    0  0.00000000000E+00  0.00000000000E+00  0.89486750136E+03  0.11051324986E+04  0.64848284059E+03 0.  0.
         13    1    3    3    0    0 -0.10206254032E+03  0.30385844163E+03  0.53067362537E+03  0.61996871804E+03  0.00000000000E+00 0. -1.
          2    1    3    3  501    0  0.10206254032E+03 -0.30385844163E+03  0.36419387600E+03  0.48516378060E+03  0.00000000000E+00 0. -1.
<mgrwt>
<rscale>  0 0.64848284E+03</rscale>
<asrwt>0</asrwt>
<pdfrwt beam="1">0</pdfrwt>
<pdfrwt beam="2">  1        2 0.38230080E+00 0.64848284E+03</pdfrwt>
<totfact> 0.46359939E+00</totfact>
</mgrwt>
</event>
<event>
 5    1  0.2344661E-004  0.6500190E+03  0.7818608E-02  0.9806743E-01
         13   -1    0    0    0    0  0.00000000000E+00  0.00000000000E+00  0.10000000000E+04  0.10000000000E+04  0.00000000000E+00 0. -1.
          2   -1    0    0  501    0 -0.00000000000E+00 -0.00000000000E+00 -0.10563118878E+03  0.10563118878E+03  0.00000000000E+00 0. -1.
    9000006    2    1    2  501    0  0.00000000000E+00  0.00000000000E+00  0.89436881122E+03  0.11056311888E+04  0.65001904213E+03 0.  0.
         13    1    3    3    0    0  0.29169286631E+02 -0.17205357683E+03  0.91355302530E+03  0.93007118578E+03  0.00000000000E+00 0. -1.
          4    1    3    3  501    0 -0.29169286631E+02  0.17205357683E+03 -0.19184214085E+02  0.17556000300E+03  0.00000000000E+00 0. -1.
<mgrwt>
<rscale>  0 0.65001904E+03</rscale>
<asrwt>0</asrwt>
<pdfrwt beam="1">0</pdfrwt>
<pdfrwt beam="2">  1        2 0.38411422E+00 0.65001904E+03</pdfrwt>
<totfact> 0.45643949E+00</totfact>
</mgrwt>
</event>
<event>
 5    1  0.2344661E-004  0.6219898E+03  0.7818608E-02  0.9860806E-01
         13   -1    0    0    0    0  0.00000000000E+00  0.00000000000E+00  0.10000000000E+04  0.10000000000E+04  0.00000000000E+00 0. -1.
          2   -1    0    0  501    0 -0.00000000000E+00 -0.00000000000E+00 -0.96717827509E+02  0.96717827509E+02  0.00000000000E+00 0. -1.
    9000006    2    1    2  501    0  0.00000000000E+00  0.00000000000E+00  0.90328217249E+03  0.10967178275E+04  0.62198979898E+03 0.  0.
         13    1    3    3    0    0 -0.23940751411E+03 -0.11501451385E+02  0.10222748670E+03  0.26057379038E+03  0.00000000000E+00 0. -1.
          2    1    3    3  501    0  0.23940751411E+03  0.11501451385E+02  0.80105468579E+03  0.83614403713E+03  0.00000000000E+00 0. -1.
<mgrwt>
<rscale>  0 0.62198980E+03</rscale>
<asrwt>0</asrwt>
<pdfrwt beam="1">0</pdfrwt>
<pdfrwt beam="2">  1        2 0.35170193E+00 0.62198980E+03</pdfrwt>
<totfact> 0.60101111E+00</totfact>
</mgrwt>
</event>
<event>
 5    1  0.2344661E-004  0.6424794E+03  0.7818608E-02  0.9820994E-01
         13   -1    0    0    0    0  0.00000000000E+00  0.00000000000E+00  0.10000000000E+04  0.10000000000E+04  0.00000000000E+00 0. -1.
          2   -1    0    0  501    0 -0.00000000000E+00 -0.00000000000E+00 -0.10319494271E+03  0.10319494271E+03  0.00000000000E+00 0. -1.
    9000006    2    1    2  501    0  0.00000000000E+00  0.00000000000E+00  0.89680505729E+03  0.11031949427E+04  0.64247939333E+03 0.  0.
         13    1    3    3    0    0  0.15994509364E+03  0.19194790150E+03  0.79510384790E+03  0.83343659556E+03  0.00000000000E+00 0. -1.
          4    1    3    3  501    0 -0.15994509364E+03 -0.19194790150E+03  0.10170120939E+03  0.26975834716E+03  0.00000000000E+00 0. -1.
<mgrwt>
<rscale>  0 0.64247939E+03</rscale>
<asrwt>0</asrwt>
<pdfrwt beam="1">0</pdfrwt>
<pdfrwt beam="2">  1        2 0.37525513E+00 0.64247939E+03</pdfrwt>
<totfact> 0.49239803E+00</totfact>
</mgrwt>
</event>
<event>
 5    1  0.2344661E-004  0.6403932E+03  0.7818608E-02  0.9824975E-01
         13   -1    0    0    0    0  0.00000000000E+00  0.00000000000E+00  0.10000000000E+04  0.10000000000E+04  0.00000000000E+00 0. -1.
          2   -1    0    0  501    0 -0.00000000000E+00 -0.00000000000E+00 -0.10252585434E+03  0.10252585434E+03  0.00000000000E+00 0. -1.
    9000006    2    1    2  501    0  0.00000000000E+00  0.00000000000E+00  0.89747414566E+03  0.11025258543E+04  0.64039317406E+03 0.  0.
         13    1    3    3    0    0 -0.11371053321E+02 -0.28133276618E+03  0.71124286230E+03  0.76494694937E+03  0.00000000000E+00 0. -1.
          4    1    3    3  501    0  0.11371053321E+02  0.28133276618E+03  0.18623128335E+03  0.33757890497E+03  0.00000000000E+00 0. -1.
<mgrwt>
<rscale>  0 0.64039317E+03</rscale>
<asrwt>0</asrwt>
<pdfrwt beam="1">0</pdfrwt>
<pdfrwt beam="2">  1        2 0.37282207E+00 0.64039317E+03</pdfrwt>
<totfact> 0.50271679E+00</totfact>
</mgrwt>
</event>
<event>
 5    1  0.2344661E-004  0.6544314E+03  0.7818608E-02  0.9798499E-01
         13   -1    0    0    0    0  0.00000000000E+00  0.00000000000E+00  0.10000000000E+04  0.10000000000E+04  0.00000000000E+00 0. -1.
          2   -1    0    0  501    0 -0.00000000000E+00 -0.00000000000E+00 -0.10707010139E+03  0.10707010139E+03  0.00000000000E+00 0. -1.
    9000006    2    1    2  501    0  0.00000000000E+00  0.00000000000E+00  0.89292989861E+03  0.11070701014E+04  0.65443136047E+03 0.  0.
         13    1    3    3    0    0  0.13508099640E+03 -0.29227446640E+03  0.54508785443E+03  0.63308135997E+03  0.00000000000E+00 0. -1.
          2    1    3    3  501    0 -0.13508099640E+03  0.29227446640E+03  0.34784204418E+03  0.47398874142E+03  0.00000000000E+00 0. -1.
<mgrwt>
<rscale>  0 0.65443136E+03</rscale>
<asrwt>0</asrwt>
<pdfrwt beam="1">0</pdfrwt>
<pdfrwt beam="2">  1        2 0.38934664E+00 0.65443136E+03</pdfrwt>
<totfact> 0.43633874E+00</totfact>
</mgrwt>
</event>
<event>
 5    1  0.2344661E-004  0.6472113E+03  0.7818608E-02  0.9812026E-01
         13   -1    0    0    0    0  0.00000000000E+00  0.00000000000E+00  0.10000000000E+04  0.10000000000E+04  0.00000000000E+00 0. -1.
          2   -1    0    0  501    0 -0.00000000000E+00 -0.00000000000E+00 -0.10472062587E+03  0.10472062587E+03  0.00000000000E+00 0. -1.
    9000006    2    1    2  501    0  0.00000000000E+00  0.00000000000E+00  0.89527937413E+03  0.11047206259E+04  0.64721132831E+03 0.  0.
         13    1    3    3    0    0  0.21465400705E+01 -0.18709972579E+03 -0.30244436660E+01  0.18713648037E+03  0.00000000000E+00 0. -1.
          2    1    3    3  501    0 -0.21465400705E+01  0.18709972579E+03  0.89830381779E+03  0.91758414551E+03  0.00000000000E+00 0. -1.
<mgrwt>
<rscale>  0 0.64721133E+03</rscale>
<asrwt>0</asrwt>
<pdfrwt beam="1">0</pdfrwt>
<pdfrwt beam="2">  1        2 0.38080308E+00 0.64721133E+03</pdfrwt>
<totfact> 0.46958958E+00</totfact>
</mgrwt>
</event>
<event>
 5    1  0.2344661E-004  0.6475389E+03  0.7818608E-02  0.9811408E-01
         13   -1    0    0    0    0  0.00000000000E+00  0.00000000000E+00  0.10000000000E+04  0.10000000000E+04  0.00000000000E+00 0. -1.
          2   -1    0    0  501    0 -0.00000000000E+00 -0.00000000000E+00 -0.10482666141E+03  0.10482666141E+03  0.00000000000E+00 0. -1.
    9000006    2    1    2  501    0  0.00000000000E+00  0.00000000000E+00  0.89517333859E+03  0.11048266614E+04  0.64753891437E+03 0.  0.
         13    1    3    3    0    0 -0.10723353969E+03 -0.30427741630E+03  0.40108285547E+03  0.51473414017E+03  0.00000000000E+00 0. -1.
          4    1    3    3  501    0  0.10723353969E+03  0.30427741630E+03  0.49409048313E+03  0.59009252124E+03  0.00000000000E+00 0. -1.
<mgrwt>
<rscale>  0 0.64753891E+03</rscale>
<asrwt>0</asrwt>
<pdfrwt beam="1">0</pdfrwt>
<pdfrwt beam="2">  1        2 0.38118866E+00 0.64753891E+03</pdfrwt>
<totfact> 0.46804073E+00</totfact>
</mgrwt>
</event>
<event>
 5    1  0.2344661E-004  0.6496951E+03  0.7818608E-02  0.9807351E-01
         13   -1    0    0    0    0  0.00000000000E+00  0.00000000000E+00  0.10000000000E+04  0.10000000000E+04  0.00000000000E+00 0. -1.
          2   -1    0    0  501    0 -0.00000000000E+00 -0.00000000000E+00 -0.10552594364E+03  0.10552594364E+03  0.00000000000E+00 0. -1.
    9000006    2    1    2  501    0  0.00000000000E+00  0.00000000000E+00  0.89447405636E+03  0.11055259436E+04  0.64969513971E+03 0.  0.
         13    1    3    3    0    0  0.57660813317E+02 -0.31132374178E+03  0.32360730535E+03  0.45273494416E+03  0.00000000000E+00 0. -1.
          2    1    3    3  501    0 -0.57660813317E+02  0.31132374178E+03  0.57086675101E+03  0.65279099948E+03  0.00000000000E+00 0. -1.
<mgrwt>
<rscale>  0 0.64969514E+03</rscale>
<asrwt>0</asrwt>
<pdfrwt beam="1">0</pdfrwt>
<pdfrwt beam="2">  1        2 0.38373151E+00 0.64969514E+03</pdfrwt>
<totfact> 0.45794212E+00</totfact>
</mgrwt>
</event>
<event>
 5    1  0.2344661E-004  0.6511735E+03  0.7818608E-02  0.9804580E-01
         13   -1    0    0    0    0  0.00000000000E+00  0.00000000000E+00  0.10000000000E+04  0.10000000000E+04  0.00000000000E+00 0. -1.
          2   -1    0    0  501    0 -0.00000000000E+00 -0.00000000000E+00 -0.10600674562E+03  0.10600674562E+03  0.00000000000E+00 0. -1.
    9000006    2    1    2  501    0  0.00000000000E+00  0.00000000000E+00  0.89399325438E+03  0.11060067456E+04  0.65117354253E+03 0.  0.
         13    1    3    3    0    0  0.17438728190E+03  0.11818230652E+02  0.91355754117E+03  0.93012793512E+03  0.00000000000E+00 0. -1.
          4    1    3    3  501    0 -0.17438728190E+03 -0.11818230652E+02 -0.19564286794E+02  0.17587881050E+03  0.00000000000E+00 0. -1.
<mgrwt>
<rscale>  0 0.65117354E+03</rscale>
<asrwt>0</asrwt>
<pdfrwt beam="1">0</pdfrwt>
<pdfrwt beam="2">  1        2 0.38547989E+00 0.65117354E+03</pdfrwt>
<totfact> 0.45111386E+00</totfact>
</mgrwt>
</event>
<event>
 5    1  0.2344661E-004  0.6681293E+03  0.7818608E-02  0.9773343E-01
         13   -1    0    0    0    0  0.00000000000E+00  0.00000000000E+00  0.10000000000E+04  0.10000000000E+04  0.00000000000E+00 0. -1.
          2   -1    0    0  501    0 -0.00000000000E+00 -0.00000000000E+00 -0.11159917985E+03  0.11159917985E+03  0.00000000000E+00 0. -1.
    9000006    2    1    2  501    0  0.00000000000E+00  0.00000000000E+00  0.88840082015E+03  0.11115991799E+04  0.66812926849E+03 0.  0.
         13    1    3    3    0    0  0.33029254953E+03 -0.32275029878E+02  0.38053437598E+03  0.50491707946E+03  0.00000000000E+00 0. -1.
          2    1    3    3  501    0 -0.33029254953E+03  0.32275029878E+02  0.50786644417E+03  0.60668210039E+03  0.00000000000E+00 0. -1.
<mgrwt>
<rscale>  0 0.66812927E+03</rscale>
<asrwt>0</asrwt>
<pdfrwt beam="1">0</pdfrwt>
<pdfrwt beam="2">  1        2 0.40581606E+00 0.66812927E+03</pdfrwt>
<totfact> 0.37817536E+00</totfact>
</mgrwt>
</event>
<event>
 5    1  0.2344661E-004  0.6391792E+03  0.7818608E-02  0.9827298E-01
         13   -1    0    0    0    0  0.00000000000E+00  0.00000000000E+00  0.10000000000E+04  0.10000000000E+04  0.00000000000E+00 0. -1.
          2   -1    0    0  501    0 -0.00000000000E+00 -0.00000000000E+00 -0.10213750386E+03  0.10213750386E+03  0.00000000000E+00 0. -1.
    9000006    2    1    2  501    0  0.00000000000E+00  0.00000000000E+00  0.89786249614E+03  0.11021375039E+04  0.63917917318E+03 0.  0.
         13    1    3    3    0    0  0.34055665909E+02  0.11610783192E+03 -0.61114309740E+02  0.13555727892E+03  0.00000000000E+00 0. -1.
          2    1    3    3  501    0 -0.34055665909E+02 -0.11610783192E+03  0.95897680588E+03  0.96658022494E+03  0.00000000000E+00 0. -1.
<mgrwt>
<rscale>  0 0.63917917E+03</rscale>
<asrwt>0</asrwt>
<pdfrwt beam="1">0</pdfrwt>
<pdfrwt beam="2">  1        2 0.37140989E+00 0.63917917E+03</pdfrwt>
<totfact> 0.50879630E+00</totfact>
</mgrwt>
</event>
<event>
 5    1  0.2344661E-004  0.6532643E+03  0.7818608E-02  0.9800673E-01
         13   -1    0    0    0    0  0.00000000000E+00  0.00000000000E+00  0.10000000000E+04  0.10000000000E+04  0.00000000000E+00 0. -1.
          2   -1    0    0  501    0 -0.00000000000E+00 -0.00000000000E+00 -0.10668857529E+03  0.10668857529E+03  0.00000000000E+00 0. -1.
    9000006    2    1    2  501    0  0.00000000000E+00  0.00000000000E+00  0.89331142471E+03  0.11066885753E+04  0.65326434250E+03 0.  0.
         13    1    3    3    0    0  0.42469360086E+02 -0.59809116617E+02  0.98586567982E+03  0.98859087373E+03  0.00000000000E+00 0. -1.
          4    1    3    3  501    0 -0.42469360086E+02  0.59809116617E+02 -0.92554255110E+02  0.11809770157E+03  0.00000000000E+00 0. -1.
<mgrwt>
<rscale>  0 0.65326434E+03</rscale>
<asrwt>0</asrwt>
<pdfrwt beam="1">0</pdfrwt>
<pdfrwt beam="2">  1        2 0.38795927E+00 0.65326434E+03</pdfrwt>
<totfact> 0.44158881E+00</totfact>
</mgrwt>
</event>
<event>
 5    1  0.2344661E-004  0.6608971E+03  0.7818608E-02  0.9786544E-01
         13   -1    0    0    0    0  0.00000000000E+00  0.00000000000E+00  0.10000000000E+04  0.10000000000E+04  0.00000000000E+00 0. -1.
          2   -1    0    0  501    0 -0.00000000000E+00 -0.00000000000E+00 -0.10919625515E+03  0.10919625515E+03  0.00000000000E+00 0. -1.
    9000006    2    1    2  501    0  0.00000000000E+00  0.00000000000E+00  0.89080374485E+03  0.11091962552E+04  0.66089713315E+03 0.  0.
         13    1    3    3    0    0  0.29317573185E+03 -0.13485780215E+02  0.19052725880E+03  0.34990643372E+03  0.00000000000E+00 0. -1.
          4    1    3    3  501    0 -0.29317573185E+03  0.13485780215E+02  0.70027648605E+03  0.75928982143E+03  0.00000000000E+00 0. -1.
<mgrwt>
<rscale>  0 0.66089713E+03</rscale>
<asrwt>0</asrwt>
<pdfrwt beam="1">0</pdfrwt>
<pdfrwt beam="2">  1        2 0.39707813E+00 0.66089713E+03</pdfrwt>
<totfact> 0.40810072E+00</totfact>
</mgrwt>
</event>
<event>
 5    1  0.2344661E-004  0.6561831E+03  0.7818608E-02  0.9795246E-01
         13   -1    0    0    0    0  0.00000000000E+00  0.00000000000E+00  0.10000000000E+04  0.10000000000E+04  0.00000000000E+00 0. -1.
          2   -1    0    0  501    0 -0.00000000000E+00 -0.00000000000E+00 -0.10764405606E+03  0.10764405606E+03  0.00000000000E+00 0. -1.
    9000006    2    1    2  501    0  0.00000000000E+00  0.00000000000E+00  0.89235594394E+03  0.11076440561E+04  0.65618307220E+03 0.  0.
         13    1    3    3    0    0 -0.29401194666E+03  0.55371918712E+02  0.21886000566E+03  0.37068689785E+03  0.00000000000E+00 0. -1.
          4    1    3    3  501    0  0.29401194666E+03 -0.55371918712E+02  0.67349593828E+03  0.73695715821E+03  0.00000000000E+00 0. -1.
<mgrwt>
<rscale>  0 0.65618307E+03</rscale>
<asrwt>0</asrwt>
<pdfrwt beam="1">0</pdfrwt>
<pdfrwt beam="2">  1        2 0.39143376E+00 0.65618307E+03</pdfrwt>
<totfact> 0.42854696E+00</totfact>
</mgrwt>
</event>
<event>
 5    1  0.2344661E-004  0.6466507E+03  0.7818608E-02  0.9813084E-01
         13   -1    0    0    0    0  0.00000000000E+00  0.00000000000E+00  0.10000000000E+04  0.10000000000E+04  0.00000000000E+00 0. -1.
          2   -1    0    0  501    0 -0.00000000000E+00 -0.00000000000E+00 -0.10453927738E+03  0.10453927738E+03  0.00000000000E+00 0. -1.
    9000006    2    1    2  501    0  0.00000000000E+00  0.00000000000E+00  0.89546072262E+03  0.11045392774E+04  0.64665068585E+03 0.  0.
         13    1    3    3    0    0 -0.20501028848E+03 -0.78788576832E+02  0.85302881731E+03  0.88084903438E+03  0.00000000000E+00 0. -1.
          2    1    3    3  501    0  0.20501028848E+03  0.78788576832E+02  0.42431905317E+02  0.22369024299E+03  0.00000000000E+00 0. -1.
<mgrwt>
<rscale>  0 0.64665069E+03</rscale>
<asrwt>0</asrwt>
<pdfrwt beam="1">0</pdfrwt>
<pdfrwt beam="2">  1        2 0.38014363E+00 0.64665069E+03</pdfrwt>
<totfact> 0.47224932E+00</totfact>
</mgrwt>
</event>
<event>
 5    1  0.2344661E-004  0.6449273E+03  0.7818608E-02  0.9816345E-01
         13   -1    0    0    0    0  0.00000000000E+00  0.00000000000E+00  0.10000000000E+04  0.10000000000E+04  0.00000000000E+00 0. -1.
          2   -1    0    0  501    0 -0.00000000000E+00 -0.00000000000E+00 -0.10398279921E+03  0.10398279921E+03  0.00000000000E+00 0. -1.
    9000006    2    1    2  501    0  0.00000000000E+00  0.00000000000E+00  0.89601720079E+03  0.11039827992E+04  0.64492728028E+03 0.  0.
         13    1    3    3    0    0 -0.21767419411E+02 -0.62369210779E+02  0.98829343718E+03  0.99049869105E+03  0.00000000000E+00 0. -1.
          4    1    3    3  501    0  0.21767419411E+02  0.62369210779E+02 -0.92276236397E+02  0.11348410816E+03  0.00000000000E+00 0. -1.
<mgrwt>
<rscale>  0 0.64492728E+03</rscale>
<asrwt>0</asrwt>
<pdfrwt beam="1">0</pdfrwt>
<pdfrwt beam="2">  1        2 0.37812007E+00 0.64492728E+03</pdfrwt>
<totfact> 0.48049671E+00</totfact>
</mgrwt>
</event>
<event>
 5    1  0.2344661E-004  0.6546387E+03  0.7818608E-02  0.9798114E-01
         13   -1    0    0    0    0  0.00000000000E+00  0.00000000000E+00  0.10000000000E+04  0.10000000000E+04  0.00000000000E+00 0. -1.
          2   -1    0    0  501    0 -0.00000000000E+00 -0.00000000000E+00 -0.10713794311E+03  0.10713794311E+03  0.00000000000E+00 0. -1.
    9000006    2    1    2  501    0  0.00000000000E+00  0.00000000000E+00  0.89286205689E+03  0.11071379431E+04  0.65463865790E+03 0.  0.
         13    1    3    3    0    0 -0.31673601766E+03  0.81995977128E+02  0.43013044450E+03  0.54042320864E+03  0.00000000000E+00 0. -1.
          4    1    3    3  501    0  0.31673601766E+03 -0.81995977128E+02  0.46273161239E+03  0.56671473446E+03  0.00000000000E+00 0. -1.
<mgrwt>
<rscale>  0 0.65463866E+03</rscale>
<asrwt>0</asrwt>
<pdfrwt beam="1">0</pdfrwt>
<pdfrwt beam="2">  1        2 0.38959334E+00 0.65463866E+03</pdfrwt>
<totfact> 0.43541112E+00</totfact>
</mgrwt>
</event>
<event>
 5    1  0.2344661E-004  0.6518482E+03  0.7818608E-02  0.9803317E-01
         13   -1    0    0    0    0  0.00000000000E+00  0.00000000000E+00  0.10000000000E+04  0.10000000000E+04  0.00000000000E+00 0. -1.
          2   -1    0    0  501    0 -0.00000000000E+00 -0.00000000000E+00 -0.10622650791E+03  0.10622650791E+03  0.00000000000E+00 0. -1.
    9000006    2    1    2  501    0  0.00000000000E+00  0.00000000000E+00  0.89377349209E+03  0.11062265079E+04  0.65184816608E+03 0.  0.
         13    1    3    3    0    0  0.28992892394E+03  0.35081634878E+02  0.20132828646E+03  0.35471478821E+03  0.00000000000E+00 0. -1.
          2    1    3    3  501    0 -0.28992892394E+03 -0.35081634878E+02  0.69244520563E+03  0.75151171970E+03  0.00000000000E+00 0. -1.
<mgrwt>
<rscale>  0 0.65184817E+03</rscale>
<asrwt>0</asrwt>
<pdfrwt beam="1">0</pdfrwt>
<pdfrwt beam="2">  1        2 0.38627903E+00 0.65184817E+03</pdfrwt>
<totfact> 0.44802369E+00</totfact>
</mgrwt>
</event>
<event>
 5    1  0.2344661E-004  0.6351706E+03  0.7818608E-02  0.9835010E-01
         13   -1    0    0    0    0  0.00000000000E+00  0.00000000000E+00  0.10000000000E+04  0.10000000000E+04  0.00000000000E+00 0. -1.
          2   -1    0    0  501    0 -0.00000000000E+00 -0.00000000000E+00 -0.10086040992E+03  0.10086040992E+03  0.00000000000E+00 0. -1.
    9000006    2    1    2  501    0  0.00000000000E+00  0.00000000000E+00  0.89913959008E+03  0.11008604099E+04  0.63517055951E+03 0.  0.
         13    1    3    3    0    0  0.30294652346E+03  0.94493298066E+02  0.47113581986E+03  0.56804448788E+03  0.00000000000E+00 0. -1.
          4    1    3    3  501    0 -0.30294652346E+03 -0.94493298066E+02  0.42800377022E+03  0.53281592204E+03  0.00000000000E+00 0. -1.
<mgrwt>
<rscale>  0 0.63517056E+03</rscale>
<asrwt>0</asrwt>
<pdfrwt beam="1">0</pdfrwt>
<pdfrwt beam="2">  1        2 0.36676590E+00 0.63517056E+03</pdfrwt>
<totfact> 0.52926709E+00</totfact>
</mgrwt>
</event>
<event>
 5    1  0.2344661E-004  0.5797248E+03  0.7818608E-02  0.9948387E-01
         13   -1    0    0    0    0  0.00000000000E+00  0.00000000000E+00  0.10000000000E+04  0.10000000000E+04  0.00000000000E+00 0. -1.
          2   -1    0    0  501    0 -0.00000000000E+00 -0.00000000000E+00 -0.84020199947E+02  0.84020199947E+02  0.00000000000E+00 0. -1.
    9000006    2    1    2  501    0  0.00000000000E+00  0.00000000000E+00  0.91597980005E+03  0.10840201999E+04  0.57972476210E+03 0.  0.
         13    1    3    3    0    0  0.28901061448E+03 -0.17030307233E+02  0.48463388392E+03  0.56452384191E+03  0.00000000000E+00 0. -1.
          4    1    3    3  501    0 -0.28901061448E+03  0.17030307233E+02  0.43134591613E+03  0.51949635803E+03  0.00000000000E+00 0. -1.
<mgrwt>
<rscale>  0 0.57972476E+03</rscale>
<asrwt>0</asrwt>
<pdfrwt beam="1">0</pdfrwt>
<pdfrwt beam="2">  1        2 0.30552864E+00 0.57972476E+03</pdfrwt>
<totfact> 0.88214820E+00</totfact>
</mgrwt>
</event>
<event>
 5    1  0.2344661E-004  0.6373778E+03  0.7818608E-02  0.9830756E-01
         13   -1    0    0    0    0  0.00000000000E+00  0.00000000000E+00  0.10000000000E+04  0.10000000000E+04  0.00000000000E+00 0. -1.
          2   -1    0    0  501    0 -0.00000000000E+00 -0.00000000000E+00 -0.10156261802E+03  0.10156261802E+03  0.00000000000E+00 0. -1.
    9000006    2    1    2  501    0  0.00000000000E+00  0.00000000000E+00  0.89843738198E+03  0.11015626180E+04  0.63737780952E+03 0.  0.
         13    1    3    3    0    0  0.29545775259E+01  0.31070451589E+03  0.32680875986E+03  0.45094344573E+03  0.00000000000E+00 0. -1.
          4    1    3    3  501    0 -0.29545775259E+01 -0.31070451589E+03  0.57162862212E+03  0.65061917229E+03  0.00000000000E+00 0. -1.
<mgrwt>
<rscale>  0 0.63737781E+03</rscale>
<asrwt>0</asrwt>
<pdfrwt beam="1">0</pdfrwt>
<pdfrwt beam="2">  1        2 0.36931939E+00 0.63737781E+03</pdfrwt>
<totfact> 0.51791966E+00</totfact>
</mgrwt>
</event>
<event>
 5    1  0.2344661E-004  0.6421415E+03  0.7818608E-02  0.9821638E-01
         13   -1    0    0    0    0  0.00000000000E+00  0.00000000000E+00  0.10000000000E+04  0.10000000000E+04  0.00000000000E+00 0. -1.
          2   -1    0    0  501    0 -0.00000000000E+00 -0.00000000000E+00 -0.10308642533E+03  0.10308642533E+03  0.00000000000E+00 0. -1.
    9000006    2    1    2  501    0  0.00000000000E+00  0.00000000000E+00  0.89691357467E+03  0.11030864253E+04  0.64214149635E+03 0.  0.
         13    1    3    3    0    0  0.12132962909E+03 -0.16498271653E+03  0.23677123263E+02  0.20615717745E+03  0.00000000000E+00 0. -1.
          4    1    3    3  501    0 -0.12132962909E+03  0.16498271653E+03  0.87323645140E+03  0.89692924788E+03  0.00000000000E+00 0. -1.
<mgrwt>
<rscale>  0 0.64214150E+03</rscale>
<asrwt>0</asrwt>
<pdfrwt beam="1">0</pdfrwt>
<pdfrwt beam="2">  1        2 0.37486052E+00 0.64214150E+03</pdfrwt>
<totfact> 0.49405833E+00</totfact>
</mgrwt>
</event>
<event>
 5    1  0.2344661E-004  0.6526887E+03  0.7818608E-02  0.9801747E-01
         13   -1    0    0    0    0  0.00000000000E+00  0.00000000000E+00  0.10000000000E+04  0.10000000000E+04  0.00000000000E+00 0. -1.
          2   -1    0    0  501    0 -0.00000000000E+00 -0.00000000000E+00 -0.10650062536E+03  0.10650062536E+03  0.00000000000E+00 0. -1.
    9000006    2    1    2  501    0  0.00000000000E+00  0.00000000000E+00  0.89349937464E+03  0.11065006254E+04  0.65268867114E+03 0.  0.
         13    1    3    3    0    0  0.28052908591E+03 -0.91482214617E+02  0.21040896896E+03  0.36240515704E+03  0.00000000000E+00 0. -1.
          2    1    3    3  501    0 -0.28052908591E+03  0.91482214617E+02  0.68309040568E+03  0.74409546832E+03  0.00000000000E+00 0. -1.
<mgrwt>
<rscale>  0 0.65268867E+03</rscale>
<asrwt>0</asrwt>
<pdfrwt beam="1">0</pdfrwt>
<pdfrwt beam="2">  1        2 0.38727582E+00 0.65268867E+03</pdfrwt>
<totfact> 0.44419609E+00</totfact>
</mgrwt>
</event>
<event>
 5    1  0.2344661E-004  0.6475543E+03  0.7818608E-02  0.9811379E-01
         13   -1    0    0    0    0  0.00000000000E+00  0.00000000000E+00  0.10000000000E+04  0.10000000000E+04  0.00000000000E+00 0. -1.
          2   -1    0    0  501    0 -0.00000000000E+00 -0.00000000000E+00 -0.10483164981E+03  0.10483164981E+03  0.00000000000E+00 0. -1.
    9000006    2    1    2  501    0  0.00000000000E+00  0.00000000000E+00  0.89516835019E+03  0.11048316498E+04  0.64755432146E+03 0.  0.
         13    1    3    3    0    0 -0.16441760159E+03 -0.13664668548E+03  0.32716276581E+02  0.21627718123E+03  0.00000000000E+00 0. -1.
          2    1    3    3  501    0  0.16441760159E+03  0.13664668548E+03  0.86245207361E+03  0.88855446858E+03  0.00000000000E+00 0. -1.
<mgrwt>
<rscale>  0 0.64755432E+03</rscale>
<asrwt>0</asrwt>
<pdfrwt beam="1">0</pdfrwt>
<pdfrwt beam="2">  1        2 0.38120680E+00 0.64755432E+03</pdfrwt>
<totfact> 0.46796798E+00</totfact>
</mgrwt>
</event>
<event>
 5    1  0.2344661E-004  0.6493813E+03  0.7818608E-02  0.9807941E-01
         13   -1    0    0    0    0  0.00000000000E+00  0.00000000000E+00  0.10000000000E+04  0.10000000000E+04  0.00000000000E+00 0. -1.
          2   -1    0    0  501    0 -0.00000000000E+00 -0.00000000000E+00 -0.10542401416E+03  0.10542401416E+03  0.00000000000E+00 0. -1.
    9000006    2    1    2  501    0  0.00000000000E+00  0.00000000000E+00  0.89457598584E+03  0.11054240142E+04  0.64938128757E+03 0.  0.
         13    1    3    3    0    0 -0.22792580265E+03  0.21739424422E+03  0.31310414100E+03  0.44412231654E+03  0.00000000000E+00 0. -1.
          2    1    3    3  501    0  0.22792580265E+03 -0.21739424422E+03  0.58147184484E+03  0.66130169762E+03  0.00000000000E+00 0. -1.
<mgrwt>
<rscale>  0 0.64938129E+03</rscale>
<asrwt>0</asrwt>
<pdfrwt beam="1">0</pdfrwt>
<pdfrwt beam="2">  1        2 0.38336086E+00 0.64938129E+03</pdfrwt>
<totfact> 0.45940170E+00</totfact>
</mgrwt>
</event>
<event>
 5    1  0.2344661E-004  0.6506117E+03  0.7818608E-02  0.9805632E-01
         13   -1    0    0    0    0  0.00000000000E+00  0.00000000000E+00  0.10000000000E+04  0.10000000000E+04  0.00000000000E+00 0. -1.
          2   -1    0    0  501    0 -0.00000000000E+00 -0.00000000000E+00 -0.10582390425E+03  0.10582390425E+03  0.00000000000E+00 0. -1.
    9000006    2    1    2  501    0  0.00000000000E+00  0.00000000000E+00  0.89417609575E+03  0.11058239043E+04  0.65061172523E+03 0.  0.
         13    1    3    3    0    0 -0.18870999728E+03  0.14269088442E+03  0.82658151478E+03  0.85977273285E+03  0.00000000000E+00 0. -1.
          4    1    3    3  501    0  0.18870999728E+03 -0.14269088442E+03  0.67594580965E+02  0.24605117140E+03  0.00000000000E+00 0. -1.
<mgrwt>
<rscale>  0 0.65061173E+03</rscale>
<asrwt>0</asrwt>
<pdfrwt beam="1">0</pdfrwt>
<pdfrwt beam="2">  1        2 0.38481501E+00 0.65061173E+03</pdfrwt>
<totfact> 0.45369959E+00</totfact>
</mgrwt>
</event>
<event>
 5    1  0.2344661E-004  0.6438853E+03  0.7818608E-02  0.9818321E-01
         13   -1    0    0    0    0  0.00000000000E+00  0.00000000000E+00  0.10000000000E+04  0.10000000000E+04  0.00000000000E+00 0. -1.
          2   -1    0    0  501    0 -0.00000000000E+00 -0.00000000000E+00 -0.10364705632E+03  0.10364705632E+03  0.00000000000E+00 0. -1.
    9000006    2    1    2  501    0  0.00000000000E+00  0.00000000000E+00  0.89635294368E+03  0.11036470563E+04  0.64388525786E+03 0.  0.
         13    1    3    3    0    0  0.22776892240E+03 -0.85400169010E+02  0.80965342357E+03  0.84540554598E+03  0.00000000000E+00 0. -1.
          2    1    3    3  501    0 -0.22776892240E+03  0.85400169010E+02  0.86699520114E+02  0.25824151034E+03  0.00000000000E+00 0. -1.
<mgrwt>
<rscale>  0 0.64388526E+03</rscale>
<asrwt>0</asrwt>
<pdfrwt beam="1">0</pdfrwt>
<pdfrwt beam="2">  1        2 0.37689918E+00 0.64388526E+03</pdfrwt>
<totfact> 0.48553592E+00</totfact>
</mgrwt>
</event>
<event>
 5    1  0.2344661E-004  0.5412292E+03  0.7818608E-02  0.1003545E+00
         13   -1    0    0    0    0  0.00000000000E+00  0.00000000000E+00  0.10000000000E+04  0.10000000000E+04  0.00000000000E+00 0. -1.
          2   -1    0    0  501    0 -0.00000000000E+00 -0.00000000000E+00 -0.73232258219E+02  0.73232258219E+02  0.00000000000E+00 0. -1.
    9000006    2    1    2  501    0  0.00000000000E+00  0.00000000000E+00  0.92676774178E+03  0.10732322582E+04  0.54122918701E+03 0.  0.
         13    1    3    3    0    0  0.19852448188E+03 -0.66580791152E+02  0.12345171167E+03  0.24307467324E+03  0.00000000000E+00 0. -1.
          4    1    3    3  501    0 -0.19852448188E+03  0.66580791152E+02  0.80331603011E+03  0.83015758498E+03  0.00000000000E+00 0. -1.
<mgrwt>
<rscale>  0 0.54122919E+03</rscale>
<asrwt>0</asrwt>
<pdfrwt beam="1">0</pdfrwt>
<pdfrwt beam="2">  1        2 0.26629968E+00 0.54122919E+03</pdfrwt>
<totfact> 0.12184064E+01</totfact>
</mgrwt>
</event>
<event>
 5    1  0.2344661E-004  0.6220208E+03  0.7818608E-02  0.9860745E-01
         13   -1    0    0    0    0  0.00000000000E+00  0.00000000000E+00  0.10000000000E+04  0.10000000000E+04  0.00000000000E+00 0. -1.
          2   -1    0    0  501    0 -0.00000000000E+00 -0.00000000000E+00 -0.96727460133E+02  0.96727460133E+02  0.00000000000E+00 0. -1.
    9000006    2    1    2  501    0  0.00000000000E+00  0.00000000000E+00  0.90327253987E+03  0.10967274601E+04  0.62202077178E+03 0.  0.
         13    1    3    3    0    0 -0.27986977674E+03  0.11715103813E+03  0.57220403080E+03  0.64766419581E+03  0.00000000000E+00 0. -1.
          4    1    3    3  501    0  0.27986977674E+03 -0.11715103813E+03  0.33106850906E+03  0.44906326432E+03  0.00000000000E+00 0. -1.
<mgrwt>
<rscale>  0 0.62202077E+03</rscale>
<asrwt>0</asrwt>
<pdfrwt beam="1">0</pdfrwt>
<pdfrwt beam="2">  1        2 0.35173696E+00 0.62202077E+03</pdfrwt>
<totfact> 0.60083430E+00</totfact>
</mgrwt>
</event>
<event>
 5    1  0.2344661E-004  0.6595872E+03  0.7818608E-02  0.9788954E-01
         13   -1    0    0    0    0  0.00000000000E+00  0.00000000000E+00  0.10000000000E+04  0.10000000000E+04  0.00000000000E+00 0. -1.
          2   -1    0    0  501    0 -0.00000000000E+00 -0.00000000000E+00 -0.10876382197E+03  0.10876382197E+03  0.00000000000E+00 0. -1.
    9000006    2    1    2  501    0  0.00000000000E+00  0.00000000000E+00  0.89123617803E+03  0.11087638220E+04  0.65958721022E+03 0.  0.
         13    1    3    3    0    0  0.49607562181E+01 -0.32895334477E+03  0.40695846365E+03  0.52330689206E+03  0.00000000000E+00 0. -1.
          4    1    3    3  501    0 -0.49607562181E+01  0.32895334477E+03  0.48427771438E+03  0.58545692991E+03  0.00000000000E+00 0. -1.
<mgrwt>
<rscale>  0 0.65958721E+03</rscale>
<asrwt>0</asrwt>
<pdfrwt beam="1">0</pdfrwt>
<pdfrwt beam="2">  1        2 0.39550564E+00 0.65958721E+03</pdfrwt>
<totfact> 0.41370646E+00</totfact>
</mgrwt>
</event>
<event>
 5    1  0.2344661E-004  0.6465026E+03  0.7818608E-02  0.9813364E-01
         13   -1    0    0    0    0  0.00000000000E+00  0.00000000000E+00  0.10000000000E+04  0.10000000000E+04  0.00000000000E+00 0. -1.
          2   -1    0    0  501    0 -0.00000000000E+00 -0.00000000000E+00 -0.10449140021E+03  0.10449140021E+03  0.00000000000E+00 0. -1.
    9000006    2    1    2  501    0  0.00000000000E+00  0.00000000000E+00  0.89550859979E+03  0.11044914002E+04  0.64650259153E+03 0.  0.
         13    1    3    3    0    0 -0.72900915803E+02 -0.26499671251E+03  0.73845317191E+03  0.78794091673E+03  0.00000000000E+00 0. -1.
          4    1    3    3  501    0  0.72900915803E+02  0.26499671251E+03  0.15705542788E+03  0.31655048348E+03  0.00000000000E+00 0. -1.
<mgrwt>
<rscale>  0 0.64650259E+03</rscale>
<asrwt>0</asrwt>
<pdfrwt beam="1">0</pdfrwt>
<pdfrwt beam="2">  1        2 0.37996953E+00 0.64650259E+03</pdfrwt>
<totfact> 0.47295379E+00</totfact>
</mgrwt>
</event>
<event>
 5    1  0.2344661E-004  0.6480270E+03  0.7818608E-02  0.9810488E-01
         13   -1    0    0    0    0  0.00000000000E+00  0.00000000000E+00  0.10000000000E+04  0.10000000000E+04  0.00000000000E+00 0. -1.
          2   -1    0    0  501    0 -0.00000000000E+00 -0.00000000000E+00 -0.10498473777E+03  0.10498473777E+03  0.00000000000E+00 0. -1.
    9000006    2    1    2  501    0  0.00000000000E+00  0.00000000000E+00  0.89501526223E+03  0.11049847378E+04  0.64802696785E+03 0.  0.
         13    1    3    3    0    0  0.12052057735E+03 -0.15749454109E+03  0.88442277224E+03  0.90638478589E+03  0.00000000000E+00 0. -1.
          2    1    3    3  501    0 -0.12052057735E+03  0.15749454109E+03  0.10592489991E+02  0.19859995187E+03  0.00000000000E+00 0. -1.
<mgrwt>
<rscale>  0 0.64802697E+03</rscale>
<asrwt>0</asrwt>
<pdfrwt beam="1">0</pdfrwt>
<pdfrwt beam="2">  1        2 0.38176349E+00 0.64802697E+03</pdfrwt>
<totfact> 0.46574035E+00</totfact>
</mgrwt>
</event>
<event>
 5    1  0.2344661E-004  0.6474070E+03  0.7818608E-02  0.9811657E-01
         13   -1    0    0    0    0  0.00000000000E+00  0.00000000000E+00  0.10000000000E+04  0.10000000000E+04  0.00000000000E+00 0. -1.
          2   -1    0    0  501    0 -0.00000000000E+00 -0.00000000000E+00 -0.10478394993E+03  0.10478394993E+03  0.00000000000E+00 0. -1.
    9000006    2    1    2  501    0  0.00000000000E+00  0.00000000000E+00  0.89521605007E+03  0.11047839499E+04  0.64740698153E+03 0.  0.
         13    1    3    3    0    0  0.81456743908E+02 -0.22164755759E+03  0.69782283027E+02  0.24623648783E+03  0.00000000000E+00 0. -1.
          4    1    3    3  501    0 -0.81456743908E+02  0.22164755759E+03  0.82543376704E+03  0.85854746210E+03  0.00000000000E+00 0. -1.
<mgrwt>
<rscale>  0 0.64740698E+03</rscale>
<asrwt>0</asrwt>
<pdfrwt beam="1">0</pdfrwt>
<pdfrwt beam="2">  1        2 0.38103335E+00 0.64740698E+03</pdfrwt>
<totfact> 0.46866405E+00</totfact>
</mgrwt>
</event>
<event>
 5    1  0.2344661E-004  0.6562960E+03  0.7818608E-02  0.9795036E-01
         13   -1    0    0    0    0  0.00000000000E+00  0.00000000000E+00  0.10000000000E+04  0.10000000000E+04  0.00000000000E+00 0. -1.
          2   -1    0    0  501    0 -0.00000000000E+00 -0.00000000000E+00 -0.10768109575E+03  0.10768109575E+03  0.00000000000E+00 0. -1.
    9000006    2    1    2  501    0  0.00000000000E+00  0.00000000000E+00  0.89231890425E+03  0.11076810957E+04  0.65629595686E+03 0.  0.
         13    1    3    3    0    0 -0.22775307274E+03  0.76640061917E+02  0.69002944177E+02  0.25001313474E+03  0.00000000000E+00 0. -1.
          2    1    3    3  501    0  0.22775307274E+03 -0.76640061917E+02  0.82331596007E+03  0.85766796101E+03  0.00000000000E+00 0. -1.
<mgrwt>
<rscale>  0 0.65629596E+03</rscale>
<asrwt>0</asrwt>
<pdfrwt beam="1">0</pdfrwt>
<pdfrwt beam="2">  1        2 0.39156845E+00 0.65629596E+03</pdfrwt>
<totfact> 0.42804847E+00</totfact>
</mgrwt>
</event>
<event>
 5    1  0.2344661E-004  0.6486100E+03  0.7818608E-02  0.9809391E-01
         13   -1    0    0    0    0  0.00000000000E+00  0.00000000000E+00  0.10000000000E+04  0.10000000000E+04  0.00000000000E+00 0. -1.
          2   -1    0    0  501    0 -0.00000000000E+00 -0.00000000000E+00 -0.10517372562E+03  0.10517372562E+03  0.00000000000E+00 0. -1.
    9000006    2    1    2  501    0  0.00000000000E+00  0.00000000000E+00  0.89482627438E+03  0.11051737256E+04  0.64860997716E+03 0.  0.
         13    1    3    3    0    0 -0.13695779532E+03 -0.14522033784E+03  0.11906860421E+02  0.19997039168E+03  0.00000000000E+00 0. -1.
          2    1    3    3  501    0  0.13695779532E+03  0.14522033784E+03  0.88291941396E+03  0.90520333394E+03  0.00000000000E+00 0. -1.
<mgrwt>
<rscale>  0 0.64860998E+03</rscale>
<asrwt>0</asrwt>
<pdfrwt beam="1">0</pdfrwt>
<pdfrwt beam="2">  1        2 0.38245072E+00 0.64860998E+03</pdfrwt>
<totfact> 0.46300363E+00</totfact>
</mgrwt>
</event>
<event>
 5    1  0.2344661E-004  0.5815003E+03  0.7818608E-02  0.9944548E-01
         13   -1    0    0    0    0  0.00000000000E+00  0.00000000000E+00  0.10000000000E+04  0.10000000000E+04  0.00000000000E+00 0. -1.
          2   -1    0    0  501    0 -0.00000000000E+00 -0.00000000000E+00 -0.84535645152E+02  0.84535645152E+02  0.00000000000E+00 0. -1.
    9000006    2    1    2  501    0  0.00000000000E+00  0.00000000000E+00  0.91546435485E+03  0.10845356452E+04  0.58150028427E+03 0.  0.
         13    1    3    3    0    0  0.22300586394E+03  0.43568619892E+02  0.79605411549E+03  0.82784780895E+03  0.00000000000E+00 0. -1.
          4    1    3    3  501    0 -0.22300586394E+03 -0.43568619892E+02  0.11941023935E+03  0.25668783620E+03  0.00000000000E+00 0. -1.
<mgrwt>
<rscale>  0 0.58150028E+03</rscale>
<asrwt>0</asrwt>
<pdfrwt beam="1">0</pdfrwt>
<pdfrwt beam="2">  1        2 0.30740299E+00 0.58150028E+03</pdfrwt>
<totfact> 0.86861443E+00</totfact>
</mgrwt>
</event>
<event>
 5    1  0.2344661E-004  0.6511418E+03  0.7818608E-02  0.9804639E-01
         13   -1    0    0    0    0  0.00000000000E+00  0.00000000000E+00  0.10000000000E+04  0.10000000000E+04  0.00000000000E+00 0. -1.
          2   -1    0    0  501    0 -0.00000000000E+00 -0.00000000000E+00 -0.10599642521E+03  0.10599642521E+03  0.00000000000E+00 0. -1.
    9000006    2    1    2  501    0  0.00000000000E+00  0.00000000000E+00  0.89400357479E+03  0.11059964252E+04  0.65114184387E+03 0.  0.
         13    1    3    3    0    0  0.20403993619E+03  0.23388862008E+03  0.28005727623E+03  0.41805293939E+03  0.00000000000E+00 0. -1.
          2    1    3    3  501    0 -0.20403993619E+03 -0.23388862008E+03  0.61394629856E+03  0.68794348582E+03  0.00000000000E+00 0. -1.
<mgrwt>
<rscale>  0 0.65114184E+03</rscale>
<asrwt>0</asrwt>
<pdfrwt beam="1">0</pdfrwt>
<pdfrwt beam="2">  1        2 0.38544236E+00 0.65114184E+03</pdfrwt>
<totfact> 0.45125946E+00</totfact>
</mgrwt>
</event>
<event>
 5    1  0.2344661E-004  0.6551330E+03  0.7818608E-02  0.9797195E-01
         13   -1    0    0    0    0  0.00000000000E+00  0.00000000000E+00  0.10000000000E+04  0.10000000000E+04  0.00000000000E+00 0. -1.
          2   -1    0    0  501    0 -0.00000000000E+00 -0.00000000000E+00 -0.10729982055E+03  0.10729982055E+03  0.00000000000E+00 0. -1.
    9000006    2    1    2  501    0  0.00000000000E+00  0.00000000000E+00  0.89270017945E+03  0.11072998206E+04  0.65513302635E+03 0.  0.
         13    1    3    3    0    0  0.30869395773E+03 -0.10492787884E+03  0.49974517446E+03  0.59669678958E+03  0.00000000000E+00 0. -1.
          4    1    3    3  501    0 -0.30869395773E+03  0.10492787884E+03  0.39295500498E+03  0.51060303097E+03  0.00000000000E+00 0. -1.
<mgrwt>
<rscale>  0 0.65513303E+03</rscale>
<asrwt>0</asrwt>
<pdfrwt beam="1">0</pdfrwt>
<pdfrwt beam="2">  1        2 0.39018199E+00 0.65513303E+03</pdfrwt>
<totfact> 0.43320493E+00</totfact>
</mgrwt>
</event>
<event>
 5    1  0.2344661E-004  0.6484604E+03  0.7818608E-02  0.9809672E-01
         13   -1    0    0    0    0  0.00000000000E+00  0.00000000000E+00  0.10000000000E+04  0.10000000000E+04  0.00000000000E+00 0. -1.
          2   -1    0    0  501    0 -0.00000000000E+00 -0.00000000000E+00 -0.10512521923E+03  0.10512521923E+03  0.00000000000E+00 0. -1.
    9000006    2    1    2  501    0  0.00000000000E+00  0.00000000000E+00  0.89487478077E+03  0.11051252192E+04  0.64846038962E+03 0.  0.
         13    1    3    3    0    0  0.22643161042E+03  0.82964982350E+02  0.78084233481E+02  0.25347901296E+03  0.00000000000E+00 0. -1.
          4    1    3    3  501    0 -0.22643161042E+03 -0.82964982350E+02  0.81679054729E+03  0.85164620626E+03  0.00000000000E+00 0. -1.
<mgrwt>
<rscale>  0 0.64846039E+03</rscale>
<asrwt>0</asrwt>
<pdfrwt beam="1">0</pdfrwt>
<pdfrwt beam="2">  1        2 0.38227433E+00 0.64846039E+03</pdfrwt>
<totfact> 0.46370465E+00</totfact>
</mgrwt>
</event>
<event>
 5    1  0.2344661E-004  0.6449130E+03  0.7818608E-02  0.9816372E-01
         13   -1    0    0    0    0  0.00000000000E+00  0.00000000000E+00  0.10000000000E+04  0.10000000000E+04  0.00000000000E+00 0. -1.
          2   -1    0    0  501    0 -0.00000000000E+00 -0.00000000000E+00 -0.10397819288E+03  0.10397819288E+03  0.00000000000E+00 0. -1.
    9000006    2    1    2  501    0  0.00000000000E+00  0.00000000000E+00  0.89602180712E+03  0.11039781929E+04  0.64491299531E+03 0.  0.
         13    1    3    3    0    0 -0.71941157419E+02 -0.19393692729E+03  0.24559470841E+02  0.20830321531E+03  0.00000000000E+00 0. -1.
          2    1    3    3  501    0  0.71941157419E+02  0.19393692729E+03  0.87146233628E+03  0.89567497757E+03  0.00000000000E+00 0. -1.
<mgrwt>
<rscale>  0 0.64491300E+03</rscale>
<asrwt>0</asrwt>
<pdfrwt beam="1">0</pdfrwt>
<pdfrwt beam="2">  1        2 0.37810332E+00 0.64491300E+03</pdfrwt>
<totfact> 0.48056553E+00</totfact>
</mgrwt>
</event>
<event>
 5    1  0.2344661E-004  0.6634372E+03  0.7818608E-02  0.9781887E-01
         13   -1    0    0    0    0  0.00000000000E+00  0.00000000000E+00  0.10000000000E+04  0.10000000000E+04  0.00000000000E+00 0. -1.
          2   -1    0    0  501    0 -0.00000000000E+00 -0.00000000000E+00 -0.11003721918E+03  0.11003721918E+03  0.00000000000E+00 0. -1.
    9000006    2    1    2  501    0  0.00000000000E+00  0.00000000000E+00  0.88996278082E+03  0.11100372192E+04  0.66343716864E+03 0.  0.
         13    1    3    3    0    0  0.47506608963E+02 -0.27324315219E+03  0.14049126766E+03  0.31089627596E+03  0.00000000000E+00 0. -1.
          4    1    3    3  501    0 -0.47506608963E+02  0.27324315219E+03  0.74947151315E+03  0.79914094323E+03  0.00000000000E+00 0. -1.
<mgrwt>
<rscale>  0 0.66343717E+03</rscale>
<asrwt>0</asrwt>
<pdfrwt beam="1">0</pdfrwt>
<pdfrwt beam="2">  1        2 0.40013619E+00 0.66343717E+03</pdfrwt>
<totfact> 0.39739430E+00</totfact>
</mgrwt>
</event>
<event>
 5    1  0.2344661E-004  0.6554211E+03  0.7818608E-02  0.9796660E-01
         13   -1    0    0    0    0  0.00000000000E+00  0.00000000000E+00  0.10000000000E+04  0.10000000000E+04  0.00000000000E+00 0. -1.
          2   -1    0    0  501    0 -0.00000000000E+00 -0.00000000000E+00 -0.10739418973E+03  0.10739418973E+03  0.00000000000E+00 0. -1.
    9000006    2    1    2  501    0  0.00000000000E+00  0.00000000000E+00  0.89260581027E+03  0.11073941897E+04  0.65542105469E+03 0.  0.
         13    1    3    3    0    0 -0.11480479576E+03 -0.30692730937E+03  0.44104738675E+03  0.54946092830E+03  0.00000000000E+00 0. -1.
          2    1    3    3  501    0  0.11480479576E+03  0.30692730937E+03  0.45155842351E+03  0.55793326143E+03  0.00000000000E+00 0. -1.
<mgrwt>
<rscale>  0 0.65542105E+03</rscale>
<asrwt>0</asrwt>
<pdfrwt beam="1">0</pdfrwt>
<pdfrwt beam="2">  1        2 0.39052515E+00 0.65542105E+03</pdfrwt>
<totfact> 0.43192346E+00</totfact>
</mgrwt>
</event>
<event>
 5    1  0.2344661E-004  0.6540638E+03  0.7818608E-02  0.9799184E-01
         13   -1    0    0    0    0  0.00000000000E+00  0.00000000000E+00  0.10000000000E+04  0.10000000000E+04  0.00000000000E+00 0. -1.
          2   -1    0    0  501    0 -0.00000000000E+00 -0.00000000000E+00 -0.10694985988E+03  0.10694985988E+03  0.00000000000E+00 0. -1.
    9000006    2    1    2  501    0  0.00000000000E+00  0.00000000000E+00  0.89305014012E+03  0.11069498599E+04  0.65406378856E+03 0.  0.
         13    1    3    3    0    0 -0.24317702555E+03 -0.20602943237E+03  0.32254263187E+03  0.45345004371E+03  0.00000000000E+00 0. -1.
          2    1    3    3  501    0  0.24317702555E+03  0.20602943237E+03  0.57050750825E+03  0.65349981617E+03  0.00000000000E+00 0. -1.
<mgrwt>
<rscale>  0 0.65406379E+03</rscale>
<asrwt>0</asrwt>
<pdfrwt beam="1">0</pdfrwt>
<pdfrwt beam="2">  1        2 0.38890940E+00 0.65406379E+03</pdfrwt>
<totfact> 0.43798722E+00</totfact>
</mgrwt>
</event>
<event>
 5    1  0.2344661E-004  0.6747502E+03  0.7818608E-02  0.9761414E-01
         13   -1    0    0    0    0  0.00000000000E+00  0.00000000000E+00  0.10000000000E+04  0.10000000000E+04  0.00000000000E+00 0. -1.
          2   -1    0    0  501    0 -0.00000000000E+00 -0.00000000000E+00 -0.11382196857E+03  0.11382196857E+03  0.00000000000E+00 0. -1.
    9000006    2    1    2  501    0  0.00000000000E+00  0.00000000000E+00  0.88617803143E+03  0.11138219686E+04  0.67475023104E+03 0.  0.
         13    1    3    3    0    0 -0.17182280004E+03 -0.27786282436E+03  0.58209417323E+03  0.66750614251E+03  0.00000000000E+00 0. -1.
          2    1    3    3  501    0  0.17182280004E+03  0.27786282436E+03  0.30408385819E+03  0.44631582606E+03  0.00000000000E+00 0. -1.
<mgrwt>
<rscale>  0 0.67475023E+03</rscale>
<asrwt>0</asrwt>
<pdfrwt beam="1">0</pdfrwt>
<pdfrwt beam="2">  1        2 0.41389894E+00 0.67475023E+03</pdfrwt>
<totfact> 0.35225829E+00</totfact>
</mgrwt>
</event>
<event>
 5    1  0.2344661E-004  0.6546206E+03  0.7818608E-02  0.9798147E-01
         13   -1    0    0    0    0  0.00000000000E+00  0.00000000000E+00  0.10000000000E+04  0.10000000000E+04  0.00000000000E+00 0. -1.
          2   -1    0    0  501    0 -0.00000000000E+00 -0.00000000000E+00 -0.10713204858E+03  0.10713204858E+03  0.00000000000E+00 0. -1.
    9000006    2    1    2  501    0  0.00000000000E+00  0.00000000000E+00  0.89286795142E+03  0.11071320486E+04  0.65462064916E+03 0.  0.
         13    1    3    3    0    0  0.18316978798E+03 -0.22570339080E+03  0.70090419713E+03  0.75878843257E+03  0.00000000000E+00 0. -1.
          4    1    3    3  501    0 -0.18316978798E+03  0.22570339080E+03  0.19196375430E+03  0.34834361601E+03  0.00000000000E+00 0. -1.
<mgrwt>
<rscale>  0 0.65462065E+03</rscale>
<asrwt>0</asrwt>
<pdfrwt beam="1">0</pdfrwt>
<pdfrwt beam="2">  1        2 0.38957191E+00 0.65462065E+03</pdfrwt>
<totfact> 0.43549165E+00</totfact>
</mgrwt>
</event>
<event>
 5    1  0.2344661E-004  0.6715495E+03  0.7818608E-02  0.9767163E-01
         13   -1    0    0    0    0  0.00000000000E+00  0.00000000000E+00  0.10000000000E+04  0.10000000000E+04  0.00000000000E+00 0. -1.
          2   -1    0    0  501    0 -0.00000000000E+00 -0.00000000000E+00 -0.11274467710E+03  0.11274467710E+03  0.00000000000E+00 0. -1.
    9000006    2    1    2  501    0  0.00000000000E+00  0.00000000000E+00  0.88725532290E+03  0.11127446771E+04  0.67154948322E+03 0.  0.
         13    1    3    3    0    0  0.33432005997E+03  0.35174833259E+01  0.49503152306E+03  0.59735959355E+03  0.00000000000E+00 0. -1.
          2    1    3    3  501    0 -0.33432005997E+03 -0.35174833259E+01  0.39222379984E+03  0.51538508355E+03  0.00000000000E+00 0. -1.
<mgrwt>
<rscale>  0 0.67154948E+03</rscale>
<asrwt>0</asrwt>
<pdfrwt beam="1">0</pdfrwt>
<pdfrwt beam="2">  1        2 0.40998151E+00 0.67154948E+03</pdfrwt>
<totfact> 0.36461397E+00</totfact>
</mgrwt>
</event>
<event>
 5    1  0.2344661E-004  0.6112738E+03  0.7818608E-02  0.9882289E-01
         13   -1    0    0    0    0  0.00000000000E+00  0.00000000000E+00  0.10000000000E+04  0.10000000000E+04  0.00000000000E+00 0. -1.
          2   -1    0    0  501    0 -0.00000000000E+00 -0.00000000000E+00 -0.93413905117E+02  0.93413905117E+02  0.00000000000E+00 0. -1.
    9000006    2    1    2  501    0  0.00000000000E+00  0.00000000000E+00  0.90658609488E+03  0.10934139051E+04  0.61127376884E+03 0.  0.
         13    1    3    3    0    0  0.92282041805E+01  0.30482319756E+03  0.41700469026E+03  0.51661906007E+03  0.00000000000E+00 0. -1.
          4    1    3    3  501    0 -0.92282041805E+01 -0.30482319756E+03  0.48958140462E+03  0.57679484505E+03  0.00000000000E+00 0. -1.
<mgrwt>
<rscale>  0 0.61127377E+03</rscale>
<asrwt>0</asrwt>
<pdfrwt beam="1">0</pdfrwt>
<pdfrwt beam="2">  1        2 0.33968764E+00 0.61127377E+03</pdfrwt>
<totfact> 0.66460423E+00</totfact>
</mgrwt>
</event>
<event>
 5    1  0.2344661E-004  0.6521247E+03  0.7818608E-02  0.9802800E-01
         13   -1    0    0    0    0  0.00000000000E+00  0.00000000000E+00  0.10000000000E+04  0.10000000000E+04  0.00000000000E+00 0. -1.
          2   -1    0    0  501    0 -0.00000000000E+00 -0.00000000000E+00 -0.10631665598E+03  0.10631665598E+03  0.00000000000E+00 0. -1.
    9000006    2    1    2  501    0  0.00000000000E+00  0.00000000000E+00  0.89368334402E+03  0.11063166560E+04  0.65212469966E+03 0.  0.
         13    1    3    3    0    0  0.12576277609E+03 -0.15166847738E+03  0.88759054169E+03  0.90919556344E+03  0.00000000000E+00 0. -1.
          4    1    3    3  501    0 -0.12576277609E+03  0.15166847738E+03  0.60928023317E+01  0.19712109254E+03  0.00000000000E+00 0. -1.
<mgrwt>
<rscale>  0 0.65212470E+03</rscale>
<asrwt>0</asrwt>
<pdfrwt beam="1">0</pdfrwt>
<pdfrwt beam="2">  1        2 0.38660684E+00 0.65212470E+03</pdfrwt>
<totfact> 0.44676163E+00</totfact>
</mgrwt>
</event>
<event>
 5    1  0.2344661E-004  0.6627438E+03  0.7818608E-02  0.9783156E-01
         13   -1    0    0    0    0  0.00000000000E+00  0.00000000000E+00  0.10000000000E+04  0.10000000000E+04  0.00000000000E+00 0. -1.
          2   -1    0    0  501    0 -0.00000000000E+00 -0.00000000000E+00 -0.10980734573E+03  0.10980734573E+03  0.00000000000E+00 0. -1.
    9000006    2    1    2  501    0  0.00000000000E+00  0.00000000000E+00  0.89019265427E+03  0.11098073457E+04  0.66274382905E+03 0.  0.
         13    1    3    3    0    0  0.13423096990E+03  0.30168499010E+03  0.39846160641E+03  0.51749728339E+03  0.00000000000E+00 0. -1.
          2    1    3    3  501    0 -0.13423096990E+03 -0.30168499010E+03  0.49173104785E+03  0.59231006235E+03  0.00000000000E+00 0. -1.
<mgrwt>
<rscale>  0 0.66274383E+03</rscale>
<asrwt>0</asrwt>
<pdfrwt beam="1">0</pdfrwt>
<pdfrwt beam="2">  1        2 0.39930028E+00 0.66274383E+03</pdfrwt>
<totfact> 0.40029549E+00</totfact>
</mgrwt>
</event>
<event>
 5    1  0.2344661E-004  0.6511599E+03  0.7818608E-02  0.9804605E-01
         13   -1    0    0    0    0  0.00000000000E+00  0.00000000000E+00  0.10000000000E+04  0.10000000000E+04  0.00000000000E+00 0. -1.
          2   -1    0    0  501    0 -0.00000000000E+00 -0.00000000000E+00 -0.10600229035E+03  0.10600229035E+03  0.00000000000E+00 0. -1.
    9000006    2    1    2  501    0  0.00000000000E+00  0.00000000000E+00  0.89399770965E+03  0.11060022904E+04  0.65115985857E+03 0.  0.
         13    1    3    3    0    0 -0.11653233693E+03  0.30400378999E+03  0.45047996312E+03  0.55581497556E+03  0.00000000000E+00 0. -1.
          4    1    3    3  501    0  0.11653233693E+03 -0.30400378999E+03  0.44351774653E+03  0.55018731480E+03  0.00000000000E+00 0. -1.
<mgrwt>
<rscale>  0 0.65115986E+03</rscale>
<asrwt>0</asrwt>
<pdfrwt beam="1">0</pdfrwt>
<pdfrwt beam="2">  1        2 0.38546369E+00 0.65115986E+03</pdfrwt>
<totfact> 0.45117671E+00</totfact>
</mgrwt>
</event>
<event>
 5    1  0.2344661E-004  0.6889096E+03  0.7818608E-02  0.9736388E-01
         13   -1    0    0    0    0  0.00000000000E+00  0.00000000000E+00  0.10000000000E+04  0.10000000000E+04  0.00000000000E+00 0. -1.
          2   -1    0    0  501    0 -0.00000000000E+00 -0.00000000000E+00 -0.11864912160E+03  0.11864912160E+03  0.00000000000E+00 0. -1.
    9000006    2    1    2  501    0  0.00000000000E+00  0.00000000000E+00  0.88135087840E+03  0.11186491216E+04  0.68890963587E+03 0.  0.
         13    1    3    3    0    0 -0.19326822272E+03 -0.28233589319E+03  0.50528049021E+03  0.61022498825E+03  0.00000000000E+00 0. -1.
          4    1    3    3  501    0  0.19326822272E+03  0.28233589319E+03  0.37607038819E+03  0.50842413335E+03  0.00000000000E+00 0. -1.
<mgrwt>
<rscale>  0 0.68890964E+03</rscale>
<asrwt>0</asrwt>
<pdfrwt beam="1">0</pdfrwt>
<pdfrwt beam="2">  1        2 0.43145226E+00 0.68890964E+03</pdfrwt>
<totfact> 0.30134125E+00</totfact>
</mgrwt>
</event>
<event>
 5    1  0.2344661E-004  0.6501829E+03  0.7818608E-02  0.9806436E-01
         13   -1    0    0    0    0  0.00000000000E+00  0.00000000000E+00  0.10000000000E+04  0.10000000000E+04  0.00000000000E+00 0. -1.
          2   -1    0    0  501    0 -0.00000000000E+00 -0.00000000000E+00 -0.10568443723E+03  0.10568443723E+03  0.00000000000E+00 0. -1.
    9000006    2    1    2  501    0  0.00000000000E+00  0.00000000000E+00  0.89431556277E+03  0.11056844372E+04  0.65018285806E+03 0.  0.
         13    1    3    3    0    0 -0.27667556065E+03 -0.14874758881E+03  0.58953179198E+03  0.66799921018E+03  0.00000000000E+00 0. -1.
          4    1    3    3  501    0  0.27667556065E+03  0.14874758881E+03  0.30478377079E+03  0.43768522705E+03  0.00000000000E+00 0. -1.
<mgrwt>
<rscale>  0 0.65018286E+03</rscale>
<asrwt>0</asrwt>
<pdfrwt beam="1">0</pdfrwt>
<pdfrwt beam="2">  1        2 0.38430785E+00 0.65018286E+03</pdfrwt>
<totfact> 0.45568094E+00</totfact>
</mgrwt>
</event>
<event>
 5    1  0.2344661E-004  0.6447860E+03  0.7818608E-02  0.9816612E-01
         13   -1    0    0    0    0  0.00000000000E+00  0.00000000000E+00  0.10000000000E+04  0.10000000000E+04  0.00000000000E+00 0. -1.
          2   -1    0    0  501    0 -0.00000000000E+00 -0.00000000000E+00 -0.10393723633E+03  0.10393723633E+03  0.00000000000E+00 0. -1.
    9000006    2    1    2  501    0  0.00000000000E+00  0.00000000000E+00  0.89606276367E+03  0.11039372363E+04  0.64478596861E+03 0.  0.
         13    1    3    3    0    0 -0.11089744531E+03 -0.29167254168E+03  0.58676549357E+03  0.66457870820E+03  0.00000000000E+00 0. -1.
          4    1    3    3  501    0  0.11089744531E+03  0.29167254168E+03  0.30929727010E+03  0.43935852813E+03  0.00000000000E+00 0. -1.
<mgrwt>
<rscale>  0 0.64478597E+03</rscale>
<asrwt>0</asrwt>
<pdfrwt beam="1">0</pdfrwt>
<pdfrwt beam="2">  1        2 0.37795438E+00 0.64478597E+03</pdfrwt>
<totfact> 0.48117776E+00</totfact>
</mgrwt>
</event>
<event>
 5    1  0.2344661E-004  0.6471559E+03  0.7818608E-02  0.9812131E-01
         13   -1    0    0    0    0  0.00000000000E+00  0.00000000000E+00  0.10000000000E+04  0.10000000000E+04  0.00000000000E+00 0. -1.
          2   -1    0    0  501    0 -0.00000000000E+00 -0.00000000000E+00 -0.10470268206E+03  0.10470268206E+03  0.00000000000E+00 0. -1.
    9000006    2    1    2  501    0  0.00000000000E+00  0.00000000000E+00  0.89529731794E+03  0.11047026821E+04  0.64715587632E+03 0.  0.
         13    1    3    3    0    0 -0.30668244534E+02 -0.27121073099E+03  0.74432946228E+03  0.79279388888E+03  0.00000000000E+00 0. -1.
          2    1    3    3  501    0  0.30668244534E+02  0.27121073099E+03  0.15096785566E+03  0.31190879319E+03  0.00000000000E+00 0. -1.
<mgrwt>
<rscale>  0 0.64715588E+03</rscale>
<asrwt>0</asrwt>
<pdfrwt beam="1">0</pdfrwt>
<pdfrwt beam="2">  1        2 0.38073783E+00 0.64715588E+03</pdfrwt>
<totfact> 0.46985214E+00</totfact>
</mgrwt>
</event>
<event>
 5    1  0.2344661E-004  0.6470143E+03  0.7818608E-02  0.9812398E-01
         13   -1    0    0    0    0  0.00000000000E+00  0.00000000000E+00  0.10000000000E+04  0.10000000000E+04  0.00000000000E+00 0. -1.
          2   -1    0    0  501    0 -0.00000000000E+00 -0.00000000000E+00 -0.10465687660E+03  0.10465687660E+03  0.00000000000E+00 0. -1.
    9000006    2    1    2  501    0  0.00000000000E+00  0.00000000000E+00  0.89534312340E+03  0.11046568766E+04  0.64701430156E+03 0.  0.
         13    1    3    3    0    0 -0.14766957522E+03 -0.25346899253E+03  0.21479960777E+03  0.36358177226E+03  0.00000000000E+00 0. -1.
          4    1    3    3  501    0  0.14766957522E+03  0.25346899253E+03  0.68054351562E+03  0.74107510434E+03  0.00000000000E+00 0. -1.
<mgrwt>
<rscale>  0 0.64701430E+03</rscale>
<asrwt>0</asrwt>
<pdfrwt beam="1">0</pdfrwt>
<pdfrwt beam="2">  1        2 0.38057126E+00 0.64701430E+03</pdfrwt>
<totfact> 0.47052300E+00</totfact>
</mgrwt>
</event>
<event>
 5    1  0.2344661E-004  0.6499227E+03  0.7818608E-02  0.9806924E-01
         13   -1    0    0    0    0  0.00000000000E+00  0.00000000000E+00  0.10000000000E+04  0.10000000000E+04  0.00000000000E+00 0. -1.
          2   -1    0    0  501    0 -0.00000000000E+00 -0.00000000000E+00 -0.10559987570E+03  0.10559987570E+03  0.00000000000E+00 0. -1.
    9000006    2    1    2  501    0  0.00000000000E+00  0.00000000000E+00  0.89440012430E+03  0.11055998757E+04  0.64992268987E+03 0.  0.
         13    1    3    3    0    0  0.27311162846E+03  0.12316915937E+03  0.66129376534E+03  0.72599590047E+03  0.00000000000E+00 0. -1.
          4    1    3    3  501    0 -0.27311162846E+03 -0.12316915937E+03  0.23310635896E+03  0.37960397523E+03  0.00000000000E+00 0. -1.
<mgrwt>
<rscale>  0 0.64992269E+03</rscale>
<asrwt>0</asrwt>
<pdfrwt beam="1">0</pdfrwt>
<pdfrwt beam="2">  1        2 0.38400036E+00 0.64992269E+03</pdfrwt>
<totfact> 0.45688609E+00</totfact>
</mgrwt>
</event>
<event>
 5    1  0.2344661E-004  0.5292602E+03  0.7818608E-02  0.1006412E+00
         13   -1    0    0    0    0  0.00000000000E+00  0.00000000000E+00  0.10000000000E+04  0.10000000000E+04  0.00000000000E+00 0. -1.
          2   -1    0    0  501    0 -0.00000000000E+00 -0.00000000000E+00 -0.70029101269E+02  0.70029101269E+02  0.00000000000E+00 0. -1.
    9000006    2    1    2  501    0  0.00000000000E+00  0.00000000000E+00  0.92997089873E+03  0.10700291013E+04  0.52926024324E+03 0.  0.
         13    1    3    3    0    0  0.17663838270E+03 -0.12781689761E+03  0.16178558833E+03  0.27150111261E+03  0.00000000000E+00 0. -1.
          4    1    3    3  501    0 -0.17663838270E+03  0.12781689761E+03  0.76818531040E+03  0.79852798866E+03  0.00000000000E+00 0. -1.
<mgrwt>
<rscale>  0 0.52926024E+03</rscale>
<asrwt>0</asrwt>
<pdfrwt beam="1">0</pdfrwt>
<pdfrwt beam="2">  1        2 0.25465181E+00 0.52926024E+03</pdfrwt>
<totfact> 0.13413274E+01</totfact>
</mgrwt>
</event>
<event>
 5    1  0.2344661E-004  0.6500462E+03  0.7818608E-02  0.9806692E-01
         13   -1    0    0    0    0  0.00000000000E+00  0.00000000000E+00  0.10000000000E+04  0.10000000000E+04  0.00000000000E+00 0. -1.
          2   -1    0    0  501    0 -0.00000000000E+00 -0.00000000000E+00 -0.10564001500E+03  0.10564001500E+03  0.00000000000E+00 0. -1.
    9000006    2    1    2  501    0  0.00000000000E+00  0.00000000000E+00  0.89435998500E+03  0.11056400150E+04  0.65004619835E+03 0.  0.
         13    1    3    3    0    0 -0.25277876279E+03 -0.65691782731E+02  0.77623230341E+03  0.81899273629E+03  0.00000000000E+00 0. -1.
          4    1    3    3  501    0  0.25277876279E+03  0.65691782731E+02  0.11812768159E+03  0.28664727871E+03  0.00000000000E+00 0. -1.
<mgrwt>
<rscale>  0 0.65004620E+03</rscale>
<asrwt>0</asrwt>
<pdfrwt beam="1">0</pdfrwt>
<pdfrwt beam="2">  1        2 0.38414632E+00 0.65004620E+03</pdfrwt>
<totfact> 0.45631368E+00</totfact>
</mgrwt>
</event>
<event>
 5    1  0.2344661E-004  0.5881866E+03  0.7818608E-02  0.9930223E-01
         13   -1    0    0    0    0  0.00000000000E+00  0.00000000000E+00  0.10000000000E+04  0.10000000000E+04  0.00000000000E+00 0. -1.
          2   -1    0    0  501    0 -0.00000000000E+00 -0.00000000000E+00 -0.86490871435E+02  0.86490871435E+02  0.00000000000E+00 0. -1.
    9000006    2    1    2  501    0  0.00000000000E+00  0.00000000000E+00  0.91350912857E+03  0.10864908714E+04  0.58818660792E+03 0.  0.
         13    1    3    3    0    0  0.10464940098E+03  0.27472756727E+03  0.44196113144E+03  0.53080728616E+03  0.00000000000E+00 0. -1.
          4    1    3    3  501    0 -0.10464940098E+03 -0.27472756727E+03  0.47154799713E+03  0.55568358527E+03  0.00000000000E+00 0. -1.
<mgrwt>
<rscale>  0 0.58818661E+03</rscale>
<asrwt>0</asrwt>
<pdfrwt beam="1">0</pdfrwt>
<pdfrwt beam="2">  1        2 0.31451292E+00 0.58818661E+03</pdfrwt>
<totfact> 0.81908194E+00</totfact>
</mgrwt>
</event>
<event>
 5    1  0.2344661E-004  0.6458158E+03  0.7818608E-02  0.9814662E-01
         13   -1    0    0    0    0  0.00000000000E+00  0.00000000000E+00  0.10000000000E+04  0.10000000000E+04  0.00000000000E+00 0. -1.
          2   -1    0    0  501    0 -0.00000000000E+00 -0.00000000000E+00 -0.10426951756E+03  0.10426951756E+03  0.00000000000E+00 0. -1.
    9000006    2    1    2  501    0  0.00000000000E+00  0.00000000000E+00  0.89573048244E+03  0.11042695176E+04  0.64581581759E+03 0.  0.
         13    1    3    3    0    0 -0.21392347155E+03  0.77974587430E+02  0.83937331158E+03  0.86970733247E+03  0.00000000000E+00 0. -1.
          4    1    3    3  501    0  0.21392347155E+03 -0.77974587430E+02  0.56357170861E+02  0.23456218509E+03  0.00000000000E+00 0. -1.
<mgrwt>
<rscale>  0 0.64581582E+03</rscale>
<asrwt>0</asrwt>
<pdfrwt beam="1">0</pdfrwt>
<pdfrwt beam="2">  1        2 0.37916268E+00 0.64581582E+03</pdfrwt>
<totfact> 0.47623111E+00</totfact>
</mgrwt>
</event>
<event>
 5    1  0.2344661E-004  0.7039172E+03  0.7818608E-02  0.9710557E-01
         13   -1    0    0    0    0  0.00000000000E+00  0.00000000000E+00  0.10000000000E+04  0.10000000000E+04  0.00000000000E+00 0. -1.
          2   -1    0    0  501    0 -0.00000000000E+00 -0.00000000000E+00 -0.12387484488E+03  0.12387484488E+03  0.00000000000E+00 0. -1.
    9000006    2    1    2  501    0  0.00000000000E+00  0.00000000000E+00  0.87612515512E+03  0.11238748449E+04  0.70391716807E+03 0.  0.
         13    1    3    3    0    0  0.34593456071E+03 -0.62668521165E+02  0.46462480907E+03  0.58264421137E+03  0.00000000000E+00 0. -1.
          2    1    3    3  501    0 -0.34593456071E+03  0.62668521165E+02  0.41150034605E+03  0.54123063350E+03  0.00000000000E+00 0. -1.
<mgrwt>
<rscale>  0 0.70391717E+03</rscale>
<asrwt>0</asrwt>
<pdfrwt beam="1">0</pdfrwt>
<pdfrwt beam="2">  1        2 0.45045493E+00 0.70391717E+03</pdfrwt>
<totfact> 0.25364133E+00</totfact>
</mgrwt>
</event>
<event>
 5    1  0.2344661E-004  0.6578372E+03  0.7818608E-02  0.9792183E-01
         13   -1    0    0    0    0  0.00000000000E+00  0.00000000000E+00  0.10000000000E+04  0.10000000000E+04  0.00000000000E+00 0. -1.
          2   -1    0    0  501    0 -0.00000000000E+00 -0.00000000000E+00 -0.10818745955E+03  0.10818745955E+03  0.00000000000E+00 0. -1.
    9000006    2    1    2  501    0  0.00000000000E+00  0.00000000000E+00  0.89181254045E+03  0.11081874596E+04  0.65783724295E+03 0.  0.
         13    1    3    3    0    0  0.21913793952E+03  0.12675464789E+03  0.92144796258E+02  0.26940460422E+03  0.00000000000E+00 0. -1.
          2    1    3    3  501    0 -0.21913793952E+03 -0.12675464789E+03  0.79966774419E+03  0.83878285533E+03  0.00000000000E+00 0. -1.
<mgrwt>
<rscale>  0 0.65783724E+03</rscale>
<asrwt>0</asrwt>
<pdfrwt beam="1">0</pdfrwt>
<pdfrwt beam="2">  1        2 0.39340977E+00 0.65783724E+03</pdfrwt>
<totfact> 0.42128595E+00</totfact>
</mgrwt>
</event>
<event>
 5    1  0.2344661E-004  0.6431314E+03  0.7818608E-02  0.9819754E-01
         13   -1    0    0    0    0  0.00000000000E+00  0.00000000000E+00  0.10000000000E+04  0.10000000000E+04  0.00000000000E+00 0. -1.
          2   -1    0    0  501    0 -0.00000000000E+00 -0.00000000000E+00 -0.10340449962E+03  0.10340449962E+03  0.00000000000E+00 0. -1.
    9000006    2    1    2  501    0  0.00000000000E+00  0.00000000000E+00  0.89659550038E+03  0.11034044996E+04  0.64313140063E+03 0.  0.
         13    1    3    3    0    0  0.18124051617E+03  0.26295474891E+03  0.51274812752E+03  0.60407281594E+03  0.00000000000E+00 0. -1.
          2    1    3    3  501    0 -0.18124051617E+03 -0.26295474891E+03  0.38384737286E+03  0.49933168368E+03  0.00000000000E+00 0. -1.
<mgrwt>
<rscale>  0 0.64313140E+03</rscale>
<asrwt>0</asrwt>
<pdfrwt beam="1">0</pdfrwt>
<pdfrwt beam="2">  1        2 0.37601716E+00 0.64313140E+03</pdfrwt>
<totfact> 0.48920642E+00</totfact>
</mgrwt>
</event>
<event>
 5    1  0.2344661E-004  0.6219234E+03  0.7818608E-02  0.9860938E-01
         13   -1    0    0    0    0  0.00000000000E+00  0.00000000000E+00  0.10000000000E+04  0.10000000000E+04  0.00000000000E+00 0. -1.
          2   -1    0    0  501    0 -0.00000000000E+00 -0.00000000000E+00 -0.96697166496E+02  0.96697166496E+02  0.00000000000E+00 0. -1.
    9000006    2    1    2  501    0  0.00000000000E+00  0.00000000000E+00  0.90330283350E+03  0.10966971665E+04  0.62192336022E+03 0.  0.
         13    1    3    3    0    0 -0.28497218448E+03  0.47586552169E+02  0.24887206587E+03  0.38132785243E+03  0.00000000000E+00 0. -1.
          4    1    3    3  501    0  0.28497218448E+03 -0.47586552169E+02  0.65443076764E+03  0.71536931406E+03  0.00000000000E+00 0. -1.
<mgrwt>
<rscale>  0 0.62192336E+03</rscale>
<asrwt>0</asrwt>
<pdfrwt beam="1">0</pdfrwt>
<pdfrwt beam="2">  1        2 0.35162680E+00 0.62192336E+03</pdfrwt>
<totfact> 0.60139051E+00</totfact>
</mgrwt>
</event>
<event>
 5    1  0.2344661E-004  0.6527348E+03  0.7818608E-02  0.9801661E-01
         13   -1    0    0    0    0  0.00000000000E+00  0.00000000000E+00  0.10000000000E+04  0.10000000000E+04  0.00000000000E+00 0. -1.
          2   -1    0    0  501    0 -0.00000000000E+00 -0.00000000000E+00 -0.10651567838E+03  0.10651567838E+03  0.00000000000E+00 0. -1.
    9000006    2    1    2  501    0  0.00000000000E+00  0.00000000000E+00  0.89348432162E+03  0.11065156784E+04  0.65273479571E+03 0.  0.
         13    1    3    3    0    0  0.51071642153E+02  0.23378777997E+03  0.82294905089E+03  0.85703569299E+03  0.00000000000E+00 0. -1.
          4    1    3    3  501    0 -0.51071642153E+02 -0.23378777997E+03  0.70535270724E+02  0.24947998539E+03  0.00000000000E+00 0. -1.
<mgrwt>
<rscale>  0 0.65273480E+03</rscale>
<asrwt>0</asrwt>
<pdfrwt beam="1">0</pdfrwt>
<pdfrwt beam="2">  1        2 0.38733056E+00 0.65273480E+03</pdfrwt>
<totfact> 0.44398675E+00</totfact>
</mgrwt>
</event>
<event>
 5    1  0.2344661E-004  0.6357281E+03  0.7818608E-02  0.9833934E-01
         13   -1    0    0    0    0  0.00000000000E+00  0.00000000000E+00  0.10000000000E+04  0.10000000000E+04  0.00000000000E+00 0. -1.
          2   -1    0    0  501    0 -0.00000000000E+00 -0.00000000000E+00 -0.10103756531E+03  0.10103756531E+03  0.00000000000E+00 0. -1.
    9000006    2    1    2  501    0  0.00000000000E+00  0.00000000000E+00  0.89896243469E+03  0.11010375653E+04  0.63572813469E+03 0.  0.
         13    1    3    3    0    0  0.30993964241E+03 -0.36537379021E+02  0.55397286892E+03  0.63583291949E+03  0.00000000000E+00 0. -1.
          4    1    3    3  501    0 -0.30993964241E+03  0.36537379021E+02  0.34498956577E+03  0.46520464582E+03  0.00000000000E+00 0. -1.
<mgrwt>
<rscale>  0 0.63572813E+03</rscale>
<asrwt>0</asrwt>
<pdfrwt beam="1">0</pdfrwt>
<pdfrwt beam="2">  1        2 0.36741010E+00 0.63572813E+03</pdfrwt>
<totfact> 0.52638300E+00</totfact>
</mgrwt>
</event>
<event>
 5    1  0.2344661E-004  0.6484509E+03  0.7818608E-02  0.9809690E-01
         13   -1    0    0    0    0  0.00000000000E+00  0.00000000000E+00  0.10000000000E+04  0.10000000000E+04  0.00000000000E+00 0. -1.
          2   -1    0    0  501    0 -0.00000000000E+00 -0.00000000000E+00 -0.10512212963E+03  0.10512212963E+03  0.00000000000E+00 0. -1.
    9000006    2    1    2  501    0  0.00000000000E+00  0.00000000000E+00  0.89487787037E+03  0.11051221296E+04  0.64845086052E+03 0.  0.
         13    1    3    3    0    0  0.96303623267E+02 -0.26055243007E+03  0.16246631769E+03  0.32180314022E+03  0.00000000000E+00 0. -1.
          4    1    3    3  501    0 -0.96303623267E+02  0.26055243007E+03  0.73241155268E+03  0.78331898941E+03  0.00000000000E+00 0. -1.
<mgrwt>
<rscale>  0 0.64845086E+03</rscale>
<asrwt>0</asrwt>
<pdfrwt beam="1">0</pdfrwt>
<pdfrwt beam="2">  1        2 0.38226310E+00 0.64845086E+03</pdfrwt>
<totfact> 0.46374934E+00</totfact>
</mgrwt>
</event>
<event>
 5    1  0.2344661E-004  0.6447480E+03  0.7818608E-02  0.9816684E-01
         13   -1    0    0    0    0  0.00000000000E+00  0.00000000000E+00  0.10000000000E+04  0.10000000000E+04  0.00000000000E+00 0. -1.
          2   -1    0    0  501    0 -0.00000000000E+00 -0.00000000000E+00 -0.10392498411E+03  0.10392498411E+03  0.00000000000E+00 0. -1.
    9000006    2    1    2  501    0  0.00000000000E+00  0.00000000000E+00  0.89607501589E+03  0.11039249841E+04  0.64474796350E+03 0.  0.
         13    1    3    3    0    0 -0.14997168297E+03  0.26112601490E+03  0.25097538770E+03  0.39200375838E+03  0.00000000000E+00 0. -1.
          2    1    3    3  501    0  0.14997168297E+03 -0.26112601490E+03  0.64509962819E+03  0.71192122573E+03  0.00000000000E+00 0. -1.
<mgrwt>
<rscale>  0 0.64474796E+03</rscale>
<asrwt>0</asrwt>
<pdfrwt beam="1">0</pdfrwt>
<pdfrwt beam="2">  1        2 0.37790983E+00 0.64474796E+03</pdfrwt>
<totfact> 0.48136105E+00</totfact>
</mgrwt>
</event>
<event>
 5    1  0.2344661E-004  0.6336750E+03  0.7818608E-02  0.9837903E-01
         13   -1    0    0    0    0  0.00000000000E+00  0.00000000000E+00  0.10000000000E+04  0.10000000000E+04  0.00000000000E+00 0. -1.
          2   -1    0    0  501    0 -0.00000000000E+00 -0.00000000000E+00 -0.10038599961E+03  0.10038599961E+03  0.00000000000E+00 0. -1.
    9000006    2    1    2  501    0  0.00000000000E+00  0.00000000000E+00  0.89961400039E+03  0.11003859996E+04  0.63367499432E+03 0.  0.
         13    1    3    3    0    0  0.58943925446E+02  0.12620548108E+03  0.94397831793E+03  0.95419980849E+03  0.00000000000E+00 0. -1.
          2    1    3    3  501    0 -0.58943925446E+02 -0.12620548108E+03 -0.44364317539E+02  0.14618619112E+03  0.00000000000E+00 0. -1.
<mgrwt>
<rscale>  0 0.63367499E+03</rscale>
<asrwt>0</asrwt>
<pdfrwt beam="1">0</pdfrwt>
<pdfrwt beam="2">  1        2 0.36504077E+00 0.63367499E+03</pdfrwt>
<totfact> 0.53706218E+00</totfact>
</mgrwt>
</event>
<event>
 5    1  0.2344661E-004  0.6120211E+03  0.7818608E-02  0.9880775E-01
         13   -1    0    0    0    0  0.00000000000E+00  0.00000000000E+00  0.10000000000E+04  0.10000000000E+04  0.00000000000E+00 0. -1.
          2   -1    0    0  501    0 -0.00000000000E+00 -0.00000000000E+00 -0.93642446407E+02  0.93642446407E+02  0.00000000000E+00 0. -1.
    9000006    2    1    2  501    0  0.00000000000E+00  0.00000000000E+00  0.90635755359E+03  0.10936424464E+04  0.61202106633E+03 0.  0.
         13    1    3    3    0    0  0.16188659404E+03  0.65151999646E+02  0.39841856516E+01  0.17455064057E+03  0.00000000000E+00 0. -1.
          2    1    3    3  501    0 -0.16188659404E+03 -0.65151999646E+02  0.90237336794E+03  0.91909180584E+03  0.00000000000E+00 0. -1.
<mgrwt>
<rscale>  0 0.61202107E+03</rscale>
<asrwt>0</asrwt>
<pdfrwt beam="1">0</pdfrwt>
<pdfrwt beam="2">  1        2 0.34051870E+00 0.61202107E+03</pdfrwt>
<totfact> 0.66001011E+00</totfact>
</mgrwt>
</event>
<event>
 5    1  0.2344661E-004  0.6129178E+03  0.7818608E-02  0.9878962E-01
         13   -1    0    0    0    0  0.00000000000E+00  0.00000000000E+00  0.10000000000E+04  0.10000000000E+04  0.00000000000E+00 0. -1.
          2   -1    0    0  501    0 -0.00000000000E+00 -0.00000000000E+00 -0.93917069570E+02  0.93917069570E+02  0.00000000000E+00 0. -1.
    9000006    2    1    2  501    0  0.00000000000E+00  0.00000000000E+00  0.90608293043E+03  0.10939170696E+04  0.61291783975E+03 0.  0.
         13    1    3    3    0    0  0.38163759021E+02  0.25458968186E+03  0.74978960595E+03  0.79275269271E+03  0.00000000000E+00 0. -1.
          2    1    3    3  501    0 -0.38163759021E+02 -0.25458968186E+03  0.15629332448E+03  0.30116437686E+03  0.00000000000E+00 0. -1.
<mgrwt>
<rscale>  0 0.61291784E+03</rscale>
<asrwt>0</asrwt>
<pdfrwt beam="1">0</pdfrwt>
<pdfrwt beam="2">  1        2 0.34151734E+00 0.61291784E+03</pdfrwt>
<totfact> 0.65452912E+00</totfact>
</mgrwt>
</event>
<event>
 5    1  0.2344661E-004  0.6561539E+03  0.7818608E-02  0.9795300E-01
         13   -1    0    0    0    0  0.00000000000E+00  0.00000000000E+00  0.10000000000E+04  0.10000000000E+04  0.00000000000E+00 0. -1.
          2   -1    0    0  501    0 -0.00000000000E+00 -0.00000000000E+00 -0.10763447055E+03  0.10763447055E+03  0.00000000000E+00 0. -1.
    9000006    2    1    2  501    0  0.00000000000E+00  0.00000000000E+00  0.89236552945E+03  0.11076344706E+04  0.65615385559E+03 0.  0.
         13    1    3    3    0    0 -0.16084707856E+03  0.79694926228E+02  0.90974633446E+03  0.92728714917E+03  0.00000000000E+00 0. -1.
          2    1    3    3  501    0  0.16084707856E+03 -0.79694926228E+02 -0.17380805013E+02  0.18034732138E+03  0.00000000000E+00 0. -1.
<mgrwt>
<rscale>  0 0.65615386E+03</rscale>
<asrwt>0</asrwt>
<pdfrwt beam="1">0</pdfrwt>
<pdfrwt beam="2">  1        2 0.39139890E+00 0.65615386E+03</pdfrwt>
<totfact> 0.42867605E+00</totfact>
</mgrwt>
</event>
<event>
 5    1  0.2344661E-004  0.6758027E+03  0.7818608E-02  0.9759532E-01
         13   -1    0    0    0    0  0.00000000000E+00  0.00000000000E+00  0.10000000000E+04  0.10000000000E+04  0.00000000000E+00 0. -1.
          2   -1    0    0  501    0 -0.00000000000E+00 -0.00000000000E+00 -0.11417732026E+03  0.11417732026E+03  0.00000000000E+00 0. -1.
    9000006    2    1    2  501    0  0.00000000000E+00  0.00000000000E+00  0.88582267974E+03  0.11141773203E+04  0.67580269387E+03 0.  0.
         13    1    3    3    0    0 -0.99181819572E+02 -0.32290761413E+03  0.42902332518E+03  0.54604704389E+03  0.00000000000E+00 0. -1.
          4    1    3    3  501    0  0.99181819572E+02  0.32290761413E+03  0.45679935456E+03  0.56813027637E+03  0.00000000000E+00 0. -1.
<mgrwt>
<rscale>  0 0.67580269E+03</rscale>
<asrwt>0</asrwt>
<pdfrwt beam="1">0</pdfrwt>
<pdfrwt beam="2">  1        2 0.41519113E+00 0.67580269E+03</pdfrwt>
<totfact> 0.34826549E+00</totfact>
</mgrwt>
</event>
<event>
 5    1  0.2344661E-004  0.6479667E+03  0.7818608E-02  0.9810602E-01
         13   -1    0    0    0    0  0.00000000000E+00  0.00000000000E+00  0.10000000000E+04  0.10000000000E+04  0.00000000000E+00 0. -1.
          2   -1    0    0  501    0 -0.00000000000E+00 -0.00000000000E+00 -0.10496520647E+03  0.10496520647E+03  0.00000000000E+00 0. -1.
    9000006    2    1    2  501    0  0.00000000000E+00  0.00000000000E+00  0.89503479353E+03  0.11049652065E+04  0.64796668577E+03 0.  0.
         13    1    3    3    0    0  0.60845210051E+02  0.31701132380E+03  0.49474128512E+03  0.59073450738E+03  0.00000000000E+00 0. -1.
          2    1    3    3  501    0 -0.60845210051E+02 -0.31701132380E+03  0.40029350841E+03  0.51423069909E+03  0.00000000000E+00 0. -1.
<mgrwt>
<rscale>  0 0.64796669E+03</rscale>
<asrwt>0</asrwt>
<pdfrwt beam="1">0</pdfrwt>
<pdfrwt beam="2">  1        2 0.38169246E+00 0.64796669E+03</pdfrwt>
<totfact> 0.46602402E+00</totfact>
</mgrwt>
</event>
<event>
 5    1  0.2344661E-004  0.6917751E+03  0.7818608E-02  0.9731402E-01
         13   -1    0    0    0    0  0.00000000000E+00  0.00000000000E+00  0.10000000000E+04  0.10000000000E+04  0.00000000000E+00 0. -1.
          2   -1    0    0  501    0 -0.00000000000E+00 -0.00000000000E+00 -0.11963818164E+03  0.11963818164E+03  0.00000000000E+00 0. -1.
    9000006    2    1    2  501    0  0.00000000000E+00  0.00000000000E+00  0.88036181836E+03  0.11196381816E+04  0.69177505490E+03 0.  0.
         13    1    3    3    0    0  0.24150851365E+03  0.23658022499E+03  0.32189060187E+03  0.46680844529E+03  0.00000000000E+00 0. -1.
          2    1    3    3  501    0 -0.24150851365E+03 -0.23658022499E+03  0.55847121649E+03  0.65282973635E+03  0.00000000000E+00 0. -1.
<mgrwt>
<rscale>  0 0.69177505E+03</rscale>
<asrwt>0</asrwt>
<pdfrwt beam="1">0</pdfrwt>
<pdfrwt beam="2">  1        2 0.43504885E+00 0.69177505E+03</pdfrwt>
<totfact> 0.29175219E+00</totfact>
</mgrwt>
</event>
<event>
 5    1  0.2344661E-004  0.6445467E+03  0.7818608E-02  0.9817066E-01
         13   -1    0    0    0    0  0.00000000000E+00  0.00000000000E+00  0.10000000000E+04  0.10000000000E+04  0.00000000000E+00 0. -1.
          2   -1    0    0  501    0 -0.00000000000E+00 -0.00000000000E+00 -0.10386011780E+03  0.10386011780E+03  0.00000000000E+00 0. -1.
    9000006    2    1    2  501    0  0.00000000000E+00  0.00000000000E+00  0.89613988220E+03  0.11038601178E+04  0.64454671763E+03 0.  0.
         13    1    3    3    0    0  0.27755740664E+03 -0.96276537414E+02  0.67496928586E+03  0.73613234033E+03  0.00000000000E+00 0. -1.
          2    1    3    3  501    0 -0.27755740664E+03  0.96276537414E+02  0.22117059634E+03  0.36772777747E+03  0.00000000000E+00 0. -1.
<mgrwt>
<rscale>  0 0.64454672E+03</rscale>
<asrwt>0</asrwt>
<pdfrwt beam="1">0</pdfrwt>
<pdfrwt beam="2">  1        2 0.37767395E+00 0.64454672E+03</pdfrwt>
<totfact> 0.48233250E+00</totfact>
</mgrwt>
</event>
<event>
 5    1  0.2344661E-004  0.6098613E+03  0.7818608E-02  0.9885156E-01
         13   -1    0    0    0    0  0.00000000000E+00  0.00000000000E+00  0.10000000000E+04  0.10000000000E+04  0.00000000000E+00 0. -1.
          2   -1    0    0  501    0 -0.00000000000E+00 -0.00000000000E+00 -0.92982714483E+02  0.92982714483E+02  0.00000000000E+00 0. -1.
    9000006    2    1    2  501    0  0.00000000000E+00  0.00000000000E+00  0.90701728552E+03  0.10929827145E+04  0.60986134320E+03 0.  0.
         13    1    3    3    0    0 -0.64539324501E+02  0.23023685120E+03  0.79264514698E+03  0.82792551663E+03  0.00000000000E+00 0. -1.
          4    1    3    3  501    0  0.64539324501E+02 -0.23023685120E+03  0.11437213853E+03  0.26505719785E+03  0.00000000000E+00 0. -1.
<mgrwt>
<rscale>  0 0.60986134E+03</rscale>
<asrwt>0</asrwt>
<pdfrwt beam="1">0</pdfrwt>
<pdfrwt beam="2">  1        2 0.33811967E+00 0.60986134E+03</pdfrwt>
<totfact> 0.67335431E+00</totfact>
</mgrwt>
</event>
<event>
 5    1  0.2344661E-004  0.6593689E+03  0.7818608E-02  0.9789356E-01
         13   -1    0    0    0    0  0.00000000000E+00  0.00000000000E+00  0.10000000000E+04  0.10000000000E+04  0.00000000000E+00 0. -1.
          2   -1    0    0  501    0 -0.00000000000E+00 -0.00000000000E+00 -0.10869182187E+03  0.10869182187E+03  0.00000000000E+00 0. -1.
    9000006    2    1    2  501    0  0.00000000000E+00  0.00000000000E+00  0.89130817813E+03  0.11086918219E+04  0.65936885540E+03 0.  0.
         13    1    3    3    0    0  0.25960390944E+02 -0.14186862618E+03 -0.52834296702E+02  0.15359723923E+03  0.00000000000E+00 0. -1.
          2    1    3    3  501    0 -0.25960390944E+02  0.14186862618E+03  0.94414247483E+03  0.95509458264E+03  0.00000000000E+00 0. -1.
<mgrwt>
<rscale>  0 0.65936886E+03</rscale>
<asrwt>0</asrwt>
<pdfrwt beam="1">0</pdfrwt>
<pdfrwt beam="2">  1        2 0.39524382E+00 0.65936886E+03</pdfrwt>
<totfact> 0.41464651E+00</totfact>
</mgrwt>
</event>
<event>
 5    1  0.2344661E-004  0.6568118E+03  0.7818608E-02  0.9794081E-01
         13   -1    0    0    0    0  0.00000000000E+00  0.00000000000E+00  0.10000000000E+04  0.10000000000E+04  0.00000000000E+00 0. -1.
          2   -1    0    0  501    0 -0.00000000000E+00 -0.00000000000E+00 -0.10785044199E+03  0.10785044199E+03  0.00000000000E+00 0. -1.
    9000006    2    1    2  501    0  0.00000000000E+00  0.00000000000E+00  0.89214955801E+03  0.11078504420E+04  0.65681182082E+03 0.  0.
         13    1    3    3    0    0 -0.17542967249E+02  0.16934156385E+03  0.91975517975E+03  0.93537902030E+03  0.00000000000E+00 0. -1.
          4    1    3    3  501    0  0.17542967249E+02 -0.16934156385E+03 -0.27605621744E+02  0.17247142169E+03  0.00000000000E+00 0. -1.
<mgrwt>
<rscale>  0 0.65681182E+03</rscale>
<asrwt>0</asrwt>
<pdfrwt beam="1">0</pdfrwt>
<pdfrwt beam="2">  1        2 0.39218425E+00 0.65681182E+03</pdfrwt>
<totfact> 0.42577601E+00</totfact>
</mgrwt>
</event>
<event>
 5    1  0.2344661E-004  0.6818806E+03  0.7818608E-02  0.9748731E-01
         13   -1    0    0    0    0  0.00000000000E+00  0.00000000000E+00  0.10000000000E+04  0.10000000000E+04  0.00000000000E+00 0. -1.
          2   -1    0    0  501    0 -0.00000000000E+00 -0.00000000000E+00 -0.11624028296E+03  0.11624028296E+03  0.00000000000E+00 0. -1.
    9000006    2    1    2  501    0  0.00000000000E+00  0.00000000000E+00  0.88375971704E+03  0.11162402830E+04  0.68188058475E+03 0.  0.
         13    1    3    3    0    0  0.20045516138E+03  0.27273267194E+03  0.50887509497E+03  0.61116220788E+03  0.00000000000E+00 0. -1.
          4    1    3    3  501    0 -0.20045516138E+03 -0.27273267194E+03  0.37488462207E+03  0.50507807508E+03  0.00000000000E+00 0. -1.
<mgrwt>
<rscale>  0 0.68188058E+03</rscale>
<asrwt>0</asrwt>
<pdfrwt beam="1">0</pdfrwt>
<pdfrwt beam="2">  1        2 0.42269283E+00 0.68188058E+03</pdfrwt>
<totfact> 0.32586995E+00</totfact>
</mgrwt>
</event>
<event>
 5    1  0.2344661E-004  0.6425763E+03  0.7818608E-02  0.9820810E-01
         13   -1    0    0    0    0  0.00000000000E+00  0.00000000000E+00  0.10000000000E+04  0.10000000000E+04  0.00000000000E+00 0. -1.
          2   -1    0    0  501    0 -0.00000000000E+00 -0.00000000000E+00 -0.10322607194E+03  0.10322607194E+03  0.00000000000E+00 0. -1.
    9000006    2    1    2  501    0  0.00000000000E+00  0.00000000000E+00  0.89677392806E+03  0.11032260719E+04  0.64257628945E+03 0.  0.
         13    1    3    3    0    0 -0.18898091610E+03 -0.44897316701E+02  0.89982267465E+01  0.19444928332E+03  0.00000000000E+00 0. -1.
          2    1    3    3  501    0  0.18898091610E+03  0.44897316701E+02  0.88777570131E+03  0.90877678862E+03  0.00000000000E+00 0. -1.
<mgrwt>
<rscale>  0 0.64257629E+03</rscale>
<asrwt>0</asrwt>
<pdfrwt beam="1">0</pdfrwt>
<pdfrwt beam="2">  1        2 0.37536833E+00 0.64257629E+03</pdfrwt>
<totfact> 0.49192269E+00</totfact>
</mgrwt>
</event>
<event>
 5    1  0.2344661E-004  0.6485942E+03  0.7818608E-02  0.9809421E-01
         13   -1    0    0    0    0  0.00000000000E+00  0.00000000000E+00  0.10000000000E+04  0.10000000000E+04  0.00000000000E+00 0. -1.
          2   -1    0    0  501    0 -0.00000000000E+00 -0.00000000000E+00 -0.10516860123E+03  0.10516860123E+03  0.00000000000E+00 0. -1.
    9000006    2    1    2  501    0  0.00000000000E+00  0.00000000000E+00  0.89483139877E+03  0.11051686012E+04  0.64859417584E+03 0.  0.
         13    1    3    3    0    0 -0.29729677818E+02  0.12867596062E+02  0.99723609636E+03  0.99776212629E+03  0.00000000000E+00 0. -1.
          2    1    3    3  501    0  0.29729677818E+02 -0.12867596062E+02 -0.10240469759E+03  0.10740647495E+03  0.00000000000E+00 0. -1.
<mgrwt>
<rscale>  0 0.64859418E+03</rscale>
<asrwt>0</asrwt>
<pdfrwt beam="1">0</pdfrwt>
<pdfrwt beam="2">  1        2 0.38243208E+00 0.64859418E+03</pdfrwt>
<totfact> 0.46307764E+00</totfact>
</mgrwt>
</event>
<event>
 5    1  0.2344661E-004  0.6563433E+03  0.7818608E-02  0.9794949E-01
         13   -1    0    0    0    0  0.00000000000E+00  0.00000000000E+00  0.10000000000E+04  0.10000000000E+04  0.00000000000E+00 0. -1.
          2   -1    0    0  501    0 -0.00000000000E+00 -0.00000000000E+00 -0.10769662435E+03  0.10769662435E+03  0.00000000000E+00 0. -1.
    9000006    2    1    2  501    0  0.00000000000E+00  0.00000000000E+00  0.89230337565E+03  0.11076966244E+04  0.65634327712E+03 0.  0.
         13    1    3    3    0    0  0.17552039646E+03  0.26650244697E+03  0.57540695626E+03  0.65796970228E+03  0.00000000000E+00 0. -1.
          2    1    3    3  501    0 -0.17552039646E+03 -0.26650244697E+03  0.31689641939E+03  0.44972692207E+03  0.00000000000E+00 0. -1.
<mgrwt>
<rscale>  0 0.65634328E+03</rscale>
<asrwt>0</asrwt>
<pdfrwt beam="1">0</pdfrwt>
<pdfrwt beam="2">  1        2 0.39162491E+00 0.65634328E+03</pdfrwt>
<totfact> 0.42783963E+00</totfact>
</mgrwt>
</event>
<event>
 5    1  0.2344661E-004  0.6480079E+03  0.7818608E-02  0.9810524E-01
         13   -1    0    0    0    0  0.00000000000E+00  0.00000000000E+00  0.10000000000E+04  0.10000000000E+04  0.00000000000E+00 0. -1.
          2   -1    0    0  501    0 -0.00000000000E+00 -0.00000000000E+00 -0.10497856038E+03  0.10497856038E+03  0.00000000000E+00 0. -1.
    9000006    2    1    2  501    0  0.00000000000E+00  0.00000000000E+00  0.89502143962E+03  0.11049785604E+04  0.64800790237E+03 0.  0.
         13    1    3    3    0    0 -0.22841249212E+03 -0.15054590614E+03  0.15146335764E+03  0.31269391602E+03  0.00000000000E+00 0. -1.
          2    1    3    3  501    0  0.22841249212E+03  0.15054590614E+03  0.74355808198E+03  0.79228464436E+03  0.00000000000E+00 0. -1.
<mgrwt>
<rscale>  0 0.64800790E+03</rscale>
<asrwt>0</asrwt>
<pdfrwt beam="1">0</pdfrwt>
<pdfrwt beam="2">  1        2 0.38174102E+00 0.64800790E+03</pdfrwt>
<totfact> 0.46583006E+00</totfact>
</mgrwt>
</event>
<event>
 5    1  0.2344661E-004  0.6311814E+03  0.7818608E-02  0.9842746E-01
         13   -1    0    0    0    0  0.00000000000E+00  0.00000000000E+00  0.10000000000E+04  0.10000000000E+04  0.00000000000E+00 0. -1.
          2   -1    0    0  501    0 -0.00000000000E+00 -0.00000000000E+00 -0.99597488542E+02  0.99597488542E+02  0.00000000000E+00 0. -1.
    9000006    2    1    2  501    0  0.00000000000E+00  0.00000000000E+00  0.90040251146E+03  0.10995974885E+04  0.63118139561E+03 0.  0.
         13    1    3    3    0    0  0.19000323210E+03  0.36405315772E+02  0.88458460903E+03  0.90549241065E+03  0.00000000000E+00 0. -1.
          2    1    3    3  501    0 -0.19000323210E+03 -0.36405315772E+02  0.15817902430E+02  0.19410507789E+03  0.00000000000E+00 0. -1.
<mgrwt>
<rscale>  0 0.63118140E+03</rscale>
<asrwt>0</asrwt>
<pdfrwt beam="1">0</pdfrwt>
<pdfrwt beam="2">  1        2 0.36217345E+00 0.63118140E+03</pdfrwt>
<totfact> 0.55025239E+00</totfact>
</mgrwt>
</event>
<event>
 5    1  0.2344661E-004  0.6589427E+03  0.7818608E-02  0.9790142E-01
         13   -1    0    0    0    0  0.00000000000E+00  0.00000000000E+00  0.10000000000E+04  0.10000000000E+04  0.00000000000E+00 0. -1.
          2   -1    0    0  501    0 -0.00000000000E+00 -0.00000000000E+00 -0.10855137379E+03  0.10855137379E+03  0.00000000000E+00 0. -1.
    9000006    2    1    2  501    0  0.00000000000E+00  0.00000000000E+00  0.89144862621E+03  0.11085513738E+04  0.65894271008E+03 0.  0.
         13    1    3    3    0    0 -0.19398554305E+03 -0.25170758704E+03  0.59204029916E+03  0.67193661615E+03  0.00000000000E+00 0. -1.
          2    1    3    3  501    0  0.19398554305E+03  0.25170758704E+03  0.29940832705E+03  0.43661475764E+03  0.00000000000E+00 0. -1.
<mgrwt>
<rscale>  0 0.65894271E+03</rscale>
<asrwt>0</asrwt>
<pdfrwt beam="1">0</pdfrwt>
<pdfrwt beam="2">  1        2 0.39473310E+00 0.65894271E+03</pdfrwt>
<totfact> 0.41648579E+00</totfact>
</mgrwt>
</event>
<event>
 5    1  0.2344661E-004  0.6414362E+03  0.7818608E-02  0.9822982E-01
         13   -1    0    0    0    0  0.00000000000E+00  0.00000000000E+00  0.10000000000E+04  0.10000000000E+04  0.00000000000E+00 0. -1.
          2   -1    0    0  501    0 -0.00000000000E+00 -0.00000000000E+00 -0.10286011326E+03  0.10286011326E+03  0.00000000000E+00 0. -1.
    9000006    2    1    2  501    0  0.00000000000E+00  0.00000000000E+00  0.89713988674E+03  0.11028601133E+04  0.64143624240E+03 0.  0.
         13    1    3    3    0    0 -0.32015831320E+02  0.31519524335E+03  0.53431516456E+03  0.62118093174E+03  0.00000000000E+00 0. -1.
          2    1    3    3  501    0  0.32015831320E+02 -0.31519524335E+03  0.36282472218E+03  0.48167918152E+03  0.00000000000E+00 0. -1.
<mgrwt>
<rscale>  0 0.64143624E+03</rscale>
<asrwt>0</asrwt>
<pdfrwt beam="1">0</pdfrwt>
<pdfrwt beam="2">  1        2 0.37403756E+00 0.64143624E+03</pdfrwt>
<totfact> 0.49753735E+00</totfact>
</mgrwt>
</event>
<event>
 5    1  0.2344661E-004  0.6014116E+03  0.7818608E-02  0.9902482E-01
         13   -1    0    0    0    0  0.00000000000E+00  0.00000000000E+00  0.10000000000E+04  0.10000000000E+04  0.00000000000E+00 0. -1.
          2   -1    0    0  501    0 -0.00000000000E+00 -0.00000000000E+00 -0.90423987485E+02  0.90423987485E+02  0.00000000000E+00 0. -1.
    9000006    2    1    2  501    0  0.00000000000E+00  0.00000000000E+00  0.90957601251E+03  0.10904239875E+04  0.60141163103E+03 0.  0.
         13    1    3    3    0    0  0.29748288174E+03 -0.12891578427E+02  0.53088950673E+03  0.60869197964E+03  0.00000000000E+00 0. -1.
          2    1    3    3  501    0 -0.29748288174E+03  0.12891578427E+02  0.37868650579E+03  0.48173200785E+03  0.00000000000E+00 0. -1.
<mgrwt>
<rscale>  0 0.60141163E+03</rscale>
<asrwt>0</asrwt>
<pdfrwt beam="1">0</pdfrwt>
<pdfrwt beam="2">  1        2 0.32881519E+00 0.60141163E+03</pdfrwt>
<totfact> 0.72755891E+00</totfact>
</mgrwt>
</event>
<event>
 5    1  0.2344661E-004  0.6665704E+03  0.7818608E-02  0.9776173E-01
         13   -1    0    0    0    0  0.00000000000E+00  0.00000000000E+00  0.10000000000E+04  0.10000000000E+04  0.00000000000E+00 0. -1.
          2   -1    0    0  501    0 -0.00000000000E+00 -0.00000000000E+00 -0.11107901141E+03  0.11107901141E+03  0.00000000000E+00 0. -1.
    9000006    2    1    2  501    0  0.00000000000E+00  0.00000000000E+00  0.88892098859E+03  0.11110790114E+04  0.66657036060E+03 0.  0.
         13    1    3    3    0    0  0.81466941714E+02 -0.15248775418E+03 -0.30490975465E+02  0.17555363098E+03  0.00000000000E+00 0. -1.
          4    1    3    3  501    0 -0.81466941714E+02  0.15248775418E+03  0.91941196406E+03  0.93552538043E+03  0.00000000000E+00 0. -1.
<mgrwt>
<rscale>  0 0.66657036E+03</rscale>
<asrwt>0</asrwt>
<pdfrwt beam="1">0</pdfrwt>
<pdfrwt beam="2">  1        2 0.40392453E+00 0.66657036E+03</pdfrwt>
<totfact> 0.38448112E+00</totfact>
</mgrwt>
</event>
<event>
 5    1  0.2344661E-004  0.6294154E+03  0.7818608E-02  0.9846190E-01
         13   -1    0    0    0    0  0.00000000000E+00  0.00000000000E+00  0.10000000000E+04  0.10000000000E+04  0.00000000000E+00 0. -1.
          2   -1    0    0  501    0 -0.00000000000E+00 -0.00000000000E+00 -0.99040926512E+02  0.99040926512E+02  0.00000000000E+00 0. -1.
    9000006    2    1    2  501    0  0.00000000000E+00  0.00000000000E+00  0.90095907349E+03  0.10990409265E+04  0.62941536846E+03 0.  0.
         13    1    3    3    0    0 -0.12086730943E+03 -0.53425934046E-02 -0.56896687347E+02  0.13358944400E+03  0.00000000000E+00 0. -1.
          2    1    3    3  501    0  0.12086730943E+03  0.53425934046E-02  0.95785576083E+03  0.96545148251E+03  0.00000000000E+00 0. -1.
<mgrwt>
<rscale>  0 0.62941537E+03</rscale>
<asrwt>0</asrwt>
<pdfrwt beam="1">0</pdfrwt>
<pdfrwt beam="2">  1        2 0.36014958E+00 0.62941537E+03</pdfrwt>
<totfact> 0.55974166E+00</totfact>
</mgrwt>
</event>
<event>
 5    1  0.2344661E-004  0.6445178E+03  0.7818608E-02  0.9817121E-01
         13   -1    0    0    0    0  0.00000000000E+00  0.00000000000E+00  0.10000000000E+04  0.10000000000E+04  0.00000000000E+00 0. -1.
          2   -1    0    0  501    0 -0.00000000000E+00 -0.00000000000E+00 -0.10385079046E+03  0.10385079046E+03  0.00000000000E+00 0. -1.
    9000006    2    1    2  501    0  0.00000000000E+00  0.00000000000E+00  0.89614920954E+03  0.11038507905E+04  0.64451777465E+03 0.  0.
         13    1    3    3    0    0  0.13368784696E+02 -0.12773525609E+03 -0.58124383904E+02  0.14097327426E+03  0.00000000000E+00 0. -1.
          2    1    3    3  501    0 -0.13368784696E+02  0.12773525609E+03  0.95427359344E+03  0.96287751620E+03  0.00000000000E+00 0. -1.
<mgrwt>
<rscale>  0 0.64451777E+03</rscale>
<asrwt>0</asrwt>
<pdfrwt beam="1">0</pdfrwt>
<pdfrwt beam="2">  1        2 0.37764003E+00 0.64451777E+03</pdfrwt>
<totfact> 0.48247233E+00</totfact>
</mgrwt>
</event>
<event>
 5    1  0.2344661E-004  0.6544707E+03  0.7818608E-02  0.9798426E-01
         13   -1    0    0    0    0  0.00000000000E+00  0.00000000000E+00  0.10000000000E+04  0.10000000000E+04  0.00000000000E+00 0. -1.
          2   -1    0    0  501    0 -0.00000000000E+00 -0.00000000000E+00 -0.10708296289E+03  0.10708296289E+03  0.00000000000E+00 0. -1.
    9000006    2    1    2  501    0  0.00000000000E+00  0.00000000000E+00  0.89291703711E+03  0.11070829629E+04  0.65447066516E+03 0.  0.
         13    1    3    3    0    0 -0.56068650901E+02 -0.90127676555E+02 -0.77153510313E+02  0.13122254322E+03  0.00000000000E+00 0. -1.
          2    1    3    3  501    0  0.56068650901E+02  0.90127676555E+02  0.97007054743E+03  0.97586041967E+03  0.00000000000E+00 0. -1.
<mgrwt>
<rscale>  0 0.65447067E+03</rscale>
<asrwt>0</asrwt>
<pdfrwt beam="1">0</pdfrwt>
<pdfrwt beam="2">  1        2 0.38939341E+00 0.65447067E+03</pdfrwt>
<totfact> 0.43616274E+00</totfact>
</mgrwt>
</event>
<event>
 5    1  0.2344661E-004  0.6053613E+03  0.7818608E-02  0.9894345E-01
         13   -1    0    0    0    0  0.00000000000E+00  0.00000000000E+00  0.10000000000E+04  0.10000000000E+04  0.00000000000E+00 0. -1.
          2   -1    0    0  501    0 -0.00000000000E+00 -0.00000000000E+00 -0.91615578718E+02  0.91615578718E+02  0.00000000000E+00 0. -1.
    9000006    2    1    2  501    0  0.00000000000E+00  0.00000000000E+00  0.90838442128E+03  0.10916155787E+04  0.60536130936E+03 0.  0.
         13    1    3    3    0    0  0.16402537909E+03 -0.74417110506E+02  0.15542210824E+02  0.18078659142E+03  0.00000000000E+00 0. -1.
          4    1    3    3  501    0 -0.16402537909E+03  0.74417110506E+02  0.89284221046E+03  0.91082898730E+03  0.00000000000E+00 0. -1.
<mgrwt>
<rscale>  0 0.60536131E+03</rscale>
<asrwt>0</asrwt>
<pdfrwt beam="1">0</pdfrwt>
<pdfrwt beam="2">  1        2 0.33314826E+00 0.60536131E+03</pdfrwt>
<totfact> 0.70182211E+00</totfact>
</mgrwt>
</event>
<event>
 5    1  0.2344661E-004  0.6520737E+03  0.7818608E-02  0.9802896E-01
         13   -1    0    0    0    0  0.00000000000E+00  0.00000000000E+00  0.10000000000E+04  0.10000000000E+04  0.00000000000E+00 0. -1.
          2   -1    0    0  501    0 -0.00000000000E+00 -0.00000000000E+00 -0.10630001948E+03  0.10630001948E+03  0.00000000000E+00 0. -1.
    9000006    2    1    2  501    0  0.00000000000E+00  0.00000000000E+00  0.89369998052E+03  0.11063000195E+04  0.65207367521E+03 0.  0.
         13    1    3    3    0    0 -0.57047784161E+02 -0.31994587968E+03  0.49109821008E+03  0.58889495459E+03  0.00000000000E+00 0. -1.
          4    1    3    3  501    0  0.57047784161E+02  0.31994587968E+03  0.40260177044E+03  0.51740506488E+03  0.00000000000E+00 0. -1.
<mgrwt>
<rscale>  0 0.65207368E+03</rscale>
<asrwt>0</asrwt>
<pdfrwt beam="1">0</pdfrwt>
<pdfrwt beam="2">  1        2 0.38654634E+00 0.65207368E+03</pdfrwt>
<totfact> 0.44699430E+00</totfact>
</mgrwt>
</event>
<event>
 5    1  0.2344661E-004  0.6511601E+03  0.7818608E-02  0.9804605E-01
         13   -1    0    0    0    0  0.00000000000E+00  0.00000000000E+00  0.10000000000E+04  0.10000000000E+04  0.00000000000E+00 0. -1.
          2   -1    0    0  501    0 -0.00000000000E+00 -0.00000000000E+00 -0.10600235728E+03  0.10600235728E+03  0.00000000000E+00 0. -1.
    9000006    2    1    2  501    0  0.00000000000E+00  0.00000000000E+00  0.89399764272E+03  0.11060023573E+04  0.65116006414E+03 0.  0.
         13    1    3    3    0    0 -0.45094289464E+02 -0.26750570620E+03  0.75277585232E+03  0.80016515897E+03  0.00000000000E+00 0. -1.
          4    1    3    3  501    0  0.45094289464E+02  0.26750570620E+03  0.14122179039E+03  0.30583719831E+03  0.00000000000E+00 0. -1.
<mgrwt>
<rscale>  0 0.65116006E+03</rscale>
<asrwt>0</asrwt>
<pdfrwt beam="1">0</pdfrwt>
<pdfrwt beam="2">  1        2 0.38546393E+00 0.65116006E+03</pdfrwt>
<totfact> 0.45117577E+00</totfact>
</mgrwt>
</event>
<event>
 5    1  0.2344661E-004  0.7087786E+03  0.7818608E-02  0.9702336E-01
         13   -1    0    0    0    0  0.00000000000E+00  0.00000000000E+00  0.10000000000E+04  0.10000000000E+04  0.00000000000E+00 0. -1.
          2   -1    0    0  501    0 -0.00000000000E+00 -0.00000000000E+00 -0.12559176128E+03  0.12559176128E+03  0.00000000000E+00 0. -1.
    9000006    2    1    2  501    0  0.00000000000E+00  0.00000000000E+00  0.87440823872E+03  0.11255917613E+04  0.70877855858E+03 0.  0.
         13    1    3    3    0    0 -0.68544802416E+02 -0.69841261850E+02 -0.10371019268E+03  0.14259030774E+03  0.00000000000E+00 0. -1.
          4    1    3    3  501    0  0.68544802416E+02  0.69841261850E+02  0.97811843141E+03  0.98300145354E+03  0.00000000000E+00 0. -1.
<mgrwt>
<rscale>  0 0.70877856E+03</rscale>
<asrwt>0</asrwt>
<pdfrwt beam="1">0</pdfrwt>
<pdfrwt beam="2">  1        2 0.45669828E+00 0.70877856E+03</pdfrwt>
<totfact> 0.23948423E+00</totfact>
</mgrwt>
</event>
<event>
 5    1  0.2344661E-004  0.6682834E+03  0.7818608E-02  0.9773064E-01
         13   -1    0    0    0    0  0.00000000000E+00  0.00000000000E+00  0.10000000000E+04  0.10000000000E+04  0.00000000000E+00 0. -1.
          2   -1    0    0  501    0 -0.00000000000E+00 -0.00000000000E+00 -0.11165066056E+03  0.11165066056E+03  0.00000000000E+00 0. -1.
    9000006    2    1    2  501    0  0.00000000000E+00  0.00000000000E+00  0.88834933944E+03  0.11116506606E+04  0.66828335475E+03 0.  0.
         13    1    3    3    0    0  0.25594654280E+03  0.20056555347E+03  0.31623567857E+03  0.45358591073E+03  0.00000000000E+00 0. -1.
          2    1    3    3  501    0 -0.25594654280E+03 -0.20056555347E+03  0.57211366087E+03  0.65806474983E+03  0.00000000000E+00 0. -1.
<mgrwt>
<rscale>  0 0.66828335E+03</rscale>
<asrwt>0</asrwt>
<pdfrwt beam="1">0</pdfrwt>
<pdfrwt beam="2">  1        2 0.40600326E+00 0.66828335E+03</pdfrwt>
<totfact> 0.37755635E+00</totfact>
</mgrwt>
</event>
<event>
 5    1  0.2344661E-004  0.7421959E+03  0.7818608E-02  0.9647674E-01
         13   -1    0    0    0    0  0.00000000000E+00  0.00000000000E+00  0.10000000000E+04  0.10000000000E+04  0.00000000000E+00 0. -1.
          2   -1    0    0  501    0 -0.00000000000E+00 -0.00000000000E+00 -0.13771367874E+03  0.13771367874E+03  0.00000000000E+00 0. -1.
    9000006    2    1    2  501    0  0.00000000000E+00  0.00000000000E+00  0.86228632126E+03  0.11377136787E+04  0.74219587372E+03 0.  0.
         13    1    3    3    0    0 -0.15262234123E+03 -0.91268510059E+02 -0.68145834443E+02  0.19043995044E+03  0.00000000000E+00 0. -1.
          4    1    3    3  501    0  0.15262234123E+03  0.91268510059E+02  0.93043215570E+03  0.94727372830E+03  0.00000000000E+00 0. -1.
<mgrwt>
<rscale>  0 0.74219587E+03</rscale>
<asrwt>0</asrwt>
<pdfrwt beam="1">0</pdfrwt>
<pdfrwt beam="2">  1        2 0.50077807E+00 0.74219587E+03</pdfrwt>
<totfact> 0.15759796E+00</totfact>
</mgrwt>
</event>
<event>
 5    1  0.2344661E-004  0.6516963E+03  0.7818608E-02  0.9803601E-01
         13   -1    0    0    0    0  0.00000000000E+00  0.00000000000E+00  0.10000000000E+04  0.10000000000E+04  0.00000000000E+00 0. -1.
          2   -1    0    0  501    0 -0.00000000000E+00 -0.00000000000E+00 -0.10617701777E+03  0.10617701777E+03  0.00000000000E+00 0. -1.
    9000006    2    1    2  501    0  0.00000000000E+00  0.00000000000E+00  0.89382298223E+03  0.11061770178E+04  0.65169630280E+03 0.  0.
         13    1    3    3    0    0 -0.21877829946E+03  0.24145361495E+03  0.44073869562E+03  0.54810071182E+03  0.00000000000E+00 0. -1.
          4    1    3    3  501    0  0.21877829946E+03 -0.24145361495E+03  0.45308428661E+03  0.55807630595E+03  0.00000000000E+00 0. -1.
<mgrwt>
<rscale>  0 0.65169630E+03</rscale>
<asrwt>0</asrwt>
<pdfrwt beam="1">0</pdfrwt>
<pdfrwt beam="2">  1        2 0.38609906E+00 0.65169630E+03</pdfrwt>
<totfact> 0.44871791E+00</totfact>
</mgrwt>
</event>
<event>
 5    1  0.2344661E-004  0.6358309E+03  0.7818608E-02  0.9833736E-01
         13   -1    0    0    0    0  0.00000000000E+00  0.00000000000E+00  0.10000000000E+04  0.10000000000E+04  0.00000000000E+00 0. -1.
          2   -1    0    0  501    0 -0.00000000000E+00 -0.00000000000E+00 -0.10107024711E+03  0.10107024711E+03  0.00000000000E+00 0. -1.
    9000006    2    1    2  501    0  0.00000000000E+00  0.00000000000E+00  0.89892975289E+03  0.11010702471E+04  0.63583094328E+03 0.  0.
         13    1    3    3    0    0  0.85211946400E+02  0.19527415609E+03  0.40852078575E+02  0.21693769652E+03  0.00000000000E+00 0. -1.
          2    1    3    3  501    0 -0.85211946400E+02 -0.19527415609E+03  0.85807767432E+03  0.88413255059E+03  0.00000000000E+00 0. -1.
<mgrwt>
<rscale>  0 0.63583094E+03</rscale>
<asrwt>0</asrwt>
<pdfrwt beam="1">0</pdfrwt>
<pdfrwt beam="2">  1        2 0.36752895E+00 0.63583094E+03</pdfrwt>
<totfact> 0.52585252E+00</totfact>
</mgrwt>
</event>
<event>
 5    1  0.2344661E-004  0.6182416E+03  0.7818608E-02  0.9868267E-01
         13   -1    0    0    0    0  0.00000000000E+00  0.00000000000E+00  0.10000000000E+04  0.10000000000E+04  0.00000000000E+00 0. -1.
          2   -1    0    0  501    0 -0.00000000000E+00 -0.00000000000E+00 -0.95555677135E+02  0.95555677135E+02  0.00000000000E+00 0. -1.
    9000006    2    1    2  501    0  0.00000000000E+00  0.00000000000E+00  0.90444432287E+03  0.10955556771E+04  0.61824162634E+03 0.  0.
         13    1    3    3    0    0 -0.27004480793E+03  0.11700422687E+03  0.28465799436E+03  0.40944396583E+03  0.00000000000E+00 0. -1.
          2    1    3    3  501    0  0.27004480793E+03 -0.11700422687E+03  0.61978632850E+03  0.68611171131E+03  0.00000000000E+00 0. -1.
<mgrwt>
<rscale>  0 0.61824163E+03</rscale>
<asrwt>0</asrwt>
<pdfrwt beam="1">0</pdfrwt>
<pdfrwt beam="2">  1        2 0.34747592E+00 0.61824163E+03</pdfrwt>
<totfact> 0.62270166E+00</totfact>
</mgrwt>
</event>
<event>
 5    1  0.2344661E-004  0.6506300E+03  0.7818608E-02  0.9805598E-01
         13   -1    0    0    0    0  0.00000000000E+00  0.00000000000E+00  0.10000000000E+04  0.10000000000E+04  0.00000000000E+00 0. -1.
          2   -1    0    0  501    0 -0.00000000000E+00 -0.00000000000E+00 -0.10582984737E+03  0.10582984737E+03  0.00000000000E+00 0. -1.
    9000006    2    1    2  501    0  0.00000000000E+00  0.00000000000E+00  0.89417015263E+03  0.11058298474E+04  0.65062999429E+03 0.  0.
         13    1    3    3    0    0  0.26062867613E+03 -0.15890019946E+03  0.25589930561E+03  0.39832277718E+03  0.00000000000E+00 0. -1.
          4    1    3    3  501    0 -0.26062867613E+03  0.15890019946E+03  0.63827084702E+03  0.70750707019E+03  0.00000000000E+00 0. -1.
<mgrwt>
<rscale>  0 0.65062999E+03</rscale>
<asrwt>0</asrwt>
<pdfrwt beam="1">0</pdfrwt>
<pdfrwt beam="2">  1        2 0.38483662E+00 0.65062999E+03</pdfrwt>
<totfact> 0.45361533E+00</totfact>
</mgrwt>
</event>
<event>
 5    1  0.2344661E-004  0.6449681E+03  0.7818608E-02  0.9816267E-01
         13   -1    0    0    0    0  0.00000000000E+00  0.00000000000E+00  0.10000000000E+04  0.10000000000E+04  0.00000000000E+00 0. -1.
          2   -1    0    0  501    0 -0.00000000000E+00 -0.00000000000E+00 -0.10399594846E+03  0.10399594846E+03  0.00000000000E+00 0. -1.
    9000006    2    1    2  501    0  0.00000000000E+00  0.00000000000E+00  0.89600405154E+03  0.11039959485E+04  0.64496805646E+03 0.  0.
         13    1    3    3    0    0  0.97868723559E+01 -0.31307650373E+03  0.57929412884E+03  0.65855475685E+03  0.00000000000E+00 0. -1.
          4    1    3    3  501    0 -0.97868723559E+01  0.31307650373E+03  0.31670992269E+03  0.44544119162E+03  0.00000000000E+00 0. -1.
<mgrwt>
<rscale>  0 0.64496806E+03</rscale>
<asrwt>0</asrwt>
<pdfrwt beam="1">0</pdfrwt>
<pdfrwt beam="2">  1        2 0.37816788E+00 0.64496806E+03</pdfrwt>
<totfact> 0.48030033E+00</totfact>
</mgrwt>
</event>
<event>
 5    1  0.2344661E-004  0.6602218E+03  0.7818608E-02  0.9787786E-01
         13   -1    0    0    0    0  0.00000000000E+00  0.00000000000E+00  0.10000000000E+04  0.10000000000E+04  0.00000000000E+00 0. -1.
          2   -1    0    0  501    0 -0.00000000000E+00 -0.00000000000E+00 -0.10897319996E+03  0.10897319996E+03  0.00000000000E+00 0. -1.
    9000006    2    1    2  501    0  0.00000000000E+00  0.00000000000E+00  0.89102680004E+03  0.11089732000E+04  0.66022178078E+03 0.  0.
         13    1    3    3    0    0  0.12932065317E+03  0.19538596158E+03  0.54920607340E+02  0.24065697254E+03  0.00000000000E+00 0. -1.
          2    1    3    3  501    0 -0.12932065317E+03 -0.19538596158E+03  0.83610619270E+03  0.86831622742E+03  0.00000000000E+00 0. -1.
<mgrwt>
<rscale>  0 0.66022178E+03</rscale>
<asrwt>0</asrwt>
<pdfrwt beam="1">0</pdfrwt>
<pdfrwt beam="2">  1        2 0.39626702E+00 0.66022178E+03</pdfrwt>
<totfact> 0.41098364E+00</totfact>
</mgrwt>
</event>
<event>
 5    1  0.2344661E-004  0.6339609E+03  0.7818608E-02  0.9837350E-01
         13   -1    0    0    0    0  0.00000000000E+00  0.00000000000E+00  0.10000000000E+04  0.10000000000E+04  0.00000000000E+00 0. -1.
          2   -1    0    0  501    0 -0.00000000000E+00 -0.00000000000E+00 -0.10047660861E+03  0.10047660861E+03  0.00000000000E+00 0. -1.
    9000006    2    1    2  501    0  0.00000000000E+00  0.00000000000E+00  0.89952339139E+03  0.11004766086E+04  0.63396090924E+03 0.  0.
         13    1    3    3    0    0  0.75714975147E+02  0.54122683745E+02  0.97574768608E+03  0.98017629498E+03  0.00000000000E+00 0. -1.
          2    1    3    3  501    0 -0.75714975147E+02 -0.54122683745E+02 -0.76224294691E+02  0.12030031363E+03  0.00000000000E+00 0. -1.
<mgrwt>
<rscale>  0 0.63396091E+03</rscale>
<asrwt>0</asrwt>
<pdfrwt beam="1">0</pdfrwt>
<pdfrwt beam="2">  1        2 0.36537026E+00 0.63396091E+03</pdfrwt>
<totfact> 0.53556526E+00</totfact>
</mgrwt>
</event>
<event>
 5    1  0.2344661E-004  0.6518553E+03  0.7818608E-02  0.9803304E-01
         13   -1    0    0    0    0  0.00000000000E+00  0.00000000000E+00  0.10000000000E+04  0.10000000000E+04  0.00000000000E+00 0. -1.
          2   -1    0    0  501    0 -0.00000000000E+00 -0.00000000000E+00 -0.10622882044E+03  0.10622882044E+03  0.00000000000E+00 0. -1.
    9000006    2    1    2  501    0  0.00000000000E+00  0.00000000000E+00  0.89377117956E+03  0.11062288204E+04  0.65185526136E+03 0.  0.
         13    1    3    3    0    0  0.68586860978E+02  0.16552294987E+03 -0.15156422634E+02  0.17981023769E+03  0.00000000000E+00 0. -1.
          2    1    3    3  501    0 -0.68586860978E+02 -0.16552294987E+03  0.90892760219E+03  0.92641858275E+03  0.00000000000E+00 0. -1.
<mgrwt>
<rscale>  0 0.65185526E+03</rscale>
<asrwt>0</asrwt>
<pdfrwt beam="1">0</pdfrwt>
<pdfrwt beam="2">  1        2 0.38628743E+00 0.65185526E+03</pdfrwt>
<totfact> 0.44799127E+00</totfact>
</mgrwt>
</event>
<event>
 5    1  0.2344661E-004  0.6476462E+03  0.7818608E-02  0.9811206E-01
         13   -1    0    0    0    0  0.00000000000E+00  0.00000000000E+00  0.10000000000E+04  0.10000000000E+04  0.00000000000E+00 0. -1.
          2   -1    0    0  501    0 -0.00000000000E+00 -0.00000000000E+00 -0.10486140363E+03  0.10486140363E+03  0.00000000000E+00 0. -1.
    9000006    2    1    2  501    0  0.00000000000E+00  0.00000000000E+00  0.89513859637E+03  0.11048614036E+04  0.64764621091E+03 0.  0.
         13    1    3    3    0    0  0.25075426459E+03 -0.13570779450E+03  0.70946177172E+03  0.76461121639E+03  0.00000000000E+00 0. -1.
          4    1    3    3  501    0 -0.25075426459E+03  0.13570779450E+03  0.18567682465E+03  0.34025018723E+03  0.00000000000E+00 0. -1.
<mgrwt>
<rscale>  0 0.64764621E+03</rscale>
<asrwt>0</asrwt>
<pdfrwt beam="1">0</pdfrwt>
<pdfrwt beam="2">  1        2 0.38131500E+00 0.64764621E+03</pdfrwt>
<totfact> 0.46753427E+00</totfact>
</mgrwt>
</event>
<event>
 5    1  0.2344661E-004  0.6164773E+03  0.7818608E-02  0.9871799E-01
         13   -1    0    0    0    0  0.00000000000E+00  0.00000000000E+00  0.10000000000E+04  0.10000000000E+04  0.00000000000E+00 0. -1.
          2   -1    0    0  501    0 -0.00000000000E+00 -0.00000000000E+00 -0.95011051391E+02  0.95011051391E+02  0.00000000000E+00 0. -1.
    9000006    2    1    2  501    0  0.00000000000E+00  0.00000000000E+00  0.90498894861E+03  0.10950110514E+04  0.61647725470E+03 0.  0.
         13    1    3    3    0    0 -0.16750909784E+03 -0.49336112492E+02  0.13237739674E+01  0.17462846914E+03  0.00000000000E+00 0. -1.
          4    1    3    3  501    0  0.16750909784E+03  0.49336112492E+02  0.90366517464E+03  0.92038258225E+03  0.00000000000E+00 0. -1.
<mgrwt>
<rscale>  0 0.61647725E+03</rscale>
<asrwt>0</asrwt>
<pdfrwt beam="1">0</pdfrwt>
<pdfrwt beam="2">  1        2 0.34549546E+00 0.61647725E+03</pdfrwt>
<totfact> 0.63311592E+00</totfact>
</mgrwt>
</event>
<event>
 5    1  0.2344661E-004  0.6621501E+03  0.7818608E-02  0.9784244E-01
         13   -1    0    0    0    0  0.00000000000E+00  0.00000000000E+00  0.10000000000E+04  0.10000000000E+04  0.00000000000E+00 0. -1.
          2   -1    0    0  501    0 -0.00000000000E+00 -0.00000000000E+00 -0.10961069649E+03  0.10961069649E+03  0.00000000000E+00 0. -1.
    9000006    2    1    2  501    0  0.00000000000E+00  0.00000000000E+00  0.89038930351E+03  0.11096106965E+04  0.66215012343E+03 0.  0.
         13    1    3    3    0    0  0.24304279933E+03  0.17229625468E+03  0.68719621538E+03  0.74899562089E+03  0.00000000000E+00 0. -1.
          4    1    3    3  501    0 -0.24304279933E+03 -0.17229625468E+03  0.20319308813E+03  0.36061507560E+03  0.00000000000E+00 0. -1.
<mgrwt>
<rscale>  0 0.66215012E+03</rscale>
<asrwt>0</asrwt>
<pdfrwt beam="1">0</pdfrwt>
<pdfrwt beam="2">  1        2 0.39858519E+00 0.66215012E+03</pdfrwt>
<totfact> 0.40279244E+00</totfact>
</mgrwt>
</event>
<event>
 5    1  0.2344661E-004  0.6584018E+03  0.7818608E-02  0.9791140E-01
         13   -1    0    0    0    0  0.00000000000E+00  0.00000000000E+00  0.10000000000E+04  0.10000000000E+04  0.00000000000E+00 0. -1.
          2   -1    0    0  501    0 -0.00000000000E+00 -0.00000000000E+00 -0.10837321752E+03  0.10837321752E+03  0.00000000000E+00 0. -1.
    9000006    2    1    2  501    0  0.00000000000E+00  0.00000000000E+00  0.89162678248E+03  0.11083732175E+04  0.65840175430E+03 0.  0.
         13    1    3    3    0    0 -0.19421786515E+03  0.22893104727E+03  0.67318996583E+03  0.73709886287E+03  0.00000000000E+00 0. -1.
          2    1    3    3  501    0  0.19421786515E+03 -0.22893104727E+03  0.21843681665E+03  0.37127435465E+03  0.00000000000E+00 0. -1.
<mgrwt>
<rscale>  0 0.65840175E+03</rscale>
<asrwt>0</asrwt>
<pdfrwt beam="1">0</pdfrwt>
<pdfrwt beam="2">  1        2 0.39408526E+00 0.65840175E+03</pdfrwt>
<totfact> 0.41882947E+00</totfact>
</mgrwt>
</event>
<event>
 5    1  0.2344661E-004  0.6526626E+03  0.7818608E-02  0.9801796E-01
         13   -1    0    0    0    0  0.00000000000E+00  0.00000000000E+00  0.10000000000E+04  0.10000000000E+04  0.00000000000E+00 0. -1.
          2   -1    0    0  501    0 -0.00000000000E+00 -0.00000000000E+00 -0.10649211364E+03  0.10649211364E+03  0.00000000000E+00 0. -1.
    9000006    2    1    2  501    0  0.00000000000E+00  0.00000000000E+00  0.89350788636E+03  0.11064921136E+04  0.65266258859E+03 0.  0.
         13    1    3    3    0    0 -0.30331051166E+02 -0.31224758214E+03  0.59908656144E+03  0.67625678061E+03  0.00000000000E+00 0. -1.
          4    1    3    3  501    0  0.30331051166E+02  0.31224758214E+03  0.29442132492E+03  0.43023533303E+03  0.00000000000E+00 0. -1.
<mgrwt>
<rscale>  0 0.65266259E+03</rscale>
<asrwt>0</asrwt>
<pdfrwt beam="1">0</pdfrwt>
<pdfrwt beam="2">  1        2 0.38724487E+00 0.65266259E+03</pdfrwt>
<totfact> 0.44431449E+00</totfact>
</mgrwt>
</event>
<event>
 5    1  0.2344661E-004  0.6391144E+03  0.7818608E-02  0.9827422E-01
         13   -1    0    0    0    0  0.00000000000E+00  0.00000000000E+00  0.10000000000E+04  0.10000000000E+04  0.00000000000E+00 0. -1.
          2   -1    0    0  501    0 -0.00000000000E+00 -0.00000000000E+00 -0.10211678902E+03  0.10211678902E+03  0.00000000000E+00 0. -1.
    9000006    2    1    2  501    0  0.00000000000E+00  0.00000000000E+00  0.89788321098E+03  0.11021167890E+04  0.63911435291E+03 0.  0.
         13    1    3    3    0    0 -0.21749807461E+03 -0.41427943271E+02  0.84629440530E+03  0.87477763311E+03  0.00000000000E+00 0. -1.
          2    1    3    3  501    0  0.21749807461E+03  0.41427943271E+02  0.51588805677E+02  0.22733915592E+03  0.00000000000E+00 0. -1.
<mgrwt>
<rscale>  0 0.63911435E+03</rscale>
<asrwt>0</asrwt>
<pdfrwt beam="1">0</pdfrwt>
<pdfrwt beam="2">  1        2 0.37133456E+00 0.63911435E+03</pdfrwt>
<totfact> 0.50912247E+00</totfact>
</mgrwt>
</event>
<event>
 5    1  0.2344661E-004  0.5861246E+03  0.7818608E-02  0.9934619E-01
         13   -1    0    0    0    0  0.00000000000E+00  0.00000000000E+00  0.10000000000E+04  0.10000000000E+04  0.00000000000E+00 0. -1.
          4   -1    0    0  501    0 -0.00000000000E+00 -0.00000000000E+00 -0.85885511332E+02  0.85885511332E+02  0.00000000000E+00 0. -1.
    9000006    2    1    2  501    0  0.00000000000E+00  0.00000000000E+00  0.91411448867E+03  0.10858855113E+04  0.58612459881E+03 0.  0.
         13    1    3    3    0    0  0.94352834682E+02  0.26162469967E+03  0.28589405689E+03  0.39885505219E+03  0.00000000000E+00 0. -1.
          4    1    3    3  501    0 -0.94352834682E+02 -0.26162469967E+03  0.62822043178E+03  0.68703045914E+03  0.00000000000E+00 0. -1.
<mgrwt>
<rscale>  0 0.58612460E+03</rscale>
<asrwt>0</asrwt>
<pdfrwt beam="1">0</pdfrwt>
<pdfrwt beam="2">  1        4 0.31231161E+00 0.58612460E+03</pdfrwt>
<totfact> 0.11965890E-01</totfact>
</mgrwt>
</event>
<event>
 5    1  0.2344661E-004  0.6589461E+03  0.7818608E-02  0.9790136E-01
         13   -1    0    0    0    0  0.00000000000E+00  0.00000000000E+00  0.10000000000E+04  0.10000000000E+04  0.00000000000E+00 0. -1.
          2   -1    0    0  501    0 -0.00000000000E+00 -0.00000000000E+00 -0.10855247949E+03  0.10855247949E+03  0.00000000000E+00 0. -1.
    9000006    2    1    2  501    0  0.00000000000E+00  0.00000000000E+00  0.89144752051E+03  0.11085524795E+04  0.65894606604E+03 0.  0.
         13    1    3    3    0    0 -0.88233523321E+02 -0.23586709906E+03  0.80312699239E+03  0.84168367512E+03  0.00000000000E+00 0. -1.
          4    1    3    3  501    0  0.88233523321E+02  0.23586709906E+03  0.88320528122E+02  0.26686880437E+03  0.00000000000E+00 0. -1.
<mgrwt>
<rscale>  0 0.65894607E+03</rscale>
<asrwt>0</asrwt>
<pdfrwt beam="1">0</pdfrwt>
<pdfrwt beam="2">  1        2 0.39473712E+00 0.65894607E+03</pdfrwt>
<totfact> 0.41647129E+00</totfact>
</mgrwt>
</event>
<event>
 5    1  0.2344661E-004  0.6502761E+03  0.7818608E-02  0.9806261E-01
         13   -1    0    0    0    0  0.00000000000E+00  0.00000000000E+00  0.10000000000E+04  0.10000000000E+04  0.00000000000E+00 0. -1.
          2   -1    0    0  501    0 -0.00000000000E+00 -0.00000000000E+00 -0.10571475063E+03  0.10571475063E+03  0.00000000000E+00 0. -1.
    9000006    2    1    2  501    0  0.00000000000E+00  0.00000000000E+00  0.89428524937E+03  0.11057147506E+04  0.65027609716E+03 0.  0.
         13    1    3    3    0    0  0.20532007521E+03  0.58331311086E+02  0.30096261159E+02  0.21555662846E+03  0.00000000000E+00 0. -1.
          4    1    3    3  501    0 -0.20532007521E+03 -0.58331311086E+02  0.86418898821E+03  0.89015812218E+03  0.00000000000E+00 0. -1.
<mgrwt>
<rscale>  0 0.65027610E+03</rscale>
<asrwt>0</asrwt>
<pdfrwt beam="1">0</pdfrwt>
<pdfrwt beam="2">  1        2 0.38441809E+00 0.65027610E+03</pdfrwt>
<totfact> 0.45524962E+00</totfact>
</mgrwt>
</event>
<event>
 5    1  0.2344661E-004  0.6528210E+03  0.7818608E-02  0.9801500E-01
         13   -1    0    0    0    0  0.00000000000E+00  0.00000000000E+00  0.10000000000E+04  0.10000000000E+04  0.00000000000E+00 0. -1.
          2   -1    0    0  501    0 -0.00000000000E+00 -0.00000000000E+00 -0.10654382101E+03  0.10654382101E+03  0.00000000000E+00 0. -1.
    9000006    2    1    2  501    0  0.00000000000E+00  0.00000000000E+00  0.89345617899E+03  0.11065438210E+04  0.65282101992E+03 0.  0.
         13    1    3    3    0    0 -0.21016120360E+03  0.88693475909E+02  0.84246887677E+03  0.87280471612E+03  0.00000000000E+00 0. -1.
          2    1    3    3  501    0  0.21016120360E+03 -0.88693475909E+02  0.50987302219E+02  0.23373910489E+03  0.00000000000E+00 0. -1.
<mgrwt>
<rscale>  0 0.65282102E+03</rscale>
<asrwt>0</asrwt>
<pdfrwt beam="1">0</pdfrwt>
<pdfrwt beam="2">  1        2 0.38743289E+00 0.65282102E+03</pdfrwt>
<totfact> 0.44359564E+00</totfact>
</mgrwt>
</event>
<event>
 5    1  0.2344661E-004  0.6580217E+03  0.7818608E-02  0.9791842E-01
         13   -1    0    0    0    0  0.00000000000E+00  0.00000000000E+00  0.10000000000E+04  0.10000000000E+04  0.00000000000E+00 0. -1.
          2   -1    0    0  501    0 -0.00000000000E+00 -0.00000000000E+00 -0.10824814787E+03  0.10824814787E+03  0.00000000000E+00 0. -1.
    9000006    2    1    2  501    0  0.00000000000E+00  0.00000000000E+00  0.89175185213E+03  0.11082481479E+04  0.65802172569E+03 0.  0.
         13    1    3    3    0    0  0.15441133520E+03 -0.33183422185E+02 -0.40229081160E+02  0.16297968867E+03  0.00000000000E+00 0. -1.
          4    1    3    3  501    0 -0.15441133520E+03  0.33183422185E+02  0.93198093329E+03  0.94526845920E+03  0.00000000000E+00 0. -1.
<mgrwt>
<rscale>  0 0.65802173E+03</rscale>
<asrwt>0</asrwt>
<pdfrwt beam="1">0</pdfrwt>
<pdfrwt beam="2">  1        2 0.39363046E+00 0.65802173E+03</pdfrwt>
<totfact> 0.42048196E+00</totfact>
</mgrwt>
</event>
<event>
 5    1  0.2344661E-004  0.5970755E+03  0.7818608E-02  0.9911492E-01
         13   -1    0    0    0    0  0.00000000000E+00  0.00000000000E+00  0.10000000000E+04  0.10000000000E+04  0.00000000000E+00 0. -1.
          2   -1    0    0  501    0 -0.00000000000E+00 -0.00000000000E+00 -0.89124780767E+02  0.89124780767E+02  0.00000000000E+00 0. -1.
    9000006    2    1    2  501    0  0.00000000000E+00  0.00000000000E+00  0.91087521923E+03  0.10891247808E+04  0.59707547519E+03 0.  0.
         13    1    3    3    0    0 -0.82928922297E+02  0.93794779375E+02  0.94979911233E+03  0.95801514632E+03  0.00000000000E+00 0. -1.
          4    1    3    3  501    0  0.82928922297E+02 -0.93794779375E+02 -0.38923893098E+02  0.13110963445E+03  0.00000000000E+00 0. -1.
<mgrwt>
<rscale>  0 0.59707548E+03</rscale>
<asrwt>0</asrwt>
<pdfrwt beam="1">0</pdfrwt>
<pdfrwt beam="2">  1        2 0.32409080E+00 0.59707548E+03</pdfrwt>
<totfact> 0.75664040E+00</totfact>
</mgrwt>
</event>
<event>
 5    1  0.2344661E-004  0.6523964E+03  0.7818608E-02  0.9802293E-01
         13   -1    0    0    0    0  0.00000000000E+00  0.00000000000E+00  0.10000000000E+04  0.10000000000E+04  0.00000000000E+00 0. -1.
          2   -1    0    0  501    0 -0.00000000000E+00 -0.00000000000E+00 -0.10640528028E+03  0.10640528028E+03  0.00000000000E+00 0. -1.
    9000006    2    1    2  501    0  0.00000000000E+00  0.00000000000E+00  0.89359471972E+03  0.11064052803E+04  0.65239644474E+03 0.  0.
         13    1    3    3    0    0 -0.20963232932E+03  0.24648737217E+03  0.37680041340E+03  0.49666919541E+03  0.00000000000E+00 0. -1.
          2    1    3    3  501    0  0.20963232932E+03 -0.24648737217E+03  0.51679430632E+03  0.60973608486E+03  0.00000000000E+00 0. -1.
<mgrwt>
<rscale>  0 0.65239644E+03</rscale>
<asrwt>0</asrwt>
<pdfrwt beam="1">0</pdfrwt>
<pdfrwt beam="2">  1        2 0.38692911E+00 0.65239644E+03</pdfrwt>
<totfact> 0.44552405E+00</totfact>
</mgrwt>
</event>
<event>
 5    1  0.2344661E-004  0.6461760E+03  0.7818608E-02  0.9813981E-01
         13   -1    0    0    0    0  0.00000000000E+00  0.00000000000E+00  0.10000000000E+04  0.10000000000E+04  0.00000000000E+00 0. -1.
          2   -1    0    0  501    0 -0.00000000000E+00 -0.00000000000E+00 -0.10438585954E+03  0.10438585954E+03  0.00000000000E+00 0. -1.
    9000006    2    1    2  501    0  0.00000000000E+00  0.00000000000E+00  0.89561414046E+03  0.11043858595E+04  0.64617601175E+03 0.  0.
         13    1    3    3    0    0  0.31240352488E+03  0.25901853104E+02  0.31411368511E+03  0.44377277466E+03  0.00000000000E+00 0. -1.
          4    1    3    3  501    0 -0.31240352488E+03 -0.25901853104E+02  0.58150045535E+03  0.66061308488E+03  0.00000000000E+00 0. -1.
<mgrwt>
<rscale>  0 0.64617601E+03</rscale>
<asrwt>0</asrwt>
<pdfrwt beam="1">0</pdfrwt>
<pdfrwt beam="2">  1        2 0.37958574E+00 0.64617601E+03</pdfrwt>
<totfact> 0.47451011E+00</totfact>
</mgrwt>
</event>
<event>
 5    1  0.2344661E-004  0.6029451E+03  0.7818608E-02  0.9899315E-01
         13   -1    0    0    0    0  0.00000000000E+00  0.00000000000E+00  0.10000000000E+04  0.10000000000E+04  0.00000000000E+00 0. -1.
          2   -1    0    0  501    0 -0.00000000000E+00 -0.00000000000E+00 -0.90885706030E+02  0.90885706030E+02  0.00000000000E+00 0. -1.
    9000006    2    1    2  501    0  0.00000000000E+00  0.00000000000E+00  0.90911429397E+03  0.10908857060E+04  0.60294512530E+03 0.  0.
         13    1    3    3    0    0  0.29607706796E+03 -0.18111080086E+01  0.35187781018E+03  0.45987270367E+03  0.00000000000E+00 0. -1.
          4    1    3    3  501    0 -0.29607706796E+03  0.18111080086E+01  0.55723648379E+03  0.63101300236E+03  0.00000000000E+00 0. -1.
<mgrwt>
<rscale>  0 0.60294513E+03</rscale>
<asrwt>0</asrwt>
<pdfrwt beam="1">0</pdfrwt>
<pdfrwt beam="2">  1        2 0.33049417E+00 0.60294513E+03</pdfrwt>
<totfact> 0.71748205E+00</totfact>
</mgrwt>
</event>
<event>
 5    1  0.2344661E-004  0.6496029E+03  0.7818608E-02  0.9807525E-01
         13   -1    0    0    0    0  0.00000000000E+00  0.00000000000E+00  0.10000000000E+04  0.10000000000E+04  0.00000000000E+00 0. -1.
          2   -1    0    0  501    0 -0.00000000000E+00 -0.00000000000E+00 -0.10549597696E+03  0.10549597696E+03  0.00000000000E+00 0. -1.
    9000006    2    1    2  501    0  0.00000000000E+00  0.00000000000E+00  0.89450402304E+03  0.11054959770E+04  0.64960288473E+03 0.  0.
         13    1    3    3    0    0  0.18768367978E+02  0.20232978992E+03  0.87847143924E+03  0.90166604965E+03  0.00000000000E+00 0. -1.
          2    1    3    3  501    0 -0.18768367978E+02 -0.20232978992E+03  0.16032583794E+02  0.20382992731E+03  0.00000000000E+00 0. -1.
<mgrwt>
<rscale>  0 0.64960288E+03</rscale>
<asrwt>0</asrwt>
<pdfrwt beam="1">0</pdfrwt>
<pdfrwt beam="2">  1        2 0.38362254E+00 0.64960288E+03</pdfrwt>
<totfact> 0.45837079E+00</totfact>
</mgrwt>
</event>
<event>
 5    1  0.2344661E-004  0.6457689E+03  0.7818608E-02  0.9814751E-01
         13   -1    0    0    0    0  0.00000000000E+00  0.00000000000E+00  0.10000000000E+04  0.10000000000E+04  0.00000000000E+00 0. -1.
          2   -1    0    0  501    0 -0.00000000000E+00 -0.00000000000E+00 -0.10425435386E+03  0.10425435386E+03  0.00000000000E+00 0. -1.
    9000006    2    1    2  501    0  0.00000000000E+00  0.00000000000E+00  0.89574564614E+03  0.11042543539E+04  0.64576885604E+03 0.  0.
         13    1    3    3    0    0  0.26024965804E+02 -0.12557886389E+03  0.95457947260E+03  0.96315591646E+03  0.00000000000E+00 0. -1.
          4    1    3    3  501    0 -0.26024965804E+02  0.12557886389E+03 -0.58833826452E+02  0.14109843740E+03  0.00000000000E+00 0. -1.
<mgrwt>
<rscale>  0 0.64576886E+03</rscale>
<asrwt>0</asrwt>
<pdfrwt beam="1">0</pdfrwt>
<pdfrwt beam="2">  1        2 0.37910754E+00 0.64576886E+03</pdfrwt>
<totfact> 0.47645584E+00</totfact>
</mgrwt>
</event>
<event>
 5    1  0.2344661E-004  0.6545070E+03  0.7818608E-02  0.9798359E-01
         13   -1    0    0    0    0  0.00000000000E+00  0.00000000000E+00  0.10000000000E+04  0.10000000000E+04  0.00000000000E+00 0. -1.
          2   -1    0    0  501    0 -0.00000000000E+00 -0.00000000000E+00 -0.10709484674E+03  0.10709484674E+03  0.00000000000E+00 0. -1.
    9000006    2    1    2  501    0  0.00000000000E+00  0.00000000000E+00  0.89290515326E+03  0.11070948467E+04  0.65450698006E+03 0.  0.
         13    1    3    3    0    0 -0.16477097148E+03 -0.24900780400E+03  0.21989026685E+03  0.37081813461E+03  0.00000000000E+00 0. -1.
          2    1    3    3  501    0  0.16477097148E+03  0.24900780400E+03  0.67301488641E+03  0.73627671213E+03  0.00000000000E+00 0. -1.
<mgrwt>
<rscale>  0 0.65450698E+03</rscale>
<asrwt>0</asrwt>
<pdfrwt beam="1">0</pdfrwt>
<pdfrwt beam="2">  1        2 0.38943663E+00 0.65450698E+03</pdfrwt>
<totfact> 0.43600018E+00</totfact>
</mgrwt>
</event>
<event>
 5    1  0.2344661E-004  0.6341470E+03  0.7818608E-02  0.9836989E-01
         13   -1    0    0    0    0  0.00000000000E+00  0.00000000000E+00  0.10000000000E+04  0.10000000000E+04  0.00000000000E+00 0. -1.
          2   -1    0    0  501    0 -0.00000000000E+00 -0.00000000000E+00 -0.10053561563E+03  0.10053561563E+03  0.00000000000E+00 0. -1.
    9000006    2    1    2  501    0  0.00000000000E+00  0.00000000000E+00  0.89946438437E+03  0.11005356156E+04  0.63414703542E+03 0.  0.
         13    1    3    3    0    0 -0.67947273656E+02  0.30873327656E+03  0.40713217158E+03  0.51545094159E+03  0.00000000000E+00 0. -1.
          4    1    3    3  501    0  0.67947273656E+02 -0.30873327656E+03  0.49233221279E+03  0.58508467404E+03  0.00000000000E+00 0. -1.
<mgrwt>
<rscale>  0 0.63414704E+03</rscale>
<asrwt>0</asrwt>
<pdfrwt beam="1">0</pdfrwt>
<pdfrwt beam="2">  1        2 0.36558483E+00 0.63414704E+03</pdfrwt>
<totfact> 0.53459250E+00</totfact>
</mgrwt>
</event>
<event>
 5    1  0.2344661E-004  0.6392887E+03  0.7818608E-02  0.9827088E-01
         13   -1    0    0    0    0  0.00000000000E+00  0.00000000000E+00  0.10000000000E+04  0.10000000000E+04  0.00000000000E+00 0. -1.
          2   -1    0    0  501    0 -0.00000000000E+00 -0.00000000000E+00 -0.10217249459E+03  0.10217249459E+03  0.00000000000E+00 0. -1.
    9000006    2    1    2  501    0  0.00000000000E+00  0.00000000000E+00  0.89782750541E+03  0.11021724946E+04  0.63928865028E+03 0.  0.
         13    1    3    3    0    0  0.30524677887E+03  0.67955891466E+02  0.56300041118E+03  0.64402101067E+03  0.00000000000E+00 0. -1.
          2    1    3    3  501    0 -0.30524677887E+03 -0.67955891466E+02  0.33482709423E+03  0.45815148393E+03  0.00000000000E+00 0. -1.
<mgrwt>
<rscale>  0 0.63928865E+03</rscale>
<asrwt>0</asrwt>
<pdfrwt beam="1">0</pdfrwt>
<pdfrwt beam="2">  1        2 0.37153713E+00 0.63928865E+03</pdfrwt>
<totfact> 0.50824579E+00</totfact>
</mgrwt>
</event>
<event>
 5    1  0.2344661E-004  0.6447340E+03  0.7818608E-02  0.9816711E-01
         13   -1    0    0    0    0  0.00000000000E+00  0.00000000000E+00  0.10000000000E+04  0.10000000000E+04  0.00000000000E+00 0. -1.
          2   -1    0    0  501    0 -0.00000000000E+00 -0.00000000000E+00 -0.10392048313E+03  0.10392048313E+03  0.00000000000E+00 0. -1.
    9000006    2    1    2  501    0  0.00000000000E+00  0.00000000000E+00  0.89607951687E+03  0.11039204831E+04  0.64473400138E+03 0.  0.
         13    1    3    3    0    0 -0.90933949956E+02  0.20627731097E+03  0.53483200608E+02  0.23168894022E+03  0.00000000000E+00 0. -1.
          2    1    3    3  501    0  0.90933949956E+02 -0.20627731097E+03  0.84259631626E+03  0.87223154291E+03  0.00000000000E+00 0. -1.
<mgrwt>
<rscale>  0 0.64473400E+03</rscale>
<asrwt>0</asrwt>
<pdfrwt beam="1">0</pdfrwt>
<pdfrwt beam="2">  1        2 0.37789346E+00 0.64473400E+03</pdfrwt>
<totfact> 0.48142840E+00</totfact>
</mgrwt>
</event>
<event>
 5    1  0.2344661E-004  0.6479236E+03  0.7818608E-02  0.9810683E-01
         13   -1    0    0    0    0  0.00000000000E+00  0.00000000000E+00  0.10000000000E+04  0.10000000000E+04  0.00000000000E+00 0. -1.
          2   -1    0    0  501    0 -0.00000000000E+00 -0.00000000000E+00 -0.10495126397E+03  0.10495126397E+03  0.00000000000E+00 0. -1.
    9000006    2    1    2  501    0  0.00000000000E+00  0.00000000000E+00  0.89504873603E+03  0.11049512640E+04  0.64792364973E+03 0.  0.
         13    1    3    3    0    0  0.11340124106E+02  0.17697447800E+03  0.90987444686E+03  0.92699518517E+03  0.00000000000E+00 0. -1.
          2    1    3    3  501    0 -0.11340124106E+02 -0.17697447800E+03 -0.14825710832E+02  0.17795607880E+03  0.00000000000E+00 0. -1.
<mgrwt>
<rscale>  0 0.64792365E+03</rscale>
<asrwt>0</asrwt>
<pdfrwt beam="1">0</pdfrwt>
<pdfrwt beam="2">  1        2 0.38164176E+00 0.64792365E+03</pdfrwt>
<totfact> 0.46622662E+00</totfact>
</mgrwt>
</event>
<event>
 5    1  0.2344661E-004  0.6442420E+03  0.7818608E-02  0.9817644E-01
         13   -1    0    0    0    0  0.00000000000E+00  0.00000000000E+00  0.10000000000E+04  0.10000000000E+04  0.00000000000E+00 0. -1.
          2   -1    0    0  501    0 -0.00000000000E+00 -0.00000000000E+00 -0.10376195059E+03  0.10376195059E+03  0.00000000000E+00 0. -1.
    9000006    2    1    2  501    0  0.00000000000E+00  0.00000000000E+00  0.89623804941E+03  0.11037619506E+04  0.64424203710E+03 0.  0.
         13    1    3    3    0    0 -0.29780310093E+03 -0.11725263863E+03  0.51053206008E+03  0.60255941828E+03  0.00000000000E+00 0. -1.
          2    1    3    3  501    0  0.29780310093E+03  0.11725263863E+03  0.38570598933E+03  0.50120253231E+03  0.00000000000E+00 0. -1.
<mgrwt>
<rscale>  0 0.64424204E+03</rscale>
<asrwt>0</asrwt>
<pdfrwt beam="1">0</pdfrwt>
<pdfrwt beam="2">  1        2 0.37731698E+00 0.64424204E+03</pdfrwt>
<totfact> 0.48380606E+00</totfact>
</mgrwt>
</event>
<event>
 5    1  0.2344661E-004  0.6889039E+03  0.7818608E-02  0.9736398E-01
         13   -1    0    0    0    0  0.00000000000E+00  0.00000000000E+00  0.10000000000E+04  0.10000000000E+04  0.00000000000E+00 0. -1.
          2   -1    0    0  501    0 -0.00000000000E+00 -0.00000000000E+00 -0.11864713256E+03  0.11864713256E+03  0.00000000000E+00 0. -1.
    9000006    2    1    2  501    0  0.00000000000E+00  0.00000000000E+00  0.88135286744E+03  0.11186471326E+04  0.68890386140E+03 0.  0.
         13    1    3    3    0    0 -0.22948902623E+03 -0.24287002626E+03  0.57649575623E+03  0.66633206419E+03  0.00000000000E+00 0. -1.
          2    1    3    3  501    0  0.22948902623E+03  0.24287002626E+03  0.30485711121E+03  0.45231506837E+03  0.00000000000E+00 0. -1.
<mgrwt>
<rscale>  0 0.68890386E+03</rscale>
<asrwt>0</asrwt>
<pdfrwt beam="1">0</pdfrwt>
<pdfrwt beam="2">  1        2 0.43144503E+00 0.68890386E+03</pdfrwt>
<totfact> 0.30136081E+00</totfact>
</mgrwt>
</event>
<event>
 5    1  0.2344661E-004  0.5727661E+03  0.7818608E-02  0.9963576E-01
         13   -1    0    0    0    0  0.00000000000E+00  0.00000000000E+00  0.10000000000E+04  0.10000000000E+04  0.00000000000E+00 0. -1.
          2   -1    0    0  501    0 -0.00000000000E+00 -0.00000000000E+00 -0.82015260050E+02  0.82015260050E+02  0.00000000000E+00 0. -1.
    9000006    2    1    2  501    0  0.00000000000E+00  0.00000000000E+00  0.91798473995E+03  0.10820152601E+04  0.57276613046E+03 0.  0.
         13    1    3    3    0    0 -0.18597480822E+03  0.18499208751E+03  0.24189683881E+03  0.35682318081E+03  0.00000000000E+00 0. -1.
          4    1    3    3  501    0  0.18597480822E+03 -0.18499208751E+03  0.67608790113E+03  0.72519207924E+03  0.00000000000E+00 0. -1.
<mgrwt>
<rscale>  0 0.57276613E+03</rscale>
<asrwt>0</asrwt>
<pdfrwt beam="1">0</pdfrwt>
<pdfrwt beam="2">  1        2 0.29823794E+00 0.57276613E+03</pdfrwt>
<totfact> 0.93677549E+00</totfact>
</mgrwt>
</event>
<event>
 5    1  0.2344661E-004  0.6652508E+03  0.7818608E-02  0.9778576E-01
         13   -1    0    0    0    0  0.00000000000E+00  0.00000000000E+00  0.10000000000E+04  0.10000000000E+04  0.00000000000E+00 0. -1.
          2   -1    0    0  501    0 -0.00000000000E+00 -0.00000000000E+00 -0.11063966852E+03  0.11063966852E+03  0.00000000000E+00 0. -1.
    9000006    2    1    2  501    0  0.00000000000E+00  0.00000000000E+00  0.88936033148E+03  0.11106396685E+04  0.66525083546E+03 0.  0.
         13    1    3    3    0    0 -0.59000926891E+02 -0.32409192841E+03  0.52160398076E+03  0.61691766078E+03  0.00000000000E+00 0. -1.
          4    1    3    3  501    0  0.59000926891E+02  0.32409192841E+03  0.36775635071E+03  0.49372200774E+03  0.00000000000E+00 0. -1.
<mgrwt>
<rscale>  0 0.66525084E+03</rscale>
<asrwt>0</asrwt>
<pdfrwt beam="1">0</pdfrwt>
<pdfrwt beam="2">  1        2 0.40232692E+00 0.66525084E+03</pdfrwt>
<totfact> 0.38988024E+00</totfact>
</mgrwt>
</event>
<event>
 5    1  0.2344661E-004  0.6358015E+03  0.7818608E-02  0.9833793E-01
         13   -1    0    0    0    0  0.00000000000E+00  0.00000000000E+00  0.10000000000E+04  0.10000000000E+04  0.00000000000E+00 0. -1.
          2   -1    0    0  501    0 -0.00000000000E+00 -0.00000000000E+00 -0.10106088966E+03  0.10106088966E+03  0.00000000000E+00 0. -1.
    9000006    2    1    2  501    0  0.00000000000E+00  0.00000000000E+00  0.89893911034E+03  0.11010608897E+04  0.63580150884E+03 0.  0.
         13    1    3    3    0    0  0.27313273405E+03 -0.73180179424E+02  0.70104763313E+03  0.75592632775E+03  0.00000000000E+00 0. -1.
          2    1    3    3  501    0 -0.27313273405E+03  0.73180179424E+02  0.19789147721E+03  0.34513456191E+03  0.00000000000E+00 0. -1.
<mgrwt>
<rscale>  0 0.63580151E+03</rscale>
<asrwt>0</asrwt>
<pdfrwt beam="1">0</pdfrwt>
<pdfrwt beam="2">  1        2 0.36749492E+00 0.63580151E+03</pdfrwt>
<totfact> 0.52600436E+00</totfact>
</mgrwt>
</event>
<event>
 5    1  0.2344661E-004  0.6612250E+03  0.7818608E-02  0.9785941E-01
         13   -1    0    0    0    0  0.00000000000E+00  0.00000000000E+00  0.10000000000E+04  0.10000000000E+04  0.00000000000E+00 0. -1.
          2   -1    0    0  501    0 -0.00000000000E+00 -0.00000000000E+00 -0.10930462977E+03  0.10930462977E+03  0.00000000000E+00 0. -1.
    9000006    2    1    2  501    0  0.00000000000E+00  0.00000000000E+00  0.89069537023E+03  0.11093046298E+04  0.66122501395E+03 0.  0.
         13    1    3    3    0    0 -0.69360806716E+02 -0.18284824102E+03  0.89256113098E+03  0.91373397293E+03  0.00000000000E+00 0. -1.
          2    1    3    3  501    0  0.69360806716E+02  0.18284824102E+03 -0.18657607456E+01  0.19557065684E+03  0.00000000000E+00 0. -1.
<mgrwt>
<rscale>  0 0.66122501E+03</rscale>
<asrwt>0</asrwt>
<pdfrwt beam="1">0</pdfrwt>
<pdfrwt beam="2">  1        2 0.39747222E+00 0.66122501E+03</pdfrwt>
<totfact> 0.40670659E+00</totfact>
</mgrwt>
</event>
<event>
 5    1  0.2344661E-004  0.6578970E+03  0.7818608E-02  0.9792073E-01
         13   -1    0    0    0    0  0.00000000000E+00  0.00000000000E+00  0.10000000000E+04  0.10000000000E+04  0.00000000000E+00 0. -1.
          2   -1    0    0  501    0 -0.00000000000E+00 -0.00000000000E+00 -0.10820710440E+03  0.10820710440E+03  0.00000000000E+00 0. -1.
    9000006    2    1    2  501    0  0.00000000000E+00  0.00000000000E+00  0.89179289560E+03  0.11082071044E+04  0.65789696579E+03 0.  0.
         13    1    3    3    0    0 -0.27027401037E+03 -0.76842432307E+02  0.73400618342E+03  0.78595030210E+03  0.00000000000E+00 0. -1.
          2    1    3    3  501    0  0.27027401037E+03  0.76842432307E+02  0.15778671218E+03  0.32225680229E+03  0.00000000000E+00 0. -1.
<mgrwt>
<rscale>  0 0.65789697E+03</rscale>
<asrwt>0</asrwt>
<pdfrwt beam="1">0</pdfrwt>
<pdfrwt beam="2">  1        2 0.39348121E+00 0.65789697E+03</pdfrwt>
<totfact> 0.42102555E+00</totfact>
</mgrwt>
</event>
<event>
 5    1  0.2344661E-004  0.7068837E+03  0.7818608E-02  0.9705532E-01
         13   -1    0    0    0    0  0.00000000000E+00  0.00000000000E+00  0.10000000000E+04  0.10000000000E+04  0.00000000000E+00 0. -1.
          4   -1    0    0  501    0 -0.00000000000E+00 -0.00000000000E+00 -0.12492115103E+03  0.12492115103E+03  0.00000000000E+00 0. -1.
    9000006    2    1    2  501    0  0.00000000000E+00  0.00000000000E+00  0.87507884897E+03  0.11249211510E+04  0.70688372743E+03 0.  0.
         13    1    3    3    0    0 -0.34105868002E+03  0.87755490916E+02  0.38982183577E+03  0.52534094933E+03  0.00000000000E+00 0. -1.
          4    1    3    3  501    0  0.34105868002E+03 -0.87755490916E+02  0.48525701321E+03  0.59958020170E+03  0.00000000000E+00 0. -1.
<mgrwt>
<rscale>  0 0.70688373E+03</rscale>
<asrwt>0</asrwt>
<pdfrwt beam="1">0</pdfrwt>
<pdfrwt beam="2">  1        4 0.45425969E+00 0.70688373E+03</pdfrwt>
<totfact> 0.13002280E-02</totfact>
</mgrwt>
</event>
<event>
 5    1  0.2344661E-004  0.6456385E+03  0.7818608E-02  0.9814998E-01
         13   -1    0    0    0    0  0.00000000000E+00  0.00000000000E+00  0.10000000000E+04  0.10000000000E+04  0.00000000000E+00 0. -1.
          2   -1    0    0  501    0 -0.00000000000E+00 -0.00000000000E+00 -0.10421227884E+03  0.10421227884E+03  0.00000000000E+00 0. -1.
    9000006    2    1    2  501    0  0.00000000000E+00  0.00000000000E+00  0.89578772116E+03  0.11042122788E+04  0.64563853306E+03 0.  0.
         13    1    3    3    0    0 -0.73476049963E+02  0.22709671813E+03  0.76169546843E+02  0.25054630145E+03  0.00000000000E+00 0. -1.
          4    1    3    3  501    0  0.73476049963E+02 -0.22709671813E+03  0.81961817431E+03  0.85366597740E+03  0.00000000000E+00 0. -1.
<mgrwt>
<rscale>  0 0.64563853E+03</rscale>
<asrwt>0</asrwt>
<pdfrwt beam="1">0</pdfrwt>
<pdfrwt beam="2">  1        2 0.37895454E+00 0.64563853E+03</pdfrwt>
<totfact> 0.47707990E+00</totfact>
</mgrwt>
</event>
<event>
 5    1  0.2344661E-004  0.6277145E+03  0.7818608E-02  0.9849519E-01
         13   -1    0    0    0    0  0.00000000000E+00  0.00000000000E+00  0.10000000000E+04  0.10000000000E+04  0.00000000000E+00 0. -1.
          2   -1    0    0  501    0 -0.00000000000E+00 -0.00000000000E+00 -0.98506360204E+02  0.98506360204E+02  0.00000000000E+00 0. -1.
    9000006    2    1    2  501    0  0.00000000000E+00  0.00000000000E+00  0.90149363980E+03  0.10985063602E+04  0.62771445803E+03 0.  0.
         13    1    3    3    0    0 -0.18373775134E+03  0.23450015417E+03  0.62360381072E+03  0.69110896125E+03  0.00000000000E+00 0. -1.
          2    1    3    3  501    0  0.18373775134E+03 -0.23450015417E+03  0.27788982908E+03  0.40739739896E+03  0.00000000000E+00 0. -1.
<mgrwt>
<rscale>  0 0.62771446E+03</rscale>
<asrwt>0</asrwt>
<pdfrwt beam="1">0</pdfrwt>
<pdfrwt beam="2">  1        2 0.35820570E+00 0.62771446E+03</pdfrwt>
<totfact> 0.56899802E+00</totfact>
</mgrwt>
</event>
<event>
 5    1  0.2344661E-004  0.6539573E+03  0.7818608E-02  0.9799382E-01
         13   -1    0    0    0    0  0.00000000000E+00  0.00000000000E+00  0.10000000000E+04  0.10000000000E+04  0.00000000000E+00 0. -1.
          2   -1    0    0  501    0 -0.00000000000E+00 -0.00000000000E+00 -0.10691504277E+03  0.10691504277E+03  0.00000000000E+00 0. -1.
    9000006    2    1    2  501    0  0.00000000000E+00  0.00000000000E+00  0.89308495723E+03  0.11069150428E+04  0.65395731594E+03 0.  0.
         13    1    3    3    0    0 -0.27293868121E+03  0.13873618716E+03  0.25228073763E+03  0.39672260322E+03  0.00000000000E+00 0. -1.
          4    1    3    3  501    0  0.27293868121E+03 -0.13873618716E+03  0.64080421961E+03  0.71019243955E+03  0.00000000000E+00 0. -1.
<mgrwt>
<rscale>  0 0.65395732E+03</rscale>
<asrwt>0</asrwt>
<pdfrwt beam="1">0</pdfrwt>
<pdfrwt beam="2">  1        2 0.38878279E+00 0.65395732E+03</pdfrwt>
<totfact> 0.43846561E+00</totfact>
</mgrwt>
</event>
<event>
 5    1  0.2344661E-004  0.6536720E+03  0.7818608E-02  0.9799913E-01
         13   -1    0    0    0    0  0.00000000000E+00  0.00000000000E+00  0.10000000000E+04  0.10000000000E+04  0.00000000000E+00 0. -1.
          2   -1    0    0  501    0 -0.00000000000E+00 -0.00000000000E+00 -0.10682175714E+03  0.10682175714E+03  0.00000000000E+00 0. -1.
    9000006    2    1    2  501    0  0.00000000000E+00  0.00000000000E+00  0.89317824286E+03  0.11068217571E+04  0.65367195792E+03 0.  0.
         13    1    3    3    0    0  0.18267703464E+03  0.13189869525E+03  0.45704350236E+02  0.22990661674E+03  0.00000000000E+00 0. -1.
          2    1    3    3  501    0 -0.18267703464E+03 -0.13189869525E+03  0.84747389262E+03  0.87691514040E+03  0.00000000000E+00 0. -1.
<mgrwt>
<rscale>  0 0.65367196E+03</rscale>
<asrwt>0</asrwt>
<pdfrwt beam="1">0</pdfrwt>
<pdfrwt beam="2">  1        2 0.38844357E+00 0.65367196E+03</pdfrwt>
<totfact> 0.43974967E+00</totfact>
</mgrwt>
</event>
<event>
 5    1  0.2344661E-004  0.6295872E+03  0.7818608E-02  0.9845855E-01
         13   -1    0    0    0    0  0.00000000000E+00  0.00000000000E+00  0.10000000000E+04  0.10000000000E+04  0.00000000000E+00 0. -1.
          2   -1    0    0  501    0 -0.00000000000E+00 -0.00000000000E+00 -0.99095011993E+02  0.99095011993E+02  0.00000000000E+00 0. -1.
    9000006    2    1    2  501    0  0.00000000000E+00  0.00000000000E+00  0.90090498801E+03  0.10990950120E+04  0.62958720442E+03 0.  0.
         13    1    3    3    0    0  0.28316448896E+03 -0.26812132006E+02  0.68592671277E+03  0.74256075409E+03  0.00000000000E+00 0. -1.
          4    1    3    3  501    0 -0.28316448896E+03  0.26812132006E+02  0.21497827524E+03  0.35653425790E+03  0.00000000000E+00 0. -1.
<mgrwt>
<rscale>  0 0.62958720E+03</rscale>
<asrwt>0</asrwt>
<pdfrwt beam="1">0</pdfrwt>
<pdfrwt beam="2">  1        2 0.36034626E+00 0.62958720E+03</pdfrwt>
<totfact> 0.55881293E+00</totfact>
</mgrwt>
</event>
<event>
 5    1  0.2344661E-004  0.7025312E+03  0.7818608E-02  0.9712913E-01
         13   -1    0    0    0    0  0.00000000000E+00  0.00000000000E+00  0.10000000000E+04  0.10000000000E+04  0.00000000000E+00 0. -1.
          2   -1    0    0  501    0 -0.00000000000E+00 -0.00000000000E+00 -0.12338752615E+03  0.12338752615E+03  0.00000000000E+00 0. -1.
    9000006    2    1    2  501    0  0.00000000000E+00  0.00000000000E+00  0.87661247385E+03  0.11233875262E+04  0.70253121256E+03 0.  0.
         13    1    3    3    0    0 -0.18127206004E+03 -0.21237524624E+03  0.77911449400E+03  0.82763651425E+03  0.00000000000E+00 0. -1.
          2    1    3    3  501    0  0.18127206004E+03  0.21237524624E+03  0.97497979847E+02  0.29575101190E+03  0.00000000000E+00 0. -1.
<mgrwt>
<rscale>  0 0.70253121E+03</rscale>
<asrwt>0</asrwt>
<pdfrwt beam="1">0</pdfrwt>
<pdfrwt beam="2">  1        2 0.44868286E+00 0.70253121E+03</pdfrwt>
<totfact> 0.25779033E+00</totfact>
</mgrwt>
</event>
<event>
 5    1  0.2344661E-004  0.6467722E+03  0.7818608E-02  0.9812855E-01
         13   -1    0    0    0    0  0.00000000000E+00  0.00000000000E+00  0.10000000000E+04  0.10000000000E+04  0.00000000000E+00 0. -1.
          2   -1    0    0  501    0 -0.00000000000E+00 -0.00000000000E+00 -0.10457856544E+03  0.10457856544E+03  0.00000000000E+00 0. -1.
    9000006    2    1    2  501    0  0.00000000000E+00  0.00000000000E+00  0.89542143456E+03  0.11045785654E+04  0.64677218690E+03 0.  0.
         13    1    3    3    0    0 -0.65709633916E+02  0.29904871517E+03  0.62544575298E+03  0.69636935599E+03  0.00000000000E+00 0. -1.
          4    1    3    3  501    0  0.65709633916E+02 -0.29904871517E+03  0.26997568158E+03  0.40820920945E+03  0.00000000000E+00 0. -1.
<mgrwt>
<rscale>  0 0.64677219E+03</rscale>
<asrwt>0</asrwt>
<pdfrwt beam="1">0</pdfrwt>
<pdfrwt beam="2">  1        2 0.38028649E+00 0.64677219E+03</pdfrwt>
<totfact> 0.47167194E+00</totfact>
</mgrwt>
</event>
<event>
 5    1  0.2344661E-004  0.6515230E+03  0.7818608E-02  0.9803926E-01
         13   -1    0    0    0    0  0.00000000000E+00  0.00000000000E+00  0.10000000000E+04  0.10000000000E+04  0.00000000000E+00 0. -1.
          2   -1    0    0  501    0 -0.00000000000E+00 -0.00000000000E+00 -0.10612054217E+03  0.10612054217E+03  0.00000000000E+00 0. -1.
    9000006    2    1    2  501    0  0.00000000000E+00  0.00000000000E+00  0.89387945783E+03  0.11061205422E+04  0.65152296098E+03 0.  0.
         13    1    3    3    0    0  0.10091511681E+02  0.32399685880E+03  0.50181499591E+03  0.59740613760E+03  0.00000000000E+00 0. -1.
          2    1    3    3  501    0 -0.10091511681E+02 -0.32399685880E+03  0.39206446192E+03  0.50871440457E+03  0.00000000000E+00 0. -1.
<mgrwt>
<rscale>  0 0.65152296E+03</rscale>
<asrwt>0</asrwt>
<pdfrwt beam="1">0</pdfrwt>
<pdfrwt beam="2">  1        2 0.38589369E+00 0.65152296E+03</pdfrwt>
<totfact> 0.44951132E+00</totfact>
</mgrwt>
</event>
<event>
 5    1  0.2344661E-004  0.6473313E+03  0.7818608E-02  0.9811800E-01
         13   -1    0    0    0    0  0.00000000000E+00  0.00000000000E+00  0.10000000000E+04  0.10000000000E+04  0.00000000000E+00 0. -1.
          2   -1    0    0  501    0 -0.00000000000E+00 -0.00000000000E+00 -0.10475946758E+03  0.10475946758E+03  0.00000000000E+00 0. -1.
    9000006    2    1    2  501    0  0.00000000000E+00  0.00000000000E+00  0.89524053242E+03  0.11047594676E+04  0.64733134509E+03 0.  0.
         13    1    3    3    0    0  0.95634963208E+01 -0.74944249232E+02  0.98474027512E+03  0.98763429993E+03  0.00000000000E+00 0. -1.
          4    1    3    3  501    0 -0.95634963208E+01  0.74944249232E+02 -0.89499742701E+02  0.11712516766E+03  0.00000000000E+00 0. -1.
<mgrwt>
<rscale>  0 0.64733135E+03</rscale>
<asrwt>0</asrwt>
<pdfrwt beam="1">0</pdfrwt>
<pdfrwt beam="2">  1        2 0.38094432E+00 0.64733135E+03</pdfrwt>
<totfact> 0.46902168E+00</totfact>
</mgrwt>
</event>
<event>
 5    1  0.2344661E-004  0.6425104E+03  0.7818608E-02  0.9820935E-01
         13   -1    0    0    0    0  0.00000000000E+00  0.00000000000E+00  0.10000000000E+04  0.10000000000E+04  0.00000000000E+00 0. -1.
          2   -1    0    0  501    0 -0.00000000000E+00 -0.00000000000E+00 -0.10320488931E+03  0.10320488931E+03  0.00000000000E+00 0. -1.
    9000006    2    1    2  501    0  0.00000000000E+00  0.00000000000E+00  0.89679511069E+03  0.11032048893E+04  0.64251035573E+03 0.  0.
         13    1    3    3    0    0  0.30458780833E+02 -0.17906867481E+03  0.90336504280E+03  0.92144545589E+03  0.00000000000E+00 0. -1.
          2    1    3    3  501    0 -0.30458780833E+02  0.17906867481E+03 -0.65699321071E+01  0.18175943341E+03  0.00000000000E+00 0. -1.
<mgrwt>
<rscale>  0 0.64251036E+03</rscale>
<asrwt>0</asrwt>
<pdfrwt beam="1">0</pdfrwt>
<pdfrwt beam="2">  1        2 0.37529130E+00 0.64251036E+03</pdfrwt>
<totfact> 0.49224610E+00</totfact>
</mgrwt>
</event>
<event>
 5    1  0.2344661E-004  0.4904604E+03  0.7818608E-02  0.1016299E+00
         13   -1    0    0    0    0  0.00000000000E+00  0.00000000000E+00  0.10000000000E+04  0.10000000000E+04  0.00000000000E+00 0. -1.
          2   -1    0    0  501    0 -0.00000000000E+00 -0.00000000000E+00 -0.60137862912E+02  0.60137862912E+02  0.00000000000E+00 0. -1.
    9000006    2    1    2  501    0  0.00000000000E+00  0.00000000000E+00  0.93986213709E+03  0.10601378629E+04  0.49046044861E+03 0.  0.
         13    1    3    3    0    0 -0.20248882274E+03 -0.57245429310E+02  0.19772510920E+03  0.28874553039E+03  0.00000000000E+00 0. -1.
          2    1    3    3  501    0  0.20248882274E+03  0.57245429310E+02  0.74213702789E+03  0.77139233252E+03  0.00000000000E+00 0. -1.
<mgrwt>
<rscale>  0 0.49046045E+03</rscale>
<asrwt>0</asrwt>
<pdfrwt beam="1">0</pdfrwt>
<pdfrwt beam="2">  1        2 0.21868360E+00 0.49046045E+03</pdfrwt>
<totfact> 0.18109560E+01</totfact>
</mgrwt>
</event>
<event>
 5    1  0.2344661E-004  0.5003298E+03  0.7818608E-02  0.1013693E+00
         13   -1    0    0    0    0  0.00000000000E+00  0.00000000000E+00  0.10000000000E+04  0.10000000000E+04  0.00000000000E+00 0. -1.
          2   -1    0    0  501    0 -0.00000000000E+00 -0.00000000000E+00 -0.62582472177E+02  0.62582472177E+02  0.00000000000E+00 0. -1.
    9000006    2    1    2  501    0  0.00000000000E+00  0.00000000000E+00  0.93741752782E+03  0.10625824722E+04  0.50032977995E+03 0.  0.
         13    1    3    3    0    0  0.17391127974E+01  0.13534831505E+03  0.21908542791E+02  0.13712102372E+03  0.00000000000E+00 0. -1.
          4    1    3    3  501    0 -0.17391127974E+01 -0.13534831505E+03  0.91550898503E+03  0.92546144845E+03  0.00000000000E+00 0. -1.
<mgrwt>
<rscale>  0 0.50032978E+03</rscale>
<asrwt>0</asrwt>
<pdfrwt beam="1">0</pdfrwt>
<pdfrwt beam="2">  1        2 0.22757311E+00 0.50032978E+03</pdfrwt>
<totfact> 0.16802904E+01</totfact>
</mgrwt>
</event>
<event>
 5    1  0.2344661E-004  0.6506911E+03  0.7818608E-02  0.9805483E-01
         13   -1    0    0    0    0  0.00000000000E+00  0.00000000000E+00  0.10000000000E+04  0.10000000000E+04  0.00000000000E+00 0. -1.
          2   -1    0    0  501    0 -0.00000000000E+00 -0.00000000000E+00 -0.10584973955E+03  0.10584973955E+03  0.00000000000E+00 0. -1.
    9000006    2    1    2  501    0  0.00000000000E+00  0.00000000000E+00  0.89415026045E+03  0.11058497395E+04  0.65069113885E+03 0.  0.
         13    1    3    3    0    0 -0.24252168840E+03  0.21421607253E+03  0.38958165106E+03  0.50643771375E+03  0.00000000000E+00 0. -1.
          4    1    3    3  501    0  0.24252168840E+03 -0.21421607253E+03  0.50456860940E+03  0.59941202579E+03  0.00000000000E+00 0. -1.
<mgrwt>
<rscale>  0 0.65069114E+03</rscale>
<asrwt>0</asrwt>
<pdfrwt beam="1">0</pdfrwt>
<pdfrwt beam="2">  1        2 0.38490896E+00 0.65069114E+03</pdfrwt>
<totfact> 0.45333341E+00</totfact>
</mgrwt>
</event>
<event>
 5    1  0.2344661E-004  0.6532768E+03  0.7818608E-02  0.9800650E-01
         13   -1    0    0    0    0  0.00000000000E+00  0.00000000000E+00  0.10000000000E+04  0.10000000000E+04  0.00000000000E+00 0. -1.
          2   -1    0    0  501    0 -0.00000000000E+00 -0.00000000000E+00 -0.10669263608E+03  0.10669263608E+03  0.00000000000E+00 0. -1.
    9000006    2    1    2  501    0  0.00000000000E+00  0.00000000000E+00  0.89330736392E+03  0.11066926361E+04  0.65327677468E+03 0.  0.
         13    1    3    3    0    0  0.57013714475E+02  0.25581608900E+03  0.11641894898E+03  0.28678529724E+03  0.00000000000E+00 0. -1.
          4    1    3    3  501    0 -0.57013714475E+02 -0.25581608900E+03  0.77688841493E+03  0.81990733884E+03  0.00000000000E+00 0. -1.
<mgrwt>
<rscale>  0 0.65327677E+03</rscale>
<asrwt>0</asrwt>
<pdfrwt beam="1">0</pdfrwt>
<pdfrwt beam="2">  1        2 0.38797404E+00 0.65327677E+03</pdfrwt>
<totfact> 0.44153263E+00</totfact>
</mgrwt>
</event>
<event>
 5    1  0.2344661E-004  0.6276822E+03  0.7818608E-02  0.9849582E-01
         13   -1    0    0    0    0  0.00000000000E+00  0.00000000000E+00  0.10000000000E+04  0.10000000000E+04  0.00000000000E+00 0. -1.
          2   -1    0    0  501    0 -0.00000000000E+00 -0.00000000000E+00 -0.98496222594E+02  0.98496222594E+02  0.00000000000E+00 0. -1.
    9000006    2    1    2  501    0  0.00000000000E+00  0.00000000000E+00  0.90150377741E+03  0.10984962226E+04  0.62768215713E+03 0.  0.
         13    1    3    3    0    0  0.16002631055E+03 -0.17801354057E+03  0.95528112658E+02  0.25772632966E+03  0.00000000000E+00 0. -1.
          4    1    3    3  501    0 -0.16002631055E+03  0.17801354057E+03  0.80597566475E+03  0.84076989293E+03  0.00000000000E+00 0. -1.
<mgrwt>
<rscale>  0 0.62768216E+03</rscale>
<asrwt>0</asrwt>
<pdfrwt beam="1">0</pdfrwt>
<pdfrwt beam="2">  1        2 0.35816884E+00 0.62768216E+03</pdfrwt>
<totfact> 0.56917492E+00</totfact>
</mgrwt>
</event>
<event>
 5    1  0.2344661E-004  0.6502501E+03  0.7818608E-02  0.9806310E-01
         13   -1    0    0    0    0  0.00000000000E+00  0.00000000000E+00  0.10000000000E+04  0.10000000000E+04  0.00000000000E+00 0. -1.
          2   -1    0    0  501    0 -0.00000000000E+00 -0.00000000000E+00 -0.10570629523E+03  0.10570629523E+03  0.00000000000E+00 0. -1.
    9000006    2    1    2  501    0  0.00000000000E+00  0.00000000000E+00  0.89429370477E+03  0.11057062952E+04  0.65025009106E+03 0.  0.
         13    1    3    3    0    0 -0.12586863390E+03 -0.29695041271E+03  0.37737036898E+03  0.49641802545E+03  0.00000000000E+00 0. -1.
          4    1    3    3  501    0  0.12586863390E+03  0.29695041271E+03  0.51692333580E+03  0.60928826978E+03  0.00000000000E+00 0. -1.
<mgrwt>
<rscale>  0 0.65025009E+03</rscale>
<asrwt>0</asrwt>
<pdfrwt beam="1">0</pdfrwt>
<pdfrwt beam="2">  1        2 0.38438734E+00 0.65025009E+03</pdfrwt>
<totfact> 0.45536989E+00</totfact>
</mgrwt>
</event>
<event>
 5    1  0.2344661E-004  0.6492981E+03  0.7818608E-02  0.9808097E-01
         13   -1    0    0    0    0  0.00000000000E+00  0.00000000000E+00  0.10000000000E+04  0.10000000000E+04  0.00000000000E+00 0. -1.
          2   -1    0    0  501    0 -0.00000000000E+00 -0.00000000000E+00 -0.10539699347E+03  0.10539699347E+03  0.00000000000E+00 0. -1.
    9000006    2    1    2  501    0  0.00000000000E+00  0.00000000000E+00  0.89460300653E+03  0.11053969935E+04  0.64929806244E+03 0.  0.
         13    1    3    3    0    0  0.14613740276E+03  0.26716763001E+02 -0.44134784062E+02  0.15497678883E+03  0.00000000000E+00 0. -1.
          4    1    3    3  501    0 -0.14613740276E+03 -0.26716763001E+02  0.93873779059E+03  0.95042020464E+03  0.00000000000E+00 0. -1.
<mgrwt>
<rscale>  0 0.64929806E+03</rscale>
<asrwt>0</asrwt>
<pdfrwt beam="1">0</pdfrwt>
<pdfrwt beam="2">  1        2 0.38326260E+00 0.64929806E+03</pdfrwt>
<totfact> 0.45978933E+00</totfact>
</mgrwt>
</event>
<event>
 5    1  0.2344661E-004  0.6544017E+03  0.7818608E-02  0.9798555E-01
         13   -1    0    0    0    0  0.00000000000E+00  0.00000000000E+00  0.10000000000E+04  0.10000000000E+04  0.00000000000E+00 0. -1.
          2   -1    0    0  501    0 -0.00000000000E+00 -0.00000000000E+00 -0.10706039046E+03  0.10706039046E+03  0.00000000000E+00 0. -1.
    9000006    2    1    2  501    0  0.00000000000E+00  0.00000000000E+00  0.89293960954E+03  0.11070603905E+04  0.65440168234E+03 0.  0.
         13    1    3    3    0    0  0.32358723818E+03 -0.31216770763E+02  0.38368914418E+03  0.50289218214E+03  0.00000000000E+00 0. -1.
          2    1    3    3  501    0 -0.32358723818E+03  0.31216770763E+02  0.50925046535E+03  0.60416820833E+03  0.00000000000E+00 0. -1.
<mgrwt>
<rscale>  0 0.65440168E+03</rscale>
<asrwt>0</asrwt>
<pdfrwt beam="1">0</pdfrwt>
<pdfrwt beam="2">  1        2 0.38931133E+00 0.65440168E+03</pdfrwt>
<totfact> 0.43647166E+00</totfact>
</mgrwt>
</event>
<event>
 5    1  0.2344661E-004  0.6864088E+03  0.7818608E-02  0.9740761E-01
         13   -1    0    0    0    0  0.00000000000E+00  0.00000000000E+00  0.10000000000E+04  0.10000000000E+04  0.00000000000E+00 0. -1.
          2   -1    0    0  501    0 -0.00000000000E+00 -0.00000000000E+00 -0.11778924712E+03  0.11778924712E+03  0.00000000000E+00 0. -1.
    9000006    2    1    2  501    0  0.00000000000E+00  0.00000000000E+00  0.88221075288E+03  0.11177892471E+04  0.68640876196E+03 0.  0.
         13    1    3    3    0    0 -0.12500640291E+03 -0.16504529637E+03  0.88684763427E+03  0.91069494181E+03  0.00000000000E+00 0. -1.
          2    1    3    3  501    0  0.12500640291E+03  0.16504529637E+03 -0.46368813958E+01  0.20709430531E+03  0.00000000000E+00 0. -1.
<mgrwt>
<rscale>  0 0.68640876E+03</rscale>
<asrwt>0</asrwt>
<pdfrwt beam="1">0</pdfrwt>
<pdfrwt beam="2">  1        2 0.42832544E+00 0.68640876E+03</pdfrwt>
<totfact> 0.30990300E+00</totfact>
</mgrwt>
</event>
<event>
 5    1  0.2344661E-004  0.6565772E+03  0.7818608E-02  0.9794515E-01
         13   -1    0    0    0    0  0.00000000000E+00  0.00000000000E+00  0.10000000000E+04  0.10000000000E+04  0.00000000000E+00 0. -1.
          2   -1    0    0  501    0 -0.00000000000E+00 -0.00000000000E+00 -0.10777340822E+03  0.10777340822E+03  0.00000000000E+00 0. -1.
    9000006    2    1    2  501    0  0.00000000000E+00  0.00000000000E+00  0.89222659178E+03  0.11077734082E+04  0.65657721014E+03 0.  0.
         13    1    3    3    0    0 -0.21840536251E+03  0.13305679338E+03  0.79339838798E+03  0.83359823337E+03  0.00000000000E+00 0. -1.
          4    1    3    3  501    0  0.21840536251E+03 -0.13305679338E+03  0.98828203804E+02  0.27417517485E+03  0.00000000000E+00 0. -1.
<mgrwt>
<rscale>  0 0.65657721E+03</rscale>
<asrwt>0</asrwt>
<pdfrwt beam="1">0</pdfrwt>
<pdfrwt beam="2">  1        2 0.39190413E+00 0.65657721E+03</pdfrwt>
<totfact> 0.42680837E+00</totfact>
</mgrwt>
</event>
<event>
 5    1  0.2344661E-004  0.6551647E+03  0.7818608E-02  0.9797136E-01
         13   -1    0    0    0    0  0.00000000000E+00  0.00000000000E+00  0.10000000000E+04  0.10000000000E+04  0.00000000000E+00 0. -1.
          2   -1    0    0  501    0 -0.00000000000E+00 -0.00000000000E+00 -0.10731018908E+03  0.10731018908E+03  0.00000000000E+00 0. -1.
    9000006    2    1    2  501    0  0.00000000000E+00  0.00000000000E+00  0.89268981092E+03  0.11073101891E+04  0.65516467878E+03 0.  0.
         13    1    3    3    0    0  0.62240942965E+02 -0.32156253842E+03  0.43652064260E+03  0.54573498377E+03  0.00000000000E+00 0. -1.
          2    1    3    3  501    0 -0.62240942965E+02  0.32156253842E+03  0.45616916832E+03  0.56157520531E+03  0.00000000000E+00 0. -1.
<mgrwt>
<rscale>  0 0.65516468E+03</rscale>
<asrwt>0</asrwt>
<pdfrwt beam="1">0</pdfrwt>
<pdfrwt beam="2">  1        2 0.39021969E+00 0.65516468E+03</pdfrwt>
<totfact> 0.43306396E+00</totfact>
</mgrwt>
</event>
<event>
 5    1  0.2344661E-004  0.6225370E+03  0.7818608E-02  0.9859722E-01
         13   -1    0    0    0    0  0.00000000000E+00  0.00000000000E+00  0.10000000000E+04  0.10000000000E+04  0.00000000000E+00 0. -1.
          2   -1    0    0  501    0 -0.00000000000E+00 -0.00000000000E+00 -0.96888066628E+02  0.96888066628E+02  0.00000000000E+00 0. -1.
    9000006    2    1    2  501    0  0.00000000000E+00  0.00000000000E+00  0.90311193337E+03  0.10968880666E+04  0.62253695996E+03 0.  0.
         13    1    3    3    0    0 -0.23046289452E+03 -0.70890115500E+02  0.79839685683E+03  0.83401204741E+03  0.00000000000E+00 0. -1.
          4    1    3    3  501    0  0.23046289452E+03  0.70890115500E+02  0.10471507655E+03  0.26287601922E+03  0.00000000000E+00 0. -1.
<mgrwt>
<rscale>  0 0.62253696E+03</rscale>
<asrwt>0</asrwt>
<pdfrwt beam="1">0</pdfrwt>
<pdfrwt beam="2">  1        2 0.35232099E+00 0.62253696E+03</pdfrwt>
<totfact> 0.59789346E+00</totfact>
</mgrwt>
</event>
<event>
 5    1  0.2344661E-004  0.6485516E+03  0.7818608E-02  0.9809501E-01
         13   -1    0    0    0    0  0.00000000000E+00  0.00000000000E+00  0.10000000000E+04  0.10000000000E+04  0.00000000000E+00 0. -1.
          2   -1    0    0  501    0 -0.00000000000E+00 -0.00000000000E+00 -0.10515478841E+03  0.10515478841E+03  0.00000000000E+00 0. -1.
    9000006    2    1    2  501    0  0.00000000000E+00  0.00000000000E+00  0.89484521159E+03  0.11051547884E+04  0.64855158131E+03 0.  0.
         13    1    3    3    0    0  0.31803113328E+03  0.52459531708E+02  0.50788547160E+03  0.60153425211E+03  0.00000000000E+00 0. -1.
          2    1    3    3  501    0 -0.31803113328E+03 -0.52459531708E+02  0.38695974000E+03  0.50362053630E+03  0.00000000000E+00 0. -1.
<mgrwt>
<rscale>  0 0.64855158E+03</rscale>
<asrwt>0</asrwt>
<pdfrwt beam="1">0</pdfrwt>
<pdfrwt beam="2">  1        2 0.38238186E+00 0.64855158E+03</pdfrwt>
<totfact> 0.46327720E+00</totfact>
</mgrwt>
</event>
<event>
 5    1  0.2344661E-004  0.6515936E+03  0.7818608E-02  0.9803793E-01
         13   -1    0    0    0    0  0.00000000000E+00  0.00000000000E+00  0.10000000000E+04  0.10000000000E+04  0.00000000000E+00 0. -1.
          2   -1    0    0  501    0 -0.00000000000E+00 -0.00000000000E+00 -0.10614357019E+03  0.10614357019E+03  0.00000000000E+00 0. -1.
    9000006    2    1    2  501    0  0.00000000000E+00  0.00000000000E+00  0.89385642981E+03  0.11061435702E+04  0.65159364698E+03 0.  0.
         13    1    3    3    0    0  0.10813970031E+03 -0.28421733351E+03  0.64540835259E+03  0.71346032059E+03  0.00000000000E+00 0. -1.
          2    1    3    3  501    0 -0.10813970031E+03  0.28421733351E+03  0.24844807721E+03  0.39268324961E+03  0.00000000000E+00 0. -1.
<mgrwt>
<rscale>  0 0.65159365E+03</rscale>
<asrwt>0</asrwt>
<pdfrwt beam="1">0</pdfrwt>
<pdfrwt beam="2">  1        2 0.38597743E+00 0.65159365E+03</pdfrwt>
<totfact> 0.44918765E+00</totfact>
</mgrwt>
</event>
<event>
 5    1  0.2344661E-004  0.6383675E+03  0.7818608E-02  0.9828855E-01
         13   -1    0    0    0    0  0.00000000000E+00  0.00000000000E+00  0.10000000000E+04  0.10000000000E+04  0.00000000000E+00 0. -1.
          2   -1    0    0  501    0 -0.00000000000E+00 -0.00000000000E+00 -0.10187828143E+03  0.10187828143E+03  0.00000000000E+00 0. -1.
    9000006    2    1    2  501    0  0.00000000000E+00  0.00000000000E+00  0.89812171857E+03  0.11018782814E+04  0.63836754751E+03 0.  0.
         13    1    3    3    0    0  0.20494163186E+03  0.14568757277E+03  0.10970862082E+03  0.27433906541E+03  0.00000000000E+00 0. -1.
          2    1    3    3  501    0 -0.20494163186E+03 -0.14568757277E+03  0.78841309775E+03  0.82753921601E+03  0.00000000000E+00 0. -1.
<mgrwt>
<rscale>  0 0.63836755E+03</rscale>
<asrwt>0</asrwt>
<pdfrwt beam="1">0</pdfrwt>
<pdfrwt beam="2">  1        2 0.37046726E+00 0.63836755E+03</pdfrwt>
<totfact> 0.51289174E+00</totfact>
</mgrwt>
</event>
<event>
 5    1  0.2344661E-004  0.6423060E+03  0.7818608E-02  0.9821324E-01
         13   -1    0    0    0    0  0.00000000000E+00  0.00000000000E+00  0.10000000000E+04  0.10000000000E+04  0.00000000000E+00 0. -1.
          2   -1    0    0  501    0 -0.00000000000E+00 -0.00000000000E+00 -0.10313925772E+03  0.10313925772E+03  0.00000000000E+00 0. -1.
    9000006    2    1    2  501    0  0.00000000000E+00  0.00000000000E+00  0.89686074228E+03  0.11031392577E+04  0.64230602587E+03 0.  0.
         13    1    3    3    0    0  0.27048586222E+03  0.15443229557E+03  0.58286888431E+03  0.66086917909E+03  0.00000000000E+00 0. -1.
          2    1    3    3  501    0 -0.27048586222E+03 -0.15443229557E+03  0.31399185797E+03  0.44227007863E+03  0.00000000000E+00 0. -1.
<mgrwt>
<rscale>  0 0.64230603E+03</rscale>
<asrwt>0</asrwt>
<pdfrwt beam="1">0</pdfrwt>
<pdfrwt beam="2">  1        2 0.37505264E+00 0.64230603E+03</pdfrwt>
<totfact> 0.49324936E+00</totfact>
</mgrwt>
</event>
<event>
 5    1  0.2344661E-004  0.6489578E+03  0.7818608E-02  0.9808737E-01
         13   -1    0    0    0    0  0.00000000000E+00  0.00000000000E+00  0.10000000000E+04  0.10000000000E+04  0.00000000000E+00 0. -1.
          2   -1    0    0  501    0 -0.00000000000E+00 -0.00000000000E+00 -0.10528654984E+03  0.10528654984E+03  0.00000000000E+00 0. -1.
    9000006    2    1    2  501    0  0.00000000000E+00  0.00000000000E+00  0.89471345016E+03  0.11052865498E+04  0.64895777932E+03 0.  0.
         13    1    3    3    0    0 -0.26084672042E+03 -0.13201226608E+03  0.68712495668E+03  0.74673218495E+03  0.00000000000E+00 0. -1.
          2    1    3    3  501    0  0.26084672042E+03  0.13201226608E+03  0.20758849349E+03  0.35855436489E+03  0.00000000000E+00 0. -1.
<mgrwt>
<rscale>  0 0.64895778E+03</rscale>
<asrwt>0</asrwt>
<pdfrwt beam="1">0</pdfrwt>
<pdfrwt beam="2">  1        2 0.38286099E+00 0.64895778E+03</pdfrwt>
<totfact> 0.46137680E+00</totfact>
</mgrwt>
</event>
<event>
 5    1  0.2344661E-004  0.6058906E+03  0.7818608E-02  0.9893260E-01
         13   -1    0    0    0    0  0.00000000000E+00  0.00000000000E+00  0.10000000000E+04  0.10000000000E+04  0.00000000000E+00 0. -1.
          2   -1    0    0  501    0 -0.00000000000E+00 -0.00000000000E+00 -0.91775847845E+02  0.91775847845E+02  0.00000000000E+00 0. -1.
    9000006    2    1    2  501    0  0.00000000000E+00  0.00000000000E+00  0.90822415216E+03  0.10917758478E+04  0.60589057707E+03 0.  0.
         13    1    3    3    0    0  0.74428694734E+01 -0.23262310633E+03  0.10467153098E+03  0.25519607227E+03  0.00000000000E+00 0. -1.
          4    1    3    3  501    0 -0.74428694734E+01  0.23262310633E+03  0.80355262118E+03  0.83657977558E+03  0.00000000000E+00 0. -1.
<mgrwt>
<rscale>  0 0.60589058E+03</rscale>
<asrwt>0</asrwt>
<pdfrwt beam="1">0</pdfrwt>
<pdfrwt beam="2">  1        2 0.33373106E+00 0.60589058E+03</pdfrwt>
<totfact> 0.69842699E+00</totfact>
</mgrwt>
</event>
<event>
 5    1  0.2344661E-004  0.6438082E+03  0.7818608E-02  0.9818468E-01
         13   -1    0    0    0    0  0.00000000000E+00  0.00000000000E+00  0.10000000000E+04  0.10000000000E+04  0.00000000000E+00 0. -1.
          2   -1    0    0  501    0 -0.00000000000E+00 -0.00000000000E+00 -0.10362224404E+03  0.10362224404E+03  0.00000000000E+00 0. -1.
    9000006    2    1    2  501    0  0.00000000000E+00  0.00000000000E+00  0.89637775596E+03  0.11036222440E+04  0.64380818272E+03 0.  0.
         13    1    3    3    0    0  0.78030727912E+02  0.26343662391E+03  0.16065813615E+03  0.31827454505E+03  0.00000000000E+00 0. -1.
          4    1    3    3  501    0 -0.78030727912E+02 -0.26343662391E+03  0.73571961981E+03  0.78534769898E+03  0.00000000000E+00 0. -1.
<mgrwt>
<rscale>  0 0.64380818E+03</rscale>
<asrwt>0</asrwt>
<pdfrwt beam="1">0</pdfrwt>
<pdfrwt beam="2">  1        2 0.37680895E+00 0.64380818E+03</pdfrwt>
<totfact> 0.48591023E+00</totfact>
</mgrwt>
</event>
<event>
 5    1  0.2344661E-004  0.6007150E+03  0.7818608E-02  0.9903924E-01
         13   -1    0    0    0    0  0.00000000000E+00  0.00000000000E+00  0.10000000000E+04  0.10000000000E+04  0.00000000000E+00 0. -1.
          2   -1    0    0  501    0 -0.00000000000E+00 -0.00000000000E+00 -0.90214626417E+02  0.90214626417E+02  0.00000000000E+00 0. -1.
    9000006    2    1    2  501    0  0.00000000000E+00  0.00000000000E+00  0.90978537358E+03  0.10902146264E+04  0.60071499538E+03 0.  0.
         13    1    3    3    0    0 -0.16229739656E+03 -0.12271079243E+02 -0.32425431320E+01  0.16279293106E+03  0.00000000000E+00 0. -1.
          2    1    3    3  501    0  0.16229739656E+03  0.12271079243E+02  0.91302791671E+03  0.92742169536E+03  0.00000000000E+00 0. -1.
<mgrwt>
<rscale>  0 0.60071500E+03</rscale>
<asrwt>0</asrwt>
<pdfrwt beam="1">0</pdfrwt>
<pdfrwt beam="2">  1        2 0.32805388E+00 0.60071500E+03</pdfrwt>
<totfact> 0.73217228E+00</totfact>
</mgrwt>
</event>
<event>
 5    1  0.2344661E-004  0.6465097E+03  0.7818608E-02  0.9813351E-01
         13   -1    0    0    0    0  0.00000000000E+00  0.00000000000E+00  0.10000000000E+04  0.10000000000E+04  0.00000000000E+00 0. -1.
          2   -1    0    0  501    0 -0.00000000000E+00 -0.00000000000E+00 -0.10449369367E+03  0.10449369367E+03  0.00000000000E+00 0. -1.
    9000006    2    1    2  501    0  0.00000000000E+00  0.00000000000E+00  0.89550630633E+03  0.11044936937E+04  0.64650968646E+03 0.  0.
         13    1    3    3    0    0  0.27144811665E+03  0.14044389840E+02  0.14884574939E+03  0.30989737339E+03  0.00000000000E+00 0. -1.
          4    1    3    3  501    0 -0.27144811665E+03 -0.14044389840E+02  0.74666055694E+03  0.79459632028E+03  0.00000000000E+00 0. -1.
<mgrwt>
<rscale>  0 0.64650969E+03</rscale>
<asrwt>0</asrwt>
<pdfrwt beam="1">0</pdfrwt>
<pdfrwt beam="2">  1        2 0.37997787E+00 0.64650969E+03</pdfrwt>
<totfact> 0.47292002E+00</totfact>
</mgrwt>
</event>
<event>
 5    1  0.2344661E-004  0.6564260E+03  0.7818608E-02  0.9794795E-01
         13   -1    0    0    0    0  0.00000000000E+00  0.00000000000E+00  0.10000000000E+04  0.10000000000E+04  0.00000000000E+00 0. -1.
          2   -1    0    0  501    0 -0.00000000000E+00 -0.00000000000E+00 -0.10772376318E+03  0.10772376318E+03  0.00000000000E+00 0. -1.
    9000006    2    1    2  501    0  0.00000000000E+00  0.00000000000E+00  0.89227623682E+03  0.11077237632E+04  0.65642596895E+03 0.  0.
         13    1    3    3    0    0 -0.24118994737E+03 -0.17001608824E+02  0.82068161239E+03  0.85555827057E+03  0.00000000000E+00 0. -1.
          4    1    3    3  501    0  0.24118994737E+03  0.17001608824E+02  0.71594624430E+02  0.25216549261E+03  0.00000000000E+00 0. -1.
<mgrwt>
<rscale>  0 0.65642597E+03</rscale>
<asrwt>0</asrwt>
<pdfrwt beam="1">0</pdfrwt>
<pdfrwt beam="2">  1        2 0.39172360E+00 0.65642597E+03</pdfrwt>
<totfact> 0.42747488E+00</totfact>
</mgrwt>
</event>
<event>
 5    1  0.2344661E-004  0.6132361E+03  0.7818608E-02  0.9878320E-01
         13   -1    0    0    0    0  0.00000000000E+00  0.00000000000E+00  0.10000000000E+04  0.10000000000E+04  0.00000000000E+00 0. -1.
          2   -1    0    0  501    0 -0.00000000000E+00 -0.00000000000E+00 -0.94014617501E+02  0.94014617501E+02  0.00000000000E+00 0. -1.
    9000006    2    1    2  501    0  0.00000000000E+00  0.00000000000E+00  0.90598538250E+03  0.10940146175E+04  0.61323606385E+03 0.  0.
         13    1    3    3    0    0 -0.21901996738E+03  0.16581834955E+03  0.69596534729E+03  0.74822004503E+03  0.00000000000E+00 0. -1.
          2    1    3    3  501    0  0.21901996738E+03 -0.16581834955E+03  0.21002003521E+03  0.34579457247E+03  0.00000000000E+00 0. -1.
<mgrwt>
<rscale>  0 0.61323606E+03</rscale>
<asrwt>0</asrwt>
<pdfrwt beam="1">0</pdfrwt>
<pdfrwt beam="2">  1        2 0.34187206E+00 0.61323606E+03</pdfrwt>
<totfact> 0.65259254E+00</totfact>
</mgrwt>
</event>
<event>
 5    1  0.2344661E-004  0.6575135E+03  0.7818608E-02  0.9792782E-01
         13   -1    0    0    0    0  0.00000000000E+00  0.00000000000E+00  0.10000000000E+04  0.10000000000E+04  0.00000000000E+00 0. -1.
          2   -1    0    0  501    0 -0.00000000000E+00 -0.00000000000E+00 -0.10808098566E+03  0.10808098566E+03  0.00000000000E+00 0. -1.
    9000006    2    1    2  501    0  0.00000000000E+00  0.00000000000E+00  0.89191901434E+03  0.11080809857E+04  0.65751345435E+03 0.  0.
         13    1    3    3    0    0 -0.18064692864E+03 -0.10644733814E+03  0.19230440158E+02  0.21055678202E+03  0.00000000000E+00 0. -1.
          2    1    3    3  501    0  0.18064692864E+03  0.10644733814E+03  0.87268857418E+03  0.89752420364E+03  0.00000000000E+00 0. -1.
<mgrwt>
<rscale>  0 0.65751345E+03</rscale>
<asrwt>0</asrwt>
<pdfrwt beam="1">0</pdfrwt>
<pdfrwt beam="2">  1        2 0.39302259E+00 0.65751345E+03</pdfrwt>
<totfact> 0.42269986E+00</totfact>
</mgrwt>
</event>
<event>
 5    1  0.2344661E-004  0.6442659E+03  0.7818608E-02  0.9817599E-01
         13   -1    0    0    0    0  0.00000000000E+00  0.00000000000E+00  0.10000000000E+04  0.10000000000E+04  0.00000000000E+00 0. -1.
          2   -1    0    0  501    0 -0.00000000000E+00 -0.00000000000E+00 -0.10376965189E+03  0.10376965189E+03  0.00000000000E+00 0. -1.
    9000006    2    1    2  501    0  0.00000000000E+00  0.00000000000E+00  0.89623034811E+03  0.11037696519E+04  0.64426594475E+03 0.  0.
         13    1    3    3    0    0  0.86543653287E+02  0.30800830074E+03  0.51246330537E+03  0.60413372410E+03  0.00000000000E+00 0. -1.
          2    1    3    3  501    0 -0.86543653287E+02 -0.30800830074E+03  0.38376704274E+03  0.49963592779E+03  0.00000000000E+00 0. -1.
<mgrwt>
<rscale>  0 0.64426594E+03</rscale>
<asrwt>0</asrwt>
<pdfrwt beam="1">0</pdfrwt>
<pdfrwt beam="2">  1        2 0.37734498E+00 0.64426594E+03</pdfrwt>
<totfact> 0.48369031E+00</totfact>
</mgrwt>
</event>
<event>
 5    1  0.2344661E-004  0.6481400E+03  0.7818608E-02  0.9810276E-01
         13   -1    0    0    0    0  0.00000000000E+00  0.00000000000E+00  0.10000000000E+04  0.10000000000E+04  0.00000000000E+00 0. -1.
          2   -1    0    0  501    0 -0.00000000000E+00 -0.00000000000E+00 -0.10502135923E+03  0.10502135923E+03  0.00000000000E+00 0. -1.
    9000006    2    1    2  501    0  0.00000000000E+00  0.00000000000E+00  0.89497864077E+03  0.11050213592E+04  0.64813998250E+03 0.  0.
         13    1    3    3    0    0  0.29333277591E+03 -0.13577098621E+03  0.40774326020E+03  0.52031955985E+03  0.00000000000E+00 0. -1.
          4    1    3    3  501    0 -0.29333277591E+03  0.13577098621E+03  0.48723538057E+03  0.58470179938E+03  0.00000000000E+00 0. -1.
<mgrwt>
<rscale>  0 0.64813998E+03</rscale>
<asrwt>0</asrwt>
<pdfrwt beam="1">0</pdfrwt>
<pdfrwt beam="2">  1        2 0.38189666E+00 0.64813998E+03</pdfrwt>
<totfact> 0.46520890E+00</totfact>
</mgrwt>
</event>
<event>
 5    1  0.2344661E-004  0.6567343E+03  0.7818608E-02  0.9794224E-01
         13   -1    0    0    0    0  0.00000000000E+00  0.00000000000E+00  0.10000000000E+04  0.10000000000E+04  0.00000000000E+00 0. -1.
          2   -1    0    0  501    0 -0.00000000000E+00 -0.00000000000E+00 -0.10782499682E+03  0.10782499682E+03  0.00000000000E+00 0. -1.
    9000006    2    1    2  501    0  0.00000000000E+00  0.00000000000E+00  0.89217500318E+03  0.11078249968E+04  0.65673433538E+03 0.  0.
         13    1    3    3    0    0  0.22828622795E+03  0.48542276708E+02  0.83572890783E+03  0.86770603426E+03  0.00000000000E+00 0. -1.
          2    1    3    3  501    0 -0.22828622795E+03 -0.48542276708E+02  0.56446095354E+02  0.24011896256E+03  0.00000000000E+00 0. -1.
<mgrwt>
<rscale>  0 0.65673434E+03</rscale>
<asrwt>0</asrwt>
<pdfrwt beam="1">0</pdfrwt>
<pdfrwt beam="2">  1        2 0.39209172E+00 0.65673434E+03</pdfrwt>
<totfact> 0.42611677E+00</totfact>
</mgrwt>
</event>
<event>
 5    1  0.2344661E-004  0.6625744E+03  0.7818608E-02  0.9783466E-01
         13   -1    0    0    0    0  0.00000000000E+00  0.00000000000E+00  0.10000000000E+04  0.10000000000E+04  0.00000000000E+00 0. -1.
          2   -1    0    0  501    0 -0.00000000000E+00 -0.00000000000E+00 -0.10975120103E+03  0.10975120103E+03  0.00000000000E+00 0. -1.
    9000006    2    1    2  501    0  0.00000000000E+00  0.00000000000E+00  0.89024879897E+03  0.11097512010E+04  0.66257437630E+03 0.  0.
         13    1    3    3    0    0  0.17774706392E+03 -0.26401200179E+03  0.29111620915E+03  0.43132934406E+03  0.00000000000E+00 0. -1.
          2    1    3    3  501    0 -0.17774706392E+03  0.26401200179E+03  0.59913258982E+03  0.67842185697E+03  0.00000000000E+00 0. -1.
<mgrwt>
<rscale>  0 0.66257438E+03</rscale>
<asrwt>0</asrwt>
<pdfrwt beam="1">0</pdfrwt>
<pdfrwt beam="2">  1        2 0.39909612E+00 0.66257438E+03</pdfrwt>
<totfact> 0.40100696E+00</totfact>
</mgrwt>
</event>
<event>
 5    1  0.2344661E-004  0.6428501E+03  0.7818608E-02  0.9820289E-01
         13   -1    0    0    0    0  0.00000000000E+00  0.00000000000E+00  0.10000000000E+04  0.10000000000E+04  0.00000000000E+00 0. -1.
          2   -1    0    0  501    0 -0.00000000000E+00 -0.00000000000E+00 -0.10331405565E+03  0.10331405565E+03  0.00000000000E+00 0. -1.
    9000006    2    1    2  501    0  0.00000000000E+00  0.00000000000E+00  0.89668594435E+03  0.11033140556E+04  0.64285007785E+03 0.  0.
         13    1    3    3    0    0  0.22059158185E+03  0.24230947495E+02  0.84741625898E+03  0.87599206662E+03  0.00000000000E+00 0. -1.
          2    1    3    3  501    0 -0.22059158185E+03 -0.24230947495E+02  0.49269685367E+02  0.22732198902E+03  0.00000000000E+00 0. -1.
<mgrwt>
<rscale>  0 0.64285008E+03</rscale>
<asrwt>0</asrwt>
<pdfrwt beam="1">0</pdfrwt>
<pdfrwt beam="2">  1        2 0.37568827E+00 0.64285008E+03</pdfrwt>
<totfact> 0.49058154E+00</totfact>
</mgrwt>
</event>
<event>
 5    1  0.2344661E-004  0.6559278E+03  0.7818608E-02  0.9795719E-01
         13   -1    0    0    0    0  0.00000000000E+00  0.00000000000E+00  0.10000000000E+04  0.10000000000E+04  0.00000000000E+00 0. -1.
          2   -1    0    0  501    0 -0.00000000000E+00 -0.00000000000E+00 -0.10756032070E+03  0.10756032070E+03  0.00000000000E+00 0. -1.
    9000006    2    1    2  501    0  0.00000000000E+00  0.00000000000E+00  0.89243967930E+03  0.11075603207E+04  0.65592780304E+03 0.  0.
         13    1    3    3    0    0  0.33724899296E+02 -0.89578675601E+02 -0.83450722239E+02  0.12698712926E+03  0.00000000000E+00 0. -1.
          2    1    3    3  501    0 -0.33724899296E+02  0.89578675601E+02  0.97589040154E+03  0.98057319144E+03  0.00000000000E+00 0. -1.
<mgrwt>
<rscale>  0 0.65592780E+03</rscale>
<asrwt>0</asrwt>
<pdfrwt beam="1">0</pdfrwt>
<pdfrwt beam="2">  1        2 0.39112926E+00 0.65592780E+03</pdfrwt>
<totfact> 0.42967583E+00</totfact>
</mgrwt>
</event>
<event>
 5    1  0.2344661E-004  0.6593466E+03  0.7818608E-02  0.9789397E-01
         13   -1    0    0    0    0  0.00000000000E+00  0.00000000000E+00  0.10000000000E+04  0.10000000000E+04  0.00000000000E+00 0. -1.
          2   -1    0    0  501    0 -0.00000000000E+00 -0.00000000000E+00 -0.10868449982E+03  0.10868449982E+03  0.00000000000E+00 0. -1.
    9000006    2    1    2  501    0  0.00000000000E+00  0.00000000000E+00  0.89131550018E+03  0.11086844998E+04  0.65934664575E+03 0.  0.
         13    1    3    3    0    0  0.27155222015E+03  0.18679467391E+03  0.43357424433E+03  0.54462783974E+03  0.00000000000E+00 0. -1.
          4    1    3    3  501    0 -0.27155222015E+03 -0.18679467391E+03  0.45774125585E+03  0.56405666008E+03  0.00000000000E+00 0. -1.
<mgrwt>
<rscale>  0 0.65934665E+03</rscale>
<asrwt>0</asrwt>
<pdfrwt beam="1">0</pdfrwt>
<pdfrwt beam="2">  1        2 0.39521720E+00 0.65934665E+03</pdfrwt>
<totfact> 0.41474222E+00</totfact>
</mgrwt>
</event>
<event>
 5    1  0.2344661E-004  0.6400461E+03  0.7818608E-02  0.9825638E-01
         13   -1    0    0    0    0  0.00000000000E+00  0.00000000000E+00  0.10000000000E+04  0.10000000000E+04  0.00000000000E+00 0. -1.
          2   -1    0    0  501    0 -0.00000000000E+00 -0.00000000000E+00 -0.10241474288E+03  0.10241474288E+03  0.00000000000E+00 0. -1.
    9000006    2    1    2  501    0  0.00000000000E+00  0.00000000000E+00  0.89758525712E+03  0.11024147429E+04  0.64004606986E+03 0.  0.
         13    1    3    3    0    0 -0.63055114017E+02 -0.27175278009E+03  0.17870407983E+03  0.33130147757E+03  0.00000000000E+00 0. -1.
          4    1    3    3  501    0  0.63055114017E+02  0.27175278009E+03  0.71888117728E+03  0.77111326531E+03  0.00000000000E+00 0. -1.
<mgrwt>
<rscale>  0 0.64004607E+03</rscale>
<asrwt>0</asrwt>
<pdfrwt beam="1">0</pdfrwt>
<pdfrwt beam="2">  1        2 0.37241803E+00 0.64004607E+03</pdfrwt>
<totfact> 0.50444938E+00</totfact>
</mgrwt>
</event>
<event>
 5    1  0.2344661E-004  0.6914957E+03  0.7818608E-02  0.9731887E-01
         13   -1    0    0    0    0  0.00000000000E+00  0.00000000000E+00  0.10000000000E+04  0.10000000000E+04  0.00000000000E+00 0. -1.
          2   -1    0    0  501    0 -0.00000000000E+00 -0.00000000000E+00 -0.11954159107E+03  0.11954159107E+03  0.00000000000E+00 0. -1.
    9000006    2    1    2  501    0  0.00000000000E+00  0.00000000000E+00  0.88045840893E+03  0.11195415911E+04  0.69149574423E+03 0.  0.
         13    1    3    3    0    0 -0.93543565338E+02 -0.33167508387E+03  0.39493060420E+03  0.52414591672E+03  0.00000000000E+00 0. -1.
          2    1    3    3  501    0  0.93543565338E+02  0.33167508387E+03  0.48552780473E+03  0.59539567436E+03  0.00000000000E+00 0. -1.
<mgrwt>
<rscale>  0 0.69149574E+03</rscale>
<asrwt>0</asrwt>
<pdfrwt beam="1">0</pdfrwt>
<pdfrwt beam="2">  1        2 0.43469761E+00 0.69149574E+03</pdfrwt>
<totfact> 0.29267666E+00</totfact>
</mgrwt>
</event>
<event>
 5    1  0.2344661E-004  0.5994130E+03  0.7818608E-02  0.9906625E-01
         13   -1    0    0    0    0  0.00000000000E+00  0.00000000000E+00  0.10000000000E+04  0.10000000000E+04  0.00000000000E+00 0. -1.
          2   -1    0    0  501    0 -0.00000000000E+00 -0.00000000000E+00 -0.89823995385E+02  0.89823995385E+02  0.00000000000E+00 0. -1.
    9000006    2    1    2  501    0  0.00000000000E+00  0.00000000000E+00  0.91017600462E+03  0.10898239954E+04  0.59941303084E+03 0.  0.
         13    1    3    3    0    0 -0.21176389618E+03 -0.12031121912E+03  0.13753403817E+03  0.27970403791E+03  0.00000000000E+00 0. -1.
          2    1    3    3  501    0  0.21176389618E+03  0.12031121912E+03  0.77264196645E+03  0.81011995747E+03  0.00000000000E+00 0. -1.
<mgrwt>
<rscale>  0 0.59941303E+03</rscale>
<asrwt>0</asrwt>
<pdfrwt beam="1">0</pdfrwt>
<pdfrwt beam="2">  1        2 0.32663340E+00 0.59941303E+03</pdfrwt>
<totfact> 0.74085443E+00</totfact>
</mgrwt>
</event>
<event>
 5    1  0.2344661E-004  0.6357477E+03  0.7818608E-02  0.9833896E-01
         13   -1    0    0    0    0  0.00000000000E+00  0.00000000000E+00  0.10000000000E+04  0.10000000000E+04  0.00000000000E+00 0. -1.
          2   -1    0    0  501    0 -0.00000000000E+00 -0.00000000000E+00 -0.10104379474E+03  0.10104379474E+03  0.00000000000E+00 0. -1.
    9000006    2    1    2  501    0  0.00000000000E+00  0.00000000000E+00  0.89895620526E+03  0.11010437947E+04  0.63574773217E+03 0.  0.
         13    1    3    3    0    0  0.23045133181E+03 -0.13594027135E+03  0.15223739331E+03  0.30783729084E+03  0.00000000000E+00 0. -1.
          4    1    3    3  501    0 -0.23045133181E+03  0.13594027135E+03  0.74671881195E+03  0.79320650390E+03  0.00000000000E+00 0. -1.
<mgrwt>
<rscale>  0 0.63574773E+03</rscale>
<asrwt>0</asrwt>
<pdfrwt beam="1">0</pdfrwt>
<pdfrwt beam="2">  1        2 0.36743276E+00 0.63574773E+03</pdfrwt>
<totfact> 0.52628185E+00</totfact>
</mgrwt>
</event>
<event>
 5    1  0.2344661E-004  0.4892865E+03  0.7818608E-02  0.1016614E+00
         13   -1    0    0    0    0  0.00000000000E+00  0.00000000000E+00  0.10000000000E+04  0.10000000000E+04  0.00000000000E+00 0. -1.
          2   -1    0    0  501    0 -0.00000000000E+00 -0.00000000000E+00 -0.59850308519E+02  0.59850308519E+02  0.00000000000E+00 0. -1.
    9000006    2    1    2  501    0  0.00000000000E+00  0.00000000000E+00  0.94014969148E+03  0.10598503085E+04  0.48928645401E+03 0.  0.
         13    1    3    3    0    0  0.44405703041E+02  0.10737084445E+03  0.93641836331E+03  0.94359934074E+03  0.00000000000E+00 0. -1.
          2    1    3    3  501    0 -0.44405703041E+02 -0.10737084445E+03  0.37313281758E+01  0.11625096778E+03  0.00000000000E+00 0. -1.
<mgrwt>
<rscale>  0 0.48928645E+03</rscale>
<asrwt>0</asrwt>
<pdfrwt beam="1">0</pdfrwt>
<pdfrwt beam="2">  1        2 0.21763794E+00 0.48928645E+03</pdfrwt>
<totfact> 0.18270553E+01</totfact>
</mgrwt>
</event>
<event>
 5    1  0.2344661E-004  0.6586822E+03  0.7818608E-02  0.9790623E-01
         13   -1    0    0    0    0  0.00000000000E+00  0.00000000000E+00  0.10000000000E+04  0.10000000000E+04  0.00000000000E+00 0. -1.
          2   -1    0    0  501    0 -0.00000000000E+00 -0.00000000000E+00 -0.10846555032E+03  0.10846555032E+03  0.00000000000E+00 0. -1.
    9000006    2    1    2  501    0  0.00000000000E+00  0.00000000000E+00  0.89153444968E+03  0.11084655503E+04  0.65868217014E+03 0.  0.
         13    1    3    3    0    0  0.19321037787E+03  0.16177028690E+03  0.80261816783E+03  0.84124657453E+03  0.00000000000E+00 0. -1.
          2    1    3    3  501    0 -0.19321037787E+03 -0.16177028690E+03  0.88916281858E+02  0.26721897578E+03  0.00000000000E+00 0. -1.
<mgrwt>
<rscale>  0 0.65868217E+03</rscale>
<asrwt>0</asrwt>
<pdfrwt beam="1">0</pdfrwt>
<pdfrwt beam="2">  1        2 0.39442101E+00 0.65868217E+03</pdfrwt>
<totfact> 0.41761334E+00</totfact>
</mgrwt>
</event>
<event>
 5    1  0.2344661E-004  0.5989504E+03  0.7818608E-02  0.9907586E-01
         13   -1    0    0    0    0  0.00000000000E+00  0.00000000000E+00  0.10000000000E+04  0.10000000000E+04  0.00000000000E+00 0. -1.
          2   -1    0    0  501    0 -0.00000000000E+00 -0.00000000000E+00 -0.89685401134E+02  0.89685401134E+02  0.00000000000E+00 0. -1.
    9000006    2    1    2  501    0  0.00000000000E+00  0.00000000000E+00  0.91031459887E+03  0.10896854011E+04  0.59895041910E+03 0.  0.
         13    1    3    3    0    0  0.26018152039E+03  0.14137600216E+03  0.53659731253E+03  0.61287704587E+03  0.00000000000E+00 0. -1.
          2    1    3    3  501    0 -0.26018152039E+03 -0.14137600216E+03  0.37371728633E+03  0.47680835526E+03  0.00000000000E+00 0. -1.
<mgrwt>
<rscale>  0 0.59895042E+03</rscale>
<asrwt>0</asrwt>
<pdfrwt beam="1">0</pdfrwt>
<pdfrwt beam="2">  1        2 0.32612942E+00 0.59895042E+03</pdfrwt>
<totfact> 0.74395829E+00</totfact>
</mgrwt>
</event>
<event>
 5    1  0.2344661E-004  0.6500290E+03  0.7818608E-02  0.9806725E-01
         13   -1    0    0    0    0  0.00000000000E+00  0.00000000000E+00  0.10000000000E+04  0.10000000000E+04  0.00000000000E+00 0. -1.
          2   -1    0    0  501    0 -0.00000000000E+00 -0.00000000000E+00 -0.10563442695E+03  0.10563442695E+03  0.00000000000E+00 0. -1.
    9000006    2    1    2  501    0  0.00000000000E+00  0.00000000000E+00  0.89436557305E+03  0.11056344270E+04  0.65002900536E+03 0.  0.
         13    1    3    3    0    0  0.28010405031E+03 -0.14663903219E+02  0.72646788553E+03  0.77873544786E+03  0.00000000000E+00 0. -1.
          4    1    3    3  501    0 -0.28010405031E+03  0.14663903219E+02  0.16789768752E+03  0.32689897909E+03  0.00000000000E+00 0. -1.
<mgrwt>
<rscale>  0 0.65002901E+03</rscale>
<asrwt>0</asrwt>
<pdfrwt beam="1">0</pdfrwt>
<pdfrwt beam="2">  1        2 0.38412600E+00 0.65002901E+03</pdfrwt>
<totfact> 0.45639333E+00</totfact>
</mgrwt>
</event>
<event>
 5    1  0.2344661E-004  0.6323021E+03  0.7818608E-02  0.9840567E-01
         13   -1    0    0    0    0  0.00000000000E+00  0.00000000000E+00  0.10000000000E+04  0.10000000000E+04  0.00000000000E+00 0. -1.
          2   -1    0    0  501    0 -0.00000000000E+00 -0.00000000000E+00 -0.99951498763E+02  0.99951498763E+02  0.00000000000E+00 0. -1.
    9000006    2    1    2  501    0  0.00000000000E+00  0.00000000000E+00  0.90004850124E+03  0.10999514988E+04  0.63230213905E+03 0.  0.
         13    1    3    3    0    0 -0.77648782483E+02 -0.21321378444E+03  0.67067469482E+02  0.23661677193E+03  0.00000000000E+00 0. -1.
          4    1    3    3  501    0  0.77648782483E+02  0.21321378444E+03  0.83298103175E+03  0.86333472683E+03  0.00000000000E+00 0. -1.
<mgrwt>
<rscale>  0 0.63230214E+03</rscale>
<asrwt>0</asrwt>
<pdfrwt beam="1">0</pdfrwt>
<pdfrwt beam="2">  1        2 0.36346076E+00 0.63230214E+03</pdfrwt>
<totfact> 0.54429403E+00</totfact>
</mgrwt>
</event>
<event>
 5    1  0.2344661E-004  0.6476304E+03  0.7818608E-02  0.9811236E-01
         13   -1    0    0    0    0  0.00000000000E+00  0.00000000000E+00  0.10000000000E+04  0.10000000000E+04  0.00000000000E+00 0. -1.
          2   -1    0    0  501    0 -0.00000000000E+00 -0.00000000000E+00 -0.10485627352E+03  0.10485627352E+03  0.00000000000E+00 0. -1.
    9000006    2    1    2  501    0  0.00000000000E+00  0.00000000000E+00  0.89514372648E+03  0.11048562735E+04  0.64763036839E+03 0.  0.
         13    1    3    3    0    0 -0.30683542676E+03 -0.95849741882E+02  0.38103527682E+03  0.49852084642E+03  0.00000000000E+00 0. -1.
          2    1    3    3  501    0  0.30683542676E+03  0.95849741882E+02  0.51410844967E+03  0.60633542710E+03  0.00000000000E+00 0. -1.
<mgrwt>
<rscale>  0 0.64763037E+03</rscale>
<asrwt>0</asrwt>
<pdfrwt beam="1">0</pdfrwt>
<pdfrwt beam="2">  1        2 0.38129634E+00 0.64763037E+03</pdfrwt>
<totfact> 0.46760902E+00</totfact>
</mgrwt>
</event>
<event>
 5    1  0.2344661E-004  0.6514844E+03  0.7818608E-02  0.9803998E-01
         13   -1    0    0    0    0  0.00000000000E+00  0.00000000000E+00  0.10000000000E+04  0.10000000000E+04  0.00000000000E+00 0. -1.
          2   -1    0    0  501    0 -0.00000000000E+00 -0.00000000000E+00 -0.10610798316E+03  0.10610798316E+03  0.00000000000E+00 0. -1.
    9000006    2    1    2  501    0  0.00000000000E+00  0.00000000000E+00  0.89389201684E+03  0.11061079832E+04  0.65148440705E+03 0.  0.
         13    1    3    3    0    0 -0.10597552972E+02  0.15439660629E+03 -0.39704013041E+02  0.15977180231E+03  0.00000000000E+00 0. -1.
          2    1    3    3  501    0  0.10597552972E+02 -0.15439660629E+03  0.93359602988E+03  0.94633618085E+03  0.00000000000E+00 0. -1.
<mgrwt>
<rscale>  0 0.65148441E+03</rscale>
<asrwt>0</asrwt>
<pdfrwt beam="1">0</pdfrwt>
<pdfrwt beam="2">  1        2 0.38584803E+00 0.65148441E+03</pdfrwt>
<totfact> 0.44968793E+00</totfact>
</mgrwt>
</event>
<event>
 5    1  0.2344661E-004  0.6474374E+03  0.7818608E-02  0.9811600E-01
         13   -1    0    0    0    0  0.00000000000E+00  0.00000000000E+00  0.10000000000E+04  0.10000000000E+04  0.00000000000E+00 0. -1.
          2   -1    0    0  501    0 -0.00000000000E+00 -0.00000000000E+00 -0.10479378317E+03  0.10479378317E+03  0.00000000000E+00 0. -1.
    9000006    2    1    2  501    0  0.00000000000E+00  0.00000000000E+00  0.89520621683E+03  0.11047937832E+04  0.64743735811E+03 0.  0.
         13    1    3    3    0    0  0.30385102125E+03  0.23747222451E+02  0.63378498141E+03  0.70325868381E+03  0.00000000000E+00 0. -1.
          2    1    3    3  501    0 -0.30385102125E+03 -0.23747222451E+02  0.26142123542E+03  0.40153509936E+03  0.00000000000E+00 0. -1.
<mgrwt>
<rscale>  0 0.64743736E+03</rscale>
<asrwt>0</asrwt>
<pdfrwt beam="1">0</pdfrwt>
<pdfrwt beam="2">  1        2 0.38106911E+00 0.64743736E+03</pdfrwt>
<totfact> 0.46852048E+00</totfact>
</mgrwt>
</event>
<event>
 5    1  0.2344661E-004  0.6463746E+03  0.7818608E-02  0.9813606E-01
         13   -1    0    0    0    0  0.00000000000E+00  0.00000000000E+00  0.10000000000E+04  0.10000000000E+04  0.00000000000E+00 0. -1.
          2   -1    0    0  501    0 -0.00000000000E+00 -0.00000000000E+00 -0.10445002856E+03  0.10445002856E+03  0.00000000000E+00 0. -1.
    9000006    2    1    2  501    0  0.00000000000E+00  0.00000000000E+00  0.89554997144E+03  0.11044500286E+04  0.64637459283E+03 0.  0.
         13    1    3    3    0    0 -0.25576976970E+03 -0.18467819615E+02  0.78387273927E+03  0.82475190623E+03  0.00000000000E+00 0. -1.
          2    1    3    3  501    0  0.25576976970E+03  0.18467819615E+02  0.11167723216E+03  0.27969812234E+03  0.00000000000E+00 0. -1.
<mgrwt>
<rscale>  0 0.64637459E+03</rscale>
<asrwt>0</asrwt>
<pdfrwt beam="1">0</pdfrwt>
<pdfrwt beam="2">  1        2 0.37981909E+00 0.64637459E+03</pdfrwt>
<totfact> 0.47356331E+00</totfact>
</mgrwt>
</event>
<event>
 5    1  0.2344661E-004  0.6417270E+03  0.7818608E-02  0.9822428E-01
         13   -1    0    0    0    0  0.00000000000E+00  0.00000000000E+00  0.10000000000E+04  0.10000000000E+04  0.00000000000E+00 0. -1.
          2   -1    0    0  501    0 -0.00000000000E+00 -0.00000000000E+00 -0.10295338013E+03  0.10295338013E+03  0.00000000000E+00 0. -1.
    9000006    2    1    2  501    0  0.00000000000E+00  0.00000000000E+00  0.89704661987E+03  0.11029533801E+04  0.64172698285E+03 0.  0.
         13    1    3    3    0    0  0.12517685085E+01  0.18281019335E+03 -0.46872136915E+01  0.18287455725E+03  0.00000000000E+00 0. -1.
          4    1    3    3  501    0 -0.12517685085E+01 -0.18281019335E+03  0.90173383356E+03  0.92007882288E+03  0.00000000000E+00 0. -1.
<mgrwt>
<rscale>  0 0.64172698E+03</rscale>
<asrwt>0</asrwt>
<pdfrwt beam="1">0</pdfrwt>
<pdfrwt beam="2">  1        2 0.37437672E+00 0.64172698E+03</pdfrwt>
<totfact> 0.49610089E+00</totfact>
</mgrwt>
</event>
<event>
 5    1  0.2344661E-004  0.6441654E+03  0.7818608E-02  0.9817789E-01
         13   -1    0    0    0    0  0.00000000000E+00  0.00000000000E+00  0.10000000000E+04  0.10000000000E+04  0.00000000000E+00 0. -1.
          2   -1    0    0  501    0 -0.00000000000E+00 -0.00000000000E+00 -0.10373727403E+03  0.10373727403E+03  0.00000000000E+00 0. -1.
    9000006    2    1    2  501    0  0.00000000000E+00  0.00000000000E+00  0.89626272597E+03  0.11037372740E+04  0.64416542604E+03 0.  0.
         13    1    3    3    0    0  0.46738138751E+02  0.26283042404E+03  0.75689733189E+03  0.80259445328E+03  0.00000000000E+00 0. -1.
          4    1    3    3  501    0 -0.46738138751E+02 -0.26283042404E+03  0.13936539409E+03  0.30114282074E+03  0.00000000000E+00 0. -1.
<mgrwt>
<rscale>  0 0.64416543E+03</rscale>
<asrwt>0</asrwt>
<pdfrwt beam="1">0</pdfrwt>
<pdfrwt beam="2">  1        2 0.37722725E+00 0.64416543E+03</pdfrwt>
<totfact> 0.48417712E+00</totfact>
</mgrwt>
</event>
<event>
 5    1  0.2344661E-004  0.6466454E+03  0.7818608E-02  0.9813094E-01
         13   -1    0    0    0    0  0.00000000000E+00  0.00000000000E+00  0.10000000000E+04  0.10000000000E+04  0.00000000000E+00 0. -1.
          2   -1    0    0  501    0 -0.00000000000E+00 -0.00000000000E+00 -0.10453755255E+03  0.10453755255E+03  0.00000000000E+00 0. -1.
    9000006    2    1    2  501    0  0.00000000000E+00  0.00000000000E+00  0.89546244745E+03  0.11045375525E+04  0.64664535117E+03 0.  0.
         13    1    3    3    0    0 -0.12928148049E+03 -0.22464620299E+03  0.11758543933E+03  0.28461544803E+03  0.00000000000E+00 0. -1.
          2    1    3    3  501    0  0.12928148049E+03  0.22464620299E+03  0.77787700812E+03  0.81992210452E+03  0.00000000000E+00 0. -1.
<mgrwt>
<rscale>  0 0.64664535E+03</rscale>
<asrwt>0</asrwt>
<pdfrwt beam="1">0</pdfrwt>
<pdfrwt beam="2">  1        2 0.38013736E+00 0.64664535E+03</pdfrwt>
<totfact> 0.47227468E+00</totfact>
</mgrwt>
</event>
<event>
 5    1  0.2344661E-004  0.6809492E+03  0.7818608E-02  0.9750378E-01
         13   -1    0    0    0    0  0.00000000000E+00  0.00000000000E+00  0.10000000000E+04  0.10000000000E+04  0.00000000000E+00 0. -1.
          2   -1    0    0  501    0 -0.00000000000E+00 -0.00000000000E+00 -0.11592294459E+03  0.11592294459E+03  0.00000000000E+00 0. -1.
    9000006    2    1    2  501    0  0.00000000000E+00  0.00000000000E+00  0.88407705541E+03  0.11159229446E+04  0.68094917458E+03 0.  0.
         13    1    3    3    0    0  0.28543891468E+03  0.14046345767E+03  0.64084834430E+03  0.71546625172E+03  0.00000000000E+00 0. -1.
          2    1    3    3  501    0 -0.28543891468E+03 -0.14046345767E+03  0.24322871111E+03  0.40045669287E+03  0.00000000000E+00 0. -1.
<mgrwt>
<rscale>  0 0.68094917E+03</rscale>
<asrwt>0</asrwt>
<pdfrwt beam="1">0</pdfrwt>
<pdfrwt beam="2">  1        2 0.42153887E+00 0.68094917E+03</pdfrwt>
<totfact> 0.32922954E+00</totfact>
</mgrwt>
</event>
<event>
 5    1  0.2344661E-004  0.6461619E+03  0.7818608E-02  0.9814008E-01
         13   -1    0    0    0    0  0.00000000000E+00  0.00000000000E+00  0.10000000000E+04  0.10000000000E+04  0.00000000000E+00 0. -1.
          2   -1    0    0  501    0 -0.00000000000E+00 -0.00000000000E+00 -0.10438130915E+03  0.10438130915E+03  0.00000000000E+00 0. -1.
    9000006    2    1    2  501    0  0.00000000000E+00  0.00000000000E+00  0.89561869085E+03  0.11043813091E+04  0.64616192753E+03 0.  0.
         13    1    3    3    0    0 -0.23634635932E+03  0.62813766681E+02  0.86957522495E+02  0.25955111552E+03  0.00000000000E+00 0. -1.
          2    1    3    3  501    0  0.23634635932E+03 -0.62813766681E+02  0.80866116836E+03  0.84483019363E+03  0.00000000000E+00 0. -1.
<mgrwt>
<rscale>  0 0.64616193E+03</rscale>
<asrwt>0</asrwt>
<pdfrwt beam="1">0</pdfrwt>
<pdfrwt beam="2">  1        2 0.37956920E+00 0.64616193E+03</pdfrwt>
<totfact> 0.47457732E+00</totfact>
</mgrwt>
</event>
<event>
 5    1  0.2344661E-004  0.6570192E+03  0.7818608E-02  0.9793697E-01
         13   -1    0    0    0    0  0.00000000000E+00  0.00000000000E+00  0.10000000000E+04  0.10000000000E+04  0.00000000000E+00 0. -1.
          2   -1    0    0  501    0 -0.00000000000E+00 -0.00000000000E+00 -0.10791854356E+03  0.10791854356E+03  0.00000000000E+00 0. -1.
    9000006    2    1    2  501    0  0.00000000000E+00  0.00000000000E+00  0.89208145644E+03  0.11079185436E+04  0.65701915819E+03 0.  0.
         13    1    3    3    0    0  0.21300597737E+03 -0.10733704521E+03  0.82695261139E+03  0.86066451603E+03  0.00000000000E+00 0. -1.
          2    1    3    3  501    0 -0.21300597737E+03  0.10733704521E+03  0.65128845049E+02  0.24725402752E+03  0.00000000000E+00 0. -1.
<mgrwt>
<rscale>  0 0.65701916E+03</rscale>
<asrwt>0</asrwt>
<pdfrwt beam="1">0</pdfrwt>
<pdfrwt beam="2">  1        2 0.39243190E+00 0.65701916E+03</pdfrwt>
<totfact> 0.42486524E+00</totfact>
</mgrwt>
</event>
<event>
 5    1  0.2344661E-004  0.6548144E+03  0.7818608E-02  0.9797787E-01
         13   -1    0    0    0    0  0.00000000000E+00  0.00000000000E+00  0.10000000000E+04  0.10000000000E+04  0.00000000000E+00 0. -1.
          2   -1    0    0  501    0 -0.00000000000E+00 -0.00000000000E+00 -0.10719548425E+03  0.10719548425E+03  0.00000000000E+00 0. -1.
    9000006    2    1    2  501    0  0.00000000000E+00  0.00000000000E+00  0.89280451575E+03  0.11071954843E+04  0.65481442944E+03 0.  0.
         13    1    3    3    0    0 -0.12415131529E+03  0.29678164818E+03  0.54928885101E+03  0.63656196684E+03  0.00000000000E+00 0. -1.
          4    1    3    3  501    0  0.12415131529E+03 -0.29678164818E+03  0.34351566474E+03  0.47063351741E+03  0.00000000000E+00 0. -1.
<mgrwt>
<rscale>  0 0.65481443E+03</rscale>
<asrwt>0</asrwt>
<pdfrwt beam="1">0</pdfrwt>
<pdfrwt beam="2">  1        2 0.38980258E+00 0.65481443E+03</pdfrwt>
<totfact> 0.43462575E+00</totfact>
</mgrwt>
</event>
<event>
 5    1  0.2344661E-004  0.6798715E+03  0.7818608E-02  0.9752288E-01
         13   -1    0    0    0    0  0.00000000000E+00  0.00000000000E+00  0.10000000000E+04  0.10000000000E+04  0.00000000000E+00 0. -1.
          2   -1    0    0  501    0 -0.00000000000E+00 -0.00000000000E+00 -0.11555631401E+03  0.11555631401E+03  0.00000000000E+00 0. -1.
    9000006    2    1    2  501    0  0.00000000000E+00  0.00000000000E+00  0.88444368599E+03  0.11155563140E+04  0.67987149966E+03 0.  0.
         13    1    3    3    0    0  0.25174728821E+03 -0.14692973446E+03  0.72920963077E+03  0.78530995765E+03  0.00000000000E+00 0. -1.
          2    1    3    3  501    0 -0.25174728821E+03  0.14692973446E+03  0.15523405522E+03  0.33024635636E+03  0.00000000000E+00 0. -1.
<mgrwt>
<rscale>  0 0.67987150E+03</rscale>
<asrwt>0</asrwt>
<pdfrwt beam="1">0</pdfrwt>
<pdfrwt beam="2">  1        2 0.42020566E+00 0.67987150E+03</pdfrwt>
<totfact> 0.33314917E+00</totfact>
</mgrwt>
</event>
<event>
 5    1  0.2344661E-004  0.6369398E+03  0.7818608E-02  0.9831599E-01
         13   -1    0    0    0    0  0.00000000000E+00  0.00000000000E+00  0.10000000000E+04  0.10000000000E+04  0.00000000000E+00 0. -1.
          2   -1    0    0  501    0 -0.00000000000E+00 -0.00000000000E+00 -0.10142308724E+03  0.10142308724E+03  0.00000000000E+00 0. -1.
    9000006    2    1    2  501    0  0.00000000000E+00  0.00000000000E+00  0.89857691276E+03  0.11014230872E+04  0.63693983152E+03 0.  0.
         13    1    3    3    0    0 -0.30975489366E+01 -0.10656049450E+03  0.96822919800E+03  0.97408034251E+03  0.00000000000E+00 0. -1.
          4    1    3    3  501    0  0.30975489366E+01  0.10656049450E+03 -0.69652285244E+02  0.12734274474E+03  0.00000000000E+00 0. -1.
<mgrwt>
<rscale>  0 0.63693983E+03</rscale>
<asrwt>0</asrwt>
<pdfrwt beam="1">0</pdfrwt>
<pdfrwt beam="2">  1        2 0.36881200E+00 0.63693983E+03</pdfrwt>
<totfact> 0.52015650E+00</totfact>
</mgrwt>
</event>
<event>
 5    1  0.2344661E-004  0.6382367E+03  0.7818608E-02  0.9829106E-01
         13   -1    0    0    0    0  0.00000000000E+00  0.00000000000E+00  0.10000000000E+04  0.10000000000E+04  0.00000000000E+00 0. -1.
          2   -1    0    0  501    0 -0.00000000000E+00 -0.00000000000E+00 -0.10183652115E+03  0.10183652115E+03  0.00000000000E+00 0. -1.
    9000006    2    1    2  501    0  0.00000000000E+00  0.00000000000E+00  0.89816347885E+03  0.11018365211E+04  0.63823669951E+03 0.  0.
         13    1    3    3    0    0 -0.20726142404E+03 -0.22984368327E+03  0.31478894304E+03  0.44144931226E+03  0.00000000000E+00 0. -1.
          4    1    3    3  501    0  0.20726142404E+03  0.22984368327E+03  0.58337453581E+03  0.66038720889E+03  0.00000000000E+00 0. -1.
<mgrwt>
<rscale>  0 0.63823670E+03</rscale>
<asrwt>0</asrwt>
<pdfrwt beam="1">0</pdfrwt>
<pdfrwt beam="2">  1        2 0.37031540E+00 0.63823670E+03</pdfrwt>
<totfact> 0.51355432E+00</totfact>
</mgrwt>
</event>
<event>
 5    1  0.2344661E-004  0.6516616E+03  0.7818608E-02  0.9803666E-01
         13   -1    0    0    0    0  0.00000000000E+00  0.00000000000E+00  0.10000000000E+04  0.10000000000E+04  0.00000000000E+00 0. -1.
          2   -1    0    0  501    0 -0.00000000000E+00 -0.00000000000E+00 -0.10616571683E+03  0.10616571683E+03  0.00000000000E+00 0. -1.
    9000006    2    1    2  501    0  0.00000000000E+00  0.00000000000E+00  0.89383428317E+03  0.11061657168E+04  0.65166162026E+03 0.  0.
         13    1    3    3    0    0  0.15014687557E+02 -0.29679650372E+03  0.22011724920E+03  0.36981780495E+03  0.00000000000E+00 0. -1.
          2    1    3    3  501    0 -0.15014687557E+02  0.29679650372E+03  0.67371703397E+03  0.73634791188E+03  0.00000000000E+00 0. -1.
<mgrwt>
<rscale>  0 0.65166162E+03</rscale>
<asrwt>0</asrwt>
<pdfrwt beam="1">0</pdfrwt>
<pdfrwt beam="2">  1        2 0.38605797E+00 0.65166162E+03</pdfrwt>
<totfact> 0.44887657E+00</totfact>
</mgrwt>
</event>
<event>
 5    1  0.2344661E-004  0.6591509E+03  0.7818608E-02  0.9789758E-01
         13   -1    0    0    0    0  0.00000000000E+00  0.00000000000E+00  0.10000000000E+04  0.10000000000E+04  0.00000000000E+00 0. -1.
          2   -1    0    0  501    0 -0.00000000000E+00 -0.00000000000E+00 -0.10861997996E+03  0.10861997996E+03  0.00000000000E+00 0. -1.
    9000006    2    1    2  501    0  0.00000000000E+00  0.00000000000E+00  0.89138002004E+03  0.11086199800E+04  0.65915090823E+03 0.  0.
         13    1    3    3    0    0 -0.14903478864E+03 -0.19353321291E+03  0.81781578532E+03  0.85351574762E+03  0.00000000000E+00 0. -1.
          4    1    3    3  501    0  0.14903478864E+03  0.19353321291E+03  0.73564234728E+02  0.25510423234E+03  0.00000000000E+00 0. -1.
<mgrwt>
<rscale>  0 0.65915091E+03</rscale>
<asrwt>0</asrwt>
<pdfrwt beam="1">0</pdfrwt>
<pdfrwt beam="2">  1        2 0.39498258E+00 0.65915091E+03</pdfrwt>
<totfact> 0.41558643E+00</totfact>
</mgrwt>
</event>
<event>
 5    1  0.2344661E-004  0.6410371E+03  0.7818608E-02  0.9823744E-01
         13   -1    0    0    0    0  0.00000000000E+00  0.00000000000E+00  0.10000000000E+04  0.10000000000E+04  0.00000000000E+00 0. -1.
          2   -1    0    0  501    0 -0.00000000000E+00 -0.00000000000E+00 -0.10273213483E+03  0.10273213483E+03  0.00000000000E+00 0. -1.
    9000006    2    1    2  501    0  0.00000000000E+00  0.00000000000E+00  0.89726786517E+03  0.11027321348E+04  0.64103708107E+03 0.  0.
         13    1    3    3    0    0  0.12011521510E+02  0.29140207443E+03  0.67731920593E+03  0.73744203321E+03  0.00000000000E+00 0. -1.
          2    1    3    3  501    0 -0.12011521510E+02 -0.29140207443E+03  0.21994865925E+03  0.36529010161E+03  0.00000000000E+00 0. -1.
<mgrwt>
<rscale>  0 0.64103708E+03</rscale>
<asrwt>0</asrwt>
<pdfrwt beam="1">0</pdfrwt>
<pdfrwt beam="2">  1        2 0.37357219E+00 0.64103708E+03</pdfrwt>
<totfact> 0.49951462E+00</totfact>
</mgrwt>
</event>
<event>
 5    1  0.2344661E-004  0.6544431E+03  0.7818608E-02  0.9798478E-01
         13   -1    0    0    0    0  0.00000000000E+00  0.00000000000E+00  0.10000000000E+04  0.10000000000E+04  0.00000000000E+00 0. -1.
          2   -1    0    0  501    0 -0.00000000000E+00 -0.00000000000E+00 -0.10707394531E+03  0.10707394531E+03  0.00000000000E+00 0. -1.
    9000006    2    1    2  501    0  0.00000000000E+00  0.00000000000E+00  0.89292605469E+03  0.11070739453E+04  0.65444310773E+03 0.  0.
         13    1    3    3    0    0  0.16725426422E+03 -0.19589688325E+03  0.10508787591E+03  0.27819604495E+03  0.00000000000E+00 0. -1.
          2    1    3    3  501    0 -0.16725426422E+03  0.19589688325E+03  0.78783817878E+03  0.82887790036E+03  0.00000000000E+00 0. -1.
<mgrwt>
<rscale>  0 0.65444311E+03</rscale>
<asrwt>0</asrwt>
<pdfrwt beam="1">0</pdfrwt>
<pdfrwt beam="2">  1        2 0.38936062E+00 0.65444311E+03</pdfrwt>
<totfact> 0.43628613E+00</totfact>
</mgrwt>
</event>
<event>
 5    1  0.2344661E-004  0.6552184E+03  0.7818608E-02  0.9797036E-01
         13   -1    0    0    0    0  0.00000000000E+00  0.00000000000E+00  0.10000000000E+04  0.10000000000E+04  0.00000000000E+00 0. -1.
          2   -1    0    0  501    0 -0.00000000000E+00 -0.00000000000E+00 -0.10732778370E+03  0.10732778370E+03  0.00000000000E+00 0. -1.
    9000006    2    1    2  501    0  0.00000000000E+00  0.00000000000E+00  0.89267221630E+03  0.11073277837E+04  0.65521838709E+03 0.  0.
         13    1    3    3    0    0  0.24169738729E+02  0.23284951734E+03  0.83365791655E+03  0.86590334092E+03  0.00000000000E+00 0. -1.
          2    1    3    3  501    0 -0.24169738729E+02 -0.23284951734E+03  0.59014299757E+02  0.24142444278E+03  0.00000000000E+00 0. -1.
<mgrwt>
<rscale>  0 0.65521839E+03</rscale>
<asrwt>0</asrwt>
<pdfrwt beam="1">0</pdfrwt>
<pdfrwt beam="2">  1        2 0.39028367E+00 0.65521839E+03</pdfrwt>
<totfact> 0.43282485E+00</totfact>
</mgrwt>
</event>
<event>
 5    1  0.2344661E-004  0.6601231E+03  0.7818608E-02  0.9787967E-01
         13   -1    0    0    0    0  0.00000000000E+00  0.00000000000E+00  0.10000000000E+04  0.10000000000E+04  0.00000000000E+00 0. -1.
          2   -1    0    0  501    0 -0.00000000000E+00 -0.00000000000E+00 -0.10894062270E+03  0.10894062270E+03  0.00000000000E+00 0. -1.
    9000006    2    1    2  501    0  0.00000000000E+00  0.00000000000E+00  0.89105937730E+03  0.11089406227E+04  0.66012308762E+03 0.  0.
         13    1    3    3    0    0  0.90016122785E+02 -0.31712768296E+03  0.47301815933E+03  0.57655793180E+03  0.00000000000E+00 0. -1.
          2    1    3    3  501    0 -0.90016122785E+02  0.31712768296E+03  0.41804121796E+03  0.53238269091E+03  0.00000000000E+00 0. -1.
<mgrwt>
<rscale>  0 0.66012309E+03</rscale>
<asrwt>0</asrwt>
<pdfrwt beam="1">0</pdfrwt>
<pdfrwt beam="2">  1        2 0.39614855E+00 0.66012309E+03</pdfrwt>
<totfact> 0.41140622E+00</totfact>
</mgrwt>
</event>
<event>
 5    1  0.2344661E-004  0.6771647E+03  0.7818608E-02  0.9757101E-01
         13   -1    0    0    0    0  0.00000000000E+00  0.00000000000E+00  0.10000000000E+04  0.10000000000E+04  0.00000000000E+00 0. -1.
          2   -1    0    0  501    0 -0.00000000000E+00 -0.00000000000E+00 -0.11463801156E+03  0.11463801156E+03  0.00000000000E+00 0. -1.
    9000006    2    1    2  501    0  0.00000000000E+00  0.00000000000E+00  0.88536198844E+03  0.11146380116E+04  0.67716471132E+03 0.  0.
         13    1    3    3    0    0 -0.99195302123E+02 -0.22822853565E+03  0.64772894115E+02  0.25714490129E+03  0.00000000000E+00 0. -1.
          4    1    3    3  501    0  0.99195302123E+02  0.22822853565E+03  0.82058909432E+03  0.85749311027E+03  0.00000000000E+00 0. -1.
<mgrwt>
<rscale>  0 0.67716471E+03</rscale>
<asrwt>0</asrwt>
<pdfrwt beam="1">0</pdfrwt>
<pdfrwt beam="2">  1        2 0.41686638E+00 0.67716471E+03</pdfrwt>
<totfact> 0.34314904E+00</totfact>
</mgrwt>
</event>
<event>
 5    1  0.2344661E-004  0.6502884E+03  0.7818608E-02  0.9806238E-01
         13   -1    0    0    0    0  0.00000000000E+00  0.00000000000E+00  0.10000000000E+04  0.10000000000E+04  0.00000000000E+00 0. -1.
          2   -1    0    0  501    0 -0.00000000000E+00 -0.00000000000E+00 -0.10571876528E+03  0.10571876528E+03  0.00000000000E+00 0. -1.
    9000006    2    1    2  501    0  0.00000000000E+00  0.00000000000E+00  0.89428123472E+03  0.11057187653E+04  0.65028844456E+03 0.  0.
         13    1    3    3    0    0  0.31738505845E+03 -0.37203685108E+02  0.54918118423E+03  0.63538756883E+03  0.00000000000E+00 0. -1.
          4    1    3    3  501    0 -0.31738505845E+03  0.37203685108E+02  0.34510005048E+03  0.47033119645E+03  0.00000000000E+00 0. -1.
<mgrwt>
<rscale>  0 0.65028844E+03</rscale>
<asrwt>0</asrwt>
<pdfrwt beam="1">0</pdfrwt>
<pdfrwt beam="2">  1        2 0.38443268E+00 0.65028844E+03</pdfrwt>
<totfact> 0.45519253E+00</totfact>
</mgrwt>
</event>
<event>
 5    1  0.2344661E-004  0.6841309E+03  0.7818608E-02  0.9744762E-01
         13   -1    0    0    0    0  0.00000000000E+00  0.00000000000E+00  0.10000000000E+04  0.10000000000E+04  0.00000000000E+00 0. -1.
          2   -1    0    0  501    0 -0.00000000000E+00 -0.00000000000E+00 -0.11700877829E+03  0.11700877829E+03  0.00000000000E+00 0. -1.
    9000006    2    1    2  501    0  0.00000000000E+00  0.00000000000E+00  0.88299122171E+03  0.11170087783E+04  0.68413091815E+03 0.  0.
         13    1    3    3    0    0  0.12122084927E+03 -0.31723218828E+03  0.50837869409E+03  0.61137521391E+03  0.00000000000E+00 0. -1.
          4    1    3    3  501    0 -0.12122084927E+03  0.31723218828E+03  0.37461252762E+03  0.50563356438E+03  0.00000000000E+00 0. -1.
<mgrwt>
<rscale>  0 0.68413092E+03</rscale>
<asrwt>0</asrwt>
<pdfrwt beam="1">0</pdfrwt>
<pdfrwt beam="2">  1        2 0.42548736E+00 0.68413092E+03</pdfrwt>
<totfact> 0.31785951E+00</totfact>
</mgrwt>
</event>
<event>
 5    1  0.2344661E-004  0.6445406E+03  0.7818608E-02  0.9817078E-01
         13   -1    0    0    0    0  0.00000000000E+00  0.00000000000E+00  0.10000000000E+04  0.10000000000E+04  0.00000000000E+00 0. -1.
          2   -1    0    0  501    0 -0.00000000000E+00 -0.00000000000E+00 -0.10385813401E+03  0.10385813401E+03  0.00000000000E+00 0. -1.
    9000006    2    1    2  501    0  0.00000000000E+00  0.00000000000E+00  0.89614186599E+03  0.11038581340E+04  0.64454056198E+03 0.  0.
         13    1    3    3    0    0 -0.14361392198E+03  0.25725909495E+03  0.67170455049E+03  0.73348088159E+03  0.00000000000E+00 0. -1.
          4    1    3    3  501    0  0.14361392198E+03 -0.25725909495E+03  0.22443731550E+03  0.37037725242E+03  0.00000000000E+00 0. -1.
<mgrwt>
<rscale>  0 0.64454056E+03</rscale>
<asrwt>0</asrwt>
<pdfrwt beam="1">0</pdfrwt>
<pdfrwt beam="2">  1        2 0.37766674E+00 0.64454056E+03</pdfrwt>
<totfact> 0.48236223E+00</totfact>
</mgrwt>
</event>
<event>
 5    1  0.2344661E-004  0.6382332E+03  0.7818608E-02  0.9829113E-01
         13   -1    0    0    0    0  0.00000000000E+00  0.00000000000E+00  0.10000000000E+04  0.10000000000E+04  0.00000000000E+00 0. -1.
          2   -1    0    0  501    0 -0.00000000000E+00 -0.00000000000E+00 -0.10183541122E+03  0.10183541122E+03  0.00000000000E+00 0. -1.
    9000006    2    1    2  501    0  0.00000000000E+00  0.00000000000E+00  0.89816458878E+03  0.11018354112E+04  0.63823322140E+03 0.  0.
         13    1    3    3    0    0 -0.23764225057E+03  0.19264654171E+03  0.29228633626E+03  0.42310498892E+03  0.00000000000E+00 0. -1.
          2    1    3    3  501    0  0.23764225057E+03 -0.19264654171E+03  0.60587825252E+03  0.67873042230E+03  0.00000000000E+00 0. -1.
<mgrwt>
<rscale>  0 0.63823322E+03</rscale>
<asrwt>0</asrwt>
<pdfrwt beam="1">0</pdfrwt>
<pdfrwt beam="2">  1        2 0.37031137E+00 0.63823322E+03</pdfrwt>
<totfact> 0.51357195E+00</totfact>
</mgrwt>
</event>
<event>
 5    1  0.2344661E-004  0.6616018E+03  0.7818608E-02  0.9785250E-01
         13   -1    0    0    0    0  0.00000000000E+00  0.00000000000E+00  0.10000000000E+04  0.10000000000E+04  0.00000000000E+00 0. -1.
          2   -1    0    0  501    0 -0.00000000000E+00 -0.00000000000E+00 -0.10942923588E+03  0.10942923588E+03  0.00000000000E+00 0. -1.
    9000006    2    1    2  501    0  0.00000000000E+00  0.00000000000E+00  0.89057076412E+03  0.11094292359E+04  0.66160180134E+03 0.  0.
         13    1    3    3    0    0  0.11138793701E+03 -0.22077633289E+03  0.81374130524E+03  0.85048478735E+03  0.00000000000E+00 0. -1.
          4    1    3    3  501    0 -0.11138793701E+03  0.22077633289E+03  0.76829458880E+02  0.25894444853E+03  0.00000000000E+00 0. -1.
<mgrwt>
<rscale>  0 0.66160180E+03</rscale>
<asrwt>0</asrwt>
<pdfrwt beam="1">0</pdfrwt>
<pdfrwt beam="2">  1        2 0.39792533E+00 0.66160180E+03</pdfrwt>
<totfact> 0.40510895E+00</totfact>
</mgrwt>
</event>
<event>
 5    1  0.2344661E-004  0.6243274E+03  0.7818608E-02  0.9856181E-01
         13   -1    0    0    0    0  0.00000000000E+00  0.00000000000E+00  0.10000000000E+04  0.10000000000E+04  0.00000000000E+00 0. -1.
          2   -1    0    0  501    0 -0.00000000000E+00 -0.00000000000E+00 -0.97446190861E+02  0.97446190861E+02  0.00000000000E+00 0. -1.
    9000006    2    1    2  501    0  0.00000000000E+00  0.00000000000E+00  0.90255380914E+03  0.10974461909E+04  0.62432744890E+03 0.  0.
         13    1    3    3    0    0  0.25996843398E+03  0.14917013876E+03  0.29792539016E+03  0.42260484506E+03  0.00000000000E+00 0. -1.
          4    1    3    3  501    0 -0.25996843398E+03 -0.14917013876E+03  0.60462841898E+03  0.67484134580E+03  0.00000000000E+00 0. -1.
<mgrwt>
<rscale>  0 0.62432745E+03</rscale>
<asrwt>0</asrwt>
<pdfrwt beam="1">0</pdfrwt>
<pdfrwt beam="2">  1        2 0.35435053E+00 0.62432745E+03</pdfrwt>
<totfact> 0.58777739E+00</totfact>
</mgrwt>
</event>
<event>
 5    1  0.2344661E-004  0.6489206E+03  0.7818608E-02  0.9808807E-01
         13   -1    0    0    0    0  0.00000000000E+00  0.00000000000E+00  0.10000000000E+04  0.10000000000E+04  0.00000000000E+00 0. -1.
          2   -1    0    0  501    0 -0.00000000000E+00 -0.00000000000E+00 -0.10527447221E+03  0.10527447221E+03  0.00000000000E+00 0. -1.
    9000006    2    1    2  501    0  0.00000000000E+00  0.00000000000E+00  0.89472552779E+03  0.11052744722E+04  0.64892055665E+03 0.  0.
         13    1    3    3    0    0 -0.15762591226E+03 -0.26082749879E+03  0.63701008596E+03  0.70615774580E+03  0.00000000000E+00 0. -1.
          2    1    3    3  501    0  0.15762591226E+03  0.26082749879E+03  0.25771544183E+03  0.39911672641E+03  0.00000000000E+00 0. -1.
<mgrwt>
<rscale>  0 0.64892056E+03</rscale>
<asrwt>0</asrwt>
<pdfrwt beam="1">0</pdfrwt>
<pdfrwt beam="2">  1        2 0.38281707E+00 0.64892056E+03</pdfrwt>
<totfact> 0.46155070E+00</totfact>
</mgrwt>
</event>
<event>
 5    1  0.2344661E-004  0.6482315E+03  0.7818608E-02  0.9810103E-01
         13   -1    0    0    0    0  0.00000000000E+00  0.00000000000E+00  0.10000000000E+04  0.10000000000E+04  0.00000000000E+00 0. -1.
          2   -1    0    0  501    0 -0.00000000000E+00 -0.00000000000E+00 -0.10505102655E+03  0.10505102655E+03  0.00000000000E+00 0. -1.
    9000006    2    1    2  501    0  0.00000000000E+00  0.00000000000E+00  0.89494897345E+03  0.11050510266E+04  0.64823152207E+03 0.  0.
         13    1    3    3    0    0 -0.31785079879E+03  0.40389097228E+02  0.36412418127E+03  0.48502250345E+03  0.00000000000E+00 0. -1.
          2    1    3    3  501    0  0.31785079879E+03 -0.40389097228E+02  0.53082479218E+03  0.62002852311E+03  0.00000000000E+00 0. -1.
<mgrwt>
<rscale>  0 0.64823152E+03</rscale>
<asrwt>0</asrwt>
<pdfrwt beam="1">0</pdfrwt>
<pdfrwt beam="2">  1        2 0.38200454E+00 0.64823152E+03</pdfrwt>
<totfact> 0.46477876E+00</totfact>
</mgrwt>
</event>
<event>
 5    1  0.2344661E-004  0.6317859E+03  0.7818608E-02  0.9841570E-01
         13   -1    0    0    0    0  0.00000000000E+00  0.00000000000E+00  0.10000000000E+04  0.10000000000E+04  0.00000000000E+00 0. -1.
          2   -1    0    0  501    0 -0.00000000000E+00 -0.00000000000E+00 -0.99788363342E+02  0.99788363342E+02  0.00000000000E+00 0. -1.
    9000006    2    1    2  501    0  0.00000000000E+00  0.00000000000E+00  0.90021163666E+03  0.10997883633E+04  0.63178592368E+03 0.  0.
         13    1    3    3    0    0  0.26194661770E+03 -0.15976870165E+03  0.31930184118E+03  0.44282698013E+03  0.00000000000E+00 0. -1.
          4    1    3    3  501    0 -0.26194661770E+03  0.15976870165E+03  0.58090979548E+03  0.65696138321E+03  0.00000000000E+00 0. -1.
<mgrwt>
<rscale>  0 0.63178592E+03</rscale>
<asrwt>0</asrwt>
<pdfrwt beam="1">0</pdfrwt>
<pdfrwt beam="2">  1        2 0.36286754E+00 0.63178592E+03</pdfrwt>
<totfact> 0.54703234E+00</totfact>
</mgrwt>
</event>
<event>
 5    1  0.2344661E-004  0.6374325E+03  0.7818608E-02  0.9830651E-01
         13   -1    0    0    0    0  0.00000000000E+00  0.00000000000E+00  0.10000000000E+04  0.10000000000E+04  0.00000000000E+00 0. -1.
          2   -1    0    0  501    0 -0.00000000000E+00 -0.00000000000E+00 -0.10158003340E+03  0.10158003340E+03  0.00000000000E+00 0. -1.
    9000006    2    1    2  501    0  0.00000000000E+00  0.00000000000E+00  0.89841996660E+03  0.11015800334E+04  0.63743245416E+03 0.  0.
         13    1    3    3    0    0  0.87454785882E+02 -0.23997586608E+03  0.11975663215E+03  0.28209644950E+03  0.00000000000E+00 0. -1.
          4    1    3    3  501    0 -0.87454785882E+02  0.23997586608E+03  0.77866333445E+03  0.81948358391E+03  0.00000000000E+00 0. -1.
<mgrwt>
<rscale>  0 0.63743245E+03</rscale>
<asrwt>0</asrwt>
<pdfrwt beam="1">0</pdfrwt>
<pdfrwt beam="2">  1        2 0.36938272E+00 0.63743245E+03</pdfrwt>
<totfact> 0.51764110E+00</totfact>
</mgrwt>
</event>
<event>
 5    1  0.2344661E-004  0.6507412E+03  0.7818608E-02  0.9805389E-01
         13   -1    0    0    0    0  0.00000000000E+00  0.00000000000E+00  0.10000000000E+04  0.10000000000E+04  0.00000000000E+00 0. -1.
          2   -1    0    0  501    0 -0.00000000000E+00 -0.00000000000E+00 -0.10586603495E+03  0.10586603495E+03  0.00000000000E+00 0. -1.
    9000006    2    1    2  501    0  0.00000000000E+00  0.00000000000E+00  0.89413396505E+03  0.11058660350E+04  0.65074122339E+03 0.  0.
         13    1    3    3    0    0 -0.27554073826E+03 -0.16497558566E+03  0.53580064371E+03  0.62467749448E+03  0.00000000000E+00 0. -1.
          2    1    3    3  501    0  0.27554073826E+03  0.16497558566E+03  0.35833332134E+03  0.48118854048E+03  0.00000000000E+00 0. -1.
<mgrwt>
<rscale>  0 0.65074122E+03</rscale>
<asrwt>0</asrwt>
<pdfrwt beam="1">0</pdfrwt>
<pdfrwt beam="2">  1        2 0.38496821E+00 0.65074122E+03</pdfrwt>
<totfact> 0.45310259E+00</totfact>
</mgrwt>
</event>
<event>
 5    1  0.2344661E-004  0.6448726E+03  0.7818608E-02  0.9816448E-01
         13   -1    0    0    0    0  0.00000000000E+00  0.00000000000E+00  0.10000000000E+04  0.10000000000E+04  0.00000000000E+00 0. -1.
          2   -1    0    0  501    0 -0.00000000000E+00 -0.00000000000E+00 -0.10396516779E+03  0.10396516779E+03  0.00000000000E+00 0. -1.
    9000006    2    1    2  501    0  0.00000000000E+00  0.00000000000E+00  0.89603483221E+03  0.11039651678E+04  0.64487260073E+03 0.  0.
         13    1    3    3    0    0 -0.36535887349E+02 -0.31567069001E+03  0.35452895781E+03  0.47610254937E+03  0.00000000000E+00 0. -1.
          2    1    3    3  501    0  0.36535887349E+02  0.31567069001E+03  0.54150587440E+03  0.62786261842E+03  0.00000000000E+00 0. -1.
<mgrwt>
<rscale>  0 0.64487260E+03</rscale>
<asrwt>0</asrwt>
<pdfrwt beam="1">0</pdfrwt>
<pdfrwt beam="2">  1        2 0.37805595E+00 0.64487260E+03</pdfrwt>
<totfact> 0.48076015E+00</totfact>
</mgrwt>
</event>
<event>
 5    1  0.2344661E-004  0.6476996E+03  0.7818608E-02  0.9811105E-01
         13   -1    0    0    0    0  0.00000000000E+00  0.00000000000E+00  0.10000000000E+04  0.10000000000E+04  0.00000000000E+00 0. -1.
          2   -1    0    0  501    0 -0.00000000000E+00 -0.00000000000E+00 -0.10487867727E+03  0.10487867727E+03  0.00000000000E+00 0. -1.
    9000006    2    1    2  501    0  0.00000000000E+00  0.00000000000E+00  0.89512132273E+03  0.11048786773E+04  0.64769955154E+03 0.  0.
         13    1    3    3    0    0  0.30703639803E+03 -0.95676515199E+02  0.38252921513E+03  0.49975388513E+03  0.00000000000E+00 0. -1.
          2    1    3    3  501    0 -0.30703639803E+03  0.95676515199E+02  0.51259210760E+03  0.60512479213E+03  0.00000000000E+00 0. -1.
<mgrwt>
<rscale>  0 0.64769955E+03</rscale>
<asrwt>0</asrwt>
<pdfrwt beam="1">0</pdfrwt>
<pdfrwt beam="2">  1        2 0.38137781E+00 0.64769955E+03</pdfrwt>
<totfact> 0.46728264E+00</totfact>
</mgrwt>
</event>
<event>
 5    1  0.2344661E-004  0.5780981E+03  0.7818608E-02  0.9951917E-01
         13   -1    0    0    0    0  0.00000000000E+00  0.00000000000E+00  0.10000000000E+04  0.10000000000E+04  0.00000000000E+00 0. -1.
          2   -1    0    0  501    0 -0.00000000000E+00 -0.00000000000E+00 -0.83549361494E+02  0.83549361494E+02  0.00000000000E+00 0. -1.
    9000006    2    1    2  501    0  0.00000000000E+00  0.00000000000E+00  0.91645063851E+03  0.10835493615E+04  0.57809812833E+03 0.  0.
         13    1    3    3    0    0 -0.14985631176E+03 -0.17485045785E+03  0.78566984017E+03  0.81872259925E+03  0.00000000000E+00 0. -1.
          2    1    3    3  501    0  0.14985631176E+03  0.17485045785E+03  0.13078079834E+03  0.26482676224E+03  0.00000000000E+00 0. -1.
<mgrwt>
<rscale>  0 0.57809813E+03</rscale>
<asrwt>0</asrwt>
<pdfrwt beam="1">0</pdfrwt>
<pdfrwt beam="2">  1        2 0.30381650E+00 0.57809813E+03</pdfrwt>
<totfact> 0.89468983E+00</totfact>
</mgrwt>
</event>
<event>
 5    1  0.2344661E-004  0.6504266E+03  0.7818608E-02  0.9805979E-01
         13   -1    0    0    0    0  0.00000000000E+00  0.00000000000E+00  0.10000000000E+04  0.10000000000E+04  0.00000000000E+00 0. -1.
          2   -1    0    0  501    0 -0.00000000000E+00 -0.00000000000E+00 -0.10576370527E+03  0.10576370527E+03  0.00000000000E+00 0. -1.
    9000006    2    1    2  501    0  0.00000000000E+00  0.00000000000E+00  0.89423629473E+03  0.11057637053E+04  0.65042664542E+03 0.  0.
         13    1    3    3    0    0 -0.31027889703E+03  0.22716870565E+02  0.60817265730E+03  0.68312739020E+03  0.00000000000E+00 0. -1.
          2    1    3    3  501    0  0.31027889703E+03 -0.22716870565E+02  0.28606363743E+03  0.42263631507E+03  0.00000000000E+00 0. -1.
<mgrwt>
<rscale>  0 0.65042665E+03</rscale>
<asrwt>0</asrwt>
<pdfrwt beam="1">0</pdfrwt>
<pdfrwt beam="2">  1        2 0.38459610E+00 0.65042665E+03</pdfrwt>
<totfact> 0.45455385E+00</totfact>
</mgrwt>
</event>
<event>
 5    1  0.2344661E-004  0.5932264E+03  0.7818608E-02  0.9919560E-01
         13   -1    0    0    0    0  0.00000000000E+00  0.00000000000E+00  0.10000000000E+04  0.10000000000E+04  0.00000000000E+00 0. -1.
          2   -1    0    0  501    0 -0.00000000000E+00 -0.00000000000E+00 -0.87979403398E+02  0.87979403398E+02  0.00000000000E+00 0. -1.
    9000006    2    1    2  501    0  0.00000000000E+00  0.00000000000E+00  0.91202059660E+03  0.10879794034E+04  0.59322644377E+03 0.  0.
         13    1    3    3    0    0 -0.80098946164E+02  0.16754159702E+03  0.31830312324E+02  0.18841230504E+03  0.00000000000E+00 0. -1.
          4    1    3    3  501    0  0.80098946164E+02 -0.16754159702E+03  0.88019028428E+03  0.89956709836E+03  0.00000000000E+00 0. -1.
<mgrwt>
<rscale>  0 0.59322644E+03</rscale>
<asrwt>0</asrwt>
<pdfrwt beam="1">0</pdfrwt>
<pdfrwt beam="2">  1        2 0.31992578E+00 0.59322644E+03</pdfrwt>
<totfact> 0.78320872E+00</totfact>
</mgrwt>
</event>
<event>
 5    1  0.2344661E-004  0.6538219E+03  0.7818608E-02  0.9799634E-01
         13   -1    0    0    0    0  0.00000000000E+00  0.00000000000E+00  0.10000000000E+04  0.10000000000E+04  0.00000000000E+00 0. -1.
          2   -1    0    0  501    0 -0.00000000000E+00 -0.00000000000E+00 -0.10687078487E+03  0.10687078487E+03  0.00000000000E+00 0. -1.
    9000006    2    1    2  501    0  0.00000000000E+00  0.00000000000E+00  0.89312921513E+03  0.11068707849E+04  0.65382194783E+03 0.  0.
         13    1    3    3    0    0  0.98703983538E+01 -0.22852691718E+03  0.84195859679E+03  0.87247708013E+03  0.00000000000E+00 0. -1.
          2    1    3    3  501    0 -0.98703983538E+01  0.22852691718E+03  0.51170618345E+02  0.23439370474E+03  0.00000000000E+00 0. -1.
<mgrwt>
<rscale>  0 0.65382195E+03</rscale>
<asrwt>0</asrwt>
<pdfrwt beam="1">0</pdfrwt>
<pdfrwt beam="2">  1        2 0.38862186E+00 0.65382195E+03</pdfrwt>
<totfact> 0.43907439E+00</totfact>
</mgrwt>
</event>
<event>
 5    1  0.2344661E-004  0.6447818E+03  0.7818608E-02  0.9816620E-01
         13   -1    0    0    0    0  0.00000000000E+00  0.00000000000E+00  0.10000000000E+04  0.10000000000E+04  0.00000000000E+00 0. -1.
          2   -1    0    0  501    0 -0.00000000000E+00 -0.00000000000E+00 -0.10393587863E+03  0.10393587863E+03  0.00000000000E+00 0. -1.
    9000006    2    1    2  501    0  0.00000000000E+00  0.00000000000E+00  0.89606412137E+03  0.11039358786E+04  0.64478175729E+03 0.  0.
         13    1    3    3    0    0  0.24213014704E+03  0.20101639836E+03  0.32816888485E+03  0.45467506804E+03  0.00000000000E+00 0. -1.
          4    1    3    3  501    0 -0.24213014704E+03 -0.20101639836E+03  0.56789523651E+03  0.64926081059E+03  0.00000000000E+00 0. -1.
<mgrwt>
<rscale>  0 0.64478176E+03</rscale>
<asrwt>0</asrwt>
<pdfrwt beam="1">0</pdfrwt>
<pdfrwt beam="2">  1        2 0.37794945E+00 0.64478176E+03</pdfrwt>
<totfact> 0.48119807E+00</totfact>
</mgrwt>
</event>
<event>
 5    1  0.2344661E-004  0.6138945E+03  0.7818608E-02  0.9876991E-01
         13   -1    0    0    0    0  0.00000000000E+00  0.00000000000E+00  0.10000000000E+04  0.10000000000E+04  0.00000000000E+00 0. -1.
          2   -1    0    0  501    0 -0.00000000000E+00 -0.00000000000E+00 -0.94216623536E+02  0.94216623536E+02  0.00000000000E+00 0. -1.
    9000006    2    1    2  501    0  0.00000000000E+00  0.00000000000E+00  0.90578337646E+03  0.10942166235E+04  0.61389453015E+03 0.  0.
         13    1    3    3    0    0  0.17844803669E+03 -0.34652228400E+02  0.12046201929E+02  0.18218010240E+03  0.00000000000E+00 0. -1.
          2    1    3    3  501    0 -0.17844803669E+03  0.34652228400E+02  0.89373717454E+03  0.91203652113E+03  0.00000000000E+00 0. -1.
<mgrwt>
<rscale>  0 0.61389453E+03</rscale>
<asrwt>0</asrwt>
<pdfrwt beam="1">0</pdfrwt>
<pdfrwt beam="2">  1        2 0.34260663E+00 0.61389453E+03</pdfrwt>
<totfact> 0.64859927E+00</totfact>
</mgrwt>
</event>
<event>
 5    1  0.2344661E-004  0.6525582E+03  0.7818608E-02  0.9801991E-01
         13   -1    0    0    0    0  0.00000000000E+00  0.00000000000E+00  0.10000000000E+04  0.10000000000E+04  0.00000000000E+00 0. -1.
          2   -1    0    0  501    0 -0.00000000000E+00 -0.00000000000E+00 -0.10645803945E+03  0.10645803945E+03  0.00000000000E+00 0. -1.
    9000006    2    1    2  501    0  0.00000000000E+00  0.00000000000E+00  0.89354196055E+03  0.11064580394E+04  0.65255816429E+03 0.  0.
         13    1    3    3    0    0  0.87815926815E+02  0.31098555834E+03  0.52324823472E+03  0.61498973133E+03  0.00000000000E+00 0. -1.
          4    1    3    3  501    0 -0.87815926815E+02 -0.31098555834E+03  0.37029372583E+03  0.49146830812E+03  0.00000000000E+00 0. -1.
<mgrwt>
<rscale>  0 0.65255816E+03</rscale>
<asrwt>0</asrwt>
<pdfrwt beam="1">0</pdfrwt>
<pdfrwt beam="2">  1        2 0.38712096E+00 0.65255816E+03</pdfrwt>
<totfact> 0.44478878E+00</totfact>
</mgrwt>
</event>
<event>
 5    1  0.2344661E-004  0.6422879E+03  0.7818608E-02  0.9821359E-01
         13   -1    0    0    0    0  0.00000000000E+00  0.00000000000E+00  0.10000000000E+04  0.10000000000E+04  0.00000000000E+00 0. -1.
          2   -1    0    0  501    0 -0.00000000000E+00 -0.00000000000E+00 -0.10313344616E+03  0.10313344616E+03  0.00000000000E+00 0. -1.
    9000006    2    1    2  501    0  0.00000000000E+00  0.00000000000E+00  0.89686655384E+03  0.11031334462E+04  0.64228792970E+03 0.  0.
         13    1    3    3    0    0  0.26921593524E+03  0.14026917443E+03  0.62840943943E+03  0.69789045318E+03  0.00000000000E+00 0. -1.
          2    1    3    3  501    0 -0.26921593524E+03 -0.14026917443E+03  0.26845711441E+03  0.40524299298E+03  0.00000000000E+00 0. -1.
<mgrwt>
<rscale>  0 0.64228793E+03</rscale>
<asrwt>0</asrwt>
<pdfrwt beam="1">0</pdfrwt>
<pdfrwt beam="2">  1        2 0.37503150E+00 0.64228793E+03</pdfrwt>
<totfact> 0.49333829E+00</totfact>
</mgrwt>
</event>
<event>
 5    1  0.2344661E-004  0.6734020E+03  0.7818608E-02  0.9763832E-01
         13   -1    0    0    0    0  0.00000000000E+00  0.00000000000E+00  0.10000000000E+04  0.10000000000E+04  0.00000000000E+00 0. -1.
          2   -1    0    0  501    0 -0.00000000000E+00 -0.00000000000E+00 -0.11336755802E+03  0.11336755802E+03  0.00000000000E+00 0. -1.
    9000006    2    1    2  501    0  0.00000000000E+00  0.00000000000E+00  0.88663244198E+03  0.11133675580E+04  0.67340198402E+03 0.  0.
         13    1    3    3    0    0 -0.18068255403E+03 -0.27098656768E+03  0.30217365504E+03  0.44428461935E+03  0.00000000000E+00 0. -1.
          2    1    3    3  501    0  0.18068255403E+03  0.27098656768E+03  0.58445878694E+03  0.66908293867E+03  0.00000000000E+00 0. -1.
<mgrwt>
<rscale>  0 0.67340198E+03</rscale>
<asrwt>0</asrwt>
<pdfrwt beam="1">0</pdfrwt>
<pdfrwt beam="2">  1        2 0.41224653E+00 0.67340198E+03</pdfrwt>
<totfact> 0.35742350E+00</totfact>
</mgrwt>
</event>
<event>
 5    1  0.2344661E-004  0.6873332E+03  0.7818608E-02  0.9739143E-01
         13   -1    0    0    0    0  0.00000000000E+00  0.00000000000E+00  0.10000000000E+04  0.10000000000E+04  0.00000000000E+00 0. -1.
          2   -1    0    0  501    0 -0.00000000000E+00 -0.00000000000E+00 -0.11810672714E+03  0.11810672714E+03  0.00000000000E+00 0. -1.
    9000006    2    1    2  501    0  0.00000000000E+00  0.00000000000E+00  0.88189327286E+03  0.11181067271E+04  0.68733318600E+03 0.  0.
         13    1    3    3    0    0 -0.23124324275E+03 -0.19468490832E+03  0.17498183165E+03  0.34927681322E+03  0.00000000000E+00 0. -1.
          4    1    3    3  501    0  0.23124324275E+03  0.19468490832E+03  0.70691144121E+03  0.76882991393E+03  0.00000000000E+00 0. -1.
<mgrwt>
<rscale>  0 0.68733319E+03</rscale>
<asrwt>0</asrwt>
<pdfrwt beam="1">0</pdfrwt>
<pdfrwt beam="2">  1        2 0.42947991E+00 0.68733319E+03</pdfrwt>
<totfact> 0.30671712E+00</totfact>
</mgrwt>
</event>
<event>
 5    1  0.2344661E-004  0.6092995E+03  0.7818608E-02  0.9886298E-01
         13   -1    0    0    0    0  0.00000000000E+00  0.00000000000E+00  0.10000000000E+04  0.10000000000E+04  0.00000000000E+00 0. -1.
          2   -1    0    0  501    0 -0.00000000000E+00 -0.00000000000E+00 -0.92811455171E+02  0.92811455171E+02  0.00000000000E+00 0. -1.
    9000006    2    1    2  501    0  0.00000000000E+00  0.00000000000E+00  0.90718854483E+03  0.10928114552E+04  0.60929945075E+03 0.  0.
         13    1    3    3    0    0 -0.29482577876E+03 -0.63853918754E+02  0.52993928216E+03  0.60978291673E+03  0.00000000000E+00 0. -1.
          4    1    3    3  501    0  0.29482577876E+03  0.63853918754E+02  0.37724926267E+03  0.48302853844E+03  0.00000000000E+00 0. -1.
<mgrwt>
<rscale>  0 0.60929945E+03</rscale>
<asrwt>0</asrwt>
<pdfrwt beam="1">0</pdfrwt>
<pdfrwt beam="2">  1        2 0.33749691E+00 0.60929945E+03</pdfrwt>
<totfact> 0.67685982E+00</totfact>
</mgrwt>
</event>
<event>
 5    1  0.2344661E-004  0.6357328E+03  0.7818608E-02  0.9833925E-01
         13   -1    0    0    0    0  0.00000000000E+00  0.00000000000E+00  0.10000000000E+04  0.10000000000E+04  0.00000000000E+00 0. -1.
          2   -1    0    0  501    0 -0.00000000000E+00 -0.00000000000E+00 -0.10103905160E+03  0.10103905160E+03  0.00000000000E+00 0. -1.
    9000006    2    1    2  501    0  0.00000000000E+00  0.00000000000E+00  0.89896094840E+03  0.11010390516E+04  0.63573281054E+03 0.  0.
         13    1    3    3    0    0  0.18270173534E+03 -0.25950489979E+03  0.41867688168E+03  0.52536943988E+03  0.00000000000E+00 0. -1.
          2    1    3    3  501    0 -0.18270173534E+03  0.25950489979E+03  0.48028406672E+03  0.57566961172E+03  0.00000000000E+00 0. -1.
<mgrwt>
<rscale>  0 0.63573281E+03</rscale>
<asrwt>0</asrwt>
<pdfrwt beam="1">0</pdfrwt>
<pdfrwt beam="2">  1        2 0.36741551E+00 0.63573281E+03</pdfrwt>
<totfact> 0.52635886E+00</totfact>
</mgrwt>
</event>
<event>
 5    1  0.2344661E-004  0.6437708E+03  0.7818608E-02  0.9818539E-01
         13   -1    0    0    0    0  0.00000000000E+00  0.00000000000E+00  0.10000000000E+04  0.10000000000E+04  0.00000000000E+00 0. -1.
          2   -1    0    0  501    0 -0.00000000000E+00 -0.00000000000E+00 -0.10361020855E+03  0.10361020855E+03  0.00000000000E+00 0. -1.
    9000006    2    1    2  501    0  0.00000000000E+00  0.00000000000E+00  0.89638979145E+03  0.11036102086E+04  0.64377079323E+03 0.  0.
         13    1    3    3    0    0 -0.62910936853E+02 -0.25361904860E+03  0.77041678052E+03  0.81352469138E+03  0.00000000000E+00 0. -1.
          2    1    3    3  501    0  0.62910936853E+02  0.25361904860E+03  0.12597301093E+03  0.29008551717E+03  0.00000000000E+00 0. -1.
<mgrwt>
<rscale>  0 0.64377079E+03</rscale>
<asrwt>0</asrwt>
<pdfrwt beam="1">0</pdfrwt>
<pdfrwt beam="2">  1        2 0.37676519E+00 0.64377079E+03</pdfrwt>
<totfact> 0.48609189E+00</totfact>
</mgrwt>
</event>
<event>
 5    1  0.2344661E-004  0.6395671E+03  0.7818608E-02  0.9826555E-01
         13   -1    0    0    0    0  0.00000000000E+00  0.00000000000E+00  0.10000000000E+04  0.10000000000E+04  0.00000000000E+00 0. -1.
          2   -1    0    0  501    0 -0.00000000000E+00 -0.00000000000E+00 -0.10226152706E+03  0.10226152706E+03  0.00000000000E+00 0. -1.
    9000006    2    1    2  501    0  0.00000000000E+00  0.00000000000E+00  0.89773847294E+03  0.11022615271E+04  0.63956712567E+03 0.  0.
         13    1    3    3    0    0  0.23563004091E+03  0.19914764591E+03  0.30385118107E+03  0.43302060146E+03  0.00000000000E+00 0. -1.
          2    1    3    3  501    0 -0.23563004091E+03 -0.19914764591E+03  0.59388729187E+03  0.66924092560E+03  0.00000000000E+00 0. -1.
<mgrwt>
<rscale>  0 0.63956713E+03</rscale>
<asrwt>0</asrwt>
<pdfrwt beam="1">0</pdfrwt>
<pdfrwt beam="2">  1        2 0.37186088E+00 0.63956713E+03</pdfrwt>
<totfact> 0.50684748E+00</totfact>
</mgrwt>
</event>
<event>
 5    1  0.2344661E-004  0.6507229E+03  0.7818608E-02  0.9805424E-01
         13   -1    0    0    0    0  0.00000000000E+00  0.00000000000E+00  0.10000000000E+04  0.10000000000E+04  0.00000000000E+00 0. -1.
          2   -1    0    0  501    0 -0.00000000000E+00 -0.00000000000E+00 -0.10586006264E+03  0.10586006264E+03  0.00000000000E+00 0. -1.
    9000006    2    1    2  501    0  0.00000000000E+00  0.00000000000E+00  0.89413993736E+03  0.11058600626E+04  0.65072286770E+03 0.  0.
         13    1    3    3    0    0 -0.18065619627E+03 -0.13716081105E+03  0.84348007529E+03  0.87344627010E+03  0.00000000000E+00 0. -1.
          2    1    3    3  501    0  0.18065619627E+03  0.13716081105E+03  0.50659862075E+02  0.23241379254E+03  0.00000000000E+00 0. -1.
<mgrwt>
<rscale>  0 0.65072287E+03</rscale>
<asrwt>0</asrwt>
<pdfrwt beam="1">0</pdfrwt>
<pdfrwt beam="2">  1        2 0.38494649E+00 0.65072287E+03</pdfrwt>
<totfact> 0.45318717E+00</totfact>
</mgrwt>
</event>
<event>
 5    1  0.2344661E-004  0.6292198E+03  0.7818608E-02  0.9846572E-01
         13   -1    0    0    0    0  0.00000000000E+00  0.00000000000E+00  0.10000000000E+04  0.10000000000E+04  0.00000000000E+00 0. -1.
          2   -1    0    0  501    0 -0.00000000000E+00 -0.00000000000E+00 -0.98979403042E+02  0.98979403042E+02  0.00000000000E+00 0. -1.
    9000006    2    1    2  501    0  0.00000000000E+00  0.00000000000E+00  0.90102059696E+03  0.10989794030E+04  0.62921984407E+03 0.  0.
         13    1    3    3    0    0 -0.65309637621E+02  0.28802242074E+03  0.26112861342E+03  0.39422127843E+03  0.00000000000E+00 0. -1.
          4    1    3    3  501    0  0.65309637621E+02 -0.28802242074E+03  0.63989198354E+03  0.70475812461E+03  0.00000000000E+00 0. -1.
<mgrwt>
<rscale>  0 0.62921984E+03</rscale>
<asrwt>0</asrwt>
<pdfrwt beam="1">0</pdfrwt>
<pdfrwt beam="2">  1        2 0.35992586E+00 0.62921984E+03</pdfrwt>
<totfact> 0.56079984E+00</totfact>
</mgrwt>
</event>
<event>
 5    1  0.2344661E-004  0.6110597E+03  0.7818608E-02  0.9882723E-01
         13   -1    0    0    0    0  0.00000000000E+00  0.00000000000E+00  0.10000000000E+04  0.10000000000E+04  0.00000000000E+00 0. -1.
          2   -1    0    0  501    0 -0.00000000000E+00 -0.00000000000E+00 -0.93348490775E+02  0.93348490775E+02  0.00000000000E+00 0. -1.
    9000006    2    1    2  501    0  0.00000000000E+00  0.00000000000E+00  0.90665150922E+03  0.10933484908E+04  0.61105970502E+03 0.  0.
         13    1    3    3    0    0 -0.35980636180E+02  0.86224104187E+02  0.97381246878E+03  0.97828417480E+03  0.00000000000E+00 0. -1.
          2    1    3    3  501    0  0.35980636180E+02 -0.86224104187E+02 -0.67160959551E+02  0.11506431597E+03  0.00000000000E+00 0. -1.
<mgrwt>
<rscale>  0 0.61105971E+03</rscale>
<asrwt>0</asrwt>
<pdfrwt beam="1">0</pdfrwt>
<pdfrwt beam="2">  1        2 0.33944977E+00 0.61105971E+03</pdfrwt>
<totfact> 0.66592471E+00</totfact>
</mgrwt>
</event>
<event>
 5    1  0.2344661E-004  0.6502866E+03  0.7818608E-02  0.9806241E-01
         13   -1    0    0    0    0  0.00000000000E+00  0.00000000000E+00  0.10000000000E+04  0.10000000000E+04  0.00000000000E+00 0. -1.
          2   -1    0    0  501    0 -0.00000000000E+00 -0.00000000000E+00 -0.10571817712E+03  0.10571817712E+03  0.00000000000E+00 0. -1.
    9000006    2    1    2  501    0  0.00000000000E+00  0.00000000000E+00  0.89428182288E+03  0.11057181771E+04  0.65028663564E+03 0.  0.
         13    1    3    3    0    0  0.16301519516E+03 -0.22897681253E+03  0.72505323274E+03  0.77762878344E+03  0.00000000000E+00 0. -1.
          4    1    3    3  501    0 -0.16301519516E+03  0.22897681253E+03  0.16922859013E+03  0.32808939368E+03  0.00000000000E+00 0. -1.
<mgrwt>
<rscale>  0 0.65028664E+03</rscale>
<asrwt>0</asrwt>
<pdfrwt beam="1">0</pdfrwt>
<pdfrwt beam="2">  1        2 0.38443055E+00 0.65028664E+03</pdfrwt>
<totfact> 0.45520089E+00</totfact>
</mgrwt>
</event>
<event>
 5    1  0.2344661E-004  0.6485953E+03  0.7818608E-02  0.9809419E-01
         13   -1    0    0    0    0  0.00000000000E+00  0.00000000000E+00  0.10000000000E+04  0.10000000000E+04  0.00000000000E+00 0. -1.
          2   -1    0    0  501    0 -0.00000000000E+00 -0.00000000000E+00 -0.10516895411E+03  0.10516895411E+03  0.00000000000E+00 0. -1.
    9000006    2    1    2  501    0  0.00000000000E+00  0.00000000000E+00  0.89483104589E+03  0.11051689541E+04  0.64859526396E+03 0.  0.
         13    1    3    3    0    0 -0.28799310745E+03  0.38663030647E+02  0.20205909672E+03  0.35392476382E+03  0.00000000000E+00 0. -1.
          4    1    3    3  501    0  0.28799310745E+03 -0.38663030647E+02  0.69277194917E+03  0.75124419028E+03  0.00000000000E+00 0. -1.
<mgrwt>
<rscale>  0 0.64859526E+03</rscale>
<asrwt>0</asrwt>
<pdfrwt beam="1">0</pdfrwt>
<pdfrwt beam="2">  1        2 0.38243337E+00 0.64859526E+03</pdfrwt>
<totfact> 0.46307255E+00</totfact>
</mgrwt>
</event>
<event>
 5    1  0.2344661E-004  0.6526133E+03  0.7818608E-02  0.9801888E-01
         13   -1    0    0    0    0  0.00000000000E+00  0.00000000000E+00  0.10000000000E+04  0.10000000000E+04  0.00000000000E+00 0. -1.
          2   -1    0    0  501    0 -0.00000000000E+00 -0.00000000000E+00 -0.10647604393E+03  0.10647604393E+03  0.00000000000E+00 0. -1.
    9000006    2    1    2  501    0  0.00000000000E+00  0.00000000000E+00  0.89352395607E+03  0.11064760439E+04  0.65261334321E+03 0.  0.
         13    1    3    3    0    0  0.25936572925E+03 -0.16207511946E+03  0.25391855245E+03  0.39750919126E+03  0.00000000000E+00 0. -1.
          4    1    3    3  501    0 -0.25936572925E+03  0.16207511946E+03  0.63960540361E+03  0.70896685267E+03  0.00000000000E+00 0. -1.
<mgrwt>
<rscale>  0 0.65261334E+03</rscale>
<asrwt>0</asrwt>
<pdfrwt beam="1">0</pdfrwt>
<pdfrwt beam="2">  1        2 0.38718643E+00 0.65261334E+03</pdfrwt>
<totfact> 0.44453811E+00</totfact>
</mgrwt>
</event>
<event>
 5    1  0.2344661E-004  0.6481272E+03  0.7818608E-02  0.9810300E-01
         13   -1    0    0    0    0  0.00000000000E+00  0.00000000000E+00  0.10000000000E+04  0.10000000000E+04  0.00000000000E+00 0. -1.
          2   -1    0    0  501    0 -0.00000000000E+00 -0.00000000000E+00 -0.10501721898E+03  0.10501721898E+03  0.00000000000E+00 0. -1.
    9000006    2    1    2  501    0  0.00000000000E+00  0.00000000000E+00  0.89498278102E+03  0.11050172190E+04  0.64812720659E+03 0.  0.
         13    1    3    3    0    0 -0.24307695443E+03 -0.15955769816E+03  0.69143562873E+03  0.75008552412E+03  0.00000000000E+00 0. -1.
          4    1    3    3  501    0  0.24307695443E+03  0.15955769816E+03  0.20354715229E+03  0.35493169486E+03  0.00000000000E+00 0. -1.
<mgrwt>
<rscale>  0 0.64812721E+03</rscale>
<asrwt>0</asrwt>
<pdfrwt beam="1">0</pdfrwt>
<pdfrwt beam="2">  1        2 0.38188160E+00 0.64812721E+03</pdfrwt>
<totfact> 0.46526895E+00</totfact>
</mgrwt>
</event>
<event>
 5    1  0.2344661E-004  0.6353435E+03  0.7818608E-02  0.9834677E-01
         13   -1    0    0    0    0  0.00000000000E+00  0.00000000000E+00  0.10000000000E+04  0.10000000000E+04  0.00000000000E+00 0. -1.
          2   -1    0    0  501    0 -0.00000000000E+00 -0.00000000000E+00 -0.10091532729E+03  0.10091532729E+03  0.00000000000E+00 0. -1.
    9000006    2    1    2  501    0  0.00000000000E+00  0.00000000000E+00  0.89908467271E+03  0.11009153273E+04  0.63534345764E+03 0.  0.
         13    1    3    3    0    0 -0.11963447656E+03  0.28460947547E+03  0.57921652898E+03  0.65635870448E+03  0.00000000000E+00 0. -1.
          2    1    3    3  501    0  0.11963447656E+03 -0.28460947547E+03  0.31986814373E+03  0.44455662281E+03  0.00000000000E+00 0. -1.
<mgrwt>
<rscale>  0 0.63534346E+03</rscale>
<asrwt>0</asrwt>
<pdfrwt beam="1">0</pdfrwt>
<pdfrwt beam="2">  1        2 0.36696560E+00 0.63534346E+03</pdfrwt>
<totfact> 0.52837149E+00</totfact>
</mgrwt>
</event>
<event>
 5    1  0.2344661E-004  0.6552499E+03  0.7818608E-02  0.9796978E-01
         13   -1    0    0    0    0  0.00000000000E+00  0.00000000000E+00  0.10000000000E+04  0.10000000000E+04  0.00000000000E+00 0. -1.
          2   -1    0    0  501    0 -0.00000000000E+00 -0.00000000000E+00 -0.10733810043E+03  0.10733810043E+03  0.00000000000E+00 0. -1.
    9000006    2    1    2  501    0  0.00000000000E+00  0.00000000000E+00  0.89266189957E+03  0.11073381004E+04  0.65524987731E+03 0.  0.
         13    1    3    3    0    0  0.57816886767E+02 -0.24252848932E+02 -0.97105156080E+02  0.11558721562E+03  0.00000000000E+00 0. -1.
          4    1    3    3  501    0 -0.57816886767E+02  0.24252848932E+02  0.98976705565E+03  0.99175088481E+03  0.00000000000E+00 0. -1.
<mgrwt>
<rscale>  0 0.65524988E+03</rscale>
<asrwt>0</asrwt>
<pdfrwt beam="1">0</pdfrwt>
<pdfrwt beam="2">  1        2 0.39032119E+00 0.65524988E+03</pdfrwt>
<totfact> 0.43268470E+00</totfact>
</mgrwt>
</event>
<event>
 5    1  0.2344661E-004  0.6457722E+03  0.7818608E-02  0.9814745E-01
         13   -1    0    0    0    0  0.00000000000E+00  0.00000000000E+00  0.10000000000E+04  0.10000000000E+04  0.00000000000E+00 0. -1.
          2   -1    0    0  501    0 -0.00000000000E+00 -0.00000000000E+00 -0.10425544273E+03  0.10425544273E+03  0.00000000000E+00 0. -1.
    9000006    2    1    2  501    0  0.00000000000E+00  0.00000000000E+00  0.89574455727E+03  0.11042554427E+04  0.64577222836E+03 0.  0.
         13    1    3    3    0    0  0.52961613756E+02  0.29213523375E+03  0.23084992856E+03  0.37608458735E+03  0.00000000000E+00 0. -1.
          2    1    3    3  501    0 -0.52961613756E+02 -0.29213523375E+03  0.66489462871E+03  0.72817085538E+03  0.00000000000E+00 0. -1.
<mgrwt>
<rscale>  0 0.64577223E+03</rscale>
<asrwt>0</asrwt>
<pdfrwt beam="1">0</pdfrwt>
<pdfrwt beam="2">  1        2 0.37911150E+00 0.64577223E+03</pdfrwt>
<totfact> 0.47643970E+00</totfact>
</mgrwt>
</event>
<event>
 5    1  0.2344661E-004  0.6405899E+03  0.7818608E-02  0.9824599E-01
         13   -1    0    0    0    0  0.00000000000E+00  0.00000000000E+00  0.10000000000E+04  0.10000000000E+04  0.00000000000E+00 0. -1.
          2   -1    0    0  501    0 -0.00000000000E+00 -0.00000000000E+00 -0.10258883983E+03  0.10258883983E+03  0.00000000000E+00 0. -1.
    9000006    2    1    2  501    0  0.00000000000E+00  0.00000000000E+00  0.89741116017E+03  0.11025888398E+04  0.64058985265E+03 0.  0.
         13    1    3    3    0    0 -0.12955376606E+03 -0.15032108646E+03  0.88143892386E+03  0.90350162359E+03  0.00000000000E+00 0. -1.
          4    1    3    3  501    0  0.12955376606E+03  0.15032108646E+03  0.15972236308E+02  0.19908721623E+03  0.00000000000E+00 0. -1.
<mgrwt>
<rscale>  0 0.64058985E+03</rscale>
<asrwt>0</asrwt>
<pdfrwt beam="1">0</pdfrwt>
<pdfrwt beam="2">  1        2 0.37305111E+00 0.64058985E+03</pdfrwt>
<totfact> 0.50173706E+00</totfact>
</mgrwt>
</event>
<event>
 5    1  0.2344661E-004  0.6349227E+03  0.7818608E-02  0.9835489E-01
         13   -1    0    0    0    0  0.00000000000E+00  0.00000000000E+00  0.10000000000E+04  0.10000000000E+04  0.00000000000E+00 0. -1.
          2   -1    0    0  501    0 -0.00000000000E+00 -0.00000000000E+00 -0.10078171429E+03  0.10078171429E+03  0.00000000000E+00 0. -1.
    9000006    2    1    2  501    0  0.00000000000E+00  0.00000000000E+00  0.89921828571E+03  0.11007817143E+04  0.63492271746E+03 0.  0.
         13    1    3    3    0    0 -0.31744061251E+03  0.34480780790E+01  0.45157260138E+03  0.55199478805E+03  0.00000000000E+00 0. -1.
          4    1    3    3  501    0  0.31744061251E+03 -0.34480780790E+01  0.44764568433E+03  0.54878692624E+03  0.00000000000E+00 0. -1.
<mgrwt>
<rscale>  0 0.63492272E+03</rscale>
<asrwt>0</asrwt>
<pdfrwt beam="1">0</pdfrwt>
<pdfrwt beam="2">  1        2 0.36647973E+00 0.63492272E+03</pdfrwt>
<totfact> 0.53055291E+00</totfact>
</mgrwt>
</event>
<event>
 5    1  0.2344661E-004  0.6405123E+03  0.7818608E-02  0.9824747E-01
         13   -1    0    0    0    0  0.00000000000E+00  0.00000000000E+00  0.10000000000E+04  0.10000000000E+04  0.00000000000E+00 0. -1.
          2   -1    0    0  501    0 -0.00000000000E+00 -0.00000000000E+00 -0.10256399401E+03  0.10256399401E+03  0.00000000000E+00 0. -1.
    9000006    2    1    2  501    0  0.00000000000E+00  0.00000000000E+00  0.89743600599E+03  0.11025639940E+04  0.64051227626E+03 0.  0.
         13    1    3    3    0    0 -0.18256760308E+03 -0.26054347703E+03  0.51196925259E+03  0.60276558355E+03  0.00000000000E+00 0. -1.
          4    1    3    3  501    0  0.18256760308E+03  0.26054347703E+03  0.38546675340E+03  0.49979841046E+03  0.00000000000E+00 0. -1.
<mgrwt>
<rscale>  0 0.64051228E+03</rscale>
<asrwt>0</asrwt>
<pdfrwt beam="1">0</pdfrwt>
<pdfrwt beam="2">  1        2 0.37296076E+00 0.64051228E+03</pdfrwt>
<totfact> 0.50212332E+00</totfact>
</mgrwt>
</event>
<event>
 5    1  0.2344661E-004  0.6297691E+03  0.7818608E-02  0.9845500E-01
         13   -1    0    0    0    0  0.00000000000E+00  0.00000000000E+00  0.10000000000E+04  0.10000000000E+04  0.00000000000E+00 0. -1.
          2   -1    0    0  501    0 -0.00000000000E+00 -0.00000000000E+00 -0.99152276917E+02  0.99152276917E+02  0.00000000000E+00 0. -1.
    9000006    2    1    2  501    0  0.00000000000E+00  0.00000000000E+00  0.90084772308E+03  0.10991522769E+04  0.62976909075E+03 0.  0.
         13    1    3    3    0    0  0.29786977110E+03 -0.62356687801E+02  0.30930565990E+03  0.43391790501E+03  0.00000000000E+00 0. -1.
          4    1    3    3  501    0 -0.29786977110E+03  0.62356687801E+02  0.59154206319E+03  0.66523437190E+03  0.00000000000E+00 0. -1.
<mgrwt>
<rscale>  0 0.62976909E+03</rscale>
<asrwt>0</asrwt>
<pdfrwt beam="1">0</pdfrwt>
<pdfrwt beam="2">  1        2 0.36055449E+00 0.62976909E+03</pdfrwt>
<totfact> 0.55783115E+00</totfact>
</mgrwt>
</event>
<event>
 5    1  0.2344661E-004  0.6514116E+03  0.7818608E-02  0.9804134E-01
         13   -1    0    0    0    0  0.00000000000E+00  0.00000000000E+00  0.10000000000E+04  0.10000000000E+04  0.00000000000E+00 0. -1.
          2   -1    0    0  501    0 -0.00000000000E+00 -0.00000000000E+00 -0.10608425339E+03  0.10608425339E+03  0.00000000000E+00 0. -1.
    9000006    2    1    2  501    0  0.00000000000E+00  0.00000000000E+00  0.89391574661E+03  0.11060842534E+04  0.65141155467E+03 0.  0.
         13    1    3    3    0    0  0.24935980391E+03  0.11276301228E+03  0.74682551934E+03  0.79538931667E+03  0.00000000000E+00 0. -1.
          2    1    3    3  501    0 -0.24935980391E+03 -0.11276301228E+03  0.14709022727E+03  0.31069493672E+03  0.00000000000E+00 0. -1.
<mgrwt>
<rscale>  0 0.65141155E+03</rscale>
<asrwt>0</asrwt>
<pdfrwt beam="1">0</pdfrwt>
<pdfrwt beam="2">  1        2 0.38576173E+00 0.65141155E+03</pdfrwt>
<totfact> 0.45002179E+00</totfact>
</mgrwt>
</event>
<event>
 5    1  0.2344661E-004  0.6491014E+03  0.7818608E-02  0.9808467E-01
         13   -1    0    0    0    0  0.00000000000E+00  0.00000000000E+00  0.10000000000E+04  0.10000000000E+04  0.00000000000E+00 0. -1.
          2   -1    0    0  501    0 -0.00000000000E+00 -0.00000000000E+00 -0.10533315823E+03  0.10533315823E+03  0.00000000000E+00 0. -1.
    9000006    2    1    2  501    0  0.00000000000E+00  0.00000000000E+00  0.89466684177E+03  0.11053331582E+04  0.64910140420E+03 0.  0.
         13    1    3    3    0    0 -0.18891810347E+03  0.17931164449E+03  0.77705011239E+03  0.81954230692E+03  0.00000000000E+00 0. -1.
          4    1    3    3  501    0  0.18891810347E+03 -0.17931164449E+03  0.11761672938E+03  0.28579085132E+03  0.00000000000E+00 0. -1.
<mgrwt>
<rscale>  0 0.64910140E+03</rscale>
<asrwt>0</asrwt>
<pdfrwt beam="1">0</pdfrwt>
<pdfrwt beam="2">  1        2 0.38303047E+00 0.64910140E+03</pdfrwt>
<totfact> 0.46070626E+00</totfact>
</mgrwt>
</event>
<event>
 5    1  0.2344661E-004  0.6245347E+03  0.7818608E-02  0.9855772E-01
         13   -1    0    0    0    0  0.00000000000E+00  0.00000000000E+00  0.10000000000E+04  0.10000000000E+04  0.00000000000E+00 0. -1.
          2   -1    0    0  501    0 -0.00000000000E+00 -0.00000000000E+00 -0.97510898032E+02  0.97510898032E+02  0.00000000000E+00 0. -1.
    9000006    2    1    2  501    0  0.00000000000E+00  0.00000000000E+00  0.90248910197E+03  0.10975108980E+04  0.62453470050E+03 0.  0.
         13    1    3    3    0    0 -0.95818761488E+02 -0.28295768233E+03  0.29148621497E+03  0.41738531186E+03  0.00000000000E+00 0. -1.
          2    1    3    3  501    0  0.95818761488E+02  0.28295768233E+03  0.61100288700E+03  0.68012558617E+03  0.00000000000E+00 0. -1.
<mgrwt>
<rscale>  0 0.62453470E+03</rscale>
<asrwt>0</asrwt>
<pdfrwt beam="1">0</pdfrwt>
<pdfrwt beam="2">  1        2 0.35458583E+00 0.62453470E+03</pdfrwt>
<totfact> 0.58661490E+00</totfact>
</mgrwt>
</event>
<event>
 5    1  0.2344661E-004  0.6520724E+03  0.7818608E-02  0.9802898E-01
         13   -1    0    0    0    0  0.00000000000E+00  0.00000000000E+00  0.10000000000E+04  0.10000000000E+04  0.00000000000E+00 0. -1.
          2   -1    0    0  501    0 -0.00000000000E+00 -0.00000000000E+00 -0.10629961898E+03  0.10629961898E+03  0.00000000000E+00 0. -1.
    9000006    2    1    2  501    0  0.00000000000E+00  0.00000000000E+00  0.89370038102E+03  0.11062996190E+04  0.65207244683E+03 0.  0.
         13    1    3    3    0    0  0.30298262100E+03  0.40762241825E+02  0.25460632472E+03  0.39784973241E+03  0.00000000000E+00 0. -1.
          4    1    3    3  501    0 -0.30298262100E+03 -0.40762241825E+02  0.63909405630E+03  0.70844988657E+03  0.00000000000E+00 0. -1.
<mgrwt>
<rscale>  0 0.65207245E+03</rscale>
<asrwt>0</asrwt>
<pdfrwt beam="1">0</pdfrwt>
<pdfrwt beam="2">  1        2 0.38654488E+00 0.65207245E+03</pdfrwt>
<totfact> 0.44699990E+00</totfact>
</mgrwt>
</event>
<event>
 5    1  0.2344661E-004  0.6281370E+03  0.7818608E-02  0.9848691E-01
         13   -1    0    0    0    0  0.00000000000E+00  0.00000000000E+00  0.10000000000E+04  0.10000000000E+04  0.00000000000E+00 0. -1.
          2   -1    0    0  501    0 -0.00000000000E+00 -0.00000000000E+00 -0.98639029501E+02  0.98639029501E+02  0.00000000000E+00 0. -1.
    9000006    2    1    2  501    0  0.00000000000E+00  0.00000000000E+00  0.90136097050E+03  0.10986390295E+04  0.62813702168E+03 0.  0.
         13    1    3    3    0    0 -0.18608204641E+03  0.13428282054E+03  0.82572953584E+03  0.85702256111E+03  0.00000000000E+00 0. -1.
          4    1    3    3  501    0  0.18608204641E+03 -0.13428282054E+03  0.75631434654E+02  0.24161646839E+03  0.00000000000E+00 0. -1.
<mgrwt>
<rscale>  0 0.62813702E+03</rscale>
<asrwt>0</asrwt>
<pdfrwt beam="1">0</pdfrwt>
<pdfrwt beam="2">  1        2 0.35868814E+00 0.62813702E+03</pdfrwt>
<totfact> 0.56668765E+00</totfact>
</mgrwt>
</event>
<event>
 5    1  0.2344661E-004  0.6462354E+03  0.7818608E-02  0.9813869E-01
         13   -1    0    0    0    0  0.00000000000E+00  0.00000000000E+00  0.10000000000E+04  0.10000000000E+04  0.00000000000E+00 0. -1.
          2   -1    0    0  501    0 -0.00000000000E+00 -0.00000000000E+00 -0.10440504665E+03  0.10440504665E+03  0.00000000000E+00 0. -1.
    9000006    2    1    2  501    0  0.00000000000E+00  0.00000000000E+00  0.89559495335E+03  0.11044050466E+04  0.64623539564E+03 0.  0.
         13    1    3    3    0    0 -0.31391120269E+03 -0.70587759317E+02  0.39703834282E+03  0.51104042953E+03  0.00000000000E+00 0. -1.
          4    1    3    3  501    0  0.31391120269E+03  0.70587759317E+02  0.49855661054E+03  0.59336461712E+03  0.00000000000E+00 0. -1.
<mgrwt>
<rscale>  0 0.64623540E+03</rscale>
<asrwt>0</asrwt>
<pdfrwt beam="1">0</pdfrwt>
<pdfrwt beam="2">  1        2 0.37965552E+00 0.64623540E+03</pdfrwt>
<totfact> 0.47422683E+00</totfact>
</mgrwt>
</event>
<event>
 5    1  0.2344661E-004  0.6140822E+03  0.7818608E-02  0.9876613E-01
         13   -1    0    0    0    0  0.00000000000E+00  0.00000000000E+00  0.10000000000E+04  0.10000000000E+04  0.00000000000E+00 0. -1.
          2   -1    0    0  501    0 -0.00000000000E+00 -0.00000000000E+00 -0.94274232265E+02  0.94274232265E+02  0.00000000000E+00 0. -1.
    9000006    2    1    2  501    0  0.00000000000E+00  0.00000000000E+00  0.90572576774E+03  0.10942742323E+04  0.61408218429E+03 0.  0.
         13    1    3    3    0    0 -0.17416888071E+03  0.19259615794E+03  0.16089121856E+03  0.30547350666E+03  0.00000000000E+00 0. -1.
          4    1    3    3  501    0  0.17416888071E+03 -0.19259615794E+03  0.74483454918E+03  0.78880072560E+03  0.00000000000E+00 0. -1.
<mgrwt>
<rscale>  0 0.61408218E+03</rscale>
<asrwt>0</asrwt>
<pdfrwt beam="1">0</pdfrwt>
<pdfrwt beam="2">  1        2 0.34281611E+00 0.61408218E+03</pdfrwt>
<totfact> 0.64746466E+00</totfact>
</mgrwt>
</event>
<event>
 5    1  0.2344661E-004  0.6788017E+03  0.7818608E-02  0.9754187E-01
         13   -1    0    0    0    0  0.00000000000E+00  0.00000000000E+00  0.10000000000E+04  0.10000000000E+04  0.00000000000E+00 0. -1.
          2   -1    0    0  501    0 -0.00000000000E+00 -0.00000000000E+00 -0.11519293084E+03  0.11519293084E+03  0.00000000000E+00 0. -1.
    9000006    2    1    2  501    0  0.00000000000E+00  0.00000000000E+00  0.88480706916E+03  0.11151929308E+04  0.67880168191E+03 0.  0.
         13    1    3    3    0    0  0.57009936071E+02  0.28686895322E+03  0.15951709112E+03  0.33315106407E+03  0.00000000000E+00 0. -1.
          4    1    3    3  501    0 -0.57009936071E+02 -0.28686895322E+03  0.72528997804E+03  0.78204186677E+03  0.00000000000E+00 0. -1.
<mgrwt>
<rscale>  0 0.67880168E+03</rscale>
<asrwt>0</asrwt>
<pdfrwt beam="1">0</pdfrwt>
<pdfrwt beam="2">  1        2 0.41888427E+00 0.67880168E+03</pdfrwt>
<totfact> 0.33707487E+00</totfact>
</mgrwt>
</event>
<event>
 5    1  0.2344661E-004  0.6440645E+03  0.7818608E-02  0.9817981E-01
         13   -1    0    0    0    0  0.00000000000E+00  0.00000000000E+00  0.10000000000E+04  0.10000000000E+04  0.00000000000E+00 0. -1.
          2   -1    0    0  501    0 -0.00000000000E+00 -0.00000000000E+00 -0.10370476545E+03  0.10370476545E+03  0.00000000000E+00 0. -1.
    9000006    2    1    2  501    0  0.00000000000E+00  0.00000000000E+00  0.89629523455E+03  0.11037047654E+04  0.64406448573E+03 0.  0.
         13    1    3    3    0    0  0.23277956926E+03 -0.12880241829E+03  0.75911061355E+03  0.80437883763E+03  0.00000000000E+00 0. -1.
          4    1    3    3  501    0 -0.23277956926E+03  0.12880241829E+03  0.13718462100E+03  0.29932592781E+03  0.00000000000E+00 0. -1.
<mgrwt>
<rscale>  0 0.64406449E+03</rscale>
<asrwt>0</asrwt>
<pdfrwt beam="1">0</pdfrwt>
<pdfrwt beam="2">  1        2 0.37710903E+00 0.64406449E+03</pdfrwt>
<totfact> 0.48466634E+00</totfact>
</mgrwt>
</event>
<event>
 5    1  0.2344661E-004  0.6414135E+03  0.7818608E-02  0.9823026E-01
         13   -1    0    0    0    0  0.00000000000E+00  0.00000000000E+00  0.10000000000E+04  0.10000000000E+04  0.00000000000E+00 0. -1.
          2   -1    0    0  501    0 -0.00000000000E+00 -0.00000000000E+00 -0.10285281274E+03  0.10285281274E+03  0.00000000000E+00 0. -1.
    9000006    2    1    2  501    0  0.00000000000E+00  0.00000000000E+00  0.89714718726E+03  0.11028528127E+04  0.64141347895E+03 0.  0.
         13    1    3    3    0    0 -0.22451763710E+03  0.20645148453E+03  0.61898116934E+03  0.69004932637E+03  0.00000000000E+00 0. -1.
          4    1    3    3  501    0  0.22451763710E+03 -0.20645148453E+03  0.27816601792E+03  0.41280348637E+03  0.00000000000E+00 0. -1.
<mgrwt>
<rscale>  0 0.64141348E+03</rscale>
<asrwt>0</asrwt>
<pdfrwt beam="1">0</pdfrwt>
<pdfrwt beam="2">  1        2 0.37401102E+00 0.64141348E+03</pdfrwt>
<totfact> 0.49764995E+00</totfact>
</mgrwt>
</event>
<event>
 5    1  0.2344661E-004  0.6486657E+03  0.7818608E-02  0.9809286E-01
         13   -1    0    0    0    0  0.00000000000E+00  0.00000000000E+00  0.10000000000E+04  0.10000000000E+04  0.00000000000E+00 0. -1.
          2   -1    0    0  501    0 -0.00000000000E+00 -0.00000000000E+00 -0.10519178983E+03  0.10519178983E+03  0.00000000000E+00 0. -1.
    9000006    2    1    2  501    0  0.00000000000E+00  0.00000000000E+00  0.89480821017E+03  0.11051917898E+04  0.64866567607E+03 0.  0.
         13    1    3    3    0    0  0.18638522567E+03 -0.12362992245E+03  0.84758861315E+03  0.87660154415E+03  0.00000000000E+00 0. -1.
          2    1    3    3  501    0 -0.18638522567E+03  0.12362992245E+03  0.47219597027E+02  0.22859024568E+03  0.00000000000E+00 0. -1.
<mgrwt>
<rscale>  0 0.64866568E+03</rscale>
<asrwt>0</asrwt>
<pdfrwt beam="1">0</pdfrwt>
<pdfrwt beam="2">  1        2 0.38251641E+00 0.64866568E+03</pdfrwt>
<totfact> 0.46274281E+00</totfact>
</mgrwt>
</event>
<event>
 5    1  0.2344661E-004  0.6588042E+03  0.7818608E-02  0.9790397E-01
         13   -1    0    0    0    0  0.00000000000E+00  0.00000000000E+00  0.10000000000E+04  0.10000000000E+04  0.00000000000E+00 0. -1.
          2   -1    0    0  501    0 -0.00000000000E+00 -0.00000000000E+00 -0.10850575331E+03  0.10850575331E+03  0.00000000000E+00 0. -1.
    9000006    2    1    2  501    0  0.00000000000E+00  0.00000000000E+00  0.89149424669E+03  0.11085057533E+04  0.65880422982E+03 0.  0.
         13    1    3    3    0    0 -0.21708992409E+03 -0.22186063136E+03  0.26023624260E+03  0.40505934979E+03  0.00000000000E+00 0. -1.
          4    1    3    3  501    0  0.21708992409E+03  0.22186063136E+03  0.63125800409E+03  0.70344640352E+03  0.00000000000E+00 0. -1.
<mgrwt>
<rscale>  0 0.65880423E+03</rscale>
<asrwt>0</asrwt>
<pdfrwt beam="1">0</pdfrwt>
<pdfrwt beam="2">  1        2 0.39456721E+00 0.65880423E+03</pdfrwt>
<totfact> 0.41708481E+00</totfact>
</mgrwt>
</event>
<event>
 5    1  0.2344661E-004  0.6605230E+03  0.7818608E-02  0.9787231E-01
         13   -1    0    0    0    0  0.00000000000E+00  0.00000000000E+00  0.10000000000E+04  0.10000000000E+04  0.00000000000E+00 0. -1.
          2   -1    0    0  501    0 -0.00000000000E+00 -0.00000000000E+00 -0.10907265859E+03  0.10907265859E+03  0.00000000000E+00 0. -1.
    9000006    2    1    2  501    0  0.00000000000E+00  0.00000000000E+00  0.89092734141E+03  0.11090726586E+04  0.66052300063E+03 0.  0.
         13    1    3    3    0    0  0.64764398214E+02 -0.32165837525E+03  0.38232210717E+03  0.50381418328E+03  0.00000000000E+00 0. -1.
          2    1    3    3  501    0 -0.64764398214E+02  0.32165837525E+03  0.50860523424E+03  0.60525847531E+03  0.00000000000E+00 0. -1.
<mgrwt>
<rscale>  0 0.66052300E+03</rscale>
<asrwt>0</asrwt>
<pdfrwt beam="1">0</pdfrwt>
<pdfrwt beam="2">  1        2 0.39662869E+00 0.66052300E+03</pdfrwt>
<totfact> 0.40969591E+00</totfact>
</mgrwt>
</event>
<event>
 5    1  0.2344661E-004  0.6403496E+03  0.7818608E-02  0.9825058E-01
         13   -1    0    0    0    0  0.00000000000E+00  0.00000000000E+00  0.10000000000E+04  0.10000000000E+04  0.00000000000E+00 0. -1.
          2   -1    0    0  501    0 -0.00000000000E+00 -0.00000000000E+00 -0.10251189594E+03  0.10251189594E+03  0.00000000000E+00 0. -1.
    9000006    2    1    2  501    0  0.00000000000E+00  0.00000000000E+00  0.89748810406E+03  0.11025118959E+04  0.64034957933E+03 0.  0.
         13    1    3    3    0    0 -0.22025358577E+03  0.19515926054E+03  0.66593603096E+03  0.72805877259E+03  0.00000000000E+00 0. -1.
          2    1    3    3  501    0  0.22025358577E+03 -0.19515926054E+03  0.23155207311E+03  0.37445312335E+03  0.00000000000E+00 0. -1.
<mgrwt>
<rscale>  0 0.64034958E+03</rscale>
<asrwt>0</asrwt>
<pdfrwt beam="1">0</pdfrwt>
<pdfrwt beam="2">  1        2 0.37277132E+00 0.64034958E+03</pdfrwt>
<totfact> 0.50293415E+00</totfact>
</mgrwt>
</event>
<event>
 5    1  0.2344661E-004  0.6467763E+03  0.7818608E-02  0.9812847E-01
         13   -1    0    0    0    0  0.00000000000E+00  0.00000000000E+00  0.10000000000E+04  0.10000000000E+04  0.00000000000E+00 0. -1.
          2   -1    0    0  501    0 -0.00000000000E+00 -0.00000000000E+00 -0.10457990641E+03  0.10457990641E+03  0.00000000000E+00 0. -1.
    9000006    2    1    2  501    0  0.00000000000E+00  0.00000000000E+00  0.89542009359E+03  0.11045799064E+04  0.64677633356E+03 0.  0.
         13    1    3    3    0    0 -0.65250136628E+02 -0.29667909061E+03  0.25827365466E+03  0.39872464662E+03  0.00000000000E+00 0. -1.
          2    1    3    3  501    0  0.65250136628E+02  0.29667909061E+03  0.63714643893E+03  0.70585525979E+03  0.00000000000E+00 0. -1.
<mgrwt>
<rscale>  0 0.64677633E+03</rscale>
<asrwt>0</asrwt>
<pdfrwt beam="1">0</pdfrwt>
<pdfrwt beam="2">  1        2 0.38029137E+00 0.64677633E+03</pdfrwt>
<totfact> 0.47165225E+00</totfact>
</mgrwt>
</event>
<event>
 5    1  0.2344661E-004  0.6526425E+03  0.7818608E-02  0.9801833E-01
         13   -1    0    0    0    0  0.00000000000E+00  0.00000000000E+00  0.10000000000E+04  0.10000000000E+04  0.00000000000E+00 0. -1.
          2   -1    0    0  501    0 -0.00000000000E+00 -0.00000000000E+00 -0.10648555056E+03  0.10648555056E+03  0.00000000000E+00 0. -1.
    9000006    2    1    2  501    0  0.00000000000E+00  0.00000000000E+00  0.89351444944E+03  0.11064855506E+04  0.65264247659E+03 0.  0.
         13    1    3    3    0    0  0.28843855766E+03  0.14149323024E+03  0.34983151358E+03  0.47497286622E+03  0.00000000000E+00 0. -1.
          4    1    3    3  501    0 -0.28843855766E+03 -0.14149323024E+03  0.54368293585E+03  0.63151268434E+03  0.00000000000E+00 0. -1.
<mgrwt>
<rscale>  0 0.65264248E+03</rscale>
<asrwt>0</asrwt>
<pdfrwt beam="1">0</pdfrwt>
<pdfrwt beam="2">  1        2 0.38722100E+00 0.65264248E+03</pdfrwt>
<totfact> 0.44440581E+00</totfact>
</mgrwt>
</event>
<event>
 5    1  0.2344661E-004  0.6499223E+03  0.7818608E-02  0.9806925E-01
         13   -1    0    0    0    0  0.00000000000E+00  0.00000000000E+00  0.10000000000E+04  0.10000000000E+04  0.00000000000E+00 0. -1.
          2   -1    0    0  501    0 -0.00000000000E+00 -0.00000000000E+00 -0.10559974047E+03  0.10559974047E+03  0.00000000000E+00 0. -1.
    9000006    2    1    2  501    0  0.00000000000E+00  0.00000000000E+00  0.89440025953E+03  0.11055997405E+04  0.64992227374E+03 0.  0.
         13    1    3    3    0    0 -0.19050514708E+02 -0.10197377198E+03 -0.76675366763E+02  0.12899877577E+03  0.00000000000E+00 0. -1.
          2    1    3    3  501    0  0.19050514708E+02  0.10197377198E+03  0.97107562629E+03  0.97660096470E+03  0.00000000000E+00 0. -1.
<mgrwt>
<rscale>  0 0.64992227E+03</rscale>
<asrwt>0</asrwt>
<pdfrwt beam="1">0</pdfrwt>
<pdfrwt beam="2">  1        2 0.38399987E+00 0.64992227E+03</pdfrwt>
<totfact> 0.45688802E+00</totfact>
</mgrwt>
</event>
<event>
 5    1  0.2344661E-004  0.6468247E+03  0.7818608E-02  0.9812756E-01
         13   -1    0    0    0    0  0.00000000000E+00  0.00000000000E+00  0.10000000000E+04  0.10000000000E+04  0.00000000000E+00 0. -1.
          2   -1    0    0  501    0 -0.00000000000E+00 -0.00000000000E+00 -0.10459555557E+03  0.10459555557E+03  0.00000000000E+00 0. -1.
    9000006    2    1    2  501    0  0.00000000000E+00  0.00000000000E+00  0.89540444443E+03  0.11045955556E+04  0.64682472301E+03 0.  0.
         13    1    3    3    0    0  0.58615562195E+02  0.31720703990E+03  0.48736639766E+03  0.58445025097E+03  0.00000000000E+00 0. -1.
          2    1    3    3  501    0 -0.58615562195E+02 -0.31720703990E+03  0.40803804677E+03  0.52014530461E+03  0.00000000000E+00 0. -1.
<mgrwt>
<rscale>  0 0.64682472E+03</rscale>
<asrwt>0</asrwt>
<pdfrwt beam="1">0</pdfrwt>
<pdfrwt beam="2">  1        2 0.38034828E+00 0.64682472E+03</pdfrwt>
<totfact> 0.47142245E+00</totfact>
</mgrwt>
</event>
<event>
 5    1  0.2344661E-004  0.6511103E+03  0.7818608E-02  0.9804698E-01
         13   -1    0    0    0    0  0.00000000000E+00  0.00000000000E+00  0.10000000000E+04  0.10000000000E+04  0.00000000000E+00 0. -1.
          2   -1    0    0  501    0 -0.00000000000E+00 -0.00000000000E+00 -0.10598615037E+03  0.10598615037E+03  0.00000000000E+00 0. -1.
    9000006    2    1    2  501    0  0.00000000000E+00  0.00000000000E+00  0.89401384963E+03  0.11059861504E+04  0.65111028367E+03 0.  0.
         13    1    3    3    0    0  0.28865994538E+03  0.14243669551E+03  0.52975887379E+03  0.61988486080E+03  0.00000000000E+00 0. -1.
          2    1    3    3  501    0 -0.28865994538E+03 -0.14243669551E+03  0.36425497584E+03  0.48610128957E+03  0.00000000000E+00 0. -1.
<mgrwt>
<rscale>  0 0.65111028E+03</rscale>
<asrwt>0</asrwt>
<pdfrwt beam="1">0</pdfrwt>
<pdfrwt beam="2">  1        2 0.38540500E+00 0.65111028E+03</pdfrwt>
<totfact> 0.45140445E+00</totfact>
</mgrwt>
</event>
<event>
 5    1  0.2344661E-004  0.6480922E+03  0.7818608E-02  0.9810366E-01
         13   -1    0    0    0    0  0.00000000000E+00  0.00000000000E+00  0.10000000000E+04  0.10000000000E+04  0.00000000000E+00 0. -1.
          2   -1    0    0  501    0 -0.00000000000E+00 -0.00000000000E+00 -0.10500587891E+03  0.10500587891E+03  0.00000000000E+00 0. -1.
    9000006    2    1    2  501    0  0.00000000000E+00  0.00000000000E+00  0.89499412109E+03  0.11050058789E+04  0.64809221230E+03 0.  0.
         13    1    3    3    0    0 -0.14527026458E+03  0.24570883226E+03  0.70903521067E+03  0.76433448830E+03  0.00000000000E+00 0. -1.
          4    1    3    3  501    0  0.14527026458E+03 -0.24570883226E+03  0.18595891041E+03  0.34067139062E+03  0.00000000000E+00 0. -1.
<mgrwt>
<rscale>  0 0.64809221E+03</rscale>
<asrwt>0</asrwt>
<pdfrwt beam="1">0</pdfrwt>
<pdfrwt beam="2">  1        2 0.38184036E+00 0.64809221E+03</pdfrwt>
<totfact> 0.46543348E+00</totfact>
</mgrwt>
</event>
<event>
 5    1  0.2344661E-004  0.6519697E+03  0.7818608E-02  0.9803090E-01
         13   -1    0    0    0    0  0.00000000000E+00  0.00000000000E+00  0.10000000000E+04  0.10000000000E+04  0.00000000000E+00 0. -1.
          2   -1    0    0  501    0 -0.00000000000E+00 -0.00000000000E+00 -0.10626612012E+03  0.10626612012E+03  0.00000000000E+00 0. -1.
    9000006    2    1    2  501    0  0.00000000000E+00  0.00000000000E+00  0.89373387988E+03  0.11062661201E+04  0.65196969292E+03 0.  0.
         13    1    3    3    0    0 -0.45467384279E+02  0.30064524069E+03  0.24745593979E+03  0.39203225112E+03  0.00000000000E+00 0. -1.
          4    1    3    3  501    0  0.45467384279E+02 -0.30064524069E+03  0.64627794009E+03  0.71423386900E+03  0.00000000000E+00 0. -1.
<mgrwt>
<rscale>  0 0.65196969E+03</rscale>
<asrwt>0</asrwt>
<pdfrwt beam="1">0</pdfrwt>
<pdfrwt beam="2">  1        2 0.38642307E+00 0.65196969E+03</pdfrwt>
<totfact> 0.44746873E+00</totfact>
</mgrwt>
</event>
<event>
 5    1  0.2344661E-004  0.6500694E+03  0.7818608E-02  0.9806649E-01
         13   -1    0    0    0    0  0.00000000000E+00  0.00000000000E+00  0.10000000000E+04  0.10000000000E+04  0.00000000000E+00 0. -1.
          2   -1    0    0  501    0 -0.00000000000E+00 -0.00000000000E+00 -0.10564755295E+03  0.10564755295E+03  0.00000000000E+00 0. -1.
    9000006    2    1    2  501    0  0.00000000000E+00  0.00000000000E+00  0.89435244705E+03  0.11056475530E+04  0.65006938999E+03 0.  0.
         13    1    3    3    0    0 -0.13817103358E+03  0.29238660473E+03  0.39163500657E+03  0.50789678037E+03  0.00000000000E+00 0. -1.
          2    1    3    3  501    0  0.13817103358E+03 -0.29238660473E+03  0.50271744048E+03  0.59775077258E+03  0.00000000000E+00 0. -1.
<mgrwt>
<rscale>  0 0.65006939E+03</rscale>
<asrwt>0</asrwt>
<pdfrwt beam="1">0</pdfrwt>
<pdfrwt beam="2">  1        2 0.38417373E+00 0.65006939E+03</pdfrwt>
<totfact> 0.45620625E+00</totfact>
</mgrwt>
</event>
<event>
 5    1  0.2344661E-004  0.6541719E+03  0.7818608E-02  0.9798982E-01
         13   -1    0    0    0    0  0.00000000000E+00  0.00000000000E+00  0.10000000000E+04  0.10000000000E+04  0.00000000000E+00 0. -1.
          2   -1    0    0  501    0 -0.00000000000E+00 -0.00000000000E+00 -0.10698521927E+03  0.10698521927E+03  0.00000000000E+00 0. -1.
    9000006    2    1    2  501    0  0.00000000000E+00  0.00000000000E+00  0.89301478073E+03  0.11069852193E+04  0.65417190178E+03 0.  0.
         13    1    3    3    0    0 -0.49075669586E+02 -0.20730096255E+03  0.86650928620E+03  0.89231185888E+03  0.00000000000E+00 0. -1.
          2    1    3    3  501    0  0.49075669586E+02  0.20730096255E+03  0.26505494525E+02  0.21467336039E+03  0.00000000000E+00 0. -1.
<mgrwt>
<rscale>  0 0.65417190E+03</rscale>
<asrwt>0</asrwt>
<pdfrwt beam="1">0</pdfrwt>
<pdfrwt beam="2">  1        2 0.38903798E+00 0.65417190E+03</pdfrwt>
<totfact> 0.43750187E+00</totfact>
</mgrwt>
</event>
<event>
 5    1  0.2344661E-004  0.6179764E+03  0.7818608E-02  0.9868797E-01
         13   -1    0    0    0    0  0.00000000000E+00  0.00000000000E+00  0.10000000000E+04  0.10000000000E+04  0.00000000000E+00 0. -1.
          2   -1    0    0  501    0 -0.00000000000E+00 -0.00000000000E+00 -0.95473704925E+02  0.95473704925E+02  0.00000000000E+00 0. -1.
    9000006    2    1    2  501    0  0.00000000000E+00  0.00000000000E+00  0.90452629508E+03  0.10954737049E+04  0.61797639089E+03 0.  0.
         13    1    3    3    0    0 -0.16583100544E+03 -0.20067846262E+03  0.74730603116E+03  0.79135205309E+03  0.00000000000E+00 0. -1.
          2    1    3    3  501    0  0.16583100544E+03  0.20067846262E+03  0.15722026392E+03  0.30412165183E+03  0.00000000000E+00 0. -1.
<mgrwt>
<rscale>  0 0.61797639E+03</rscale>
<asrwt>0</asrwt>
<pdfrwt beam="1">0</pdfrwt>
<pdfrwt beam="2">  1        2 0.34717784E+00 0.61797639E+03</pdfrwt>
<totfact> 0.62425883E+00</totfact>
</mgrwt>
</event>
<event>
 5    1  0.2344661E-004  0.6478232E+03  0.7818608E-02  0.9810872E-01
         13   -1    0    0    0    0  0.00000000000E+00  0.00000000000E+00  0.10000000000E+04  0.10000000000E+04  0.00000000000E+00 0. -1.
          2   -1    0    0  501    0 -0.00000000000E+00 -0.00000000000E+00 -0.10491872576E+03  0.10491872576E+03  0.00000000000E+00 0. -1.
    9000006    2    1    2  501    0  0.00000000000E+00  0.00000000000E+00  0.89508127424E+03  0.11049187258E+04  0.64782320353E+03 0.  0.
         13    1    3    3    0    0  0.34760483819E+02  0.29038032386E+03  0.68503833386E+03  0.74485336985E+03  0.00000000000E+00 0. -1.
          2    1    3    3  501    0 -0.34760483819E+02 -0.29038032386E+03  0.21004294038E+03  0.36006535590E+03  0.00000000000E+00 0. -1.
<mgrwt>
<rscale>  0 0.64782320E+03</rscale>
<asrwt>0</asrwt>
<pdfrwt beam="1">0</pdfrwt>
<pdfrwt beam="2">  1        2 0.38152344E+00 0.64782320E+03</pdfrwt>
<totfact> 0.46669973E+00</totfact>
</mgrwt>
</event>
<event>
 5    1  0.2344661E-004  0.6535685E+03  0.7818608E-02  0.9800106E-01
         13   -1    0    0    0    0  0.00000000000E+00  0.00000000000E+00  0.10000000000E+04  0.10000000000E+04  0.00000000000E+00 0. -1.
          2   -1    0    0  501    0 -0.00000000000E+00 -0.00000000000E+00 -0.10678795739E+03  0.10678795739E+03  0.00000000000E+00 0. -1.
    9000006    2    1    2  501    0  0.00000000000E+00  0.00000000000E+00  0.89321204261E+03  0.11067879574E+04  0.65356853470E+03 0.  0.
         13    1    3    3    0    0  0.31306649981E+03 -0.75159003319E+02  0.35188687376E+03  0.47695270312E+03  0.00000000000E+00 0. -1.
          2    1    3    3  501    0 -0.31306649981E+03  0.75159003319E+02  0.54132516886E+03  0.62983525427E+03  0.00000000000E+00 0. -1.
<mgrwt>
<rscale>  0 0.65356853E+03</rscale>
<asrwt>0</asrwt>
<pdfrwt beam="1">0</pdfrwt>
<pdfrwt beam="2">  1        2 0.38832066E+00 0.65356853E+03</pdfrwt>
<totfact> 0.44021576E+00</totfact>
</mgrwt>
</event>
<event>
 5    1  0.2344661E-004  0.6558708E+03  0.7818608E-02  0.9795825E-01
         13   -1    0    0    0    0  0.00000000000E+00  0.00000000000E+00  0.10000000000E+04  0.10000000000E+04  0.00000000000E+00 0. -1.
          2   -1    0    0  501    0 -0.00000000000E+00 -0.00000000000E+00 -0.10754162006E+03  0.10754162006E+03  0.00000000000E+00 0. -1.
    9000006    2    1    2  501    0  0.00000000000E+00  0.00000000000E+00  0.89245837994E+03  0.11075416201E+04  0.65587078014E+03 0.  0.
         13    1    3    3    0    0  0.16417011425E+03 -0.26201289983E+03  0.26171644643E+03  0.40509021763E+03  0.00000000000E+00 0. -1.
          2    1    3    3  501    0 -0.16417011425E+03  0.26201289983E+03  0.63074193351E+03  0.70245140243E+03  0.00000000000E+00 0. -1.
<mgrwt>
<rscale>  0 0.65587078E+03</rscale>
<asrwt>0</asrwt>
<pdfrwt beam="1">0</pdfrwt>
<pdfrwt beam="2">  1        2 0.39106126E+00 0.65587078E+03</pdfrwt>
<totfact> 0.42992831E+00</totfact>
</mgrwt>
</event>
<event>
 5    1  0.2344661E-004  0.5066367E+03  0.7818608E-02  0.1012061E+00
         13   -1    0    0    0    0  0.00000000000E+00  0.00000000000E+00  0.10000000000E+04  0.10000000000E+04  0.00000000000E+00 0. -1.
          2   -1    0    0  501    0 -0.00000000000E+00 -0.00000000000E+00 -0.64170184523E+02  0.64170184523E+02  0.00000000000E+00 0. -1.
    9000006    2    1    2  501    0  0.00000000000E+00  0.00000000000E+00  0.93582981548E+03  0.10641701845E+04  0.50663669241E+03 0.  0.
         13    1    3    3    0    0 -0.17485573460E+03 -0.17243411296E+03  0.59845023915E+03  0.64687768548E+03  0.00000000000E+00 0. -1.
          4    1    3    3  501    0  0.17485573460E+03  0.17243411296E+03  0.33737957633E+03  0.41729249905E+03  0.00000000000E+00 0. -1.
<mgrwt>
<rscale>  0 0.50663669E+03</rscale>
<asrwt>0</asrwt>
<pdfrwt beam="1">0</pdfrwt>
<pdfrwt beam="2">  1        2 0.23334662E+00 0.50663669E+03</pdfrwt>
<totfact> 0.16009928E+01</totfact>
</mgrwt>
</event>
<event>
 5    1  0.2344661E-004  0.6512373E+03  0.7818608E-02  0.9804460E-01
         13   -1    0    0    0    0  0.00000000000E+00  0.00000000000E+00  0.10000000000E+04  0.10000000000E+04  0.00000000000E+00 0. -1.
          2   -1    0    0  501    0 -0.00000000000E+00 -0.00000000000E+00 -0.10602751773E+03  0.10602751773E+03  0.00000000000E+00 0. -1.
    9000006    2    1    2  501    0  0.00000000000E+00  0.00000000000E+00  0.89397248227E+03  0.11060275177E+04  0.65123733840E+03 0.  0.
         13    1    3    3    0    0  0.25587772547E+03 -0.19824776781E+03  0.50707823932E+03  0.60158451495E+03  0.00000000000E+00 0. -1.
          2    1    3    3  501    0 -0.25587772547E+03  0.19824776781E+03  0.38689424295E+03  0.50444300279E+03  0.00000000000E+00 0. -1.
<mgrwt>
<rscale>  0 0.65123734E+03</rscale>
<asrwt>0</asrwt>
<pdfrwt beam="1">0</pdfrwt>
<pdfrwt beam="2">  1        2 0.38555542E+00 0.65123734E+03</pdfrwt>
<totfact> 0.45082095E+00</totfact>
</mgrwt>
</event>
<event>
 5    1  0.2344661E-004  0.6664245E+03  0.7818608E-02  0.9776439E-01
         13   -1    0    0    0    0  0.00000000000E+00  0.00000000000E+00  0.10000000000E+04  0.10000000000E+04  0.00000000000E+00 0. -1.
          2   -1    0    0  501    0 -0.00000000000E+00 -0.00000000000E+00 -0.11103041124E+03  0.11103041124E+03  0.00000000000E+00 0. -1.
    9000006    2    1    2  501    0  0.00000000000E+00  0.00000000000E+00  0.88896958876E+03  0.11110304112E+04  0.66642452308E+03 0.  0.
         13    1    3    3    0    0 -0.11099299871E+03  0.15923896141E+03 -0.70452326281E+01  0.19423214949E+03  0.00000000000E+00 0. -1.
          2    1    3    3  501    0  0.11099299871E+03 -0.15923896141E+03  0.89601482139E+03  0.91679826175E+03  0.00000000000E+00 0. -1.
<mgrwt>
<rscale>  0 0.66642452E+03</rscale>
<asrwt>0</asrwt>
<pdfrwt beam="1">0</pdfrwt>
<pdfrwt beam="2">  1        2 0.40374780E+00 0.66642452E+03</pdfrwt>
<totfact> 0.38507506E+00</totfact>
</mgrwt>
</event>
<event>
 5    1  0.2344661E-004  0.6497292E+03  0.7818608E-02  0.9807287E-01
         13   -1    0    0    0    0  0.00000000000E+00  0.00000000000E+00  0.10000000000E+04  0.10000000000E+04  0.00000000000E+00 0. -1.
          2   -1    0    0  501    0 -0.00000000000E+00 -0.00000000000E+00 -0.10553700255E+03  0.10553700255E+03  0.00000000000E+00 0. -1.
    9000006    2    1    2  501    0  0.00000000000E+00  0.00000000000E+00  0.89446299745E+03  0.11055370026E+04  0.64972918221E+03 0.  0.
         13    1    3    3    0    0 -0.20562101840E+03  0.11212805380E+03  0.83030104869E+03  0.86270072164E+03  0.00000000000E+00 0. -1.
          4    1    3    3  501    0  0.20562101840E+03 -0.11212805380E+03  0.64161948754E+02  0.24283628091E+03  0.00000000000E+00 0. -1.
<mgrwt>
<rscale>  0 0.64972918E+03</rscale>
<asrwt>0</asrwt>
<pdfrwt beam="1">0</pdfrwt>
<pdfrwt beam="2">  1        2 0.38377173E+00 0.64972918E+03</pdfrwt>
<totfact> 0.45778402E+00</totfact>
</mgrwt>
</event>
<event>
 5    1  0.2344661E-004  0.6425630E+03  0.7818608E-02  0.9820835E-01
         13   -1    0    0    0    0  0.00000000000E+00  0.00000000000E+00  0.10000000000E+04  0.10000000000E+04  0.00000000000E+00 0. -1.
          2   -1    0    0  501    0 -0.00000000000E+00 -0.00000000000E+00 -0.10322178958E+03  0.10322178958E+03  0.00000000000E+00 0. -1.
    9000006    2    1    2  501    0  0.00000000000E+00  0.00000000000E+00  0.89677821042E+03  0.11032217896E+04  0.64256296059E+03 0.  0.
         13    1    3    3    0    0 -0.13206901376E+03  0.16621212928E+03  0.86242076672E+03  0.88816568004E+03  0.00000000000E+00 0. -1.
          4    1    3    3  501    0  0.13206901376E+03 -0.16621212928E+03  0.34357443696E+02  0.21505610954E+03  0.00000000000E+00 0. -1.
<mgrwt>
<rscale>  0 0.64256296E+03</rscale>
<asrwt>0</asrwt>
<pdfrwt beam="1">0</pdfrwt>
<pdfrwt beam="2">  1        2 0.37535275E+00 0.64256296E+03</pdfrwt>
<totfact> 0.49198806E+00</totfact>
</mgrwt>
</event>
<event>
 5    1  0.2344661E-004  0.6621293E+03  0.7818608E-02  0.9784282E-01
         13   -1    0    0    0    0  0.00000000000E+00  0.00000000000E+00  0.10000000000E+04  0.10000000000E+04  0.00000000000E+00 0. -1.
          2   -1    0    0  501    0 -0.00000000000E+00 -0.00000000000E+00 -0.10960379211E+03  0.10960379211E+03  0.00000000000E+00 0. -1.
    9000006    2    1    2  501    0  0.00000000000E+00  0.00000000000E+00  0.89039620789E+03  0.11096037921E+04  0.66212926869E+03 0.  0.
         13    1    3    3    0    0 -0.20493752669E+03 -0.15027854668E+03  0.89622823886E+02  0.26947222863E+03  0.00000000000E+00 0. -1.
          2    1    3    3  501    0  0.20493752669E+03  0.15027854668E+03  0.80077338400E+03  0.84013156349E+03  0.00000000000E+00 0. -1.
<mgrwt>
<rscale>  0 0.66212927E+03</rscale>
<asrwt>0</asrwt>
<pdfrwt beam="1">0</pdfrwt>
<pdfrwt beam="2">  1        2 0.39856008E+00 0.66212927E+03</pdfrwt>
<totfact> 0.40288037E+00</totfact>
</mgrwt>
</event>
<event>
 5    1  0.2344661E-004  0.6568998E+03  0.7818608E-02  0.9793918E-01
         13   -1    0    0    0    0  0.00000000000E+00  0.00000000000E+00  0.10000000000E+04  0.10000000000E+04  0.00000000000E+00 0. -1.
          2   -1    0    0  501    0 -0.00000000000E+00 -0.00000000000E+00 -0.10787935233E+03  0.10787935233E+03  0.00000000000E+00 0. -1.
    9000006    2    1    2  501    0  0.00000000000E+00  0.00000000000E+00  0.89212064767E+03  0.11078793523E+04  0.65689984726E+03 0.  0.
         13    1    3    3    0    0 -0.16738649090E+03  0.68596362501E+02  0.90841381033E+03  0.92625015470E+03  0.00000000000E+00 0. -1.
          4    1    3    3  501    0  0.16738649090E+03 -0.68596362501E+02 -0.16293162657E+02  0.18162919763E+03  0.00000000000E+00 0. -1.
<mgrwt>
<rscale>  0 0.65689985E+03</rscale>
<asrwt>0</asrwt>
<pdfrwt beam="1">0</pdfrwt>
<pdfrwt beam="2">  1        2 0.39228938E+00 0.65689985E+03</pdfrwt>
<totfact> 0.42538916E+00</totfact>
</mgrwt>
</event>
<event>
 5    1  0.2344661E-004  0.6634518E+03  0.7818608E-02  0.9781860E-01
         13   -1    0    0    0    0  0.00000000000E+00  0.00000000000E+00  0.10000000000E+04  0.10000000000E+04  0.00000000000E+00 0. -1.
          2   -1    0    0  501    0 -0.00000000000E+00 -0.00000000000E+00 -0.11004208103E+03  0.11004208103E+03  0.00000000000E+00 0. -1.
    9000006    2    1    2  501    0  0.00000000000E+00  0.00000000000E+00  0.88995791897E+03  0.11100420810E+04  0.66345182502E+03 0.  0.
         13    1    3    3    0    0  0.74501405562E+02  0.21232414063E+03  0.37166845972E+02  0.22806440880E+03  0.00000000000E+00 0. -1.
          2    1    3    3  501    0 -0.74501405562E+02 -0.21232414063E+03  0.85279107300E+03  0.88197767223E+03  0.00000000000E+00 0. -1.
<mgrwt>
<rscale>  0 0.66345183E+03</rscale>
<asrwt>0</asrwt>
<pdfrwt beam="1">0</pdfrwt>
<pdfrwt beam="2">  1        2 0.40015387E+00 0.66345183E+03</pdfrwt>
<totfact> 0.39733315E+00</totfact>
</mgrwt>
</event>
<event>
 5    1  0.2344661E-004  0.6290810E+03  0.7818608E-02  0.9846844E-01
         13   -1    0    0    0    0  0.00000000000E+00  0.00000000000E+00  0.10000000000E+04  0.10000000000E+04  0.00000000000E+00 0. -1.
          2   -1    0    0  501    0 -0.00000000000E+00 -0.00000000000E+00 -0.98935712464E+02  0.98935712464E+02  0.00000000000E+00 0. -1.
    9000006    2    1    2  501    0  0.00000000000E+00  0.00000000000E+00  0.90106428754E+03  0.10989357125E+04  0.62908095652E+03 0.  0.
         13    1    3    3    0    0 -0.13242332699E+03  0.21159580886E+02  0.94755878294E+03  0.95700120821E+03  0.00000000000E+00 0. -1.
          4    1    3    3  501    0  0.13242332699E+03 -0.21159580886E+02 -0.46494495406E+02  0.14193450425E+03  0.00000000000E+00 0. -1.
<mgrwt>
<rscale>  0 0.62908096E+03</rscale>
<asrwt>0</asrwt>
<pdfrwt beam="1">0</pdfrwt>
<pdfrwt beam="2">  1        2 0.35976699E+00 0.62908096E+03</pdfrwt>
<totfact> 0.56155243E+00</totfact>
</mgrwt>
</event>
<event>
 5    1  0.2344661E-004  0.6508707E+03  0.7818608E-02  0.9805147E-01
         13   -1    0    0    0    0  0.00000000000E+00  0.00000000000E+00  0.10000000000E+04  0.10000000000E+04  0.00000000000E+00 0. -1.
          2   -1    0    0  501    0 -0.00000000000E+00 -0.00000000000E+00 -0.10590817603E+03  0.10590817603E+03  0.00000000000E+00 0. -1.
    9000006    2    1    2  501    0  0.00000000000E+00  0.00000000000E+00  0.89409182397E+03  0.11059081760E+04  0.65087072766E+03 0.  0.
         13    1    3    3    0    0  0.24518506114E+03 -0.23985849964E+02  0.80835249761E+03  0.84505904859E+03  0.00000000000E+00 0. -1.
          2    1    3    3  501    0 -0.24518506114E+03  0.23985849964E+02  0.85739326353E+02  0.26084912744E+03  0.00000000000E+00 0. -1.
<mgrwt>
<rscale>  0 0.65087073E+03</rscale>
<asrwt>0</asrwt>
<pdfrwt beam="1">0</pdfrwt>
<pdfrwt beam="2">  1        2 0.38512145E+00 0.65087073E+03</pdfrwt>
<totfact> 0.45250616E+00</totfact>
</mgrwt>
</event>
<event>
 5    1  0.2344661E-004  0.6511706E+03  0.7818608E-02  0.9804585E-01
         13   -1    0    0    0    0  0.00000000000E+00  0.00000000000E+00  0.10000000000E+04  0.10000000000E+04  0.00000000000E+00 0. -1.
          2   -1    0    0  501    0 -0.00000000000E+00 -0.00000000000E+00 -0.10600580194E+03  0.10600580194E+03  0.00000000000E+00 0. -1.
    9000006    2    1    2  501    0  0.00000000000E+00  0.00000000000E+00  0.89399419806E+03  0.11060058019E+04  0.65117064411E+03 0.  0.
         13    1    3    3    0    0 -0.15366716030E+03  0.20659359343E+03  0.78546665001E+03  0.82659081006E+03  0.00000000000E+00 0. -1.
          2    1    3    3  501    0  0.15366716030E+03 -0.20659359343E+03  0.10852754806E+03  0.27941499188E+03  0.00000000000E+00 0. -1.
<mgrwt>
<rscale>  0 0.65117064E+03</rscale>
<asrwt>0</asrwt>
<pdfrwt beam="1">0</pdfrwt>
<pdfrwt beam="2">  1        2 0.38547646E+00 0.65117064E+03</pdfrwt>
<totfact> 0.45112717E+00</totfact>
</mgrwt>
</event>
<event>
 5    1  0.2344661E-004  0.6411229E+03  0.7818608E-02  0.9823581E-01
         13   -1    0    0    0    0  0.00000000000E+00  0.00000000000E+00  0.10000000000E+04  0.10000000000E+04  0.00000000000E+00 0. -1.
          2   -1    0    0  501    0 -0.00000000000E+00 -0.00000000000E+00 -0.10275963655E+03  0.10275963655E+03  0.00000000000E+00 0. -1.
    9000006    2    1    2  501    0  0.00000000000E+00  0.00000000000E+00  0.89724036345E+03  0.11027596365E+04  0.64112287917E+03 0.  0.
         13    1    3    3    0    0 -0.26911787445E+03  0.17210253279E+03  0.49464299575E+03  0.58882544560E+03  0.00000000000E+00 0. -1.
          2    1    3    3  501    0  0.26911787445E+03 -0.17210253279E+03  0.40259736770E+03  0.51393419094E+03  0.00000000000E+00 0. -1.
<mgrwt>
<rscale>  0 0.64112288E+03</rscale>
<asrwt>0</asrwt>
<pdfrwt beam="1">0</pdfrwt>
<pdfrwt beam="2">  1        2 0.37367219E+00 0.64112288E+03</pdfrwt>
<totfact> 0.49908912E+00</totfact>
</mgrwt>
</event>
<event>
 5    1  0.2344661E-004  0.6685620E+03  0.7818608E-02  0.9772559E-01
         13   -1    0    0    0    0  0.00000000000E+00  0.00000000000E+00  0.10000000000E+04  0.10000000000E+04  0.00000000000E+00 0. -1.
          2   -1    0    0  501    0 -0.00000000000E+00 -0.00000000000E+00 -0.11174379998E+03  0.11174379998E+03  0.00000000000E+00 0. -1.
    9000006    2    1    2  501    0  0.00000000000E+00  0.00000000000E+00  0.88825620002E+03  0.11117438000E+04  0.66856203895E+03 0.  0.
         13    1    3    3    0    0  0.10153430509E+03  0.29491077083E+03  0.64410531518E+03  0.71564882093E+03  0.00000000000E+00 0. -1.
          4    1    3    3  501    0 -0.10153430509E+03 -0.29491077083E+03  0.24415088484E+03  0.39609497905E+03  0.00000000000E+00 0. -1.
<mgrwt>
<rscale>  0 0.66856204E+03</rscale>
<asrwt>0</asrwt>
<pdfrwt beam="1">0</pdfrwt>
<pdfrwt beam="2">  1        2 0.40634195E+00 0.66856204E+03</pdfrwt>
<totfact> 0.37643872E+00</totfact>
</mgrwt>
</event>
<event>
 5    1  0.2344661E-004  0.6580982E+03  0.7818608E-02  0.9791701E-01
         13   -1    0    0    0    0  0.00000000000E+00  0.00000000000E+00  0.10000000000E+04  0.10000000000E+04  0.00000000000E+00 0. -1.
          2   -1    0    0  501    0 -0.00000000000E+00 -0.00000000000E+00 -0.10827331816E+03  0.10827331816E+03  0.00000000000E+00 0. -1.
    9000006    2    1    2  501    0  0.00000000000E+00  0.00000000000E+00  0.89172668184E+03  0.11082733182E+04  0.65809822415E+03 0.  0.
         13    1    3    3    0    0  0.23198673814E+03 -0.22184659048E+03  0.56776332288E+03  0.65221848118E+03  0.00000000000E+00 0. -1.
          2    1    3    3  501    0 -0.23198673814E+03  0.22184659048E+03  0.32396335896E+03  0.45605483698E+03  0.00000000000E+00 0. -1.
<mgrwt>
<rscale>  0 0.65809822E+03</rscale>
<asrwt>0</asrwt>
<pdfrwt beam="1">0</pdfrwt>
<pdfrwt beam="2">  1        2 0.39372199E+00 0.65809822E+03</pdfrwt>
<totfact> 0.42014891E+00</totfact>
</mgrwt>
</event>
<event>
 5    1  0.2344661E-004  0.5994310E+03  0.7818608E-02  0.9906587E-01
         13   -1    0    0    0    0  0.00000000000E+00  0.00000000000E+00  0.10000000000E+04  0.10000000000E+04  0.00000000000E+00 0. -1.
          2   -1    0    0  501    0 -0.00000000000E+00 -0.00000000000E+00 -0.89829370884E+02  0.89829370884E+02  0.00000000000E+00 0. -1.
    9000006    2    1    2  501    0  0.00000000000E+00  0.00000000000E+00  0.91017062912E+03  0.10898293709E+04  0.59943096645E+03 0.  0.
         13    1    3    3    0    0  0.22662544906E+03 -0.38850220786E+02  0.80462043560E+03  0.83682882312E+03  0.00000000000E+00 0. -1.
          2    1    3    3  501    0 -0.22662544906E+03  0.38850220786E+02  0.10555019352E+03  0.25300054777E+03  0.00000000000E+00 0. -1.
<mgrwt>
<rscale>  0 0.59943097E+03</rscale>
<asrwt>0</asrwt>
<pdfrwt beam="1">0</pdfrwt>
<pdfrwt beam="2">  1        2 0.32665295E+00 0.59943097E+03</pdfrwt>
<totfact> 0.74073430E+00</totfact>
</mgrwt>
</event>
<event>
 5    1  0.2344661E-004  0.6486052E+03  0.7818608E-02  0.9809400E-01
         13   -1    0    0    0    0  0.00000000000E+00  0.00000000000E+00  0.10000000000E+04  0.10000000000E+04  0.00000000000E+00 0. -1.
          2   -1    0    0  501    0 -0.00000000000E+00 -0.00000000000E+00 -0.10517217295E+03  0.10517217295E+03  0.00000000000E+00 0. -1.
    9000006    2    1    2  501    0  0.00000000000E+00  0.00000000000E+00  0.89482782705E+03  0.11051721730E+04  0.64860518947E+03 0.  0.
         13    1    3    3    0    0  0.31535432872E+03 -0.66381196932E+02  0.38556938758E+03  0.50251225715E+03  0.00000000000E+00 0. -1.
          4    1    3    3  501    0 -0.31535432872E+03  0.66381196932E+02  0.50925843947E+03  0.60265991580E+03  0.00000000000E+00 0. -1.
<mgrwt>
<rscale>  0 0.64860519E+03</rscale>
<asrwt>0</asrwt>
<pdfrwt beam="1">0</pdfrwt>
<pdfrwt beam="2">  1        2 0.38244507E+00 0.64860519E+03</pdfrwt>
<totfact> 0.46302606E+00</totfact>
</mgrwt>
</event>
<event>
 5    1  0.2344661E-004  0.6388682E+03  0.7818608E-02  0.9827894E-01
         13   -1    0    0    0    0  0.00000000000E+00  0.00000000000E+00  0.10000000000E+04  0.10000000000E+04  0.00000000000E+00 0. -1.
          2   -1    0    0  501    0 -0.00000000000E+00 -0.00000000000E+00 -0.10203813584E+03  0.10203813584E+03  0.00000000000E+00 0. -1.
    9000006    2    1    2  501    0  0.00000000000E+00  0.00000000000E+00  0.89796186416E+03  0.11020381358E+04  0.63886817369E+03 0.  0.
         13    1    3    3    0    0  0.17362197335E+03 -0.13163850817E+03  0.85192229424E+03  0.87934343796E+03  0.00000000000E+00 0. -1.
          4    1    3    3  501    0 -0.17362197335E+03  0.13163850817E+03  0.46039569920E+02  0.22269469787E+03  0.00000000000E+00 0. -1.
<mgrwt>
<rscale>  0 0.63886817E+03</rscale>
<asrwt>0</asrwt>
<pdfrwt beam="1">0</pdfrwt>
<pdfrwt beam="2">  1        2 0.37104855E+00 0.63886817E+03</pdfrwt>
<totfact> 0.51036266E+00</totfact>
</mgrwt>
</event>
<event>
 5    1  0.2344661E-004  0.6484458E+03  0.7818608E-02  0.9809700E-01
         13   -1    0    0    0    0  0.00000000000E+00  0.00000000000E+00  0.10000000000E+04  0.10000000000E+04  0.00000000000E+00 0. -1.
          2   -1    0    0  501    0 -0.00000000000E+00 -0.00000000000E+00 -0.10512048537E+03  0.10512048537E+03  0.00000000000E+00 0. -1.
    9000006    2    1    2  501    0  0.00000000000E+00  0.00000000000E+00  0.89487951463E+03  0.11051204854E+04  0.64844578915E+03 0.  0.
         13    1    3    3    0    0 -0.22097451410E+03 -0.19320191967E+03  0.68213174792E+03  0.74260382383E+03  0.00000000000E+00 0. -1.
          2    1    3    3  501    0  0.22097451410E+03  0.19320191967E+03  0.21274776672E+03  0.36251666154E+03  0.00000000000E+00 0. -1.
<mgrwt>
<rscale>  0 0.64844579E+03</rscale>
<asrwt>0</asrwt>
<pdfrwt beam="1">0</pdfrwt>
<pdfrwt beam="2">  1        2 0.38225712E+00 0.64844579E+03</pdfrwt>
<totfact> 0.46377312E+00</totfact>
</mgrwt>
</event>
<event>
 5    1  0.2344661E-004  0.5026168E+03  0.7818608E-02  0.1013098E+00
         13   -1    0    0    0    0  0.00000000000E+00  0.00000000000E+00  0.10000000000E+04  0.10000000000E+04  0.00000000000E+00 0. -1.
          2   -1    0    0  501    0 -0.00000000000E+00 -0.00000000000E+00 -0.63155906804E+02  0.63155906804E+02  0.00000000000E+00 0. -1.
    9000006    2    1    2  501    0  0.00000000000E+00  0.00000000000E+00  0.93684409320E+03  0.10631559068E+04  0.50261677968E+03 0.  0.
         13    1    3    3    0    0  0.10909599259E+03  0.51739115710E+02  0.22186049684E+01  0.12076337981E+03  0.00000000000E+00 0. -1.
          4    1    3    3  501    0 -0.10909599259E+03 -0.51739115710E+02  0.93462548823E+03  0.94239252700E+03  0.00000000000E+00 0. -1.
<mgrwt>
<rscale>  0 0.50261678E+03</rscale>
<asrwt>0</asrwt>
<pdfrwt beam="1">0</pdfrwt>
<pdfrwt beam="2">  1        2 0.22965833E+00 0.50261678E+03</pdfrwt>
<totfact> 0.16511676E+01</totfact>
</mgrwt>
</event>
<event>
 5    1  0.2344661E-004  0.6637893E+03  0.7818608E-02  0.9781243E-01
         13   -1    0    0    0    0  0.00000000000E+00  0.00000000000E+00  0.10000000000E+04  0.10000000000E+04  0.00000000000E+00 0. -1.
          2   -1    0    0  501    0 -0.00000000000E+00 -0.00000000000E+00 -0.11015404444E+03  0.11015404444E+03  0.00000000000E+00 0. -1.
    9000006    2    1    2  501    0  0.00000000000E+00  0.00000000000E+00  0.88984595556E+03  0.11101540444E+04  0.66378925703E+03 0.  0.
         13    1    3    3    0    0 -0.21059652731E+02 -0.18465456690E+03 -0.14964845757E+02  0.18645311652E+03  0.00000000000E+00 0. -1.
          4    1    3    3  501    0  0.21059652731E+02  0.18465456690E+03  0.90481080132E+03  0.92370092792E+03  0.00000000000E+00 0. -1.
<mgrwt>
<rscale>  0 0.66378926E+03</rscale>
<asrwt>0</asrwt>
<pdfrwt beam="1">0</pdfrwt>
<pdfrwt beam="2">  1        2 0.40056101E+00 0.66378926E+03</pdfrwt>
<totfact> 0.39592712E+00</totfact>
</mgrwt>
</event>
<event>
 5    1  0.2344661E-004  0.6577714E+03  0.7818608E-02  0.9792305E-01
         13   -1    0    0    0    0  0.00000000000E+00  0.00000000000E+00  0.10000000000E+04  0.10000000000E+04  0.00000000000E+00 0. -1.
          2   -1    0    0  501    0 -0.00000000000E+00 -0.00000000000E+00 -0.10816580012E+03  0.10816580012E+03  0.00000000000E+00 0. -1.
    9000006    2    1    2  501    0  0.00000000000E+00  0.00000000000E+00  0.89183419988E+03  0.11081658001E+04  0.65777138923E+03 0.  0.
         13    1    3    3    0    0 -0.11281309196E+02 -0.32829790991E+03  0.41880321011E+03  0.53226207303E+03  0.00000000000E+00 0. -1.
          4    1    3    3  501    0  0.11281309196E+02  0.32829790991E+03  0.47303098977E+03  0.57590372709E+03  0.00000000000E+00 0. -1.
<mgrwt>
<rscale>  0 0.65777139E+03</rscale>
<asrwt>0</asrwt>
<pdfrwt beam="1">0</pdfrwt>
<pdfrwt beam="2">  1        2 0.39333101E+00 0.65777139E+03</pdfrwt>
<totfact> 0.42157323E+00</totfact>
</mgrwt>
</event>
<event>
 5    1  0.2344661E-004  0.5307776E+03  0.7818608E-02  0.1006044E+00
         13   -1    0    0    0    0  0.00000000000E+00  0.00000000000E+00  0.10000000000E+04  0.10000000000E+04  0.00000000000E+00 0. -1.
          2   -1    0    0  501    0 -0.00000000000E+00 -0.00000000000E+00 -0.70431205818E+02  0.70431205818E+02  0.00000000000E+00 0. -1.
    9000006    2    1    2  501    0  0.00000000000E+00  0.00000000000E+00  0.92956879418E+03  0.10704312058E+04  0.53077756478E+03 0.  0.
         13    1    3    3    0    0  0.19725262565E+03  0.12316150282E+03  0.20688149349E+03  0.31125119510E+03  0.00000000000E+00 0. -1.
          4    1    3    3  501    0 -0.19725262565E+03 -0.12316150282E+03  0.72268730069E+03  0.75918001072E+03  0.00000000000E+00 0. -1.
<mgrwt>
<rscale>  0 0.53077756E+03</rscale>
<asrwt>0</asrwt>
<pdfrwt beam="1">0</pdfrwt>
<pdfrwt beam="2">  1        2 0.25611402E+00 0.53077756E+03</pdfrwt>
<totfact> 0.13252170E+01</totfact>
</mgrwt>
</event>
<event>
 5    1  0.2344661E-004  0.6456424E+03  0.7818608E-02  0.9814991E-01
         13   -1    0    0    0    0  0.00000000000E+00  0.00000000000E+00  0.10000000000E+04  0.10000000000E+04  0.00000000000E+00 0. -1.
          2   -1    0    0  501    0 -0.00000000000E+00 -0.00000000000E+00 -0.10421351318E+03  0.10421351318E+03  0.00000000000E+00 0. -1.
    9000006    2    1    2  501    0  0.00000000000E+00  0.00000000000E+00  0.89578648682E+03  0.11042135132E+04  0.64564235666E+03 0.  0.
         13    1    3    3    0    0  0.14924899810E+03  0.23667027160E+03  0.17251853713E+03  0.32871070342E+03  0.00000000000E+00 0. -1.
          4    1    3    3  501    0 -0.14924899810E+03 -0.23667027160E+03  0.72326794969E+03  0.77550280976E+03  0.00000000000E+00 0. -1.
<mgrwt>
<rscale>  0 0.64564236E+03</rscale>
<asrwt>0</asrwt>
<pdfrwt beam="1">0</pdfrwt>
<pdfrwt beam="2">  1        2 0.37895903E+00 0.64564236E+03</pdfrwt>
<totfact> 0.47706158E+00</totfact>
</mgrwt>
</event>
<event>
 5    1  0.2344661E-004  0.6438710E+03  0.7818608E-02  0.9818348E-01
         13   -1    0    0    0    0  0.00000000000E+00  0.00000000000E+00  0.10000000000E+04  0.10000000000E+04  0.00000000000E+00 0. -1.
          2   -1    0    0  501    0 -0.00000000000E+00 -0.00000000000E+00 -0.10364246070E+03  0.10364246070E+03  0.00000000000E+00 0. -1.
    9000006    2    1    2  501    0  0.00000000000E+00  0.00000000000E+00  0.89635753930E+03  0.11036424607E+04  0.64387098303E+03 0.  0.
         13    1    3    3    0    0  0.29291475746E+02  0.29390590993E+03  0.22864486685E+03  0.37351994536E+03  0.00000000000E+00 0. -1.
          4    1    3    3  501    0 -0.29291475746E+02 -0.29390590993E+03  0.66771267246E+03  0.73012251534E+03  0.00000000000E+00 0. -1.
<mgrwt>
<rscale>  0 0.64387098E+03</rscale>
<asrwt>0</asrwt>
<pdfrwt beam="1">0</pdfrwt>
<pdfrwt beam="2">  1        2 0.37688247E+00 0.64387098E+03</pdfrwt>
<totfact> 0.48560523E+00</totfact>
</mgrwt>
</event>
<event>
 5    1  0.2344661E-004  0.6542627E+03  0.7818608E-02  0.9798813E-01
         13   -1    0    0    0    0  0.00000000000E+00  0.00000000000E+00  0.10000000000E+04  0.10000000000E+04  0.00000000000E+00 0. -1.
          2   -1    0    0  501    0 -0.00000000000E+00 -0.00000000000E+00 -0.10701493587E+03  0.10701493587E+03  0.00000000000E+00 0. -1.
    9000006    2    1    2  501    0  0.00000000000E+00  0.00000000000E+00  0.89298506413E+03  0.11070149359E+04  0.65426274803E+03 0.  0.
         13    1    3    3    0    0 -0.13829516256E+03 -0.82451595306E+02  0.92831598082E+03  0.94217534345E+03  0.00000000000E+00 0. -1.
          2    1    3    3  501    0  0.13829516256E+03  0.82451595306E+02 -0.35330916683E+02  0.16483959242E+03  0.00000000000E+00 0. -1.
<mgrwt>
<rscale>  0 0.65426275E+03</rscale>
<asrwt>0</asrwt>
<pdfrwt beam="1">0</pdfrwt>
<pdfrwt beam="2">  1        2 0.38914604E+00 0.65426275E+03</pdfrwt>
<totfact> 0.43709435E+00</totfact>
</mgrwt>
</event>
<event>
 5    1  0.2344661E-004  0.6543346E+03  0.7818608E-02  0.9798679E-01
         13   -1    0    0    0    0  0.00000000000E+00  0.00000000000E+00  0.10000000000E+04  0.10000000000E+04  0.00000000000E+00 0. -1.
          2   -1    0    0  501    0 -0.00000000000E+00 -0.00000000000E+00 -0.10703845541E+03  0.10703845541E+03  0.00000000000E+00 0. -1.
    9000006    2    1    2  501    0  0.00000000000E+00  0.00000000000E+00  0.89296154459E+03  0.11070384554E+04  0.65433464041E+03 0.  0.
         13    1    3    3    0    0  0.24426960236E+02  0.31933631244E+03  0.33341609500E+03  0.46231877447E+03  0.00000000000E+00 0. -1.
          4    1    3    3  501    0 -0.24426960236E+02 -0.31933631244E+03  0.55954544959E+03  0.64471968094E+03  0.00000000000E+00 0. -1.
<mgrwt>
<rscale>  0 0.65433464E+03</rscale>
<asrwt>0</asrwt>
<pdfrwt beam="1">0</pdfrwt>
<pdfrwt beam="2">  1        2 0.38923157E+00 0.65433464E+03</pdfrwt>
<totfact> 0.43677205E+00</totfact>
</mgrwt>
</event>
<event>
 5    1  0.2344661E-004  0.6385741E+03  0.7818608E-02  0.9828458E-01
         13   -1    0    0    0    0  0.00000000000E+00  0.00000000000E+00  0.10000000000E+04  0.10000000000E+04  0.00000000000E+00 0. -1.
          2   -1    0    0  501    0 -0.00000000000E+00 -0.00000000000E+00 -0.10194421693E+03  0.10194421693E+03  0.00000000000E+00 0. -1.
    9000006    2    1    2  501    0  0.00000000000E+00  0.00000000000E+00  0.89805578307E+03  0.11019442169E+04  0.63857408944E+03 0.  0.
         13    1    3    3    0    0  0.26844831661E+03  0.16942060264E+03  0.50821426049E+03  0.59920745477E+03  0.00000000000E+00 0. -1.
          2    1    3    3  501    0 -0.26844831661E+03 -0.16942060264E+03  0.38984152259E+03  0.50273676216E+03  0.00000000000E+00 0. -1.
<mgrwt>
<rscale>  0 0.63857409E+03</rscale>
<asrwt>0</asrwt>
<pdfrwt beam="1">0</pdfrwt>
<pdfrwt beam="2">  1        2 0.37070703E+00 0.63857409E+03</pdfrwt>
<totfact> 0.51184718E+00</totfact>
</mgrwt>
</event>
<event>
 5    1  0.2344661E-004  0.6502784E+03  0.7818608E-02  0.9806257E-01
         13   -1    0    0    0    0  0.00000000000E+00  0.00000000000E+00  0.10000000000E+04  0.10000000000E+04  0.00000000000E+00 0. -1.
          2   -1    0    0  501    0 -0.00000000000E+00 -0.00000000000E+00 -0.10571549938E+03  0.10571549938E+03  0.00000000000E+00 0. -1.
    9000006    2    1    2  501    0  0.00000000000E+00  0.00000000000E+00  0.89428450062E+03  0.11057154994E+04  0.65027840001E+03 0.  0.
         13    1    3    3    0    0 -0.20870042877E+03 -0.20669487830E+03  0.21008289641E+03  0.36112804523E+03  0.00000000000E+00 0. -1.
          4    1    3    3  501    0  0.20870042877E+03  0.20669487830E+03  0.68420160421E+03  0.74458745415E+03  0.00000000000E+00 0. -1.
<mgrwt>
<rscale>  0 0.65027840E+03</rscale>
<asrwt>0</asrwt>
<pdfrwt beam="1">0</pdfrwt>
<pdfrwt beam="2">  1        2 0.38442081E+00 0.65027840E+03</pdfrwt>
<totfact> 0.45523897E+00</totfact>
</mgrwt>
</event>
<event>
 5    1  0.2344661E-004  0.6490909E+03  0.7818608E-02  0.9808487E-01
         13   -1    0    0    0    0  0.00000000000E+00  0.00000000000E+00  0.10000000000E+04  0.10000000000E+04  0.00000000000E+00 0. -1.
          2   -1    0    0  501    0 -0.00000000000E+00 -0.00000000000E+00 -0.10532973483E+03  0.10532973483E+03  0.00000000000E+00 0. -1.
    9000006    2    1    2  501    0  0.00000000000E+00  0.00000000000E+00  0.89467026517E+03  0.11053297348E+04  0.64909085597E+03 0.  0.
         13    1    3    3    0    0  0.15847816597E+03 -0.17293310287E+03  0.65384483642E+02  0.24350835275E+03  0.00000000000E+00 0. -1.
          2    1    3    3  501    0 -0.15847816597E+03  0.17293310287E+03  0.82928578153E+03  0.86182138208E+03  0.00000000000E+00 0. -1.
<mgrwt>
<rscale>  0 0.64909086E+03</rscale>
<asrwt>0</asrwt>
<pdfrwt beam="1">0</pdfrwt>
<pdfrwt beam="2">  1        2 0.38301803E+00 0.64909086E+03</pdfrwt>
<totfact> 0.46075549E+00</totfact>
</mgrwt>
</event>
<event>
 5    1  0.2344661E-004  0.6558560E+03  0.7818608E-02  0.9795852E-01
         13   -1    0    0    0    0  0.00000000000E+00  0.00000000000E+00  0.10000000000E+04  0.10000000000E+04  0.00000000000E+00 0. -1.
          2   -1    0    0  501    0 -0.00000000000E+00 -0.00000000000E+00 -0.10753678300E+03  0.10753678300E+03  0.00000000000E+00 0. -1.
    9000006    2    1    2  501    0  0.00000000000E+00  0.00000000000E+00  0.89246321700E+03  0.11075367830E+04  0.65585602992E+03 0.  0.
         13    1    3    3    0    0 -0.25277259796E+03  0.20667303015E+03  0.39475968108E+03  0.51229184405E+03  0.00000000000E+00 0. -1.
          4    1    3    3  501    0  0.25277259796E+03 -0.20667303015E+03  0.49770353592E+03  0.59524493895E+03  0.00000000000E+00 0. -1.
<mgrwt>
<rscale>  0 0.65585603E+03</rscale>
<asrwt>0</asrwt>
<pdfrwt beam="1">0</pdfrwt>
<pdfrwt beam="2">  1        2 0.39104367E+00 0.65585603E+03</pdfrwt>
<totfact> 0.42999363E+00</totfact>
</mgrwt>
</event>
<event>
 5    1  0.2344661E-004  0.6380041E+03  0.7818608E-02  0.9829553E-01
         13   -1    0    0    0    0  0.00000000000E+00  0.00000000000E+00  0.10000000000E+04  0.10000000000E+04  0.00000000000E+00 0. -1.
          2   -1    0    0  501    0 -0.00000000000E+00 -0.00000000000E+00 -0.10176230610E+03  0.10176230610E+03  0.00000000000E+00 0. -1.
    9000006    2    1    2  501    0  0.00000000000E+00  0.00000000000E+00  0.89823769390E+03  0.11017623061E+04  0.63800409435E+03 0.  0.
         13    1    3    3    0    0  0.25185768113E+03 -0.13187961298E+03  0.19923983297E+03  0.34716139605E+03  0.00000000000E+00 0. -1.
          4    1    3    3  501    0 -0.25185768113E+03  0.13187961298E+03  0.69899786093E+03  0.75460091005E+03  0.00000000000E+00 0. -1.
<mgrwt>
<rscale>  0 0.63800409E+03</rscale>
<asrwt>0</asrwt>
<pdfrwt beam="1">0</pdfrwt>
<pdfrwt beam="2">  1        2 0.37004553E+00 0.63800409E+03</pdfrwt>
<totfact> 0.51473379E+00</totfact>
</mgrwt>
</event>
<event>
 5    1  0.2344661E-004  0.6486805E+03  0.7818608E-02  0.9809258E-01
         13   -1    0    0    0    0  0.00000000000E+00  0.00000000000E+00  0.10000000000E+04  0.10000000000E+04  0.00000000000E+00 0. -1.
          2   -1    0    0  501    0 -0.00000000000E+00 -0.00000000000E+00 -0.10519661258E+03  0.10519661258E+03  0.00000000000E+00 0. -1.
    9000006    2    1    2  501    0  0.00000000000E+00  0.00000000000E+00  0.89480338742E+03  0.11051966126E+04  0.64868054566E+03 0.  0.
         13    1    3    3    0    0 -0.29118306161E+03 -0.67917472898E+02  0.23326764560E+03  0.37922836520E+03  0.00000000000E+00 0. -1.
          4    1    3    3  501    0  0.29118306161E+03  0.67917472898E+02  0.66153574182E+03  0.72596824738E+03  0.00000000000E+00 0. -1.
<mgrwt>
<rscale>  0 0.64868055E+03</rscale>
<asrwt>0</asrwt>
<pdfrwt beam="1">0</pdfrwt>
<pdfrwt beam="2">  1        2 0.38253394E+00 0.64868055E+03</pdfrwt>
<totfact> 0.46267320E+00</totfact>
</mgrwt>
</event>
<event>
 5    1  0.2344661E-004  0.6444788E+03  0.7818608E-02  0.9817195E-01
         13   -1    0    0    0    0  0.00000000000E+00  0.00000000000E+00  0.10000000000E+04  0.10000000000E+04  0.00000000000E+00 0. -1.
          2   -1    0    0  501    0 -0.00000000000E+00 -0.00000000000E+00 -0.10383823238E+03  0.10383823238E+03  0.00000000000E+00 0. -1.
    9000006    2    1    2  501    0  0.00000000000E+00  0.00000000000E+00  0.89616176762E+03  0.11038382324E+04  0.64447880456E+03 0.  0.
         13    1    3    3    0    0 -0.17125170240E+03  0.74764328344E+02 -0.15682714453E+01  0.18686709139E+03  0.00000000000E+00 0. -1.
          2    1    3    3  501    0  0.17125170240E+03 -0.74764328344E+02  0.89773003906E+03  0.91697114099E+03  0.00000000000E+00 0. -1.
<mgrwt>
<rscale>  0 0.64447880E+03</rscale>
<asrwt>0</asrwt>
<pdfrwt beam="1">0</pdfrwt>
<pdfrwt beam="2">  1        2 0.37759437E+00 0.64447880E+03</pdfrwt>
<totfact> 0.48266066E+00</totfact>
</mgrwt>
</event>
<event>
 5    1  0.2344661E-004  0.6525147E+03  0.7818608E-02  0.9802072E-01
         13   -1    0    0    0    0  0.00000000000E+00  0.00000000000E+00  0.10000000000E+04  0.10000000000E+04  0.00000000000E+00 0. -1.
          2   -1    0    0  501    0 -0.00000000000E+00 -0.00000000000E+00 -0.10644385434E+03  0.10644385434E+03  0.00000000000E+00 0. -1.
    9000006    2    1    2  501    0  0.00000000000E+00  0.00000000000E+00  0.89355614566E+03  0.11064438543E+04  0.65251468746E+03 0.  0.
         13    1    3    3    0    0  0.12098557167E+03 -0.51002510642E+02 -0.59668814575E+02  0.14421904200E+03  0.00000000000E+00 0. -1.
          2    1    3    3  501    0 -0.12098557167E+03  0.51002510642E+02  0.95322496024E+03  0.96222481233E+03  0.00000000000E+00 0. -1.
<mgrwt>
<rscale>  0 0.65251469E+03</rscale>
<asrwt>0</asrwt>
<pdfrwt beam="1">0</pdfrwt>
<pdfrwt beam="2">  1        2 0.38706938E+00 0.65251469E+03</pdfrwt>
<totfact> 0.44498636E+00</totfact>
</mgrwt>
</event>
<event>
 5    1  0.2344661E-004  0.6460761E+03  0.7818608E-02  0.9814170E-01
         13   -1    0    0    0    0  0.00000000000E+00  0.00000000000E+00  0.10000000000E+04  0.10000000000E+04  0.00000000000E+00 0. -1.
          2   -1    0    0  501    0 -0.00000000000E+00 -0.00000000000E+00 -0.10435358587E+03  0.10435358587E+03  0.00000000000E+00 0. -1.
    9000006    2    1    2  501    0  0.00000000000E+00  0.00000000000E+00  0.89564641413E+03  0.11043535859E+04  0.64607611275E+03 0.  0.
         13    1    3    3    0    0  0.30133522563E+03  0.11412912357E+03  0.48699660923E+03  0.58394697743E+03  0.00000000000E+00 0. -1.
          2    1    3    3  501    0 -0.30133522563E+03 -0.11412912357E+03  0.40864980490E+03  0.52040660843E+03  0.00000000000E+00 0. -1.
<mgrwt>
<rscale>  0 0.64607611E+03</rscale>
<asrwt>0</asrwt>
<pdfrwt beam="1">0</pdfrwt>
<pdfrwt beam="2">  1        2 0.37946839E+00 0.64607611E+03</pdfrwt>
<totfact> 0.47498695E+00</totfact>
</mgrwt>
</event>
<event>
 5    1  0.2344661E-004  0.6246462E+03  0.7818608E-02  0.9855552E-01
         13   -1    0    0    0    0  0.00000000000E+00  0.00000000000E+00  0.10000000000E+04  0.10000000000E+04  0.00000000000E+00 0. -1.
          2   -1    0    0  501    0 -0.00000000000E+00 -0.00000000000E+00 -0.97545728505E+02  0.97545728505E+02  0.00000000000E+00 0. -1.
    9000006    2    1    2  501    0  0.00000000000E+00  0.00000000000E+00  0.90245427149E+03  0.10975457285E+04  0.62464623109E+03 0.  0.
         13    1    3    3    0    0 -0.24489690928E+03 -0.25389627996E+02  0.78887045095E+03  0.82639924840E+03  0.00000000000E+00 0. -1.
          2    1    3    3  501    0  0.24489690928E+03  0.25389627996E+02  0.11358382055E+03  0.27114648010E+03  0.00000000000E+00 0. -1.
<mgrwt>
<rscale>  0 0.62464623E+03</rscale>
<asrwt>0</asrwt>
<pdfrwt beam="1">0</pdfrwt>
<pdfrwt beam="2">  1        2 0.35471249E+00 0.62464623E+03</pdfrwt>
<totfact> 0.58599004E+00</totfact>
</mgrwt>
</event>
<event>
 5    1  0.2344661E-004  0.6389154E+03  0.7818608E-02  0.9827804E-01
         13   -1    0    0    0    0  0.00000000000E+00  0.00000000000E+00  0.10000000000E+04  0.10000000000E+04  0.00000000000E+00 0. -1.
          2   -1    0    0  501    0 -0.00000000000E+00 -0.00000000000E+00 -0.10205323659E+03  0.10205323659E+03  0.00000000000E+00 0. -1.
    9000006    2    1    2  501    0  0.00000000000E+00  0.00000000000E+00  0.89794676341E+03  0.11020532366E+04  0.63891544539E+03 0.  0.
         13    1    3    3    0    0 -0.13588143138E+03  0.34662768537E+01  0.94763250209E+03  0.95733125797E+03  0.00000000000E+00 0. -1.
          4    1    3    3  501    0  0.13588143138E+03 -0.34662768537E+01 -0.49685738676E+02  0.14472197862E+03  0.00000000000E+00 0. -1.
<mgrwt>
<rscale>  0 0.63891545E+03</rscale>
<asrwt>0</asrwt>
<pdfrwt beam="1">0</pdfrwt>
<pdfrwt beam="2">  1        2 0.37110346E+00 0.63891545E+03</pdfrwt>
<totfact> 0.51012434E+00</totfact>
</mgrwt>
</event>
<event>
 5    1  0.2344661E-004  0.6170450E+03  0.7818608E-02  0.9870661E-01
         13   -1    0    0    0    0  0.00000000000E+00  0.00000000000E+00  0.10000000000E+04  0.10000000000E+04  0.00000000000E+00 0. -1.
          2   -1    0    0  501    0 -0.00000000000E+00 -0.00000000000E+00 -0.95186137303E+02  0.95186137303E+02  0.00000000000E+00 0. -1.
    9000006    2    1    2  501    0  0.00000000000E+00  0.00000000000E+00  0.90481386270E+03  0.10951861373E+04  0.61704501393E+03 0.  0.
         13    1    3    3    0    0  0.15763252219E+03 -0.88377902553E+02  0.89622657910E+03  0.91426514031E+03  0.00000000000E+00 0. -1.
          4    1    3    3  501    0 -0.15763252219E+03  0.88377902553E+02  0.85872835987E+01  0.18092099699E+03  0.00000000000E+00 0. -1.
<mgrwt>
<rscale>  0 0.61704501E+03</rscale>
<asrwt>0</asrwt>
<pdfrwt beam="1">0</pdfrwt>
<pdfrwt beam="2">  1        2 0.34613214E+00 0.61704501E+03</pdfrwt>
<totfact> 0.62975034E+00</totfact>
</mgrwt>
</event>
<event>
 5    1  0.2344661E-004  0.6477938E+03  0.7818608E-02  0.9810928E-01
         13   -1    0    0    0    0  0.00000000000E+00  0.00000000000E+00  0.10000000000E+04  0.10000000000E+04  0.00000000000E+00 0. -1.
          2   -1    0    0  501    0 -0.00000000000E+00 -0.00000000000E+00 -0.10490918617E+03  0.10490918617E+03  0.00000000000E+00 0. -1.
    9000006    2    1    2  501    0  0.00000000000E+00  0.00000000000E+00  0.89509081383E+03  0.11049091862E+04  0.64779375164E+03 0.  0.
         13    1    3    3    0    0  0.22976666350E+03  0.16397392427E+03  0.17662606705E+03  0.33298188398E+03  0.00000000000E+00 0. -1.
          2    1    3    3  501    0 -0.22976666350E+03 -0.16397392427E+03  0.71846474678E+03  0.77192730219E+03  0.00000000000E+00 0. -1.
<mgrwt>
<rscale>  0 0.64779375E+03</rscale>
<asrwt>0</asrwt>
<pdfrwt beam="1">0</pdfrwt>
<pdfrwt beam="2">  1        2 0.38148875E+00 0.64779375E+03</pdfrwt>
<totfact> 0.46683852E+00</totfact>
</mgrwt>
</event>
<event>
 5    1  0.2344661E-004  0.6443104E+03  0.7818608E-02  0.9817514E-01
         13   -1    0    0    0    0  0.00000000000E+00  0.00000000000E+00  0.10000000000E+04  0.10000000000E+04  0.00000000000E+00 0. -1.
          2   -1    0    0  501    0 -0.00000000000E+00 -0.00000000000E+00 -0.10378396663E+03  0.10378396663E+03  0.00000000000E+00 0. -1.
    9000006    2    1    2  501    0  0.00000000000E+00  0.00000000000E+00  0.89621603337E+03  0.11037839666E+04  0.64431038058E+03 0.  0.
         13    1    3    3    0    0 -0.31342431235E+03 -0.59631900479E+02  0.52459099194E+03  0.61399224095E+03  0.00000000000E+00 0. -1.
          4    1    3    3  501    0  0.31342431235E+03  0.59631900479E+02  0.37162504143E+03  0.48979172568E+03  0.00000000000E+00 0. -1.
<mgrwt>
<rscale>  0 0.64431038E+03</rscale>
<asrwt>0</asrwt>
<pdfrwt beam="1">0</pdfrwt>
<pdfrwt beam="2">  1        2 0.37739704E+00 0.64431038E+03</pdfrwt>
<totfact> 0.48347522E+00</totfact>
</mgrwt>
</event>
<event>
 5    1  0.2344661E-004  0.6545129E+03  0.7818608E-02  0.9798348E-01
         13   -1    0    0    0    0  0.00000000000E+00  0.00000000000E+00  0.10000000000E+04  0.10000000000E+04  0.00000000000E+00 0. -1.
          4   -1    0    0  501    0 -0.00000000000E+00 -0.00000000000E+00 -0.10709678779E+03  0.10709678779E+03  0.00000000000E+00 0. -1.
    9000006    2    1    2  501    0  0.00000000000E+00  0.00000000000E+00  0.89290321221E+03  0.11070967878E+04  0.65451291138E+03 0.  0.
         13    1    3    3    0    0  0.16754573927E+03 -0.19648631632E+03  0.10639077504E+03  0.27928022533E+03  0.00000000000E+00 0. -1.
          4    1    3    3  501    0 -0.16754573927E+03  0.19648631632E+03  0.78651243717E+03  0.82781656246E+03  0.00000000000E+00 0. -1.
<mgrwt>
<rscale>  0 0.65451291E+03</rscale>
<asrwt>0</asrwt>
<pdfrwt beam="1">0</pdfrwt>
<pdfrwt beam="2">  1        4 0.38944369E+00 0.65451291E+03</pdfrwt>
<totfact> 0.37869043E-02</totfact>
</mgrwt>
</event>
<event>
 5    1  0.2344661E-004  0.6671592E+03  0.7818608E-02  0.9775103E-01
         13   -1    0    0    0    0  0.00000000000E+00  0.00000000000E+00  0.10000000000E+04  0.10000000000E+04  0.00000000000E+00 0. -1.
          2   -1    0    0  501    0 -0.00000000000E+00 -0.00000000000E+00 -0.11127535472E+03  0.11127535472E+03  0.00000000000E+00 0. -1.
    9000006    2    1    2  501    0  0.00000000000E+00  0.00000000000E+00  0.88872464528E+03  0.11112753547E+04  0.66715921555E+03 0.  0.
         13    1    3    3    0    0 -0.32699352952E+03  0.78973994394E+01  0.33528597340E+03  0.46840561613E+03  0.00000000000E+00 0. -1.
          2    1    3    3  501    0  0.32699352952E+03 -0.78973994394E+01  0.55343867188E+03  0.64286973859E+03  0.00000000000E+00 0. -1.
<mgrwt>
<rscale>  0 0.66715922E+03</rscale>
<asrwt>0</asrwt>
<pdfrwt beam="1">0</pdfrwt>
<pdfrwt beam="2">  1        2 0.40463851E+00 0.66715922E+03</pdfrwt>
<totfact> 0.38208997E+00</totfact>
</mgrwt>
</event>
<event>
 5    1  0.2344661E-004  0.7385395E+03  0.7818608E-02  0.9653504E-01
         13   -1    0    0    0    0  0.00000000000E+00  0.00000000000E+00  0.10000000000E+04  0.10000000000E+04  0.00000000000E+00 0. -1.
          2   -1    0    0  501    0 -0.00000000000E+00 -0.00000000000E+00 -0.13636013897E+03  0.13636013897E+03  0.00000000000E+00 0. -1.
    9000006    2    1    2  501    0  0.00000000000E+00  0.00000000000E+00  0.86363986103E+03  0.11363601390E+04  0.73853947484E+03 0.  0.
         13    1    3    3    0    0  0.40843506875E+02  0.15944298851E+03  0.94043885091E+03  0.95473320406E+03  0.00000000000E+00 0. -1.
          4    1    3    3  501    0 -0.40843506875E+02 -0.15944298851E+03 -0.76798989882E+02  0.18162693491E+03  0.00000000000E+00 0. -1.
<mgrwt>
<rscale>  0 0.73853947E+03</rscale>
<asrwt>0</asrwt>
<pdfrwt beam="1">0</pdfrwt>
<pdfrwt beam="2">  1        2 0.49585610E+00 0.73853947E+03</pdfrwt>
<totfact> 0.16533871E+00</totfact>
</mgrwt>
</event>
<event>
 5    1  0.2344661E-004  0.5454750E+03  0.7818608E-02  0.1002547E+00
         13   -1    0    0    0    0  0.00000000000E+00  0.00000000000E+00  0.10000000000E+04  0.10000000000E+04  0.00000000000E+00 0. -1.
          2   -1    0    0  501    0 -0.00000000000E+00 -0.00000000000E+00 -0.74385733655E+02  0.74385733655E+02  0.00000000000E+00 0. -1.
    9000006    2    1    2  501    0  0.00000000000E+00  0.00000000000E+00  0.92561426635E+03  0.10743857337E+04  0.54547496241E+03 0.  0.
         13    1    3    3    0    0  0.20221358086E+02  0.27087802838E+03  0.41448386842E+03  0.49556098188E+03  0.00000000000E+00 0. -1.
          2    1    3    3  501    0 -0.20221358086E+02 -0.27087802838E+03  0.51113039793E+03  0.57882475177E+03  0.00000000000E+00 0. -1.
<mgrwt>
<rscale>  0 0.54547496E+03</rscale>
<asrwt>0</asrwt>
<pdfrwt beam="1">0</pdfrwt>
<pdfrwt beam="2">  1        2 0.27049415E+00 0.54547496E+03</pdfrwt>
<totfact> 0.11770327E+01</totfact>
</mgrwt>
</event>
<event>
 5    1  0.2344661E-004  0.5849050E+03  0.7818608E-02  0.9937228E-01
         13   -1    0    0    0    0  0.00000000000E+00  0.00000000000E+00  0.10000000000E+04  0.10000000000E+04  0.00000000000E+00 0. -1.
          2   -1    0    0  501    0 -0.00000000000E+00 -0.00000000000E+00 -0.85528458586E+02  0.85528458586E+02  0.00000000000E+00 0. -1.
    9000006    2    1    2  501    0  0.00000000000E+00  0.00000000000E+00  0.91447154141E+03  0.10855284586E+04  0.58490497890E+03 0.  0.
         13    1    3    3    0    0 -0.18252209855E+03 -0.19661391477E+03  0.24114338434E+03  0.36072355031E+03  0.00000000000E+00 0. -1.
          4    1    3    3  501    0  0.18252209855E+03  0.19661391477E+03  0.67332815708E+03  0.72480490827E+03  0.00000000000E+00 0. -1.
<mgrwt>
<rscale>  0 0.58490498E+03</rscale>
<asrwt>0</asrwt>
<pdfrwt beam="1">0</pdfrwt>
<pdfrwt beam="2">  1        2 0.31101323E+00 0.58490498E+03</pdfrwt>
<totfact> 0.84311188E+00</totfact>
</mgrwt>
</event>
<event>
 5    1  0.2344661E-004  0.6726261E+03  0.7818608E-02  0.9765225E-01
         13   -1    0    0    0    0  0.00000000000E+00  0.00000000000E+00  0.10000000000E+04  0.10000000000E+04  0.00000000000E+00 0. -1.
          2   -1    0    0  501    0 -0.00000000000E+00 -0.00000000000E+00 -0.11310647134E+03  0.11310647134E+03  0.00000000000E+00 0. -1.
    9000006    2    1    2  501    0  0.00000000000E+00  0.00000000000E+00  0.88689352866E+03  0.11131064713E+04  0.67262611111E+03 0.  0.
         13    1    3    3    0    0  0.16183963449E+03 -0.26096890889E+03  0.21648476844E+03  0.37571597473E+03  0.00000000000E+00 0. -1.
          2    1    3    3  501    0 -0.16183963449E+03  0.26096890889E+03  0.67040876022E+03  0.73739049661E+03  0.00000000000E+00 0. -1.
<mgrwt>
<rscale>  0 0.67262611E+03</rscale>
<asrwt>0</asrwt>
<pdfrwt beam="1">0</pdfrwt>
<pdfrwt beam="2">  1        2 0.41129713E+00 0.67262611E+03</pdfrwt>
<totfact> 0.36042192E+00</totfact>
</mgrwt>
</event>
<event>
 5    1  0.2344661E-004  0.5433476E+03  0.7818608E-02  0.1003046E+00
         13   -1    0    0    0    0  0.00000000000E+00  0.00000000000E+00  0.10000000000E+04  0.10000000000E+04  0.00000000000E+00 0. -1.
          2   -1    0    0  501    0 -0.00000000000E+00 -0.00000000000E+00 -0.73806652696E+02  0.73806652696E+02  0.00000000000E+00 0. -1.
    9000006    2    1    2  501    0  0.00000000000E+00  0.00000000000E+00  0.92619334730E+03  0.10738066527E+04  0.54334759665E+03 0.  0.
         13    1    3    3    0    0  0.23833738661E+03  0.12339824458E+03  0.54635449012E+03  0.60871591527E+03  0.00000000000E+00 0. -1.
          2    1    3    3  501    0 -0.23833738661E+03 -0.12339824458E+03  0.37983885718E+03  0.46509073743E+03  0.00000000000E+00 0. -1.
<mgrwt>
<rscale>  0 0.54334760E+03</rscale>
<asrwt>0</asrwt>
<pdfrwt beam="1">0</pdfrwt>
<pdfrwt beam="2">  1        2 0.26838839E+00 0.54334760E+03</pdfrwt>
<totfact> 0.11976213E+01</totfact>
</mgrwt>
</event>
<event>
 5    1  0.2344661E-004  0.6444961E+03  0.7818608E-02  0.9817162E-01
         13   -1    0    0    0    0  0.00000000000E+00  0.00000000000E+00  0.10000000000E+04  0.10000000000E+04  0.00000000000E+00 0. -1.
          2   -1    0    0  501    0 -0.00000000000E+00 -0.00000000000E+00 -0.10384380355E+03  0.10384380355E+03  0.00000000000E+00 0. -1.
    9000006    2    1    2  501    0  0.00000000000E+00  0.00000000000E+00  0.89615619645E+03  0.11038438035E+04  0.64449609323E+03 0.  0.
         13    1    3    3    0    0 -0.28301496754E+03 -0.14155243716E+03  0.34376718272E+03  0.46723702789E+03  0.00000000000E+00 0. -1.
          4    1    3    3  501    0  0.28301496754E+03  0.14155243716E+03  0.55238901373E+03  0.63660677565E+03  0.00000000000E+00 0. -1.
<mgrwt>
<rscale>  0 0.64449609E+03</rscale>
<asrwt>0</asrwt>
<pdfrwt beam="1">0</pdfrwt>
<pdfrwt beam="2">  1        2 0.37761463E+00 0.64449609E+03</pdfrwt>
<totfact> 0.48257710E+00</totfact>
</mgrwt>
</event>
<event>
 5    1  0.2344661E-004  0.6532266E+03  0.7818608E-02  0.9800743E-01
         13   -1    0    0    0    0  0.00000000000E+00  0.00000000000E+00  0.10000000000E+04  0.10000000000E+04  0.00000000000E+00 0. -1.
          2   -1    0    0  501    0 -0.00000000000E+00 -0.00000000000E+00 -0.10667625005E+03  0.10667625005E+03  0.00000000000E+00 0. -1.
    9000006    2    1    2  501    0  0.00000000000E+00  0.00000000000E+00  0.89332374995E+03  0.11066762500E+04  0.65322660708E+03 0.  0.
         13    1    3    3    0    0  0.25478600913E+03 -0.14607233909E+03  0.68877522656E+03  0.74877523424E+03  0.00000000000E+00 0. -1.
          2    1    3    3  501    0 -0.25478600913E+03  0.14607233909E+03  0.20454852339E+03  0.35790101581E+03  0.00000000000E+00 0. -1.
<mgrwt>
<rscale>  0 0.65322661E+03</rscale>
<asrwt>0</asrwt>
<pdfrwt beam="1">0</pdfrwt>
<pdfrwt beam="2">  1        2 0.38791445E+00 0.65322661E+03</pdfrwt>
<totfact> 0.44175936E+00</totfact>
</mgrwt>
</event>
<event>
 5    1  0.2344661E-004  0.7209376E+03  0.7818608E-02  0.9682081E-01
         13   -1    0    0    0    0  0.00000000000E+00  0.00000000000E+00  0.10000000000E+04  0.10000000000E+04  0.00000000000E+00 0. -1.
          2   -1    0    0  501    0 -0.00000000000E+00 -0.00000000000E+00 -0.12993774437E+03  0.12993774437E+03  0.00000000000E+00 0. -1.
    9000006    2    1    2  501    0  0.00000000000E+00  0.00000000000E+00  0.87006225563E+03  0.11299377444E+04  0.72093756837E+03 0.  0.
         13    1    3    3    0    0  0.23468010305E+03  0.48481150629E+02  0.85708074667E+03  0.88995088575E+03  0.00000000000E+00 0. -1.
          4    1    3    3  501    0 -0.23468010305E+03 -0.48481150629E+02  0.12981508955E+02  0.23998685862E+03  0.00000000000E+00 0. -1.
<mgrwt>
<rscale>  0 0.72093757E+03</rscale>
<asrwt>0</asrwt>
<pdfrwt beam="1">0</pdfrwt>
<pdfrwt beam="2">  1        2 0.47250188E+00 0.72093757E+03</pdfrwt>
<totfact> 0.20667732E+00</totfact>
</mgrwt>
</event>
<event>
 5    1  0.2344661E-004  0.6527438E+03  0.7818608E-02  0.9801644E-01
         13   -1    0    0    0    0  0.00000000000E+00  0.00000000000E+00  0.10000000000E+04  0.10000000000E+04  0.00000000000E+00 0. -1.
          2   -1    0    0  501    0 -0.00000000000E+00 -0.00000000000E+00 -0.10651860247E+03  0.10651860247E+03  0.00000000000E+00 0. -1.
    9000006    2    1    2  501    0  0.00000000000E+00  0.00000000000E+00  0.89348139753E+03  0.11065186025E+04  0.65274375515E+03 0.  0.
         13    1    3    3    0    0 -0.13501894138E+03 -0.25165690651E+03  0.17893815310E+03  0.33701658084E+03  0.00000000000E+00 0. -1.
          2    1    3    3  501    0  0.13501894138E+03  0.25165690651E+03  0.71454324443E+03  0.76950202163E+03  0.00000000000E+00 0. -1.
<mgrwt>
<rscale>  0 0.65274376E+03</rscale>
<asrwt>0</asrwt>
<pdfrwt beam="1">0</pdfrwt>
<pdfrwt beam="2">  1        2 0.38734119E+00 0.65274376E+03</pdfrwt>
<totfact> 0.44394610E+00</totfact>
</mgrwt>
</event>
<event>
 5    1  0.2344661E-004  0.6553636E+03  0.7818608E-02  0.9796766E-01
         13   -1    0    0    0    0  0.00000000000E+00  0.00000000000E+00  0.10000000000E+04  0.10000000000E+04  0.00000000000E+00 0. -1.
          2   -1    0    0  501    0 -0.00000000000E+00 -0.00000000000E+00 -0.10737537046E+03  0.10737537046E+03  0.00000000000E+00 0. -1.
    9000006    2    1    2  501    0  0.00000000000E+00  0.00000000000E+00  0.89262462954E+03  0.11073753705E+04  0.65536362567E+03 0.  0.
         13    1    3    3    0    0  0.25182704257E+03 -0.55005643337E+02  0.78817266440E+03  0.82925184901E+03  0.00000000000E+00 0. -1.
          2    1    3    3  501    0 -0.25182704257E+03  0.55005643337E+02  0.10445196513E+03  0.27812352146E+03  0.00000000000E+00 0. -1.
<mgrwt>
<rscale>  0 0.65536363E+03</rscale>
<asrwt>0</asrwt>
<pdfrwt beam="1">0</pdfrwt>
<pdfrwt beam="2">  1        2 0.39045672E+00 0.65536363E+03</pdfrwt>
<totfact> 0.43217874E+00</totfact>
</mgrwt>
</event>
<event>
 5    1  0.2344661E-004  0.6313066E+03  0.7818608E-02  0.9842502E-01
         13   -1    0    0    0    0  0.00000000000E+00  0.00000000000E+00  0.10000000000E+04  0.10000000000E+04  0.00000000000E+00 0. -1.
          4   -1    0    0  501    0 -0.00000000000E+00 -0.00000000000E+00 -0.99637010645E+02  0.99637010645E+02  0.00000000000E+00 0. -1.
    9000006    2    1    2  501    0  0.00000000000E+00  0.00000000000E+00  0.90036298935E+03  0.10996370106E+04  0.63130661535E+03 0.  0.
         13    1    3    3    0    0 -0.28699884116E+03  0.72814805543E+02  0.64072574375E+03  0.70583270641E+03  0.00000000000E+00 0. -1.
          4    1    3    3  501    0  0.28699884116E+03 -0.72814805543E+02  0.25963724561E+03  0.39380430424E+03  0.00000000000E+00 0. -1.
<mgrwt>
<rscale>  0 0.63130662E+03</rscale>
<asrwt>0</asrwt>
<pdfrwt beam="1">0</pdfrwt>
<pdfrwt beam="2">  1        4 0.36231717E+00 0.63130662E+03</pdfrwt>
<totfact> 0.57491969E-02</totfact>
</mgrwt>
</event>
<event>
 5    1  0.2344661E-004  0.6336364E+03  0.7818608E-02  0.9837978E-01
         13   -1    0    0    0    0  0.00000000000E+00  0.00000000000E+00  0.10000000000E+04  0.10000000000E+04  0.00000000000E+00 0. -1.
          2   -1    0    0  501    0 -0.00000000000E+00 -0.00000000000E+00 -0.10037378148E+03  0.10037378148E+03  0.00000000000E+00 0. -1.
    9000006    2    1    2  501    0  0.00000000000E+00  0.00000000000E+00  0.89962621852E+03  0.11003737815E+04  0.63363643039E+03 0.  0.
         13    1    3    3    0    0 -0.27529409757E+03  0.10701375297E+03  0.64884153170E+03  0.71290540518E+03  0.00000000000E+00 0. -1.
          4    1    3    3  501    0  0.27529409757E+03 -0.10701375297E+03  0.25078468683E+03  0.38746837630E+03  0.00000000000E+00 0. -1.
<mgrwt>
<rscale>  0 0.63363643E+03</rscale>
<asrwt>0</asrwt>
<pdfrwt beam="1">0</pdfrwt>
<pdfrwt beam="2">  1        2 0.36499634E+00 0.63363643E+03</pdfrwt>
<totfact> 0.53726432E+00</totfact>
</mgrwt>
</event>
<event>
 5    1  0.2344661E-004  0.6477089E+03  0.7818608E-02  0.9811088E-01
         13   -1    0    0    0    0  0.00000000000E+00  0.00000000000E+00  0.10000000000E+04  0.10000000000E+04  0.00000000000E+00 0. -1.
          2   -1    0    0  501    0 -0.00000000000E+00 -0.00000000000E+00 -0.10488170972E+03  0.10488170972E+03  0.00000000000E+00 0. -1.
    9000006    2    1    2  501    0  0.00000000000E+00  0.00000000000E+00  0.89511829028E+03  0.11048817097E+04  0.64770891523E+03 0.  0.
         13    1    3    3    0    0  0.41406431112E+02  0.31517194494E+03  0.55318109115E+03  0.63801031890E+03  0.00000000000E+00 0. -1.
          2    1    3    3  501    0 -0.41406431112E+02 -0.31517194494E+03  0.34193719913E+03  0.46687139082E+03  0.00000000000E+00 0. -1.
<mgrwt>
<rscale>  0 0.64770892E+03</rscale>
<asrwt>0</asrwt>
<pdfrwt beam="1">0</pdfrwt>
<pdfrwt beam="2">  1        2 0.38138884E+00 0.64770892E+03</pdfrwt>
<totfact> 0.46723848E+00</totfact>
</mgrwt>
</event>
<event>
 5    1  0.2344661E-004  0.6580459E+03  0.7818608E-02  0.9791798E-01
         13   -1    0    0    0    0  0.00000000000E+00  0.00000000000E+00  0.10000000000E+04  0.10000000000E+04  0.00000000000E+00 0. -1.
          2   -1    0    0  501    0 -0.00000000000E+00 -0.00000000000E+00 -0.10825611113E+03  0.10825611113E+03  0.00000000000E+00 0. -1.
    9000006    2    1    2  501    0  0.00000000000E+00  0.00000000000E+00  0.89174388887E+03  0.11082561111E+04  0.65804592889E+03 0.  0.
         13    1    3    3    0    0 -0.17587876602E+03  0.26025509538E+03  0.61079998620E+03  0.68683526275E+03  0.00000000000E+00 0. -1.
          4    1    3    3  501    0  0.17587876602E+03 -0.26025509538E+03  0.28094390266E+03  0.42142084838E+03  0.00000000000E+00 0. -1.
<mgrwt>
<rscale>  0 0.65804593E+03</rscale>
<asrwt>0</asrwt>
<pdfrwt beam="1">0</pdfrwt>
<pdfrwt beam="2">  1        2 0.39365942E+00 0.65804593E+03</pdfrwt>
<totfact> 0.42037656E+00</totfact>
</mgrwt>
</event>
<event>
 5    1  0.2344661E-004  0.6461123E+03  0.7818608E-02  0.9814102E-01
         13   -1    0    0    0    0  0.00000000000E+00  0.00000000000E+00  0.10000000000E+04  0.10000000000E+04  0.00000000000E+00 0. -1.
          2   -1    0    0  501    0 -0.00000000000E+00 -0.00000000000E+00 -0.10436526687E+03  0.10436526687E+03  0.00000000000E+00 0. -1.
    9000006    2    1    2  501    0  0.00000000000E+00  0.00000000000E+00  0.89563473313E+03  0.11043652669E+04  0.64611227157E+03 0.  0.
         13    1    3    3    0    0  0.15975483537E+02  0.32037278840E+03  0.51338045273E+03  0.60535396990E+03  0.00000000000E+00 0. -1.
          2    1    3    3  501    0 -0.15975483537E+02 -0.32037278840E+03  0.38225428040E+03  0.49901129697E+03  0.00000000000E+00 0. -1.
<mgrwt>
<rscale>  0 0.64611227E+03</rscale>
<asrwt>0</asrwt>
<pdfrwt beam="1">0</pdfrwt>
<pdfrwt beam="2">  1        2 0.37951086E+00 0.64611227E+03</pdfrwt>
<totfact> 0.47481432E+00</totfact>
</mgrwt>
</event>
<event>
 5    1  0.2344661E-004  0.6532698E+03  0.7818608E-02  0.9800663E-01
         13   -1    0    0    0    0  0.00000000000E+00  0.00000000000E+00  0.10000000000E+04  0.10000000000E+04  0.00000000000E+00 0. -1.
          2   -1    0    0  501    0 -0.00000000000E+00 -0.00000000000E+00 -0.10669035437E+03  0.10669035437E+03  0.00000000000E+00 0. -1.
    9000006    2    1    2  501    0  0.00000000000E+00  0.00000000000E+00  0.89330964563E+03  0.11066903544E+04  0.65326978919E+03 0.  0.
         13    1    3    3    0    0  0.28050324674E+03 -0.51095351995E+02  0.17667615834E+03  0.33542103595E+03  0.00000000000E+00 0. -1.
          4    1    3    3  501    0 -0.28050324674E+03  0.51095351995E+02  0.71663348729E+03  0.77126931842E+03  0.00000000000E+00 0. -1.
<mgrwt>
<rscale>  0 0.65326979E+03</rscale>
<asrwt>0</asrwt>
<pdfrwt beam="1">0</pdfrwt>
<pdfrwt beam="2">  1        2 0.38796574E+00 0.65326979E+03</pdfrwt>
<totfact> 0.44156419E+00</totfact>
</mgrwt>
</event>
<event>
 5    1  0.2344661E-004  0.6544892E+03  0.7818608E-02  0.9798392E-01
         13   -1    0    0    0    0  0.00000000000E+00  0.00000000000E+00  0.10000000000E+04  0.10000000000E+04  0.00000000000E+00 0. -1.
          2   -1    0    0  501    0 -0.00000000000E+00 -0.00000000000E+00 -0.10708903899E+03  0.10708903899E+03  0.00000000000E+00 0. -1.
    9000006    2    1    2  501    0  0.00000000000E+00  0.00000000000E+00  0.89291096101E+03  0.11070890390E+04  0.65448923290E+03 0.  0.
         13    1    3    3    0    0  0.35725527661E+02 -0.30913397535E+03  0.61770087667E+03  0.69166068348E+03  0.00000000000E+00 0. -1.
          2    1    3    3  501    0 -0.35725527661E+02  0.30913397535E+03  0.27521008434E+03  0.41542835551E+03  0.00000000000E+00 0. -1.
<mgrwt>
<rscale>  0 0.65448923E+03</rscale>
<asrwt>0</asrwt>
<pdfrwt beam="1">0</pdfrwt>
<pdfrwt beam="2">  1        2 0.38941551E+00 0.65448923E+03</pdfrwt>
<totfact> 0.43607962E+00</totfact>
</mgrwt>
</event>
<event>
 5    1  0.2344661E-004  0.6286002E+03  0.7818608E-02  0.9847784E-01
         13   -1    0    0    0    0  0.00000000000E+00  0.00000000000E+00  0.10000000000E+04  0.10000000000E+04  0.00000000000E+00 0. -1.
          2   -1    0    0  501    0 -0.00000000000E+00 -0.00000000000E+00 -0.98784542741E+02  0.98784542741E+02  0.00000000000E+00 0. -1.
    9000006    2    1    2  501    0  0.00000000000E+00  0.00000000000E+00  0.90121545726E+03  0.10987845427E+04  0.62860016781E+03 0.  0.
         13    1    3    3    0    0 -0.22057425220E+03 -0.86082653294E+02  0.89314040717E+02  0.25306169564E+03  0.00000000000E+00 0. -1.
          4    1    3    3  501    0  0.22057425220E+03  0.86082653294E+02  0.81190141654E+03  0.84572284710E+03  0.00000000000E+00 0. -1.
<mgrwt>
<rscale>  0 0.62860017E+03</rscale>
<asrwt>0</asrwt>
<pdfrwt beam="1">0</pdfrwt>
<pdfrwt beam="2">  1        2 0.35921728E+00 0.62860017E+03</pdfrwt>
<totfact> 0.56416359E+00</totfact>
</mgrwt>
</event>
<event>
 5    1  0.2344661E-004  0.6398479E+03  0.7818608E-02  0.9826018E-01
         13   -1    0    0    0    0  0.00000000000E+00  0.00000000000E+00  0.10000000000E+04  0.10000000000E+04  0.00000000000E+00 0. -1.
          2   -1    0    0  501    0 -0.00000000000E+00 -0.00000000000E+00 -0.10235132081E+03  0.10235132081E+03  0.00000000000E+00 0. -1.
    9000006    2    1    2  501    0  0.00000000000E+00  0.00000000000E+00  0.89764867919E+03  0.11023513208E+04  0.63984785944E+03 0.  0.
         13    1    3    3    0    0 -0.23720614694E+03  0.14453327226E+03  0.17536177474E+03  0.32849410189E+03  0.00000000000E+00 0. -1.
          2    1    3    3  501    0  0.23720614694E+03 -0.14453327226E+03  0.72228690445E+03  0.77385721892E+03  0.00000000000E+00 0. -1.
<mgrwt>
<rscale>  0 0.63984786E+03</rscale>
<asrwt>0</asrwt>
<pdfrwt beam="1">0</pdfrwt>
<pdfrwt beam="2">  1        2 0.37218741E+00 0.63984786E+03</pdfrwt>
<totfact> 0.50544079E+00</totfact>
</mgrwt>
</event>
<event>
 5    1  0.2344661E-004  0.6483384E+03  0.7818608E-02  0.9809902E-01
         13   -1    0    0    0    0  0.00000000000E+00  0.00000000000E+00  0.10000000000E+04  0.10000000000E+04  0.00000000000E+00 0. -1.
          2   -1    0    0  501    0 -0.00000000000E+00 -0.00000000000E+00 -0.10508567181E+03  0.10508567181E+03  0.00000000000E+00 0. -1.
    9000006    2    1    2  501    0  0.00000000000E+00  0.00000000000E+00  0.89491432819E+03  0.11050856718E+04  0.64833840489E+03 0.  0.
         13    1    3    3    0    0 -0.70409293045E+02  0.31603522929E+03  0.42051021664E+03  0.53072080890E+03  0.00000000000E+00 0. -1.
          2    1    3    3  501    0  0.70409293045E+02 -0.31603522929E+03  0.47440411154E+03  0.57436486291E+03  0.00000000000E+00 0. -1.
<mgrwt>
<rscale>  0 0.64833840E+03</rscale>
<asrwt>0</asrwt>
<pdfrwt beam="1">0</pdfrwt>
<pdfrwt beam="2">  1        2 0.38213052E+00 0.64833840E+03</pdfrwt>
<totfact> 0.46427691E+00</totfact>
</mgrwt>
</event>
<event>
 5    1  0.2344661E-004  0.6516120E+03  0.7818608E-02  0.9803759E-01
         13   -1    0    0    0    0  0.00000000000E+00  0.00000000000E+00  0.10000000000E+04  0.10000000000E+04  0.00000000000E+00 0. -1.
          2   -1    0    0  501    0 -0.00000000000E+00 -0.00000000000E+00 -0.10614954643E+03  0.10614954643E+03  0.00000000000E+00 0. -1.
    9000006    2    1    2  501    0  0.00000000000E+00  0.00000000000E+00  0.89385045357E+03  0.11061495464E+04  0.65161199015E+03 0.  0.
         13    1    3    3    0    0  0.78284593365E+02  0.84382628825E+01  0.98360581064E+03  0.98675228531E+03  0.00000000000E+00 0. -1.
          2    1    3    3  501    0 -0.78284593365E+02 -0.84382628825E+01 -0.89755357071E+02  0.11939726111E+03  0.00000000000E+00 0. -1.
<mgrwt>
<rscale>  0 0.65161199E+03</rscale>
<asrwt>0</asrwt>
<pdfrwt beam="1">0</pdfrwt>
<pdfrwt beam="2">  1        2 0.38599916E+00 0.65161199E+03</pdfrwt>
<totfact> 0.44910369E+00</totfact>
</mgrwt>
</event>
<event>
 5    1  0.2344661E-004  0.7673330E+03  0.7818608E-02  0.9608543E-01
         13   -1    0    0    0    0  0.00000000000E+00  0.00000000000E+00  0.10000000000E+04  0.10000000000E+04  0.00000000000E+00 0. -1.
          2   -1    0    0  501    0 -0.00000000000E+00 -0.00000000000E+00 -0.14719997154E+03  0.14719997154E+03  0.00000000000E+00 0. -1.
    9000006    2    1    2  501    0  0.00000000000E+00  0.00000000000E+00  0.85280002846E+03  0.11471999715E+04  0.76733296955E+03 0.  0.
         13    1    3    3    0    0  0.73660487374E+02  0.21079745575E+03  0.89284204302E+03  0.92034143041E+03  0.00000000000E+00 0. -1.
          2    1    3    3  501    0 -0.73660487374E+02 -0.21079745575E+03 -0.40042014561E+02  0.22685854112E+03  0.00000000000E+00 0. -1.
<mgrwt>
<rscale>  0 0.76733297E+03</rscale>
<asrwt>0</asrwt>
<pdfrwt beam="1">0</pdfrwt>
<pdfrwt beam="2">  1        2 0.53527375E+00 0.76733297E+03</pdfrwt>
<totfact> 0.11149715E+00</totfact>
</mgrwt>
</event>
<event>
 5    1  0.2344661E-004  0.6455031E+03  0.7818608E-02  0.9815254E-01
         13   -1    0    0    0    0  0.00000000000E+00  0.00000000000E+00  0.10000000000E+04  0.10000000000E+04  0.00000000000E+00 0. -1.
          2   -1    0    0  501    0 -0.00000000000E+00 -0.00000000000E+00 -0.10416855945E+03  0.10416855945E+03  0.00000000000E+00 0. -1.
    9000006    2    1    2  501    0  0.00000000000E+00  0.00000000000E+00  0.89583144055E+03  0.11041685594E+04  0.64550308890E+03 0.  0.
         13    1    3    3    0    0  0.29643310823E+02  0.31798160158E+03  0.52773716545E+03  0.61684482702E+03  0.00000000000E+00 0. -1.
          4    1    3    3  501    0 -0.29643310823E+02 -0.31798160158E+03  0.36809427510E+03  0.48732373242E+03  0.00000000000E+00 0. -1.
<mgrwt>
<rscale>  0 0.64550309E+03</rscale>
<asrwt>0</asrwt>
<pdfrwt beam="1">0</pdfrwt>
<pdfrwt beam="2">  1        2 0.37879556E+00 0.64550309E+03</pdfrwt>
<totfact> 0.47772915E+00</totfact>
</mgrwt>
</event>
<event>
 5    1  0.2344661E-004  0.6455088E+03  0.7818608E-02  0.9815243E-01
         13   -1    0    0    0    0  0.00000000000E+00  0.00000000000E+00  0.10000000000E+04  0.10000000000E+04  0.00000000000E+00 0. -1.
          2   -1    0    0  501    0 -0.00000000000E+00 -0.00000000000E+00 -0.10417040656E+03  0.10417040656E+03  0.00000000000E+00 0. -1.
    9000006    2    1    2  501    0  0.00000000000E+00  0.00000000000E+00  0.89582959344E+03  0.11041704066E+04  0.64550881189E+03 0.  0.
         13    1    3    3    0    0 -0.22235218570E+03 -0.48149653403E+02  0.83951897567E+03  0.86979939878E+03  0.00000000000E+00 0. -1.
          2    1    3    3  501    0  0.22235218570E+03  0.48149653403E+02  0.56310617771E+02  0.23437100777E+03  0.00000000000E+00 0. -1.
<mgrwt>
<rscale>  0 0.64550881E+03</rscale>
<asrwt>0</asrwt>
<pdfrwt beam="1">0</pdfrwt>
<pdfrwt beam="2">  1        2 0.37880228E+00 0.64550881E+03</pdfrwt>
<totfact> 0.47770170E+00</totfact>
</mgrwt>
</event>
<event>
 5    1  0.2344661E-004  0.6452123E+03  0.7818608E-02  0.9815805E-01
         13   -1    0    0    0    0  0.00000000000E+00  0.00000000000E+00  0.10000000000E+04  0.10000000000E+04  0.00000000000E+00 0. -1.
          2   -1    0    0  501    0 -0.00000000000E+00 -0.00000000000E+00 -0.10407472149E+03  0.10407472149E+03  0.00000000000E+00 0. -1.
    9000006    2    1    2  501    0  0.00000000000E+00  0.00000000000E+00  0.89592527851E+03  0.11040747215E+04  0.64521227976E+03 0.  0.
         13    1    3    3    0    0  0.15412883398E+02  0.28873843096E+03  0.20315445122E+03  0.35338246920E+03  0.00000000000E+00 0. -1.
          4    1    3    3  501    0 -0.15412883398E+02 -0.28873843096E+03  0.69277082730E+03  0.75069225229E+03  0.00000000000E+00 0. -1.
<mgrwt>
<rscale>  0 0.64521228E+03</rscale>
<asrwt>0</asrwt>
<pdfrwt beam="1">0</pdfrwt>
<pdfrwt beam="2">  1        2 0.37845433E+00 0.64521228E+03</pdfrwt>
<totfact> 0.47912538E+00</totfact>
</mgrwt>
</event>
<event>
 5    1  0.2344661E-004  0.6610543E+03  0.7818608E-02  0.9786255E-01
         13   -1    0    0    0    0  0.00000000000E+00  0.00000000000E+00  0.10000000000E+04  0.10000000000E+04  0.00000000000E+00 0. -1.
          2   -1    0    0  501    0 -0.00000000000E+00 -0.00000000000E+00 -0.10924821023E+03  0.10924821023E+03  0.00000000000E+00 0. -1.
    9000006    2    1    2  501    0  0.00000000000E+00  0.00000000000E+00  0.89075178977E+03  0.11092482102E+04  0.66105434037E+03 0.  0.
         13    1    3    3    0    0  0.20853928500E+03  0.14069523029E+03  0.80512730950E+03  0.84351275374E+03  0.00000000000E+00 0. -1.
          4    1    3    3  501    0 -0.20853928500E+03 -0.14069523029E+03  0.85624480271E+02  0.26573545649E+03  0.00000000000E+00 0. -1.
<mgrwt>
<rscale>  0 0.66105434E+03</rscale>
<asrwt>0</asrwt>
<pdfrwt beam="1">0</pdfrwt>
<pdfrwt beam="2">  1        2 0.39726706E+00 0.66105434E+03</pdfrwt>
<totfact> 0.40743183E+00</totfact>
</mgrwt>
</event>
<event>
 5    1  0.2344661E-004  0.6379395E+03  0.7818608E-02  0.9829677E-01
         13   -1    0    0    0    0  0.00000000000E+00  0.00000000000E+00  0.10000000000E+04  0.10000000000E+04  0.00000000000E+00 0. -1.
          2   -1    0    0  501    0 -0.00000000000E+00 -0.00000000000E+00 -0.10174170113E+03  0.10174170113E+03  0.00000000000E+00 0. -1.
    9000006    2    1    2  501    0  0.00000000000E+00  0.00000000000E+00  0.89825829887E+03  0.11017417011E+04  0.63793949911E+03 0.  0.
         13    1    3    3    0    0 -0.10405814961E+03  0.17490039890E+02 -0.70726599055E+02  0.12702854723E+03  0.00000000000E+00 0. -1.
          2    1    3    3  501    0  0.10405814961E+03 -0.17490039890E+02  0.96898489792E+03  0.97471315391E+03  0.00000000000E+00 0. -1.
<mgrwt>
<rscale>  0 0.63793950E+03</rscale>
<asrwt>0</asrwt>
<pdfrwt beam="1">0</pdfrwt>
<pdfrwt beam="2">  1        2 0.36997060E+00 0.63793950E+03</pdfrwt>
<totfact> 0.51506169E+00</totfact>
</mgrwt>
</event>
<event>
 5    1  0.2344661E-004  0.6520430E+03  0.7818608E-02  0.9802953E-01
         13   -1    0    0    0    0  0.00000000000E+00  0.00000000000E+00  0.10000000000E+04  0.10000000000E+04  0.00000000000E+00 0. -1.
          2   -1    0    0  501    0 -0.00000000000E+00 -0.00000000000E+00 -0.10629001431E+03  0.10629001431E+03  0.00000000000E+00 0. -1.
    9000006    2    1    2  501    0  0.00000000000E+00  0.00000000000E+00  0.89370998569E+03  0.11062900143E+04  0.65204298727E+03 0.  0.
         13    1    3    3    0    0  0.30721467710E+03 -0.10809197005E+02  0.26261141852E+03  0.40430490190E+03  0.00000000000E+00 0. -1.
          2    1    3    3  501    0 -0.30721467710E+03  0.10809197005E+02  0.63109856717E+03  0.70198511241E+03  0.00000000000E+00 0. -1.
<mgrwt>
<rscale>  0 0.65204299E+03</rscale>
<asrwt>0</asrwt>
<pdfrwt beam="1">0</pdfrwt>
<pdfrwt beam="2">  1        2 0.38650996E+00 0.65204299E+03</pdfrwt>
<totfact> 0.44713428E+00</totfact>
</mgrwt>
</event>
<event>
 5    1  0.2344661E-004  0.6310058E+03  0.7818608E-02  0.9843088E-01
         13   -1    0    0    0    0  0.00000000000E+00  0.00000000000E+00  0.10000000000E+04  0.10000000000E+04  0.00000000000E+00 0. -1.
          2   -1    0    0  501    0 -0.00000000000E+00 -0.00000000000E+00 -0.99542065390E+02  0.99542065390E+02  0.00000000000E+00 0. -1.
    9000006    2    1    2  501    0  0.00000000000E+00  0.00000000000E+00  0.90045793461E+03  0.10995420654E+04  0.63100575398E+03 0.  0.
         13    1    3    3    0    0 -0.17163411405E+02 -0.10523312402E+03  0.96765407810E+03  0.97351066144E+03  0.00000000000E+00 0. -1.
          4    1    3    3  501    0  0.17163411405E+02  0.10523312402E+03 -0.67196143489E+02  0.12603140395E+03  0.00000000000E+00 0. -1.
<mgrwt>
<rscale>  0 0.63100575E+03</rscale>
<asrwt>0</asrwt>
<pdfrwt beam="1">0</pdfrwt>
<pdfrwt beam="2">  1        2 0.36197191E+00 0.63100575E+03</pdfrwt>
<totfact> 0.55119064E+00</totfact>
</mgrwt>
</event>
<event>
 5    1  0.2344661E-004  0.6539194E+03  0.7818608E-02  0.9799452E-01
         13   -1    0    0    0    0  0.00000000000E+00  0.00000000000E+00  0.10000000000E+04  0.10000000000E+04  0.00000000000E+00 0. -1.
          2   -1    0    0  501    0 -0.00000000000E+00 -0.00000000000E+00 -0.10690265073E+03  0.10690265073E+03  0.00000000000E+00 0. -1.
    9000006    2    1    2  501    0  0.00000000000E+00  0.00000000000E+00  0.89309734927E+03  0.11069026507E+04  0.65391941623E+03 0.  0.
         13    1    3    3    0    0 -0.34321411300E+02 -0.92942459041E+02 -0.80880771924E+02  0.12789823780E+03  0.00000000000E+00 0. -1.
          4    1    3    3  501    0  0.34321411300E+02  0.92942459041E+02  0.97397812119E+03  0.97900441293E+03  0.00000000000E+00 0. -1.
<mgrwt>
<rscale>  0 0.65391942E+03</rscale>
<asrwt>0</asrwt>
<pdfrwt beam="1">0</pdfrwt>
<pdfrwt beam="2">  1        2 0.38873773E+00 0.65391942E+03</pdfrwt>
<totfact> 0.43863599E+00</totfact>
</mgrwt>
</event>
<event>
 5    1  0.2344661E-004  0.6570487E+03  0.7818608E-02  0.9793642E-01
         13   -1    0    0    0    0  0.00000000000E+00  0.00000000000E+00  0.10000000000E+04  0.10000000000E+04  0.00000000000E+00 0. -1.
          2   -1    0    0  501    0 -0.00000000000E+00 -0.00000000000E+00 -0.10792823533E+03  0.10792823533E+03  0.00000000000E+00 0. -1.
    9000006    2    1    2  501    0  0.00000000000E+00  0.00000000000E+00  0.89207176467E+03  0.11079282353E+04  0.65704865979E+03 0.  0.
         13    1    3    3    0    0 -0.13821283590E+03 -0.24417779376E+03  0.73419027595E+03  0.78597769961E+03  0.00000000000E+00 0. -1.
          2    1    3    3  501    0  0.13821283590E+03  0.24417779376E+03  0.15788148871E+03  0.32195053573E+03  0.00000000000E+00 0. -1.
<mgrwt>
<rscale>  0 0.65704866E+03</rscale>
<asrwt>0</asrwt>
<pdfrwt beam="1">0</pdfrwt>
<pdfrwt beam="2">  1        2 0.39246714E+00 0.65704866E+03</pdfrwt>
<totfact> 0.42473576E+00</totfact>
</mgrwt>
</event>
<event>
 5    1  0.2344661E-004  0.6478295E+03  0.7818608E-02  0.9810861E-01
         13   -1    0    0    0    0  0.00000000000E+00  0.00000000000E+00  0.10000000000E+04  0.10000000000E+04  0.00000000000E+00 0. -1.
          2   -1    0    0  501    0 -0.00000000000E+00 -0.00000000000E+00 -0.10492075522E+03  0.10492075522E+03  0.00000000000E+00 0. -1.
    9000006    2    1    2  501    0  0.00000000000E+00  0.00000000000E+00  0.89507924478E+03  0.11049207552E+04  0.64782946899E+03 0.  0.
         13    1    3    3    0    0 -0.18641704984E+03  0.10037013379E+03  0.29429583311E+02  0.21375589021E+03  0.00000000000E+00 0. -1.
          4    1    3    3  501    0  0.18641704984E+03 -0.10037013379E+03  0.86564966147E+03  0.89116486501E+03  0.00000000000E+00 0. -1.
<mgrwt>
<rscale>  0 0.64782947E+03</rscale>
<asrwt>0</asrwt>
<pdfrwt beam="1">0</pdfrwt>
<pdfrwt beam="2">  1        2 0.38153082E+00 0.64782947E+03</pdfrwt>
<totfact> 0.46667021E+00</totfact>
</mgrwt>
</event>
<event>
 5    1  0.2344661E-004  0.6702097E+03  0.7818608E-02  0.9769579E-01
         13   -1    0    0    0    0  0.00000000000E+00  0.00000000000E+00  0.10000000000E+04  0.10000000000E+04  0.00000000000E+00 0. -1.
          2   -1    0    0  501    0 -0.00000000000E+00 -0.00000000000E+00 -0.11229526492E+03  0.11229526492E+03  0.00000000000E+00 0. -1.
    9000006    2    1    2  501    0  0.00000000000E+00  0.00000000000E+00  0.88770473508E+03  0.11122952649E+04  0.67020971322E+03 0.  0.
         13    1    3    3    0    0 -0.13498970093E+03 -0.29907739543E+03  0.55672815246E+03  0.64623195801E+03  0.00000000000E+00 0. -1.
          2    1    3    3  501    0  0.13498970093E+03  0.29907739543E+03  0.33097658262E+03  0.46606330692E+03  0.00000000000E+00 0. -1.
<mgrwt>
<rscale>  0 0.67020971E+03</rscale>
<asrwt>0</asrwt>
<pdfrwt beam="1">0</pdfrwt>
<pdfrwt beam="2">  1        2 0.40834728E+00 0.67020971E+03</pdfrwt>
<totfact> 0.36988181E+00</totfact>
</mgrwt>
</event>
<event>
 5    1  0.2344661E-004  0.6564027E+03  0.7818608E-02  0.9794839E-01
         13   -1    0    0    0    0  0.00000000000E+00  0.00000000000E+00  0.10000000000E+04  0.10000000000E+04  0.00000000000E+00 0. -1.
          2   -1    0    0  501    0 -0.00000000000E+00 -0.00000000000E+00 -0.10771612351E+03  0.10771612351E+03  0.00000000000E+00 0. -1.
    9000006    2    1    2  501    0  0.00000000000E+00  0.00000000000E+00  0.89228387649E+03  0.11077161235E+04  0.65640269199E+03 0.  0.
         13    1    3    3    0    0 -0.26567780084E+03 -0.17991254601E+03  0.32967729427E+03  0.46004384185E+03  0.00000000000E+00 0. -1.
          2    1    3    3  501    0  0.26567780084E+03  0.17991254601E+03  0.56260658222E+03  0.64767228166E+03  0.00000000000E+00 0. -1.
<mgrwt>
<rscale>  0 0.65640269E+03</rscale>
<asrwt>0</asrwt>
<pdfrwt beam="1">0</pdfrwt>
<pdfrwt beam="2">  1        2 0.39169582E+00 0.65640269E+03</pdfrwt>
<totfact> 0.42757753E+00</totfact>
</mgrwt>
</event>
<event>
 5    1  0.2344661E-004  0.6576648E+03  0.7818608E-02  0.9792502E-01
         13   -1    0    0    0    0  0.00000000000E+00  0.00000000000E+00  0.10000000000E+04  0.10000000000E+04  0.00000000000E+00 0. -1.
          2   -1    0    0  501    0 -0.00000000000E+00 -0.00000000000E+00 -0.10813075173E+03  0.10813075173E+03  0.00000000000E+00 0. -1.
    9000006    2    1    2  501    0  0.00000000000E+00  0.00000000000E+00  0.89186924827E+03  0.11081307517E+04  0.65766481351E+03 0.  0.
         13    1    3    3    0    0 -0.19824810934E+03 -0.24830953778E+03  0.30325216738E+03  0.43922866075E+03  0.00000000000E+00 0. -1.
          4    1    3    3  501    0  0.19824810934E+03  0.24830953778E+03  0.58861708089E+03  0.66890209098E+03  0.00000000000E+00 0. -1.
<mgrwt>
<rscale>  0 0.65766481E+03</rscale>
<asrwt>0</asrwt>
<pdfrwt beam="1">0</pdfrwt>
<pdfrwt beam="2">  1        2 0.39320356E+00 0.65766481E+03</pdfrwt>
<totfact> 0.42203846E+00</totfact>
</mgrwt>
</event>
<event>
 5    1  0.2344661E-004  0.6444103E+03  0.7818608E-02  0.9817325E-01
         13   -1    0    0    0    0  0.00000000000E+00  0.00000000000E+00  0.10000000000E+04  0.10000000000E+04  0.00000000000E+00 0. -1.
          2   -1    0    0  501    0 -0.00000000000E+00 -0.00000000000E+00 -0.10381615951E+03  0.10381615951E+03  0.00000000000E+00 0. -1.
    9000006    2    1    2  501    0  0.00000000000E+00  0.00000000000E+00  0.89618384049E+03  0.11038161595E+04  0.64441030254E+03 0.  0.
         13    1    3    3    0    0  0.35527574056E+02  0.17540105757E+03  0.90703779450E+03  0.92452436429E+03  0.00000000000E+00 0. -1.
          2    1    3    3  501    0 -0.35527574056E+02 -0.17540105757E+03 -0.10853954007E+02  0.17929179521E+03  0.00000000000E+00 0. -1.
<mgrwt>
<rscale>  0 0.64441030E+03</rscale>
<asrwt>0</asrwt>
<pdfrwt beam="1">0</pdfrwt>
<pdfrwt beam="2">  1        2 0.37751410E+00 0.64441030E+03</pdfrwt>
<totfact> 0.48299184E+00</totfact>
</mgrwt>
</event>
<event>
 5    1  0.2344661E-004  0.6675305E+03  0.7818608E-02  0.9774429E-01
         13   -1    0    0    0    0  0.00000000000E+00  0.00000000000E+00  0.10000000000E+04  0.10000000000E+04  0.00000000000E+00 0. -1.
          2   -1    0    0  501    0 -0.00000000000E+00 -0.00000000000E+00 -0.11139924256E+03  0.11139924256E+03  0.00000000000E+00 0. -1.
    9000006    2    1    2  501    0  0.00000000000E+00  0.00000000000E+00  0.88860075744E+03  0.11113992426E+04  0.66753050136E+03 0.  0.
         13    1    3    3    0    0  0.17714542227E+03 -0.28057862985E+03  0.50420067076E+03  0.60359190232E+03  0.00000000000E+00 0. -1.
          4    1    3    3  501    0 -0.17714542227E+03  0.28057862985E+03  0.38440008668E+03  0.50780734024E+03  0.00000000000E+00 0. -1.
<mgrwt>
<rscale>  0 0.66753050E+03</rscale>
<asrwt>0</asrwt>
<pdfrwt beam="1">0</pdfrwt>
<pdfrwt beam="2">  1        2 0.40508901E+00 0.66753050E+03</pdfrwt>
<totfact> 0.38058807E+00</totfact>
</mgrwt>
</event>
<event>
 5    1  0.2344661E-004  0.6511935E+03  0.7818608E-02  0.9804542E-01
         13   -1    0    0    0    0  0.00000000000E+00  0.00000000000E+00  0.10000000000E+04  0.10000000000E+04  0.00000000000E+00 0. -1.
          2   -1    0    0  501    0 -0.00000000000E+00 -0.00000000000E+00 -0.10601323445E+03  0.10601323445E+03  0.00000000000E+00 0. -1.
    9000006    2    1    2  501    0  0.00000000000E+00  0.00000000000E+00  0.89398676555E+03  0.11060132344E+04  0.65119347185E+03 0.  0.
         13    1    3    3    0    0 -0.91732799775E+02 -0.27062525701E+03  0.71208230862E+03  0.76727710153E+03  0.00000000000E+00 0. -1.
          4    1    3    3  501    0  0.91732799775E+02  0.27062525701E+03  0.18190445693E+03  0.33873613291E+03  0.00000000000E+00 0. -1.
<mgrwt>
<rscale>  0 0.65119347E+03</rscale>
<asrwt>0</asrwt>
<pdfrwt beam="1">0</pdfrwt>
<pdfrwt beam="2">  1        2 0.38550348E+00 0.65119347E+03</pdfrwt>
<totfact> 0.45102235E+00</totfact>
</mgrwt>
</event>
<event>
 5    1  0.2344661E-004  0.6410642E+03  0.7818608E-02  0.9823693E-01
         13   -1    0    0    0    0  0.00000000000E+00  0.00000000000E+00  0.10000000000E+04  0.10000000000E+04  0.00000000000E+00 0. -1.
          2   -1    0    0  501    0 -0.00000000000E+00 -0.00000000000E+00 -0.10274082957E+03  0.10274082957E+03  0.00000000000E+00 0. -1.
    9000006    2    1    2  501    0  0.00000000000E+00  0.00000000000E+00  0.89725917043E+03  0.11027408296E+04  0.64106420763E+03 0.  0.
         13    1    3    3    0    0 -0.70223977339E+02  0.18863685492E+02 -0.88366145370E+02  0.11443697510E+03  0.00000000000E+00 0. -1.
          4    1    3    3  501    0  0.70223977339E+02 -0.18863685492E+02  0.98562531580E+03  0.98830385447E+03  0.00000000000E+00 0. -1.
<mgrwt>
<rscale>  0 0.64106421E+03</rscale>
<asrwt>0</asrwt>
<pdfrwt beam="1">0</pdfrwt>
<pdfrwt beam="2">  1        2 0.37360380E+00 0.64106421E+03</pdfrwt>
<totfact> 0.49938006E+00</totfact>
</mgrwt>
</event>
<event>
 5    1  0.2344661E-004  0.6605085E+03  0.7818608E-02  0.9787258E-01
         13   -1    0    0    0    0  0.00000000000E+00  0.00000000000E+00  0.10000000000E+04  0.10000000000E+04  0.00000000000E+00 0. -1.
          2   -1    0    0  501    0 -0.00000000000E+00 -0.00000000000E+00 -0.10906786892E+03  0.10906786892E+03  0.00000000000E+00 0. -1.
    9000006    2    1    2  501    0  0.00000000000E+00  0.00000000000E+00  0.89093213108E+03  0.11090678689E+04  0.66050849782E+03 0.  0.
         13    1    3    3    0    0  0.28079623482E+03  0.60472293678E+02  0.71913789062E+03  0.77437893148E+03  0.00000000000E+00 0. -1.
          4    1    3    3  501    0 -0.28079623482E+03 -0.60472293678E+02  0.17179424046E+03  0.33468893745E+03  0.00000000000E+00 0. -1.
<mgrwt>
<rscale>  0 0.66050850E+03</rscale>
<asrwt>0</asrwt>
<pdfrwt beam="1">0</pdfrwt>
<pdfrwt beam="2">  1        2 0.39661127E+00 0.66050850E+03</pdfrwt>
<totfact> 0.40975784E+00</totfact>
</mgrwt>
</event>
<event>
 5    1  0.2344661E-004  0.6533921E+03  0.7818608E-02  0.9800435E-01
         13   -1    0    0    0    0  0.00000000000E+00  0.00000000000E+00  0.10000000000E+04  0.10000000000E+04  0.00000000000E+00 0. -1.
          2   -1    0    0  501    0 -0.00000000000E+00 -0.00000000000E+00 -0.10673029557E+03  0.10673029557E+03  0.00000000000E+00 0. -1.
    9000006    2    1    2  501    0  0.00000000000E+00  0.00000000000E+00  0.89326970443E+03  0.11067302956E+04  0.65339205863E+03 0.  0.
         13    1    3    3    0    0 -0.15489508619E+03 -0.24751203021E+03  0.69485705632E+03  0.75371149755E+03  0.00000000000E+00 0. -1.
          4    1    3    3  501    0  0.15489508619E+03  0.24751203021E+03  0.19841264811E+03  0.35301879802E+03  0.00000000000E+00 0. -1.
<mgrwt>
<rscale>  0 0.65339206E+03</rscale>
<asrwt>0</asrwt>
<pdfrwt beam="1">0</pdfrwt>
<pdfrwt beam="2">  1        2 0.38811098E+00 0.65339206E+03</pdfrwt>
<totfact> 0.44101194E+00</totfact>
</mgrwt>
</event>
<event>
 5    1  0.2344661E-004  0.6510960E+03  0.7818608E-02  0.9804725E-01
         13   -1    0    0    0    0  0.00000000000E+00  0.00000000000E+00  0.10000000000E+04  0.10000000000E+04  0.00000000000E+00 0. -1.
          2   -1    0    0  501    0 -0.00000000000E+00 -0.00000000000E+00 -0.10598150550E+03  0.10598150550E+03  0.00000000000E+00 0. -1.
    9000006    2    1    2  501    0  0.00000000000E+00  0.00000000000E+00  0.89401849450E+03  0.11059815055E+04  0.65109601595E+03 0.  0.
         13    1    3    3    0    0  0.22012082308E+03  0.23933007651E+03  0.42018122383E+03  0.53130436017E+03  0.00000000000E+00 0. -1.
          4    1    3    3  501    0 -0.22012082308E+03 -0.23933007651E+03  0.47383727068E+03  0.57467714533E+03  0.00000000000E+00 0. -1.
<mgrwt>
<rscale>  0 0.65109602E+03</rscale>
<asrwt>0</asrwt>
<pdfrwt beam="1">0</pdfrwt>
<pdfrwt beam="2">  1        2 0.38538811E+00 0.65109602E+03</pdfrwt>
<totfact> 0.45147001E+00</totfact>
</mgrwt>
</event>
<event>
 5    1  0.2344661E-004  0.6385818E+03  0.7818608E-02  0.9828444E-01
         13   -1    0    0    0    0  0.00000000000E+00  0.00000000000E+00  0.10000000000E+04  0.10000000000E+04  0.00000000000E+00 0. -1.
          2   -1    0    0  501    0 -0.00000000000E+00 -0.00000000000E+00 -0.10194667663E+03  0.10194667663E+03  0.00000000000E+00 0. -1.
    9000006    2    1    2  501    0  0.00000000000E+00  0.00000000000E+00  0.89805332337E+03  0.11019466766E+04  0.63858179314E+03 0.  0.
         13    1    3    3    0    0 -0.10126502693E+03 -0.18290546089E+03  0.32592817390E+02  0.21159230858E+03  0.00000000000E+00 0. -1.
          2    1    3    3  501    0  0.10126502693E+03  0.18290546089E+03  0.86546050598E+03  0.89035436805E+03  0.00000000000E+00 0. -1.
<mgrwt>
<rscale>  0 0.63858179E+03</rscale>
<asrwt>0</asrwt>
<pdfrwt beam="1">0</pdfrwt>
<pdfrwt beam="2">  1        2 0.37071597E+00 0.63858179E+03</pdfrwt>
<totfact> 0.51180825E+00</totfact>
</mgrwt>
</event>
<event>
 5    1  0.2344661E-004  0.4842029E+03  0.7818608E-02  0.1017986E+00
         13   -1    0    0    0    0  0.00000000000E+00  0.00000000000E+00  0.10000000000E+04  0.10000000000E+04  0.00000000000E+00 0. -1.
          2   -1    0    0  501    0 -0.00000000000E+00 -0.00000000000E+00 -0.58613117488E+02  0.58613117488E+02  0.00000000000E+00 0. -1.
    9000006    2    1    2  501    0  0.00000000000E+00  0.00000000000E+00  0.94138688251E+03  0.10586131175E+04  0.48420292229E+03 0.  0.
         13    1    3    3    0    0  0.15955491903E+03 -0.11649803874E+03  0.77664706450E+03  0.80138020191E+03  0.00000000000E+00 0. -1.
          4    1    3    3  501    0 -0.15955491903E+03  0.11649803874E+03  0.16473981801E+03  0.25723291558E+03  0.00000000000E+00 0. -1.
<mgrwt>
<rscale>  0 0.48420292E+03</rscale>
<asrwt>0</asrwt>
<pdfrwt beam="1">0</pdfrwt>
<pdfrwt beam="2">  1        2 0.21313906E+00 0.48420292E+03</pdfrwt>
<totfact> 0.18981677E+01</totfact>
</mgrwt>
</event>
<event>
 5    1  0.2344661E-004  0.6333036E+03  0.7818608E-02  0.9838623E-01
         13   -1    0    0    0    0  0.00000000000E+00  0.00000000000E+00  0.10000000000E+04  0.10000000000E+04  0.00000000000E+00 0. -1.
          2   -1    0    0  501    0 -0.00000000000E+00 -0.00000000000E+00 -0.10026837480E+03  0.10026837480E+03  0.00000000000E+00 0. -1.
    9000006    2    1    2  501    0  0.00000000000E+00  0.00000000000E+00  0.89973162520E+03  0.11002683748E+04  0.63330363901E+03 0.  0.
         13    1    3    3    0    0  0.27828605295E+03 -0.59342734731E+02  0.69124887025E+03  0.74752236625E+03  0.00000000000E+00 0. -1.
          2    1    3    3  501    0 -0.27828605295E+03  0.59342734731E+02  0.20848275495E+03  0.35274600854E+03  0.00000000000E+00 0. -1.
<mgrwt>
<rscale>  0 0.63330364E+03</rscale>
<asrwt>0</asrwt>
<pdfrwt beam="1">0</pdfrwt>
<pdfrwt beam="2">  1        2 0.36461304E+00 0.63330364E+03</pdfrwt>
<totfact> 0.53901115E+00</totfact>
</mgrwt>
</event>
<event>
 5    1  0.2344661E-004  0.6452616E+03  0.7818608E-02  0.9815711E-01
         13   -1    0    0    0    0  0.00000000000E+00  0.00000000000E+00  0.10000000000E+04  0.10000000000E+04  0.00000000000E+00 0. -1.
          2   -1    0    0  501    0 -0.00000000000E+00 -0.00000000000E+00 -0.10409063287E+03  0.10409063287E+03  0.00000000000E+00 0. -1.
    9000006    2    1    2  501    0  0.00000000000E+00  0.00000000000E+00  0.89590936713E+03  0.11040906329E+04  0.64526159927E+03 0.  0.
         13    1    3    3    0    0  0.20702602459E+03  0.23680845731E+03  0.57077851734E+03  0.65171016270E+03  0.00000000000E+00 0. -1.
          2    1    3    3  501    0 -0.20702602459E+03 -0.23680845731E+03  0.32513084978E+03  0.45238047017E+03  0.00000000000E+00 0. -1.
<mgrwt>
<rscale>  0 0.64526160E+03</rscale>
<asrwt>0</asrwt>
<pdfrwt beam="1">0</pdfrwt>
<pdfrwt beam="2">  1        2 0.37851219E+00 0.64526160E+03</pdfrwt>
<totfact> 0.47888837E+00</totfact>
</mgrwt>
</event>
<event>
 5    1  0.2344661E-004  0.6462799E+03  0.7818608E-02  0.9813785E-01
         13   -1    0    0    0    0  0.00000000000E+00  0.00000000000E+00  0.10000000000E+04  0.10000000000E+04  0.00000000000E+00 0. -1.
          2   -1    0    0  501    0 -0.00000000000E+00 -0.00000000000E+00 -0.10441941645E+03  0.10441941645E+03  0.00000000000E+00 0. -1.
    9000006    2    1    2  501    0  0.00000000000E+00  0.00000000000E+00  0.89558058355E+03  0.11044194165E+04  0.64627986647E+03 0.  0.
         13    1    3    3    0    0 -0.23426421164E+03  0.41092710207E+02  0.82160750920E+03  0.85534041811E+03  0.00000000000E+00 0. -1.
          4    1    3    3  501    0  0.23426421164E+03 -0.41092710207E+02  0.73973074350E+02  0.24907899834E+03  0.00000000000E+00 0. -1.
<mgrwt>
<rscale>  0 0.64627987E+03</rscale>
<asrwt>0</asrwt>
<pdfrwt beam="1">0</pdfrwt>
<pdfrwt beam="2">  1        2 0.37970777E+00 0.64627987E+03</pdfrwt>
<totfact> 0.47401477E+00</totfact>
</mgrwt>
</event>
<event>
 5    1  0.2344661E-004  0.6539760E+03  0.7818608E-02  0.9799347E-01
         13   -1    0    0    0    0  0.00000000000E+00  0.00000000000E+00  0.10000000000E+04  0.10000000000E+04  0.00000000000E+00 0. -1.
          2   -1    0    0  501    0 -0.00000000000E+00 -0.00000000000E+00 -0.10692116292E+03  0.10692116292E+03  0.00000000000E+00 0. -1.
    9000006    2    1    2  501    0  0.00000000000E+00  0.00000000000E+00  0.89307883708E+03  0.11069211629E+04  0.65397603295E+03 0.  0.
         13    1    3    3    0    0  0.17727738064E+03  0.23235987329E+03  0.19833918296E+03  0.35320930324E+03  0.00000000000E+00 0. -1.
          4    1    3    3  501    0 -0.17727738064E+03 -0.23235987329E+03  0.69473965412E+03  0.75371185967E+03  0.00000000000E+00 0. -1.
<mgrwt>
<rscale>  0 0.65397603E+03</rscale>
<asrwt>0</asrwt>
<pdfrwt beam="1">0</pdfrwt>
<pdfrwt beam="2">  1        2 0.38880505E+00 0.65397603E+03</pdfrwt>
<totfact> 0.43838148E+00</totfact>
</mgrwt>
</event>
<event>
 5    1  0.2344661E-004  0.6410101E+03  0.7818608E-02  0.9823796E-01
         13   -1    0    0    0    0  0.00000000000E+00  0.00000000000E+00  0.10000000000E+04  0.10000000000E+04  0.00000000000E+00 0. -1.
          2   -1    0    0  501    0 -0.00000000000E+00 -0.00000000000E+00 -0.10272348600E+03  0.10272348600E+03  0.00000000000E+00 0. -1.
    9000006    2    1    2  501    0  0.00000000000E+00  0.00000000000E+00  0.89727651400E+03  0.11027234860E+04  0.64101009664E+03 0.  0.
         13    1    3    3    0    0 -0.31408658723E+03  0.49099291095E+02  0.51877804826E+03  0.60843388139E+03  0.00000000000E+00 0. -1.
          2    1    3    3  501    0  0.31408658723E+03 -0.49099291095E+02  0.37849846574E+03  0.49428960461E+03  0.00000000000E+00 0. -1.
<mgrwt>
<rscale>  0 0.64101010E+03</rscale>
<asrwt>0</asrwt>
<pdfrwt beam="1">0</pdfrwt>
<pdfrwt beam="2">  1        2 0.37354074E+00 0.64101010E+03</pdfrwt>
<totfact> 0.49964851E+00</totfact>
</mgrwt>
</event>
<event>
 5    1  0.2344661E-004  0.6305960E+03  0.7818608E-02  0.9843887E-01
         13   -1    0    0    0    0  0.00000000000E+00  0.00000000000E+00  0.10000000000E+04  0.10000000000E+04  0.00000000000E+00 0. -1.
          2   -1    0    0  501    0 -0.00000000000E+00 -0.00000000000E+00 -0.99412817471E+02  0.99412817471E+02  0.00000000000E+00 0. -1.
    9000006    2    1    2  501    0  0.00000000000E+00  0.00000000000E+00  0.90058718253E+03  0.10994128175E+04  0.63059596405E+03 0.  0.
         13    1    3    3    0    0 -0.12181763944E+03 -0.24945359608E+03  0.18967146097E+03  0.33621703850E+03  0.00000000000E+00 0. -1.
          4    1    3    3  501    0  0.12181763944E+03  0.24945359608E+03  0.71091572156E+03  0.76319577897E+03  0.00000000000E+00 0. -1.
<mgrwt>
<rscale>  0 0.63059596E+03</rscale>
<asrwt>0</asrwt>
<pdfrwt beam="1">0</pdfrwt>
<pdfrwt beam="2">  1        2 0.36150192E+00 0.63059596E+03</pdfrwt>
<totfact> 0.55338441E+00</totfact>
</mgrwt>
</event>
<event>
 5    1  0.2344661E-004  0.6559452E+03  0.7818608E-02  0.9795687E-01
         13   -1    0    0    0    0  0.00000000000E+00  0.00000000000E+00  0.10000000000E+04  0.10000000000E+04  0.00000000000E+00 0. -1.
          2   -1    0    0  501    0 -0.00000000000E+00 -0.00000000000E+00 -0.10756602763E+03  0.10756602763E+03  0.00000000000E+00 0. -1.
    9000006    2    1    2  501    0  0.00000000000E+00  0.00000000000E+00  0.89243397237E+03  0.11075660276E+04  0.65594520390E+03 0.  0.
         13    1    3    3    0    0 -0.12344947347E+03 -0.25686078336E+03  0.17213377818E+03  0.33293733963E+03  0.00000000000E+00 0. -1.
          2    1    3    3  501    0  0.12344947347E+03  0.25686078336E+03  0.72030019419E+03  0.77462868800E+03  0.00000000000E+00 0. -1.
<mgrwt>
<rscale>  0 0.65594520E+03</rscale>
<asrwt>0</asrwt>
<pdfrwt beam="1">0</pdfrwt>
<pdfrwt beam="2">  1        2 0.39115002E+00 0.65594520E+03</pdfrwt>
<totfact> 0.42959881E+00</totfact>
</mgrwt>
</event>
<event>
 5    1  0.2344661E-004  0.6452394E+03  0.7818608E-02  0.9815753E-01
         13   -1    0    0    0    0  0.00000000000E+00  0.00000000000E+00  0.10000000000E+04  0.10000000000E+04  0.00000000000E+00 0. -1.
          2   -1    0    0  501    0 -0.00000000000E+00 -0.00000000000E+00 -0.10408346147E+03  0.10408346147E+03  0.00000000000E+00 0. -1.
    9000006    2    1    2  501    0  0.00000000000E+00  0.00000000000E+00  0.89591653853E+03  0.11040834615E+04  0.64523937100E+03 0.  0.
         13    1    3    3    0    0 -0.21776998692E+03 -0.22048620311E+03  0.60144058184E+03  0.67658606729E+03  0.00000000000E+00 0. -1.
          2    1    3    3  501    0  0.21776998692E+03  0.22048620311E+03  0.29447595668E+03  0.42749739418E+03  0.00000000000E+00 0. -1.
<mgrwt>
<rscale>  0 0.64523937E+03</rscale>
<asrwt>0</asrwt>
<pdfrwt beam="1">0</pdfrwt>
<pdfrwt beam="2">  1        2 0.37848611E+00 0.64523937E+03</pdfrwt>
<totfact> 0.47899518E+00</totfact>
</mgrwt>
</event>
<event>
 5    1  0.2344661E-004  0.6508949E+03  0.7818608E-02  0.9805102E-01
         13   -1    0    0    0    0  0.00000000000E+00  0.00000000000E+00  0.10000000000E+04  0.10000000000E+04  0.00000000000E+00 0. -1.
          2   -1    0    0  501    0 -0.00000000000E+00 -0.00000000000E+00 -0.10591602717E+03  0.10591602717E+03  0.00000000000E+00 0. -1.
    9000006    2    1    2  501    0  0.00000000000E+00  0.00000000000E+00  0.89408397283E+03  0.11059160272E+04  0.65089485226E+03 0.  0.
         13    1    3    3    0    0  0.16769311887E+03 -0.24911752946E+03  0.66017543422E+03  0.72526693676E+03  0.00000000000E+00 0. -1.
          2    1    3    3  501    0 -0.16769311887E+03  0.24911752946E+03  0.23390853860E+03  0.38064909041E+03  0.00000000000E+00 0. -1.
<mgrwt>
<rscale>  0 0.65089485E+03</rscale>
<asrwt>0</asrwt>
<pdfrwt beam="1">0</pdfrwt>
<pdfrwt beam="2">  1        2 0.38515000E+00 0.65089485E+03</pdfrwt>
<totfact> 0.45239512E+00</totfact>
</mgrwt>
</event>
<event>
 5    1  0.2344661E-004  0.5030931E+03  0.7818608E-02  0.1012975E+00
         13   -1    0    0    0    0  0.00000000000E+00  0.00000000000E+00  0.10000000000E+04  0.10000000000E+04  0.00000000000E+00 0. -1.
          2   -1    0    0  501    0 -0.00000000000E+00 -0.00000000000E+00 -0.63275678592E+02  0.63275678592E+02  0.00000000000E+00 0. -1.
    9000006    2    1    2  501    0  0.00000000000E+00  0.00000000000E+00  0.93672432141E+03  0.10632756786E+04  0.50309314681E+03 0.  0.
         13    1    3    3    0    0  0.96318250091E+02  0.18216688319E+03  0.77327248048E+03  0.80025765082E+03  0.00000000000E+00 0. -1.
          2    1    3    3  501    0 -0.96318250091E+02 -0.18216688319E+03  0.16345184093E+03  0.26301802777E+03  0.00000000000E+00 0. -1.
<mgrwt>
<rscale>  0 0.50309315E+03</rscale>
<asrwt>0</asrwt>
<pdfrwt beam="1">0</pdfrwt>
<pdfrwt beam="2">  1        2 0.23009386E+00 0.50309315E+03</pdfrwt>
<totfact> 0.16451548E+01</totfact>
</mgrwt>
</event>
<event>
 5    1  0.2344661E-004  0.6523424E+03  0.7818608E-02  0.9802394E-01
         13   -1    0    0    0    0  0.00000000000E+00  0.00000000000E+00  0.10000000000E+04  0.10000000000E+04  0.00000000000E+00 0. -1.
          2   -1    0    0  501    0 -0.00000000000E+00 -0.00000000000E+00 -0.10638765264E+03  0.10638765264E+03  0.00000000000E+00 0. -1.
    9000006    2    1    2  501    0  0.00000000000E+00  0.00000000000E+00  0.89361234736E+03  0.11063876526E+04  0.65234240287E+03 0.  0.
         13    1    3    3    0    0  0.60684843940E+02  0.32034996006E+03  0.43155087912E+03  0.54087235875E+03  0.00000000000E+00 0. -1.
          4    1    3    3  501    0 -0.60684843940E+02 -0.32034996006E+03  0.46206146824E+03  0.56551529389E+03  0.00000000000E+00 0. -1.
<mgrwt>
<rscale>  0 0.65234240E+03</rscale>
<asrwt>0</asrwt>
<pdfrwt beam="1">0</pdfrwt>
<pdfrwt beam="2">  1        2 0.38686501E+00 0.65234240E+03</pdfrwt>
<totfact> 0.44576996E+00</totfact>
</mgrwt>
</event>
<event>
 5    1  0.2344661E-004  0.6352370E+03  0.7818608E-02  0.9834882E-01
         13   -1    0    0    0    0  0.00000000000E+00  0.00000000000E+00  0.10000000000E+04  0.10000000000E+04  0.00000000000E+00 0. -1.
          2   -1    0    0  501    0 -0.00000000000E+00 -0.00000000000E+00 -0.10088151143E+03  0.10088151143E+03  0.00000000000E+00 0. -1.
    9000006    2    1    2  501    0  0.00000000000E+00  0.00000000000E+00  0.89911848857E+03  0.11008815114E+04  0.63523699966E+03 0.  0.
         13    1    3    3    0    0 -0.23817642390E+03  0.16911513011E+01  0.81370336836E+03  0.84784670819E+03  0.00000000000E+00 0. -1.
          4    1    3    3  501    0  0.23817642390E+03 -0.16911513011E+01  0.85415120204E+02  0.25303480325E+03  0.00000000000E+00 0. -1.
<mgrwt>
<rscale>  0 0.63523700E+03</rscale>
<asrwt>0</asrwt>
<pdfrwt beam="1">0</pdfrwt>
<pdfrwt beam="2">  1        2 0.36684263E+00 0.63523700E+03</pdfrwt>
<totfact> 0.52892280E+00</totfact>
</mgrwt>
</event>
<event>
 5    1  0.2344661E-004  0.6556392E+03  0.7818608E-02  0.9796255E-01
         13   -1    0    0    0    0  0.00000000000E+00  0.00000000000E+00  0.10000000000E+04  0.10000000000E+04  0.00000000000E+00 0. -1.
          2   -1    0    0  501    0 -0.00000000000E+00 -0.00000000000E+00 -0.10746570595E+03  0.10746570595E+03  0.00000000000E+00 0. -1.
    9000006    2    1    2  501    0  0.00000000000E+00  0.00000000000E+00  0.89253429405E+03  0.11074657059E+04  0.65563924821E+03 0.  0.
         13    1    3    3    0    0  0.29124899674E+03  0.14848752204E+03  0.40519697258E+03  0.52063337282E+03  0.00000000000E+00 0. -1.
          4    1    3    3  501    0 -0.29124899674E+03 -0.14848752204E+03  0.48733732147E+03  0.58683233313E+03  0.00000000000E+00 0. -1.
<mgrwt>
<rscale>  0 0.65563925E+03</rscale>
<asrwt>0</asrwt>
<pdfrwt beam="1">0</pdfrwt>
<pdfrwt beam="2">  1        2 0.39078521E+00 0.65563925E+03</pdfrwt>
<totfact> 0.43095460E+00</totfact>
</mgrwt>
</event>
<event>
 5    1  0.2344661E-004  0.6451105E+03  0.7818608E-02  0.9815998E-01
         13   -1    0    0    0    0  0.00000000000E+00  0.00000000000E+00  0.10000000000E+04  0.10000000000E+04  0.00000000000E+00 0. -1.
          2   -1    0    0  501    0 -0.00000000000E+00 -0.00000000000E+00 -0.10404188339E+03  0.10404188339E+03  0.00000000000E+00 0. -1.
    9000006    2    1    2  501    0  0.00000000000E+00  0.00000000000E+00  0.89595811661E+03  0.11040418834E+04  0.64511048166E+03 0.  0.
         13    1    3    3    0    0 -0.27195587776E+03  0.12508100747E+03  0.65360802654E+03  0.71889408833E+03  0.00000000000E+00 0. -1.
          2    1    3    3  501    0  0.27195587776E+03 -0.12508100747E+03  0.24235009007E+03  0.38514779506E+03  0.00000000000E+00 0. -1.
<mgrwt>
<rscale>  0 0.64511048E+03</rscale>
<asrwt>0</asrwt>
<pdfrwt beam="1">0</pdfrwt>
<pdfrwt beam="2">  1        2 0.37833492E+00 0.64511048E+03</pdfrwt>
<totfact> 0.47961486E+00</totfact>
</mgrwt>
</event>
<event>
 5    1  0.2344661E-004  0.6398104E+03  0.7818608E-02  0.9826089E-01
         13   -1    0    0    0    0  0.00000000000E+00  0.00000000000E+00  0.10000000000E+04  0.10000000000E+04  0.00000000000E+00 0. -1.
          2   -1    0    0  501    0 -0.00000000000E+00 -0.00000000000E+00 -0.10233933290E+03  0.10233933290E+03  0.00000000000E+00 0. -1.
    9000006    2    1    2  501    0  0.00000000000E+00  0.00000000000E+00  0.89766066710E+03  0.11023393329E+04  0.63981038722E+03 0.  0.
         13    1    3    3    0    0 -0.11754345551E+03 -0.26530479497E+03  0.21680383758E+03  0.36222507113E+03  0.00000000000E+00 0. -1.
          4    1    3    3  501    0  0.11754345551E+03  0.26530479497E+03  0.68085682952E+03  0.74011426177E+03  0.00000000000E+00 0. -1.
<mgrwt>
<rscale>  0 0.63981039E+03</rscale>
<asrwt>0</asrwt>
<pdfrwt beam="1">0</pdfrwt>
<pdfrwt beam="2">  1        2 0.37214381E+00 0.63981039E+03</pdfrwt>
<totfact> 0.50562838E+00</totfact>
</mgrwt>
</event>
<event>
 5    1  0.2344661E-004  0.6521064E+03  0.7818608E-02  0.9802835E-01
         13   -1    0    0    0    0  0.00000000000E+00  0.00000000000E+00  0.10000000000E+04  0.10000000000E+04  0.00000000000E+00 0. -1.
          2   -1    0    0  501    0 -0.00000000000E+00 -0.00000000000E+00 -0.10631069501E+03  0.10631069501E+03  0.00000000000E+00 0. -1.
    9000006    2    1    2  501    0  0.00000000000E+00  0.00000000000E+00  0.89368930499E+03  0.11063106950E+04  0.65210641774E+03 0.  0.
         13    1    3    3    0    0 -0.28910097084E+03 -0.11582440993E+03  0.28309738194E+03  0.42087859643E+03  0.00000000000E+00 0. -1.
          4    1    3    3  501    0  0.28910097084E+03  0.11582440993E+03  0.61059192305E+03  0.68543209858E+03  0.00000000000E+00 0. -1.
<mgrwt>
<rscale>  0 0.65210642E+03</rscale>
<asrwt>0</asrwt>
<pdfrwt beam="1">0</pdfrwt>
<pdfrwt beam="2">  1        2 0.38658516E+00 0.65210642E+03</pdfrwt>
<totfact> 0.44684499E+00</totfact>
</mgrwt>
</event>
<event>
 5    1  0.2344661E-004  0.5936222E+03  0.7818608E-02  0.9918727E-01
         13   -1    0    0    0    0  0.00000000000E+00  0.00000000000E+00  0.10000000000E+04  0.10000000000E+04  0.00000000000E+00 0. -1.
          2   -1    0    0  501    0 -0.00000000000E+00 -0.00000000000E+00 -0.88096837379E+02  0.88096837379E+02  0.00000000000E+00 0. -1.
    9000006    2    1    2  501    0  0.00000000000E+00  0.00000000000E+00  0.91190316262E+03  0.10880968374E+04  0.59362222795E+03 0.  0.
         13    1    3    3    0    0  0.17536434303E+03  0.21444928341E+03  0.65127942081E+03  0.70774715254E+03  0.00000000000E+00 0. -1.
          2    1    3    3  501    0 -0.17536434303E+03 -0.21444928341E+03  0.26062374181E+03  0.38034968484E+03  0.00000000000E+00 0. -1.
<mgrwt>
<rscale>  0 0.59362223E+03</rscale>
<asrwt>0</asrwt>
<pdfrwt beam="1">0</pdfrwt>
<pdfrwt beam="2">  1        2 0.32035281E+00 0.59362223E+03</pdfrwt>
<totfact> 0.78044366E+00</totfact>
</mgrwt>
</event>
<event>
 5    1  0.2344661E-004  0.6413618E+03  0.7818608E-02  0.9823124E-01
         13   -1    0    0    0    0  0.00000000000E+00  0.00000000000E+00  0.10000000000E+04  0.10000000000E+04  0.00000000000E+00 0. -1.
          2   -1    0    0  501    0 -0.00000000000E+00 -0.00000000000E+00 -0.10283624477E+03  0.10283624477E+03  0.00000000000E+00 0. -1.
    9000006    2    1    2  501    0  0.00000000000E+00  0.00000000000E+00  0.89716375523E+03  0.11028362448E+04  0.64136181606E+03 0.  0.
         13    1    3    3    0    0  0.16215766775E+03  0.17302079102E+03  0.77368247818E+02  0.24943365672E+03  0.00000000000E+00 0. -1.
          2    1    3    3  501    0 -0.16215766775E+03 -0.17302079102E+03  0.81979550741E+03  0.85340258806E+03  0.00000000000E+00 0. -1.
<mgrwt>
<rscale>  0 0.64136182E+03</rscale>
<asrwt>0</asrwt>
<pdfrwt beam="1">0</pdfrwt>
<pdfrwt beam="2">  1        2 0.37395077E+00 0.64136182E+03</pdfrwt>
<totfact> 0.49790558E+00</totfact>
</mgrwt>
</event>
<event>
 5    1  0.2344661E-004  0.6932641E+03  0.7818608E-02  0.9728821E-01
         13   -1    0    0    0    0  0.00000000000E+00  0.00000000000E+00  0.10000000000E+04  0.10000000000E+04  0.00000000000E+00 0. -1.
          2   -1    0    0  501    0 -0.00000000000E+00 -0.00000000000E+00 -0.12015378920E+03  0.12015378920E+03  0.00000000000E+00 0. -1.
    9000006    2    1    2  501    0  0.00000000000E+00  0.00000000000E+00  0.87984621080E+03  0.11201537892E+04  0.69326413205E+03 0.  0.
         13    1    3    3    0    0  0.30888270014E+03 -0.11081266236E+03  0.62032427855E+03  0.70177644527E+03  0.00000000000E+00 0. -1.
          4    1    3    3  501    0 -0.30888270014E+03  0.11081266236E+03  0.25952193226E+03  0.41837734392E+03  0.00000000000E+00 0. -1.
<mgrwt>
<rscale>  0 0.69326413E+03</rscale>
<asrwt>0</asrwt>
<pdfrwt beam="1">0</pdfrwt>
<pdfrwt beam="2">  1        2 0.43692379E+00 0.69326413E+03</pdfrwt>
<totfact> 0.28686065E+00</totfact>
</mgrwt>
</event>
<event>
 5    1  0.2344661E-004  0.6585168E+03  0.7818608E-02  0.9790928E-01
         13   -1    0    0    0    0  0.00000000000E+00  0.00000000000E+00  0.10000000000E+04  0.10000000000E+04  0.00000000000E+00 0. -1.
          2   -1    0    0  501    0 -0.00000000000E+00 -0.00000000000E+00 -0.10841108545E+03  0.10841108545E+03  0.00000000000E+00 0. -1.
    9000006    2    1    2  501    0  0.00000000000E+00  0.00000000000E+00  0.89158891455E+03  0.11084110854E+04  0.65851677412E+03 0.  0.
         13    1    3    3    0    0 -0.27040101036E+02  0.23506141682E+03  0.83119079366E+03  0.86421245779E+03  0.00000000000E+00 0. -1.
          2    1    3    3  501    0  0.27040101036E+02 -0.23506141682E+03  0.60398120891E+02  0.24419862765E+03  0.00000000000E+00 0. -1.
<mgrwt>
<rscale>  0 0.65851677E+03</rscale>
<asrwt>0</asrwt>
<pdfrwt beam="1">0</pdfrwt>
<pdfrwt beam="2">  1        2 0.39422296E+00 0.65851677E+03</pdfrwt>
<totfact> 0.41833032E+00</totfact>
</mgrwt>
</event>
