<event>
 6    1  0.1213626E-003  0.6457090E+03  0.7818608E-02  0.9814864E-01
          1   -1    0    0  502    0  0.00000000000E+00  0.00000000000E+00  0.10423512217E+03  0.10423512217E+03  0.00000000000E+00 0.  1.
         13   -1    0    0    0    0 -0.00000000000E+00 -0.00000000000E+00 -0.10000000000E+04  0.10000000000E+04  0.00000000000E+00 0.  1.
    9000005    2    1    2  501    0 -0.65995279371E-04  0.95743052263E-04 -0.89576493622E+03  0.11042349920E+04  0.64570898762E+03 0.  0.
         13    1    3    3    0    0 -0.34356966150E+02  0.29534513415E+02  0.98771605326E+02  0.10866700798E+03  0.00000000000E+00 0.  1.
          1    1    3    3  501    0  0.34356900155E+02 -0.29534417672E+02 -0.99453654155E+03  0.99556798406E+03  0.00000000000E+00 0.  1.
         21    1    1    2  502  501  0.65995279367E-04 -0.95743052264E-04  0.58395943865E-04  0.13012376883E-03  0.00000000000E+00 0.  1.
<mgrwt>
<rscale>  1 0.64570899E+03</rscale>
<asrwt>0</asrwt>
<pdfrwt beam="1">  1        1 0.37903761E+00 0.64570899E+03</pdfrwt>
<pdfrwt beam="2">0</pdfrwt>
<totfact> 0.16583992E+00</totfact>
</mgrwt>
</event>
<event>
 6    1  0.1213626E-003  0.6495187E+03  0.7818608E-02  0.9807683E-01
          1   -1    0    0  502    0  0.00000000000E+00  0.00000000000E+00  0.10553064073E+03  0.10553064073E+03  0.00000000000E+00 0.  1.
         13   -1    0    0    0    0 -0.00000000000E+00 -0.00000000000E+00 -0.10000000000E+04  0.10000000000E+04  0.00000000000E+00 0.  1.
    9000005    2    1    2  501    0 -0.17134844540E-01  0.19001893130E-01 -0.89452843243E+03  0.11054662644E+04  0.64951870230E+03 0.  0.
         13    1    3    3    0    0  0.49455162584E+02 -0.19986420022E+03 -0.87469301035E+03  0.89859856109E+03  0.00000000000E+00 0.  1.
          1    1    3    3  501    0 -0.49472297429E+02  0.19988320212E+03 -0.19835422079E+02  0.20686770330E+03  0.00000000000E+00 0.  1.
         21    1    1    2  502  501  0.17134844540E-01 -0.19001893130E-01  0.59073154412E-01  0.64376334255E-01  0.00000000000E+00 0. -1.
<mgrwt>
<rscale>  1 0.64951870E+03</rscale>
<asrwt>0</asrwt>
<pdfrwt beam="1">  1        1 0.38374859E+00 0.64951870E+03</pdfrwt>
<pdfrwt beam="2">0</pdfrwt>
<totfact> 0.15797352E+00</totfact>
</mgrwt>
</event>
<event>
 6    1  0.1213626E-003  0.6480861E+03  0.7818608E-02  0.9810377E-01
          1   -1    0    0  502    0  0.00000000000E+00  0.00000000000E+00  0.12185104230E+03  0.12185104230E+03  0.00000000000E+00 0.  1.
         13   -1    0    0    0    0 -0.00000000000E+00 -0.00000000000E+00 -0.10000000000E+04  0.10000000000E+04  0.00000000000E+00 0.  1.
    9000005    2    1    2  501    0 -0.16483098831E-01 -0.25027927568E+00 -0.89499508044E+03  0.11050030524E+04  0.64808601970E+03 0.  0.
         13    1    3    3    0    0 -0.27164103817E+02  0.30748225125E+03 -0.61477571366E+03  0.68791889164E+03  0.00000000000E+00 0.  1.
          1    1    3    3  501    0  0.27147620718E+02 -0.30773253053E+03 -0.28021936679E+03  0.41708416078E+03  0.00000000000E+00 0.  1.
         21    1    1    2  502  501  0.16483098831E-01  0.25027927568E+00  0.16846122744E+02  0.16847989878E+02  0.00000000000E+00 0. -1.
<mgrwt>
<rscale>  1 0.64808607E+03</rscale>
<asrwt>0</asrwt>
<pdfrwt beam="1">  1        1 0.44309563E+00 0.64808607E+03</pdfrwt>
<pdfrwt beam="2">0</pdfrwt>
<totfact> 0.85499773E-01</totfact>
</mgrwt>
</event>
<event>
 6    1  0.1213626E-003  0.6540315E+03  0.7818608E-02  0.9799244E-01
          1   -1    0    0  502    0  0.00000000000E+00  0.00000000000E+00  0.10883961315E+03  0.10883961315E+03  0.00000000000E+00 0.  1.
         13   -1    0    0    0    0 -0.00000000000E+00 -0.00000000000E+00 -0.10000000000E+04  0.10000000000E+04  0.00000000000E+00 0.  1.
    9000005    2    1    2  501    0 -0.30795864726E+00 -0.59130535385E-01 -0.89304637277E+03  0.11069277351E+04  0.65403141239E+03 0.  0.
         13    1    3    3    0    0  0.23294590411E+03 -0.14924190713E+03 -0.15159401435E+03  0.31546423929E+03  0.00000000000E+00 0.  1.
          3    1    3    3  501    0 -0.23325386276E+03  0.14918277660E+03 -0.74145235842E+03  0.79146349576E+03  0.00000000000E+00 0.  1.
         21    1    1    2  502  501  0.30795864726E+00  0.59130535385E-01  0.18859859188E+01  0.19118780910E+01  0.00000000000E+00 0. -1.
<mgrwt>
<rscale>  1 0.65403149E+03</rscale>
<asrwt>0</asrwt>
<pdfrwt beam="1">  1        1 0.39578125E+00 0.65403149E+03</pdfrwt>
<pdfrwt beam="2">0</pdfrwt>
<totfact> 0.13959441E+00</totfact>
</mgrwt>
</event>
<event>
 6    1  0.1213626E-003  0.6470548E+03  0.7818608E-02  0.9812321E-01
          1   -1    0    0  502    0  0.00000000000E+00  0.00000000000E+00  0.10996290352E+03  0.10996290352E+03  0.00000000000E+00 0.  1.
         13   -1    0    0    0    0 -0.00000000000E+00 -0.00000000000E+00 -0.10000000000E+04  0.10000000000E+04  0.00000000000E+00 0.  1.
    9000005    2    1    2  501    0 -0.24929833289E+00  0.14292187599E+01 -0.89521999256E+03  0.11045807824E+04  0.64705313921E+03 0.  0.
         13    1    3    3    0    0  0.28437224343E+03  0.13584300352E+03 -0.32160070772E+03  0.45027537091E+03  0.00000000000E+00 0.  1.
          1    1    3    3  501    0 -0.28462154177E+03 -0.13441378476E+03 -0.57361928484E+03  0.65430541149E+03  0.00000000000E+00 0.  1.
         21    1    1    2  502  501  0.24929833289E+00 -0.14292187599E+01  0.51828960849E+01  0.53821211199E+01  0.00000000000E+00 0. -1.
<mgrwt>
<rscale>  1 0.64705477E+03</rscale>
<asrwt>0</asrwt>
<pdfrwt beam="1">  1        1 0.39986595E+00 0.64705477E+03</pdfrwt>
<pdfrwt beam="2">0</pdfrwt>
<totfact> 0.13404672E+00</totfact>
</mgrwt>
</event>
<event>
 6    1  0.1213626E-003  0.6422348E+03  0.7818608E-02  0.9821460E-01
          3   -1    0    0  502    0  0.00000000000E+00  0.00000000000E+00  0.10312559608E+03  0.10312559608E+03  0.00000000000E+00 0.  1.
         13   -1    0    0    0    0 -0.00000000000E+00 -0.00000000000E+00 -0.10000000000E+04  0.10000000000E+04  0.00000000000E+00 0.  1.
    9000005    2    1    2  501    0  0.33462173008E-04  0.22896129266E-03 -0.89688360502E+03  0.11031163921E+04  0.64223482737E+03 0.  0.
         13    1    3    3    0    0 -0.15364957084E+03  0.17057682923E+03 -0.83409203098E+03  0.86510933496E+03  0.00000000000E+00 0.  1.
          3    1    3    3  501    0  0.15364960430E+03 -0.17057660027E+03 -0.62791574042E+02  0.23800705711E+03  0.00000000000E+00 0.  1.
         21    1    1    2  502  501 -0.33462173011E-04 -0.22896129267E-03  0.92011067141E-02  0.92040158493E-02  0.00000000000E+00 0.  1.
<mgrwt>
<rscale>  1 0.64223483E+03</rscale>
<asrwt>0</asrwt>
<pdfrwt beam="1">  1        3 0.37500296E+00 0.64223483E+03</pdfrwt>
<pdfrwt beam="2">0</pdfrwt>
<totfact> 0.80315643E-02</totfact>
</mgrwt>
</event>
<event>
 6    1  0.1213626E-003  0.6556366E+03  0.7818608E-02  0.9796260E-01
          1   -1    0    0  502    0  0.00000000000E+00  0.00000000000E+00  0.10808088022E+03  0.10808088022E+03  0.00000000000E+00 0.  1.
         13   -1    0    0    0    0 -0.00000000000E+00 -0.00000000000E+00 -0.10000000000E+04  0.10000000000E+04  0.00000000000E+00 0.  1.
    9000005    2    1    2  501    0 -0.59097365751E-01  0.24094293242E+00 -0.89250737285E+03  0.11074424543E+04  0.65563657419E+03 0.  0.
         13    1    3    3    0    0 -0.24009196008E+03  0.15529028964E+03 -0.17527463443E+03  0.33538100844E+03  0.00000000000E+00 0.  1.
          1    1    3    3  501    0  0.24003286271E+03 -0.15504934671E+03 -0.71723273842E+03  0.77206144584E+03  0.00000000000E+00 0.  1.
         21    1    1    2  502  501  0.59097365751E-01 -0.24094293242E+00  0.58825307359E+00  0.63842593455E+00  0.00000000000E+00 0.  1.
<mgrwt>
<rscale>  1 0.65563662E+03</rscale>
<asrwt>0</asrwt>
<pdfrwt beam="1">  1        1 0.39302221E+00 0.65563662E+03</pdfrwt>
<pdfrwt beam="2">0</pdfrwt>
<totfact> 0.14354925E+00</totfact>
</mgrwt>
</event>
<event>
 6    1  0.1213626E-003  0.6351945E+03  0.7818608E-02  0.9834964E-01
          1   -1    0    0  502    0  0.00000000000E+00  0.00000000000E+00  0.11391315298E+03  0.11391315298E+03  0.00000000000E+00 0.  1.
         13   -1    0    0    0    0 -0.00000000000E+00 -0.00000000000E+00 -0.10000000000E+04  0.10000000000E+04  0.00000000000E+00 0.  1.
    9000005    2    1    2  501    0  0.12202295235E+01  0.10358448061E-01 -0.89910056230E+03  0.11008423514E+04  0.63519333477E+03 0.  0.
         13    1    3    3    0    0  0.14393980403E+03 -0.20823554084E+03 -0.78311993544E+03  0.82301733939E+03  0.00000000000E+00 0.  1.
          1    1    3    3  501    0 -0.14271957451E+03  0.20824589929E+03 -0.11598062686E+03  0.27782501206E+03  0.00000000000E+00 0.  1.
         21    1    1    2  502  501 -0.12202295235E+01 -0.10358448061E-01  0.13013715277E+02  0.13070801533E+02  0.00000000000E+00 0. -1.
<mgrwt>
<rscale>  1 0.63519451E+03</rscale>
<asrwt>0</asrwt>
<pdfrwt beam="1">  1        1 0.41423052E+00 0.63519451E+03</pdfrwt>
<pdfrwt beam="2">0</pdfrwt>
<totfact> 0.11587777E+00</totfact>
</mgrwt>
</event>
<event>
 6    1  0.1213626E-003  0.6452515E+03  0.7818608E-02  0.9815730E-01
          1   -1    0    0  502    0  0.00000000000E+00  0.00000000000E+00  0.12179106877E+03  0.12179106877E+03  0.00000000000E+00 0.  1.
         13   -1    0    0    0    0 -0.00000000000E+00 -0.00000000000E+00 -0.10000000000E+04  0.10000000000E+04  0.00000000000E+00 0.  1.
    9000005    2    1    2  501    0 -0.68455916975E+00  0.26663282264E+00 -0.89590421210E+03  0.11040805442E+04  0.64525107607E+03 0.  0.
         13    1    3    3    0    0  0.22253252465E+03 -0.34841232232E+02 -0.84223403008E+03  0.87183301005E+03  0.00000000000E+00 0.  1.
          1    1    3    3  501    0 -0.22321708382E+03  0.35107865055E+02 -0.53670182026E+02  0.23224753418E+03  0.00000000000E+00 0.  1.
         21    1    1    2  502  501  0.68455916975E+00 -0.26663282264E+00  0.17695280872E+02  0.17710524540E+02  0.00000000000E+00 0. -1.
<mgrwt>
<rscale>  1 0.64525149E+03</rscale>
<asrwt>0</asrwt>
<pdfrwt beam="1">  1        1 0.44287755E+00 0.64525149E+03</pdfrwt>
<pdfrwt beam="2">0</pdfrwt>
<totfact> 0.85746954E-01</totfact>
</mgrwt>
</event>
<event>
 6    1  0.1213626E-003  0.6598588E+03  0.7818608E-02  0.9788454E-01
          1   -1    0    0  502    0  0.00000000000E+00  0.00000000000E+00  0.11038505583E+03  0.11038505583E+03  0.00000000000E+00 0.  1.
         13   -1    0    0    0    0 -0.00000000000E+00 -0.00000000000E+00 -0.10000000000E+04  0.10000000000E+04  0.00000000000E+00 0.  1.
    9000005    2    1    2  501    0  0.27679584827E-01  0.36786261857E-01 -0.89114620404E+03  0.11088531041E+04  0.65985880863E+03 0.  0.
         13    1    3    3    0    0  0.29672052294E+03 -0.51735485892E+01 -0.20328196697E+03  0.35971293059E+03  0.00000000000E+00 0.  1.
          3    1    3    3  501    0 -0.29669284336E+03  0.52103348511E+01 -0.68786423707E+03  0.74914017349E+03  0.00000000000E+00 0.  1.
         21    1    1    2  502  501 -0.27679584827E-01 -0.36786261857E-01  0.15312598673E+01  0.15319517518E+01  0.00000000000E+00 0.  1.
<mgrwt>
<rscale>  1 0.65985881E+03</rscale>
<asrwt>0</asrwt>
<pdfrwt beam="1">  1        1 0.40140105E+00 0.65985881E+03</pdfrwt>
<pdfrwt beam="2">0</pdfrwt>
<totfact> 0.13163032E+00</totfact>
</mgrwt>
</event>
<event>
 6    1  0.1213626E-003  0.6458720E+03  0.7818608E-02  0.9814556E-01
          1   -1    0    0  502    0  0.00000000000E+00  0.00000000000E+00  0.10428813736E+03  0.10428813736E+03  0.00000000000E+00 0.  1.
         13   -1    0    0    0    0 -0.00000000000E+00 -0.00000000000E+00 -0.10000000000E+04  0.10000000000E+04  0.00000000000E+00 0.  1.
    9000005    2    1    2  501    0 -0.42207869626E-04  0.18934688902E-03 -0.89571231801E+03  0.11042876424E+04  0.64587200008E+03 0.  0.
         13    1    3    3    0    0  0.21335555824E+03 -0.23982636719E+03 -0.38739895409E+03  0.50310558560E+03  0.00000000000E+00 0.  1.
          1    1    3    3  501    0 -0.21335560045E+03  0.23982655654E+03 -0.50831336392E+03  0.60118205679E+03  0.00000000000E+00 0.  1.
         21    1    1    2  502  501  0.42207869616E-04 -0.18934688902E-03  0.45537241889E-03  0.49497251290E-03  0.00000000000E+00 0. -1.
<mgrwt>
<rscale>  1 0.64587200E+03</rscale>
<asrwt>0</asrwt>
<pdfrwt beam="1">  1        1 0.37923039E+00 0.64587200E+03</pdfrwt>
<pdfrwt beam="2">0</pdfrwt>
<totfact> 0.16551061E+00</totfact>
</mgrwt>
</event>
<event>
 6    1  0.1213626E-003  0.6855054E+03  0.7818608E-02  0.9742346E-01
          1   -1    0    0  502    0  0.00000000000E+00  0.00000000000E+00  0.11748260653E+03  0.11748260653E+03  0.00000000000E+00 0.  1.
         13   -1    0    0    0    0 -0.00000000000E+00 -0.00000000000E+00 -0.10000000000E+04  0.10000000000E+04  0.00000000000E+00 0.  1.
    9000005    2    1    2  501    0  0.29332498792E-03 -0.33530568912E-03 -0.88252055824E+03  0.11174794106E+04  0.68550543201E+03 0.  0.
         13    1    3    3    0    0 -0.28012999365E+03 -0.10621362118E+03 -0.71269542310E+03  0.77310342954E+03  0.00000000000E+00 0.  1.
          3    1    3    3  501    0  0.28013028698E+03  0.10621328587E+03 -0.16982513514E+03  0.34437598102E+03  0.00000000000E+00 0.  1.
         21    1    1    2  502  501 -0.29332498793E-03  0.33530568912E-03  0.31647634086E-02  0.31959657204E-02  0.00000000000E+00 0.  1.
<mgrwt>
<rscale>  1 0.68550543E+03</rscale>
<asrwt>0</asrwt>
<pdfrwt beam="1">  1        1 0.42721038E+00 0.68550543E+03</pdfrwt>
<pdfrwt beam="2">0</pdfrwt>
<totfact> 0.10026392E+00</totfact>
</mgrwt>
</event>
<event>
 6    1  0.1213626E-003  0.6820860E+03  0.7818608E-02  0.9748368E-01
          1   -1    0    0  502    0  0.00000000000E+00  0.00000000000E+00  0.11667191857E+03  0.11667191857E+03  0.00000000000E+00 0.  1.
         13   -1    0    0    0    0 -0.00000000000E+00 -0.00000000000E+00 -0.10000000000E+04  0.10000000000E+04  0.00000000000E+00 0.  1.
    9000005    2    1    2  501    0 -0.89182422477E+00 -0.35502025439E+00 -0.88269073920E+03  0.11155197055E+04  0.68208529592E+03 0.  0.
         13    1    3    3    0    0  0.94722200635E+02  0.26533365052E+03 -0.12745447899E+03  0.30922303537E+03  0.00000000000E+00 0.  1.
          3    1    3    3  501    0 -0.95614024860E+02 -0.26568867077E+03 -0.75523626022E+03  0.80629667014E+03  0.00000000000E+00 0.  1.
         21    1    1    2  502  501  0.89182422477E+00  0.35502025439E+00 -0.63734222644E+00  0.11522130630E+01  0.00000000000E+00 0.  1.
<mgrwt>
<rscale>  1 0.68208597E+03</rscale>
<asrwt>0</asrwt>
<pdfrwt beam="1">  1        1 0.42426242E+00 0.68208597E+03</pdfrwt>
<pdfrwt beam="2">0</pdfrwt>
<totfact> 0.10346379E+00</totfact>
</mgrwt>
</event>
<event>
 6    1  0.1213626E-003  0.6507555E+03  0.7818608E-02  0.9805363E-01
          3   -1    0    0  502    0  0.00000000000E+00  0.00000000000E+00  0.11645328263E+03  0.11645328263E+03  0.00000000000E+00 0.  1.
         13   -1    0    0    0    0 -0.00000000000E+00 -0.00000000000E+00 -0.10000000000E+04  0.10000000000E+04  0.00000000000E+00 0.  1.
    9000005    2    1    2  501    0  0.13248504133E+01  0.14852395833E+01 -0.89402573799E+03  0.11057869319E+04  0.65075245474E+03 0.  0.
         13    1    3    3    0    0  0.20810700254E+03  0.20052737969E+00 -0.21641027274E+02  0.20922929713E+03  0.00000000000E+00 0.  1.
          1    1    3    3  501    0 -0.20678215212E+03  0.12847122036E+01 -0.87238471072E+03  0.89655763474E+03  0.00000000000E+00 0.  1.
         21    1    1    2  502  501 -0.13248504133E+01 -0.14852395833E+01  0.10479020626E+02  0.10666350759E+02  0.00000000000E+00 0. -1.
<mgrwt>
<rscale>  1 0.65075550E+03</rscale>
<asrwt>0</asrwt>
<pdfrwt beam="1">  1        3 0.42346738E+00 0.65075550E+03</pdfrwt>
<pdfrwt beam="2">0</pdfrwt>
<totfact> 0.44707783E-02</totfact>
</mgrwt>
</event>
<event>
 6    1  0.1213626E-003  0.6708452E+03  0.7818608E-02  0.9768432E-01
          1   -1    0    0  502    0  0.00000000000E+00  0.00000000000E+00  0.11258508274E+03  0.11258508274E+03  0.00000000000E+00 0.  1.
         13   -1    0    0    0    0 -0.00000000000E+00 -0.00000000000E+00 -0.10000000000E+04  0.10000000000E+04  0.00000000000E+00 0.  1.
    9000005    2    1    2  501    0  0.81160390143E-01 -0.14247132563E+00 -0.88737691607E+03  0.11124167700E+04  0.67084517746E+03 0.  0.
         13    1    3    3    0    0 -0.24221643266E+03  0.19740643888E+03 -0.24170883894E+03  0.39504590263E+03  0.00000000000E+00 0.  1.
          3    1    3    3  501    0  0.24229759305E+03 -0.19754891020E+03 -0.64566807714E+03  0.71737086737E+03  0.00000000000E+00 0.  1.
         21    1    1    2  502  501 -0.81160390143E-01  0.14247132563E+00 -0.38001190279E-01  0.16831273873E+00  0.00000000000E+00 0.  1.
<mgrwt>
<rscale>  1 0.67084520E+03</rscale>
<asrwt>0</asrwt>
<pdfrwt beam="1">  1        1 0.40940116E+00 0.67084520E+03</pdfrwt>
<pdfrwt beam="2">0</pdfrwt>
<totfact> 0.12096819E+00</totfact>
</mgrwt>
</event>
<event>
 6    1  0.1213626E-003  0.6325891E+03  0.7818608E-02  0.9840009E-01
          1   -1    0    0  502    0  0.00000000000E+00  0.00000000000E+00  0.10004226613E+03  0.10004226613E+03  0.00000000000E+00 0.  1.
         13   -1    0    0    0    0 -0.00000000000E+00 -0.00000000000E+00 -0.10000000000E+04  0.10000000000E+04  0.00000000000E+00 0.  1.
    9000005    2    1    2  501    0  0.20550148349E-04 -0.35590725247E-05 -0.89995776209E+03  0.11000422310E+04  0.63258907398E+03 0.  0.
         13    1    3    3    0    0  0.26820635113E+03  0.15246099884E+03 -0.57124804706E+03  0.64923288135E+03  0.00000000000E+00 0.  1.
          3    1    3    3  501    0 -0.26820633058E+03 -0.15246100240E+03 -0.32870971503E+03  0.45080934969E+03  0.00000000000E+00 0.  1.
         21    1    1    2  502  501 -0.20550148340E-04  0.35590725370E-05  0.28221418271E-04  0.35091652046E-04  0.00000000000E+00 0. -1.
<mgrwt>
<rscale>  1 0.63258907E+03</rscale>
<asrwt>0</asrwt>
<pdfrwt beam="1">  1        1 0.36379083E+00 0.63258907E+03</pdfrwt>
<pdfrwt beam="2">0</pdfrwt>
<totfact> 0.19397007E+00</totfact>
</mgrwt>
</event>
<event>
 6    1  0.1213626E-003  0.6344211E+03  0.7818608E-02  0.9836459E-01
          1   -1    0    0  502    0  0.00000000000E+00  0.00000000000E+00  0.10548037504E+03  0.10548037504E+03  0.00000000000E+00 0.  1.
         13   -1    0    0    0    0 -0.00000000000E+00 -0.00000000000E+00 -0.10000000000E+04  0.10000000000E+04  0.00000000000E+00 0.  1.
    9000005    2    1    2  501    0  0.42677090802E+00  0.45547232859E-01 -0.89936704589E+03  0.11006139906E+04  0.63442090826E+03 0.  0.
         13    1    3    3    0    0 -0.15417095875E+03 -0.10930584470E+03 -0.77890532238E+01  0.18914841146E+03  0.00000000000E+00 0.  1.
          3    1    3    3  501    0  0.15459772966E+03  0.10935139193E+03 -0.89157799267E+03  0.91146557913E+03  0.00000000000E+00 0.  1.
         21    1    1    2  502  501 -0.42677090802E+00 -0.45547232859E-01  0.48474209318E+01  0.48663844534E+01  0.00000000000E+00 0. -1.
<mgrwt>
<rscale>  1 0.63442105E+03</rscale>
<asrwt>0</asrwt>
<pdfrwt beam="1">  1        1 0.38356581E+00 0.63442105E+03</pdfrwt>
<pdfrwt beam="2">0</pdfrwt>
<totfact> 0.15871334E+00</totfact>
</mgrwt>
</event>
<event>
 6    1  0.1213626E-003  0.6562277E+03  0.7818608E-02  0.9795163E-01
          1   -1    0    0  502    0  0.00000000000E+00  0.00000000000E+00  0.10767164760E+03  0.10767164760E+03  0.00000000000E+00 0.  1.
         13   -1    0    0    0    0 -0.00000000000E+00 -0.00000000000E+00 -0.10000000000E+04  0.10000000000E+04  0.00000000000E+00 0.  1.
    9000005    2    1    2  501    0 -0.19704773180E-02  0.16492210137E-02 -0.89234116200E+03  0.11076585828E+04  0.65622769424E+03 0.  0.
         13    1    3    3    0    0  0.13514957442E+02  0.32454567715E+03 -0.52437626278E+03  0.61683305326E+03  0.00000000000E+00 0.  1.
          3    1    3    3  501    0 -0.13516927920E+02 -0.32454402793E+03 -0.36796489922E+03  0.49082552956E+03  0.00000000000E+00 0.  1.
         21    1    1    2  502  501  0.19704773180E-02 -0.16492210137E-02  0.12809600224E-01  0.13064783531E-01  0.00000000000E+00 0. -1.
<mgrwt>
<rscale>  1 0.65622769E+03</rscale>
<asrwt>0</asrwt>
<pdfrwt beam="1">  1        1 0.39153409E+00 0.65622769E+03</pdfrwt>
<pdfrwt beam="2">0</pdfrwt>
<totfact> 0.14573390E+00</totfact>
</mgrwt>
</event>
<event>
 6    1  0.1213626E-003  0.6235342E+03  0.7818608E-02  0.9857748E-01
          1   -1    0    0  502    0  0.00000000000E+00  0.00000000000E+00  0.98063522899E+02  0.98063522899E+02  0.00000000000E+00 0.  1.
         13   -1    0    0    0    0 -0.00000000000E+00 -0.00000000000E+00 -0.10000000000E+04  0.10000000000E+04  0.00000000000E+00 0.  1.
    9000005    2    1    2  501    0 -0.12158503859E+01 -0.86377905067E+00 -0.90203558465E+03  0.10965687892E+04  0.62353242831E+03 0.  0.
         13    1    3    3    0    0  0.10946746986E+03 -0.28926257221E+03 -0.52290488723E+03  0.60752406020E+03  0.00000000000E+00 0.  1.
          1    1    3    3  501    0 -0.11068332025E+03  0.28839879316E+03 -0.37913069742E+03  0.48904472904E+03  0.00000000000E+00 0.  1.
         21    1    1    2  502  501  0.12158503859E+01  0.86377905067E+00  0.99107545250E-01  0.14947336601E+01  0.00000000000E+00 0. -1.
<mgrwt>
<rscale>  1 0.62353421E+03</rscale>
<asrwt>0</asrwt>
<pdfrwt beam="1">  1        1 0.35659538E+00 0.62353421E+03</pdfrwt>
<pdfrwt beam="2">0</pdfrwt>
<totfact> 0.20888917E+00</totfact>
</mgrwt>
</event>
<event>
 6    1  0.2170405E-003  0.6573850E+03  0.7818608E-02  0.9793020E-01
          1   -1    0    0  502    0  0.00000000000E+00  0.00000000000E+00  0.10803877217E+03  0.10803877217E+03  0.00000000000E+00 0.  1.
         13   -1    0    0    0    0 -0.00000000000E+00 -0.00000000000E+00 -0.10000000000E+04  0.10000000000E+04  0.00000000000E+00 0.  1.
    9000005    2    1    2  501    0  0.20173657731E-05  0.78316884924E-05 -0.89196122834E+03  0.11080387641E+04  0.65738502403E+03 0.  0.
         13    1    3    3    0    0 -0.51997520954E+02 -0.19814491565E+03 -0.12720021926E+02  0.20524850484E+03  0.00000000000E+00 0.  1.
          3    1    3    3  501    0  0.51997522971E+02  0.19814492348E+03 -0.87924120641E+03  0.90279025923E+03  0.00000000000E+00 0.  1.
         21    1    1    2  502  501 -0.20173657681E-05 -0.78316884694E-05  0.51303477857E-06  0.81035988060E-05  0.00000000000E+00 0. -1.
<mgrwt>
<rscale>  1 0.65738502E+03</rscale>
<asrwt>0</asrwt>
<pdfrwt beam="1">  1        1 0.39286909E+00 0.65738502E+03</pdfrwt>
<pdfrwt beam="2">0</pdfrwt>
<totfact> 0.14372747E+00</totfact>
</mgrwt>
</event>
<event>
 6    1  0.1213626E-003  0.6405614E+03  0.7818608E-02  0.9824653E-01
          1   -1    0    0  502    0  0.00000000000E+00  0.00000000000E+00  0.16806825526E+03  0.16806825526E+03  0.00000000000E+00 0.  1.
         13   -1    0    0    0    0 -0.00000000000E+00 -0.00000000000E+00 -0.10000000000E+04  0.10000000000E+04  0.00000000000E+00 0.  1.
    9000005    2    1    2  501    0  0.52708587016E+02  0.27743560403E+02 -0.88213113917E+03  0.10901716604E+04  0.63778601596E+03 0.  0.
         13    1    3    3    0    0  0.13984860749E+03  0.15883990493E+03 -0.90650460573E+03  0.93088041586E+03  0.00000000000E+00 0.  1.
          3    1    3    3  501    0 -0.87140020470E+02 -0.13109634453E+03  0.24373466558E+02  0.15929124454E+03  0.00000000000E+00 0.  1.
         21    1    1    2  502  501 -0.52708587016E+02 -0.27743560403E+02  0.50199394433E+02  0.77896594858E+02  0.00000000000E+00 0.  1.
<mgrwt>
<rscale>  1 0.64056140E+03</rscale>
<asrwt>0</asrwt>
<pdfrwt beam="1">  1        1 0.61115858E+00 0.64056140E+03</pdfrwt>
<pdfrwt beam="2">0</pdfrwt>
<totfact> 0.12442425E-01</totfact>
</mgrwt>
</event>
<event>
 6    1  0.1213626E-003  0.6478706E+03  0.7818608E-02  0.9810783E-01
          1   -1    0    0  502    0  0.00000000000E+00  0.00000000000E+00  0.10494274716E+03  0.10494274716E+03  0.00000000000E+00 0.  1.
         13   -1    0    0    0    0 -0.00000000000E+00 -0.00000000000E+00 -0.10000000000E+04  0.10000000000E+04  0.00000000000E+00 0.  1.
    9000005    2    1    2  501    0 -0.24805934669E-03  0.55068286102E-04 -0.89506592642E+03  0.11049340699E+04  0.64787057820E+03 0.  0.
         13    1    3    3    0    0 -0.19056602003E+03  0.52599238996E+02 -0.98772550922E+01  0.19793849576E+03  0.00000000000E+00 0.  1.
          3    1    3    3  501    0  0.19056577197E+03 -0.52599183928E+02 -0.88518867133E+03  0.90699557410E+03  0.00000000000E+00 0.  1.
         21    1    1    2  502  501  0.24805934668E-03 -0.55068286102E-04  0.86735747657E-02  0.86772959597E-02  0.00000000000E+00 0. -1.
<mgrwt>
<rscale>  1 0.64787058E+03</rscale>
<asrwt>0</asrwt>
<pdfrwt beam="1">  1        1 0.38161079E+00 0.64787058E+03</pdfrwt>
<pdfrwt beam="2">0</pdfrwt>
<totfact> 0.16149577E+00</totfact>
</mgrwt>
</event>
<event>
 6    1  0.1213626E-003  0.6527631E+03  0.7818608E-02  0.9801608E-01
          1   -1    0    0  502    0  0.00000000000E+00  0.00000000000E+00  0.10693486189E+03  0.10693486189E+03  0.00000000000E+00 0.  1.
         13   -1    0    0    0    0 -0.00000000000E+00 -0.00000000000E+00 -0.10000000000E+04  0.10000000000E+04  0.00000000000E+00 0.  1.
    9000005    2    1    2  501    0  0.12152654663E-01  0.14027975883E-01 -0.89347485210E+03  0.11065247277E+04  0.65276309746E+03 0.  0.
         13    1    3    3    0    0  0.28803451022E+03 -0.13706430835E+02 -0.18756819150E+03  0.34399647060E+03  0.00000000000E+00 0.  1.
          1    1    3    3  501    0 -0.28802235757E+03  0.13720458811E+02 -0.70590666060E+03  0.76252825713E+03  0.00000000000E+00 0.  1.
         21    1    1    2  502  501 -0.12152654663E-01 -0.14027975883E-01  0.40971398797E+00  0.41013415251E+00  0.00000000000E+00 0.  1.
<mgrwt>
<rscale>  1 0.65276310E+03</rscale>
<asrwt>0</asrwt>
<pdfrwt beam="1">  1        1 0.38885486E+00 0.65276310E+03</pdfrwt>
<pdfrwt beam="2">0</pdfrwt>
<totfact> 0.14987273E+00</totfact>
</mgrwt>
</event>
<event>
 6    1  0.1213626E-003  0.6619344E+03  0.7818608E-02  0.9784639E-01
          1   -1    0    0  502    0  0.00000000000E+00  0.00000000000E+00  0.11066637180E+03  0.11066637180E+03  0.00000000000E+00 0.  1.
         13   -1    0    0    0    0 -0.00000000000E+00 -0.00000000000E+00 -0.10000000000E+04  0.10000000000E+04  0.00000000000E+00 0.  1.
    9000005    2    1    2  501    0 -0.32989211168E+00 -0.29475844789E+00 -0.89041233658E+03  0.11095004717E+04  0.66193426547E+03 0.  0.
         13    1    3    3    0    0  0.21205064099E+03  0.22109297431E+03 -0.23587232732E+03  0.38663074429E+03  0.00000000000E+00 0.  1.
          1    1    3    3  501    0 -0.21238053310E+03 -0.22138773276E+03 -0.65454000925E+03  0.72286972738E+03  0.00000000000E+00 0.  1.
         21    1    1    2  502  501  0.32989211168E+00  0.29475844789E+00  0.10787083725E+01  0.11659001247E+01  0.00000000000E+00 0.  1.
<mgrwt>
<rscale>  1 0.66193441E+03</rscale>
<asrwt>0</asrwt>
<pdfrwt beam="1">  1        1 0.40242402E+00 0.66193441E+03</pdfrwt>
<pdfrwt beam="2">0</pdfrwt>
<totfact> 0.13020272E+00</totfact>
</mgrwt>
</event>
<event>
 6    1  0.1213626E-003  0.6527936E+03  0.7818608E-02  0.9801551E-01
          1   -1    0    0  502    0  0.00000000000E+00  0.00000000000E+00  0.10653488876E+03  0.10653488876E+03  0.00000000000E+00 0.  1.
         13   -1    0    0    0    0 -0.00000000000E+00 -0.00000000000E+00 -0.10000000000E+04  0.10000000000E+04  0.00000000000E+00 0.  1.
    9000005    2    1    2  501    0 -0.14726667189E-04  0.17377843989E-04 -0.89346502450E+03  0.11065347991E+04  0.65279362096E+03 0.  0.
         13    1    3    3    0    0  0.30376687917E+03  0.99880622496E+02 -0.55768451526E+03  0.64285494024E+03  0.00000000000E+00 0.  1.
          1    1    3    3  501    0 -0.30376689390E+03 -0.99880605119E+02 -0.33578050924E+03  0.46367985884E+03  0.00000000000E+00 0.  1.
         21    1    1    2  502  501  0.14726667213E-04 -0.17377843988E-04 -0.86737466002E-04  0.89678605015E-04  0.00000000000E+00 0.  1.
<mgrwt>
<rscale>  1 0.65279362E+03</rscale>
<asrwt>0</asrwt>
<pdfrwt beam="1">  1        1 0.38740041E+00 0.65279362E+03</pdfrwt>
<pdfrwt beam="2">0</pdfrwt>
<totfact> 0.15211214E+00</totfact>
</mgrwt>
</event>
<event>
 6    1  0.1213626E-003  0.6397510E+03  0.7818608E-02  0.9826203E-01
          3   -1    0    0  502    0  0.00000000000E+00  0.00000000000E+00  0.11500070151E+03  0.11500070151E+03  0.00000000000E+00 0.  1.
         13   -1    0    0    0    0 -0.00000000000E+00 -0.00000000000E+00 -0.10000000000E+04  0.10000000000E+04  0.00000000000E+00 0.  1.
    9000005    2    1    2  501    0 -0.29274956879E+01  0.31429614940E+00 -0.89749100660E+03  0.11021666926E+04  0.63974420071E+03 0.  0.
         13    1    3    3    0    0 -0.11898783756E+03  0.24875897692E+03 -0.73120019084E+03  0.78146839550E+03  0.00000000000E+00 0.  1.
          3    1    3    3  501    0  0.11606034187E+03 -0.24844468077E+03 -0.16629081576E+03  0.32069829710E+03  0.00000000000E+00 0.  1.
         21    1    1    2  502  501  0.29274956879E+01 -0.31429614940E+00  0.12491708108E+02  0.12834008903E+02  0.00000000000E+00 0.  1.
<mgrwt>
<rscale>  1 0.63975098E+03</rscale>
<asrwt>0</asrwt>
<pdfrwt beam="1">  1        3 0.41818525E+00 0.63975098E+03</pdfrwt>
<pdfrwt beam="2">0</pdfrwt>
<totfact> 0.47708732E-02</totfact>
</mgrwt>
</event>
<event>
 6    1  0.1213626E-003  0.6174880E+03  0.7818608E-02  0.9869774E-01
          1   -1    0    0  502    0  0.00000000000E+00  0.00000000000E+00  0.95324073381E+02  0.95324073381E+02  0.00000000000E+00 0.  1.
         13   -1    0    0    0    0 -0.00000000000E+00 -0.00000000000E+00 -0.10000000000E+04  0.10000000000E+04  0.00000000000E+00 0.  1.
    9000005    2    1    2  501    0  0.20294139180E-04  0.79792490510E-04 -0.90467713616E+03  0.10953228610E+04  0.61748801545E+03 0.  0.
         13    1    3    3    0    0 -0.24084077901E+02  0.25659725758E+03 -0.75389442635E+03  0.79673019366E+03  0.00000000000E+00 0.  1.
          1    1    3    3  501    0  0.24084098195E+02 -0.25659717779E+03 -0.15078270981E+03  0.29859266738E+03  0.00000000000E+00 0.  1.
         21    1    1    2  502  501 -0.20294139180E-04 -0.79792490497E-04  0.12095429226E-02  0.12123418557E-02  0.00000000000E+00 0. -1.
<mgrwt>
<rscale>  1 0.61748802E+03</rscale>
<asrwt>0</asrwt>
<pdfrwt beam="1">  1        1 0.34663373E+00 0.61748802E+03</pdfrwt>
<pdfrwt beam="2">0</pdfrwt>
<totfact> 0.23110895E+00</totfact>
</mgrwt>
</event>
<event>
 6    1  0.1213626E-003  0.6279905E+03  0.7818608E-02  0.9848978E-01
          1   -1    0    0  502    0  0.00000000000E+00  0.00000000000E+00  0.98595242330E+02  0.98595242330E+02  0.00000000000E+00 0.  1.
         13   -1    0    0    0    0 -0.00000000000E+00 -0.00000000000E+00 -0.10000000000E+04  0.10000000000E+04  0.00000000000E+00 0.  1.
    9000005    2    1    2  501    0  0.30165179643E-02 -0.81685320414E-03 -0.90140572633E+03  0.10985919705E+04  0.62799047298E+03 0.  0.
         13    1    3    3    0    0 -0.21200638552E+03  0.11910597285E+02 -0.85534773768E+03  0.88131057079E+03  0.00000000000E+00 0.  1.
          3    1    3    3  501    0  0.21200940204E+03 -0.11911414138E+02 -0.46057988655E+02  0.21728139970E+03  0.00000000000E+00 0.  1.
         21    1    1    2  502  501 -0.30165179643E-02  0.81685320414E-03  0.96866221422E-03  0.32718398908E-02  0.00000000000E+00 0. -1.
<mgrwt>
<rscale>  1 0.62799047E+03</rscale>
<asrwt>0</asrwt>
<pdfrwt beam="1">  1        1 0.35852891E+00 0.62799047E+03</pdfrwt>
<pdfrwt beam="2">0</pdfrwt>
<totfact> 0.20470055E+00</totfact>
</mgrwt>
</event>
<event>
 6    1  0.1213626E-003  0.6538347E+03  0.7818608E-02  0.9799610E-01
          1   -1    0    0  502    0  0.00000000000E+00  0.00000000000E+00  0.10855439960E+03  0.10855439960E+03  0.00000000000E+00 0.  1.
         13   -1    0    0    0    0 -0.00000000000E+00 -0.00000000000E+00 -0.10000000000E+04  0.10000000000E+04  0.00000000000E+00 0.  1.
    9000005    2    1    2  501    0 -0.42657922863E-01 -0.26231764018E-01 -0.89312462111E+03  0.11068746323E+04  0.65383473462E+03 0.  0.
         13    1    3    3    0    0  0.35655145847E+01 -0.27243366864E+03 -0.75246766156E+03  0.80027520166E+03  0.00000000000E+00 0.  1.
          3    1    3    3  501    0 -0.36081725076E+01  0.27240743687E+03 -0.14065695955E+03  0.30659943059E+03  0.00000000000E+00 0.  1.
         21    1    1    2  502  501  0.42657922863E-01  0.26231764018E-01  0.16790207081E+01  0.16797673476E+01  0.00000000000E+00 0. -1.
<mgrwt>
<rscale>  1 0.65383474E+03</rscale>
<asrwt>0</asrwt>
<pdfrwt beam="1">  1        1 0.39474410E+00 0.65383474E+03</pdfrwt>
<pdfrwt beam="2">0</pdfrwt>
<totfact> 0.14108987E+00</totfact>
</mgrwt>
</event>
<event>
 6    1  0.1213626E-003  0.6485145E+03  0.7818608E-02  0.9809571E-01
          1   -1    0    0  502    0  0.00000000000E+00  0.00000000000E+00  0.11298851803E+03  0.11298851803E+03  0.00000000000E+00 0.  1.
         13   -1    0    0    0    0 -0.00000000000E+00 -0.00000000000E+00 -0.10000000000E+04  0.10000000000E+04  0.00000000000E+00 0.  1.
    9000005    2    1    2  501    0 -0.45607666818E+00  0.74253441884E+01 -0.89285952324E+03  0.11035257843E+04  0.64847180719E+03 0.  0.
         13    1    3    3    0    0  0.23796878534E+03 -0.19058041008E+03 -0.26755482765E+03  0.40562990681E+03  0.00000000000E+00 0.  1.
          3    1    3    3  501    0 -0.23842486201E+03  0.19800575427E+03 -0.62530469559E+03  0.69789587753E+03  0.00000000000E+00 0.  1.
         21    1    1    2  502  501  0.45607666818E+00 -0.74253441884E+01  0.58480412623E+01  0.94627336879E+01  0.00000000000E+00 0.  1.
<mgrwt>
<rscale>  1 0.64851448E+03</rscale>
<asrwt>0</asrwt>
<pdfrwt beam="1">  1        1 0.41086820E+00 0.64851448E+03</pdfrwt>
<pdfrwt beam="2">0</pdfrwt>
<totfact> 0.11966035E+00</totfact>
</mgrwt>
</event>
<event>
 6    1  0.1213626E-003  0.6495222E+03  0.7818608E-02  0.9807676E-01
          1   -1    0    0  502    0  0.00000000000E+00  0.00000000000E+00  0.13087273891E+03  0.13087273891E+03  0.00000000000E+00 0.  1.
         13   -1    0    0    0    0 -0.00000000000E+00 -0.00000000000E+00 -0.10000000000E+04  0.10000000000E+04  0.00000000000E+00 0.  1.
    9000005    2    1    2  501    0  0.19576008211E+02  0.16837002662E+02 -0.88706140984E+03  0.10994348884E+04  0.64900880129E+03 0.  0.
         13    1    3    3    0    0 -0.23011718354E+03  0.21717123960E+03 -0.55040724102E+03  0.63487431547E+03  0.00000000000E+00 0.  1.
          3    1    3    3  501    0  0.24969319175E+03 -0.20033423694E+03 -0.33665416882E+03  0.46456057289E+03  0.00000000000E+00 0.  1.
         21    1    1    2  502  501 -0.19576008211E+02 -0.16837002662E+02  0.17934148745E+02  0.31437850552E+02  0.00000000000E+00 0. -1.
<mgrwt>
<rscale>  1 0.64952223E+03</rscale>
<asrwt>0</asrwt>
<pdfrwt beam="1">  1        1 0.47590187E+00 0.64952223E+03</pdfrwt>
<pdfrwt beam="2">0</pdfrwt>
<totfact> 0.60202424E-01</totfact>
</mgrwt>
</event>
<event>
 6    1  0.1213626E-003  0.5922143E+03  0.7818608E-02  0.9921692E-01
          1   -1    0    0  502    0  0.00000000000E+00  0.00000000000E+00  0.87704926888E+02  0.87704926888E+02  0.00000000000E+00 0.  1.
         13   -1    0    0    0    0 -0.00000000000E+00 -0.00000000000E+00 -0.10000000000E+04  0.10000000000E+04  0.00000000000E+00 0.  1.
    9000005    2    1    2  501    0 -0.19068087222E-01 -0.49258276586E-02 -0.91231635632E+03  0.10876759298E+04  0.59221431415E+03 0.  0.
         13    1    3    3    0    0 -0.21371247903E+03 -0.11339788458E+03 -0.76975476310E+03  0.80687948247E+03  0.00000000000E+00 0.  1.
          3    1    3    3  501    0  0.21369341094E+03  0.11339295876E+03 -0.14256159322E+03  0.28079644734E+03  0.00000000000E+00 0.  1.
         21    1    1    2  502  501  0.19068087222E-01  0.49258276586E-02  0.21283208893E-01  0.28997081046E-01  0.00000000000E+00 0. -1.
<mgrwt>
<rscale>  1 0.59221431E+03</rscale>
<asrwt>0</asrwt>
<pdfrwt beam="1">  1        1 0.31892768E+00 0.59221431E+03</pdfrwt>
<pdfrwt beam="2">0</pdfrwt>
<totfact> 0.30611537E+00</totfact>
</mgrwt>
</event>
<event>
 6    1  0.1213626E-003  0.6488984E+03  0.7818608E-02  0.9808848E-01
          1   -1    0    0  502    0  0.00000000000E+00  0.00000000000E+00  0.10526843944E+03  0.10526843944E+03  0.00000000000E+00 0.  1.
         13   -1    0    0    0    0 -0.00000000000E+00 -0.00000000000E+00 -0.10000000000E+04  0.10000000000E+04  0.00000000000E+00 0.  1.
    9000005    2    1    2  501    0  0.17714941623E-02 -0.14656371798E-02 -0.89473125406E+03  0.11052661199E+04  0.64889843491E+03 0.  0.
         13    1    3    3    0    0 -0.25063934685E+03  0.20436620513E+03 -0.40291738086E+03  0.51665079482E+03  0.00000000000E+00 0.  1.
          1    1    3    3  501    0  0.25064111835E+03 -0.20436767077E+03 -0.49181387320E+03  0.58861532509E+03  0.00000000000E+00 0.  1.
         21    1    1    2  502  501 -0.17714941623E-02  0.14656371798E-02 -0.30649172421E-03  0.23195303591E-02  0.00000000000E+00 0.  1.
<mgrwt>
<rscale>  1 0.64889843E+03</rscale>
<asrwt>0</asrwt>
<pdfrwt beam="1">  1        1 0.38279513E+00 0.64889843E+03</pdfrwt>
<pdfrwt beam="2">0</pdfrwt>
<totfact> 0.15953195E+00</totfact>
</mgrwt>
</event>
<event>
 6    1  0.1213626E-003  0.6433457E+03  0.7818608E-02  0.9819346E-01
          1   -1    0    0  502    0  0.00000000000E+00  0.00000000000E+00  0.10359508580E+03  0.10359508580E+03  0.00000000000E+00 0.  1.
         13   -1    0    0    0    0 -0.00000000000E+00 -0.00000000000E+00 -0.10000000000E+04  0.10000000000E+04  0.00000000000E+00 0.  1.
    9000005    2    1    2  501    0  0.57146671704E-01 -0.42304994300E-02 -0.89651909303E+03  0.11034673343E+04  0.64334568501E+03 0.  0.
         13    1    3    3    0    0 -0.19071772174E+03 -0.15752252169E+03 -0.95570183467E+02  0.26517966399E+03  0.00000000000E+00 0.  1.
          3    1    3    3  501    0  0.19077486841E+03  0.15751829119E+03 -0.80094890956E+03  0.83828767032E+03  0.00000000000E+00 0.  1.
         21    1    1    2  502  501 -0.57146671704E-01  0.42304994300E-02  0.11417883281E+00  0.12775149734E+00  0.00000000000E+00 0. -1.
<mgrwt>
<rscale>  1 0.64334569E+03</rscale>
<asrwt>0</asrwt>
<pdfrwt beam="1">  1        1 0.37671020E+00 0.64334569E+03</pdfrwt>
<pdfrwt beam="2">0</pdfrwt>
<totfact> 0.16987752E+00</totfact>
</mgrwt>
</event>
<event>
 6    1  0.1213626E-003  0.6425956E+03  0.7818608E-02  0.9820773E-01
          1   -1    0    0  502    0  0.00000000000E+00  0.00000000000E+00  0.10336796702E+03  0.10336796702E+03  0.00000000000E+00 0.  1.
         13   -1    0    0    0    0 -0.00000000000E+00 -0.00000000000E+00 -0.10000000000E+04  0.10000000000E+04  0.00000000000E+00 0.  1.
    9000005    2    1    2  501    0  0.30695953114E-01  0.61339304696E-02 -0.89676573881E+03  0.11032306458E+04  0.64259556997E+03 0.  0.
         13    1    3    3    0    0  0.11045629553E+03  0.73331868067E+02  0.54081443570E+02  0.14318854226E+03  0.00000000000E+00 0.  1.
          3    1    3    3  501    0 -0.11042559957E+03 -0.73325734137E+02 -0.95084718238E+03  0.96004210354E+03  0.00000000000E+00 0.  1.
         21    1    1    2  502  501 -0.30695953114E-01 -0.61339304696E-02  0.13370582935E+00  0.13732121265E+00  0.00000000000E+00 0.  1.
<mgrwt>
<rscale>  1 0.64259557E+03</rscale>
<asrwt>0</asrwt>
<pdfrwt beam="1">  1        1 0.37588431E+00 0.64259557E+03</pdfrwt>
<pdfrwt beam="2">0</pdfrwt>
<totfact> 0.17132989E+00</totfact>
</mgrwt>
</event>
<event>
 6    1  0.1213626E-003  0.6521147E+03  0.7818608E-02  0.9802819E-01
          1   -1    0    0  502    0  0.00000000000E+00  0.00000000000E+00  0.10649650969E+03  0.10649650969E+03  0.00000000000E+00 0.  1.
         13   -1    0    0    0    0 -0.00000000000E+00 -0.00000000000E+00 -0.10000000000E+04  0.10000000000E+04  0.00000000000E+00 0.  1.
    9000005    2    1    2  501    0 -0.12279163888E-01  0.17364671048E-02 -0.89368638440E+03  0.11063131956E+04  0.65211466248E+03 0.  0.
         13    1    3    3    0    0 -0.20809353523E+03  0.64848981683E+02 -0.85825551411E+03  0.88550033164E+03  0.00000000000E+00 0.  1.
          1    1    3    3  501    0  0.20808125607E+03 -0.64847245215E+02 -0.35430870292E+02  0.22081286400E+03  0.00000000000E+00 0.  1.
         21    1    1    2  502  501  0.12279163888E-01 -0.17364671048E-02  0.18289409085E+00  0.18331405197E+00  0.00000000000E+00 0. -1.
<mgrwt>
<rscale>  1 0.65211466E+03</rscale>
<asrwt>0</asrwt>
<pdfrwt beam="1">  1        1 0.38726085E+00 0.65211466E+03</pdfrwt>
<pdfrwt beam="2">0</pdfrwt>
<totfact> 0.15234790E+00</totfact>
</mgrwt>
</event>
<event>
 6    1  0.1213626E-003  0.6518543E+03  0.7818608E-02  0.9803306E-01
          1   -1    0    0  502    0  0.00000000000E+00  0.00000000000E+00  0.10683908598E+03  0.10683908598E+03  0.00000000000E+00 0.  1.
         13   -1    0    0    0    0 -0.00000000000E+00 -0.00000000000E+00 -0.10000000000E+04  0.10000000000E+04  0.00000000000E+00 0.  1.
    9000005    2    1    2  501    0  0.18186809060E+01 -0.18204131939E+00 -0.89127872267E+03  0.11042154657E+04  0.65185174112E+03 0.  0.
         13    1    3    3    0    0  0.16708044172E+03 -0.20475158514E+03 -0.77099647754E+03  0.81503046201E+03  0.00000000000E+00 0.  1.
          1    1    3    3  501    0 -0.16526176082E+03  0.20456954382E+03 -0.12028224513E+03  0.28918500366E+03  0.00000000000E+00 0.  1.
         21    1    1    2  502  501 -0.18186809060E+01  0.18204131939E+00 -0.18821913453E+01  0.26236203117E+01  0.00000000000E+00 0. -1.
<mgrwt>
<rscale>  1 0.65185430E+03</rscale>
<asrwt>0</asrwt>
<pdfrwt beam="1">  1        1 0.38850659E+00 0.65185430E+03</pdfrwt>
<pdfrwt beam="2">0</pdfrwt>
<totfact> 0.15043165E+00</totfact>
</mgrwt>
</event>
<event>
 6    1  0.1213626E-003  0.6614976E+03  0.7818608E-02  0.9785441E-01
          1   -1    0    0  502    0  0.00000000000E+00  0.00000000000E+00  0.10939502243E+03  0.10939502243E+03  0.00000000000E+00 0.  1.
         13   -1    0    0    0    0 -0.00000000000E+00 -0.00000000000E+00 -0.10000000000E+04  0.10000000000E+04  0.00000000000E+00 0.  1.
    9000005    2    1    2  501    0 -0.13220843459E-03  0.19579900308E-03 -0.89060514946E+03  0.11093947303E+04  0.66149764572E+03 0.  0.
         13    1    3    3    0    0 -0.31768148852E+03 -0.86723229470E+02 -0.49705840625E+03  0.59624617894E+03  0.00000000000E+00 0.  1.
          3    1    3    3  501    0  0.31768135631E+03  0.86723425269E+02 -0.39354674321E+03  0.51314855132E+03  0.00000000000E+00 0.  1.
         21    1    1    2  502  501  0.13220843460E-03 -0.19579900307E-03  0.17189027145E-03  0.29216876151E-03  0.00000000000E+00 0. -1.
<mgrwt>
<rscale>  1 0.66149765E+03</rscale>
<asrwt>0</asrwt>
<pdfrwt beam="1">  1        1 0.39780092E+00 0.66149765E+03</pdfrwt>
<pdfrwt beam="2">0</pdfrwt>
<totfact> 0.13654378E+00</totfact>
</mgrwt>
</event>
<event>
 6    1  0.1213626E-003  0.6683552E+03  0.7818608E-02  0.9772934E-01
          1   -1    0    0  502    0  0.00000000000E+00  0.00000000000E+00  0.11208313199E+03  0.11208313199E+03  0.00000000000E+00 0.  1.
         13   -1    0    0    0    0 -0.00000000000E+00 -0.00000000000E+00 -0.10000000000E+04  0.10000000000E+04  0.00000000000E+00 0.  1.
    9000005    2    1    2  501    0 -0.27132921864E-01 -0.72857284972E-01 -0.88832121824E+03  0.11116713754E+04  0.66835518555E+03 0.  0.
         13    1    3    3    0    0 -0.28786585961E+03 -0.14852672387E+03 -0.58101666744E+03  0.66521222830E+03  0.00000000000E+00 0.  1.
          3    1    3    3  501    0  0.28783872669E+03  0.14845386658E+03 -0.30730455080E+03  0.44645914710E+03  0.00000000000E+00 0.  1.
         21    1    1    2  502  501  0.27132921864E-01  0.72857284972E-01  0.40435023846E+00  0.41175659650E+00  0.00000000000E+00 0.  1.
<mgrwt>
<rscale>  1 0.66835519E+03</rscale>
<asrwt>0</asrwt>
<pdfrwt beam="1">  1        1 0.40757588E+00 0.66835519E+03</pdfrwt>
<pdfrwt beam="2">0</pdfrwt>
<totfact> 0.12332621E+00</totfact>
</mgrwt>
</event>
<event>
 6    1  0.1213626E-003  0.6486871E+03  0.7818608E-02  0.9809246E-01
          1   -1    0    0  502    0  0.00000000000E+00  0.00000000000E+00  0.10527761092E+03  0.10527761092E+03  0.00000000000E+00 0.  1.
         13   -1    0    0    0    0 -0.00000000000E+00 -0.00000000000E+00 -0.10000000000E+04  0.10000000000E+04  0.00000000000E+00 0.  1.
    9000005    2    1    2  501    0 -0.14605630569E+00  0.28687617595E-03 -0.89471822443E+03  0.11051314950E+04  0.64868705761E+03 0.  0.
         13    1    3    3    0    0  0.11166775509E+03 -0.30288925661E+03 -0.39424447997E+03  0.50954911371E+03  0.00000000000E+00 0.  1.
          1    1    3    3  501    0 -0.11181381139E+03  0.30288954349E+03 -0.50047374445E+03  0.59558238125E+03  0.00000000000E+00 0.  1.
         21    1    1    2  502  501  0.14605630569E+00 -0.28687617596E-03 -0.41646568741E-02  0.14611595086E+00  0.00000000000E+00 0. -1.
<mgrwt>
<rscale>  1 0.64868707E+03</rscale>
<asrwt>0</asrwt>
<pdfrwt beam="1">  1        1 0.38282848E+00 0.64868707E+03</pdfrwt>
<pdfrwt beam="2">0</pdfrwt>
<totfact> 0.15948404E+00</totfact>
</mgrwt>
</event>
<event>
 6    1  0.1213626E-003  0.6561104E+03  0.7818608E-02  0.9795380E-01
          1   -1    0    0  502    0  0.00000000000E+00  0.00000000000E+00  0.10948379390E+03  0.10948379390E+03  0.00000000000E+00 0.  1.
         13   -1    0    0    0    0 -0.00000000000E+00 -0.00000000000E+00 -0.10000000000E+04  0.10000000000E+04  0.00000000000E+00 0.  1.
    9000005    2    1    2  501    0  0.27363649171E+01  0.96248789076E+00 -0.89103499273E+03  0.11065370643E+04  0.65610403312E+03 0.  0.
         13    1    3    3    0    0 -0.46479522694E+02  0.21423904247E+03 -0.85752749468E+03  0.88510570978E+03  0.00000000000E+00 0.  1.
          1    1    3    3  501    0  0.49215887612E+02 -0.21327655458E+03 -0.33507498047E+02  0.22143135449E+03  0.00000000000E+00 0.  1.
         21    1    1    2  502  501 -0.27363649171E+01 -0.96248789076E+00  0.51878663020E+00  0.29467296223E+01  0.00000000000E+00 0. -1.
<mgrwt>
<rscale>  1 0.65611045E+03</rscale>
<asrwt>0</asrwt>
<pdfrwt beam="1">  1        1 0.39812373E+00 0.65611045E+03</pdfrwt>
<pdfrwt beam="2">0</pdfrwt>
<totfact> 0.13622992E+00</totfact>
</mgrwt>
</event>
<event>
 6    1  0.1213626E-003  0.7091258E+03  0.7818608E-02  0.9701752E-01
          1   -1    0    0  502    0  0.00000000000E+00  0.00000000000E+00  0.12741882844E+03  0.12741882844E+03  0.00000000000E+00 0.  1.
         13   -1    0    0    0    0 -0.00000000000E+00 -0.00000000000E+00 -0.10000000000E+04  0.10000000000E+04  0.00000000000E+00 0.  1.
    9000005    2    1    2  501    0 -0.31048988139E+01  0.30433110222E+01 -0.86989354212E+03  0.11223075184E+04  0.70911246572E+03 0.  0.
         13    1    3    3    0    0 -0.11698806724E+03 -0.22995619476E+02 -0.96458678202E+03  0.97192729483E+03  0.00000000000E+00 0.  1.
          3    1    3    3  501    0  0.11388316843E+03  0.26038930499E+02  0.94693239895E+02  0.15038022355E+03  0.00000000000E+00 0.  1.
         21    1    1    2  502  501  0.31048988139E+01 -0.30433110222E+01 -0.26876294371E+01  0.51113100682E+01  0.00000000000E+00 0.  1.
<mgrwt>
<rscale>  1 0.70912579E+03</rscale>
<asrwt>0</asrwt>
<pdfrwt beam="1">  1        1 0.46334217E+00 0.70912579E+03</pdfrwt>
<pdfrwt beam="2">0</pdfrwt>
<totfact> 0.68083746E-01</totfact>
</mgrwt>
</event>
<event>
 6    1  0.1213626E-003  0.6479362E+03  0.7818608E-02  0.9810659E-01
          1   -1    0    0  502    0  0.00000000000E+00  0.00000000000E+00  0.10646275895E+03  0.10646275895E+03  0.00000000000E+00 0.  1.
         13   -1    0    0    0    0 -0.00000000000E+00 -0.00000000000E+00 -0.10000000000E+04  0.10000000000E+04  0.00000000000E+00 0.  1.
    9000005    2    1    2  501    0 -0.21190509287E-01 -0.22678008957E-02 -0.89504457324E+03  0.11049552761E+04  0.64793624197E+03 0.  0.
         13    1    3    3    0    0  0.24185807597E+03  0.68357038922E+02 -0.79609490708E+03  0.83482639798E+03  0.00000000000E+00 0.  1.
          3    1    3    3  501    0 -0.24187926648E+03 -0.68359306722E+02 -0.98949666157E+02  0.27012887813E+03  0.00000000000E+00 0.  1.
         21    1    1    2  502  501  0.21190509287E-01  0.22678008957E-02  0.15073321868E+01  0.15074828364E+01  0.00000000000E+00 0. -1.
<mgrwt>
<rscale>  1 0.64793624E+03</rscale>
<asrwt>0</asrwt>
<pdfrwt beam="1">  1        1 0.38713812E+00 0.64793624E+03</pdfrwt>
<pdfrwt beam="2">0</pdfrwt>
<totfact> 0.15265697E+00</totfact>
</mgrwt>
</event>
<event>
 6    1  0.1213626E-003  0.6517102E+03  0.7818608E-02  0.9803575E-01
          1   -1    0    0  502    0  0.00000000000E+00  0.00000000000E+00  0.10618155541E+03  0.10618155541E+03  0.00000000000E+00 0.  1.
         13   -1    0    0    0    0 -0.00000000000E+00 -0.00000000000E+00 -0.10000000000E+04  0.10000000000E+04  0.00000000000E+00 0.  1.
    9000005    2    1    2  501    0  0.23633735395E-05 -0.10859128849E-04 -0.89381846306E+03  0.11061815339E+04  0.65171016636E+03 0.  0.
         13    1    3    3    0    0  0.15618041823E+03 -0.13154788046E+03 -0.87793093597E+03  0.90136557302E+03  0.00000000000E+00 0.  1.
          3    1    3    3  501    0 -0.15618041586E+03  0.13154786960E+03 -0.15887527088E+02  0.20481596083E+03  0.00000000000E+00 0.  1.
         21    1    1    2  502  501 -0.23633735436E-05  0.10859128838E-04  0.18471956152E-04  0.21557350897E-04  0.00000000000E+00 0. -1.
<mgrwt>
<rscale>  1 0.65171017E+03</rscale>
<asrwt>0</asrwt>
<pdfrwt beam="1">  1        1 0.38611556E+00 0.65171017E+03</pdfrwt>
<pdfrwt beam="2">0</pdfrwt>
<totfact> 0.15414848E+00</totfact>
</mgrwt>
</event>
<event>
 6    1  0.1213626E-003  0.7087372E+03  0.7818608E-02  0.9702406E-01
          1   -1    0    0  502    0  0.00000000000E+00  0.00000000000E+00  0.12592074357E+03  0.12592074357E+03  0.00000000000E+00 0.  1.
         13   -1    0    0    0    0 -0.00000000000E+00 -0.00000000000E+00 -0.10000000000E+04  0.10000000000E+04  0.00000000000E+00 0.  1.
    9000005    2    1    2  501    0  0.52043153642E-01  0.19219448205E-01 -0.87442036680E+03  0.11255751511E+04  0.70873721492E+03 0.  0.
         13    1    3    3    0    0  0.46864812378E+02 -0.20017615938E+03 -0.89559753010E+03  0.91889158302E+03  0.00000000000E+00 0.  1.
          1    1    3    3  501    0 -0.46812769225E+02  0.20019537883E+03  0.21177163299E+02  0.20668356808E+03  0.00000000000E+00 0.  1.
         21    1    1    2  502  501 -0.52043153642E-01 -0.19219448205E-01  0.34111036627E+00  0.34559247533E+00  0.00000000000E+00 0.  1.
<mgrwt>
<rscale>  1 0.70873722E+03</rscale>
<asrwt>0</asrwt>
<pdfrwt beam="1">  1        1 0.45789458E+00 0.70873722E+03</pdfrwt>
<pdfrwt beam="2">0</pdfrwt>
<totfact> 0.72180566E-01</totfact>
</mgrwt>
</event>
<event>
 6    1  0.1213626E-003  0.6192203E+03  0.7818608E-02  0.9866313E-01
          3   -1    0    0  502    0  0.00000000000E+00  0.00000000000E+00  0.95859884327E+02  0.95859884327E+02  0.00000000000E+00 0.  1.
         13   -1    0    0    0    0 -0.00000000000E+00 -0.00000000000E+00 -0.10000000000E+04  0.10000000000E+04  0.00000000000E+00 0.  1.
    9000005    2    1    2  501    0  0.16528963013E-03 -0.19120813127E-03 -0.90414153098E+03  0.10958584466E+04  0.61922033800E+03 0.  0.
         13    1    3    3    0    0  0.17959495429E+03 -0.15258965333E+03 -0.96707619477E+02  0.25473577208E+03  0.00000000000E+00 0.  1.
          1    1    3    3  501    0 -0.17959478900E+03  0.15258946213E+03 -0.80743391151E+03  0.84112267455E+03  0.00000000000E+00 0.  1.
         21    1    1    2  502  501 -0.16528963011E-03  0.19120813126E-03  0.14153097110E-02  0.14377005215E-02  0.00000000000E+00 0.  1.
<mgrwt>
<rscale>  1 0.61922034E+03</rscale>
<asrwt>0</asrwt>
<pdfrwt beam="1">  1        3 0.34858213E+00 0.61922034E+03</pdfrwt>
<pdfrwt beam="2">0</pdfrwt>
<totfact> 0.11135077E-01</totfact>
</mgrwt>
</event>
<event>
 6    1  0.1213626E-003  0.6556507E+03  0.7818608E-02  0.9796233E-01
          1   -1    0    0  502    0  0.00000000000E+00  0.00000000000E+00  0.10746982998E+03  0.10746982998E+03  0.00000000000E+00 0.  1.
         13   -1    0    0    0    0 -0.00000000000E+00 -0.00000000000E+00 -0.10000000000E+04  0.10000000000E+04  0.00000000000E+00 0.  1.
    9000005    2    1    2  501    0 -0.59297321940E-04 -0.54214977723E-04 -0.89253054063E+03  0.11074694508E+04  0.65565068321E+03 0.  0.
         13    1    3    3    0    0  0.64217721673E+02 -0.21705674452E+03 -0.84680970095E+03  0.87654105194E+03  0.00000000000E+00 0.  1.
          1    1    3    3  501    0 -0.64217780970E+02  0.21705669030E+03 -0.45720839682E+02  0.23092839881E+03  0.00000000000E+00 0.  1.
         21    1    1    2  502  501  0.59297321942E-04  0.54214977708E-04  0.37060943692E-03  0.37921865847E-03  0.00000000000E+00 0. -1.
<mgrwt>
<rscale>  1 0.65565068E+03</rscale>
<asrwt>0</asrwt>
<pdfrwt beam="1">  1        1 0.39080021E+00 0.65565068E+03</pdfrwt>
<pdfrwt beam="2">0</pdfrwt>
<totfact> 0.14684655E+00</totfact>
</mgrwt>
</event>
<event>
 6    1  0.1213626E-003  0.6520064E+03  0.7818608E-02  0.9803022E-01
          1   -1    0    0  502    0  0.00000000000E+00  0.00000000000E+00  0.10630177527E+03  0.10630177527E+03  0.00000000000E+00 0.  1.
         13   -1    0    0    0    0 -0.00000000000E+00 -0.00000000000E+00 -0.10000000000E+04  0.10000000000E+04  0.00000000000E+00 0.  1.
    9000005    2    1    2  501    0 -0.32949679024E-02 -0.18447087669E-02 -0.89372173285E+03  0.11062779658E+04  0.65200644307E+03 0.  0.
         13    1    3    3    0    0  0.19419222137E+03  0.22729488611E+03 -0.22626136429E+03  0.37492371099E+03  0.00000000000E+00 0.  1.
          3    1    3    3  501    0 -0.19419551634E+03 -0.22729673082E+03 -0.66746036856E+03  0.73135425479E+03  0.00000000000E+00 0.  1.
         21    1    1    2  502  501  0.32949679024E-02  0.18447087669E-02  0.23508117899E-01  0.23809480697E-01  0.00000000000E+00 0.  1.
<mgrwt>
<rscale>  1 0.65200644E+03</rscale>
<asrwt>0</asrwt>
<pdfrwt beam="1">  1        1 0.38655273E+00 0.65200644E+03</pdfrwt>
<pdfrwt beam="2">0</pdfrwt>
<totfact> 0.15345479E+00</totfact>
</mgrwt>
</event>
<event>
 6    1  0.1213626E-003  0.6478430E+03  0.7818608E-02  0.9810835E-01
          1   -1    0    0  502    0  0.00000000000E+00  0.00000000000E+00  0.10498664008E+03  0.10498664008E+03  0.00000000000E+00 0.  1.
         13   -1    0    0    0    0 -0.00000000000E+00 -0.00000000000E+00 -0.10000000000E+04  0.10000000000E+04  0.00000000000E+00 0.  1.
    9000005    2    1    2  501    0 -0.27624882608E-02 -0.25109428498E-02 -0.89507479407E+03  0.11049250926E+04  0.64784301592E+03 0.  0.
         13    1    3    3    0    0  0.31984098406E+03  0.39996479528E+01 -0.53466857748E+03  0.62304473356E+03  0.00000000000E+00 0.  1.
          1    1    3    3  501    0 -0.31984374655E+03 -0.40021588956E+01 -0.36040621659E+03  0.48188035905E+03  0.00000000000E+00 0.  1.
         21    1    1    2  502  501  0.27624882608E-02  0.25109428498E-02  0.61434151079E-01  0.61547470251E-01  0.00000000000E+00 0. -1.
<mgrwt>
<rscale>  1 0.64784302E+03</rscale>
<asrwt>0</asrwt>
<pdfrwt beam="1">  1        1 0.38177041E+00 0.64784302E+03</pdfrwt>
<pdfrwt beam="2">0</pdfrwt>
<totfact> 0.16123470E+00</totfact>
</mgrwt>
</event>
<event>
 6    1  0.1213626E-003  0.6461288E+03  0.7818608E-02  0.9814070E-01
          1   -1    0    0  502    0  0.00000000000E+00  0.00000000000E+00  0.10437061522E+03  0.10437061522E+03  0.00000000000E+00 0.  1.
         13   -1    0    0    0    0 -0.00000000000E+00 -0.00000000000E+00 -0.10000000000E+04  0.10000000000E+04  0.00000000000E+00 0.  1.
    9000005    2    1    2  501    0  0.60340824106E-05  0.29571408504E-05 -0.89562939190E+03  0.11043706054E+04  0.64612880025E+03 0.  0.
         13    1    3    3    0    0  0.37292049931E+02 -0.31608483364E+03 -0.35310701027E+03  0.47537866985E+03  0.00000000000E+00 0.  1.
          1    1    3    3  501    0 -0.37292043897E+02  0.31608483659E+03 -0.54252238163E+03  0.62899193558E+03  0.00000000000E+00 0.  1.
         21    1    1    2  502  501 -0.60340824088E-05 -0.29571408556E-05  0.71151153142E-05  0.97867102997E-05  0.00000000000E+00 0. -1.
<mgrwt>
<rscale>  1 0.64612880E+03</rscale>
<asrwt>0</asrwt>
<pdfrwt beam="1">  1        1 0.37953031E+00 0.64612880E+03</pdfrwt>
<pdfrwt beam="2">0</pdfrwt>
<totfact> 0.16499942E+00</totfact>
</mgrwt>
</event>
<event>
 6    1  0.1213626E-003  0.6577855E+03  0.7818608E-02  0.9792279E-01
          1   -1    0    0  502    0  0.00000000000E+00  0.00000000000E+00  0.10818364713E+03  0.10818364713E+03  0.00000000000E+00 0.  1.
         13   -1    0    0    0    0 -0.00000000000E+00 -0.00000000000E+00 -0.10000000000E+04  0.10000000000E+04  0.00000000000E+00 0.  1.
    9000005    2    1    2  501    0  0.10114544089E-02  0.52745305489E-02 -0.89182894441E+03  0.11081699581E+04  0.65778551962E+03 0.  0.
         13    1    3    3    0    0 -0.15242690707E+02 -0.18137022566E+03  0.15590179439E+02  0.18267608511E+03  0.00000000000E+00 0.  1.
          1    1    3    3  501    0  0.15243702161E+02  0.18137550019E+03 -0.90741912385E+03  0.92549387295E+03  0.00000000000E+00 0.  1.
         21    1    1    2  502  501 -0.10114544089E-02 -0.52745305489E-02  0.12591545178E-01  0.13689073106E-01  0.00000000000E+00 0. -1.
<mgrwt>
<rscale>  1 0.65778552E+03</rscale>
<asrwt>0</asrwt>
<pdfrwt beam="1">  1        1 0.39339591E+00 0.65778552E+03</pdfrwt>
<pdfrwt beam="2">0</pdfrwt>
<totfact> 0.14294440E+00</totfact>
</mgrwt>
</event>
<event>
 6    1  0.1213626E-003  0.6532044E+03  0.7818608E-02  0.9800785E-01
          1   -1    0    0  502    0  0.00000000000E+00  0.00000000000E+00  0.10674539757E+03  0.10674539757E+03  0.00000000000E+00 0.  1.
         13   -1    0    0    0    0 -0.00000000000E+00 -0.00000000000E+00 -0.10000000000E+04  0.10000000000E+04  0.00000000000E+00 0.  1.
    9000005    2    1    2  501    0  0.11273307701E-02  0.13888926033E-03 -0.89333100956E+03  0.11066689820E+04  0.65320436549E+03 0.  0.
         13    1    3    3    0    0  0.26849806315E+03 -0.90934473900E+02 -0.72146864111E+03  0.77516274973E+03  0.00000000000E+00 0.  1.
          1    1    3    3  501    0 -0.26849693582E+03  0.90934612789E+02 -0.17186236845E+03  0.33150623228E+03  0.00000000000E+00 0.  1.
         21    1    1    2  502  501 -0.11273307701E-02 -0.13888926033E-03  0.76407123463E-01  0.76415565697E-01  0.00000000000E+00 0. -1.
<mgrwt>
<rscale>  1 0.65320437E+03</rscale>
<asrwt>0</asrwt>
<pdfrwt beam="1">  1        1 0.38816590E+00 0.65320437E+03</pdfrwt>
<pdfrwt beam="2">0</pdfrwt>
<totfact> 0.15091765E+00</totfact>
</mgrwt>
</event>
<event>
 6    1  0.1213626E-003  0.6942408E+03  0.7818608E-02  0.9727132E-01
          1   -1    0    0  502    0  0.00000000000E+00  0.00000000000E+00  0.12368510604E+03  0.12368510604E+03  0.00000000000E+00 0.  1.
         13   -1    0    0    0    0 -0.00000000000E+00 -0.00000000000E+00 -0.10000000000E+04  0.10000000000E+04  0.00000000000E+00 0.  1.
    9000005    2    1    2  501    0  0.24475418326E+01 -0.19008811631E-01 -0.87897207462E+03  0.11200724295E+04  0.69423652211E+03 0.  0.
         13    1    3    3    0    0 -0.66506096366E+02  0.26904696658E+03 -0.77571897933E+03  0.82374101875E+03  0.00000000000E+00 0.  1.
          3    1    3    3  501    0  0.68953638199E+02 -0.26906597539E+03 -0.10325309529E+03  0.29633141079E+03  0.00000000000E+00 0.  1.
         21    1    1    2  502  501 -0.24475418326E+01  0.19008811631E-01  0.26571806633E+01  0.36126764918E+01  0.00000000000E+00 0. -1.
<mgrwt>
<rscale>  1 0.69424084E+03</rscale>
<asrwt>0</asrwt>
<pdfrwt beam="1">  1        1 0.44976497E+00 0.69424084E+03</pdfrwt>
<pdfrwt beam="2">0</pdfrwt>
<totfact> 0.78935105E-01</totfact>
</mgrwt>
</event>
<event>
 6    1  0.1213626E-003  0.6563370E+03  0.7818608E-02  0.9794960E-01
          1   -1    0    0  502    0  0.00000000000E+00  0.00000000000E+00  0.10842210257E+03  0.10842210257E+03  0.00000000000E+00 0.  1.
         13   -1    0    0    0    0 -0.00000000000E+00 -0.00000000000E+00 -0.10000000000E+04  0.10000000000E+04  0.00000000000E+00 0.  1.
    9000005    2    1    2  501    0  0.69170331057E-01  0.53836838062E-01 -0.89230249853E+03  0.11076922192E+04  0.65633702927E+03 0.  0.
         13    1    3    3    0    0 -0.40674650905E+01 -0.30969324705E+03 -0.26316600536E+03  0.40642686663E+03  0.00000000000E+00 0.  1.
          1    1    3    3  501    0  0.41366354215E+01  0.30974708389E+03 -0.62913649316E+03  0.70126535260E+03  0.00000000000E+00 0.  1.
         21    1    1    2  502  501 -0.69170331057E-01 -0.53836838062E-01  0.72460109081E+00  0.72988333358E+00  0.00000000000E+00 0.  1.
<mgrwt>
<rscale>  1 0.65633704E+03</rscale>
<asrwt>0</asrwt>
<pdfrwt beam="1">  1        1 0.39426302E+00 0.65633704E+03</pdfrwt>
<pdfrwt beam="2">0</pdfrwt>
<totfact> 0.14171997E+00</totfact>
</mgrwt>
</event>
<event>
 6    1  0.1213626E-003  0.6961324E+03  0.7818608E-02  0.9723869E-01
          1   -1    0    0  502    0  0.00000000000E+00  0.00000000000E+00  0.12128426988E+03  0.12128426988E+03  0.00000000000E+00 0.  1.
         13   -1    0    0    0    0 -0.00000000000E+00 -0.00000000000E+00 -0.10000000000E+04  0.10000000000E+04  0.00000000000E+00 0.  1.
    9000005    2    1    2  501    0 -0.22992818436E-01  0.58411981402E-01 -0.87884163200E+03  0.11211435862E+04  0.69613240314E+03 0.  0.
         13    1    3    3    0    0 -0.14916709677E+03  0.29899402905E+03 -0.28229583163E+03  0.43742335182E+03  0.00000000000E+00 0.  1.
          3    1    3    3  501    0  0.14914410395E+03 -0.29893561707E+03 -0.59654580037E+03  0.68372023433E+03  0.00000000000E+00 0.  1.
         21    1    1    2  502  501  0.22992818436E-01 -0.58411981402E-01  0.12590187384E+00  0.14068372723E+00  0.00000000000E+00 0. -1.
<mgrwt>
<rscale>  1 0.69613241E+03</rscale>
<asrwt>0</asrwt>
<pdfrwt beam="1">  1        1 0.44103464E+00 0.69613241E+03</pdfrwt>
<pdfrwt beam="2">0</pdfrwt>
<totfact> 0.86543605E-01</totfact>
</mgrwt>
</event>
<event>
 6    1  0.1213626E-003  0.6735429E+03  0.7818608E-02  0.9763579E-01
          3   -1    0    0  502    0  0.00000000000E+00  0.00000000000E+00  0.11341818298E+03  0.11341818298E+03  0.00000000000E+00 0.  1.
         13   -1    0    0    0    0 -0.00000000000E+00 -0.00000000000E+00 -0.10000000000E+04  0.10000000000E+04  0.00000000000E+00 0.  1.
    9000005    2    1    2  501    0 -0.11489616609E-02  0.50086000090E-03 -0.88658483750E+03  0.11134149128E+04  0.67354294138E+03 0.  0.
         13    1    3    3    0    0 -0.26584052367E+03 -0.17938706151E+03 -0.61320046619E+03  0.69200123815E+03  0.00000000000E+00 0.  1.
          3    1    3    3  501    0  0.26583937470E+03  0.17938756237E+03 -0.27338437131E+03  0.42141367462E+03  0.00000000000E+00 0.  1.
         21    1    1    2  502  501  0.11489616609E-02 -0.50086000090E-03  0.30204877980E-02  0.32702171452E-02  0.00000000000E+00 0.  1.
<mgrwt>
<rscale>  1 0.67354294E+03</rscale>
<asrwt>0</asrwt>
<pdfrwt beam="1">  1        3 0.41243063E+00 0.67354294E+03</pdfrwt>
<pdfrwt beam="2">0</pdfrwt>
<totfact> 0.50807453E-02</totfact>
</mgrwt>
</event>
<event>
 6    1  0.1213626E-003  0.6568693E+03  0.7818608E-02  0.9793974E-01
          1   -1    0    0  502    0  0.00000000000E+00  0.00000000000E+00  0.10891756986E+03  0.10891756986E+03  0.00000000000E+00 0.  1.
         13   -1    0    0    0    0 -0.00000000000E+00 -0.00000000000E+00 -0.10000000000E+04  0.10000000000E+04  0.00000000000E+00 0.  1.
    9000005    2    1    2  501    0  0.30481775600E+00  0.15606931284E+01 -0.89141490578E+03  0.11072930032E+04  0.65686736251E+03 0.  0.
         13    1    3    3    0    0  0.24134741095E+03  0.96518101805E+02 -0.78552866609E+03  0.82741742911E+03  0.00000000000E+00 0.  1.
          1    1    3    3  501    0 -0.24104259319E+03 -0.94957408677E+02 -0.10588623969E+03  0.27987557405E+03  0.00000000000E+00 0.  1.
         21    1    1    2  502  501 -0.30481775600E+00 -0.15606931284E+01  0.33247563872E+00  0.16245666979E+01  0.00000000000E+00 0.  1.
<mgrwt>
<rscale>  1 0.65686929E+03</rscale>
<asrwt>0</asrwt>
<pdfrwt beam="1">  1        1 0.39606473E+00 0.65686929E+03</pdfrwt>
<pdfrwt beam="2">0</pdfrwt>
<totfact> 0.13911565E+00</totfact>
</mgrwt>
</event>
<event>
 6    1  0.1213626E-003  0.6502677E+03  0.7818608E-02  0.9806277E-01
          1   -1    0    0  502    0  0.00000000000E+00  0.00000000000E+00  0.10701644140E+03  0.10701644140E+03  0.00000000000E+00 0.  1.
         13   -1    0    0    0    0 -0.00000000000E+00 -0.00000000000E+00 -0.10000000000E+04  0.10000000000E+04  0.00000000000E+00 0.  1.
    9000005    2    1    2  501    0 -0.64866197540E+00  0.17720861899E+01 -0.89348610648E+03  0.11050635957E+04  0.65026499759E+03 0.  0.
         13    1    3    3    0    0  0.24323028699E+03 -0.11543147639E+03 -0.75404239982E+03  0.80066556001E+03  0.00000000000E+00 0.  1.
          3    1    3    3  501    0 -0.24387894896E+03  0.11720356258E+03 -0.13944370666E+03  0.30439803573E+03  0.00000000000E+00 0.  1.
         21    1    1    2  502  501  0.64866197540E+00 -0.17720861899E+01  0.50254788236E+00  0.19528456664E+01  0.00000000000E+00 0.  1.
<mgrwt>
<rscale>  1 0.65026774E+03</rscale>
<asrwt>0</asrwt>
<pdfrwt beam="1">  1        1 0.38915152E+00 0.65026774E+03</pdfrwt>
<pdfrwt beam="2">0</pdfrwt>
<totfact> 0.14948901E+00</totfact>
</mgrwt>
</event>
<event>
 6    1  0.1213626E-003  0.6439790E+03  0.7818608E-02  0.9818143E-01
          1   -1    0    0  502    0  0.00000000000E+00  0.00000000000E+00  0.10406702466E+03  0.10406702466E+03  0.00000000000E+00 0.  1.
         13   -1    0    0    0    0 -0.00000000000E+00 -0.00000000000E+00 -0.10000000000E+04  0.10000000000E+04  0.00000000000E+00 0.  1.
    9000005    2    1    2  501    0  0.55871696127E-01 -0.42966277538E-01 -0.89631923267E+03  0.11036743894E+04  0.64397902601E+03 0.  0.
         13    1    3    3    0    0 -0.14310166876E+02 -0.25382739057E+03 -0.10949076188E+03  0.27680562136E+03  0.00000000000E+00 0.  1.
          1    1    3    3  501    0  0.14366038572E+02  0.25378442429E+03 -0.78682847078E+03  0.82686876801E+03  0.00000000000E+00 0.  1.
         21    1    1    2  502  501 -0.55871696127E-01  0.42966277538E-01  0.38625732941E+00  0.39263529128E+00  0.00000000000E+00 0. -1.
<mgrwt>
<rscale>  1 0.64397903E+03</rscale>
<asrwt>0</asrwt>
<pdfrwt beam="1">  1        1 0.37842634E+00 0.64397903E+03</pdfrwt>
<pdfrwt beam="2">0</pdfrwt>
<totfact> 0.16692541E+00</totfact>
</mgrwt>
</event>
<event>
 6    1  0.1213626E-003  0.6560011E+03  0.7818608E-02  0.9795583E-01
          1   -1    0    0  502    0  0.00000000000E+00  0.00000000000E+00  0.10989063415E+03  0.10989063415E+03  0.00000000000E+00 0.  1.
         13   -1    0    0    0    0 -0.00000000000E+00 -0.00000000000E+00 -0.10000000000E+04  0.10000000000E+04  0.00000000000E+00 0.  1.
    9000005    2    1    2  501    0 -0.45794062670E-02 -0.62257610318E-01 -0.89241517787E+03  0.11075839773E+04  0.65600107705E+03 0.  0.
         13    1    3    3    0    0 -0.88431343574E+02  0.15177166298E+03  0.21468790681E+02  0.17696228181E+03  0.00000000000E+00 0.  1.
          1    1    3    3  501    0  0.88426764168E+02 -0.15183392059E+03 -0.91388396855E+03  0.93062169544E+03  0.00000000000E+00 0.  1.
         21    1    1    2  502  501  0.45794062670E-02  0.62257610318E-01  0.23058120138E+01  0.23066568934E+01  0.00000000000E+00 0. -1.
<mgrwt>
<rscale>  1 0.65600108E+03</rscale>
<asrwt>0</asrwt>
<pdfrwt beam="1">  1        1 0.39960315E+00 0.65600108E+03</pdfrwt>
<pdfrwt beam="2">0</pdfrwt>
<totfact> 0.13418066E+00</totfact>
</mgrwt>
</event>
<event>
 6    1  0.1213626E-003  0.6489780E+03  0.7818608E-02  0.9808699E-01
          1   -1    0    0  502    0  0.00000000000E+00  0.00000000000E+00  0.10579408415E+03  0.10579408415E+03  0.00000000000E+00 0.  1.
         13   -1    0    0    0    0 -0.00000000000E+00 -0.00000000000E+00 -0.10000000000E+04  0.10000000000E+04  0.00000000000E+00 0.  1.
    9000005    2    1    2  501    0  0.16732312338E-01  0.30845569903E-01 -0.89470621065E+03  0.11052925602E+04  0.64897799574E+03 0.  0.
         13    1    3    3    0    0 -0.22426563263E+03  0.28204169899E+02 -0.50844757672E+02  0.23168025070E+03  0.00000000000E+00 0.  1.
          3    1    3    3  501    0  0.22428236495E+03 -0.28173324329E+02 -0.84386145298E+03  0.87361230947E+03  0.00000000000E+00 0.  1.
         21    1    1    2  502  501 -0.16732312338E-01 -0.30845569903E-01  0.50029480203E+00  0.50152398586E+00  0.00000000000E+00 0.  1.
<mgrwt>
<rscale>  1 0.64897800E+03</rscale>
<asrwt>0</asrwt>
<pdfrwt beam="1">  1        1 0.38470657E+00 0.64897800E+03</pdfrwt>
<pdfrwt beam="2">0</pdfrwt>
<totfact> 0.15645593E+00</totfact>
</mgrwt>
</event>
<event>
 6    1  0.1213626E-003  0.6538280E+03  0.7818608E-02  0.9799623E-01
          1   -1    0    0  502    0  0.00000000000E+00  0.00000000000E+00  0.10752252818E+03  0.10752252818E+03  0.00000000000E+00 0.  1.
         13   -1    0    0    0    0 -0.00000000000E+00 -0.00000000000E+00 -0.10000000000E+04  0.10000000000E+04  0.00000000000E+00 0.  1.
    9000005    2    1    2  501    0  0.14010267027E+01 -0.13015517657E+01 -0.89067163024E+03  0.11048923235E+04  0.65382523407E+03 0.  0.
         13    1    3    3    0    0  0.30396457708E+03 -0.11862916939E+03 -0.49956796652E+03  0.59668710152E+03  0.00000000000E+00 0.  1.
          1    1    3    3  501    0 -0.30256355037E+03  0.11732761763E+03 -0.39110366372E+03  0.50820522198E+03  0.00000000000E+00 0.  1.
         21    1    1    2  502  501 -0.14010267027E+01  0.13015517657E+01 -0.18058415832E+01  0.26302046772E+01  0.00000000000E+00 0.  1.
<mgrwt>
<rscale>  1 0.65382803E+03</rscale>
<asrwt>0</asrwt>
<pdfrwt beam="1">  1        1 0.39099184E+00 0.65382803E+03</pdfrwt>
<pdfrwt beam="2">0</pdfrwt>
<totfact> 0.14660898E+00</totfact>
</mgrwt>
</event>
<event>
 6    1  0.1213626E-003  0.6514971E+03  0.7818608E-02  0.9803974E-01
          1   -1    0    0  502    0  0.00000000000E+00  0.00000000000E+00  0.11107766276E+03  0.11107766276E+03  0.00000000000E+00 0.  1.
         13   -1    0    0    0    0 -0.00000000000E+00 -0.00000000000E+00 -0.10000000000E+04  0.10000000000E+04  0.00000000000E+00 0.  1.
    9000005    2    1    2  501    0  0.72665968084E-01 -0.28807225979E-01 -0.89388754228E+03  0.11061118425E+04  0.65149709413E+03 0.  0.
         13    1    3    3    0    0  0.31215193852E+02  0.16906432811E+03 -0.91668731956E+03  0.93266970425E+03  0.00000000000E+00 0.  1.
          3    1    3    3  501    0 -0.31142527884E+02 -0.16909313534E+03  0.22799777280E+02  0.17344213821E+03  0.00000000000E+00 0.  1.
         21    1    1    2  502  501 -0.72665968084E-01  0.28807225979E-01  0.49652050404E+01  0.49658203041E+01  0.00000000000E+00 0. -1.
<mgrwt>
<rscale>  1 0.65149710E+03</rscale>
<asrwt>0</asrwt>
<pdfrwt beam="1">  1        1 0.40391963E+00 0.65149710E+03</pdfrwt>
<pdfrwt beam="2">0</pdfrwt>
<totfact> 0.12846969E+00</totfact>
</mgrwt>
</event>
<event>
 6    1  0.1213626E-003  0.6563416E+03  0.7818608E-02  0.9794952E-01
          1   -1    0    0  502    0  0.00000000000E+00  0.00000000000E+00  0.10771851319E+03  0.10771851319E+03  0.00000000000E+00 0.  1.
         13   -1    0    0    0    0 -0.00000000000E+00 -0.00000000000E+00 -0.10000000000E+04  0.10000000000E+04  0.00000000000E+00 0.  1.
    9000005    2    1    2  501    0 -0.12118777472E-01  0.19304354365E-01 -0.89229732128E+03  0.11076907598E+04  0.65634161011E+03 0.  0.
         13    1    3    3    0    0 -0.10480742271E+03 -0.13493052667E+03  0.26715881281E+02  0.17292941102E+03  0.00000000000E+00 0.  1.
          3    1    3    3  501    0  0.10479530393E+03  0.13494983102E+03 -0.91901320256E+03  0.93476134874E+03  0.00000000000E+00 0.  1.
         21    1    1    2  502  501  0.12118777472E-01 -0.19304354365E-01  0.15834469593E-01  0.27753437484E-01  0.00000000000E+00 0.  1.
<mgrwt>
<rscale>  1 0.65634161E+03</rscale>
<asrwt>0</asrwt>
<pdfrwt beam="1">  1        1 0.39170451E+00 0.65634161E+03</pdfrwt>
<pdfrwt beam="2">0</pdfrwt>
<totfact> 0.14547721E+00</totfact>
</mgrwt>
</event>
<event>
 6    1  0.1213626E-003  0.6091537E+03  0.7818608E-02  0.9886595E-01
          1   -1    0    0  502    0  0.00000000000E+00  0.00000000000E+00  0.92770465452E+02  0.92770465452E+02  0.00000000000E+00 0.  1.
         13   -1    0    0    0    0 -0.00000000000E+00 -0.00000000000E+00 -0.10000000000E+04  0.10000000000E+04  0.00000000000E+00 0.  1.
    9000005    2    1    2  501    0  0.32214999966E-02  0.40810500589E-02 -0.90723066093E+03  0.10927651455E+04  0.60915366787E+03 0.  0.
         13    1    3    3    0    0 -0.17319613044E+03 -0.17755155300E+03 -0.77070431603E+03  0.80963361857E+03  0.00000000000E+00 0.  1.
          3    1    3    3  501    0  0.17319935194E+03  0.17755563405E+03 -0.13652634490E+03  0.28313152694E+03  0.00000000000E+00 0.  1.
         21    1    1    2  502  501 -0.32214999966E-02 -0.40810500589E-02  0.11263837311E-02  0.53199409885E-02  0.00000000000E+00 0. -1.
<mgrwt>
<rscale>  1 0.60915367E+03</rscale>
<asrwt>0</asrwt>
<pdfrwt beam="1">  1        1 0.33734786E+00 0.60915367E+03</pdfrwt>
<pdfrwt beam="2">0</pdfrwt>
<totfact> 0.25398982E+00</totfact>
</mgrwt>
</event>
<event>
 6    1  0.1213626E-003  0.6587270E+03  0.7818608E-02  0.9790540E-01
          1   -1    0    0  502    0  0.00000000000E+00  0.00000000000E+00  0.10852610404E+03  0.10852610404E+03  0.00000000000E+00 0.  1.
         13   -1    0    0    0    0 -0.00000000000E+00 -0.00000000000E+00 -0.10000000000E+04  0.10000000000E+04  0.00000000000E+00 0.  1.
    9000005    2    1    2  501    0  0.11271799708E-01 -0.11792094032E-01 -0.89151807472E+03  0.11084790098E+04  0.65872698237E+03 0.  0.
         13    1    3    3    0    0  0.79773854586E+02  0.74790943746E+02 -0.96856068262E+03  0.97471398320E+03  0.00000000000E+00 0.  1.
          1    1    3    3  501    0 -0.79762582787E+02 -0.74802735840E+02  0.77042607900E+02  0.13376502657E+03  0.00000000000E+00 0.  1.
         21    1    1    2  502  501 -0.11271799708E-01  0.11792094032E-01  0.44178757256E-01  0.47094262315E-01  0.00000000000E+00 0. -1.
<mgrwt>
<rscale>  1 0.65872698E+03</rscale>
<asrwt>0</asrwt>
<pdfrwt beam="1">  1        1 0.39464121E+00 0.65872698E+03</pdfrwt>
<pdfrwt beam="2">0</pdfrwt>
<totfact> 0.14110956E+00</totfact>
</mgrwt>
</event>
<event>
 6    1  0.1213626E-003  0.6259720E+03  0.7818608E-02  0.9852941E-01
          1   -1    0    0  502    0  0.00000000000E+00  0.00000000000E+00  0.97967941615E+02  0.97967941615E+02  0.00000000000E+00 0.  1.
         13   -1    0    0    0    0 -0.00000000000E+00 -0.00000000000E+00 -0.10000000000E+04  0.10000000000E+04  0.00000000000E+00 0.  1.
    9000005    2    1    2  501    0  0.38096993999E-02  0.39757183021E-02 -0.90203868378E+03  0.10979593267E+04  0.62597196113E+03 0.  0.
         13    1    3    3    0    0  0.91528073649E+02  0.95486736828E+02 -0.94857151703E+03  0.95774893793E+03  0.00000000000E+00 0.  1.
          1    1    3    3  501    0 -0.91524263950E+02 -0.95482761110E+02  0.46532833256E+02  0.14021038881E+03  0.00000000000E+00 0.  1.
         21    1    1    2  502  501 -0.38096993999E-02 -0.39757183021E-02  0.66253935552E-02  0.86148700104E-02  0.00000000000E+00 0.  1.
<mgrwt>
<rscale>  1 0.62597196E+03</rscale>
<asrwt>0</asrwt>
<pdfrwt beam="1">  1        1 0.35624781E+00 0.62597196E+03</pdfrwt>
<pdfrwt beam="2">0</pdfrwt>
<totfact> 0.20952849E+00</totfact>
</mgrwt>
</event>
<event>
 6    1  0.1213626E-003  0.6509039E+03  0.7818608E-02  0.9805085E-01
          1   -1    0    0  502    0  0.00000000000E+00  0.00000000000E+00  0.10591913772E+03  0.10591913772E+03  0.00000000000E+00 0.  1.
         13   -1    0    0    0    0 -0.00000000000E+00 -0.00000000000E+00 -0.10000000000E+04  0.10000000000E+04  0.00000000000E+00 0.  1.
    9000005    2    1    2  501    0  0.98234325293E-04 -0.35605740436E-04 -0.89408102343E+03  0.11059189457E+04  0.65090386225E+03 0.  0.
         13    1    3    3    0    0 -0.23203841784E+03  0.22811922538E+03 -0.45761288883E+03  0.56150669130E+03  0.00000000000E+00 0.  1.
          1    1    3    3  501    0  0.23203851607E+03 -0.22811926099E+03 -0.43646813460E+03  0.54441225436E+03  0.00000000000E+00 0.  1.
         21    1    1    2  502  501 -0.98234325291E-04  0.35605740425E-04  0.16115533971E-03  0.19206455928E-03  0.00000000000E+00 0.  1.
<mgrwt>
<rscale>  1 0.65090386E+03</rscale>
<asrwt>0</asrwt>
<pdfrwt beam="1">  1        1 0.38516131E+00 0.65090386E+03</pdfrwt>
<pdfrwt beam="2">0</pdfrwt>
<totfact> 0.15567763E+00</totfact>
</mgrwt>
</event>
<event>
 6    1  0.1213626E-003  0.6491586E+03  0.7818608E-02  0.9808359E-01
          1   -1    0    0  502    0  0.00000000000E+00  0.00000000000E+00  0.10535508248E+03  0.10535508248E+03  0.00000000000E+00 0.  1.
         13   -1    0    0    0    0 -0.00000000000E+00 -0.00000000000E+00 -0.10000000000E+04  0.10000000000E+04  0.00000000000E+00 0.  1.
    9000005    2    1    2  501    0 -0.59058232138E-03 -0.36422364975E-02 -0.89464713931E+03  0.11053507754E+04  0.64915855749E+03 0.  0.
         13    1    3    3    0    0 -0.11244727862E+03 -0.27793322789E+03 -0.65905244269E+03  0.72404515871E+03  0.00000000000E+00 0.  1.
          3    1    3    3  501    0  0.11244668804E+03  0.27792958566E+03 -0.23559469662E+03  0.38130561668E+03  0.00000000000E+00 0.  1.
         21    1    1    2  502  501  0.59058232138E-03  0.36422364975E-02  0.22217936318E-02  0.43070919568E-02  0.00000000000E+00 0.  1.
<mgrwt>
<rscale>  1 0.64915856E+03</rscale>
<asrwt>0</asrwt>
<pdfrwt beam="1">  1        1 0.38311020E+00 0.64915856E+03</pdfrwt>
<pdfrwt beam="2">0</pdfrwt>
<totfact> 0.15901375E+00</totfact>
</mgrwt>
</event>
<event>
 6    1  0.1213626E-003  0.6525057E+03  0.7818608E-02  0.9802089E-01
          1   -1    0    0  502    0  0.00000000000E+00  0.00000000000E+00  0.10644134401E+03  0.10644134401E+03  0.00000000000E+00 0.  1.
         13   -1    0    0    0    0 -0.00000000000E+00 -0.00000000000E+00 -0.10000000000E+04  0.10000000000E+04  0.00000000000E+00 0.  1.
    9000005    2    1    2  501    0 -0.23149468632E-04 -0.53512288758E-04 -0.89355908587E+03  0.11064409102E+04  0.65250566881E+03 0.  0.
         13    1    3    3    0    0 -0.16160392677E+03  0.21195549084E+03 -0.76581959595E+03  0.81087644730E+03  0.00000000000E+00 0.  1.
          1    1    3    3  501    0  0.16160390362E+03 -0.21195554435E+03 -0.12773948992E+03  0.29556446290E+03  0.00000000000E+00 0.  1.
         21    1    1    2  502  501  0.23149468631E-04  0.53512288770E-04  0.42987231904E-03  0.43380833743E-03  0.00000000000E+00 0.  1.
<mgrwt>
<rscale>  1 0.65250567E+03</rscale>
<asrwt>0</asrwt>
<pdfrwt beam="1">  1        1 0.38706025E+00 0.65250567E+03</pdfrwt>
<pdfrwt beam="2">0</pdfrwt>
<totfact> 0.15264879E+00</totfact>
</mgrwt>
</event>
<event>
 6    1  0.1213626E-003  0.6230466E+03  0.7818608E-02  0.9858712E-01
          1   -1    0    0  502    0  0.00000000000E+00  0.00000000000E+00  0.97504970527E+02  0.97504970527E+02  0.00000000000E+00 0.  1.
         13   -1    0    0    0    0 -0.00000000000E+00 -0.00000000000E+00 -0.10000000000E+04  0.10000000000E+04  0.00000000000E+00 0.  1.
    9000005    2    1    2  501    0 -0.16043927745E+00  0.11963004851E+00 -0.90292913232E+03  0.10970269565E+04  0.62304661567E+03 0.  0.
         13    1    3    3    0    0 -0.20774905734E+03 -0.20814708913E+02 -0.44332810795E+02  0.21344395294E+03  0.00000000000E+00 0.  1.
          3    1    3    3  501    0  0.20758861806E+03  0.20934338961E+02 -0.85859632152E+03  0.88358300359E+03  0.00000000000E+00 0.  1.
         21    1    1    2  502  501  0.16043927745E+00 -0.11963004851E+00  0.43410284329E+00  0.47801400483E+00  0.00000000000E+00 0.  1.
<mgrwt>
<rscale>  1 0.62304665E+03</rscale>
<asrwt>0</asrwt>
<pdfrwt beam="1">  1        1 0.35456428E+00 0.62304665E+03</pdfrwt>
<pdfrwt beam="2">0</pdfrwt>
<totfact> 0.21321683E+00</totfact>
</mgrwt>
</event>
<event>
 6    1  0.1213626E-003  0.6367519E+03  0.7818608E-02  0.9831961E-01
          3   -1    0    0  502    0  0.00000000000E+00  0.00000000000E+00  0.10137676027E+03  0.10137676027E+03  0.00000000000E+00 0.  1.
         13   -1    0    0    0    0 -0.00000000000E+00 -0.00000000000E+00 -0.10000000000E+04  0.10000000000E+04  0.00000000000E+00 0.  1.
    9000005    2    1    2  501    0 -0.10888377132E-01  0.13358578385E-01 -0.89863041043E+03  0.11013580941E+04  0.63675194268E+03 0.  0.
         13    1    3    3    0    0  0.24520941485E+03  0.18477489016E+03 -0.59499238221E+03  0.66954115038E+03  0.00000000000E+00 0.  1.
          3    1    3    3  501    0 -0.24522030323E+03 -0.18476153158E+03 -0.30363802822E+03  0.43181694368E+03  0.00000000000E+00 0.  1.
         21    1    1    2  502  501  0.10888377132E-01 -0.13358578385E-01  0.71707027348E-02  0.18666208795E-01  0.00000000000E+00 0. -1.
<mgrwt>
<rscale>  1 0.63675194E+03</rscale>
<asrwt>0</asrwt>
<pdfrwt beam="1">  1        3 0.36864354E+00 0.63675194E+03</pdfrwt>
<pdfrwt beam="2">0</pdfrwt>
<totfact> 0.86867971E-02</totfact>
</mgrwt>
</event>
<event>
 6    1  0.1213626E-003  0.6482769E+03  0.7818608E-02  0.9810018E-01
          3   -1    0    0  502    0  0.00000000000E+00  0.00000000000E+00  0.10507660475E+03  0.10507660475E+03  0.00000000000E+00 0.  1.
         13   -1    0    0    0    0 -0.00000000000E+00 -0.00000000000E+00 -0.10000000000E+04  0.10000000000E+04  0.00000000000E+00 0.  1.
    9000005    2    1    2  501    0 -0.23132116619E-02  0.69339682998E-02 -0.89493290199E+03  0.11050646127E+04  0.64827686921E+03 0.  0.
         13    1    3    3    0    0  0.29807374932E+03 -0.12409726812E+03 -0.39876704166E+03  0.51309184899E+03  0.00000000000E+00 0.  1.
          3    1    3    3  501    0 -0.29807606253E+03  0.12410420209E+03 -0.49616586033E+03  0.59197276372E+03  0.00000000000E+00 0.  1.
         21    1    1    2  502  501  0.23132116619E-02 -0.69339682998E-02  0.95067407092E-02  0.11992038338E-01  0.00000000000E+00 0.  1.
<mgrwt>
<rscale>  1 0.64827687E+03</rscale>
<asrwt>0</asrwt>
<pdfrwt beam="1">  1        3 0.38209755E+00 0.64827687E+03</pdfrwt>
<pdfrwt beam="2">0</pdfrwt>
<totfact> 0.73599620E-02</totfact>
</mgrwt>
</event>
<event>
 6    1  0.1213626E-003  0.5092311E+03  0.7818608E-02  0.1011397E+00
          1   -1    0    0  502    0  0.00000000000E+00  0.00000000000E+00  0.64840715918E+02  0.64840715918E+02  0.00000000000E+00 0.  1.
         13   -1    0    0    0    0 -0.00000000000E+00 -0.00000000000E+00 -0.10000000000E+04  0.10000000000E+04  0.00000000000E+00 0.  1.
    9000005    2    1    2  501    0  0.24630001738E-01  0.36838218897E-01 -0.93509896997E+03  0.10647658729E+04  0.50923106583E+03 0.  0.
         13    1    3    3    0    0 -0.15113257130E+03  0.83335020309E+02 -0.76131988198E+02  0.18863154388E+03  0.00000000000E+00 0.  1.
          1    1    3    3  501    0  0.15115720131E+03 -0.83298182090E+02 -0.85896698177E+03  0.87613432898E+03  0.00000000000E+00 0.  1.
         21    1    1    2  502  501 -0.24630001738E-01 -0.36838218897E-01 -0.60314111780E-01  0.74843058709E-01  0.00000000000E+00 0. -1.
<mgrwt>
<rscale>  1 0.50923107E+03</rscale>
<asrwt>0</asrwt>
<pdfrwt beam="1">  1        1 0.23578492E+00 0.50923107E+03</pdfrwt>
<pdfrwt beam="2">0</pdfrwt>
<totfact> 0.71136315E+00</totfact>
</mgrwt>
</event>
<event>
 6    1  0.1213626E-003  0.6403148E+03  0.7818608E-02  0.9825124E-01
          1   -1    0    0  502    0  0.00000000000E+00  0.00000000000E+00  0.10522768035E+03  0.10522768035E+03  0.00000000000E+00 0.  1.
         13   -1    0    0    0    0 -0.00000000000E+00 -0.00000000000E+00 -0.10000000000E+04  0.10000000000E+04  0.00000000000E+00 0.  1.
    9000005    2    1    2  501    0  0.25926774095E+01 -0.36708731821E+01 -0.89529080119E+03  0.11007037319E+04  0.64029906259E+03 0.  0.
         13    1    3    3    0    0 -0.54128932367E+02  0.86664465047E+02  0.73620248567E+02  0.12593892099E+03  0.00000000000E+00 0.  1.
          3    1    3    3  501    0  0.56721609776E+02 -0.90335338229E+02 -0.96891104975E+03  0.97476481096E+03  0.00000000000E+00 0.  1.
         21    1    1    2  502  501 -0.25926774095E+01  0.36708731821E+01  0.51848154000E+00  0.45239484055E+01  0.00000000000E+00 0. -1.
<mgrwt>
<rscale>  1 0.64031483E+03</rscale>
<asrwt>0</asrwt>
<pdfrwt beam="1">  1        1 0.38264692E+00 0.64031483E+03</pdfrwt>
<pdfrwt beam="2">0</pdfrwt>
<totfact> 0.16002690E+00</totfact>
</mgrwt>
</event>
<event>
 6    1  0.1213626E-003  0.7045182E+03  0.7818608E-02  0.9709537E-01
          1   -1    0    0  502    0  0.00000000000E+00  0.00000000000E+00  0.12445055949E+03  0.12445055949E+03  0.00000000000E+00 0.  1.
         13   -1    0    0    0    0 -0.00000000000E+00 -0.00000000000E+00 -0.10000000000E+04  0.10000000000E+04  0.00000000000E+00 0.  1.
    9000005    2    1    2  501    0 -0.78071816122E-02 -0.75419623801E-02 -0.87591343262E+03  0.11240864056E+04  0.70451820814E+03 0.  0.
         13    1    3    3    0    0 -0.14585125604E+03 -0.26515233927E+02 -0.94781353931E+03  0.95933630799E+03  0.00000000000E+00 0.  1.
          3    1    3    3  501    0  0.14584344885E+03  0.26507691965E+02  0.71900106697E+02  0.16475009757E+03  0.00000000000E+00 0.  1.
         21    1    1    2  502  501  0.78071816122E-02  0.75419623801E-02  0.36399210606E+00  0.36415393250E+00  0.00000000000E+00 0. -1.
<mgrwt>
<rscale>  1 0.70451821E+03</rscale>
<asrwt>0</asrwt>
<pdfrwt beam="1">  1        1 0.45254844E+00 0.70451821E+03</pdfrwt>
<pdfrwt beam="2">0</pdfrwt>
<totfact> 0.76479273E-01</totfact>
</mgrwt>
</event>
<event>
 6    1  0.1213626E-003  0.6449923E+03  0.7818608E-02  0.9816221E-01
          1   -1    0    0  502    0  0.00000000000E+00  0.00000000000E+00  0.10400381162E+03  0.10400381162E+03  0.00000000000E+00 0.  1.
         13   -1    0    0    0    0 -0.00000000000E+00 -0.00000000000E+00 -0.10000000000E+04  0.10000000000E+04  0.00000000000E+00 0.  1.
    9000005    2    1    2  501    0 -0.19028256816E-04 -0.12505959035E-04 -0.89599622226E+03  0.11040037708E+04  0.64499232216E+03 0.  0.
         13    1    3    3    0    0 -0.24039715645E+03  0.21425446239E+03 -0.41795830109E+03  0.52762193750E+03  0.00000000000E+00 0.  1.
          3    1    3    3  501    0  0.24039713742E+03 -0.21425447489E+03 -0.47803792117E+03  0.57638183330E+03  0.00000000000E+00 0.  1.
         21    1    1    2  502  501  0.19028256837E-04  0.12505959049E-04  0.33880833725E-04  0.40821372636E-04  0.00000000000E+00 0. -1.
<mgrwt>
<rscale>  1 0.64499232E+03</rscale>
<asrwt>0</asrwt>
<pdfrwt beam="1">  1        1 0.37819648E+00 0.64499232E+03</pdfrwt>
<pdfrwt beam="2">0</pdfrwt>
<totfact> 0.16728423E+00</totfact>
</mgrwt>
</event>
<event>
 6    1  0.1213626E-003  0.6707295E+03  0.7818608E-02  0.9768641E-01
          1   -1    0    0  502    0  0.00000000000E+00  0.00000000000E+00  0.11246963703E+03  0.11246963703E+03  0.00000000000E+00 0.  1.
         13   -1    0    0    0    0 -0.00000000000E+00 -0.00000000000E+00 -0.10000000000E+04  0.10000000000E+04  0.00000000000E+00 0.  1.
    9000005    2    1    2  501    0  0.64032187424E-04 -0.17980368085E-04 -0.88753047836E+03  0.11124695038E+04  0.67072948865E+03 0.  0.
         13    1    3    3    0    0 -0.20049976549E+03 -0.24653392667E+03 -0.26597505973E+03  0.41439337031E+03  0.00000000000E+00 0.  1.
          1    1    3    3  501    0  0.20049982952E+03  0.24653390869E+03 -0.62155541863E+03  0.69807613353E+03  0.00000000000E+00 0.  1.
         21    1    1    2  502  501 -0.64032187429E-04  0.17980368094E-04  0.11539085116E-03  0.13318582205E-03  0.00000000000E+00 0. -1.
<mgrwt>
<rscale>  1 0.67072949E+03</rscale>
<asrwt>0</asrwt>
<pdfrwt beam="1">  1        1 0.40898136E+00 0.67072949E+03</pdfrwt>
<pdfrwt beam="2">0</pdfrwt>
<totfact> 0.12149627E+00</totfact>
</mgrwt>
</event>
<event>
 6    1  0.1213626E-003  0.6601028E+03  0.7818608E-02  0.9788005E-01
          1   -1    0    0  502    0  0.00000000000E+00  0.00000000000E+00  0.10956422201E+03  0.10956422201E+03  0.00000000000E+00 0.  1.
         13   -1    0    0    0    0 -0.00000000000E+00 -0.00000000000E+00 -0.10000000000E+04  0.10000000000E+04  0.00000000000E+00 0.  1.
    9000005    2    1    2  501    0  0.43901843208E-02  0.22128914306E-01 -0.89106586132E+03  0.11089337349E+04  0.66010276376E+03 0.  0.
         13    1    3    3    0    0  0.29056558461E+03  0.15514549040E+03 -0.41029816112E+03  0.52615878132E+03  0.00000000000E+00 0.  1.
          1    1    3    3  501    0 -0.29056119442E+03 -0.15512336148E+03 -0.48076770021E+03  0.58277495360E+03  0.00000000000E+00 0.  1.
         21    1    1    2  502  501 -0.43901843208E-02 -0.22128914306E-01  0.63008332802E+00  0.63048708378E+00  0.00000000000E+00 0.  1.
<mgrwt>
<rscale>  1 0.66010276E+03</rscale>
<asrwt>0</asrwt>
<pdfrwt beam="1">  1        1 0.39841619E+00 0.66010276E+03</pdfrwt>
<pdfrwt beam="2">0</pdfrwt>
<totfact> 0.13572019E+00</totfact>
</mgrwt>
</event>
<event>
 6    1  0.1213626E-003  0.5534313E+03  0.7818608E-02  0.1000703E+00
          1   -1    0    0  502    0  0.00000000000E+00  0.00000000000E+00  0.76873282735E+02  0.76873282735E+02  0.00000000000E+00 0.  1.
         13   -1    0    0    0    0 -0.00000000000E+00 -0.00000000000E+00 -0.10000000000E+04  0.10000000000E+04  0.00000000000E+00 0.  1.
    9000005    2    1    2  501    0 -0.91615645551E+00 -0.37805980501E+00 -0.92219053966E+03  0.10755099411E+04  0.55343044705E+03 0.  0.
         13    1    3    3    0    0 -0.28561442538E+02  0.11219456551E+03  0.27317656276E+02  0.11895222097E+03  0.00000000000E+00 0.  1.
          1    1    3    3  501    0  0.27645286083E+02 -0.11257262531E+03 -0.94950819594E+03  0.95655772014E+03  0.00000000000E+00 0.  1.
         21    1    1    2  502  501  0.91615645551E+00  0.37805980501E+00 -0.93617760286E+00  0.13633416194E+01  0.00000000000E+00 0. -1.
<mgrwt>
<rscale>  1 0.55343133E+03</rscale>
<asrwt>0</asrwt>
<pdfrwt beam="1">  1        1 0.27953980E+00 0.55343133E+03</pdfrwt>
<pdfrwt beam="2">0</pdfrwt>
<totfact> 0.45586246E+00</totfact>
</mgrwt>
</event>
<event>
 6    1  0.1213626E-003  0.6584221E+03  0.7818608E-02  0.9791103E-01
          1   -1    0    0  502    0  0.00000000000E+00  0.00000000000E+00  0.10840607730E+03  0.10840607730E+03  0.00000000000E+00 0.  1.
         13   -1    0    0    0    0 -0.00000000000E+00 -0.00000000000E+00 -0.10000000000E+04  0.10000000000E+04  0.00000000000E+00 0.  1.
    9000005    2    1    2  501    0  0.10757964472E-02  0.90469558409E-02 -0.89161919888E+03  0.11083792093E+04  0.65842211056E+03 0.  0.
         13    1    3    3    0    0  0.39672548747E+02  0.32449392892E+03 -0.51128792862E+03  0.60686536149E+03  0.00000000000E+00 0.  1.
          3    1    3    3  501    0 -0.39671472950E+02 -0.32448488196E+03 -0.38033127027E+03  0.50151384779E+03  0.00000000000E+00 0.  1.
         21    1    1    2  502  501 -0.10757964472E-02 -0.90469558409E-02  0.25276187832E-01  0.26868018522E-01  0.00000000000E+00 0.  1.
<mgrwt>
<rscale>  1 0.65842211E+03</rscale>
<asrwt>0</asrwt>
<pdfrwt beam="1">  1        1 0.39420475E+00 0.65842211E+03</pdfrwt>
<pdfrwt beam="2">0</pdfrwt>
<totfact> 0.14174943E+00</totfact>
</mgrwt>
</event>
<event>
 6    1  0.1213626E-003  0.5709179E+03  0.7818608E-02  0.9967649E-01
          1   -1    0    0  502    0  0.00000000000E+00  0.00000000000E+00  0.84280912563E+02  0.84280912563E+02  0.00000000000E+00 0.  1.
         13   -1    0    0    0    0 -0.00000000000E+00 -0.00000000000E+00 -0.10000000000E+04  0.10000000000E+04  0.00000000000E+00 0.  1.
    9000005    2    1    2  501    0 -0.74337850205E-02 -0.42010480696E-01 -0.91851299771E+03  0.10814866766E+04  0.57091794755E+03 0.  0.
         13    1    3    3    0    0  0.18094428135E+03  0.21217301503E+03 -0.57473832623E+03  0.63881324727E+03  0.00000000000E+00 0.  1.
          1    1    3    3  501    0 -0.18095171513E+03 -0.21221502551E+03 -0.34377467148E+03  0.44267342930E+03  0.00000000000E+00 0.  1.
         21    1    1    2  502  501  0.74337850205E-02  0.42010480696E-01  0.27939102714E+01  0.27942359862E+01  0.00000000000E+00 0. -1.
<mgrwt>
<rscale>  1 0.57091795E+03</rscale>
<asrwt>0</asrwt>
<pdfrwt beam="1">  1        1 0.30647669E+00 0.57091795E+03</pdfrwt>
<pdfrwt beam="2">0</pdfrwt>
<totfact> 0.34778297E+00</totfact>
</mgrwt>
</event>
<event>
 6    1  0.1213626E-003  0.6619870E+03  0.7818608E-02  0.9784543E-01
          1   -1    0    0  502    0  0.00000000000E+00  0.00000000000E+00  0.10955721796E+03  0.10955721796E+03  0.00000000000E+00 0.  1.
         13   -1    0    0    0    0 -0.00000000000E+00 -0.00000000000E+00 -0.10000000000E+04  0.10000000000E+04  0.00000000000E+00 0.  1.
    9000005    2    1    2  501    0  0.21906289865E-03 -0.25245423672E-04 -0.89044325968E+03  0.11095566919E+04  0.66198704955E+03 0.  0.
         13    1    3    3    0    0 -0.29166986768E+02  0.29682332807E+03 -0.68579833506E+03  0.74784634624E+03  0.00000000000E+00 0.  1.
          1    1    3    3  501    0  0.29167205831E+02 -0.29682335331E+03 -0.20464492462E+03  0.36171034564E+03  0.00000000000E+00 0.  1.
         21    1    1    2  502  501 -0.21906289865E-03  0.25245423684E-04  0.47763851651E-03  0.52608405928E-03  0.00000000000E+00 0. -1.
<mgrwt>
<rscale>  1 0.66198705E+03</rscale>
<asrwt>0</asrwt>
<pdfrwt beam="1">  1        1 0.39839072E+00 0.66198705E+03</pdfrwt>
<pdfrwt beam="2">0</pdfrwt>
<totfact> 0.13570784E+00</totfact>
</mgrwt>
</event>
<event>
 6    1  0.1213626E-003  0.6523316E+03  0.7818608E-02  0.9802414E-01
          1   -1    0    0  502    0  0.00000000000E+00  0.00000000000E+00  0.10638606208E+03  0.10638606208E+03  0.00000000000E+00 0.  1.
         13   -1    0    0    0    0 -0.00000000000E+00 -0.00000000000E+00 -0.10000000000E+04  0.10000000000E+04  0.00000000000E+00 0.  1.
    9000005    2    1    2  501    0  0.57831915211E-03  0.43254841305E-03 -0.89361581116E+03  0.11063840545E+04  0.65233155526E+03 0.  0.
         13    1    3    3    0    0 -0.30682460048E+03 -0.62157643686E+02 -0.29155674010E+03  0.42779696215E+03  0.00000000000E+00 0.  1.
          1    1    3    3  501    0  0.30682517880E+03  0.62158076234E+02 -0.60205907106E+03  0.67858709230E+03  0.00000000000E+00 0.  1.
         21    1    1    2  502  501 -0.57831915213E-03 -0.43254841305E-03  0.18732382349E-02  0.20076286151E-02  0.00000000000E+00 0.  1.
<mgrwt>
<rscale>  1 0.65233156E+03</rscale>
<asrwt>0</asrwt>
<pdfrwt beam="1">  1        1 0.38685922E+00 0.65233156E+03</pdfrwt>
<pdfrwt beam="2">0</pdfrwt>
<totfact> 0.15296689E+00</totfact>
</mgrwt>
</event>
<event>
 6    1  0.1213626E-003  0.6482227E+03  0.7818608E-02  0.9810120E-01
          1   -1    0    0  502    0  0.00000000000E+00  0.00000000000E+00  0.10581062206E+03  0.10581062206E+03  0.00000000000E+00 0.  1.
         13   -1    0    0    0    0 -0.00000000000E+00 -0.00000000000E+00 -0.10000000000E+04  0.10000000000E+04  0.00000000000E+00 0.  1.
    9000005    2    1    2  501    0 -0.23908000555E+00 -0.44747986485E+00 -0.89485746911E+03  0.11049717280E+04  0.64822247123E+03 0.  0.
         13    1    3    3    0    0  0.17523950646E+03  0.25363380458E+03 -0.27788727847E+03  0.41504256527E+03  0.00000000000E+00 0.  1.
          1    1    3    3  501    0 -0.17547858647E+03 -0.25408128444E+03 -0.61697019064E+03  0.68992916271E+03  0.00000000000E+00 0.  1.
         21    1    1    2  502  501  0.23908000555E+00  0.44747986485E+00  0.66809117310E+00  0.83889408990E+00  0.00000000000E+00 0. -1.
<mgrwt>
<rscale>  1 0.64822267E+03</rscale>
<asrwt>0</asrwt>
<pdfrwt beam="1">  1        1 0.38476671E+00 0.64822267E+03</pdfrwt>
<pdfrwt beam="2">0</pdfrwt>
<totfact> 0.15638200E+00</totfact>
</mgrwt>
</event>
<event>
 6    1  0.1213626E-003  0.6533369E+03  0.7818608E-02  0.9800538E-01
          1   -1    0    0  502    0  0.00000000000E+00  0.00000000000E+00  0.10977936402E+03  0.10977936402E+03  0.00000000000E+00 0.  1.
         13   -1    0    0    0    0 -0.00000000000E+00 -0.00000000000E+00 -0.10000000000E+04  0.10000000000E+04  0.00000000000E+00 0.  1.
    9000005    2    1    2  501    0  0.55902962279E+00 -0.62550807513E+01 -0.86628744367E+03  0.10850359559E+04  0.65330670599E+03 0.  0.
         13    1    3    3    0    0  0.15907754440E+02 -0.11251689745E+03 -0.94506378332E+03  0.95187113803E+03  0.00000000000E+00 0.  1.
          1    1    3    3  501    0 -0.15348724818E+02  0.10626181670E+03  0.78776339655E+02  0.13316481792E+03  0.00000000000E+00 0.  1.
         21    1    1    2  502  501 -0.55902962279E+00  0.62550807513E+01 -0.23933192310E+02  0.24743408081E+02  0.00000000000E+00 0.  1.
<mgrwt>
<rscale>  1 0.65333689E+03</rscale>
<asrwt>0</asrwt>
<pdfrwt beam="1">  1        1 0.39919853E+00 0.65333689E+03</pdfrwt>
<pdfrwt beam="2">0</pdfrwt>
<totfact> 0.13480677E+00</totfact>
</mgrwt>
</event>
<event>
 6    1  0.1213626E-003  0.6525725E+03  0.7818608E-02  0.9801964E-01
          3   -1    0    0  502    0  0.00000000000E+00  0.00000000000E+00  0.10912281561E+03  0.10912281561E+03  0.00000000000E+00 0.  1.
         13   -1    0    0    0    0 -0.00000000000E+00 -0.00000000000E+00 -0.10000000000E+04  0.10000000000E+04  0.00000000000E+00 0.  1.
    9000005    2    1    2  501    0  0.46909340777E+00 -0.24965605216E+00 -0.89350790290E+03  0.11064389645E+04  0.65257223913E+03 0.  0.
         13    1    3    3    0    0  0.23482329830E+02 -0.30610151290E+03 -0.25889315571E+03  0.40159086404E+03  0.00000000000E+00 0.  1.
          3    1    3    3  501    0 -0.23013236422E+02  0.30585185685E+03 -0.63461474720E+03  0.70484810048E+03  0.00000000000E+00 0.  1.
         21    1    1    2  502  501 -0.46909340777E+00  0.24965605216E+00  0.26307185167E+01  0.26838510919E+01  0.00000000000E+00 0. -1.
<mgrwt>
<rscale>  1 0.65257246E+03</rscale>
<asrwt>0</asrwt>
<pdfrwt beam="1">  1        3 0.39681108E+00 0.65257246E+03</pdfrwt>
<pdfrwt beam="2">0</pdfrwt>
<totfact> 0.61536720E-02</totfact>
</mgrwt>
</event>
<event>
 6    1  0.1213626E-003  0.6806277E+03  0.7818608E-02  0.9750947E-01
          1   -1    0    0  502    0  0.00000000000E+00  0.00000000000E+00  0.11581472710E+03  0.11581472710E+03  0.00000000000E+00 0.  1.
         13   -1    0    0    0    0 -0.00000000000E+00 -0.00000000000E+00 -0.10000000000E+04  0.10000000000E+04  0.00000000000E+00 0.  1.
    9000005    2    1    2  501    0 -0.23611922539E-03 -0.42991571615E-03 -0.88418644025E+03  0.11158134609E+04  0.68062766502E+03 0.  0.
         13    1    3    3    0    0 -0.11437641912E+03 -0.31670781249E+03 -0.52287173277E+03  0.62191691782E+03  0.00000000000E+00 0.  1.
          3    1    3    3  501    0  0.11437618300E+03  0.31670738258E+03 -0.36131470748E+03  0.49389654307E+03  0.00000000000E+00 0.  1.
         21    1    1    2  502  501  0.23611922540E-03  0.42991571618E-03  0.11673444292E-02  0.12662041020E-02  0.00000000000E+00 0.  1.
<mgrwt>
<rscale>  1 0.68062767E+03</rscale>
<asrwt>0</asrwt>
<pdfrwt beam="1">  1        1 0.42114535E+00 0.68062767E+03</pdfrwt>
<pdfrwt beam="2">0</pdfrwt>
<totfact> 0.10690709E+00</totfact>
</mgrwt>
</event>
<event>
 6    1  0.1213626E-003  0.6495439E+03  0.7818608E-02  0.9807635E-01
          3   -1    0    0  502    0  0.00000000000E+00  0.00000000000E+00  0.10559657849E+03  0.10559657849E+03  0.00000000000E+00 0.  1.
         13   -1    0    0    0    0 -0.00000000000E+00 -0.00000000000E+00 -0.10000000000E+04  0.10000000000E+04  0.00000000000E+00 0.  1.
    9000005    2    1    2  501    0  0.36315229684E-02 -0.10391085131E-01 -0.89452290777E+03  0.11054765863E+04  0.64954387856E+03 0.  0.
         13    1    3    3    0    0 -0.20970762881E+03 -0.16867094112E+03 -0.13785600270E+03  0.30237634405E+03  0.00000000000E+00 0.  1.
          3    1    3    3  501    0  0.20971126034E+03  0.16866055004E+03 -0.75666690507E+03  0.80310024223E+03  0.00000000000E+00 0.  1.
         21    1    1    2  502  501 -0.36315229684E-02  0.10391085131E-01  0.11948626285E+00  0.11999220650E+00  0.00000000000E+00 0.  1.
<mgrwt>
<rscale>  1 0.64954388E+03</rscale>
<asrwt>0</asrwt>
<pdfrwt beam="1">  1        3 0.38398837E+00 0.64954388E+03</pdfrwt>
<pdfrwt beam="2">0</pdfrwt>
<totfact> 0.71913101E-02</totfact>
</mgrwt>
</event>
<event>
 6    1  0.1213626E-003  0.6643203E+03  0.7818608E-02  0.9780273E-01
          1   -1    0    0  502    0  0.00000000000E+00  0.00000000000E+00  0.11110533867E+03  0.11110533867E+03  0.00000000000E+00 0.  1.
         13   -1    0    0    0    0 -0.00000000000E+00 -0.00000000000E+00 -0.10000000000E+04  0.10000000000E+04  0.00000000000E+00 0.  1.
    9000005    2    1    2  501    0  0.44329964718E-02 -0.29303355247E-01 -0.88966933206E+03  0.11103301012E+04  0.66432026344E+03 0.  0.
         13    1    3    3    0    0  0.60264864367E+02  0.59556442905E+02  0.91964396448E+02  0.12504508780E+03  0.00000000000E+00 0.  1.
          1    1    3    3  501    0 -0.60260431371E+02 -0.59585746261E+02 -0.98163372851E+03  0.98528501343E+03  0.00000000000E+00 0.  1.
         21    1    1    2  502  501 -0.44329964718E-02  0.29303355247E-01  0.77467072889E+00  0.77523743220E+00  0.00000000000E+00 0. -1.
<mgrwt>
<rscale>  1 0.66432026E+03</rscale>
<asrwt>0</asrwt>
<pdfrwt beam="1">  1        1 0.40402027E+00 0.66432026E+03</pdfrwt>
<pdfrwt beam="2">0</pdfrwt>
<totfact> 0.12802482E+00</totfact>
</mgrwt>
</event>
<event>
 6    1  0.1213626E-003  0.6421042E+03  0.7818608E-02  0.9821709E-01
          1   -1    0    0  502    0  0.00000000000E+00  0.00000000000E+00  0.10323934857E+03  0.10323934857E+03  0.00000000000E+00 0.  1.
         13   -1    0    0    0    0 -0.00000000000E+00 -0.00000000000E+00 -0.10000000000E+04  0.10000000000E+04  0.00000000000E+00 0.  1.
    9000005    2    1    2  501    0  0.26118506223E+00  0.46404663667E-02 -0.89680290971E+03  0.11029747263E+04  0.64210413472E+03 0.  0.
         13    1    3    3    0    0  0.14558781688E+03  0.28562723030E+03 -0.47992886123E+03  0.57715720472E+03  0.00000000000E+00 0.  1.
          1    1    3    3  501    0 -0.14532663182E+03 -0.28562258984E+03 -0.41687404848E+03  0.52581752161E+03  0.00000000000E+00 0.  1.
         21    1    1    2  502  501 -0.26118506223E+00 -0.46404663667E-02  0.42258277103E-01  0.26462224518E+00  0.00000000000E+00 0. -1.
<mgrwt>
<rscale>  1 0.64210419E+03</rscale>
<asrwt>0</asrwt>
<pdfrwt beam="1">  1        1 0.37541660E+00 0.64210419E+03</pdfrwt>
<pdfrwt beam="2">0</pdfrwt>
<totfact> 0.17215972E+00</totfact>
</mgrwt>
</event>
<event>
 6    1  0.1213626E-003  0.6539792E+03  0.7818608E-02  0.9799341E-01
          1   -1    0    0  502    0  0.00000000000E+00  0.00000000000E+00  0.10692383500E+03  0.10692383500E+03  0.00000000000E+00 0.  1.
         13   -1    0    0    0    0 -0.00000000000E+00 -0.00000000000E+00 -0.10000000000E+04  0.10000000000E+04  0.00000000000E+00 0.  1.
    9000005    2    1    2  501    0  0.95622657165E-03  0.13922894135E-02 -0.89307731550E+03  0.11069217914E+04  0.65397917452E+03 0.  0.
         13    1    3    3    0    0  0.28234135546E+03  0.58255197983E+02 -0.18535147941E+03  0.34273237374E+03  0.00000000000E+00 0.  1.
          1    1    3    3  501    0 -0.28234039923E+03 -0.58253805693E+02 -0.70772583609E+03  0.76418941761E+03  0.00000000000E+00 0.  1.
         21    1    1    2  502  501 -0.95622657162E-03 -0.13922894135E-02  0.11505033242E-02  0.20436479555E-02  0.00000000000E+00 0.  1.
<mgrwt>
<rscale>  1 0.65397917E+03</rscale>
<asrwt>0</asrwt>
<pdfrwt beam="1">  1        1 0.38881477E+00 0.65397917E+03</pdfrwt>
<pdfrwt beam="2">0</pdfrwt>
<totfact> 0.14990028E+00</totfact>
</mgrwt>
</event>
<event>
 6    1  0.1213626E-003  0.6497909E+03  0.7818608E-02  0.9807172E-01
          1   -1    0    0  502    0  0.00000000000E+00  0.00000000000E+00  0.10561506243E+03  0.10561506243E+03  0.00000000000E+00 0.  1.
         13   -1    0    0    0    0 -0.00000000000E+00 -0.00000000000E+00 -0.10000000000E+04  0.10000000000E+04  0.00000000000E+00 0.  1.
    9000005    2    1    2  501    0 -0.50417432982E-01  0.46916349960E-02 -0.89443046194E+03  0.11055469713E+04  0.64979092947E+03 0.  0.
         13    1    3    3    0    0 -0.32325563639E+02  0.20972830536E+03 -0.28634971528E+02  0.21412815258E+03  0.00000000000E+00 0.  1.
          1    1    3    3  501    0  0.32275146206E+02 -0.20972361373E+03 -0.86579549041E+03  0.89141881875E+03  0.00000000000E+00 0.  1.
         21    1    1    2  502  501  0.50417432982E-01 -0.46916349960E-02  0.45524362442E-01  0.68091090189E-01  0.00000000000E+00 0. -1.
<mgrwt>
<rscale>  1 0.64979093E+03</rscale>
<asrwt>0</asrwt>
<pdfrwt beam="1">  1        1 0.38405558E+00 0.64979093E+03</pdfrwt>
<pdfrwt beam="2">0</pdfrwt>
<totfact> 0.15747273E+00</totfact>
</mgrwt>
</event>
<event>
 6    1  0.1213626E-003  0.6453458E+03  0.7818608E-02  0.9815552E-01
          1   -1    0    0  502    0  0.00000000000E+00  0.00000000000E+00  0.10516538968E+03  0.10516538968E+03  0.00000000000E+00 0.  1.
         13   -1    0    0    0    0 -0.00000000000E+00 -0.00000000000E+00 -0.10000000000E+04  0.10000000000E+04  0.00000000000E+00 0.  1.
    9000005    2    1    2  501    0  0.14425520391E-01  0.13456042810E-01 -0.89588208256E+03  0.11041177317E+04  0.64534584465E+03 0.  0.
         13    1    3    3    0    0  0.13935654948E+02  0.24155810315E+03 -0.81320208314E+03  0.84843511696E+03  0.00000000000E+00 0.  1.
          1    1    3    3  501    0 -0.13921229428E+02 -0.24154464710E+03 -0.82679999419E+02  0.25568261473E+03  0.00000000000E+00 0.  1.
         21    1    1    2  502  501 -0.14425520391E-01 -0.13456042810E-01  0.10474722403E+01  0.10476579857E+01  0.00000000000E+00 0.  1.
<mgrwt>
<rscale>  1 0.64534584E+03</rscale>
<asrwt>0</asrwt>
<pdfrwt beam="1">  1        1 0.38242041E+00 0.64534584E+03</pdfrwt>
<pdfrwt beam="2">0</pdfrwt>
<totfact> 0.16024625E+00</totfact>
</mgrwt>
</event>
<event>
 6    1  0.1213626E-003  0.6380117E+03  0.7818608E-02  0.9829538E-01
          3   -1    0    0  502    0  0.00000000000E+00  0.00000000000E+00  0.10183223621E+03  0.10183223621E+03  0.00000000000E+00 0.  1.
         13   -1    0    0    0    0 -0.00000000000E+00 -0.00000000000E+00 -0.10000000000E+04  0.10000000000E+04  0.00000000000E+00 0.  1.
    9000005    2    1    2  501    0  0.78004798567E-03 -0.64542143369E-03 -0.89823527199E+03  0.11017647204E+04  0.63801167334E+03 0.  0.
         13    1    3    3    0    0 -0.13751235194E+03 -0.24987932238E+03 -0.20237763596E+03  0.34972279054E+03  0.00000000000E+00 0.  1.
          1    1    3    3  501    0  0.13751313199E+03  0.24987867696E+03 -0.69585763603E+03  0.75204192987E+03  0.00000000000E+00 0.  1.
         21    1    1    2  502  501 -0.78004798567E-03  0.64542143371E-03  0.67508202502E-01  0.67515794068E-01  0.00000000000E+00 0. -1.
<mgrwt>
<rscale>  1 0.63801167E+03</rscale>
<asrwt>0</asrwt>
<pdfrwt beam="1">  1        3 0.37029982E+00 0.63801167E+03</pdfrwt>
<pdfrwt beam="2">0</pdfrwt>
<totfact> 0.85112756E-02</totfact>
</mgrwt>
</event>
<event>
 6    1  0.1213626E-003  0.6506779E+03  0.7818608E-02  0.9805508E-01
          1   -1    0    0  502    0  0.00000000000E+00  0.00000000000E+00  0.10584791159E+03  0.10584791159E+03  0.00000000000E+00 0.  1.
         13   -1    0    0    0    0 -0.00000000000E+00 -0.00000000000E+00 -0.10000000000E+04  0.10000000000E+04  0.00000000000E+00 0.  1.
    9000005    2    1    2  501    0  0.15601121058E-03 -0.37426595631E-02 -0.89415291631E+03  0.11058440753E+04  0.65067786275E+03 0.  0.
         13    1    3    3    0    0  0.13136614544E+03 -0.93180458566E+02 -0.92749372794E+03  0.94137361201E+03  0.00000000000E+00 0.  1.
          3    1    3    3  501    0 -0.13136598943E+03  0.93176715907E+02  0.33340811631E+02  0.16447046327E+03  0.00000000000E+00 0.  1.
         21    1    1    2  502  501 -0.15601121058E-03  0.37426595631E-02  0.82789787915E-03  0.38363074696E-02  0.00000000000E+00 0.  1.
<mgrwt>
<rscale>  1 0.65067786E+03</rscale>
<asrwt>0</asrwt>
<pdfrwt beam="1">  1        1 0.38490231E+00 0.65067786E+03</pdfrwt>
<pdfrwt beam="2">0</pdfrwt>
<totfact> 0.15609536E+00</totfact>
</mgrwt>
</event>
<event>
 6    1  0.1213626E-003  0.6200504E+03  0.7818608E-02  0.9864659E-01
          1   -1    0    0  502    0  0.00000000000E+00  0.00000000000E+00  0.96842213023E+02  0.96842213023E+02  0.00000000000E+00 0.  1.
         13   -1    0    0    0    0 -0.00000000000E+00 -0.00000000000E+00 -0.10000000000E+04  0.10000000000E+04  0.00000000000E+00 0.  1.
    9000005    2    1    2  501    0  0.47530911741E-03  0.67233111753E-01 -0.90388267301E+03  0.10961142156E+04  0.62005038706E+03 0.  0.
         13    1    3    3    0    0  0.17211414058E+02 -0.15182717352E+03  0.24917835585E+02  0.15481802842E+03  0.00000000000E+00 0.  1.
          3    1    3    3  501    0 -0.17210938748E+02  0.15189440663E+03 -0.92880050860E+03  0.94129618716E+03  0.00000000000E+00 0.  1.
         21    1    1    2  502  501 -0.47530911740E-03 -0.67233111753E-01  0.72488603781E+00  0.72799744852E+00  0.00000000000E+00 0. -1.
<mgrwt>
<rscale>  1 0.62005039E+03</rscale>
<asrwt>0</asrwt>
<pdfrwt beam="1">  1        1 0.35215424E+00 0.62005039E+03</pdfrwt>
<pdfrwt beam="2">0</pdfrwt>
<totfact> 0.21855898E+00</totfact>
</mgrwt>
</event>
<event>
 6    1  0.1213626E-003  0.6479752E+03  0.7818608E-02  0.9810586E-01
          1   -1    0    0  502    0  0.00000000000E+00  0.00000000000E+00  0.10496936442E+03  0.10496936442E+03  0.00000000000E+00 0.  1.
         13   -1    0    0    0    0 -0.00000000000E+00 -0.00000000000E+00 -0.10000000000E+04  0.10000000000E+04  0.00000000000E+00 0.  1.
    9000005    2    1    2  501    0  0.15362502177E-03 -0.10910660859E-03 -0.89503202615E+03  0.11049679611E+04  0.64797520579E+03 0.  0.
         13    1    3    3    0    0 -0.28034948469E+03  0.21297233479E+02 -0.17298177527E+03  0.33010922479E+03  0.00000000000E+00 0.  1.
          3    1    3    3  501    0  0.28034963831E+03 -0.21297342585E+02 -0.72205025088E+03  0.77485873635E+03  0.00000000000E+00 0.  1.
         21    1    1    2  502  501 -0.15362502182E-03  0.10910660859E-03  0.13905705609E-02  0.14032787978E-02  0.00000000000E+00 0.  1.
<mgrwt>
<rscale>  1 0.64797521E+03</rscale>
<asrwt>0</asrwt>
<pdfrwt beam="1">  1        1 0.38170758E+00 0.64797521E+03</pdfrwt>
<pdfrwt beam="2">0</pdfrwt>
<totfact> 0.16133380E+00</totfact>
</mgrwt>
</event>
<event>
 6    1  0.1213626E-003  0.6564164E+03  0.7818608E-02  0.9794813E-01
          1   -1    0    0  502    0  0.00000000000E+00  0.00000000000E+00  0.10783035151E+03  0.10783035151E+03  0.00000000000E+00 0.  1.
         13   -1    0    0    0    0 -0.00000000000E+00 -0.00000000000E+00 -0.10000000000E+04  0.10000000000E+04  0.00000000000E+00 0.  1.
    9000005    2    1    2  501    0  0.76426566415E-03 -0.16076341198E-02 -0.89227936164E+03  0.11077206239E+04  0.65641642380E+03 0.  0.
         13    1    3    3    0    0 -0.30022709986E+03  0.10810636200E+03 -0.31655114234E+03  0.44947516363E+03  0.00000000000E+00 0.  1.
          1    1    3    3  501    0  0.30022786413E+03 -0.10810796963E+03 -0.57572821930E+03  0.65824546029E+03  0.00000000000E+00 0.  1.
         21    1    1    2  502  501 -0.76426566420E-03  0.16076341198E-02  0.10971315682E+00  0.10972759621E+00  0.00000000000E+00 0.  1.
<mgrwt>
<rscale>  1 0.65641642E+03</rscale>
<asrwt>0</asrwt>
<pdfrwt beam="1">  1        1 0.39211120E+00 0.65641642E+03</pdfrwt>
<pdfrwt beam="2">0</pdfrwt>
<totfact> 0.14487169E+00</totfact>
</mgrwt>
</event>
<event>
 6    1  0.1213626E-003  0.6698375E+03  0.7818608E-02  0.9770251E-01
          3   -1    0    0  502    0  0.00000000000E+00  0.00000000000E+00  0.12906448516E+03  0.12906448516E+03  0.00000000000E+00 0.  1.
         13   -1    0    0    0    0 -0.00000000000E+00 -0.00000000000E+00 -0.10000000000E+04  0.10000000000E+04  0.00000000000E+00 0.  1.
    9000005    2    1    2  501    0 -0.44027982586E+01  0.11047696201E+01 -0.88748960351E+03  0.11118993169E+04  0.66982213276E+03 0.  0.
         13    1    3    3    0    0  0.12607900088E+03 -0.47536312420E+02  0.64777048167E+02  0.14950478732E+03  0.00000000000E+00 0.  1.
          3    1    3    3  501    0 -0.13048179914E+03  0.48641082040E+02 -0.95226665167E+03  0.96239452963E+03  0.00000000000E+00 0.  1.
         21    1    1    2  502  501  0.44027982586E+01 -0.11047696201E+01  0.16554088667E+02  0.17165168220E+02  0.00000000000E+00 0.  1.
<mgrwt>
<rscale>  1 0.66983751E+03</rscale>
<asrwt>0</asrwt>
<pdfrwt beam="1">  1        3 0.46932639E+00 0.66983751E+03</pdfrwt>
<pdfrwt beam="2">0</pdfrwt>
<totfact> 0.26038475E-02</totfact>
</mgrwt>
</event>
<event>
 6    1  0.1213626E-003  0.5126923E+03  0.7818608E-02  0.1010518E+00
          1   -1    0    0  502    0  0.00000000000E+00  0.00000000000E+00  0.72902519189E+02  0.72902519189E+02  0.00000000000E+00 0.  1.
         13   -1    0    0    0    0 -0.00000000000E+00 -0.00000000000E+00 -0.10000000000E+04  0.10000000000E+04  0.00000000000E+00 0.  1.
    9000005    2    1    2  501    0 -0.79784710035E+01 -0.10213152064E+02 -0.92768340562E+03  0.10599291703E+04  0.51252841914E+03 0.  0.
         13    1    3    3    0    0  0.10118787847E+03 -0.66597742736E+02  0.29959739451E+01  0.12117434525E+03  0.00000000000E+00 0.  1.
          3    1    3    3  501    0 -0.10916634948E+03  0.56384590671E+02 -0.93067937957E+03  0.93875482501E+03  0.00000000000E+00 0.  1.
         21    1    1    2  502  501  0.79784710035E+01  0.10213152064E+02  0.58592480961E+00  0.12973348933E+02  0.00000000000E+00 0. -1.
<mgrwt>
<rscale>  1 0.51269225E+03</rscale>
<asrwt>0</asrwt>
<pdfrwt beam="1">  1        1 0.26510063E+00 0.51269225E+03</pdfrwt>
<pdfrwt beam="2">0</pdfrwt>
<totfact> 0.53001678E+00</totfact>
</mgrwt>
</event>
<event>
 6    1  0.1213626E-003  0.6463709E+03  0.7818608E-02  0.9813613E-01
          1   -1    0    0  502    0  0.00000000000E+00  0.00000000000E+00  0.10444885253E+03  0.10444885253E+03  0.00000000000E+00 0.  1.
         13   -1    0    0    0    0 -0.00000000000E+00 -0.00000000000E+00 -0.10000000000E+04  0.10000000000E+04  0.00000000000E+00 0.  1.
    9000005    2    1    2  501    0  0.42263419289E-05 -0.25821091526E-04 -0.89555115055E+03  0.11044488262E+04  0.64637090467E+03 0.  0.
         13    1    3    3    0    0  0.12968389160E+03 -0.74853234360E+02  0.41602654219E+02  0.15540816991E+03  0.00000000000E+00 0.  1.
          1    1    3    3  501    0 -0.12968388738E+03  0.74853208539E+02 -0.93715380477E+03  0.94904065628E+03  0.00000000000E+00 0.  1.
         21    1    1    2  502  501 -0.42263419345E-05  0.25821091527E-04  0.30876304022E-05  0.26346236833E-04  0.00000000000E+00 0.  1.
<mgrwt>
<rscale>  1 0.64637090E+03</rscale>
<asrwt>0</asrwt>
<pdfrwt beam="1">  1        1 0.37981481E+00 0.64637090E+03</pdfrwt>
<pdfrwt beam="2">0</pdfrwt>
<totfact> 0.16451595E+00</totfact>
</mgrwt>
</event>
<event>
 6    1  0.1213626E-003  0.6585913E+03  0.7818608E-02  0.9790790E-01
          1   -1    0    0  502    0  0.00000000000E+00  0.00000000000E+00  0.10910054481E+03  0.10910054481E+03  0.00000000000E+00 0.  1.
         13   -1    0    0    0    0 -0.00000000000E+00 -0.00000000000E+00 -0.10000000000E+04  0.10000000000E+04  0.00000000000E+00 0.  1.
    9000005    2    1    2  501    0 -0.82103553138E-02 -0.10633254566E-01 -0.89156430887E+03  0.11084355554E+04  0.65859127196E+03 0.  0.
         13    1    3    3    0    0 -0.54600172032E+02 -0.79448240976E+02  0.84155618268E+02  0.12796628410E+03  0.00000000000E+00 0.  1.
          3    1    3    3  501    0  0.54591961676E+02  0.79437607721E+02 -0.97571992713E+03  0.98046927132E+03  0.00000000000E+00 0.  1.
         21    1    1    2  502  501  0.82103553138E-02  0.10633254566E-01  0.66485367145E+00  0.66498938373E+00  0.00000000000E+00 0.  1.
<mgrwt>
<rscale>  1 0.65859127E+03</rscale>
<asrwt>0</asrwt>
<pdfrwt beam="1">  1        1 0.39673009E+00 0.65859127E+03</pdfrwt>
<pdfrwt beam="2">0</pdfrwt>
<totfact> 0.13812597E+00</totfact>
</mgrwt>
</event>
<event>
 6    1  0.1213626E-003  0.6397378E+03  0.7818608E-02  0.9826228E-01
          1   -1    0    0  502    0  0.00000000000E+00  0.00000000000E+00  0.10241977508E+03  0.10241977508E+03  0.00000000000E+00 0.  1.
         13   -1    0    0    0    0 -0.00000000000E+00 -0.00000000000E+00 -0.10000000000E+04  0.10000000000E+04  0.00000000000E+00 0.  1.
    9000005    2    1    2  501    0 -0.28165538811E-01  0.28464468725E+00 -0.89738794022E+03  0.11020751168E+04  0.63973773228E+03 0.  0.
         13    1    3    3    0    0  0.24894757243E+03 -0.69446400954E+02 -0.77317794661E+03  0.81523115345E+03  0.00000000000E+00 0.  1.
          1    1    3    3  501    0 -0.24897573797E+03  0.69731045641E+02 -0.12420999361E+03  0.28684396340E+03  0.00000000000E+00 0.  1.
         21    1    1    2  502  501  0.28165538811E-01 -0.28464468725E+00 -0.19228470220E+00  0.34465823979E+00  0.00000000000E+00 0. -1.
<mgrwt>
<rscale>  1 0.63973780E+03</rscale>
<asrwt>0</asrwt>
<pdfrwt beam="1">  1        1 0.37243633E+00 0.63973780E+03</pdfrwt>
<pdfrwt beam="2">0</pdfrwt>
<totfact> 0.17751353E+00</totfact>
</mgrwt>
</event>
<event>
 6    1  0.1213626E-003  0.6742069E+03  0.7818608E-02  0.9762388E-01
          1   -1    0    0  502    0  0.00000000000E+00  0.00000000000E+00  0.11366595042E+03  0.11366595042E+03  0.00000000000E+00 0.  1.
         13   -1    0    0    0    0 -0.00000000000E+00 -0.00000000000E+00 -0.10000000000E+04  0.10000000000E+04  0.00000000000E+00 0.  1.
    9000005    2    1    2  501    0  0.24706107170E-02 -0.20106378305E-02 -0.88636117331E+03  0.11136386403E+04  0.67420686113E+03 0.  0.
         13    1    3    3    0    0  0.25402155541E+03 -0.21282152173E+03 -0.54527024822E+03  0.63807491278E+03  0.00000000000E+00 0.  1.
          1    1    3    3  501    0 -0.25401908480E+03  0.21281951109E+03 -0.34109092508E+03  0.47556372751E+03  0.00000000000E+00 0.  1.
         21    1    1    2  502  501 -0.24706107170E-02  0.20106378305E-02  0.27123727938E-01  0.27310129972E-01  0.00000000000E+00 0.  1.
<mgrwt>
<rscale>  1 0.67420686E+03</rscale>
<asrwt>0</asrwt>
<pdfrwt beam="1">  1        1 0.41333160E+00 0.67420686E+03</pdfrwt>
<pdfrwt beam="2">0</pdfrwt>
<totfact> 0.11607772E+00</totfact>
</mgrwt>
</event>
<event>
 6    1  0.1213626E-003  0.6150014E+03  0.7818608E-02  0.9874763E-01
          1   -1    0    0  502    0  0.00000000000E+00  0.00000000000E+00  0.94594926116E+02  0.94594926116E+02  0.00000000000E+00 0.  1.
         13   -1    0    0    0    0 -0.00000000000E+00 -0.00000000000E+00 -0.10000000000E+04  0.10000000000E+04  0.00000000000E+00 0.  1.
    9000005    2    1    2  501    0 -0.40012637101E-03 -0.34729437427E-03 -0.90544332265E+03  0.10945566737E+04  0.61500138322E+03 0.  0.
         13    1    3    3    0    0  0.23162575652E+03  0.49249250927E+02 -0.10359475120E+03  0.25847214990E+03  0.00000000000E+00 0.  1.
          1    1    3    3  501    0 -0.23162615664E+03 -0.49249598222E+02 -0.80184857145E+03  0.83608452378E+03  0.00000000000E+00 0.  1.
         21    1    1    2  502  501  0.40012637100E-03  0.34729437427E-03  0.38248765892E-01  0.38252435305E-01  0.00000000000E+00 0.  1.
<mgrwt>
<rscale>  1 0.61500138E+03</rscale>
<asrwt>0</asrwt>
<pdfrwt beam="1">  1        1 0.34398227E+00 0.61500138E+03</pdfrwt>
<pdfrwt beam="2">0</pdfrwt>
<totfact> 0.23743468E+00</totfact>
</mgrwt>
</event>
<event>
 6    1  0.1213626E-003  0.6433752E+03  0.7818608E-02  0.9819290E-01
          1   -1    0    0  502    0  0.00000000000E+00  0.00000000000E+00  0.10930252341E+03  0.10930252341E+03  0.00000000000E+00 0.  1.
         13   -1    0    0    0    0 -0.00000000000E+00 -0.00000000000E+00 -0.10000000000E+04  0.10000000000E+04  0.00000000000E+00 0.  1.
    9000005    2    1    2  501    0 -0.15910472557E+00  0.11080594458E+02 -0.89000551941E+03  0.10981992044E+04  0.64327977049E+03 0.  0.
         13    1    3    3    0    0  0.18965098902E+03 -0.12594235856E+03 -0.82414408580E+03  0.85501020431E+03  0.00000000000E+00 0.  1.
          1    1    3    3  501    0 -0.18981009374E+03  0.13702295301E+03 -0.65861433614E+02  0.24318900011E+03  0.00000000000E+00 0.  1.
         21    1    1    2  502  501  0.15910472557E+00 -0.11080594458E+02 -0.69195717788E+00  0.11103318990E+02  0.00000000000E+00 0.  1.
<mgrwt>
<rscale>  1 0.64337522E+03</rscale>
<asrwt>0</asrwt>
<pdfrwt beam="1">  1        1 0.39746456E+00 0.64337522E+03</pdfrwt>
<pdfrwt beam="2">0</pdfrwt>
<totfact> 0.13748507E+00</totfact>
</mgrwt>
</event>
<event>
 6    1  0.1213626E-003  0.6521688E+03  0.7818608E-02  0.9802718E-01
          1   -1    0    0  502    0  0.00000000000E+00  0.00000000000E+00  0.10753726736E+03  0.10753726736E+03  0.00000000000E+00 0.  1.
         13   -1    0    0    0    0 -0.00000000000E+00 -0.00000000000E+00 -0.10000000000E+04  0.10000000000E+04  0.00000000000E+00 0.  1.
    9000005    2    1    2  501    0 -0.10393754449E+00  0.80105801499E-01 -0.89366502796E+03  0.11063278320E+04  0.65216874529E+03 0.  0.
         13    1    3    3    0    0 -0.78660336454E+01 -0.11088595965E+02  0.10585038045E+03  0.10671988797E+03  0.00000000000E+00 0.  1.
          1    1    3    3  501    0  0.77620961010E+01  0.11168701766E+02 -0.99951540841E+03  0.99960794399E+03  0.00000000000E+00 0.  1.
         21    1    1    2  502  501  0.10393754449E+00 -0.80105801500E-01  0.12022953236E+01  0.12094354046E+01  0.00000000000E+00 0.  1.
<mgrwt>
<rscale>  1 0.65216876E+03</rscale>
<asrwt>0</asrwt>
<pdfrwt beam="1">  1        1 0.39104543E+00 0.65216876E+03</pdfrwt>
<pdfrwt beam="2">0</pdfrwt>
<totfact> 0.14657401E+00</totfact>
</mgrwt>
</event>
<event>
 6    1  0.1213626E-003  0.6559471E+03  0.7818608E-02  0.9795683E-01
          1   -1    0    0  502    0  0.00000000000E+00  0.00000000000E+00  0.10756912419E+03  0.10756912419E+03  0.00000000000E+00 0.  1.
         13   -1    0    0    0    0 -0.00000000000E+00 -0.00000000000E+00 -0.10000000000E+04  0.10000000000E+04  0.00000000000E+00 0.  1.
    9000005    2    1    2  501    0 -0.36726895542E-02  0.55805106052E-03 -0.89243169375E+03  0.11075653204E+04  0.65594710979E+03 0.  0.
         13    1    3    3    0    0 -0.20143797484E+03  0.18493150251E+03 -0.75197364461E+03  0.80015078611E+03  0.00000000000E+00 0.  1.
          1    1    3    3  501    0  0.20143430215E+03 -0.18493094445E+03 -0.14045804914E+03  0.30741453425E+03  0.00000000000E+00 0.  1.
         21    1    1    2  502  501  0.36726895542E-02 -0.55805106053E-03  0.81794307017E-03  0.38038270747E-02  0.00000000000E+00 0. -1.
<mgrwt>
<rscale>  1 0.65594711E+03</rscale>
<asrwt>0</asrwt>
<pdfrwt beam="1">  1        1 0.39116128E+00 0.65594711E+03</pdfrwt>
<pdfrwt beam="2">0</pdfrwt>
<totfact> 0.14629778E+00</totfact>
</mgrwt>
</event>
<event>
 6    1  0.1213626E-003  0.6448794E+03  0.7818608E-02  0.9816435E-01
          1   -1    0    0  502    0  0.00000000000E+00  0.00000000000E+00  0.10663494351E+03  0.10663494351E+03  0.00000000000E+00 0.  1.
         13   -1    0    0    0    0 -0.00000000000E+00 -0.00000000000E+00 -0.10000000000E+04  0.10000000000E+04  0.00000000000E+00 0.  1.
    9000005    2    1    2  501    0 -0.14562524446E-01  0.68467247794E-01 -0.89603212402E+03  0.11039669576E+04  0.64487942376E+03 0.  0.
         13    1    3    3    0    0  0.10630708335E+03 -0.28552317900E+03 -0.62850541788E+03  0.69845811759E+03  0.00000000000E+00 0.  1.
          3    1    3    3  501    0 -0.10632164588E+03  0.28559164625E+03 -0.26752670614E+03  0.40550883996E+03  0.00000000000E+00 0.  1.
         21    1    1    2  502  501  0.14562524446E-01 -0.68467247794E-01  0.26670675283E+01  0.26679859504E+01  0.00000000000E+00 0. -1.
<mgrwt>
<rscale>  1 0.64487943E+03</rscale>
<asrwt>0</asrwt>
<pdfrwt beam="1">  1        1 0.38776425E+00 0.64487943E+03</pdfrwt>
<pdfrwt beam="2">0</pdfrwt>
<totfact> 0.15177210E+00</totfact>
</mgrwt>
</event>
<event>
 6    1  0.1213626E-003  0.5114820E+03  0.7818608E-02  0.1010825E+00
          1   -1    0    0  502    0  0.00000000000E+00  0.00000000000E+00  0.68423339391E+02  0.68423339391E+02  0.00000000000E+00 0.  1.
         13   -1    0    0    0    0 -0.00000000000E+00 -0.00000000000E+00 -0.10000000000E+04  0.10000000000E+04  0.00000000000E+00 0.  1.
    9000005    2    1    2  501    0 -0.18989863796E+00 -0.51461108764E-01 -0.93459312526E+03  0.10654004651E+04  0.51148196708E+03 0.  0.
         13    1    3    3    0    0  0.37090712854E+00  0.24441199035E+03 -0.31063437458E+03  0.39526076617E+03  0.00000000000E+00 0.  1.
          1    1    3    3  501    0 -0.56080576650E+00 -0.24446345146E+03 -0.62395875068E+03  0.67013969898E+03  0.00000000000E+00 0.  1.
         21    1    1    2  502  501  0.18989863796E+00  0.51461108764E-01  0.30164646478E+01  0.30228742464E+01  0.00000000000E+00 0. -1.
<mgrwt>
<rscale>  1 0.51148200E+03</rscale>
<asrwt>0</asrwt>
<pdfrwt beam="1">  1        1 0.24881267E+00 0.51148200E+03</pdfrwt>
<pdfrwt beam="2">0</pdfrwt>
<totfact> 0.62376449E+00</totfact>
</mgrwt>
</event>
<event>
 6    1  0.1213626E-003  0.6404078E+03  0.7818608E-02  0.9824947E-01
          1   -1    0    0  502    0  0.00000000000E+00  0.00000000000E+00  0.10938378602E+03  0.10938378602E+03  0.00000000000E+00 0.  1.
         13   -1    0    0    0    0 -0.00000000000E+00 -0.00000000000E+00 -0.10000000000E+04  0.10000000000E+04  0.00000000000E+00 0.  1.
    9000005    2    1    2  501    0  0.34271562118E-01 -0.37239932876E+01 -0.89690731778E+03  0.11020730208E+04  0.64039701535E+03 0.  0.
         13    1    3    3    0    0 -0.25688830984E+01 -0.14442094372E+03 -0.94299776641E+03  0.95399622410E+03  0.00000000000E+00 0.  1.
          3    1    3    3  501    0  0.26031546605E+01  0.14069695044E+03  0.46090448628E+02  0.14807679673E+03  0.00000000000E+00 0.  1.
         21    1    1    2  502  501 -0.34271562118E-01  0.37239932876E+01  0.62911038029E+01  0.73107651860E+01  0.00000000000E+00 0. -1.
<mgrwt>
<rscale>  1 0.64040784E+03</rscale>
<asrwt>0</asrwt>
<pdfrwt beam="1">  1        1 0.39776006E+00 0.64040784E+03</pdfrwt>
<pdfrwt beam="2">0</pdfrwt>
<totfact> 0.13714732E+00</totfact>
</mgrwt>
</event>
<event>
 6    1  0.1213626E-003  0.6306354E+03  0.7818608E-02  0.9843810E-01
          1   -1    0    0  502    0  0.00000000000E+00  0.00000000000E+00  0.10096645145E+03  0.10096645145E+03  0.00000000000E+00 0.  1.
         13   -1    0    0    0    0 -0.00000000000E+00 -0.00000000000E+00 -0.10000000000E+04  0.10000000000E+04  0.00000000000E+00 0.  1.
    9000005    2    1    2  501    0 -0.73156428078E+00  0.38341895623E+00 -0.90045221046E+03  0.10993248675E+04  0.63063483783E+03 0.  0.
         13    1    3    3    0    0  0.19249252804E+03 -0.24011932227E+03 -0.33300122448E+03  0.45343188880E+03  0.00000000000E+00 0.  1.
          3    1    3    3  501    0 -0.19322409232E+03  0.24050274122E+03 -0.56745098598E+03  0.64589297865E+03  0.00000000000E+00 0.  1.
         21    1    1    2  502  501  0.73156428078E+00 -0.38341895623E+00  0.14186619089E+01  0.16415839926E+01  0.00000000000E+00 0. -1.
<mgrwt>
<rscale>  1 0.63063538E+03</rscale>
<asrwt>0</asrwt>
<pdfrwt beam="1">  1        1 0.36715151E+00 0.63063538E+03</pdfrwt>
<pdfrwt beam="2">0</pdfrwt>
<totfact> 0.18756844E+00</totfact>
</mgrwt>
</event>
<event>
 6    1  0.1213626E-003  0.5799789E+03  0.7818608E-02  0.9947837E-01
          1   -1    0    0  502    0  0.00000000000E+00  0.00000000000E+00  0.84655143512E+02  0.84655143512E+02  0.00000000000E+00 0.  1.
         13   -1    0    0    0    0 -0.00000000000E+00 -0.00000000000E+00 -0.10000000000E+04  0.10000000000E+04  0.00000000000E+00 0.  1.
    9000005    2    1    2  501    0  0.12723609726E+01 -0.13497802823E+01 -0.91331277791E+03  0.10819037525E+04  0.57997591203E+03 0.  0.
         13    1    3    3    0    0 -0.46512246460E+02 -0.26807099091E+03 -0.64743173894E+03  0.70227722576E+03  0.00000000000E+00 0.  1.
          3    1    3    3  501    0  0.47784607433E+02  0.26672121063E+03 -0.26588103897E+03  0.37962652672E+03  0.00000000000E+00 0.  1.
         21    1    1    2  502  501 -0.12723609726E+01  0.13497802823E+01 -0.20320785802E+01  0.27513910320E+01  0.00000000000E+00 0.  1.
<mgrwt>
<rscale>  1 0.57997888E+03</rscale>
<asrwt>0</asrwt>
<pdfrwt beam="1">  1        1 0.30783753E+00 0.57997888E+03</pdfrwt>
<pdfrwt beam="2">0</pdfrwt>
<totfact> 0.34255637E+00</totfact>
</mgrwt>
</event>
<event>
 6    1  0.1213626E-003  0.5477714E+03  0.7818608E-02  0.1002011E+00
          1   -1    0    0  502    0  0.00000000000E+00  0.00000000000E+00  0.78234749084E+02  0.78234749084E+02  0.00000000000E+00 0.  1.
         13   -1    0    0    0    0 -0.00000000000E+00 -0.00000000000E+00 -0.10000000000E+04  0.10000000000E+04  0.00000000000E+00 0.  1.
    9000005    2    1    2  501    0 -0.52626319653E-01  0.52245724442E-01 -0.92498615382E+03  0.10750129926E+04  0.54777143416E+03 0.  0.
         13    1    3    3    0    0  0.55040408587E+02  0.17421841609E+03 -0.86297272553E+03  0.88210171074E+03  0.00000000000E+00 0.  1.
          3    1    3    3  501    0 -0.55093034907E+02 -0.17416617036E+03 -0.62013428286E+02  0.19291128189E+03  0.00000000000E+00 0.  1.
         21    1    1    2  502  501  0.52626319653E-01 -0.52245724442E-01  0.32209028988E+01  0.32217564508E+01  0.00000000000E+00 0. -1.
<mgrwt>
<rscale>  1 0.54777144E+03</rscale>
<asrwt>0</asrwt>
<pdfrwt beam="1">  1        1 0.28449060E+00 0.54777144E+03</pdfrwt>
<pdfrwt beam="2">0</pdfrwt>
<totfact> 0.43440836E+00</totfact>
</mgrwt>
</event>
<event>
 6    1  0.1213626E-003  0.6448966E+03  0.7818608E-02  0.9816403E-01
          1   -1    0    0  502    0  0.00000000000E+00  0.00000000000E+00  0.10397337830E+03  0.10397337830E+03  0.00000000000E+00 0.  1.
         13   -1    0    0    0    0 -0.00000000000E+00 -0.00000000000E+00 -0.10000000000E+04  0.10000000000E+04  0.00000000000E+00 0.  1.
    9000005    2    1    2  501    0 -0.61833520476E-04  0.18088443983E-03 -0.89602708811E+03  0.11039728742E+04  0.64489655328E+03 0.  0.
         13    1    3    3    0    0 -0.16904087780E+03 -0.26140172281E+03 -0.59192356513E+03  0.66878934352E+03  0.00000000000E+00 0.  1.
          3    1    3    3  501    0  0.16904081597E+03  0.26140190369E+03 -0.30410352298E+03  0.43518353072E+03  0.00000000000E+00 0.  1.
         21    1    1    2  502  501  0.61833520465E-04 -0.18088443982E-03  0.46640596348E-03  0.50406059913E-03  0.00000000000E+00 0. -1.
<mgrwt>
<rscale>  1 0.64489655E+03</rscale>
<asrwt>0</asrwt>
<pdfrwt beam="1">  1        1 0.37808581E+00 0.64489655E+03</pdfrwt>
<pdfrwt beam="2">0</pdfrwt>
<totfact> 0.16747520E+00</totfact>
</mgrwt>
</event>
<event>
 6    1  0.1213626E-003  0.6440448E+03  0.7818608E-02  0.9818018E-01
          1   -1    0    0  502    0  0.00000000000E+00  0.00000000000E+00  0.10369909534E+03  0.10369909534E+03  0.00000000000E+00 0.  1.
         13   -1    0    0    0    0 -0.00000000000E+00 -0.00000000000E+00 -0.10000000000E+04  0.10000000000E+04  0.00000000000E+00 0.  1.
    9000005    2    1    2  501    0  0.55450953624E-04 -0.84282384762E-04 -0.89630155936E+03  0.11036984329E+04  0.64404483190E+03 0.  0.
         13    1    3    3    0    0 -0.19020865678E+03  0.14522250182E+03 -0.81740995652E+03  0.85172057928E+03  0.00000000000E+00 0.  1.
          3    1    3    3  501    0  0.19020871223E+03 -0.14522258610E+03 -0.78891602843E+02  0.25197785363E+03  0.00000000000E+00 0.  1.
         21    1    1    2  502  501 -0.55450953618E-04  0.84282384757E-04  0.65470452979E-03  0.66243214744E-03  0.00000000000E+00 0.  1.
<mgrwt>
<rscale>  1 0.64404483E+03</rscale>
<asrwt>0</asrwt>
<pdfrwt beam="1">  1        1 0.37708841E+00 0.64404483E+03</pdfrwt>
<pdfrwt beam="2">0</pdfrwt>
<totfact> 0.16920530E+00</totfact>
</mgrwt>
</event>
<event>
 6    1  0.1318064E-003  0.6434828E+03  0.7818608E-02  0.9819086E-01
          1   -1    0    0  502    0  0.00000000000E+00  0.00000000000E+00  0.10351752637E+03  0.10351752637E+03  0.00000000000E+00 0.  1.
         13   -1    0    0    0    0 -0.00000000000E+00 -0.00000000000E+00 -0.10000000000E+04  0.10000000000E+04  0.00000000000E+00 0.  1.
    9000005    2    1    2  501    0  0.12576833512E-05 -0.13343888696E-04 -0.89648246861E+03  0.11035175121E+04  0.64348277592E+03 0.  0.
         13    1    3    3    0    0 -0.10519227334E+03 -0.15347131732E+03  0.18988584960E+01  0.18607112961E+03  0.00000000000E+00 0.  1.
          1    1    3    3  501    0  0.10519227460E+03  0.15347130398E+03 -0.89838132711E+03  0.91744638245E+03  0.00000000000E+00 0.  1.
         21    1    1    2  502  501 -0.12576833468E-05  0.13343888674E-04 -0.50120864328E-05  0.14309512317E-04  0.00000000000E+00 0. -1.
<mgrwt>
<rscale>  1 0.64348278E+03</rscale>
<asrwt>0</asrwt>
<pdfrwt beam="1">  1        1 0.37642816E+00 0.64348278E+03</pdfrwt>
<pdfrwt beam="2">0</pdfrwt>
<totfact> 0.17035990E+00</totfact>
</mgrwt>
</event>
<event>
 6    1  0.1213626E-003  0.7387689E+03  0.7818608E-02  0.9653137E-01
          1   -1    0    0  502    0  0.00000000000E+00  0.00000000000E+00  0.13644668605E+03  0.13644668605E+03  0.00000000000E+00 0.  1.
         13   -1    0    0    0    0 -0.00000000000E+00 -0.00000000000E+00 -0.10000000000E+04  0.10000000000E+04  0.00000000000E+00 0.  1.
    9000005    2    1    2  501    0  0.42934983852E-03 -0.10342421824E-02 -0.86355493739E+03  0.11364447139E+04  0.73876887979E+03 0.  0.
         13    1    3    3    0    0  0.11818699070E+02 -0.35510737222E+03 -0.58717108519E+03  0.68630227359E+03  0.00000000000E+00 0.  1.
          3    1    3    3  501    0 -0.11818269720E+02  0.35510633797E+03 -0.27638385220E+03  0.45014244026E+03  0.00000000000E+00 0.  1.
         21    1    1    2  502  501 -0.42934983852E-03  0.10342421824E-02  0.16234434971E-02  0.19721985103E-02  0.00000000000E+00 0. -1.
<mgrwt>
<rscale>  1 0.73876888E+03</rscale>
<asrwt>0</asrwt>
<pdfrwt beam="1">  1        1 0.49617081E+00 0.73876888E+03</pdfrwt>
<pdfrwt beam="2">0</pdfrwt>
<totfact> 0.47338760E-01</totfact>
</mgrwt>
</event>
<event>
 6    1  0.1213626E-003  0.6398602E+03  0.7818608E-02  0.9825994E-01
          1   -1    0    0  502    0  0.00000000000E+00  0.00000000000E+00  0.11071471302E+03  0.11071471302E+03  0.00000000000E+00 0.  1.
         13   -1    0    0    0    0 -0.00000000000E+00 -0.00000000000E+00 -0.10000000000E+04  0.10000000000E+04  0.00000000000E+00 0.  1.
    9000005    2    1    2  501    0  0.36266884504E+00 -0.45014490706E+00 -0.89763372314E+03  0.11023462875E+04  0.63985990851E+03 0.  0.
         13    1    3    3    0    0  0.16229863824E+03  0.24158814196E+03 -0.22015591256E+03  0.36493054702E+03  0.00000000000E+00 0.  1.
          1    1    3    3  501    0 -0.16193596940E+03 -0.24203828687E+03 -0.67747781058E+03  0.73741574050E+03  0.00000000000E+00 0.  1.
         21    1    1    2  502  501 -0.36266884504E+00  0.45014490706E+00  0.83484361573E+01  0.83684255031E+01  0.00000000000E+00 0. -1.
<mgrwt>
<rscale>  1 0.63986017E+03</rscale>
<asrwt>0</asrwt>
<pdfrwt beam="1">  1        1 0.40259981E+00 0.63986017E+03</pdfrwt>
<pdfrwt beam="2">0</pdfrwt>
<totfact> 0.13051689E+00</totfact>
</mgrwt>
</event>
<event>
 6    1  0.1213626E-003  0.6529364E+03  0.7818608E-02  0.9801285E-01
          1   -1    0    0  502    0  0.00000000000E+00  0.00000000000E+00  0.10659336855E+03  0.10659336855E+03  0.00000000000E+00 0.  1.
         13   -1    0    0    0    0 -0.00000000000E+00 -0.00000000000E+00 -0.10000000000E+04  0.10000000000E+04  0.00000000000E+00 0.  1.
    9000005    2    1    2  501    0  0.31485954256E-03 -0.11283785191E-02 -0.89341849116E+03  0.11065814511E+04  0.65293637332E+03 0.  0.
         13    1    3    3    0    0 -0.16324523839E+03  0.27563367378E+03 -0.55333385349E+03  0.63937569816E+03  0.00000000000E+00 0.  1.
          3    1    3    3  501    0  0.16324555325E+03 -0.27563480216E+03 -0.34008463767E+03  0.46720575296E+03  0.00000000000E+00 0.  1.
         21    1    1    2  502  501 -0.31485954254E-03  0.11283785191E-02  0.11859717958E-01  0.11917436162E-01  0.00000000000E+00 0.  1.
<mgrwt>
<rscale>  1 0.65293637E+03</rscale>
<asrwt>0</asrwt>
<pdfrwt beam="1">  1        1 0.38761307E+00 0.65293637E+03</pdfrwt>
<pdfrwt beam="2">0</pdfrwt>
<totfact> 0.15177861E+00</totfact>
</mgrwt>
</event>
<event>
 6    1  0.1213626E-003  0.6515159E+03  0.7818608E-02  0.9803939E-01
          1   -1    0    0  502    0  0.00000000000E+00  0.00000000000E+00  0.10611937565E+03  0.10611937565E+03  0.00000000000E+00 0.  1.
         13   -1    0    0    0    0 -0.00000000000E+00 -0.00000000000E+00 -0.10000000000E+04  0.10000000000E+04  0.00000000000E+00 0.  1.
    9000005    2    1    2  501    0  0.12485711127E-03 -0.14397423236E-03 -0.89388176380E+03  0.11061182204E+04  0.65151585537E+03 0.  0.
         13    1    3    3    0    0 -0.12342841102E+03  0.11701551138E+03 -0.91863429036E+03  0.93424630691E+03  0.00000000000E+00 0.  1.
          3    1    3    3  501    0  0.12342853587E+03 -0.11701565536E+03  0.24752526564E+02  0.17187191347E+03  0.00000000000E+00 0.  1.
         21    1    1    2  502  501 -0.12485711127E-03  0.14397423236E-03  0.11394511982E-02  0.11552778501E-02  0.00000000000E+00 0.  1.
<mgrwt>
<rscale>  1 0.65151586E+03</rscale>
<asrwt>0</asrwt>
<pdfrwt beam="1">  1        1 0.38588945E+00 0.65151586E+03</pdfrwt>
<pdfrwt beam="2">0</pdfrwt>
<totfact> 0.15450961E+00</totfact>
</mgrwt>
</event>
<event>
 6    1  0.1213626E-003  0.6468628E+03  0.7818608E-02  0.9812684E-01
          1   -1    0    0  502    0  0.00000000000E+00  0.00000000000E+00  0.10472755296E+03  0.10472755296E+03  0.00000000000E+00 0.  1.
         13   -1    0    0    0    0 -0.00000000000E+00 -0.00000000000E+00 -0.10000000000E+04  0.10000000000E+04  0.00000000000E+00 0.  1.
    9000005    2    1    2  501    0  0.18080806117E-02  0.19135078110E-02 -0.89539211662E+03  0.11046078544E+04  0.64686279035E+03 0.  0.
         13    1    3    3    0    0 -0.28552548822E+03 -0.14943558706E+03 -0.49449940623E+03  0.59024186725E+03  0.00000000000E+00 0.  1.
          1    1    3    3  501    0  0.28552729630E+03  0.14943750057E+03 -0.40089271040E+03  0.51436598717E+03  0.00000000000E+00 0.  1.
         21    1    1    2  502  501 -0.18080806117E-02 -0.19135078110E-02  0.11966957949E+00  0.11969853351E+00  0.00000000000E+00 0. -1.
<mgrwt>
<rscale>  1 0.64686279E+03</rscale>
<asrwt>0</asrwt>
<pdfrwt beam="1">  1        1 0.38082827E+00 0.64686279E+03</pdfrwt>
<pdfrwt beam="2">0</pdfrwt>
<totfact> 0.16281576E+00</totfact>
</mgrwt>
</event>
<event>
 6    1  0.1213626E-003  0.6334300E+03  0.7818608E-02  0.9838378E-01
          1   -1    0    0  502    0  0.00000000000E+00  0.00000000000E+00  0.10111988998E+03  0.10111988998E+03  0.00000000000E+00 0.  1.
         13   -1    0    0    0    0 -0.00000000000E+00 -0.00000000000E+00 -0.10000000000E+04  0.10000000000E+04  0.00000000000E+00 0.  1.
    9000005    2    1    2  501    0  0.39472818759E-02 -0.14964487029E-01 -0.89969153917E+03  0.11003083133E+04  0.63342996322E+03 0.  0.
         13    1    3    3    0    0 -0.23500518132E+03  0.21150456921E+03 -0.48199193113E+03  0.57643546015E+03  0.00000000000E+00 0.  1.
          1    1    3    3  501    0  0.23500912860E+03 -0.21151953369E+03 -0.41769960805E+03  0.52387285310E+03  0.00000000000E+00 0.  1.
         21    1    1    2  502  501 -0.39472818759E-02  0.14964487029E-01  0.81142915345E+00  0.81157672957E+00  0.00000000000E+00 0. -1.
<mgrwt>
<rscale>  1 0.63342996E+03</rscale>
<asrwt>0</asrwt>
<pdfrwt beam="1">  1        1 0.36770947E+00 0.63342996E+03</pdfrwt>
<pdfrwt beam="2">0</pdfrwt>
<totfact> 0.18641924E+00</totfact>
</mgrwt>
</event>
<event>
 6    1  0.1213626E-003  0.6532216E+03  0.7818608E-02  0.9800753E-01
          1   -1    0    0  502    0  0.00000000000E+00  0.00000000000E+00  0.10677425573E+03  0.10677425573E+03  0.00000000000E+00 0.  1.
         13   -1    0    0    0    0 -0.00000000000E+00 -0.00000000000E+00 -0.10000000000E+04  0.10000000000E+04  0.00000000000E+00 0.  1.
    9000005    2    1    2  501    0  0.19293203960E-01  0.65938090575E-03 -0.89332434450E+03  0.11066737835E+04  0.65322161496E+03 0.  0.
         13    1    3    3    0    0  0.31347962162E+03  0.32352949333E+02 -0.59206362064E+03  0.67071269362E+03  0.00000000000E+00 0.  1.
          1    1    3    3  501    0 -0.31346032841E+03 -0.32352289952E+02 -0.30126072386E+03  0.43596108989E+03  0.00000000000E+00 0.  1.
         21    1    1    2  502  501 -0.19293203960E-01 -0.65938090575E-03  0.98600228998E-01  0.10047222333E+00  0.00000000000E+00 0. -1.
<mgrwt>
<rscale>  1 0.65322162E+03</rscale>
<asrwt>0</asrwt>
<pdfrwt beam="1">  1        1 0.38827084E+00 0.65322162E+03</pdfrwt>
<pdfrwt beam="2">0</pdfrwt>
<totfact> 0.15075569E+00</totfact>
</mgrwt>
</event>
<event>
 6    1  0.1213626E-003  0.6444933E+03  0.7818608E-02  0.9817167E-01
          1   -1    0    0  502    0  0.00000000000E+00  0.00000000000E+00  0.10384601575E+03  0.10384601575E+03  0.00000000000E+00 0.  1.
         13   -1    0    0    0    0 -0.00000000000E+00 -0.00000000000E+00 -0.10000000000E+04  0.10000000000E+04  0.00000000000E+00 0.  1.
    9000005    2    1    2  501    0 -0.47445830721E-02 -0.48918573506E-02 -0.89615224893E+03  0.11038389835E+04  0.64449332670E+03 0.  0.
         13    1    3    3    0    0  0.31785103542E+02  0.21227096920E+03 -0.36404947543E+02  0.21770295675E+03  0.00000000000E+00 0.  1.
          3    1    3    3  501    0 -0.31789848125E+02 -0.21227586106E+03 -0.85974730139E+03  0.88613602673E+03  0.00000000000E+00 0.  1.
         21    1    1    2  502  501  0.47445830721E-02  0.48918573506E-02 -0.17353219036E-02  0.70322598769E-02  0.00000000000E+00 0.  1.
<mgrwt>
<rscale>  1 0.64449333E+03</rscale>
<asrwt>0</asrwt>
<pdfrwt beam="1">  1        1 0.37762267E+00 0.64449333E+03</pdfrwt>
<pdfrwt beam="2">0</pdfrwt>
<totfact> 0.16827670E+00</totfact>
</mgrwt>
</event>
<event>
 6    1  0.1213626E-003  0.6618667E+03  0.7818608E-02  0.9784763E-01
          1   -1    0    0  502    0  0.00000000000E+00  0.00000000000E+00  0.11347797333E+03  0.11347797333E+03  0.00000000000E+00 0.  1.
         13   -1    0    0    0    0 -0.00000000000E+00 -0.00000000000E+00 -0.10000000000E+04  0.10000000000E+04  0.00000000000E+00 0.  1.
    9000005    2    1    2  501    0  0.84810565085E-01  0.30617905417E+00 -0.89047605299E+03  0.11095112035E+04  0.66186660960E+03 0.  0.
         13    1    3    3    0    0  0.26868510730E+02  0.32470251423E+03 -0.34676968708E+03  0.47581809075E+03  0.00000000000E+00 0.  1.
          1    1    3    3  501    0 -0.26783700165E+02 -0.32439633517E+03 -0.54370636591E+03  0.63369311279E+03  0.00000000000E+00 0.  1.
         21    1    1    2  502  501 -0.84810565085E-01 -0.30617905417E+00  0.39540263197E+01  0.39667697919E+01  0.00000000000E+00 0.  1.
<mgrwt>
<rscale>  1 0.66186669E+03</rscale>
<asrwt>0</asrwt>
<pdfrwt beam="1">  1        1 0.41264805E+00 0.66186669E+03</pdfrwt>
<pdfrwt beam="2">0</pdfrwt>
<totfact> 0.11717671E+00</totfact>
</mgrwt>
</event>
<event>
 6    1  0.1213626E-003  0.6484210E+03  0.7818608E-02  0.9809747E-01
          3   -1    0    0  502    0  0.00000000000E+00  0.00000000000E+00  0.10511344115E+03  0.10511344115E+03  0.00000000000E+00 0.  1.
         13   -1    0    0    0    0 -0.00000000000E+00 -0.00000000000E+00 -0.10000000000E+04  0.10000000000E+04  0.00000000000E+00 0.  1.
    9000005    2    1    2  501    0  0.12684967971E-02 -0.64302672993E-03 -0.89488695538E+03  0.11051119647E+04  0.64842099880E+03 0.  0.
         13    1    3    3    0    0  0.20510911078E+03  0.12472278440E+03 -0.81883973006E+03  0.85330183628E+03  0.00000000000E+00 0.  1.
          1    1    3    3  501    0 -0.20510784228E+03 -0.12472342743E+03 -0.76047225326E+02  0.25181012846E+03  0.00000000000E+00 0.  1.
         21    1    1    2  502  501 -0.12684967970E-02  0.64302672993E-03  0.39653213959E-03  0.14764163496E-02  0.00000000000E+00 0.  1.
<mgrwt>
<rscale>  1 0.64842100E+03</rscale>
<asrwt>0</asrwt>
<pdfrwt beam="1">  1        3 0.38223150E+00 0.64842100E+03</pdfrwt>
<pdfrwt beam="2">0</pdfrwt>
<totfact> 0.73478151E-02</totfact>
</mgrwt>
</event>
<event>
 6    1  0.1213626E-003  0.6496014E+03  0.7818608E-02  0.9807527E-01
          1   -1    0    0  502    0  0.00000000000E+00  0.00000000000E+00  0.10621525171E+03  0.10621525171E+03  0.00000000000E+00 0.  1.
         13   -1    0    0    0    0 -0.00000000000E+00 -0.00000000000E+00 -0.10000000000E+04  0.10000000000E+04  0.00000000000E+00 0.  1.
    9000005    2    1    2  501    0 -0.32459879433E-01 -0.16732722053E-01 -0.89450397702E+03  0.11054950965E+04  0.64960144861E+03 0.  0.
         13    1    3    3    0    0  0.27386688147E+03 -0.12931497221E+03 -0.64688894994E+03  0.71427637813E+03  0.00000000000E+00 0.  1.
          3    1    3    3  501    0 -0.27389934135E+03  0.12929823949E+03 -0.24761502708E+03  0.39121871832E+03  0.00000000000E+00 0.  1.
         21    1    1    2  502  501  0.32459879433E-01  0.16732722053E-01  0.71922873017E+00  0.72015525692E+00  0.00000000000E+00 0. -1.
<mgrwt>
<rscale>  1 0.64960145E+03</rscale>
<asrwt>0</asrwt>
<pdfrwt beam="1">  1        1 0.38623809E+00 0.64960145E+03</pdfrwt>
<pdfrwt beam="2">0</pdfrwt>
<totfact> 0.15401620E+00</totfact>
</mgrwt>
</event>
<event>
 6    1  0.1213626E-003  0.6534045E+03  0.7818608E-02  0.9800412E-01
          1   -1    0    0  502    0  0.00000000000E+00  0.00000000000E+00  0.10699650341E+03  0.10699650341E+03  0.00000000000E+00 0.  1.
         13   -1    0    0    0    0 -0.00000000000E+00 -0.00000000000E+00 -0.10000000000E+04  0.10000000000E+04  0.00000000000E+00 0.  1.
    9000005    2    1    2  501    0 -0.20183089855E+00  0.52465338907E+00 -0.89287633669E+03  0.11064201645E+04  0.65340424838E+03 0.  0.
         13    1    3    3    0    0 -0.14413943729E+03 -0.29294909947E+03 -0.43977879513E+03  0.54772323386E+03  0.00000000000E+00 0.  1.
          3    1    3    3  501    0  0.14393760639E+03  0.29347375285E+03 -0.45309754156E+03  0.55869693064E+03  0.00000000000E+00 0.  1.
         21    1    1    2  502  501  0.20183089855E+00 -0.52465338907E+00 -0.12715990500E+00  0.57633890352E+00  0.00000000000E+00 0. -1.
<mgrwt>
<rscale>  1 0.65340449E+03</rscale>
<asrwt>0</asrwt>
<pdfrwt beam="1">  1        1 0.38907901E+00 0.65340449E+03</pdfrwt>
<pdfrwt beam="2">0</pdfrwt>
<totfact> 0.14951249E+00</totfact>
</mgrwt>
</event>
<event>
 6    1  0.1213626E-003  0.6516343E+03  0.7818608E-02  0.9803717E-01
          1   -1    0    0  502    0  0.00000000000E+00  0.00000000000E+00  0.10616276654E+03  0.10616276654E+03  0.00000000000E+00 0.  1.
         13   -1    0    0    0    0 -0.00000000000E+00 -0.00000000000E+00 -0.10000000000E+04  0.10000000000E+04  0.00000000000E+00 0.  1.
    9000005    2    1    2  501    0 -0.13856640452E-01 -0.75080833870E-02 -0.89379629380E+03  0.11061188982E+04  0.65163425465E+03 0.  0.
         13    1    3    3    0    0 -0.28918522578E+02 -0.30315451441E+01 -0.99775280872E+03  0.99817640651E+03  0.00000000000E+00 0.  1.
          1    1    3    3  501    0  0.28904665938E+02  0.30240370607E+01  0.10395651491E+03  0.10794249166E+03  0.00000000000E+00 0.  1.
         21    1    1    2  502  501  0.13856640452E-01  0.75080833870E-02 -0.40939660143E-01  0.43868366431E-01  0.00000000000E+00 0.  1.
<mgrwt>
<rscale>  1 0.65163425E+03</rscale>
<asrwt>0</asrwt>
<pdfrwt beam="1">  1        1 0.38604724E+00 0.65163425E+03</pdfrwt>
<pdfrwt beam="2">0</pdfrwt>
<totfact> 0.15425801E+00</totfact>
</mgrwt>
</event>
<event>
 6    1  0.1213626E-003  0.6457489E+03  0.7818608E-02  0.9814789E-01
          1   -1    0    0  502    0  0.00000000000E+00  0.00000000000E+00  0.10442955881E+03  0.10442955881E+03  0.00000000000E+00 0.  1.
         13   -1    0    0    0    0 -0.00000000000E+00 -0.00000000000E+00 -0.10000000000E+04  0.10000000000E+04  0.00000000000E+00 0.  1.
    9000005    2    1    2  501    0  0.12295042021E+00 -0.93387942854E-01 -0.89571516133E+03  0.11042179412E+04  0.64574885791E+03 0.  0.
         13    1    3    3    0    0 -0.31594265061E+03  0.48929656891E+02 -0.37147136199E+03  0.49010697055E+03  0.00000000000E+00 0.  1.
          3    1    3    3  501    0  0.31606560103E+03 -0.49023044834E+02 -0.52424379934E+03  0.61411097061E+03  0.00000000000E+00 0.  1.
         21    1    1    2  502  501 -0.12295042021E+00  0.93387942854E-01  0.14472013998E+00  0.21161765668E+00  0.00000000000E+00 0. -1.
<mgrwt>
<rscale>  1 0.64574888E+03</rscale>
<asrwt>0</asrwt>
<pdfrwt beam="1">  1        1 0.37974465E+00 0.64574888E+03</pdfrwt>
<pdfrwt beam="2">0</pdfrwt>
<totfact> 0.16465207E+00</totfact>
</mgrwt>
</event>
<event>
 6    1  0.1213626E-003  0.6701716E+03  0.7818608E-02  0.9769648E-01
          1   -1    0    0  502    0  0.00000000000E+00  0.00000000000E+00  0.11228592846E+03  0.11228592846E+03  0.00000000000E+00 0.  1.
         13   -1    0    0    0    0 -0.00000000000E+00 -0.00000000000E+00 -0.10000000000E+04  0.10000000000E+04  0.00000000000E+00 0.  1.
    9000005    2    1    2  501    0 -0.10299672042E-03 -0.79417985603E-04 -0.88771751887E+03  0.11122824787E+04  0.67017155942E+03 0.  0.
         13    1    3    3    0    0  0.25562815620E+02 -0.16086189015E+03 -0.92987689689E+03  0.94403445308E+03  0.00000000000E+00 0.  1.
          1    1    3    3  501    0 -0.25562918617E+02  0.16086181074E+03  0.42159378014E+02  0.16824802559E+03  0.00000000000E+00 0.  1.
         21    1    1    2  502  501  0.10299672042E-03  0.79417985589E-04  0.34473301419E-02  0.34497826958E-02  0.00000000000E+00 0.  1.
<mgrwt>
<rscale>  1 0.67017156E+03</rscale>
<asrwt>0</asrwt>
<pdfrwt beam="1">  1        1 0.40831333E+00 0.67017156E+03</pdfrwt>
<pdfrwt beam="2">0</pdfrwt>
<totfact> 0.12234969E+00</totfact>
</mgrwt>
</event>
<event>
 6    1  0.1213626E-003  0.6470874E+03  0.7818608E-02  0.9812260E-01
          1   -1    0    0  502    0  0.00000000000E+00  0.00000000000E+00  0.10620576047E+03  0.10620576047E+03  0.00000000000E+00 0.  1.
         13   -1    0    0    0    0 -0.00000000000E+00 -0.00000000000E+00 -0.10000000000E+04  0.10000000000E+04  0.00000000000E+00 0.  1.
    9000005    2    1    2  501    0  0.23502628549E+00 -0.30821310325E+01 -0.89334697353E+03  0.11030824904E+04  0.64708006517E+03 0.  0.
         13    1    3    3    0    0 -0.17628020889E+03 -0.15795938219E+03 -0.69896148823E+02  0.24680224896E+03  0.00000000000E+00 0.  1.
          3    1    3    3  501    0  0.17651523518E+03  0.15487725116E+03 -0.82345082471E+03  0.85628024144E+03  0.00000000000E+00 0.  1.
         21    1    1    2  502  501 -0.23502628549E+00  0.30821310325E+01 -0.44726600340E+00  0.31232700707E+01  0.00000000000E+00 0.  1.
<mgrwt>
<rscale>  1 0.64708745E+03</rscale>
<asrwt>0</asrwt>
<pdfrwt beam="1">  1        1 0.38620358E+00 0.64708745E+03</pdfrwt>
<pdfrwt beam="2">0</pdfrwt>
<totfact> 0.15414229E+00</totfact>
</mgrwt>
</event>
<event>
 6    1  0.1213626E-003  0.6453299E+03  0.7818608E-02  0.9815582E-01
          1   -1    0    0  502    0  0.00000000000E+00  0.00000000000E+00  0.10436000253E+03  0.10436000253E+03  0.00000000000E+00 0.  1.
         13   -1    0    0    0    0 -0.00000000000E+00 -0.00000000000E+00 -0.10000000000E+04  0.10000000000E+04  0.00000000000E+00 0.  1.
    9000005    2    1    2  501    0 -0.13040534986E+00 -0.34430774208E+00 -0.89572616520E+03  0.11039818779E+04  0.64532975144E+03 0.  0.
         13    1    3    3    0    0 -0.49533412696E+02 -0.54310936551E+02  0.89627765445E+02  0.11591537060E+03  0.00000000000E+00 0.  1.
          1    1    3    3  501    0  0.49403007346E+02  0.53966628809E+02 -0.98535393064E+03  0.98806650727E+03  0.00000000000E+00 0.  1.
         21    1    1    2  502  501  0.13040534986E+00  0.34430774208E+00  0.86167724303E-01  0.37812465305E+00  0.00000000000E+00 0.  1.
<mgrwt>
<rscale>  1 0.64532986E+03</rscale>
<asrwt>0</asrwt>
<pdfrwt beam="1">  1        1 0.37949172E+00 0.64532986E+03</pdfrwt>
<pdfrwt beam="2">0</pdfrwt>
<totfact> 0.16508835E+00</totfact>
</mgrwt>
</event>
<event>
 6    1  0.1213626E-003  0.6993326E+03  0.7818608E-02  0.9718374E-01
          1   -1    0    0  502    0  0.00000000000E+00  0.00000000000E+00  0.21477610571E+03  0.21477610571E+03  0.00000000000E+00 0.  1.
         13   -1    0    0    0    0 -0.00000000000E+00 -0.00000000000E+00 -0.10000000000E+04  0.10000000000E+04  0.00000000000E+00 0.  1.
    9000005    2    1    2  501    0 -0.71368253897E+02  0.11014229163E+03 -0.82126310738E+03  0.10786747576E+04  0.68690711826E+03 0.  0.
         13    1    3    3    0    0 -0.15776791797E+02  0.26977622282E+03 -0.32712415642E+02  0.27220988171E+03  0.00000000000E+00 0.  1.
          3    1    3    3  501    0 -0.55591462099E+02 -0.15963393119E+03 -0.78855069174E+03  0.80646487592E+03  0.00000000000E+00 0.  1.
         21    1    1    2  502  501  0.71368253897E+02 -0.11014229163E+03  0.36039213095E+02  0.13610134808E+03  0.00000000000E+00 0.  1.
<mgrwt>
<rscale>  1 0.69933264E+03</rscale>
<asrwt>0</asrwt>
<pdfrwt beam="1">  1        1 0.78100567E+00 0.69933264E+03</pdfrwt>
<pdfrwt beam="2">0</pdfrwt>
<totfact> 0.88538937E-03</totfact>
</mgrwt>
</event>
<event>
 6    1  0.1213626E-003  0.6589436E+03  0.7818608E-02  0.9790140E-01
          1   -1    0    0  502    0  0.00000000000E+00  0.00000000000E+00  0.10855189755E+03  0.10855189755E+03  0.00000000000E+00 0.  1.
         13   -1    0    0    0    0 -0.00000000000E+00 -0.00000000000E+00 -0.10000000000E+04  0.10000000000E+04  0.00000000000E+00 0.  1.
    9000005    2    1    2  501    0  0.35438203923E-04  0.28845938857E-04 -0.89144834547E+03  0.11085516503E+04  0.65894355501E+03 0.  0.
         13    1    3    3    0    0  0.23895423241E+03 -0.22122352974E+03 -0.53005303522E+03  0.62208937898E+03  0.00000000000E+00 0.  1.
          3    1    3    3  501    0 -0.23895419697E+03  0.22122355859E+03 -0.36139531025E+03  0.48646227130E+03  0.00000000000E+00 0.  1.
         21    1    1    2  502  501 -0.35438203915E-04 -0.28845938834E-04  0.24301428132E-03  0.24727291686E-03  0.00000000000E+00 0. -1.
<mgrwt>
<rscale>  1 0.65894356E+03</rscale>
<asrwt>0</asrwt>
<pdfrwt beam="1">  1        1 0.39473501E+00 0.65894356E+03</pdfrwt>
<pdfrwt beam="2">0</pdfrwt>
<totfact> 0.14096845E+00</totfact>
</mgrwt>
</event>
<event>
 6    1  0.1213626E-003  0.6517833E+03  0.7818608E-02  0.9803439E-01
          1   -1    0    0  502    0  0.00000000000E+00  0.00000000000E+00  0.10620782987E+03  0.10620782987E+03  0.00000000000E+00 0.  1.
         13   -1    0    0    0    0 -0.00000000000E+00 -0.00000000000E+00 -0.10000000000E+04  0.10000000000E+04  0.00000000000E+00 0.  1.
    9000005    2    1    2  501    0 -0.13258805245E-03  0.10583557230E-03 -0.89379463095E+03  0.11062053632E+04  0.65178329472E+03 0.  0.
         13    1    3    3    0    0 -0.15059362583E+03 -0.16111676885E+03 -0.39681826688E+02  0.22407967493E+03  0.00000000000E+00 0.  1.
          1    1    3    3  501    0  0.15059349324E+03  0.16111687469E+03 -0.85411280426E+03  0.88212568828E+03  0.00000000000E+00 0.  1.
         21    1    1    2  502  501  0.13258805247E-03 -0.10583557230E-03  0.24608227386E-02  0.24666635991E-02  0.00000000000E+00 0. -1.
<mgrwt>
<rscale>  1 0.65178329E+03</rscale>
<asrwt>0</asrwt>
<pdfrwt beam="1">  1        1 0.38621110E+00 0.65178329E+03</pdfrwt>
<pdfrwt beam="2">0</pdfrwt>
<totfact> 0.15399638E+00</totfact>
</mgrwt>
</event>
<event>
 6    1  0.1213626E-003  0.6549652E+03  0.7818608E-02  0.9797507E-01
          1   -1    0    0  502    0  0.00000000000E+00  0.00000000000E+00  0.11275324045E+03  0.11275324045E+03  0.00000000000E+00 0.  1.
         13   -1    0    0    0    0 -0.00000000000E+00 -0.00000000000E+00 -0.10000000000E+04  0.10000000000E+04  0.00000000000E+00 0.  1.
    9000005    2    1    2  501    0 -0.10792373803E+00 -0.47068900810E+00 -0.89274342437E+03  0.11072354039E+04  0.65496502562E+03 0.  0.
         13    1    3    3    0    0 -0.16330538148E+02  0.20343488984E+03 -0.13525737465E+02  0.20453700510E+03  0.00000000000E+00 0.  1.
          3    1    3    3  501    0  0.16222614410E+02 -0.20390557885E+03 -0.87921768690E+03  0.90269839884E+03  0.00000000000E+00 0.  1.
         21    1    1    2  502  501  0.10792373803E+00  0.47068900810E+00  0.54966648114E+01  0.55178365076E+01  0.00000000000E+00 0. -1.
<mgrwt>
<rscale>  1 0.65496520E+03</rscale>
<asrwt>0</asrwt>
<pdfrwt beam="1">  1        1 0.41001265E+00 0.65496520E+03</pdfrwt>
<pdfrwt beam="2">0</pdfrwt>
<totfact> 0.12057128E+00</totfact>
</mgrwt>
</event>
<event>
 6    1  0.1213626E-003  0.6503544E+03  0.7818608E-02  0.9806114E-01
          1   -1    0    0  502    0  0.00000000000E+00  0.00000000000E+00  0.10578243900E+03  0.10578243900E+03  0.00000000000E+00 0.  1.
         13   -1    0    0    0    0 -0.00000000000E+00 -0.00000000000E+00 -0.10000000000E+04  0.10000000000E+04  0.00000000000E+00 0.  1.
    9000005    2    1    2  501    0 -0.18420263526E-03 -0.88070291704E-03 -0.89425979677E+03  0.11057401937E+04  0.65035435859E+03 0.  0.
         13    1    3    3    0    0  0.33701289162E+02  0.17639795094E+03 -0.90803445280E+03  0.92562334752E+03  0.00000000000E+00 0.  1.
          1    1    3    3  501    0 -0.33701473365E+02 -0.17639883165E+03  0.13774656037E+02  0.18011684614E+03  0.00000000000E+00 0.  1.
         21    1    1    2  502  501  0.18420263526E-03  0.88070291706E-03  0.42235770933E-01  0.42245353763E-01  0.00000000000E+00 0.  1.
<mgrwt>
<rscale>  1 0.65035436E+03</rscale>
<asrwt>0</asrwt>
<pdfrwt beam="1">  1        1 0.38466423E+00 0.65035436E+03</pdfrwt>
<pdfrwt beam="2">0</pdfrwt>
<totfact> 0.15648363E+00</totfact>
</mgrwt>
</event>
<event>
 6    1  0.1213626E-003  0.6543910E+03  0.7818608E-02  0.9798575E-01
          1   -1    0    0  502    0  0.00000000000E+00  0.00000000000E+00  0.10706908377E+03  0.10706908377E+03  0.00000000000E+00 0.  1.
         13   -1    0    0    0    0 -0.00000000000E+00 -0.00000000000E+00 -0.10000000000E+04  0.10000000000E+04  0.00000000000E+00 0.  1.
    9000005    2    1    2  501    0 -0.18120879067E-02 -0.87032616499E-03 -0.89294301627E+03  0.11070568179E+04  0.65439098993E+03 0.  0.
         13    1    3    3    0    0  0.32274261563E+03  0.13914905744E+02 -0.35856712464E+03  0.48262490966E+03  0.00000000000E+00 0.  1.
          3    1    3    3  501    0 -0.32274442772E+03 -0.13915776070E+02 -0.53437589163E+03  0.62443190822E+03  0.00000000000E+00 0.  1.
         21    1    1    2  502  501  0.18120879068E-02  0.87032616499E-03  0.12100039878E-01  0.12265891540E-01  0.00000000000E+00 0. -1.
<mgrwt>
<rscale>  1 0.65439099E+03</rscale>
<asrwt>0</asrwt>
<pdfrwt beam="1">  1        1 0.38934294E+00 0.65439099E+03</pdfrwt>
<pdfrwt beam="2">0</pdfrwt>
<totfact> 0.14908299E+00</totfact>
</mgrwt>
</event>
<event>
 6    1  0.1213626E-003  0.6588104E+03  0.7818608E-02  0.9790386E-01
          1   -1    0    0  502    0  0.00000000000E+00  0.00000000000E+00  0.10851464932E+03  0.10851464932E+03  0.00000000000E+00 0.  1.
         13   -1    0    0    0    0 -0.00000000000E+00 -0.00000000000E+00 -0.10000000000E+04  0.10000000000E+04  0.00000000000E+00 0.  1.
    9000005    2    1    2  501    0 -0.46174124597E-03 -0.52430266152E-04 -0.89149222075E+03  0.11085077636E+04  0.65881035374E+03 0.  0.
         13    1    3    3    0    0  0.22159689977E+03 -0.19824412212E+03 -0.20718715955E+03  0.36239817470E+03  0.00000000000E+00 0.  1.
          3    1    3    3  501    0 -0.22159736151E+03  0.19824406969E+03 -0.68430506120E+03  0.74610958885E+03  0.00000000000E+00 0.  1.
         21    1    1    2  502  501  0.46174124597E-03  0.52430266131E-04  0.68700698470E-02  0.68857689195E-02  0.00000000000E+00 0.  1.
<mgrwt>
<rscale>  1 0.65881035E+03</rscale>
<asrwt>0</asrwt>
<pdfrwt beam="1">  1        1 0.39459956E+00 0.65881035E+03</pdfrwt>
<pdfrwt beam="2">0</pdfrwt>
<totfact> 0.14116755E+00</totfact>
</mgrwt>
</event>
<event>
 6    1  0.1213626E-003  0.6321393E+03  0.7818608E-02  0.9840883E-01
          1   -1    0    0  502    0  0.00000000000E+00  0.00000000000E+00  0.10155910792E+03  0.10155910792E+03  0.00000000000E+00 0.  1.
         13   -1    0    0    0    0 -0.00000000000E+00 -0.00000000000E+00 -0.10000000000E+04  0.10000000000E+04  0.00000000000E+00 0.  1.
    9000005    2    1    2  501    0  0.68963460063E-01 -0.21006461657E+00 -0.90009188457E+03  0.10998933771E+04  0.63213921831E+03 0.  0.
         13    1    3    3    0    0  0.28958127644E+03 -0.84292647567E+02 -0.28529269852E+03  0.41515598265E+03  0.00000000000E+00 0.  1.
          3    1    3    3  501    0 -0.28951231298E+03  0.84082582951E+02 -0.61479918605E+03  0.68473739440E+03  0.00000000000E+00 0.  1.
         21    1    1    2  502  501 -0.68963460063E-01  0.21006461657E+00  0.16509924915E+01  0.16657308633E+01  0.00000000000E+00 0. -1.
<mgrwt>
<rscale>  1 0.63213926E+03</rscale>
<asrwt>0</asrwt>
<pdfrwt beam="1">  1        1 0.36930663E+00 0.63213926E+03</pdfrwt>
<pdfrwt beam="2">0</pdfrwt>
<totfact> 0.18347816E+00</totfact>
</mgrwt>
</event>
<event>
 6    1  0.1213626E-003  0.6854274E+03  0.7818608E-02  0.9742483E-01
          1   -1    0    0  502    0  0.00000000000E+00  0.00000000000E+00  0.11782740233E+03  0.11782740233E+03  0.00000000000E+00 0.  1.
         13   -1    0    0    0    0 -0.00000000000E+00 -0.00000000000E+00 -0.10000000000E+04  0.10000000000E+04  0.00000000000E+00 0.  1.
    9000005    2    1    2  501    0 -0.99414407245E-02  0.15228961794E-01 -0.88254706988E+03  0.11174524888E+04  0.68542740954E+03 0.  0.
         13    1    3    3    0    0 -0.17582922489E+00 -0.13882098672E+03  0.69561742061E+02  0.15527438047E+03  0.00000000000E+00 0.  1.
          1    1    3    3  501    0  0.16588778417E+00  0.13883621569E+03 -0.95210881194E+03  0.96217810829E+03  0.00000000000E+00 0.  1.
         21    1    1    2  502  501  0.99414407245E-02 -0.15228961794E-01  0.37447220940E+00  0.37491357555E+00  0.00000000000E+00 0. -1.
<mgrwt>
<rscale>  1 0.68542741E+03</rscale>
<asrwt>0</asrwt>
<pdfrwt beam="1">  1        1 0.42846418E+00 0.68542741E+03</pdfrwt>
<pdfrwt beam="2">0</pdfrwt>
<totfact> 0.98960284E-01</totfact>
</mgrwt>
</event>
<event>
 6    1  0.1213626E-003  0.6297631E+03  0.7818608E-02  0.9845511E-01
          1   -1    0    0  502    0  0.00000000000E+00  0.00000000000E+00  0.99271347968E+02  0.99271347968E+02  0.00000000000E+00 0.  1.
         13   -1    0    0    0    0 -0.00000000000E+00 -0.00000000000E+00 -0.10000000000E+04  0.10000000000E+04  0.00000000000E+00 0.  1.
    9000005    2    1    2  501    0 -0.32426721352E-01  0.10331840484E-01 -0.90084696550E+03  0.10991482370E+04  0.62976312248E+03 0.  0.
         13    1    3    3    0    0  0.20612697214E+03 -0.13222072525E+03 -0.79583932475E+03  0.83266492640E+03  0.00000000000E+00 0.  1.
          1    1    3    3  501    0 -0.20615939887E+03  0.13223105709E+03 -0.10500764075E+03  0.26648331058E+03  0.00000000000E+00 0.  1.
         21    1    1    2  502  501  0.32426721352E-01 -0.10331840484E-01  0.11831346788E+00  0.12311099003E+00  0.00000000000E+00 0.  1.
<mgrwt>
<rscale>  1 0.62976312E+03</rscale>
<asrwt>0</asrwt>
<pdfrwt beam="1">  1        1 0.36098748E+00 0.62976312E+03</pdfrwt>
<pdfrwt beam="2">0</pdfrwt>
<totfact> 0.19963134E+00</totfact>
</mgrwt>
</event>
<event>
 6    1  0.1213626E-003  0.6459881E+03  0.7818608E-02  0.9814337E-01
          1   -1    0    0  502    0  0.00000000000E+00  0.00000000000E+00  0.10433062679E+03  0.10433062679E+03  0.00000000000E+00 0.  1.
         13   -1    0    0    0    0 -0.00000000000E+00 -0.00000000000E+00 -0.10000000000E+04  0.10000000000E+04  0.00000000000E+00 0.  1.
    9000005    2    1    2  501    0 -0.21528272961E-03  0.12039073997E-03 -0.89567484769E+03  0.11043251468E+04  0.64598807805E+03 0.  0.
         13    1    3    3    0    0 -0.17975632389E+03 -0.24170707220E+03 -0.64712969044E+03  0.71380072918E+03  0.00000000000E+00 0.  1.
          1    1    3    3  501    0  0.17975610861E+03  0.24170719259E+03 -0.24854515725E+03  0.39052441757E+03  0.00000000000E+00 0.  1.
         21    1    1    2  502  501  0.21528272963E-03 -0.12039073995E-03  0.54744805292E-02  0.54800344568E-02  0.00000000000E+00 0. -1.
<mgrwt>
<rscale>  1 0.64598808E+03</rscale>
<asrwt>0</asrwt>
<pdfrwt beam="1">  1        1 0.37938490E+00 0.64598808E+03</pdfrwt>
<pdfrwt beam="2">0</pdfrwt>
<totfact> 0.16524757E+00</totfact>
</mgrwt>
</event>
<event>
 6    1  0.1213626E-003  0.6535674E+03  0.7818608E-02  0.9800108E-01
          1   -1    0    0  502    0  0.00000000000E+00  0.00000000000E+00  0.11876915395E+03  0.11876915395E+03  0.00000000000E+00 0.  1.
         13   -1    0    0    0    0 -0.00000000000E+00 -0.00000000000E+00 -0.10000000000E+04  0.10000000000E+04  0.00000000000E+00 0.  1.
    9000005    2    1    2  501    0 -0.31810741083E+01 -0.34439115675E+01 -0.89270272072E+03  0.11063762662E+04  0.65355054508E+03 0.  0.
         13    1    3    3    0    0 -0.16627521498E+03  0.21648573144E+03 -0.14283339380E+03  0.30808261460E+03  0.00000000000E+00 0.  1.
          3    1    3    3  501    0  0.16309414087E+03 -0.21992964300E+03 -0.74986932692E+03  0.79829365156E+03  0.00000000000E+00 0.  1.
         21    1    1    2  502  501  0.31810741083E+01  0.34439115675E+01  0.11471874673E+02  0.12392887794E+02  0.00000000000E+00 0. -1.
<mgrwt>
<rscale>  1 0.65356736E+03</rscale>
<asrwt>0</asrwt>
<pdfrwt beam="1">  1        1 0.43188874E+00 0.65356736E+03</pdfrwt>
<pdfrwt beam="2">0</pdfrwt>
<totfact> 0.96077002E-01</totfact>
</mgrwt>
</event>
<event>
 6    1  0.1213626E-003  0.6423941E+03  0.7818608E-02  0.9821157E-01
          1   -1    0    0  502    0  0.00000000000E+00  0.00000000000E+00  0.10446354190E+03  0.10446354190E+03  0.00000000000E+00 0.  1.
         13   -1    0    0    0    0 -0.00000000000E+00 -0.00000000000E+00 -0.10000000000E+04  0.10000000000E+04  0.00000000000E+00 0.  1.
    9000005    2    1    2  501    0  0.57539672509E-01 -0.14308169179E+00 -0.89682737740E+03  0.11031634435E+04  0.64239412705E+03 0.  0.
         13    1    3    3    0    0  0.12612581011E+03  0.29154037432E+03 -0.36725197425E+03  0.48556927665E+03  0.00000000000E+00 0.  1.
          1    1    3    3  501    0 -0.12606827044E+03 -0.29168345601E+03 -0.52957540315E+03  0.61759416686E+03  0.00000000000E+00 0.  1.
         21    1    1    2  502  501 -0.57539672509E-01  0.14308169179E+00  0.12909193017E+01  0.13000983916E+01  0.00000000000E+00 0. -1.
<mgrwt>
<rscale>  1 0.64239415E+03</rscale>
<asrwt>0</asrwt>
<pdfrwt beam="1">  1        1 0.37986823E+00 0.64239415E+03</pdfrwt>
<pdfrwt beam="2">0</pdfrwt>
<totfact> 0.16454722E+00</totfact>
</mgrwt>
</event>
<event>
 6    1  0.1213626E-003  0.6459202E+03  0.7818608E-02  0.9814465E-01
          1   -1    0    0  502    0  0.00000000000E+00  0.00000000000E+00  0.10430721850E+03  0.10430721850E+03  0.00000000000E+00 0.  1.
         13   -1    0    0    0    0 -0.00000000000E+00 -0.00000000000E+00 -0.10000000000E+04  0.10000000000E+04  0.00000000000E+00 0.  1.
    9000005    2    1    2  501    0  0.74143481750E-02  0.34251353164E-02 -0.89569152164E+03  0.11042989546E+04  0.64592018022E+03 0.  0.
         13    1    3    3    0    0 -0.31449161278E+03  0.66106972800E+02 -0.50260373324E+03  0.59656149643E+03  0.00000000000E+00 0.  1.
          1    1    3    3  501    0  0.31449902712E+03 -0.66103547664E+02 -0.39308778840E+03  0.50773745821E+03  0.00000000000E+00 0.  1.
         21    1    1    2  502  501 -0.74143481750E-02 -0.34251353164E-02 -0.12598595454E-02  0.82638584735E-02  0.00000000000E+00 0. -1.
<mgrwt>
<rscale>  1 0.64592018E+03</rscale>
<asrwt>0</asrwt>
<pdfrwt beam="1">  1        1 0.37929978E+00 0.64592018E+03</pdfrwt>
<pdfrwt beam="2">0</pdfrwt>
<totfact> 0.16539255E+00</totfact>
</mgrwt>
</event>
<event>
 6    1  0.1213626E-003  0.6495673E+03  0.7818608E-02  0.9807591E-01
          1   -1    0    0  502    0  0.00000000000E+00  0.00000000000E+00  0.10548553999E+03  0.10548553999E+03  0.00000000000E+00 0.  1.
         13   -1    0    0    0    0 -0.00000000000E+00 -0.00000000000E+00 -0.10000000000E+04  0.10000000000E+04  0.00000000000E+00 0.  1.
    9000005    2    1    2  501    0  0.18942423580E-02 -0.20062398153E-03 -0.89451458427E+03  0.11054836311E+04  0.64956733073E+03 0.  0.
         13    1    3    3    0    0  0.31830776855E+03 -0.21002488376E+02 -0.55111625529E+03  0.63678101957E+03  0.00000000000E+00 0.  1.
          1    1    3    3  501    0 -0.31830587431E+03  0.21002287752E+02 -0.34339832899E+03  0.46870261154E+03  0.00000000000E+00 0.  1.
         21    1    1    2  502  501 -0.18942423580E-02  0.20062398153E-03  0.12426515478E-03  0.19088860420E-02  0.00000000000E+00 0.  1.
<mgrwt>
<rscale>  1 0.64956733E+03</rscale>
<asrwt>0</asrwt>
<pdfrwt beam="1">  1        1 0.38358459E+00 0.64956733E+03</pdfrwt>
<pdfrwt beam="2">0</pdfrwt>
<totfact> 0.15823602E+00</totfact>
</mgrwt>
</event>
<event>
 6    1  0.1213626E-003  0.6500651E+03  0.7818608E-02  0.9806657E-01
          1   -1    0    0  502    0  0.00000000000E+00  0.00000000000E+00  0.10565280947E+03  0.10565280947E+03  0.00000000000E+00 0.  1.
         13   -1    0    0    0    0 -0.00000000000E+00 -0.00000000000E+00 -0.10000000000E+04  0.10000000000E+04  0.00000000000E+00 0.  1.
    9000005    2    1    2  501    0 -0.59073408360E-03  0.79168399918E-03 -0.89435379061E+03  0.11056461359E+04  0.65006513137E+03 0.  0.
         13    1    3    3    0    0  0.18280588624E+03  0.12151080366E+03 -0.85488983601E+03  0.88262081278E+03  0.00000000000E+00 0.  1.
          3    1    3    3  501    0 -0.18280647697E+03 -0.12151001197E+03 -0.39463954602E+02  0.22302532310E+03  0.00000000000E+00 0.  1.
         21    1    1    2  502  501  0.59073408361E-03 -0.79168399919E-03  0.66000808413E-02  0.66735895457E-02  0.00000000000E+00 0. -1.
<mgrwt>
<rscale>  1 0.65006513E+03</rscale>
<asrwt>0</asrwt>
<pdfrwt beam="1">  1        1 0.38419284E+00 0.65006513E+03</pdfrwt>
<pdfrwt beam="2">0</pdfrwt>
<totfact> 0.15724488E+00</totfact>
</mgrwt>
</event>
<event>
 6    1  0.1213626E-003  0.6530037E+03  0.7818608E-02  0.9801159E-01
          1   -1    0    0  502    0  0.00000000000E+00  0.00000000000E+00  0.11413491590E+03  0.11413491590E+03  0.00000000000E+00 0.  1.
         13   -1    0    0    0    0 -0.00000000000E+00 -0.00000000000E+00 -0.10000000000E+04  0.10000000000E+04  0.00000000000E+00 0.  1.
    9000005    2    1    2  501    0 -0.29404032984E+01  0.66605066638E+01 -0.89139787403E+03  0.11049905141E+04  0.65296313679E+03 0.  0.
         13    1    3    3    0    0 -0.21883323955E+03 -0.20578430598E+03 -0.65558291644E+03  0.72112698442E+03  0.00000000000E+00 0.  1.
          1    1    3    3  501    0  0.21589283626E+03  0.21244481264E+03 -0.23581495759E+03  0.38386352964E+03  0.00000000000E+00 0.  1.
         21    1    1    2  502  501  0.29404032984E+01 -0.66605066638E+01  0.55327899321E+01  0.91444018399E+01  0.00000000000E+00 0. -1.
<mgrwt>
<rscale>  1 0.65300373E+03</rscale>
<asrwt>0</asrwt>
<pdfrwt beam="1">  1        1 0.41503693E+00 0.65300373E+03</pdfrwt>
<pdfrwt beam="2">0</pdfrwt>
<totfact> 0.11451178E+00</totfact>
</mgrwt>
</event>
<event>
 6    1  0.1213626E-003  0.6555637E+03  0.7818608E-02  0.9796395E-01
          1   -1    0    0  502    0  0.00000000000E+00  0.00000000000E+00  0.10744209324E+03  0.10744209324E+03  0.00000000000E+00 0.  1.
         13   -1    0    0    0    0 -0.00000000000E+00 -0.00000000000E+00 -0.10000000000E+04  0.10000000000E+04  0.00000000000E+00 0.  1.
    9000005    2    1    2  501    0  0.31166407072E-03  0.33147108464E-02 -0.89255124418E+03  0.11074346451E+04  0.65556370379E+03 0.  0.
         13    1    3    3    0    0  0.65422783380E+02 -0.19637470891E+03 -0.16925893921E+02  0.20767679882E+03  0.00000000000E+00 0.  1.
          1    1    3    3  501    0 -0.65422471716E+02  0.19637802362E+03 -0.87562535026E+03  0.89975784630E+03  0.00000000000E+00 0.  1.
         21    1    1    2  502  501 -0.31166407073E-03 -0.33147108464E-02 -0.66625775121E-02  0.74481126195E-02  0.00000000000E+00 0.  1.
<mgrwt>
<rscale>  1 0.65556370E+03</rscale>
<asrwt>0</asrwt>
<pdfrwt beam="1">  1        1 0.39069934E+00 0.65556370E+03</pdfrwt>
<pdfrwt beam="2">0</pdfrwt>
<totfact> 0.14700031E+00</totfact>
</mgrwt>
</event>
<event>
 6    1  0.1213626E-003  0.6612230E+03  0.7818608E-02  0.9785945E-01
          1   -1    0    0  502    0  0.00000000000E+00  0.00000000000E+00  0.10941021198E+03  0.10941021198E+03  0.00000000000E+00 0.  1.
         13   -1    0    0    0    0 -0.00000000000E+00 -0.00000000000E+00 -0.10000000000E+04  0.10000000000E+04  0.00000000000E+00 0.  1.
    9000005    2    1    2  501    0  0.58782339922E-01  0.62568962072E-01 -0.89067644910E+03  0.11092882268E+04  0.66122297737E+03 0.  0.
         13    1    3    3    0    0  0.24365726466E+03 -0.22190896742E+03 -0.40120942979E+03  0.51921234480E+03  0.00000000000E+00 0.  1.
          1    1    3    3  501    0 -0.24359848232E+03  0.22197153638E+03 -0.48946701931E+03  0.59007588202E+03  0.00000000000E+00 0.  1.
         21    1    1    2  502  501 -0.58782339922E-01 -0.62568962072E-01  0.86661081330E-01  0.12198516926E+00  0.00000000000E+00 0. -1.
<mgrwt>
<rscale>  1 0.66122298E+03</rscale>
<asrwt>0</asrwt>
<pdfrwt beam="1">  1        1 0.39785616E+00 0.66122298E+03</pdfrwt>
<pdfrwt beam="2">0</pdfrwt>
<totfact> 0.13647345E+00</totfact>
</mgrwt>
</event>
<event>
 6    1  0.1213626E-003  0.6520033E+03  0.7818608E-02  0.9803027E-01
          1   -1    0    0  502    0  0.00000000000E+00  0.00000000000E+00  0.10627715871E+03  0.10627715871E+03  0.00000000000E+00 0.  1.
         13   -1    0    0    0    0 -0.00000000000E+00 -0.00000000000E+00 -0.10000000000E+04  0.10000000000E+04  0.00000000000E+00 0.  1.
    9000005    2    1    2  501    0 -0.66134426049E-04  0.20025975712E-03 -0.89372248315E+03  0.11062767431E+04  0.65200334003E+03 0.  0.
         13    1    3    3    0    0 -0.29300246896E+03 -0.13370180352E+03 -0.53254990007E+03  0.62236325016E+03  0.00000000000E+00 0.  1.
          3    1    3    3  501    0  0.29300240282E+03  0.13370200378E+03 -0.36117258308E+03  0.48391349294E+03  0.00000000000E+00 0.  1.
         21    1    1    2  502  501  0.66134426040E-04 -0.20025975711E-03 -0.35813643681E-03  0.41561934507E-03  0.00000000000E+00 0. -1.
<mgrwt>
<rscale>  1 0.65200334E+03</rscale>
<asrwt>0</asrwt>
<pdfrwt beam="1">  1        1 0.38646321E+00 0.65200334E+03</pdfrwt>
<pdfrwt beam="2">0</pdfrwt>
<totfact> 0.15359496E+00</totfact>
</mgrwt>
</event>
<event>
 6    1  0.1213626E-003  0.5300167E+03  0.7818608E-02  0.1006228E+00
          3   -1    0    0  502    0  0.00000000000E+00  0.00000000000E+00  0.71641417437E+02  0.71641417437E+02  0.00000000000E+00 0.  1.
         13   -1    0    0    0    0 -0.00000000000E+00 -0.00000000000E+00 -0.10000000000E+04  0.10000000000E+04  0.00000000000E+00 0.  1.
    9000005    2    1    2  501    0  0.28033492597E-02  0.21321327902E-01 -0.92977047394E+03  0.10702293623E+04  0.53001674809E+03 0.  0.
         13    1    3    3    0    0 -0.18094223967E+03  0.75886028047E+02 -0.10519392389E+03  0.22263096140E+03  0.00000000000E+00 0.  1.
          3    1    3    3  501    0  0.18094504302E+03 -0.75864706720E+02 -0.82457655005E+03  0.84759840090E+03  0.00000000000E+00 0.  1.
         21    1    1    2  502  501 -0.28033492596E-02 -0.21321327902E-01  0.14118913751E+01  0.14120551380E+01  0.00000000000E+00 0.  1.
<mgrwt>
<rscale>  1 0.53001675E+03</rscale>
<asrwt>0</asrwt>
<pdfrwt beam="1">  1        3 0.26051479E+00 0.53001675E+03</pdfrwt>
<pdfrwt beam="2">0</pdfrwt>
<totfact> 0.33828866E-01</totfact>
</mgrwt>
</event>
<event>
 6    1  0.1213626E-003  0.6673381E+03  0.7818608E-02  0.9774779E-01
          1   -1    0    0  502    0  0.00000000000E+00  0.00000000000E+00  0.11134719160E+03  0.11134719160E+03  0.00000000000E+00 0.  1.
         13   -1    0    0    0    0 -0.00000000000E+00 -0.00000000000E+00 -0.10000000000E+04  0.10000000000E+04  0.00000000000E+00 0.  1.
    9000005    2    1    2  501    0  0.11693936731E-02 -0.18315658508E-02 -0.88866485431E+03  0.11113349513E+04  0.66733810816E+03 0.  0.
         13    1    3    3    0    0  0.18894955274E+03 -0.80102098057E+02 -0.88246602204E+03  0.90601576125E+03  0.00000000000E+00 0.  1.
          3    1    3    3  501    0 -0.18894838335E+03  0.80100266492E+02 -0.61988322724E+01  0.20531919000E+03  0.00000000000E+00 0.  1.
         21    1    1    2  502  501 -0.11693936731E-02  0.18315658509E-02  0.12045909548E-01  0.12240345252E-01  0.00000000000E+00 0. -1.
<mgrwt>
<rscale>  1 0.66733811E+03</rscale>
<asrwt>0</asrwt>
<pdfrwt beam="1">  1        1 0.40489973E+00 0.66733811E+03</pdfrwt>
<pdfrwt beam="2">0</pdfrwt>
<totfact> 0.12679903E+00</totfact>
</mgrwt>
</event>
<event>
 6    1  0.1213626E-003  0.6465046E+03  0.7818608E-02  0.9813360E-01
          1   -1    0    0  502    0  0.00000000000E+00  0.00000000000E+00  0.10449214695E+03  0.10449214695E+03  0.00000000000E+00 0.  1.
         13   -1    0    0    0    0 -0.00000000000E+00 -0.00000000000E+00 -0.10000000000E+04  0.10000000000E+04  0.00000000000E+00 0.  1.
    9000005    2    1    2  501    0  0.85162085313E-05  0.45684203826E-04 -0.89550795074E+03  0.11044920388E+04  0.64650458147E+03 0.  0.
         13    1    3    3    0    0  0.61516755187E+02  0.14725547868E+03  0.32498126175E+02  0.16286379394E+03  0.00000000000E+00 0.  1.
          1    1    3    3  501    0 -0.61516746671E+02 -0.14725543300E+03 -0.92800607692E+03  0.94162824483E+03  0.00000000000E+00 0.  1.
         21    1    1    2  502  501 -0.85162085289E-05 -0.45684203826E-04  0.97691592019E-04  0.10818141910E-03  0.00000000000E+00 0.  1.
<mgrwt>
<rscale>  1 0.64650458E+03</rscale>
<asrwt>0</asrwt>
<pdfrwt beam="1">  1        1 0.37997224E+00 0.64650458E+03</pdfrwt>
<pdfrwt beam="2">0</pdfrwt>
<totfact> 0.16424901E+00</totfact>
</mgrwt>
</event>
<event>
 6    1  0.1213626E-003  0.6359832E+03  0.7818608E-02  0.9833442E-01
          1   -1    0    0  502    0  0.00000000000E+00  0.00000000000E+00  0.10231134202E+03  0.10231134202E+03  0.00000000000E+00 0.  1.
         13   -1    0    0    0    0 -0.00000000000E+00 -0.00000000000E+00 -0.10000000000E+04  0.10000000000E+04  0.00000000000E+00 0.  1.
    9000005    2    1    2  501    0  0.38569888094E-02  0.22352768129E-01 -0.89888123841E+03  0.11011185459E+04  0.63598315294E+03 0.  0.
         13    1    3    3    0    0 -0.26604411888E+02 -0.26426612996E+03 -0.14671935994E+03  0.30343195738E+03  0.00000000000E+00 0.  1.
          3    1    3    3  501    0  0.26608268876E+02  0.26428848273E+03 -0.75216187846E+03  0.79768658851E+03  0.00000000000E+00 0.  1.
         21    1    1    2  502  501 -0.38569888094E-02 -0.22352768129E-01  0.11925804271E+01  0.11927961258E+01  0.00000000000E+00 0.  1.
<mgrwt>
<rscale>  1 0.63598315E+03</rscale>
<asrwt>0</asrwt>
<pdfrwt beam="1">  1        1 0.37204203E+00 0.63598315E+03</pdfrwt>
<pdfrwt beam="2">0</pdfrwt>
<totfact> 0.17834593E+00</totfact>
</mgrwt>
</event>
<event>
 6    1  0.1213626E-003  0.6401398E+03  0.7818608E-02  0.9825459E-01
          1   -1    0    0  502    0  0.00000000000E+00  0.00000000000E+00  0.10248879095E+03  0.10248879095E+03  0.00000000000E+00 0.  1.
         13   -1    0    0    0    0 -0.00000000000E+00 -0.00000000000E+00 -0.10000000000E+04  0.10000000000E+04  0.00000000000E+00 0.  1.
    9000005    2    1    2  501    0  0.31227290267E-03  0.87753389963E-03 -0.89755525571E+03  0.11024447344E+04  0.64013979368E+03 0.  0.
         13    1    3    3    0    0 -0.48725493068E+02  0.53773208120E+02  0.88091271174E+02  0.11413064288E+03  0.00000000000E+00 0.  1.
          1    1    3    3  501    0  0.48725805341E+02 -0.53772330586E+02 -0.98564652688E+03  0.98831409157E+03  0.00000000000E+00 0.  1.
         21    1    1    2  502  501 -0.31227290267E-03 -0.87753389963E-03  0.44046660924E-01  0.44056508245E-01  0.00000000000E+00 0.  1.
<mgrwt>
<rscale>  1 0.64013979E+03</rscale>
<asrwt>0</asrwt>
<pdfrwt beam="1">  1        1 0.37268730E+00 0.64013979E+03</pdfrwt>
<pdfrwt beam="2">0</pdfrwt>
<totfact> 0.17705008E+00</totfact>
</mgrwt>
</event>
<event>
 6    1  0.1213626E-003  0.6447775E+03  0.7818608E-02  0.9816628E-01
          1   -1    0    0  502    0  0.00000000000E+00  0.00000000000E+00  0.10393737186E+03  0.10393737186E+03  0.00000000000E+00 0.  1.
         13   -1    0    0    0    0 -0.00000000000E+00 -0.00000000000E+00 -0.10000000000E+04  0.10000000000E+04  0.00000000000E+00 0.  1.
    9000005    2    1    2  501    0  0.90645341515E-04  0.83133048264E-04 -0.89606548393E+03  0.11039345134E+04  0.64477752632E+03 0.  0.
         13    1    3    3    0    0 -0.28777768464E+03  0.13844464201E+03 -0.52366847401E+03  0.61336089324E+03  0.00000000000E+00 0.  1.
          1    1    3    3  501    0  0.28777777529E+03 -0.13844455888E+03 -0.37239700991E+03  0.49057362019E+03  0.00000000000E+00 0.  1.
         21    1    1    2  502  501 -0.90645341491E-04 -0.83133048268E-04  0.28557898654E-02  0.28584372369E-02  0.00000000000E+00 0.  1.
<mgrwt>
<rscale>  1 0.64477753E+03</rscale>
<asrwt>0</asrwt>
<pdfrwt beam="1">  1        1 0.37795488E+00 0.64477753E+03</pdfrwt>
<pdfrwt beam="2">0</pdfrwt>
<totfact> 0.16770157E+00</totfact>
</mgrwt>
</event>
<event>
 6    1  0.1213626E-003  0.6428145E+03  0.7818608E-02  0.9820356E-01
          1   -1    0    0  502    0  0.00000000000E+00  0.00000000000E+00  0.10331198656E+03  0.10331198656E+03  0.00000000000E+00 0.  1.
         13   -1    0    0    0    0 -0.00000000000E+00 -0.00000000000E+00 -0.10000000000E+04  0.10000000000E+04  0.00000000000E+00 0.  1.
    9000005    2    1    2  501    0  0.73081336859E-03  0.16361243175E-02 -0.89669728558E+03  0.11033025429E+04  0.64281449820E+03 0.  0.
         13    1    3    3    0    0  0.23813009487E+03  0.14555142310E+03 -0.72195659418E+03  0.77402356729E+03  0.00000000000E+00 0.  1.
          3    1    3    3  501    0 -0.23812936405E+03 -0.14554978698E+03 -0.17474069141E+03  0.32927897556E+03  0.00000000000E+00 0.  1.
         21    1    1    2  502  501 -0.73081336860E-03 -0.16361243175E-02  0.92721404605E-02  0.94437058235E-02  0.00000000000E+00 0. -1.
<mgrwt>
<rscale>  1 0.64281450E+03</rscale>
<asrwt>0</asrwt>
<pdfrwt beam="1">  1        1 0.37568074E+00 0.64281450E+03</pdfrwt>
<pdfrwt beam="2">0</pdfrwt>
<totfact> 0.17167699E+00</totfact>
</mgrwt>
</event>
<event>
 6    1  0.1213626E-003  0.6489695E+03  0.7818608E-02  0.9808715E-01
          1   -1    0    0  502    0  0.00000000000E+00  0.00000000000E+00  0.10529310727E+03  0.10529310727E+03  0.00000000000E+00 0.  1.
         13   -1    0    0    0    0 -0.00000000000E+00 -0.00000000000E+00 -0.10000000000E+04  0.10000000000E+04  0.00000000000E+00 0.  1.
    9000005    2    1    2  501    0 -0.51288384577E-03 -0.73357326076E-03 -0.89470955971E+03  0.11052902941E+04  0.64896952006E+03 0.  0.
         13    1    3    3    0    0 -0.18504501508E+03  0.19465919863E+03 -0.13723018204E+03  0.30160567647E+03  0.00000000000E+00 0.  1.
          3    1    3    3  501    0  0.18504450220E+03 -0.19465993220E+03 -0.75747937767E+03  0.80368461762E+03  0.00000000000E+00 0.  1.
         21    1    1    2  502  501  0.51288384577E-03  0.73357326074E-03  0.26669856733E-02  0.28131818551E-02  0.00000000000E+00 0. -1.
<mgrwt>
<rscale>  1 0.64896952E+03</rscale>
<asrwt>0</asrwt>
<pdfrwt beam="1">  1        1 0.38288483E+00 0.64896952E+03</pdfrwt>
<pdfrwt beam="2">0</pdfrwt>
<totfact> 0.15938434E+00</totfact>
</mgrwt>
</event>
<event>
 6    1  0.1213626E-003  0.6508378E+03  0.7818608E-02  0.9805208E-01
          1   -1    0    0  502    0  0.00000000000E+00  0.00000000000E+00  0.11549207877E+03  0.11549207877E+03  0.00000000000E+00 0.  1.
         13   -1    0    0    0    0 -0.00000000000E+00 -0.00000000000E+00 -0.10000000000E+04  0.10000000000E+04  0.00000000000E+00 0.  1.
    9000005    2    1    2  501    0 -0.19436887503E+01  0.26448820851E+01 -0.89379112345E+03  0.11056457002E+04  0.65082952354E+03 0.  0.
         13    1    3    3    0    0 -0.24265390714E+02 -0.15019339585E+03  0.41489371825E+02  0.15769664967E+03  0.00000000000E+00 0.  1.
          1    1    3    3  501    0  0.22321701964E+02  0.15283827794E+03 -0.93528049528E+03  0.94794905054E+03  0.00000000000E+00 0.  1.
         21    1    1    2  502  501  0.19436887503E+01 -0.26448820851E+01  0.92832022197E+01  0.98463785553E+01  0.00000000000E+00 0. -1.
<mgrwt>
<rscale>  1 0.65083780E+03</rscale>
<asrwt>0</asrwt>
<pdfrwt beam="1">  1        1 0.41997208E+00 0.65083780E+03</pdfrwt>
<pdfrwt beam="2">0</pdfrwt>
<totfact> 0.10884546E+00</totfact>
</mgrwt>
</event>
<event>
 6    1  0.1213626E-003  0.6349897E+03  0.7818608E-02  0.9835360E-01
          1   -1    0    0  502    0  0.00000000000E+00  0.00000000000E+00  0.10082352631E+03  0.10082352631E+03  0.00000000000E+00 0.  1.
         13   -1    0    0    0    0 -0.00000000000E+00 -0.00000000000E+00 -0.10000000000E+04  0.10000000000E+04  0.00000000000E+00 0.  1.
    9000005    2    1    2  501    0  0.93493440905E-03 -0.15611228717E-02 -0.89919698113E+03  0.11008029383E+04  0.63498968344E+03 0.  0.
         13    1    3    3    0    0 -0.88985943778E+02  0.25664121571E+03 -0.73455471188E+03  0.78316909830E+03  0.00000000000E+00 0.  1.
          3    1    3    3  501    0  0.88986878713E+02 -0.25664277683E+03 -0.16464226925E+03  0.31763383999E+03  0.00000000000E+00 0.  1.
         21    1    1    2  502  501 -0.93493440905E-03  0.15611228717E-02  0.20507438933E-01  0.20588012497E-01  0.00000000000E+00 0.  1.
<mgrwt>
<rscale>  1 0.63498968E+03</rscale>
<asrwt>0</asrwt>
<pdfrwt beam="1">  1        1 0.36663178E+00 0.63498968E+03</pdfrwt>
<pdfrwt beam="2">0</pdfrwt>
<totfact> 0.18840587E+00</totfact>
</mgrwt>
</event>
<event>
 6    1  0.1213626E-003  0.6336421E+03  0.7818608E-02  0.9837967E-01
          3   -1    0    0  502    0  0.00000000000E+00  0.00000000000E+00  0.10075962692E+03  0.10075962692E+03  0.00000000000E+00 0.  1.
         13   -1    0    0    0    0 -0.00000000000E+00 -0.00000000000E+00 -0.10000000000E+04  0.10000000000E+04  0.00000000000E+00 0.  1.
    9000005    2    1    2  501    0  0.45421160637E-02 -0.10842744624E-01 -0.89962431250E+03  0.11003755076E+04  0.63364213394E+03 0.  0.
         13    1    3    3    0    0 -0.22332969089E+03 -0.31921892014E+02 -0.83609817117E+03  0.86599960154E+03  0.00000000000E+00 0.  1.
          1    1    3    3  501    0  0.22333423301E+03  0.31911049269E+02 -0.63526141323E+02  0.23437590604E+03  0.00000000000E+00 0.  1.
         21    1    1    2  502  501 -0.45421160637E-02  0.10842744624E-01  0.38393941648E+00  0.38411934533E+00  0.00000000000E+00 0. -1.
<mgrwt>
<rscale>  1 0.63364213E+03</rscale>
<asrwt>0</asrwt>
<pdfrwt beam="1">  1        3 0.36639942E+00 0.63364213E+03</pdfrwt>
<pdfrwt beam="2">0</pdfrwt>
<totfact> 0.89325816E-02</totfact>
</mgrwt>
</event>
<event>
 6    1  0.1213626E-003  0.6663182E+03  0.7818608E-02  0.9776632E-01
          1   -1    0    0  502    0  0.00000000000E+00  0.00000000000E+00  0.13306705642E+03  0.13306705642E+03  0.00000000000E+00 0.  1.
         13   -1    0    0    0    0 -0.00000000000E+00 -0.00000000000E+00 -0.10000000000E+04  0.10000000000E+04  0.00000000000E+00 0.  1.
    9000005    2    1    2  501    0  0.29911567586E+00 -0.15516848208E+00 -0.88900357056E+03  0.11109938572E+04  0.66631815883E+03 0.  0.
         13    1    3    3    0    0  0.22907456842E+03 -0.23425677562E+03 -0.34262819258E+03  0.47407327827E+03  0.00000000000E+00 0.  1.
          1    1    3    3  501    0 -0.22877545274E+03  0.23410160714E+03 -0.54637537798E+03  0.63692057896E+03  0.00000000000E+00 0.  1.
         21    1    1    2  502  501 -0.29911567586E+00  0.15516848208E+00  0.22070626976E+02  0.22073199192E+02  0.00000000000E+00 0. -1.
<mgrwt>
<rscale>  1 0.66631824E+03</rscale>
<asrwt>0</asrwt>
<pdfrwt beam="1">  1        1 0.48388123E+00 0.66631824E+03</pdfrwt>
<pdfrwt beam="2">0</pdfrwt>
<totfact> 0.54999712E-01</totfact>
</mgrwt>
</event>
<event>
 6    1  0.1213626E-003  0.5955732E+03  0.7818608E-02  0.9914633E-01
          1   -1    0    0  502    0  0.00000000000E+00  0.00000000000E+00  0.88676911383E+02  0.88676911383E+02  0.00000000000E+00 0.  1.
         13   -1    0    0    0    0 -0.00000000000E+00 -0.00000000000E+00 -0.10000000000E+04  0.10000000000E+04  0.00000000000E+00 0.  1.
    9000005    2    1    2  501    0  0.14718726028E-04  0.15629582549E-04 -0.91132313392E+03  0.10886768612E+04  0.59557321448E+03 0.  0.
         13    1    3    3    0    0  0.33987214147E+02  0.28027229566E+03 -0.62877875350E+03  0.68925351743E+03  0.00000000000E+00 0.  1.
          1    1    3    3  501    0 -0.33987199428E+02 -0.28027228003E+03 -0.28254438042E+03  0.39942334382E+03  0.00000000000E+00 0.  1.
         21    1    1    2  502  501 -0.14718726027E-04 -0.15629582560E-04  0.45304217707E-04  0.50133789892E-04  0.00000000000E+00 0.  1.
<mgrwt>
<rscale>  1 0.59557321E+03</rscale>
<asrwt>0</asrwt>
<pdfrwt beam="1">  1        1 0.32246218E+00 0.59557321E+03</pdfrwt>
<pdfrwt beam="2">0</pdfrwt>
<totfact> 0.29535209E+00</totfact>
</mgrwt>
</event>
<event>
 6    1  0.1213626E-003  0.6480392E+03  0.7818608E-02  0.9810465E-01
          1   -1    0    0  502    0  0.00000000000E+00  0.00000000000E+00  0.10670785309E+03  0.10670785309E+03  0.00000000000E+00 0.  1.
         13   -1    0    0    0    0 -0.00000000000E+00 -0.00000000000E+00 -0.10000000000E+04  0.10000000000E+04  0.00000000000E+00 0.  1.
    9000005    2    1    2  501    0 -0.87410247457E-01  0.39419845454E-01 -0.89500981020E+03  0.11049875154E+04  0.64803922699E+03 0.  0.
         13    1    3    3    0    0  0.18859977514E+03  0.56123524077E+02 -0.88637333263E+03  0.90795231700E+03  0.00000000000E+00 0.  1.
          3    1    3    3  501    0 -0.18868718539E+03 -0.56084104231E+02 -0.86364775666E+01  0.19703519844E+03  0.00000000000E+00 0.  1.
         21    1    1    2  502  501  0.87410247457E-01 -0.39419845454E-01  0.17176632910E+01  0.17203376578E+01  0.00000000000E+00 0.  1.
<mgrwt>
<rscale>  1 0.64803923E+03</rscale>
<asrwt>0</asrwt>
<pdfrwt beam="1">  1        1 0.38802937E+00 0.64803923E+03</pdfrwt>
<pdfrwt beam="2">0</pdfrwt>
<totfact> 0.15127303E+00</totfact>
</mgrwt>
</event>
<event>
 6    1  0.1213626E-003  0.5964573E+03  0.7818608E-02  0.9912783E-01
          1   -1    0    0  502    0  0.00000000000E+00  0.00000000000E+00  0.92682594105E+02  0.92682594105E+02  0.00000000000E+00 0.  1.
         13   -1    0    0    0    0 -0.00000000000E+00 -0.00000000000E+00 -0.10000000000E+04  0.10000000000E+04  0.00000000000E+00 0.  1.
    9000005    2    1    2  501    0 -0.18982011634E+00  0.31295970050E+00 -0.91104991318E+03  0.10889321826E+04  0.59645722405E+03 0.  0.
         13    1    3    3    0    0  0.79095086444E+02  0.57454039078E+02 -0.96992421374E+03  0.97483843774E+03  0.00000000000E+00 0.  1.
          3    1    3    3  501    0 -0.79284906560E+02 -0.57141079378E+02  0.58874300557E+02  0.11409374491E+03  0.00000000000E+00 0.  1.
         21    1    1    2  502  501  0.18982011634E+00 -0.31295970050E+00  0.37325072852E+01  0.37504114554E+01  0.00000000000E+00 0.  1.
<mgrwt>
<rscale>  1 0.59645734E+03</rscale>
<asrwt>0</asrwt>
<pdfrwt beam="1">  1        1 0.33702833E+00 0.59645734E+03</pdfrwt>
<pdfrwt beam="2">0</pdfrwt>
<totfact> 0.25537910E+00</totfact>
</mgrwt>
</event>
<event>
 6    1  0.1213626E-003  0.6364018E+03  0.7818608E-02  0.9832635E-01
          1   -1    0    0  502    0  0.00000000000E+00  0.00000000000E+00  0.10125646486E+03  0.10125646486E+03  0.00000000000E+00 0.  1.
         13   -1    0    0    0    0 -0.00000000000E+00 -0.00000000000E+00 -0.10000000000E+04  0.10000000000E+04  0.00000000000E+00 0.  1.
    9000005    2    1    2  501    0  0.72532415189E-02 -0.12513717630E-01 -0.89871895459E+03  0.11012279446E+04  0.63640178063E+03 0.  0.
         13    1    3    3    0    0  0.34981719452E+02 -0.12253514657E+03 -0.95390116746E+03  0.96237519717E+03  0.00000000000E+00 0.  1.
          1    1    3    3  501    0 -0.34974466211E+02  0.12252263285E+03  0.55182212873E+02  0.13885274742E+03  0.00000000000E+00 0.  1.
         21    1    1    2  502  501 -0.72532415189E-02  0.12513717630E-01 -0.24580554494E-01  0.28520278763E-01  0.00000000000E+00 0.  1.
<mgrwt>
<rscale>  1 0.63640178E+03</rscale>
<asrwt>0</asrwt>
<pdfrwt beam="1">  1        1 0.36820610E+00 0.63640178E+03</pdfrwt>
<pdfrwt beam="2">0</pdfrwt>
<totfact> 0.18538586E+00</totfact>
</mgrwt>
</event>
<event>
 6    1  0.1213626E-003  0.6249986E+03  0.7818608E-02  0.9854857E-01
          1   -1    0    0  502    0  0.00000000000E+00  0.00000000000E+00  0.97702394803E+02  0.97702394803E+02  0.00000000000E+00 0.  1.
         13   -1    0    0    0    0 -0.00000000000E+00 -0.00000000000E+00 -0.10000000000E+04  0.10000000000E+04  0.00000000000E+00 0.  1.
    9000005    2    1    2  501    0 -0.40575410288E-01 -0.62112360586E-01 -0.90230943414E+03  0.10976272667E+04  0.62499863690E+03 0.  0.
         13    1    3    3    0    0 -0.18566946869E+03 -0.23752799225E+03 -0.30654103818E+03  0.42995361005E+03  0.00000000000E+00 0.  1.
          1    1    3    3  501    0  0.18562889328E+03  0.23746587989E+03 -0.59576839597E+03  0.66767365664E+03  0.00000000000E+00 0.  1.
         21    1    1    2  502  501  0.40575410288E-01  0.62112360586E-01  0.11828947676E-01  0.75128112320E-01  0.00000000000E+00 0.  1.
<mgrwt>
<rscale>  1 0.62499864E+03</rscale>
<asrwt>0</asrwt>
<pdfrwt beam="1">  1        1 0.35528218E+00 0.62499864E+03</pdfrwt>
<pdfrwt beam="2">0</pdfrwt>
<totfact> 0.21160963E+00</totfact>
</mgrwt>
</event>
<event>
 6    1  0.1213626E-003  0.6551409E+03  0.7818608E-02  0.9797180E-01
          1   -1    0    0  502    0  0.00000000000E+00  0.00000000000E+00  0.10784022972E+03  0.10784022972E+03  0.00000000000E+00 0.  1.
         13   -1    0    0    0    0 -0.00000000000E+00 -0.00000000000E+00 -0.10000000000E+04  0.10000000000E+04  0.00000000000E+00 0.  1.
    9000005    2    1    2  501    0 -0.41160844925E-01 -0.61771979647E-02 -0.89269670318E+03  0.11073016860E+04  0.65514091483E+03 0.  0.
         13    1    3    3    0    0  0.31444830245E+03  0.84253286270E+02 -0.38508590330E+03  0.50424944629E+03  0.00000000000E+00 0.  1.
          3    1    3    3  501    0 -0.31448946329E+03 -0.84259463468E+02 -0.50761079987E+03  0.60305223974E+03  0.00000000000E+00 0.  1.
         21    1    1    2  502  501  0.41160844925E-01  0.61771979647E-02  0.53693289907E+00  0.53854369464E+00  0.00000000000E+00 0.  1.
<mgrwt>
<rscale>  1 0.65514092E+03</rscale>
<asrwt>0</asrwt>
<pdfrwt beam="1">  1        1 0.39214712E+00 0.65514092E+03</pdfrwt>
<pdfrwt beam="2">0</pdfrwt>
<totfact> 0.14485285E+00</totfact>
</mgrwt>
</event>
<event>
 6    1  0.1213626E-003  0.6516156E+03  0.7818608E-02  0.9803752E-01
          1   -1    0    0  502    0  0.00000000000E+00  0.00000000000E+00  0.10739030082E+03  0.10739030082E+03  0.00000000000E+00 0.  1.
         13   -1    0    0    0    0 -0.00000000000E+00 -0.00000000000E+00 -0.10000000000E+04  0.10000000000E+04  0.00000000000E+00 0.  1.
    9000005    2    1    2  501    0 -0.31800901181E+00  0.16261504996E+00 -0.89382075540E+03  0.11061276724E+04  0.65161549803E+03 0.  0.
         13    1    3    3    0    0 -0.12893748248E+03 -0.21986551631E+03 -0.79143830717E+03  0.83146876893E+03  0.00000000000E+00 0.  1.
          3    1    3    3  501    0  0.12861947347E+03  0.22002813136E+03 -0.10238244823E+03  0.27465890346E+03  0.00000000000E+00 0.  1.
         21    1    1    2  502  501  0.31800901181E+00 -0.16261504996E+00  0.12110562179E+01  0.12626284287E+01  0.00000000000E+00 0. -1.
<mgrwt>
<rscale>  1 0.65161560E+03</rscale>
<asrwt>0</asrwt>
<pdfrwt beam="1">  1        1 0.39051101E+00 0.65161560E+03</pdfrwt>
<pdfrwt beam="2">0</pdfrwt>
<totfact> 0.14739152E+00</totfact>
</mgrwt>
</event>
<event>
 6    1  0.1213626E-003  0.6388554E+03  0.7818608E-02  0.9827919E-01
          1   -1    0    0  502    0  0.00000000000E+00  0.00000000000E+00  0.10419987273E+03  0.10419987273E+03  0.00000000000E+00 0.  1.
         13   -1    0    0    0    0 -0.00000000000E+00 -0.00000000000E+00 -0.10000000000E+04  0.10000000000E+04  0.00000000000E+00 0.  1.
    9000005    2    1    2  501    0  0.33423349920E+00 -0.28353199678E+01 -0.89687842599E+03  0.11011480733E+04  0.63884897876E+03 0.  0.
         13    1    3    3    0    0 -0.29396861312E+03 -0.92605197038E+02 -0.30252587026E+03  0.43187402121E+03  0.00000000000E+00 0.  1.
          1    1    3    3  501    0  0.29430284662E+03  0.89769877070E+02 -0.59435255573E+03  0.66927405213E+03  0.00000000000E+00 0.  1.
         21    1    1    2  502  501 -0.33423349920E+00  0.28353199678E+01  0.10782987178E+01  0.30517993835E+01  0.00000000000E+00 0.  1.
<mgrwt>
<rscale>  1 0.63885536E+03</rscale>
<asrwt>0</asrwt>
<pdfrwt beam="1">  1        1 0.37890943E+00 0.63885536E+03</pdfrwt>
<pdfrwt beam="2">0</pdfrwt>
<totfact> 0.16626592E+00</totfact>
</mgrwt>
</event>
<event>
 6    1  0.1213626E-003  0.6369858E+03  0.7818608E-02  0.9831511E-01
          1   -1    0    0  502    0  0.00000000000E+00  0.00000000000E+00  0.10149908281E+03  0.10149908281E+03  0.00000000000E+00 0.  1.
         13   -1    0    0    0    0 -0.00000000000E+00 -0.00000000000E+00 -0.10000000000E+04  0.10000000000E+04  0.00000000000E+00 0.  1.
    9000005    2    1    2  501    0 -0.15451238034E-01  0.12736754180E-01 -0.89856046115E+03  0.11014362620E+04  0.63698582135E+03 0.  0.
         13    1    3    3    0    0 -0.22961191969E+02 -0.27656452667E+03 -0.71948059774E+03  0.77114686297E+03  0.00000000000E+00 0.  1.
          3    1    3    3  501    0  0.22945740731E+02  0.27657726342E+03 -0.17907986341E+03  0.33028939907E+03  0.00000000000E+00 0.  1.
         21    1    1    2  502  501  0.15451238034E-01 -0.12736754180E-01  0.59543956441E-01  0.62820764183E-01  0.00000000000E+00 0.  1.
<mgrwt>
<rscale>  1 0.63698582E+03</rscale>
<asrwt>0</asrwt>
<pdfrwt beam="1">  1        1 0.36908835E+00 0.63698582E+03</pdfrwt>
<pdfrwt beam="2">0</pdfrwt>
<totfact> 0.18372069E+00</totfact>
</mgrwt>
</event>
<event>
 6    1  0.1213626E-003  0.7124830E+03  0.7818608E-02  0.9696120E-01
          1   -1    0    0  502    0  0.00000000000E+00  0.00000000000E+00  0.12691491363E+03  0.12691491363E+03  0.00000000000E+00 0.  1.
         13   -1    0    0    0    0 -0.00000000000E+00 -0.00000000000E+00 -0.10000000000E+04  0.10000000000E+04  0.00000000000E+00 0.  1.
    9000005    2    1    2  501    0  0.11763598117E-01  0.12691423152E-01 -0.87307509514E+03  0.11268949317E+04  0.71248302782E+03 0.  0.
         13    1    3    3    0    0 -0.49733650778E+02 -0.13662534369E+03 -0.95091049036E+03  0.96196189178E+03  0.00000000000E+00 0.  1.
          3    1    3    3  501    0  0.49745414376E+02  0.13663803511E+03  0.77835395223E+02  0.16493303987E+03  0.00000000000E+00 0.  1.
         21    1    1    2  502  501 -0.11763598117E-01 -0.12691423152E-01 -0.99912336486E-02  0.19981972177E-01  0.00000000000E+00 0.  1.
<mgrwt>
<rscale>  1 0.71248303E+03</rscale>
<asrwt>0</asrwt>
<pdfrwt beam="1">  1        1 0.46150975E+00 0.71248303E+03</pdfrwt>
<pdfrwt beam="2">0</pdfrwt>
<totfact> 0.69389434E-01</totfact>
</mgrwt>
</event>
<event>
 6    1  0.1213626E-003  0.6463843E+03  0.7818608E-02  0.9813588E-01
          1   -1    0    0  502    0  0.00000000000E+00  0.00000000000E+00  0.10452167557E+03  0.10452167557E+03  0.00000000000E+00 0.  1.
         13   -1    0    0    0    0 -0.00000000000E+00 -0.00000000000E+00 -0.10000000000E+04  0.10000000000E+04  0.00000000000E+00 0.  1.
    9000005    2    1    2  501    0 -0.90294786671E-03  0.15807972635E-02 -0.89554681785E+03  0.11044531580E+04  0.64638430919E+03 0.  0.
         13    1    3    3    0    0 -0.47397651767E+02  0.13466192611E+03  0.47659012816E+02  0.15050499407E+03  0.00000000000E+00 0.  1.
          3    1    3    3  501    0  0.47396748819E+02 -0.13466034531E+03 -0.94320583066E+03  0.95394816389E+03  0.00000000000E+00 0.  1.
         21    1    1    2  502  501  0.90294786671E-03 -0.15807972635E-02  0.68493416580E-01  0.68517606129E-01  0.00000000000E+00 0.  1.
<mgrwt>
<rscale>  1 0.64638431E+03</rscale>
<asrwt>0</asrwt>
<pdfrwt beam="1">  1        1 0.38007962E+00 0.64638431E+03</pdfrwt>
<pdfrwt beam="2">0</pdfrwt>
<totfact> 0.16407355E+00</totfact>
</mgrwt>
</event>
<event>
 6    1  0.1213626E-003  0.6173385E+03  0.7818608E-02  0.9870073E-01
          1   -1    0    0  502    0  0.00000000000E+00  0.00000000000E+00  0.95316961928E+02  0.95316961928E+02  0.00000000000E+00 0.  1.
         13   -1    0    0    0    0 -0.00000000000E+00 -0.00000000000E+00 -0.10000000000E+04  0.10000000000E+04  0.00000000000E+00 0.  1.
    9000005    2    1    2  501    0  0.56349932648E-02 -0.33761837726E-02 -0.90472300295E+03  0.10952764608E+04  0.61733849176E+03 0.  0.
         13    1    3    3    0    0 -0.19380324979E+03  0.22178972893E+03 -0.28854942861E+03  0.41232409126E+03  0.00000000000E+00 0.  1.
          1    1    3    3  501    0  0.19380888478E+03 -0.22179310511E+03 -0.61617357435E+03  0.68295236951E+03  0.00000000000E+00 0.  1.
         21    1    1    2  502  501 -0.56349932648E-02  0.33761837726E-02  0.39964882668E-01  0.40501155695E-01  0.00000000000E+00 0. -1.
<mgrwt>
<rscale>  1 0.61733849E+03</rscale>
<asrwt>0</asrwt>
<pdfrwt beam="1">  1        1 0.34660787E+00 0.61733849E+03</pdfrwt>
<pdfrwt beam="2">0</pdfrwt>
<totfact> 0.23117501E+00</totfact>
</mgrwt>
</event>
<event>
 6    1  0.1213626E-003  0.6399125E+03  0.7818608E-02  0.9825894E-01
          1   -1    0    0  502    0  0.00000000000E+00  0.00000000000E+00  0.10237209578E+03  0.10237209578E+03  0.00000000000E+00 0.  1.
         13   -1    0    0    0    0 -0.00000000000E+00 -0.00000000000E+00 -0.10000000000E+04  0.10000000000E+04  0.00000000000E+00 0.  1.
    9000005    2    1    2  501    0 -0.26158602026E-04 -0.56651812770E-05 -0.89762800284E+03  0.11023719936E+04  0.63991247900E+03 0.  0.
         13    1    3    3    0    0  0.16960299494E+03 -0.26524978868E+03 -0.35061503100E+03  0.47122555772E+03  0.00000000000E+00 0.  1.
          3    1    3    3  501    0 -0.16960302110E+03  0.26524978301E+03 -0.54701297184E+03  0.63114643587E+03  0.00000000000E+00 0.  1.
         21    1    1    2  502  501  0.26158602031E-04  0.56651813098E-05  0.98617990968E-04  0.10218549252E-03  0.00000000000E+00 0.  1.
<mgrwt>
<rscale>  1 0.63991248E+03</rscale>
<asrwt>0</asrwt>
<pdfrwt beam="1">  1        1 0.37226295E+00 0.63991248E+03</pdfrwt>
<pdfrwt beam="2">0</pdfrwt>
<totfact> 0.17781970E+00</totfact>
</mgrwt>
</event>
<event>
 6    1  0.1213626E-003  0.5866719E+03  0.7818608E-02  0.9933450E-01
          1   -1    0    0  502    0  0.00000000000E+00  0.00000000000E+00  0.86597225593E+02  0.86597225593E+02  0.00000000000E+00 0.  1.
         13   -1    0    0    0    0 -0.00000000000E+00 -0.00000000000E+00 -0.10000000000E+04  0.10000000000E+04  0.00000000000E+00 0.  1.
    9000005    2    1    2  501    0 -0.16233666500E+00  0.62954413225E-01 -0.91393905593E+03  0.10860333867E+04  0.58667187481E+03 0.  0.
         13    1    3    3    0    0  0.30792148836E+02 -0.29006926414E+03 -0.51349356498E+03  0.59056242320E+03  0.00000000000E+00 0.  1.
          1    1    3    3  501    0 -0.30954485501E+02  0.29013221855E+03 -0.40044549096E+03  0.49547096347E+03  0.00000000000E+00 0.  1.
         21    1    1    2  502  501  0.16233666500E+00 -0.62954413225E-01  0.53628152780E+00  0.56383892026E+00  0.00000000000E+00 0.  1.
<mgrwt>
<rscale>  1 0.58667190E+03</rscale>
<asrwt>0</asrwt>
<pdfrwt beam="1">  1        1 0.31489967E+00 0.58667190E+03</pdfrwt>
<pdfrwt beam="2">0</pdfrwt>
<totfact> 0.31894984E+00</totfact>
</mgrwt>
</event>
<event>
 6    1  0.1213626E-003  0.6583077E+03  0.7818608E-02  0.9791314E-01
          1   -1    0    0  502    0  0.00000000000E+00  0.00000000000E+00  0.10835075538E+03  0.10835075538E+03  0.00000000000E+00 0.  1.
         13   -1    0    0    0    0 -0.00000000000E+00 -0.00000000000E+00 -0.10000000000E+04  0.10000000000E+04  0.00000000000E+00 0.  1.
    9000005    2    1    2  501    0  0.23744676093E-01  0.48201449655E-02 -0.89162942151E+03  0.11083194504E+04  0.65830766237E+03 0.  0.
         13    1    3    3    0    0  0.88113561434E+02  0.31018791620E+03 -0.55705736632E+03  0.64365631546E+03  0.00000000000E+00 0.  1.
          1    1    3    3  501    0 -0.88089816758E+02 -0.31018309605E+03 -0.33457205519E+03  0.46466313498E+03  0.00000000000E+00 0.  1.
         21    1    1    2  502  501 -0.23744676093E-01 -0.48201449655E-02 -0.19823115580E-01  0.31304941328E-01  0.00000000000E+00 0. -1.
<mgrwt>
<rscale>  1 0.65830766E+03</rscale>
<asrwt>0</asrwt>
<pdfrwt beam="1">  1        1 0.39400358E+00 0.65830766E+03</pdfrwt>
<pdfrwt beam="2">0</pdfrwt>
<totfact> 0.14204460E+00</totfact>
</mgrwt>
</event>
<event>
 6    1  0.1213626E-003  0.6340146E+03  0.7818608E-02  0.9837246E-01
          1   -1    0    0  502    0  0.00000000000E+00  0.00000000000E+00  0.10315353066E+03  0.10315353066E+03  0.00000000000E+00 0.  1.
         13   -1    0    0    0    0 -0.00000000000E+00 -0.00000000000E+00 -0.10000000000E+04  0.10000000000E+04  0.00000000000E+00 0.  1.
    9000005    2    1    2  501    0 -0.10256461912E+01  0.14060506057E+01 -0.89918961604E+03  0.11002347527E+04  0.63401223687E+03 0.  0.
         13    1    3    3    0    0 -0.29151202781E+02  0.10975376819E+03 -0.96414860625E+03  0.97081317316E+03  0.00000000000E+00 0.  1.
          3    1    3    3  501    0  0.28125556590E+02 -0.10834771758E+03  0.64958990209E+02  0.12942157953E+03  0.00000000000E+00 0.  1.
         21    1    1    2  502  501  0.10256461912E+01 -0.14060506057E+01  0.23431466988E+01  0.29187779751E+01  0.00000000000E+00 0.  1.
<mgrwt>
<rscale>  1 0.63401463E+03</rscale>
<asrwt>0</asrwt>
<pdfrwt beam="1">  1        1 0.37510454E+00 0.63401463E+03</pdfrwt>
<pdfrwt beam="2">0</pdfrwt>
<totfact> 0.17296248E+00</totfact>
</mgrwt>
</event>
<event>
 6    1  0.1213626E-003  0.6240527E+03  0.7818608E-02  0.9856724E-01
          1   -1    0    0  502    0  0.00000000000E+00  0.00000000000E+00  0.98241425106E+02  0.98241425106E+02  0.00000000000E+00 0.  1.
         13   -1    0    0    0    0 -0.00000000000E+00 -0.00000000000E+00 -0.10000000000E+04  0.10000000000E+04  0.00000000000E+00 0.  1.
    9000005    2    1    2  501    0  0.20891109641E+00  0.23850241431E+00 -0.90260814255E+03  0.10973346217E+04  0.62405265195E+03 0.  0.
         13    1    3    3    0    0 -0.22257872413E+03 -0.13966745889E+03 -0.15566415227E+03  0.30541711774E+03  0.00000000000E+00 0.  1.
          3    1    3    3  501    0  0.22278763523E+03  0.13990596130E+03 -0.74694399028E+03  0.79191750393E+03  0.00000000000E+00 0.  1.
         21    1    1    2  502  501 -0.20891109641E+00 -0.23850241431E+00  0.84956766050E+00  0.90680342832E+00  0.00000000000E+00 0. -1.
<mgrwt>
<rscale>  1 0.62405273E+03</rscale>
<asrwt>0</asrwt>
<pdfrwt beam="1">  1        1 0.35724230E+00 0.62405273E+03</pdfrwt>
<pdfrwt beam="2">0</pdfrwt>
<totfact> 0.20751505E+00</totfact>
</mgrwt>
</event>
<event>
 6    1  0.1213626E-003  0.6492141E+03  0.7818608E-02  0.9808255E-01
          1   -1    0    0  502    0  0.00000000000E+00  0.00000000000E+00  0.10544849519E+03  0.10544849519E+03  0.00000000000E+00 0.  1.
         13   -1    0    0    0    0 -0.00000000000E+00 -0.00000000000E+00 -0.10000000000E+04  0.10000000000E+04  0.00000000000E+00 0.  1.
    9000005    2    1    2  501    0 -0.21491796480E-02 -0.27218926834E-03 -0.89463025979E+03  0.11053697104E+04  0.64921405943E+03 0.  0.
         13    1    3    3    0    0 -0.81093333685E+02  0.12538827535E+03  0.43418077207E+02  0.15551037841E+03  0.00000000000E+00 0.  1.
          1    1    3    3  501    0  0.81091184505E+02 -0.12538854754E+03 -0.93804833700E+03  0.94985933201E+03  0.00000000000E+00 0.  1.
         21    1    1    2  502  501  0.21491796480E-02  0.27218926835E-03  0.78754984110E-01  0.78784773797E-01  0.00000000000E+00 0.  1.
<mgrwt>
<rscale>  1 0.64921406E+03</rscale>
<asrwt>0</asrwt>
<pdfrwt beam="1">  1        1 0.38344988E+00 0.64921406E+03</pdfrwt>
<pdfrwt beam="2">0</pdfrwt>
<totfact> 0.15846342E+00</totfact>
</mgrwt>
</event>
<event>
 6    1  0.1213626E-003  0.6500168E+03  0.7818608E-02  0.9806748E-01
          1   -1    0    0  502    0  0.00000000000E+00  0.00000000000E+00  0.10563298018E+03  0.10563298018E+03  0.00000000000E+00 0.  1.
         13   -1    0    0    0    0 -0.00000000000E+00 -0.00000000000E+00 -0.10000000000E+04  0.10000000000E+04  0.00000000000E+00 0.  1.
    9000005    2    1    2  501    0 -0.14434287451E-02 -0.32526936791E-02 -0.89436807311E+03  0.11056292690E+04  0.65001679227E+03 0.  0.
         13    1    3    3    0    0  0.29997154028E+03 -0.12482331345E+03 -0.46106981632E+03  0.56404712576E+03  0.00000000000E+00 0.  1.
          3    1    3    3  501    0 -0.29997298371E+03  0.12482006076E+03 -0.43329825679E+03  0.54158214323E+03  0.00000000000E+00 0.  1.
         21    1    1    2  502  501  0.14434287451E-02  0.32526936791E-02  0.10532858334E-02  0.37111876481E-02  0.00000000000E+00 0. -1.
<mgrwt>
<rscale>  1 0.65001679E+03</rscale>
<asrwt>0</asrwt>
<pdfrwt beam="1">  1        1 0.38412074E+00 0.65001679E+03</pdfrwt>
<pdfrwt beam="2">0</pdfrwt>
<totfact> 0.15736176E+00</totfact>
</mgrwt>
</event>
<event>
 6    1  0.1213626E-003  0.6578285E+03  0.7818608E-02  0.9792199E-01
          1   -1    0    0  502    0  0.00000000000E+00  0.00000000000E+00  0.10824221050E+03  0.10824221050E+03  0.00000000000E+00 0.  1.
         13   -1    0    0    0    0 -0.00000000000E+00 -0.00000000000E+00 -0.10000000000E+04  0.10000000000E+04  0.00000000000E+00 0.  1.
    9000005    2    1    2  501    0 -0.19097468479E-02 -0.13175783794E-02 -0.89181538560E+03  0.11081845677E+04  0.65782851416E+03 0.  0.
         13    1    3    3    0    0 -0.20524264805E+02  0.25215320113E+03 -0.80000321138E+03  0.83905161969E+03  0.00000000000E+00 0.  1.
          1    1    3    3  501    0  0.20522355058E+02 -0.25215451871E+03 -0.91812174229E+02  0.26913294800E+03  0.00000000000E+00 0.  1.
         21    1    1    2  502  501  0.19097468479E-02  0.13175783794E-02  0.57596104223E-01  0.57642817137E-01  0.00000000000E+00 0. -1.
<mgrwt>
<rscale>  1 0.65782851E+03</rscale>
<asrwt>0</asrwt>
<pdfrwt beam="1">  1        1 0.39360887E+00 0.65782851E+03</pdfrwt>
<pdfrwt beam="2">0</pdfrwt>
<totfact> 0.14263216E+00</totfact>
</mgrwt>
</event>
<event>
 6    1  0.1213626E-003  0.6468095E+03  0.7818608E-02  0.9812784E-01
          1   -1    0    0  502    0  0.00000000000E+00  0.00000000000E+00  0.10459076632E+03  0.10459076632E+03  0.00000000000E+00 0.  1.
         13   -1    0    0    0    0 -0.00000000000E+00 -0.00000000000E+00 -0.10000000000E+04  0.10000000000E+04  0.00000000000E+00 0.  1.
    9000005    2    1    2  501    0  0.25866895299E-04 -0.28092548121E-04 -0.89540936273E+03  0.11045906317E+04  0.64680950585E+03 0.  0.
         13    1    3    3    0    0 -0.18923472262E+03 -0.19030799441E+03 -0.75587583218E+03  0.80210671774E+03  0.00000000000E+00 0.  1.
          1    1    3    3  501    0  0.18923474849E+03  0.19030796631E+03 -0.13953353055E+03  0.30248391400E+03  0.00000000000E+00 0.  1.
         21    1    1    2  502  501 -0.25866895287E-04  0.28092548116E-04  0.12904952212E-03  0.13458107851E-03  0.00000000000E+00 0. -1.
<mgrwt>
<rscale>  1 0.64680951E+03</rscale>
<asrwt>0</asrwt>
<pdfrwt beam="1">  1        1 0.38033086E+00 0.64680951E+03</pdfrwt>
<pdfrwt beam="2">0</pdfrwt>
<totfact> 0.16364245E+00</totfact>
</mgrwt>
</event>
<event>
 6    1  0.1213626E-003  0.6489202E+03  0.7818608E-02  0.9808807E-01
          1   -1    0    0  502    0  0.00000000000E+00  0.00000000000E+00  0.10527449687E+03  0.10527449687E+03  0.00000000000E+00 0.  1.
         13   -1    0    0    0    0 -0.00000000000E+00 -0.00000000000E+00 -0.10000000000E+04  0.10000000000E+04  0.00000000000E+00 0.  1.
    9000005    2    1    2  501    0 -0.61479207716E-05  0.29722193610E-04 -0.89472563325E+03  0.11052743633E+04  0.64892022568E+03 0.  0.
         13    1    3    3    0    0  0.26570162876E+03 -0.10614068223E+01 -0.13019249451E+03  0.29588607222E+03  0.00000000000E+00 0.  1.
          1    1    3    3  501    0 -0.26570163491E+03  0.10614365445E+01 -0.76453313874E+03  0.80938829104E+03  0.00000000000E+00 0.  1.
         21    1    1    2  502  501  0.61479207924E-05 -0.29722193610E-04  0.13011266150E-03  0.13360580229E-03  0.00000000000E+00 0.  1.
<mgrwt>
<rscale>  1 0.64892023E+03</rscale>
<asrwt>0</asrwt>
<pdfrwt beam="1">  1        1 0.38281716E+00 0.64892023E+03</pdfrwt>
<pdfrwt beam="2">0</pdfrwt>
<totfact> 0.15949556E+00</totfact>
</mgrwt>
</event>
<event>
 6    1  0.1213626E-003  0.6130421E+03  0.7818608E-02  0.9878711E-01
          1   -1    0    0  502    0  0.00000000000E+00  0.00000000000E+00  0.94518517751E+02  0.94518517751E+02  0.00000000000E+00 0.  1.
         13   -1    0    0    0    0 -0.00000000000E+00 -0.00000000000E+00 -0.10000000000E+04  0.10000000000E+04  0.00000000000E+00 0.  1.
    9000005    2    1    2  501    0 -0.17587751928E-01 -0.13414818987E-01 -0.90604461752E+03  0.10939549482E+04  0.61304206978E+03 0.  0.
         13    1    3    3    0    0  0.12891674656E+03  0.15384961940E+03 -0.86638370654E+03  0.88933118684E+03  0.00000000000E+00 0.  1.
          3    1    3    3  501    0 -0.12893433431E+03 -0.15386303422E+03 -0.39660910981E+02  0.20462376138E+03  0.00000000000E+00 0.  1.
         21    1    1    2  502  501  0.17587751928E-01  0.13414818987E-01  0.56313526773E+00  0.56356953089E+00  0.00000000000E+00 0. -1.
<mgrwt>
<rscale>  1 0.61304207E+03</rscale>
<asrwt>0</asrwt>
<pdfrwt beam="1">  1        1 0.34370443E+00 0.61304207E+03</pdfrwt>
<pdfrwt beam="2">0</pdfrwt>
<totfact> 0.23817917E+00</totfact>
</mgrwt>
</event>
<event>
 6    1  0.1213626E-003  0.6492875E+03  0.7818608E-02  0.9808117E-01
          1   -1    0    0  502    0  0.00000000000E+00  0.00000000000E+00  0.11202263391E+03  0.11202263391E+03  0.00000000000E+00 0.  1.
         13   -1    0    0    0    0 -0.00000000000E+00 -0.00000000000E+00 -0.10000000000E+04  0.10000000000E+04  0.00000000000E+00 0.  1.
    9000005    2    1    2  501    0  0.16142015648E+01  0.43628967009E+01 -0.89369220507E+03  0.11046537874E+04  0.64927081569E+03 0.  0.
         13    1    3    3    0    0 -0.29183650438E+03 -0.11449842827E+03 -0.57803492609E+03  0.65757342643E+03  0.00000000000E+00 0.  1.
          3    1    3    3  501    0  0.29345070595E+03  0.11886132497E+03 -0.31565727898E+03  0.44708036097E+03  0.00000000000E+00 0.  1.
         21    1    1    2  502  501 -0.16142015648E+01 -0.43628967009E+01  0.57148389847E+01  0.73688465132E+01  0.00000000000E+00 0. -1.
<mgrwt>
<rscale>  1 0.64928748E+03</rscale>
<asrwt>0</asrwt>
<pdfrwt beam="1">  1        1 0.40735589E+00 0.64928748E+03</pdfrwt>
<pdfrwt beam="2">0</pdfrwt>
<totfact> 0.12405678E+00</totfact>
</mgrwt>
</event>
<event>
 6    1  0.1213626E-003  0.5666693E+03  0.7818608E-02  0.9977076E-01
          1   -1    0    0  502    0  0.00000000000E+00  0.00000000000E+00  0.80323359800E+02  0.80323359800E+02  0.00000000000E+00 0.  1.
         13   -1    0    0    0    0 -0.00000000000E+00 -0.00000000000E+00 -0.10000000000E+04  0.10000000000E+04  0.00000000000E+00 0.  1.
    9000005    2    1    2  501    0  0.24388225488E-02  0.13763369542E-02 -0.91972143178E+03  0.10802784808E+04  0.56666928974E+03 0.  0.
         13    1    3    3    0    0  0.13150113179E+03  0.19001301298E+03 -0.14730217372E+03  0.27403544140E+03  0.00000000000E+00 0.  1.
          1    1    3    3  501    0 -0.13149869297E+03 -0.19001163664E+03 -0.77241925806E+03  0.80624303937E+03  0.00000000000E+00 0.  1.
         21    1    1    2  502  501 -0.24388225488E-02 -0.13763369542E-02  0.44791576396E-01  0.44879031573E-01  0.00000000000E+00 0. -1.
<mgrwt>
<rscale>  1 0.56666929E+03</rscale>
<asrwt>0</asrwt>
<pdfrwt beam="1">  1        1 0.29208556E+00 0.56666929E+03</pdfrwt>
<pdfrwt beam="2">0</pdfrwt>
<totfact> 0.40151690E+00</totfact>
</mgrwt>
</event>
<event>
 6    1  0.1213626E-003  0.6458516E+03  0.7818608E-02  0.9814595E-01
          1   -1    0    0  502    0  0.00000000000E+00  0.00000000000E+00  0.10428184146E+03  0.10428184146E+03  0.00000000000E+00 0.  1.
         13   -1    0    0    0    0 -0.00000000000E+00 -0.00000000000E+00 -0.10000000000E+04  0.10000000000E+04  0.00000000000E+00 0.  1.
    9000005    2    1    2  501    0  0.23221615376E-02 -0.66985355275E-04 -0.89571533574E+03  0.11042781856E+04  0.64585164595E+03 0.  0.
         13    1    3    3    0    0  0.10598056562E+03  0.55446957760E+02 -0.96072766515E+03  0.96814456152E+03  0.00000000000E+00 0.  1.
          3    1    3    3  501    0 -0.10597824346E+03 -0.55447024745E+02  0.65012329409E+02  0.13613362411E+03  0.00000000000E+00 0.  1.
         21    1    1    2  502  501 -0.23221615376E-02  0.66985355273E-04 -0.28227918821E-02  0.36558275745E-02  0.00000000000E+00 0. -1.
<mgrwt>
<rscale>  1 0.64585165E+03</rscale>
<asrwt>0</asrwt>
<pdfrwt beam="1">  1        1 0.37920750E+00 0.64585165E+03</pdfrwt>
<pdfrwt beam="2">0</pdfrwt>
<totfact> 0.16554971E+00</totfact>
</mgrwt>
</event>
<event>
 6    1  0.1213626E-003  0.6537806E+03  0.7818608E-02  0.9799711E-01
          1   -1    0    0  502    0  0.00000000000E+00  0.00000000000E+00  0.10704906060E+03  0.10704906060E+03  0.00000000000E+00 0.  1.
         13   -1    0    0    0    0 -0.00000000000E+00 -0.00000000000E+00 -0.10000000000E+04  0.10000000000E+04  0.00000000000E+00 0.  1.
    9000005    2    1    2  501    0 -0.63053143447E-01  0.23457419224E+00 -0.89305361902E+03  0.11067853489E+04  0.65378053130E+03 0.  0.
         13    1    3    3    0    0  0.16395518097E+03 -0.20776288058E+03 -0.77094361511E+03  0.81510782943E+03  0.00000000000E+00 0.  1.
          3    1    3    3  501    0 -0.16401823411E+03  0.20799745478E+03 -0.12211000391E+03  0.29167751948E+03  0.00000000000E+00 0.  1.
         21    1    1    2  502  501  0.63053143447E-01 -0.23457419224E+00  0.10267961726E+00  0.26371168796E+00  0.00000000000E+00 0. -1.
<mgrwt>
<rscale>  1 0.65378058E+03</rscale>
<asrwt>0</asrwt>
<pdfrwt beam="1">  1        1 0.38927013E+00 0.65378058E+03</pdfrwt>
<pdfrwt beam="2">0</pdfrwt>
<totfact> 0.14921072E+00</totfact>
</mgrwt>
</event>
<event>
 6    1  0.1213626E-003  0.6507441E+03  0.7818608E-02  0.9805384E-01
          1   -1    0    0  502    0  0.00000000000E+00  0.00000000000E+00  0.10590583452E+03  0.10590583452E+03  0.00000000000E+00 0.  1.
         13   -1    0    0    0    0 -0.00000000000E+00 -0.00000000000E+00 -0.10000000000E+04  0.10000000000E+04  0.00000000000E+00 0.  1.
    9000005    2    1    2  501    0  0.30770766176E-03  0.16665880868E-02 -0.89413301301E+03  0.11058669500E+04  0.65074408658E+03 0.  0.
         13    1    3    3    0    0  0.26747613953E+03  0.47357002365E+02 -0.14268671183E+03  0.30683166171E+03  0.00000000000E+00 0.  1.
          3    1    3    3  501    0 -0.26747583182E+03 -0.47355335777E+02 -0.75144630118E+03  0.79903528833E+03  0.00000000000E+00 0.  1.
         21    1    1    2  502  501 -0.30770766177E-03 -0.16665880868E-02  0.38847538709E-01  0.38884488727E-01  0.00000000000E+00 0. -1.
<mgrwt>
<rscale>  1 0.65074409E+03</rscale>
<asrwt>0</asrwt>
<pdfrwt beam="1">  1        1 0.38511294E+00 0.65074409E+03</pdfrwt>
<pdfrwt beam="2">0</pdfrwt>
<totfact> 0.15575895E+00</totfact>
</mgrwt>
</event>
<event>
 6    1  0.1213626E-003  0.6558683E+03  0.7818608E-02  0.9795830E-01
          1   -1    0    0  502    0  0.00000000000E+00  0.00000000000E+00  0.10762737802E+03  0.10762737802E+03  0.00000000000E+00 0.  1.
         13   -1    0    0    0    0 -0.00000000000E+00 -0.00000000000E+00 -0.10000000000E+04  0.10000000000E+04  0.00000000000E+00 0.  1.
    9000005    2    1    2  501    0 -0.50269714057E-02  0.24726506430E-02 -0.89245910224E+03  0.11075407165E+04  0.65586827146E+03 0.  0.
         13    1    3    3    0    0 -0.27477411483E+03  0.16175345958E+03 -0.57569528941E+03  0.65809578491E+03  0.00000000000E+00 0.  1.
          1    1    3    3  501    0  0.27476908785E+03 -0.16175098693E+03 -0.31676381282E+03  0.44944493159E+03  0.00000000000E+00 0.  1.
         21    1    1    2  502  501  0.50269714057E-02 -0.24726506430E-02  0.86480255512E-01  0.86661519927E-01  0.00000000000E+00 0. -1.
<mgrwt>
<rscale>  1 0.65586827E+03</rscale>
<asrwt>0</asrwt>
<pdfrwt beam="1">  1        1 0.39137311E+00 0.65586827E+03</pdfrwt>
<pdfrwt beam="2">0</pdfrwt>
<totfact> 0.14598359E+00</totfact>
</mgrwt>
</event>
<event>
 6    1  0.1213626E-003  0.6478316E+03  0.7818608E-02  0.9810857E-01
          1   -1    0    0  502    0  0.00000000000E+00  0.00000000000E+00  0.10501072508E+03  0.10501072508E+03  0.00000000000E+00 0.  1.
         13   -1    0    0    0    0 -0.00000000000E+00 -0.00000000000E+00 -0.10000000000E+04  0.10000000000E+04  0.00000000000E+00 0.  1.
    9000005    2    1    2  501    0  0.13757597737E-02  0.72051182197E-02 -0.89507840323E+03  0.11049212954E+04  0.64783155303E+03 0.  0.
         13    1    3    3    0    0 -0.27036996870E+03  0.14425441944E+03 -0.62652656429E+03  0.69745594360E+03  0.00000000000E+00 0.  1.
          1    1    3    3  501    0  0.27037134446E+03 -0.14424721432E+03 -0.26855183895E+03  0.40746535183E+03  0.00000000000E+00 0.  1.
         21    1    1    2  502  501 -0.13757597737E-02 -0.72051182197E-02  0.89128314680E-01  0.89429653478E-01  0.00000000000E+00 0.  1.
<mgrwt>
<rscale>  1 0.64783155E+03</rscale>
<asrwt>0</asrwt>
<pdfrwt beam="1">  1        1 0.38185799E+00 0.64783155E+03</pdfrwt>
<pdfrwt beam="2">0</pdfrwt>
<totfact> 0.16109151E+00</totfact>
</mgrwt>
</event>
<event>
 6    1  0.1213626E-003  0.6482391E+03  0.7818608E-02  0.9810089E-01
          1   -1    0    0  502    0  0.00000000000E+00  0.00000000000E+00  0.10507128328E+03  0.10507128328E+03  0.00000000000E+00 0.  1.
         13   -1    0    0    0    0 -0.00000000000E+00 -0.00000000000E+00 -0.10000000000E+04  0.10000000000E+04  0.00000000000E+00 0.  1.
    9000005    2    1    2  501    0  0.47805664176E-02  0.16719738605E-02 -0.89494611454E+03  0.11050531633E+04  0.64823911157E+03 0.  0.
         13    1    3    3    0    0  0.41315076171E+02  0.27786669610E+03 -0.72307395393E+03  0.77572725823E+03  0.00000000000E+00 0.  1.
          3    1    3    3  501    0 -0.41310295604E+02 -0.27786502413E+03 -0.17187216062E+03  0.32932590507E+03  0.00000000000E+00 0.  1.
         21    1    1    2  502  501 -0.47805664176E-02 -0.16719738604E-02  0.17397818133E-01  0.18119972066E-01  0.00000000000E+00 0. -1.
<mgrwt>
<rscale>  1 0.64823911E+03</rscale>
<asrwt>0</asrwt>
<pdfrwt beam="1">  1        1 0.38207820E+00 0.64823911E+03</pdfrwt>
<pdfrwt beam="2">0</pdfrwt>
<totfact> 0.16071910E+00</totfact>
</mgrwt>
</event>
<event>
 6    1  0.1213626E-003  0.6507947E+03  0.7818608E-02  0.9805289E-01
          1   -1    0    0  502    0  0.00000000000E+00  0.00000000000E+00  0.10589952381E+03  0.10589952381E+03  0.00000000000E+00 0.  1.
         13   -1    0    0    0    0 -0.00000000000E+00 -0.00000000000E+00 -0.10000000000E+04  0.10000000000E+04  0.00000000000E+00 0.  1.
    9000005    2    1    2  501    0 -0.26208154688E-03  0.47265142511E-03 -0.89411657443E+03  0.11058834165E+04  0.65079465443E+03 0.  0.
         13    1    3    3    0    0 -0.21118170514E+03  0.53267606637E+02 -0.36238532700E+02  0.22079035703E+03  0.00000000000E+00 0.  1.
          1    1    3    3  501    0  0.21118144306E+03 -0.53267133986E+02 -0.85787804173E+03  0.88509305948E+03  0.00000000000E+00 0.  1.
         21    1    1    2  502  501  0.26208154690E-03 -0.47265142512E-03  0.16098235308E-01  0.16107304744E-01  0.00000000000E+00 0. -1.
<mgrwt>
<rscale>  1 0.65079465E+03</rscale>
<asrwt>0</asrwt>
<pdfrwt beam="1">  1        1 0.38508999E+00 0.65079465E+03</pdfrwt>
<pdfrwt beam="2">0</pdfrwt>
<totfact> 0.15579390E+00</totfact>
</mgrwt>
</event>
<event>
 6    1  0.1213626E-003  0.6507704E+03  0.7818608E-02  0.9805335E-01
          1   -1    0    0  502    0  0.00000000000E+00  0.00000000000E+00  0.10587701608E+03  0.10587701608E+03  0.00000000000E+00 0.  1.
         13   -1    0    0    0    0 -0.00000000000E+00 -0.00000000000E+00 -0.10000000000E+04  0.10000000000E+04  0.00000000000E+00 0.  1.
    9000005    2    1    2  501    0  0.20345419967E-02 -0.12952494836E-02 -0.89412331740E+03  0.11058745813E+04  0.65077037640E+03 0.  0.
         13    1    3    3    0    0  0.46395667418E+02  0.20702793426E+03 -0.27831625406E+02  0.21398066009E+03  0.00000000000E+00 0.  1.
          3    1    3    3  501    0 -0.46393632876E+02 -0.20702922951E+03 -0.86629169199E+03  0.89189392119E+03  0.00000000000E+00 0.  1.
         21    1    1    2  502  501 -0.20345419967E-02  0.12952494836E-02  0.33347539174E-03  0.24347973629E-02  0.00000000000E+00 0. -1.
<mgrwt>
<rscale>  1 0.65077038E+03</rscale>
<asrwt>0</asrwt>
<pdfrwt beam="1">  1        1 0.38500814E+00 0.65077038E+03</pdfrwt>
<pdfrwt beam="2">0</pdfrwt>
<totfact> 0.15592453E+00</totfact>
</mgrwt>
</event>
<event>
 6    1  0.1213626E-003  0.6375922E+03  0.7818608E-02  0.9830344E-01
          1   -1    0    0  502    0  0.00000000000E+00  0.00000000000E+00  0.10165134503E+03  0.10165134503E+03  0.00000000000E+00 0.  1.
         13   -1    0    0    0    0 -0.00000000000E+00 -0.00000000000E+00 -0.10000000000E+04  0.10000000000E+04  0.00000000000E+00 0.  1.
    9000005    2    1    2  501    0  0.38500940951E-01 -0.18220895069E-01 -0.89834096069E+03  0.11016080608E+04  0.63759221775E+03 0.  0.
         13    1    3    3    0    0 -0.69138293155E+02 -0.31048619373E+03 -0.41243729030E+03  0.52085151292E+03  0.00000000000E+00 0.  1.
          1    1    3    3  501    0  0.69176794096E+02  0.31046797284E+03 -0.48590367039E+03  0.58075654787E+03  0.00000000000E+00 0.  1.
         21    1    1    2  502  501 -0.38500940951E-01  0.18220895069E-01 -0.76942793504E-02  0.43284239695E-01  0.00000000000E+00 0.  1.
<mgrwt>
<rscale>  1 0.63759222E+03</rscale>
<asrwt>0</asrwt>
<pdfrwt beam="1">  1        1 0.36964203E+00 0.63759222E+03</pdfrwt>
<pdfrwt beam="2">0</pdfrwt>
<totfact> 0.18267501E+00</totfact>
</mgrwt>
</event>
<event>
 6    1  0.1213626E-003  0.6535816E+03  0.7818608E-02  0.9800082E-01
          1   -1    0    0  502    0  0.00000000000E+00  0.00000000000E+00  0.10759046800E+03  0.10759046800E+03  0.00000000000E+00 0.  1.
         13   -1    0    0    0    0 -0.00000000000E+00 -0.00000000000E+00 -0.10000000000E+04  0.10000000000E+04  0.00000000000E+00 0.  1.
    9000005    2    1    2  501    0 -0.17084139878E-01 -0.32459013243E-01 -0.89320730700E+03  0.11067918502E+04  0.65358159782E+03 0.  0.
         13    1    3    3    0    0 -0.30260789086E+03  0.68586159820E+02 -0.62029595485E+03  0.69357239603E+03  0.00000000000E+00 0.  1.
          1    1    3    3  501    0  0.30259080672E+03 -0.68618618833E+02 -0.27291135216E+03  0.41321945416E+03  0.00000000000E+00 0.  1.
         21    1    1    2  502  501  0.17084139878E-01  0.32459013243E-01  0.79777500541E+00  0.79861781512E+00  0.00000000000E+00 0.  1.
<mgrwt>
<rscale>  1 0.65358160E+03</rscale>
<asrwt>0</asrwt>
<pdfrwt beam="1">  1        1 0.39123889E+00 0.65358160E+03</pdfrwt>
<pdfrwt beam="2">0</pdfrwt>
<totfact> 0.14624609E+00</totfact>
</mgrwt>
</event>
<event>
 6    1  0.1213626E-003  0.6394974E+03  0.7818608E-02  0.9826689E-01
          1   -1    0    0  502    0  0.00000000000E+00  0.00000000000E+00  0.10233434388E+03  0.10233434388E+03  0.00000000000E+00 0.  1.
         13   -1    0    0    0    0 -0.00000000000E+00 -0.00000000000E+00 -0.10000000000E+04  0.10000000000E+04  0.00000000000E+00 0.  1.
    9000005    2    1    2  501    0  0.11739184960E-01 -0.73361384355E-02 -0.89776021219E+03  0.11022387799E+04  0.63949740351E+03 0.  0.
         13    1    3    3    0    0  0.73662930057E+02 -0.28335267595E+03 -0.22730345070E+03  0.37065054287E+03  0.00000000000E+00 0.  1.
          1    1    3    3  501    0 -0.73651190872E+02  0.28334533981E+03 -0.67045676149E+03  0.73158823701E+03  0.00000000000E+00 0.  1.
         21    1    1    2  502  501 -0.11739184960E-01  0.73361384355E-02  0.94556068923E-01  0.95563997200E-01  0.00000000000E+00 0.  1.
<mgrwt>
<rscale>  1 0.63949740E+03</rscale>
<asrwt>0</asrwt>
<pdfrwt beam="1">  1        1 0.37212567E+00 0.63949740E+03</pdfrwt>
<pdfrwt beam="2">0</pdfrwt>
<totfact> 0.17808047E+00</totfact>
</mgrwt>
</event>
<event>
 6    1  0.1213626E-003  0.6332244E+03  0.7818608E-02  0.9838777E-01
          1   -1    0    0  502    0  0.00000000000E+00  0.00000000000E+00  0.12897447643E+03  0.12897447643E+03  0.00000000000E+00 0.  1.
         13   -1    0    0    0    0 -0.00000000000E+00 -0.00000000000E+00 -0.10000000000E+04  0.10000000000E+04  0.00000000000E+00 0.  1.
    9000005    2    1    2  501    0 -0.16417223369E+01 -0.27733368229E+01 -0.89965724085E+03  0.11001619465E+04  0.63321621171E+03 0.  0.
         13    1    3    3    0    0 -0.31313593828E+03  0.34525794640E+02 -0.38550005514E+03  0.49785182419E+03  0.00000000000E+00 0.  1.
          1    1    3    3  501    0  0.31149421594E+03 -0.37299131463E+02 -0.51415718570E+03  0.60231012227E+03  0.00000000000E+00 0.  1.
         21    1    1    2  502  501  0.16417223369E+01  0.27733368229E+01  0.28631717279E+02  0.28812529978E+02  0.00000000000E+00 0.  1.
<mgrwt>
<rscale>  1 0.63322441E+03</rscale>
<asrwt>0</asrwt>
<pdfrwt beam="1">  1        1 0.46899909E+00 0.63322441E+03</pdfrwt>
<pdfrwt beam="2">0</pdfrwt>
<totfact> 0.65091664E-01</totfact>
</mgrwt>
</event>
<event>
 6    1  0.1213626E-003  0.6513091E+03  0.7818608E-02  0.9804326E-01
          1   -1    0    0  502    0  0.00000000000E+00  0.00000000000E+00  0.10612736064E+03  0.10612736064E+03  0.00000000000E+00 0.  1.
         13   -1    0    0    0    0 -0.00000000000E+00 -0.00000000000E+00 -0.10000000000E+04  0.10000000000E+04  0.00000000000E+00 0.  1.
    9000005    2    1    2  501    0  0.18340223461E-02  0.11192961099E-01 -0.89394864906E+03  0.11060505094E+04  0.65130909864E+03 0.  0.
         13    1    3    3    0    0  0.21809319588E+03  0.39998905917E+02 -0.41938817451E+02  0.22566217887E+03  0.00000000000E+00 0.  1.
          1    1    3    3  501    0 -0.21809136186E+03 -0.39987712956E+02 -0.85200983160E+03  0.88038833049E+03  0.00000000000E+00 0.  1.
         21    1    1    2  502  501 -0.18340223461E-02 -0.11192961099E-01  0.76009698308E-01  0.76851286606E-01  0.00000000000E+00 0.  1.
<mgrwt>
<rscale>  1 0.65130910E+03</rscale>
<asrwt>0</asrwt>
<pdfrwt beam="1">  1        1 0.38591849E+00 0.65130910E+03</pdfrwt>
<pdfrwt beam="2">0</pdfrwt>
<totfact> 0.15446980E+00</totfact>
</mgrwt>
</event>
<event>
 6    1  0.1213626E-003  0.6364700E+03  0.7818608E-02  0.9832504E-01
          1   -1    0    0  502    0  0.00000000000E+00  0.00000000000E+00  0.10127715797E+03  0.10127715797E+03  0.00000000000E+00 0.  1.
         13   -1    0    0    0    0 -0.00000000000E+00 -0.00000000000E+00 -0.10000000000E+04  0.10000000000E+04  0.00000000000E+00 0.  1.
    9000005    2    1    2  501    0 -0.41656634471E-03 -0.64872470287E-03 -0.89872642933E+03  0.11012734888E+04  0.63647003250E+03 0.  0.
         13    1    3    3    0    0  0.18786361594E+03  0.15380374594E+03 -0.93390855239E+02  0.26013493095E+03  0.00000000000E+00 0.  1.
          1    1    3    3  501    0 -0.18786403251E+03 -0.15380439467E+03 -0.80533557409E+03  0.84113855781E+03  0.00000000000E+00 0.  1.
         21    1    1    2  502  501  0.41656634472E-03  0.64872470288E-03  0.35872983185E-02  0.36692070649E-02  0.00000000000E+00 0. -1.
<mgrwt>
<rscale>  1 0.63647003E+03</rscale>
<asrwt>0</asrwt>
<pdfrwt beam="1">  1        1 0.36828135E+00 0.63647003E+03</pdfrwt>
<pdfrwt beam="2">0</pdfrwt>
<totfact> 0.18524265E+00</totfact>
</mgrwt>
</event>
<event>
 6    1  0.1213626E-003  0.6637929E+03  0.7818608E-02  0.9781236E-01
          1   -1    0    0  502    0  0.00000000000E+00  0.00000000000E+00  0.11016537246E+03  0.11016537246E+03  0.00000000000E+00 0.  1.
         13   -1    0    0    0    0 -0.00000000000E+00 -0.00000000000E+00 -0.10000000000E+04  0.10000000000E+04  0.00000000000E+00 0.  1.
    9000005    2    1    2  501    0  0.20398033351E-03 -0.12715009110E-02 -0.88984468718E+03  0.11101552307E+04  0.66379294138E+03 0.  0.
         13    1    3    3    0    0 -0.13215100648E+03 -0.12754680212E+03  0.17420131823E+02  0.18448722513E+03  0.00000000000E+00 0.  1.
          3    1    3    3  501    0  0.13215121046E+03  0.12754553062E+03 -0.90726481900E+03  0.92566800560E+03  0.00000000000E+00 0.  1.
         21    1    1    2  502  501 -0.20398033351E-03  0.12715009110E-02  0.10059634429E-01  0.10141724084E-01  0.00000000000E+00 0.  1.
<mgrwt>
<rscale>  1 0.66379294E+03</rscale>
<asrwt>0</asrwt>
<pdfrwt beam="1">  1        1 0.40060220E+00 0.66379294E+03</pdfrwt>
<pdfrwt beam="2">0</pdfrwt>
<totfact> 0.13261706E+00</totfact>
</mgrwt>
</event>
<event>
 6    1  0.1213626E-003  0.6499739E+03  0.7818608E-02  0.9806828E-01
          1   -1    0    0  502    0  0.00000000000E+00  0.00000000000E+00  0.10690244307E+03  0.10690244307E+03  0.00000000000E+00 0.  1.
         13   -1    0    0    0    0 -0.00000000000E+00 -0.00000000000E+00 -0.10000000000E+04  0.10000000000E+04  0.00000000000E+00 0.  1.
    9000005    2    1    2  501    0  0.18926899913E+00 -0.14119967962E+01 -0.89393207954E+03  0.11052513871E+04  0.64997233508E+03 0.  0.
         13    1    3    3    0    0  0.17160597213E+03  0.13281730988E+03 -0.35802708833E+02  0.21993381149E+03  0.00000000000E+00 0.  1.
          1    1    3    3  501    0 -0.17141670313E+03 -0.13422930668E+03 -0.85812937071E+03  0.88531757565E+03  0.00000000000E+00 0.  1.
         21    1    1    2  502  501 -0.18926899913E+00  0.14119967962E+01  0.83452260821E+00  0.16510559319E+01  0.00000000000E+00 0. -1.
<mgrwt>
<rscale>  1 0.64997390E+03</rscale>
<asrwt>0</asrwt>
<pdfrwt beam="1">  1        1 0.38873698E+00 0.64997390E+03</pdfrwt>
<pdfrwt beam="2">0</pdfrwt>
<totfact> 0.15013091E+00</totfact>
</mgrwt>
</event>
<event>
 6    1  0.1352074E-003  0.6495005E+03  0.7818608E-02  0.9807717E-01
          1   -1    0    0  502    0  0.00000000000E+00  0.00000000000E+00  0.10546273096E+03  0.10546273096E+03  0.00000000000E+00 0.  1.
         13   -1    0    0    0    0 -0.00000000000E+00 -0.00000000000E+00 -0.10000000000E+04  0.10000000000E+04  0.00000000000E+00 0.  1.
    9000005    2    1    2  501    0  0.48965847270E-05  0.15404041875E-04 -0.89453726818E+03  0.11054627148E+04  0.64950049238E+03 0.  0.
         13    1    3    3    0    0 -0.15303780328E+03  0.20681165667E+03 -0.78455681463E+03  0.82566399094E+03  0.00000000000E+00 0.  1.
          1    1    3    3  501    0  0.15303780817E+03 -0.20681164127E+03 -0.10998045355E+03  0.27979872383E+03  0.00000000000E+00 0.  1.
         21    1    1    2  502  501 -0.48965847195E-05 -0.15404041857E-04 -0.85709107334E-06  0.16186279763E-04  0.00000000000E+00 0.  1.
<mgrwt>
<rscale>  1 0.64950049E+03</rscale>
<asrwt>0</asrwt>
<pdfrwt beam="1">  1        1 0.38350165E+00 0.64950049E+03</pdfrwt>
<pdfrwt beam="2">0</pdfrwt>
<totfact> 0.15837160E+00</totfact>
</mgrwt>
</event>
<event>
 6    1  0.1213626E-003  0.6191605E+03  0.7818608E-02  0.9866432E-01
          1   -1    0    0  502    0  0.00000000000E+00  0.00000000000E+00  0.98906791298E+02  0.98906791298E+02  0.00000000000E+00 0.  1.
         13   -1    0    0    0    0 -0.00000000000E+00 -0.00000000000E+00 -0.10000000000E+04  0.10000000000E+04  0.00000000000E+00 0.  1.
    9000005    2    1    2  501    0  0.15112930869E+01 -0.26688118371E+01 -0.90329853178E+03  0.10951292242E+04  0.61915294845E+03 0.  0.
         13    1    3    3    0    0  0.15755924151E+02 -0.31010851468E+03 -0.48286890920E+03  0.57408877667E+03  0.00000000000E+00 0.  1.
          3    1    3    3  501    0 -0.14244631064E+02  0.30743970285E+03 -0.42042962258E+03  0.52104044751E+03  0.00000000000E+00 0.  1.
         21    1    1    2  502  501 -0.15112930869E+01  0.26688118371E+01  0.22053230798E+01  0.37775671142E+01  0.00000000000E+00 0. -1.
<mgrwt>
<rscale>  1 0.61916054E+03</rscale>
<asrwt>0</asrwt>
<pdfrwt beam="1">  1        1 0.35966182E+00 0.61916054E+03</pdfrwt>
<pdfrwt beam="2">0</pdfrwt>
<totfact> 0.20270444E+00</totfact>
</mgrwt>
</event>
<event>
 6    1  0.1213626E-003  0.6353886E+03  0.7818608E-02  0.9834589E-01
          1   -1    0    0  502    0  0.00000000000E+00  0.00000000000E+00  0.10094249882E+03  0.10094249882E+03  0.00000000000E+00 0.  1.
         13   -1    0    0    0    0 -0.00000000000E+00 -0.00000000000E+00 -0.10000000000E+04  0.10000000000E+04  0.00000000000E+00 0.  1.
    9000005    2    1    2  501    0 -0.76084141429E-02  0.66994123823E-02 -0.89906808398E+03  0.11009278439E+04  0.63538861952E+03 0.  0.
         13    1    3    3    0    0 -0.53282023879E+02 -0.26852384460E+03 -0.17022862635E+03  0.32236906554E+03  0.00000000000E+00 0.  1.
          3    1    3    3  501    0  0.53274415464E+02  0.26853054401E+03 -0.72883945763E+03  0.77855877839E+03  0.00000000000E+00 0.  1.
         21    1    1    2  502  501  0.76084141429E-02 -0.66994123823E-02  0.10582799698E-01  0.14654887973E-01  0.00000000000E+00 0.  1.
<mgrwt>
<rscale>  1 0.63538862E+03</rscale>
<asrwt>0</asrwt>
<pdfrwt beam="1">  1        1 0.36706441E+00 0.63538862E+03</pdfrwt>
<pdfrwt beam="2">0</pdfrwt>
<totfact> 0.18757093E+00</totfact>
</mgrwt>
</event>
<event>
 6    1  0.1213626E-003  0.6503098E+03  0.7818608E-02  0.9806198E-01
          1   -1    0    0  502    0  0.00000000000E+00  0.00000000000E+00  0.10572573894E+03  0.10572573894E+03  0.00000000000E+00 0.  1.
         13   -1    0    0    0    0 -0.00000000000E+00 -0.00000000000E+00 -0.10000000000E+04  0.10000000000E+04  0.00000000000E+00 0.  1.
    9000005    2    1    2  501    0 -0.60983224444E-05  0.74152115326E-04 -0.89427424610E+03  0.11057256630E+04  0.65030978363E+03 0.  0.
         13    1    3    3    0    0  0.32101258825E+03  0.55582874796E+01 -0.35967912541E+03  0.48212970209E+03  0.00000000000E+00 0.  1.
          3    1    3    3  501    0 -0.32101259435E+03 -0.55582133275E+01 -0.53459512069E+03  0.62359596096E+03  0.00000000000E+00 0.  1.
         21    1    1    2  502  501  0.60983224612E-05 -0.74152115326E-04 -0.14960318802E-04  0.75891612730E-04  0.00000000000E+00 0. -1.
<mgrwt>
<rscale>  1 0.65030978E+03</rscale>
<asrwt>0</asrwt>
<pdfrwt beam="1">  1        1 0.38445804E+00 0.65030978E+03</pdfrwt>
<pdfrwt beam="2">0</pdfrwt>
<totfact> 0.15681380E+00</totfact>
</mgrwt>
</event>
<event>
 6    1  0.1213626E-003  0.6554298E+03  0.7818608E-02  0.9796644E-01
          1   -1    0    0  502    0  0.00000000000E+00  0.00000000000E+00  0.10941905831E+03  0.10941905831E+03  0.00000000000E+00 0.  1.
         13   -1    0    0    0    0 -0.00000000000E+00 -0.00000000000E+00 -0.10000000000E+04  0.10000000000E+04  0.00000000000E+00 0.  1.
    9000005    2    1    2  501    0 -0.80125008816E-01  0.16258592182E+00 -0.89259844911E+03  0.11073934250E+04  0.65542976244E+03 0.  0.
         13    1    3    3    0    0 -0.18399015355E+03 -0.67741448538E+02 -0.26239620917E+01  0.19608203801E+03  0.00000000000E+00 0.  1.
          1    1    3    3  501    0  0.18391002854E+03  0.67904034460E+02 -0.88997448701E+03  0.91131138698E+03  0.00000000000E+00 0.  1.
         21    1    1    2  502  501  0.80125008816E-01 -0.16258592182E+00  0.20175074187E+01  0.20256333290E+01  0.00000000000E+00 0.  1.
<mgrwt>
<rscale>  1 0.65542979E+03</rscale>
<asrwt>0</asrwt>
<pdfrwt beam="1">  1        1 0.39788832E+00 0.65542979E+03</pdfrwt>
<pdfrwt beam="2">0</pdfrwt>
<totfact> 0.13657665E+00</totfact>
</mgrwt>
</event>
<event>
 6    1  0.1213626E-003  0.6492078E+03  0.7818608E-02  0.9808267E-01
          1   -1    0    0  502    0  0.00000000000E+00  0.00000000000E+00  0.10539708861E+03  0.10539708861E+03  0.00000000000E+00 0.  1.
         13   -1    0    0    0    0 -0.00000000000E+00 -0.00000000000E+00 -0.10000000000E+04  0.10000000000E+04  0.00000000000E+00 0.  1.
    9000005    2    1    2  501    0  0.23870302462E-03  0.14248936767E-02 -0.89463230318E+03  0.11053676613E+04  0.64920775474E+03 0.  0.
         13    1    3    3    0    0 -0.17907302248E+03 -0.26674286144E+03 -0.36839729162E+03  0.48881025560E+03  0.00000000000E+00 0.  1.
          1    1    3    3  501    0  0.17907326118E+03  0.26674428634E+03 -0.52623501156E+03  0.61655740573E+03  0.00000000000E+00 0.  1.
         21    1    1    2  502  501 -0.23870302463E-03 -0.14248936767E-02  0.29391789119E-01  0.29427275931E-01  0.00000000000E+00 0.  1.
<mgrwt>
<rscale>  1 0.64920775E+03</rscale>
<asrwt>0</asrwt>
<pdfrwt beam="1">  1        1 0.38326295E+00 0.64920775E+03</pdfrwt>
<pdfrwt beam="2">0</pdfrwt>
<totfact> 0.15876534E+00</totfact>
</mgrwt>
</event>
<event>
 6    1  0.1213626E-003  0.6342769E+03  0.7818608E-02  0.9836738E-01
          1   -1    0    0  502    0  0.00000000000E+00  0.00000000000E+00  0.10063362550E+03  0.10063362550E+03  0.00000000000E+00 0.  1.
         13   -1    0    0    0    0 -0.00000000000E+00 -0.00000000000E+00 -0.10000000000E+04  0.10000000000E+04  0.00000000000E+00 0.  1.
    9000005    2    1    2  501    0 -0.62722368159E-03 -0.73558462681E-03 -0.89942319865E+03  0.11005767931E+04  0.63427690114E+03 0.  0.
         13    1    3    3    0    0  0.28050705281E+03 -0.83642380705E+01 -0.19338483795E+03  0.34081059653E+03  0.00000000000E+00 0.  1.
          1    1    3    3  501    0 -0.28050768003E+03  0.83635024859E+01 -0.70603836069E+03  0.75976619661E+03  0.00000000000E+00 0.  1.
         21    1    1    2  502  501  0.62722368155E-03  0.73558462681E-03  0.56824145562E-01  0.56832367654E-01  0.00000000000E+00 0. -1.
<mgrwt>
<rscale>  1 0.63427690E+03</rscale>
<asrwt>0</asrwt>
<pdfrwt beam="1">  1        1 0.36594123E+00 0.63427690E+03</pdfrwt>
<pdfrwt beam="2">0</pdfrwt>
<totfact> 0.18974857E+00</totfact>
</mgrwt>
</event>
<event>
 6    1  0.1213626E-003  0.6550977E+03  0.7818608E-02  0.9797260E-01
          1   -1    0    0  502    0  0.00000000000E+00  0.00000000000E+00  0.10743756410E+03  0.10743756410E+03  0.00000000000E+00 0.  1.
         13   -1    0    0    0    0 -0.00000000000E+00 -0.00000000000E+00 -0.10000000000E+04  0.10000000000E+04  0.00000000000E+00 0.  1.
    9000005    2    1    2  501    0 -0.10755478685E-01  0.17949000705E-01 -0.89271094020E+03  0.11072875929E+04  0.65509769509E+03 0.  0.
         13    1    3    3    0    0 -0.13553698905E+03  0.23034625708E+03 -0.76646640748E+03  0.81172681818E+03  0.00000000000E+00 0.  1.
          1    1    3    3  501    0  0.13552623357E+03 -0.23032830808E+03 -0.12624453272E+03  0.29556077468E+03  0.00000000000E+00 0.  1.
         21    1    1    2  502  501  0.10755478685E-01 -0.17949000705E-01  0.14850429462E+00  0.14997123881E+00  0.00000000000E+00 0.  1.
<mgrwt>
<rscale>  1 0.65509770E+03</rscale>
<asrwt>0</asrwt>
<pdfrwt beam="1">  1        1 0.39068288E+00 0.65509770E+03</pdfrwt>
<pdfrwt beam="2">0</pdfrwt>
<totfact> 0.14703775E+00</totfact>
</mgrwt>
</event>
<event>
 6    1  0.1213626E-003  0.6187553E+03  0.7818608E-02  0.9867241E-01
          1   -1    0    0  502    0  0.00000000000E+00  0.00000000000E+00  0.95969942580E+02  0.95969942580E+02  0.00000000000E+00 0.  1.
         13   -1    0    0    0    0 -0.00000000000E+00 -0.00000000000E+00 -0.10000000000E+04  0.10000000000E+04  0.00000000000E+00 0.  1.
    9000005    2    1    2  501    0  0.76939176918E-02 -0.10833855930E-02 -0.90428539086E+03  0.10957144909E+04  0.61875534543E+03 0.  0.
         13    1    3    3    0    0  0.17792169524E+03  0.23028865815E+03 -0.63809722739E+03  0.70132522221E+03  0.00000000000E+00 0.  1.
          1    1    3    3  501    0 -0.17791400132E+03 -0.23028974153E+03 -0.26618816347E+03  0.39438926874E+03  0.00000000000E+00 0.  1.
         21    1    1    2  502  501 -0.76939176918E-02  0.10833855930E-02  0.25533344000E+00  0.25545163079E+00  0.00000000000E+00 0.  1.
<mgrwt>
<rscale>  1 0.61875535E+03</rscale>
<asrwt>0</asrwt>
<pdfrwt beam="1">  1        1 0.34898235E+00 0.61875535E+03</pdfrwt>
<pdfrwt beam="2">0</pdfrwt>
<totfact> 0.22567972E+00</totfact>
</mgrwt>
</event>
<event>
 6    1  0.1213626E-003  0.6672560E+03  0.7818608E-02  0.9774928E-01
          1   -1    0    0  502    0  0.00000000000E+00  0.00000000000E+00  0.11133502907E+03  0.11133502907E+03  0.00000000000E+00 0.  1.
         13   -1    0    0    0    0 -0.00000000000E+00 -0.00000000000E+00 -0.10000000000E+04  0.10000000000E+04  0.00000000000E+00 0.  1.
    9000005    2    1    2  501    0  0.42176069006E-01  0.25267037316E-01 -0.88866512345E+03  0.11112858634E+04  0.66725599738E+03 0.  0.
         13    1    3    3    0    0 -0.26305691900E+03  0.14991441280E+03 -0.67764279128E+03  0.74220820958E+03  0.00000000000E+00 0.  1.
          3    1    3    3  501    0  0.26309909507E+03 -0.14988914576E+03 -0.21102233217E+03  0.36907765377E+03  0.00000000000E+00 0.  1.
         21    1    1    2  502  501 -0.42176069006E-01 -0.25267037316E-01  0.15251188435E-03  0.49165711949E-01  0.00000000000E+00 0. -1.
<mgrwt>
<rscale>  1 0.66725600E+03</rscale>
<asrwt>0</asrwt>
<pdfrwt beam="1">  1        1 0.40485550E+00 0.66725600E+03</pdfrwt>
<pdfrwt beam="2">0</pdfrwt>
<totfact> 0.12685874E+00</totfact>
</mgrwt>
</event>
<event>
 6    1  0.1213626E-003  0.6053039E+03  0.7818608E-02  0.9894463E-01
          1   -1    0    0  502    0  0.00000000000E+00  0.00000000000E+00  0.91751971964E+02  0.91751971964E+02  0.00000000000E+00 0.  1.
         13   -1    0    0    0    0 -0.00000000000E+00 -0.00000000000E+00 -0.10000000000E+04  0.10000000000E+04  0.00000000000E+00 0.  1.
    9000005    2    1    2  501    0 -0.74088891684E-03 -0.20304598472E-02 -0.90840177603E+03  0.10915982088E+04  0.60530394242E+03 0.  0.
         13    1    3    3    0    0 -0.84612995090E+02 -0.15980628774E+03 -0.89187646680E+03  0.91002254948E+03  0.00000000000E+00 0.  1.
          1    1    3    3  501    0  0.84612254201E+02  0.15980425728E+03 -0.16525309234E+02  0.18157565930E+03  0.00000000000E+00 0.  1.
         21    1    1    2  502  501  0.74088891684E-03  0.20304598472E-02  0.15374799425E+00  0.15376318617E+00  0.00000000000E+00 0.  1.
<mgrwt>
<rscale>  1 0.60530394E+03</rscale>
<asrwt>0</asrwt>
<pdfrwt beam="1">  1        1 0.33364424E+00 0.60530394E+03</pdfrwt>
<pdfrwt beam="2">0</pdfrwt>
<totfact> 0.26374103E+00</totfact>
</mgrwt>
</event>
<event>
 6    1  0.1213626E-003  0.6488160E+03  0.7818608E-02  0.9809003E-01
          1   -1    0    0  502    0  0.00000000000E+00  0.00000000000E+00  0.11231961915E+03  0.11231961915E+03  0.00000000000E+00 0.  1.
         13   -1    0    0    0    0 -0.00000000000E+00 -0.00000000000E+00 -0.10000000000E+04  0.10000000000E+04  0.00000000000E+00 0.  1.
    9000005    2    1    2  501    0  0.12847592481E+02 -0.92568491655E+01 -0.88312364374E+03  0.10958419451E+04  0.64862273211E+03 0.  0.
         13    1    3    3    0    0  0.25029098441E+03 -0.13970418060E+03 -0.73087948375E+03  0.78507812014E+03  0.00000000000E+00 0.  1.
          3    1    3    3  501    0 -0.23744339193E+03  0.13044733143E+03 -0.15224415999E+03  0.31076382496E+03  0.00000000000E+00 0.  1.
         21    1    1    2  502  501 -0.12847592481E+02  0.92568491655E+01 -0.45567371089E+01  0.16477674050E+02  0.00000000000E+00 0. -1.
<mgrwt>
<rscale>  1 0.64881600E+03</rscale>
<asrwt>0</asrwt>
<pdfrwt beam="1">  1        1 0.40843584E+00 0.64881600E+03</pdfrwt>
<pdfrwt beam="2">0</pdfrwt>
<totfact> 0.12269456E+00</totfact>
</mgrwt>
</event>
<event>
 6    1  0.1213626E-003  0.6554890E+03  0.7818608E-02  0.9796534E-01
          1   -1    0    0  502    0  0.00000000000E+00  0.00000000000E+00  0.10784789586E+03  0.10784789586E+03  0.00000000000E+00 0.  1.
         13   -1    0    0    0    0 -0.00000000000E+00 -0.00000000000E+00 -0.10000000000E+04  0.10000000000E+04  0.00000000000E+00 0.  1.
    9000005    2    1    2  501    0 -0.23651210121E+00 -0.22161247524E+00 -0.89251508249E+03  0.11073612714E+04  0.65548890756E+03 0.  0.
         13    1    3    3    0    0 -0.25635309207E+03  0.19900497549E+03 -0.36863523523E+03  0.49113320468E+03  0.00000000000E+00 0.  1.
          1    1    3    3  501    0  0.25611657997E+03 -0.19922658796E+03 -0.52387984726E+03  0.61622806675E+03  0.00000000000E+00 0.  1.
         21    1    1    2  502  501  0.23651210121E+00  0.22161247524E+00  0.36297834362E+00  0.48662443541E+00  0.00000000000E+00 0. -1.
<mgrwt>
<rscale>  1 0.65548899E+03</rscale>
<asrwt>0</asrwt>
<pdfrwt beam="1">  1        1 0.39217499E+00 0.65548899E+03</pdfrwt>
<pdfrwt beam="2">0</pdfrwt>
<totfact> 0.14480220E+00</totfact>
</mgrwt>
</event>
<event>
 6    1  0.1213626E-003  0.6526780E+03  0.7818608E-02  0.9801767E-01
          1   -1    0    0  502    0  0.00000000000E+00  0.00000000000E+00  0.10655129836E+03  0.10655129836E+03  0.00000000000E+00 0.  1.
         13   -1    0    0    0    0 -0.00000000000E+00 -0.00000000000E+00 -0.10000000000E+04  0.10000000000E+04  0.00000000000E+00 0.  1.
    9000005    2    1    2  501    0 -0.80292926867E-01 -0.25546915103E-01 -0.89346390050E+03  0.11064656794E+04  0.65267798425E+03 0.  0.
         13    1    3    3    0    0 -0.81648642422E+02 -0.14908623220E+03 -0.91904486596E+03  0.93463183719E+03  0.00000000000E+00 0.  1.
          3    1    3    3  501    0  0.81568349495E+02  0.14906068529E+03  0.25580965468E+02  0.17183384222E+03  0.00000000000E+00 0.  1.
         21    1    1    2  502  501  0.80292926867E-01  0.25546915103E-01  0.15198857877E-01  0.85618948002E-01  0.00000000000E+00 0.  1.
<mgrwt>
<rscale>  1 0.65267799E+03</rscale>
<asrwt>0</asrwt>
<pdfrwt beam="1">  1        1 0.38746008E+00 0.65267799E+03</pdfrwt>
<pdfrwt beam="2">0</pdfrwt>
<totfact> 0.15202286E+00</totfact>
</mgrwt>
</event>
<event>
 6    1  0.1213626E-003  0.6600205E+03  0.7818608E-02  0.9788156E-01
          1   -1    0    0  502    0  0.00000000000E+00  0.00000000000E+00  0.10910181230E+03  0.10910181230E+03  0.00000000000E+00 0.  1.
         13   -1    0    0    0    0 -0.00000000000E+00 -0.00000000000E+00 -0.10000000000E+04  0.10000000000E+04  0.00000000000E+00 0.  1.
    9000005    2    1    2  501    0 -0.22880624682E+00 -0.12477875432E+00 -0.89099149731E+03  0.11088249934E+04  0.66002041614E+03 0.  0.
         13    1    3    3    0    0 -0.73309575107E+02  0.12192101670E+03 -0.94575466531E+03  0.95639474856E+03  0.00000000000E+00 0.  1.
          1    1    3    3  501    0  0.73080768860E+02 -0.12204579545E+03  0.54763168000E+02  0.15243024481E+03  0.00000000000E+00 0.  1.
         21    1    1    2  502  501  0.22880624682E+00  0.12477875432E+00  0.93309603696E-01  0.27681892684E+00  0.00000000000E+00 0. -1.
<mgrwt>
<rscale>  1 0.66002047E+03</rscale>
<asrwt>0</asrwt>
<pdfrwt beam="1">  1        1 0.39673470E+00 0.66002047E+03</pdfrwt>
<pdfrwt beam="2">0</pdfrwt>
<totfact> 0.13808258E+00</totfact>
</mgrwt>
</event>
<event>
 6    1  0.1213626E-003  0.6091077E+03  0.7818608E-02  0.9886689E-01
          1   -1    0    0  502    0  0.00000000000E+00  0.00000000000E+00  0.92796897344E+02  0.92796897344E+02  0.00000000000E+00 0.  1.
         13   -1    0    0    0    0 -0.00000000000E+00 -0.00000000000E+00 -0.10000000000E+04  0.10000000000E+04  0.00000000000E+00 0.  1.
    9000005    2    1    2  501    0 -0.81474001337E-03 -0.39301936587E-02 -0.90724686439E+03  0.10927529519E+04  0.60910765960E+03 0.  0.
         13    1    3    3    0    0 -0.27292064462E+03  0.10781293868E+03 -0.59984982953E+03  0.66777924945E+03  0.00000000000E+00 0.  1.
          1    1    3    3  501    0  0.27291982988E+03 -0.10781686888E+03 -0.30739703486E+03  0.42497370248E+03  0.00000000000E+00 0.  1.
         21    1    1    2  502  501  0.81474001333E-03  0.39301936587E-02  0.43761734739E-01  0.43945416721E-01  0.00000000000E+00 0.  1.
<mgrwt>
<rscale>  1 0.60910766E+03</rscale>
<asrwt>0</asrwt>
<pdfrwt beam="1">  1        1 0.33744397E+00 0.60910766E+03</pdfrwt>
<pdfrwt beam="2">0</pdfrwt>
<totfact> 0.25374802E+00</totfact>
</mgrwt>
</event>
<event>
 6    1  0.1213626E-003  0.5723471E+03  0.7818608E-02  0.9964498E-01
          3   -1    0    0  502    0  0.00000000000E+00  0.00000000000E+00  0.92523904523E+02  0.92523904523E+02  0.00000000000E+00 0.  1.
         13   -1    0    0    0    0 -0.00000000000E+00 -0.00000000000E+00 -0.10000000000E+04  0.10000000000E+04  0.00000000000E+00 0.  1.
    9000005    2    1    2  501    0  0.32910742585E+02 -0.11313695183E+02 -0.86997029597E+03  0.10413594474E+04  0.57128807632E+03 0.  0.
         13    1    3    3    0    0  0.25463922341E+03  0.73238836993E+02 -0.20406940060E+03  0.33443890564E+03  0.00000000000E+00 0.  1.
          3    1    3    3  501    0 -0.22172848083E+03 -0.84552532176E+02 -0.66590089536E+03  0.70692054176E+03  0.00000000000E+00 0.  1.
         21    1    1    2  502  501 -0.32910742585E+02  0.11313695183E+02 -0.37505799511E+02  0.51164457128E+02  0.00000000000E+00 0. -1.
<mgrwt>
<rscale>  1 0.57234708E+03</rscale>
<asrwt>0</asrwt>
<pdfrwt beam="1">  1        3 0.33645127E+00 0.57234708E+03</pdfrwt>
<pdfrwt beam="2">0</pdfrwt>
<totfact> 0.13022360E-01</totfact>
</mgrwt>
</event>
<event>
 6    1  0.1213626E-003  0.6504230E+03  0.7818608E-02  0.9805986E-01
          1   -1    0    0  502    0  0.00000000000E+00  0.00000000000E+00  0.10577924029E+03  0.10577924029E+03  0.00000000000E+00 0.  1.
         13   -1    0    0    0    0 -0.00000000000E+00 -0.00000000000E+00 -0.10000000000E+04  0.10000000000E+04  0.00000000000E+00 0.  1.
    9000005    2    1    2  501    0  0.55935864310E-03  0.20444250959E-01 -0.89423028579E+03  0.11057566787E+04  0.65042296084E+03 0.  0.
         13    1    3    3    0    0 -0.28569232521E+03 -0.15190940343E+03 -0.39168870245E+03  0.50805178000E+03  0.00000000000E+00 0.  1.
          1    1    3    3  501    0  0.28569288457E+03  0.15192984768E+03 -0.50254158334E+03  0.59770489867E+03  0.00000000000E+00 0.  1.
         21    1    1    2  502  501 -0.55935864307E-03 -0.20444250959E-01  0.95260818827E-02  0.22561615975E-01  0.00000000000E+00 0.  1.
<mgrwt>
<rscale>  1 0.65042296E+03</rscale>
<asrwt>0</asrwt>
<pdfrwt beam="1">  1        1 0.38465259E+00 0.65042296E+03</pdfrwt>
<pdfrwt beam="2">0</pdfrwt>
<totfact> 0.15650018E+00</totfact>
</mgrwt>
</event>
<event>
 6    1  0.1213626E-003  0.6743431E+03  0.7818608E-02  0.9762144E-01
          1   -1    0    0  502    0  0.00000000000E+00  0.00000000000E+00  0.11368469873E+03  0.11368469873E+03  0.00000000000E+00 0.  1.
         13   -1    0    0    0    0 -0.00000000000E+00 -0.00000000000E+00 -0.10000000000E+04  0.10000000000E+04  0.00000000000E+00 0.  1.
    9000005    2    1    2  501    0 -0.93201881484E-05  0.59057908146E-04 -0.88631534095E+03  0.11136846270E+04  0.67434306161E+03 0.  0.
         13    1    3    3    0    0 -0.22875425053E+02 -0.15270978005E+03 -0.93817314463E+03  0.95079567274E+03  0.00000000000E+00 0.  1.
          1    1    3    3  501    0  0.22875415733E+02  0.15270983911E+03  0.51857803680E+02  0.16288895423E+03  0.00000000000E+00 0.  1.
         21    1    1    2  502  501  0.93201881473E-05 -0.59057908144E-04  0.39678854772E-04  0.71757326716E-04  0.00000000000E+00 0.  1.
<mgrwt>
<rscale>  1 0.67434306E+03</rscale>
<asrwt>0</asrwt>
<pdfrwt beam="1">  1        1 0.41339978E+00 0.67434306E+03</pdfrwt>
<pdfrwt beam="2">0</pdfrwt>
<totfact> 0.11599284E+00</totfact>
</mgrwt>
</event>
<event>
 6    1  0.1213626E-003  0.7083727E+03  0.7818608E-02  0.9703020E-01
          3   -1    0    0  502    0  0.00000000000E+00  0.00000000000E+00  0.12546126047E+03  0.12546126047E+03  0.00000000000E+00 0.  1.
         13   -1    0    0    0    0 -0.00000000000E+00 -0.00000000000E+00 -0.10000000000E+04  0.10000000000E+04  0.00000000000E+00 0.  1.
    9000005    2    1    2  501    0 -0.34362580165E-03  0.21786713148E-04 -0.87455202982E+03  0.11254479657E+04  0.70837269193E+03 0.  0.
         13    1    3    3    0    0 -0.11428301389E+03 -0.14137869272E+03 -0.92022180822E+03  0.93800677948E+03  0.00000000000E+00 0.  1.
          3    1    3    3  501    0  0.11428267027E+03  0.14137871451E+03  0.45669778399E+02  0.18744118624E+03  0.00000000000E+00 0.  1.
         21    1    1    2  502  501  0.34362580164E-03 -0.21786713147E-04  0.13290288514E-01  0.13294747915E-01  0.00000000000E+00 0. -1.
<mgrwt>
<rscale>  1 0.70837269E+03</rscale>
<asrwt>0</asrwt>
<pdfrwt beam="1">  1        3 0.45622373E+00 0.70837269E+03</pdfrwt>
<pdfrwt beam="2">0</pdfrwt>
<totfact> 0.30086329E-02</totfact>
</mgrwt>
</event>
<event>
 6    1  0.1213626E-003  0.6500571E+03  0.7818608E-02  0.9806672E-01
          3   -1    0    0  502    0  0.00000000000E+00  0.00000000000E+00  0.10567319481E+03  0.10567319481E+03  0.00000000000E+00 0.  1.
         13   -1    0    0    0    0 -0.00000000000E+00 -0.00000000000E+00 -0.10000000000E+04  0.10000000000E+04  0.00000000000E+00 0.  1.
    9000005    2    1    2  501    0 -0.70292126633E-01 -0.14592189586E-01 -0.89429702711E+03  0.11055954732E+04  0.65005705326E+03 0.  0.
         13    1    3    3    0    0  0.23417620530E+03 -0.21646447646E+03 -0.34043365921E+03  0.46646590553E+03  0.00000000000E+00 0.  1.
          3    1    3    3  501    0 -0.23424649743E+03  0.21644988427E+03 -0.55386336790E+03  0.63912956766E+03  0.00000000000E+00 0.  1.
         21    1    1    2  502  501  0.70292126633E-01  0.14592189586E-01 -0.29778082485E-01  0.77721613854E-01  0.00000000000E+00 0. -1.
<mgrwt>
<rscale>  1 0.65005706E+03</rscale>
<asrwt>0</asrwt>
<pdfrwt beam="1">  1        3 0.38426697E+00 0.65005706E+03</pdfrwt>
<pdfrwt beam="2">0</pdfrwt>
<totfact> 0.71664097E-02</totfact>
</mgrwt>
</event>
<event>
 6    1  0.1213626E-003  0.6609502E+03  0.7818608E-02  0.9786446E-01
          3   -1    0    0  502    0  0.00000000000E+00  0.00000000000E+00  0.11104422170E+03  0.11104422170E+03  0.00000000000E+00 0.  1.
         13   -1    0    0    0    0 -0.00000000000E+00 -0.00000000000E+00 -0.10000000000E+04  0.10000000000E+04  0.00000000000E+00 0.  1.
    9000005    2    1    2  501    0  0.10263280185E+00  0.12795452853E+00 -0.89078214268E+03  0.11092105062E+04  0.66095014513E+03 0.  0.
         13    1    3    3    0    0 -0.45169549562E+02  0.31605036829E+03 -0.30186756174E+03  0.43937700024E+03  0.00000000000E+00 0.  1.
          1    1    3    3  501    0  0.45272182364E+02 -0.31592241376E+03 -0.58891458093E+03  0.66983350592E+03  0.00000000000E+00 0.  1.
         21    1    1    2  502  501 -0.10263280185E+00 -0.12795452853E+00  0.18263643795E+01  0.18337155451E+01  0.00000000000E+00 0. -1.
<mgrwt>
<rscale>  1 0.66095017E+03</rscale>
<asrwt>0</asrwt>
<pdfrwt beam="1">  1        3 0.40379802E+00 0.66095017E+03</pdfrwt>
<pdfrwt beam="2">0</pdfrwt>
<totfact> 0.56482242E-02</totfact>
</mgrwt>
</event>
<event>
 6    1  0.1213626E-003  0.6466997E+03  0.7818608E-02  0.9812992E-01
          1   -1    0    0  502    0  0.00000000000E+00  0.00000000000E+00  0.10765990890E+03  0.10765990890E+03  0.00000000000E+00 0.  1.
         13   -1    0    0    0    0 -0.00000000000E+00 -0.00000000000E+00 -0.10000000000E+04  0.10000000000E+04  0.00000000000E+00 0.  1.
    9000005    2    1    2  501    0  0.13977833636E+00 -0.55226718666E-01 -0.89544285150E+03  0.11045535106E+04  0.64669972552E+03 0.  0.
         13    1    3    3    0    0  0.25525876842E+03 -0.11651265951E+03 -0.17312313345E+03  0.32970268124E+03  0.00000000000E+00 0.  1.
          1    1    3    3  501    0 -0.25511899008E+03  0.11645743279E+03 -0.72231971805E+03  0.77485082941E+03  0.00000000000E+00 0.  1.
         21    1    1    2  502  501 -0.13977833636E+00  0.55226718666E-01  0.31027603993E+01  0.31063982471E+01  0.00000000000E+00 0.  1.
<mgrwt>
<rscale>  1 0.64669974E+03</rscale>
<asrwt>0</asrwt>
<pdfrwt beam="1">  1        1 0.39149140E+00 0.64669974E+03</pdfrwt>
<pdfrwt beam="2">0</pdfrwt>
<totfact> 0.14605721E+00</totfact>
</mgrwt>
</event>
<event>
 6    1  0.1213626E-003  0.6404302E+03  0.7818608E-02  0.9824904E-01
          1   -1    0    0  502    0  0.00000000000E+00  0.00000000000E+00  0.12272585352E+03  0.12272585352E+03  0.00000000000E+00 0.  1.
         13   -1    0    0    0    0 -0.00000000000E+00 -0.00000000000E+00 -0.10000000000E+04  0.10000000000E+04  0.00000000000E+00 0.  1.
    9000005    2    1    2  501    0 -0.91101311314E+01  0.28818917141E+00 -0.89632189569E+03  0.11016096443E+04  0.64036535678E+03 0.  0.
         13    1    3    3    0    0 -0.17827066357E+03  0.30924048458E+02 -0.91126077616E+03  0.92904947577E+03  0.00000000000E+00 0.  1.
          1    1    3    3  501    0  0.16916053244E+03 -0.30635859287E+02  0.14938880472E+02  0.17256016852E+03  0.00000000000E+00 0.  1.
         21    1    1    2  502  501  0.91101311314E+01 -0.28818917141E+00  0.19047749214E+02  0.21116209232E+02  0.00000000000E+00 0.  1.
<mgrwt>
<rscale>  1 0.64043022E+03</rscale>
<asrwt>0</asrwt>
<pdfrwt beam="1">  1        1 0.44627677E+00 0.64043022E+03</pdfrwt>
<pdfrwt beam="2">0</pdfrwt>
<totfact> 0.82807530E-01</totfact>
</mgrwt>
</event>
<event>
 6    1  0.1213626E-003  0.5466332E+03  0.7818608E-02  0.1002276E+00
          1   -1    0    0  502    0  0.00000000000E+00  0.00000000000E+00  0.74707588570E+02  0.74707588570E+02  0.00000000000E+00 0.  1.
         13   -1    0    0    0    0 -0.00000000000E+00 -0.00000000000E+00 -0.10000000000E+04  0.10000000000E+04  0.00000000000E+00 0.  1.
    9000005    2    1    2  501    0 -0.73978084513E-03  0.46792361351E-03 -0.92529799575E+03  0.10747019361E+04  0.54663321380E+03 0.  0.
         13    1    3    3    0    0 -0.46912668222E+01 -0.22002445994E+03 -0.78129917826E+03  0.81170264069E+03  0.00000000000E+00 0.  1.
          3    1    3    3  501    0  0.46905270413E+01  0.22002492787E+03 -0.14399881749E+03  0.26299929537E+03  0.00000000000E+00 0.  1.
         21    1    1    2  502  501  0.73978084513E-03 -0.46792361352E-03  0.55843208894E-02  0.56525098852E-02  0.00000000000E+00 0. -1.
<mgrwt>
<rscale>  1 0.54663321E+03</rscale>
<asrwt>0</asrwt>
<pdfrwt beam="1">  1        1 0.27166453E+00 0.54663321E+03</pdfrwt>
<pdfrwt beam="2">0</pdfrwt>
<totfact> 0.49358359E+00</totfact>
</mgrwt>
</event>
<event>
 6    1  0.1213626E-003  0.6701667E+03  0.7818608E-02  0.9769657E-01
          1   -1    0    0  502    0  0.00000000000E+00  0.00000000000E+00  0.11228365258E+03  0.11228365258E+03  0.00000000000E+00 0.  1.
         13   -1    0    0    0    0 -0.00000000000E+00 -0.00000000000E+00 -0.10000000000E+04  0.10000000000E+04  0.00000000000E+00 0.  1.
    9000005    2    1    2  501    0 -0.23106491465E-02 -0.10376557988E-02 -0.88771850321E+03  0.11122803264E+04  0.67016668345E+03 0.  0.
         13    1    3    3    0    0 -0.20493513792E+02  0.27989926548E+03 -0.14000535690E+03  0.31363208204E+03  0.00000000000E+00 0.  1.
          3    1    3    3  501    0  0.20491203143E+02 -0.27990030314E+03 -0.74771314631E+03  0.79864824439E+03  0.00000000000E+00 0.  1.
         21    1    1    2  502  501  0.23106491465E-02  0.10376557988E-02  0.21557904275E-02  0.33261481329E-02  0.00000000000E+00 0.  1.
<mgrwt>
<rscale>  1 0.67016668E+03</rscale>
<asrwt>0</asrwt>
<pdfrwt beam="1">  1        1 0.40830505E+00 0.67016668E+03</pdfrwt>
<pdfrwt beam="2">0</pdfrwt>
<totfact> 0.12236025E+00</totfact>
</mgrwt>
</event>
<event>
 6    1  0.1213626E-003  0.6453197E+03  0.7818608E-02  0.9815601E-01
          1   -1    0    0  502    0  0.00000000000E+00  0.00000000000E+00  0.10412994173E+03  0.10412994173E+03  0.00000000000E+00 0.  1.
         13   -1    0    0    0    0 -0.00000000000E+00 -0.00000000000E+00 -0.10000000000E+04  0.10000000000E+04  0.00000000000E+00 0.  1.
    9000005    2    1    2  501    0  0.34732505961E-03 -0.10433910534E-01 -0.89588913891E+03  0.11041081918E+04  0.64531972692E+03 0.  0.
         13    1    3    3    0    0  0.12581258009E+03 -0.82067194846E+01 -0.95610882531E+03  0.96438594006E+03  0.00000000000E+00 0.  1.
          1    1    3    3  501    0 -0.12581223277E+03  0.81962855740E+01  0.60219686397E+02  0.13972225177E+03  0.00000000000E+00 0.  1.
         21    1    1    2  502  501 -0.34732505960E-03  0.10433910534E-01  0.19080640950E-01  0.21749896156E-01  0.00000000000E+00 0. -1.
<mgrwt>
<rscale>  1 0.64531973E+03</rscale>
<asrwt>0</asrwt>
<pdfrwt beam="1">  1        1 0.37865513E+00 0.64531973E+03</pdfrwt>
<pdfrwt beam="2">0</pdfrwt>
<totfact> 0.16649713E+00</totfact>
</mgrwt>
</event>
<event>
 6    1  0.1213626E-003  0.6269733E+03  0.7818608E-02  0.9850973E-01
          1   -1    0    0  502    0  0.00000000000E+00  0.00000000000E+00  0.10050541595E+03  0.10050541595E+03  0.00000000000E+00 0.  1.
         13   -1    0    0    0    0 -0.00000000000E+00 -0.00000000000E+00 -0.10000000000E+04  0.10000000000E+04  0.00000000000E+00 0.  1.
    9000005    2    1    2  501    0 -0.22719051199E-01  0.32708289065E-01 -0.90172591270E+03  0.10982737319E+04  0.62697333839E+03 0.  0.
         13    1    3    3    0    0 -0.25761064617E+03 -0.15976973943E+03 -0.59083559518E+03  0.66406047555E+03  0.00000000000E+00 0.  1.
          3    1    3    3  501    0  0.25758792712E+03  0.15980244772E+03 -0.31089031752E+03  0.43421325639E+03  0.00000000000E+00 0.  1.
         21    1    1    2  502  501  0.22719051199E-01 -0.32708289065E-01  0.22313286485E+01  0.22316840110E+01  0.00000000000E+00 0.  1.
<mgrwt>
<rscale>  1 0.62697334E+03</rscale>
<asrwt>0</asrwt>
<pdfrwt beam="1">  1        1 0.36547501E+00 0.62697334E+03</pdfrwt>
<pdfrwt beam="2">0</pdfrwt>
<totfact> 0.19089753E+00</totfact>
</mgrwt>
</event>
<event>
 6    1  0.1213626E-003  0.6477334E+03  0.7818608E-02  0.9811042E-01
          1   -1    0    0  502    0  0.00000000000E+00  0.00000000000E+00  0.10863129251E+03  0.10863129251E+03  0.00000000000E+00 0.  1.
         13   -1    0    0    0    0 -0.00000000000E+00 -0.00000000000E+00 -0.10000000000E+04  0.10000000000E+04  0.00000000000E+00 0.  1.
    9000005    2    1    2  501    0  0.10876270112E+00 -0.30054242123E-02 -0.89510947195E+03  0.11048889460E+04  0.64773343628E+03 0.  0.
         13    1    3    3    0    0  0.91167281882E+02 -0.30220444401E+03 -0.57130809118E+03  0.65271121816E+03  0.00000000000E+00 0.  1.
          3    1    3    3  501    0 -0.91058519181E+02  0.30220143859E+03 -0.32380138077E+03  0.45217772788E+03  0.00000000000E+00 0.  1.
         21    1    1    2  502  501 -0.10876270112E+00  0.30054242123E-02  0.37407644610E+01  0.37423464712E+01  0.00000000000E+00 0. -1.
<mgrwt>
<rscale>  1 0.64773345E+03</rscale>
<asrwt>0</asrwt>
<pdfrwt beam="1">  1        1 0.39502371E+00 0.64773345E+03</pdfrwt>
<pdfrwt beam="2">0</pdfrwt>
<totfact> 0.14084831E+00</totfact>
</mgrwt>
</event>
<event>
 6    1  0.1213626E-003  0.6545138E+03  0.7818608E-02  0.9798346E-01
          1   -1    0    0  502    0  0.00000000000E+00  0.00000000000E+00  0.10710791342E+03  0.10710791342E+03  0.00000000000E+00 0.  1.
         13   -1    0    0    0    0 -0.00000000000E+00 -0.00000000000E+00 -0.10000000000E+04  0.10000000000E+04  0.00000000000E+00 0.  1.
    9000005    2    1    2  501    0 -0.26406230923E-04 -0.12050287017E-02 -0.89290287648E+03  0.11070970564E+04  0.65451382374E+03 0.  0.
         13    1    3    3    0    0  0.43622754927E+02 -0.20452971442E+03 -0.87222802277E+03  0.89694875691E+03  0.00000000000E+00 0.  1.
          3    1    3    3  501    0 -0.43622781333E+02  0.20452850939E+03 -0.20674853717E+02  0.21014829949E+03  0.00000000000E+00 0.  1.
         21    1    1    2  502  501  0.26406230921E-04  0.12050287017E-02  0.10789902428E-01  0.10857015514E-01  0.00000000000E+00 0. -1.
<mgrwt>
<rscale>  1 0.65451382E+03</rscale>
<asrwt>0</asrwt>
<pdfrwt beam="1">  1        1 0.38948414E+00 0.65451382E+03</pdfrwt>
<pdfrwt beam="2">0</pdfrwt>
<totfact> 0.14886487E+00</totfact>
</mgrwt>
</event>
<event>
 6    1  0.1213626E-003  0.6254733E+03  0.7818608E-02  0.9853922E-01
          1   -1    0    0  502    0  0.00000000000E+00  0.00000000000E+00  0.97807615227E+02  0.97807615227E+02  0.00000000000E+00 0.  1.
         13   -1    0    0    0    0 -0.00000000000E+00 -0.00000000000E+00 -0.10000000000E+04  0.10000000000E+04  0.00000000000E+00 0.  1.
    9000005    2    1    2  501    0 -0.93039042977E-02  0.25301596187E-02 -0.90216803944E+03  0.10977814301E+04  0.62547333824E+03 0.  0.
         13    1    3    3    0    0  0.28069438155E+03 -0.43748452439E+02 -0.68057778442E+03  0.73748856505E+03  0.00000000000E+00 0.  1.
          1    1    3    3  501    0 -0.28070368546E+03  0.43750982599E+02 -0.22159025502E+03  0.36029286508E+03  0.00000000000E+00 0.  1.
         21    1    1    2  502  501  0.93039042977E-02 -0.25301596187E-02 -0.24345330915E-01  0.26185100348E-01  0.00000000000E+00 0. -1.
<mgrwt>
<rscale>  1 0.62547334E+03</rscale>
<asrwt>0</asrwt>
<pdfrwt beam="1">  1        1 0.35566481E+00 0.62547334E+03</pdfrwt>
<pdfrwt beam="2">0</pdfrwt>
<totfact> 0.21077925E+00</totfact>
</mgrwt>
</event>
<event>
 6    1  0.1213626E-003  0.6283573E+03  0.7818608E-02  0.9848260E-01
          1   -1    0    0  502    0  0.00000000000E+00  0.00000000000E+00  0.98716344136E+02  0.98716344136E+02  0.00000000000E+00 0.  1.
         13   -1    0    0    0    0 -0.00000000000E+00 -0.00000000000E+00 -0.10000000000E+04  0.10000000000E+04  0.00000000000E+00 0.  1.
    9000005    2    1    2  501    0  0.30466485438E-02 -0.86002595859E-03 -0.90129143694E+03  0.10987079437E+04  0.62835729588E+03 0.  0.
         13    1    3    3    0    0 -0.25258039023E+03  0.16991043889E+03 -0.31474148809E+03  0.43786826227E+03  0.00000000000E+00 0.  1.
          3    1    3    3  501    0  0.25258343688E+03 -0.16991129892E+03 -0.58654994885E+03  0.66083968146E+03  0.00000000000E+00 0.  1.
         21    1    1    2  502  501 -0.30466485438E-02  0.86002595858E-03  0.77810813070E-02  0.84004129842E-02  0.00000000000E+00 0. -1.
<mgrwt>
<rscale>  1 0.62835730E+03</rscale>
<asrwt>0</asrwt>
<pdfrwt beam="1">  1        1 0.35896928E+00 0.62835730E+03</pdfrwt>
<pdfrwt beam="2">0</pdfrwt>
<totfact> 0.20378175E+00</totfact>
</mgrwt>
</event>
<event>
 6    1  0.1213626E-003  0.5869692E+03  0.7818608E-02  0.9932816E-01
          1   -1    0    0  502    0  0.00000000000E+00  0.00000000000E+00  0.87102652978E+02  0.87102652978E+02  0.00000000000E+00 0.  1.
         13   -1    0    0    0    0 -0.00000000000E+00 -0.00000000000E+00 -0.10000000000E+04  0.10000000000E+04  0.00000000000E+00 0.  1.
    9000005    2    1    2  501    0  0.84882278289E-02  0.31087806547E-01 -0.91386649865E+03  0.10861329657E+04  0.58696919920E+03 0.  0.
         13    1    3    3    0    0  0.19794833056E+03  0.50109482384E+02 -0.84703129741E+03  0.87129588578E+03  0.00000000000E+00 0.  1.
          1    1    3    3  501    0 -0.19793984234E+03 -0.50078394577E+02 -0.66835201249E+02  0.21483707993E+03  0.00000000000E+00 0.  1.
         21    1    1    2  502  501 -0.84882278289E-02 -0.31087806547E-01  0.96915163244E+00  0.96968726319E+00  0.00000000000E+00 0. -1.
<mgrwt>
<rscale>  1 0.58696920E+03</rscale>
<asrwt>0</asrwt>
<pdfrwt beam="1">  1        1 0.31673759E+00 0.58696920E+03</pdfrwt>
<pdfrwt beam="2">0</pdfrwt>
<totfact> 0.31315524E+00</totfact>
</mgrwt>
</event>
<event>
 6    1  0.1213626E-003  0.6496696E+03  0.7818608E-02  0.9807399E-01
          1   -1    0    0  502    0  0.00000000000E+00  0.00000000000E+00  0.10850210729E+03  0.10850210729E+03  0.00000000000E+00 0.  1.
         13   -1    0    0    0    0 -0.00000000000E+00 -0.00000000000E+00 -0.10000000000E+04  0.10000000000E+04  0.00000000000E+00 0.  1.
    9000005    2    1    2  501    0  0.10803592584E+00  0.18229012705E+00 -0.89447819055E+03  0.11055142859E+04  0.64966957607E+03 0.  0.
         13    1    3    3    0    0 -0.19319876647E+03 -0.13340083232E+03 -0.82897799760E+03  0.86158346429E+03  0.00000000000E+00 0.  1.
          3    1    3    3  501    0  0.19330680240E+03  0.13358312245E+03 -0.65500192943E+02  0.24393082161E+03  0.00000000000E+00 0.  1.
         21    1    1    2  502  501 -0.10803592584E+00 -0.18229012705E+00  0.29802978356E+01  0.29878213869E+01  0.00000000000E+00 0.  1.
<mgrwt>
<rscale>  1 0.64966961E+03</rscale>
<asrwt>0</asrwt>
<pdfrwt beam="1">  1        1 0.39455395E+00 0.64966961E+03</pdfrwt>
<pdfrwt beam="2">0</pdfrwt>
<totfact> 0.14147539E+00</totfact>
</mgrwt>
</event>
<event>
 6    1  0.1213626E-003  0.6481278E+03  0.7818608E-02  0.9810299E-01
          1   -1    0    0  502    0  0.00000000000E+00  0.00000000000E+00  0.10502388634E+03  0.10502388634E+03  0.00000000000E+00 0.  1.
         13   -1    0    0    0    0 -0.00000000000E+00 -0.00000000000E+00 -0.10000000000E+04  0.10000000000E+04  0.00000000000E+00 0.  1.
    9000005    2    1    2  501    0  0.16135923328E-01 -0.11147050814E-02 -0.89496849400E+03  0.11050060070E+04  0.64812781923E+03 0.  0.
         13    1    3    3    0    0 -0.20934634253E+03 -0.24276995555E+03 -0.52837005886E+03  0.61801137655E+03  0.00000000000E+00 0.  1.
          3    1    3    3  501    0  0.20936247845E+03  0.24276884085E+03 -0.36659843514E+03  0.48699463048E+03  0.00000000000E+00 0.  1.
         21    1    1    2  502  501 -0.16135923328E-01  0.11147050814E-02 -0.76196594860E-02  0.17879312061E-01  0.00000000000E+00 0. -1.
<mgrwt>
<rscale>  1 0.64812782E+03</rscale>
<asrwt>0</asrwt>
<pdfrwt beam="1">  1        1 0.38190585E+00 0.64812782E+03</pdfrwt>
<pdfrwt beam="2">0</pdfrwt>
<totfact> 0.16100435E+00</totfact>
</mgrwt>
</event>
<event>
 6    1  0.1213626E-003  0.6566554E+03  0.7818608E-02  0.9794370E-01
          1   -1    0    0  502    0  0.00000000000E+00  0.00000000000E+00  0.10781033454E+03  0.10781033454E+03  0.00000000000E+00 0.  1.
         13   -1    0    0    0    0 -0.00000000000E+00 -0.00000000000E+00 -0.10000000000E+04  0.10000000000E+04  0.00000000000E+00 0.  1.
    9000005    2    1    2  501    0  0.91499563889E-02 -0.32209253982E-02 -0.89219857497E+03  0.11077971635E+04  0.65665535728E+03 0.  0.
         13    1    3    3    0    0 -0.11556060046E+03 -0.12484826731E+03  0.27645353355E+02  0.17235314848E+03  0.00000000000E+00 0.  1.
          1    1    3    3  501    0  0.11556975041E+03  0.12484504638E+03 -0.91984392833E+03  0.93544401505E+03  0.00000000000E+00 0.  1.
         21    1    1    2  502  501 -0.91499563889E-02  0.32209253982E-02  0.89095180456E-02  0.13171012647E-01  0.00000000000E+00 0.  1.
<mgrwt>
<rscale>  1 0.65665536E+03</rscale>
<asrwt>0</asrwt>
<pdfrwt beam="1">  1        1 0.39203841E+00 0.65665536E+03</pdfrwt>
<pdfrwt beam="2">0</pdfrwt>
<totfact> 0.14497310E+00</totfact>
</mgrwt>
</event>
<event>
 6    1  0.1213626E-003  0.6479373E+03  0.7818608E-02  0.9810657E-01
          1   -1    0    0  502    0  0.00000000000E+00  0.00000000000E+00  0.10495569343E+03  0.10495569343E+03  0.00000000000E+00 0.  1.
         13   -1    0    0    0    0 -0.00000000000E+00 -0.00000000000E+00 -0.10000000000E+04  0.10000000000E+04  0.00000000000E+00 0.  1.
    9000005    2    1    2  501    0  0.15972654012E-04  0.15607174717E-04 -0.89504431152E+03  0.11049556706E+04  0.64793727653E+03 0.  0.
         13    1    3    3    0    0 -0.31970963254E+03  0.51366185182E+02 -0.46482446507E+03  0.56649317511E+03  0.00000000000E+00 0.  1.
          1    1    3    3  501    0  0.31970964851E+03 -0.51366169575E+02 -0.43021984645E+03  0.53846249545E+03  0.00000000000E+00 0.  1.
         21    1    1    2  502  501 -0.15972654031E-04 -0.15607174722E-04  0.49449658523E-05  0.22872740695E-04  0.00000000000E+00 0. -1.
<mgrwt>
<rscale>  1 0.64793728E+03</rscale>
<asrwt>0</asrwt>
<pdfrwt beam="1">  1        1 0.38165787E+00 0.64793728E+03</pdfrwt>
<pdfrwt beam="2">0</pdfrwt>
<totfact> 0.16141650E+00</totfact>
</mgrwt>
</event>
<event>
 6    1  0.1213626E-003  0.6501283E+03  0.7818608E-02  0.9806539E-01
          1   -1    0    0  502    0  0.00000000000E+00  0.00000000000E+00  0.10566687443E+03  0.10566687443E+03  0.00000000000E+00 0.  1.
         13   -1    0    0    0    0 -0.00000000000E+00 -0.00000000000E+00 -0.10000000000E+04  0.10000000000E+04  0.00000000000E+00 0.  1.
    9000005    2    1    2  501    0 -0.82614417678E-04  0.26631989556E-04 -0.89433330205E+03  0.11056666778E+04  0.65012825438E+03 0.  0.
         13    1    3    3    0    0 -0.90820222211E+02  0.23331620606E+03 -0.94578161923E+02  0.26763742916E+03  0.00000000000E+00 0.  1.
          1    1    3    3  501    0  0.90820139597E+02 -0.23331617943E+03 -0.79975514013E+03  0.83802924860E+03  0.00000000000E+00 0.  1.
         21    1    1    2  502  501  0.82614417690E-04 -0.26631989529E-04  0.17648328107E-03  0.19667423159E-03  0.00000000000E+00 0.  1.
<mgrwt>
<rscale>  1 0.65012825E+03</rscale>
<asrwt>0</asrwt>
<pdfrwt beam="1">  1        1 0.38424399E+00 0.65012825E+03</pdfrwt>
<pdfrwt beam="2">0</pdfrwt>
<totfact> 0.15716119E+00</totfact>
</mgrwt>
</event>
<event>
 6    1  0.1213626E-003  0.6553254E+03  0.7818608E-02  0.9796837E-01
          1   -1    0    0  502    0  0.00000000000E+00  0.00000000000E+00  0.10737975326E+03  0.10737975326E+03  0.00000000000E+00 0.  1.
         13   -1    0    0    0    0 -0.00000000000E+00 -0.00000000000E+00 -0.10000000000E+04  0.10000000000E+04  0.00000000000E+00 0.  1.
    9000005    2    1    2  501    0  0.66952264419E-04 -0.71826279242E-03 -0.89263714135E+03  0.11073628433E+04  0.65532541572E+03 0.  0.
         13    1    3    3    0    0 -0.11922986028E+03  0.18788191755E+03 -0.85273783659E+03  0.88129290958E+03  0.00000000000E+00 0.  1.
          3    1    3    3  501    0  0.11922992723E+03 -0.18788263581E+03 -0.39899304762E+02  0.22606993367E+03  0.00000000000E+00 0.  1.
         21    1    1    2  502  501 -0.66952264417E-04  0.71826279241E-03  0.16894618259E-01  0.16910012128E-01  0.00000000000E+00 0. -1.
<mgrwt>
<rscale>  1 0.65532542E+03</rscale>
<asrwt>0</asrwt>
<pdfrwt beam="1">  1        1 0.39047265E+00 0.65532542E+03</pdfrwt>
<pdfrwt beam="2">0</pdfrwt>
<totfact> 0.14734760E+00</totfact>
</mgrwt>
</event>
<event>
 6    1  0.1213626E-003  0.6498078E+03  0.7818608E-02  0.9807140E-01
          1   -1    0    0  502    0  0.00000000000E+00  0.00000000000E+00  0.10556470406E+03  0.10556470406E+03  0.00000000000E+00 0.  1.
         13   -1    0    0    0    0 -0.00000000000E+00 -0.00000000000E+00 -0.10000000000E+04  0.10000000000E+04  0.00000000000E+00 0.  1.
    9000005    2    1    2  501    0  0.10388164242E-03  0.18058335351E-03 -0.89443743596E+03  0.11055625539E+04  0.64980784375E+03 0.  0.
         13    1    3    3    0    0  0.26404513409E+03 -0.60594149708E+02 -0.14205618097E+03  0.30589449548E+03  0.00000000000E+00 0.  1.
          3    1    3    3  501    0 -0.26404503021E+03  0.60594330291E+02 -0.75238125498E+03  0.79966805844E+03  0.00000000000E+00 0.  1.
         21    1    1    2  502  501 -0.10388164243E-03 -0.18058335351E-03  0.21400156857E-02  0.21501322932E-02  0.00000000000E+00 0. -1.
<mgrwt>
<rscale>  1 0.64980784E+03</rscale>
<asrwt>0</asrwt>
<pdfrwt beam="1">  1        1 0.38387246E+00 0.64980784E+03</pdfrwt>
<pdfrwt beam="2">0</pdfrwt>
<totfact> 0.15776606E+00</totfact>
</mgrwt>
</event>
<event>
 6    1  0.1213626E-003  0.6366214E+03  0.7818608E-02  0.9832212E-01
          1   -1    0    0  502    0  0.00000000000E+00  0.00000000000E+00  0.10299702694E+03  0.10299702694E+03  0.00000000000E+00 0.  1.
         13   -1    0    0    0    0 -0.00000000000E+00 -0.00000000000E+00 -0.10000000000E+04  0.10000000000E+04  0.00000000000E+00 0.  1.
    9000005    2    1    2  501    0 -0.41581683029E+00  0.42594469830E+00 -0.89861988824E+03  0.11012740216E+04  0.63662109051E+03 0.  0.
         13    1    3    3    0    0 -0.24833698806E+02  0.31256508184E+03 -0.35251744143E+03  0.47178616925E+03  0.00000000000E+00 0.  1.
          1    1    3    3  501    0  0.24417881976E+02 -0.31213913715E+03 -0.54610244682E+03  0.62948785240E+03  0.00000000000E+00 0.  1.
         21    1    1    2  502  501  0.41581683029E+00 -0.42594469830E+00  0.16169151832E+01  0.17230052907E+01  0.00000000000E+00 0. -1.
<mgrwt>
<rscale>  1 0.63662137E+03</rscale>
<asrwt>0</asrwt>
<pdfrwt beam="1">  1        1 0.37453543E+00 0.63662137E+03</pdfrwt>
<pdfrwt beam="2">0</pdfrwt>
<totfact> 0.17387901E+00</totfact>
</mgrwt>
</event>
<event>
 6    1  0.1213626E-003  0.6711336E+03  0.7818608E-02  0.9767912E-01
          1   -1    0    0  502    0  0.00000000000E+00  0.00000000000E+00  0.11356987341E+03  0.11356987341E+03  0.00000000000E+00 0.  1.
         13   -1    0    0    0    0 -0.00000000000E+00 -0.00000000000E+00 -0.10000000000E+04  0.10000000000E+04  0.00000000000E+00 0.  1.
    9000005    2    1    2  501    0  0.63546939163E-01  0.47576542533E+00 -0.88732801504E+03  0.11125517405E+04  0.67113347304E+03 0.  0.
         13    1    3    3    0    0  0.32761061618E+02 -0.23173730582E+03 -0.45178929349E+02  0.23836233286E+03  0.00000000000E+00 0.  1.
          1    1    3    3  501    0 -0.32697514679E+02  0.23221307125E+03 -0.84214908569E+03  0.87418940765E+03  0.00000000000E+00 0.  1.
         21    1    1    2  502  501 -0.63546939163E-01 -0.47576542533E+00  0.89788844233E+00  0.10181329031E+01  0.00000000000E+00 0.  1.
<mgrwt>
<rscale>  1 0.67113364E+03</rscale>
<asrwt>0</asrwt>
<pdfrwt beam="1">  1        1 0.41298223E+00 0.67113364E+03</pdfrwt>
<pdfrwt beam="2">0</pdfrwt>
<totfact> 0.11656602E+00</totfact>
</mgrwt>
</event>
<event>
 6    1  0.1213626E-003  0.6476973E+03  0.7818608E-02  0.9811110E-01
          1   -1    0    0  502    0  0.00000000000E+00  0.00000000000E+00  0.10489932704E+03  0.10489932704E+03  0.00000000000E+00 0.  1.
         13   -1    0    0    0    0 -0.00000000000E+00 -0.00000000000E+00 -0.10000000000E+04  0.10000000000E+04  0.00000000000E+00 0.  1.
    9000005    2    1    2  501    0 -0.12760316741E-02 -0.67861488669E-02 -0.89512143165E+03  0.11048774500E+04  0.64769730750E+03 0.  0.
         13    1    3    3    0    0  0.30573222770E+03 -0.76083290132E+02 -0.57541151336E+03  0.65601773741E+03  0.00000000000E+00 0.  1.
          1    1    3    3  501    0 -0.30573350373E+03  0.76076503984E+02 -0.31970991829E+03  0.44885971262E+03  0.00000000000E+00 0.  1.
         21    1    1    2  502  501  0.12760316740E-02  0.67861488669E-02  0.20758694535E-01  0.21877007841E-01  0.00000000000E+00 0.  1.
<mgrwt>
<rscale>  1 0.64769731E+03</rscale>
<asrwt>0</asrwt>
<pdfrwt beam="1">  1        1 0.38145290E+00 0.64769731E+03</pdfrwt>
<pdfrwt beam="2">0</pdfrwt>
<totfact> 0.16176039E+00</totfact>
</mgrwt>
</event>
<event>
 6    1  0.1213626E-003  0.6553062E+03  0.7818608E-02  0.9796873E-01
          1   -1    0    0  502    0  0.00000000000E+00  0.00000000000E+00  0.12061175654E+03  0.12061175654E+03  0.00000000000E+00 0.  1.
         13   -1    0    0    0    0 -0.00000000000E+00 -0.00000000000E+00 -0.10000000000E+04  0.10000000000E+04  0.00000000000E+00 0.  1.
    9000005    2    1    2  501    0 -0.16371683213E+00  0.11483638127E+00 -0.89264260094E+03  0.11073558906E+04  0.65530619969E+03 0.  0.
         13    1    3    3    0    0  0.25225080194E+03  0.18299207472E+03 -0.61710820860E+03  0.69133140216E+03  0.00000000000E+00 0.  1.
          3    1    3    3  501    0 -0.25241451877E+03 -0.18287723834E+03 -0.27553439234E+03  0.41602448840E+03  0.00000000000E+00 0.  1.
         21    1    1    2  502  501  0.16371683213E+00 -0.11483638127E+00  0.13254357479E+02  0.13255865976E+02  0.00000000000E+00 0. -1.
<mgrwt>
<rscale>  1 0.65530623E+03</rscale>
<asrwt>0</asrwt>
<pdfrwt beam="1">  1        1 0.43858913E+00 0.65530623E+03</pdfrwt>
<pdfrwt beam="2">0</pdfrwt>
<totfact> 0.89523284E-01</totfact>
</mgrwt>
</event>
<event>
 6    1  0.1213626E-003  0.6470995E+03  0.7818608E-02  0.9812237E-01
          3   -1    0    0  502    0  0.00000000000E+00  0.00000000000E+00  0.10471164743E+03  0.10471164743E+03  0.00000000000E+00 0.  1.
         13   -1    0    0    0    0 -0.00000000000E+00 -0.00000000000E+00 -0.10000000000E+04  0.10000000000E+04  0.00000000000E+00 0.  1.
    9000005    2    1    2  501    0  0.14994598639E-01 -0.37409055083E-01 -0.89529801158E+03  0.11046702038E+04  0.64709947308E+03 0.  0.
         13    1    3    3    0    0 -0.45900608391E+02 -0.31368824549E+03 -0.33719346867E+03  0.46282460665E+03  0.00000000000E+00 0.  1.
          1    1    3    3  501    0  0.45915602990E+02  0.31365083644E+03 -0.55810454292E+03  0.64184559718E+03  0.00000000000E+00 0.  1.
         21    1    1    2  502  501 -0.14994598639E-01  0.37409055083E-01  0.96590145660E-02  0.41443599662E-01  0.00000000000E+00 0. -1.
<mgrwt>
<rscale>  1 0.64709947E+03</rscale>
<asrwt>0</asrwt>
<pdfrwt beam="1">  1        3 0.38077043E+00 0.64709947E+03</pdfrwt>
<pdfrwt beam="2">0</pdfrwt>
<totfact> 0.74811187E-02</totfact>
</mgrwt>
</event>
<event>
 6    1  0.1213626E-003  0.6316189E+03  0.7818608E-02  0.9841895E-01
          1   -1    0    0  502    0  0.00000000000E+00  0.00000000000E+00  0.99735698972E+02  0.99735698972E+02  0.00000000000E+00 0.  1.
         13   -1    0    0    0    0 -0.00000000000E+00 -0.00000000000E+00 -0.10000000000E+04  0.10000000000E+04  0.00000000000E+00 0.  1.
    9000005    2    1    2  501    0 -0.52278880446E-04  0.72844047935E-04 -0.90026437407E+03  0.10997355833E+04  0.63161888036E+03 0.  0.
         13    1    3    3    0    0  0.24926454067E+03 -0.19210087498E+03 -0.40406535197E+03  0.51215658354E+03  0.00000000000E+00 0.  1.
          3    1    3    3  501    0 -0.24926459295E+03  0.19210094783E+03 -0.49619902210E+03  0.58757899978E+03  0.00000000000E+00 0.  1.
         21    1    1    2  502  501  0.52278880444E-04 -0.72844047926E-04  0.73037820395E-04  0.11564540573E-03  0.00000000000E+00 0.  1.
<mgrwt>
<rscale>  1 0.63161888E+03</rscale>
<asrwt>0</asrwt>
<pdfrwt beam="1">  1        1 0.36267603E+00 0.63161888E+03</pdfrwt>
<pdfrwt beam="2">0</pdfrwt>
<totfact> 0.19619722E+00</totfact>
</mgrwt>
</event>
<event>
 6    1  0.1213626E-003  0.6454746E+03  0.7818608E-02  0.9815308E-01
          1   -1    0    0  502    0  0.00000000000E+00  0.00000000000E+00  0.11434281759E+03  0.11434281759E+03  0.00000000000E+00 0.  1.
         13   -1    0    0    0    0 -0.00000000000E+00 -0.00000000000E+00 -0.10000000000E+04  0.10000000000E+04  0.00000000000E+00 0.  1.
    9000005    2    1    2  501    0 -0.46854278756E+00  0.84608680599E-01 -0.89583447815E+03  0.11041543908E+04  0.64547446106E+03 0.  0.
         13    1    3    3    0    0  0.26723506858E+03 -0.14546451141E+03 -0.63064270131E+03  0.70020334380E+03  0.00000000000E+00 0.  1.
          3    1    3    3  501    0 -0.26770361137E+03  0.14554912009E+03 -0.26519177684E+03  0.40395104704E+03  0.00000000000E+00 0.  1.
         21    1    1    2  502  501  0.46854278756E+00 -0.84608680599E-01  0.10177295740E+02  0.10188426746E+02  0.00000000000E+00 0.  1.
<mgrwt>
<rscale>  1 0.64547464E+03</rscale>
<asrwt>0</asrwt>
<pdfrwt beam="1">  1        1 0.41579294E+00 0.64547464E+03</pdfrwt>
<pdfrwt beam="2">0</pdfrwt>
<totfact> 0.11378680E+00</totfact>
</mgrwt>
</event>
<event>
 6    1  0.1213626E-003  0.6356702E+03  0.7818608E-02  0.9834046E-01
          1   -1    0    0  502    0  0.00000000000E+00  0.00000000000E+00  0.10102941688E+03  0.10102941688E+03  0.00000000000E+00 0.  1.
         13   -1    0    0    0    0 -0.00000000000E+00 -0.00000000000E+00 -0.10000000000E+04  0.10000000000E+04  0.00000000000E+00 0.  1.
    9000005    2    1    2  501    0  0.10050436647E-02  0.11873929929E-02 -0.89898078034E+03  0.11010191017E+04  0.63567021232E+03 0.  0.
         13    1    3    3    0    0  0.30901185134E+03 -0.64290588648E+02 -0.38473444189E+03  0.49763660922E+03  0.00000000000E+00 0.  1.
          1    1    3    3  501    0 -0.30901084630E+03  0.64291776041E+02 -0.51424633845E+03  0.60338249246E+03  0.00000000000E+00 0.  1.
         21    1    1    2  502  501 -0.10050436647E-02 -0.11873929929E-02  0.10197219723E-01  0.10315197767E-01  0.00000000000E+00 0. -1.
<mgrwt>
<rscale>  1 0.63567021E+03</rscale>
<asrwt>0</asrwt>
<pdfrwt beam="1">  1        1 0.36738047E+00 0.63567021E+03</pdfrwt>
<pdfrwt beam="2">0</pdfrwt>
<totfact> 0.18696352E+00</totfact>
</mgrwt>
</event>
<event>
 6    1  0.1213626E-003  0.6566440E+03  0.7818608E-02  0.9794391E-01
          1   -1    0    0  502    0  0.00000000000E+00  0.00000000000E+00  0.10826741815E+03  0.10826741815E+03  0.00000000000E+00 0.  1.
         13   -1    0    0    0    0 -0.00000000000E+00 -0.00000000000E+00 -0.10000000000E+04  0.10000000000E+04  0.00000000000E+00 0.  1.
    9000005    2    1    2  501    0  0.93666356658E-01  0.55706286444E+00 -0.89200962476E+03  0.11076382559E+04  0.65664375126E+03 0.  0.
         13    1    3    3    0    0  0.11885631665E+03  0.12280739115E+03 -0.91927912442E+03  0.93503079517E+03  0.00000000000E+00 0.  1.
          1    1    3    3  501    0 -0.11876265029E+03 -0.12225032829E+03  0.27269499656E+02  0.17260746068E+03  0.00000000000E+00 0.  1.
         21    1    1    2  502  501 -0.93666356658E-01 -0.55706286444E+00  0.27704291167E+00  0.62916229720E+00  0.00000000000E+00 0.  1.
<mgrwt>
<rscale>  1 0.65664399E+03</rscale>
<asrwt>0</asrwt>
<pdfrwt beam="1">  1        1 0.39370053E+00 0.65664399E+03</pdfrwt>
<pdfrwt beam="2">0</pdfrwt>
<totfact> 0.14252988E+00</totfact>
</mgrwt>
</event>
<event>
 6    1  0.1213626E-003  0.6589320E+03  0.7818608E-02  0.9790162E-01
          1   -1    0    0  502    0  0.00000000000E+00  0.00000000000E+00  0.10900489390E+03  0.10900489390E+03  0.00000000000E+00 0.  1.
         13   -1    0    0    0    0 -0.00000000000E+00 -0.00000000000E+00 -0.10000000000E+04  0.10000000000E+04  0.00000000000E+00 0.  1.
    9000005    2    1    2  501    0  0.11367932582E+00 -0.12576909602E+00 -0.89143465404E+03  0.11085337854E+04  0.65893200116E+03 0.  0.
         13    1    3    3    0    0 -0.27089115337E+03  0.19313149281E+02 -0.75929939561E+03  0.80640596902E+03  0.00000000000E+00 0.  1.
          3    1    3    3  501    0  0.27100483269E+03 -0.19438918377E+02 -0.13213525843E+03  0.30212781635E+03  0.00000000000E+00 0.  1.
         21    1    1    2  502  501 -0.11367932582E+00  0.12576909602E+00  0.43954794149E+00  0.47110853049E+00  0.00000000000E+00 0.  1.
<mgrwt>
<rscale>  1 0.65893202E+03</rscale>
<asrwt>0</asrwt>
<pdfrwt beam="1">  1        1 0.39638227E+00 0.65893202E+03</pdfrwt>
<pdfrwt beam="2">0</pdfrwt>
<totfact> 0.13861034E+00</totfact>
</mgrwt>
</event>
<event>
 6    1  0.1213626E-003  0.6647773E+03  0.7818608E-02  0.9779439E-01
          1   -1    0    0  502    0  0.00000000000E+00  0.00000000000E+00  0.11061546372E+03  0.11061546372E+03  0.00000000000E+00 0.  1.
         13   -1    0    0    0    0 -0.00000000000E+00 -0.00000000000E+00 -0.10000000000E+04  0.10000000000E+04  0.00000000000E+00 0.  1.
    9000005    2    1    2  501    0  0.19667612371E-01 -0.76491832615E-02 -0.88951686943E+03  0.11104814585E+04  0.66477726218E+03 0.  0.
         13    1    3    3    0    0 -0.19923948186E+03 -0.23386921777E+03 -0.65663816488E+03  0.72495852415E+03  0.00000000000E+00 0.  1.
          1    1    3    3  501    0  0.19925914947E+03  0.23386156859E+03 -0.23287870455E+03  0.38552293439E+03  0.00000000000E+00 0.  1.
         21    1    1    2  502  501 -0.19667612371E-01  0.76491832615E-02  0.13233315384E+00  0.13400518120E+00  0.00000000000E+00 0. -1.
<mgrwt>
<rscale>  1 0.66477726E+03</rscale>
<asrwt>0</asrwt>
<pdfrwt beam="1">  1        1 0.40223890E+00 0.66477726E+03</pdfrwt>
<pdfrwt beam="2">0</pdfrwt>
<totfact> 0.13038114E+00</totfact>
</mgrwt>
</event>
<event>
 6    1  0.1213626E-003  0.6495195E+03  0.7818608E-02  0.9807681E-01
          1   -1    0    0  502    0  0.00000000000E+00  0.00000000000E+00  0.10840012391E+03  0.10840012391E+03  0.00000000000E+00 0.  1.
         13   -1    0    0    0    0 -0.00000000000E+00 -0.00000000000E+00 -0.10000000000E+04  0.10000000000E+04  0.00000000000E+00 0.  1.
    9000005    2    1    2  501    0  0.12309800184E+01  0.27685523722E+00 -0.89438026325E+03  0.11053468448E+04  0.64951828307E+03 0.  0.
         13    1    3    3    0    0  0.24045991324E+03  0.20930364792E+03 -0.33773734620E+03  0.46443029824E+03  0.00000000000E+00 0.  1.
          1    1    3    3  501    0 -0.23922893322E+03 -0.20902679268E+03 -0.55664291705E+03  0.64091654655E+03  0.00000000000E+00 0.  1.
         21    1    1    2  502  501 -0.12309800184E+01 -0.27685523722E+00  0.27803871573E+01  0.30532791180E+01  0.00000000000E+00 0. -1.
<mgrwt>
<rscale>  1 0.64951951E+03</rscale>
<asrwt>0</asrwt>
<pdfrwt beam="1">  1        1 0.39418310E+00 0.64951951E+03</pdfrwt>
<pdfrwt beam="2">0</pdfrwt>
<totfact> 0.14201728E+00</totfact>
</mgrwt>
</event>
<event>
 6    1  0.1213626E-003  0.6408930E+03  0.7818608E-02  0.9824020E-01
          1   -1    0    0  502    0  0.00000000000E+00  0.00000000000E+00  0.10274163846E+03  0.10274163846E+03  0.00000000000E+00 0.  1.
         13   -1    0    0    0    0 -0.00000000000E+00 -0.00000000000E+00 -0.10000000000E+04  0.10000000000E+04  0.00000000000E+00 0.  1.
    9000005    2    1    2  501    0  0.26840578695E-01  0.16483322381E-01 -0.89730909205E+03  0.11026819250E+04  0.64089298638E+03 0.  0.
         13    1    3    3    0    0  0.21456163688E+03 -0.10153015001E+03 -0.81905926877E+03  0.85276207300E+03  0.00000000000E+00 0.  1.
          1    1    3    3  501    0 -0.21453479631E+03  0.10154663333E+03 -0.78249823277E+02  0.24991985197E+03  0.00000000000E+00 0.  1.
         21    1    1    2  502  501 -0.26840578695E-01 -0.16483322381E-01  0.50730506782E-01  0.59713490099E-01  0.00000000000E+00 0.  1.
<mgrwt>
<rscale>  1 0.64089299E+03</rscale>
<asrwt>0</asrwt>
<pdfrwt beam="1">  1        1 0.37360675E+00 0.64089299E+03</pdfrwt>
<pdfrwt beam="2">0</pdfrwt>
<totfact> 0.17538506E+00</totfact>
</mgrwt>
</event>
<event>
 6    1  0.1213626E-003  0.6442429E+03  0.7818608E-02  0.9817642E-01
          1   -1    0    0  502    0  0.00000000000E+00  0.00000000000E+00  0.10893956624E+03  0.10893956624E+03  0.00000000000E+00 0.  1.
         13   -1    0    0    0    0 -0.00000000000E+00 -0.00000000000E+00 -0.10000000000E+04  0.10000000000E+04  0.00000000000E+00 0.  1.
    9000005    2    1    2  501    0 -0.11345350404E+01 -0.11117864043E+01 -0.89610296274E+03  0.11036527584E+04  0.64424092389E+03 0.  0.
         13    1    3    3    0    0 -0.43708920393E+01  0.57463572665E+02 -0.99068212723E+03  0.99235691366E+03  0.00000000000E+00 0.  1.
          3    1    3    3  501    0  0.32363569989E+01 -0.58575359070E+02  0.94579164488E+02  0.11129584472E+03  0.00000000000E+00 0.  1.
         21    1    1    2  502  501  0.11345350404E+01  0.11117864043E+01  0.50425289810E+01  0.52868078545E+01  0.00000000000E+00 0. -1.
<mgrwt>
<rscale>  1 0.64424288E+03</rscale>
<asrwt>0</asrwt>
<pdfrwt beam="1">  1        1 0.39614471E+00 0.64424288E+03</pdfrwt>
<pdfrwt beam="2">0</pdfrwt>
<totfact> 0.13933337E+00</totfact>
</mgrwt>
</event>
<event>
 6    1  0.1213626E-003  0.6472815E+03  0.7818608E-02  0.9811894E-01
          1   -1    0    0  502    0  0.00000000000E+00  0.00000000000E+00  0.10842406879E+03  0.10842406879E+03  0.00000000000E+00 0.  1.
         13   -1    0    0    0    0 -0.00000000000E+00 -0.00000000000E+00 -0.10000000000E+04  0.10000000000E+04  0.00000000000E+00 0.  1.
    9000005    2    1    2  501    0  0.34987624650E-01  0.47489612311E-01 -0.89525639579E+03  0.11047431316E+04  0.64728152223E+03 0.  0.
         13    1    3    3    0    0 -0.63422374839E+02 -0.17062966926E+02  0.93248218993E+02  0.11405600736E+03  0.00000000000E+00 0.  1.
          3    1    3    3  501    0  0.63457362463E+02  0.17110456538E+02 -0.98850461479E+03  0.99068712419E+03  0.00000000000E+00 0.  1.
         21    1    1    2  502  501 -0.34987624650E-01 -0.47489612311E-01  0.36804645855E+01  0.36809372397E+01  0.00000000000E+00 0.  1.
<mgrwt>
<rscale>  1 0.64728152E+03</rscale>
<asrwt>0</asrwt>
<pdfrwt beam="1">  1        1 0.39427017E+00 0.64728152E+03</pdfrwt>
<pdfrwt beam="2">0</pdfrwt>
<totfact> 0.14195071E+00</totfact>
</mgrwt>
</event>
<event>
 6    1  0.1213626E-003  0.6274752E+03  0.7818608E-02  0.9849988E-01
          1   -1    0    0  502    0  0.00000000000E+00  0.00000000000E+00  0.98431442611E+02  0.98431442611E+02  0.00000000000E+00 0.  1.
         13   -1    0    0    0    0 -0.00000000000E+00 -0.00000000000E+00 -0.10000000000E+04  0.10000000000E+04  0.00000000000E+00 0.  1.
    9000005    2    1    2  501    0 -0.45665191806E-05 -0.32973965119E-04 -0.90156871038E+03  0.10984312860E+04  0.62747521913E+03 0.  0.
         13    1    3    3    0    0  0.28509219821E+03 -0.12283747558E+03 -0.53032756183E+03  0.61450299407E+03  0.00000000000E+00 0.  1.
          1    1    3    3  501    0 -0.28509220278E+03  0.12283744261E+03 -0.37124114855E+03  0.48392829197E+03  0.00000000000E+00 0.  1.
         21    1    1    2  502  501  0.45665191458E-05  0.32973965117E-04  0.15299097098E-03  0.15657066352E-03  0.00000000000E+00 0. -1.
<mgrwt>
<rscale>  1 0.62747522E+03</rscale>
<asrwt>0</asrwt>
<pdfrwt beam="1">  1        1 0.35793327E+00 0.62747522E+03</pdfrwt>
<pdfrwt beam="2">0</pdfrwt>
<totfact> 0.20595033E+00</totfact>
</mgrwt>
</event>
<event>
 6    1  0.1213626E-003  0.6499700E+03  0.7818608E-02  0.9806835E-01
          1   -1    0    0  502    0  0.00000000000E+00  0.00000000000E+00  0.10561650059E+03  0.10561650059E+03  0.00000000000E+00 0.  1.
         13   -1    0    0    0    0 -0.00000000000E+00 -0.00000000000E+00 -0.10000000000E+04  0.10000000000E+04  0.00000000000E+00 0.  1.
    9000005    2    1    2  501    0  0.39653617847E-04  0.14930762561E-03 -0.89438474261E+03  0.11056152478E+04  0.64997000579E+03 0.  0.
         13    1    3    3    0    0  0.58589135044E+02  0.23831695642E+03 -0.84799731951E+02  0.25965102156E+03  0.00000000000E+00 0.  1.
          1    1    3    3  501    0 -0.58589095390E+02 -0.23831680711E+03 -0.80958501065E+03  0.84596422627E+03  0.00000000000E+00 0.  1.
         21    1    1    2  502  501 -0.39653617848E-04 -0.14930762561E-03  0.12431925476E-02  0.12527541207E-02  0.00000000000E+00 0.  1.
<mgrwt>
<rscale>  1 0.64997001E+03</rscale>
<asrwt>0</asrwt>
<pdfrwt beam="1">  1        1 0.38406081E+00 0.64997001E+03</pdfrwt>
<pdfrwt beam="2">0</pdfrwt>
<totfact> 0.15745915E+00</totfact>
</mgrwt>
</event>
<event>
 6    1  0.1213626E-003  0.6532500E+03  0.7818608E-02  0.9800700E-01
          1   -1    0    0  502    0  0.00000000000E+00  0.00000000000E+00  0.10707928867E+03  0.10707928867E+03  0.00000000000E+00 0.  1.
         13   -1    0    0    0    0 -0.00000000000E+00 -0.00000000000E+00 -0.10000000000E+04  0.10000000000E+04  0.00000000000E+00 0.  1.
    9000005    2    1    2  501    0  0.29124589946E-01  0.39148181773E-01 -0.89331445706E+03  0.11066825312E+04  0.65324995462E+03 0.  0.
         13    1    3    3    0    0  0.27589821308E+03  0.15845737417E+03 -0.57197792579E+03  0.65451303348E+03  0.00000000000E+00 0.  1.
          1    1    3    3  501    0 -0.27586908849E+03 -0.15841822598E+03 -0.32133653126E+03  0.45216949768E+03  0.00000000000E+00 0.  1.
         21    1    1    2  502  501 -0.29124589946E-01 -0.39148181773E-01  0.39374572424E+00  0.39675750432E+00  0.00000000000E+00 0. -1.
<mgrwt>
<rscale>  1 0.65324996E+03</rscale>
<asrwt>0</asrwt>
<pdfrwt beam="1">  1        1 0.38938005E+00 0.65324996E+03</pdfrwt>
<pdfrwt beam="2">0</pdfrwt>
<totfact> 0.14905806E+00</totfact>
</mgrwt>
</event>
<event>
 6    1  0.1213626E-003  0.6562858E+03  0.7818608E-02  0.9795055E-01
          1   -1    0    0  502    0  0.00000000000E+00  0.00000000000E+00  0.11590397009E+03  0.11590397009E+03  0.00000000000E+00 0.  1.
         13   -1    0    0    0    0 -0.00000000000E+00 -0.00000000000E+00 -0.10000000000E+04  0.10000000000E+04  0.00000000000E+00 0.  1.
    9000005    2    1    2  501    0 -0.66987080345E-01  0.23584005141E+00 -0.89232022822E+03  0.11076761183E+04  0.65628571003E+03 0.  0.
         13    1    3    3    0    0  0.25199039418E+03 -0.14702973724E+03 -0.19283179580E+03  0.34971560426E+03  0.00000000000E+00 0.  1.
          3    1    3    3  501    0 -0.25205738126E+03  0.14726557730E+03 -0.69948843242E+03  0.75796051400E+03  0.00000000000E+00 0.  1.
         21    1    1    2  502  501  0.66987080345E-01 -0.23584005141E+00  0.82241983066E+01  0.82278518208E+01  0.00000000000E+00 0.  1.
<mgrwt>
<rscale>  1 0.65628576E+03</rscale>
<asrwt>0</asrwt>
<pdfrwt beam="1">  1        1 0.42146987E+00 0.65628576E+03</pdfrwt>
<pdfrwt beam="2">0</pdfrwt>
<totfact> 0.10704966E+00</totfact>
</mgrwt>
</event>
<event>
 6    1  0.1213626E-003  0.6452474E+03  0.7818608E-02  0.9815738E-01
          1   -1    0    0  502    0  0.00000000000E+00  0.00000000000E+00  0.10408609121E+03  0.10408609121E+03  0.00000000000E+00 0.  1.
         13   -1    0    0    0    0 -0.00000000000E+00 -0.00000000000E+00 -0.10000000000E+04  0.10000000000E+04  0.00000000000E+00 0.  1.
    9000005    2    1    2  501    0  0.86897084657E-05 -0.14593077481E-04 -0.89591393065E+03  0.11040860635E+04  0.64524744443E+03 0.  0.
         13    1    3    3    0    0 -0.14632855590E+03  0.16865878007E+03 -0.49492712013E+02  0.22870802109E+03  0.00000000000E+00 0.  1.
          3    1    3    3  501    0  0.14632856459E+03 -0.16865879467E+03 -0.84642121864E+03  0.87537804244E+03  0.00000000000E+00 0.  1.
         21    1    1    2  502  501 -0.86897084498E-05  0.14593077483E-04  0.21863182432E-04  0.27685152869E-04  0.00000000000E+00 0. -1.
<mgrwt>
<rscale>  1 0.64524744E+03</rscale>
<asrwt>0</asrwt>
<pdfrwt beam="1">  1        1 0.37849568E+00 0.64524744E+03</pdfrwt>
<pdfrwt beam="2">0</pdfrwt>
<totfact> 0.16676910E+00</totfact>
</mgrwt>
</event>
<event>
 6    1  0.1213626E-003  0.6494912E+03  0.7818608E-02  0.9807734E-01
          1   -1    0    0  502    0  0.00000000000E+00  0.00000000000E+00  0.13509944439E+03  0.13509944439E+03  0.00000000000E+00 0.  1.
         13   -1    0    0    0    0 -0.00000000000E+00 -0.00000000000E+00 -0.10000000000E+04  0.10000000000E+04  0.00000000000E+00 0.  1.
    9000005    2    1    2  501    0  0.32371644417E+01 -0.48208685356E+01 -0.89422557329E+03  0.11052050190E+04  0.64946519393E+03 0.  0.
         13    1    3    3    0    0 -0.24610601147E+03 -0.16605258858E+03 -0.22323583972E+03  0.37145103471E+03  0.00000000000E+00 0.  1.
          1    1    3    3  501    0  0.24934317591E+03  0.16123172005E+03 -0.67098973357E+03  0.73375398430E+03  0.00000000000E+00 0.  1.
         21    1    1    2  502  501 -0.32371644417E+01  0.48208685356E+01  0.29325017675E+02  0.29894425378E+02  0.00000000000E+00 0. -1.
<mgrwt>
<rscale>  1 0.64949115E+03</rscale>
<asrwt>0</asrwt>
<pdfrwt beam="1">  1        1 0.49127174E+00 0.64949115E+03</pdfrwt>
<pdfrwt beam="2">0</pdfrwt>
<totfact> 0.50913730E-01</totfact>
</mgrwt>
</event>
<event>
 6    1  0.1213626E-003  0.6437167E+03  0.7818608E-02  0.9818641E-01
          1   -1    0    0  502    0  0.00000000000E+00  0.00000000000E+00  0.10359318333E+03  0.10359318333E+03  0.00000000000E+00 0.  1.
         13   -1    0    0    0    0 -0.00000000000E+00 -0.00000000000E+00 -0.10000000000E+04  0.10000000000E+04  0.00000000000E+00 0.  1.
    9000005    2    1    2  501    0 -0.48874888137E-05  0.60164814414E-04 -0.89640720529E+03  0.11035927901E+04  0.64371668346E+03 0.  0.
         13    1    3    3    0    0  0.22646067125E+03  0.21478944315E+03 -0.58291138348E+03  0.66121450490E+03  0.00000000000E+00 0.  1.
          3    1    3    3  501    0 -0.22646067614E+03 -0.21478938298E+03 -0.31349582181E+03  0.44237828515E+03  0.00000000000E+00 0.  1.
         21    1    1    2  502  501  0.48874888188E-05 -0.60164814424E-04  0.38861332417E-03  0.39327345215E-03  0.00000000000E+00 0.  1.
<mgrwt>
<rscale>  1 0.64371668E+03</rscale>
<asrwt>0</asrwt>
<pdfrwt beam="1">  1        1 0.37670328E+00 0.64371668E+03</pdfrwt>
<pdfrwt beam="2">0</pdfrwt>
<totfact> 0.16987789E+00</totfact>
</mgrwt>
</event>
<event>
 6    1  0.1213626E-003  0.5265782E+03  0.7818608E-02  0.1007065E+00
          1   -1    0    0  502    0  0.00000000000E+00  0.00000000000E+00  0.72701534009E+02  0.72701534009E+02  0.00000000000E+00 0.  1.
         13   -1    0    0    0    0 -0.00000000000E+00 -0.00000000000E+00 -0.10000000000E+04  0.10000000000E+04  0.00000000000E+00 0.  1.
    9000005    2    1    2  501    0  0.16612897122E+01  0.78699887620E+00 -0.93041022324E+03  0.10690873558E+04  0.52657498196E+03 0.  0.
         13    1    3    3    0    0  0.16112186796E+02  0.24331884004E+03 -0.66970926084E+03  0.71272305599E+03  0.00000000000E+00 0.  1.
          3    1    3    3  501    0 -0.14450897084E+02 -0.24253184116E+03 -0.26070096240E+03  0.35636429984E+03  0.00000000000E+00 0.  1.
         21    1    1    2  502  501 -0.16612897122E+01 -0.78699887620E+00  0.31117572524E+01  0.36141781827E+01  0.00000000000E+00 0. -1.
<mgrwt>
<rscale>  1 0.52657819E+03</rscale>
<asrwt>0</asrwt>
<pdfrwt beam="1">  1        1 0.26436977E+00 0.52657819E+03</pdfrwt>
<pdfrwt beam="2">0</pdfrwt>
<totfact> 0.53259991E+00</totfact>
</mgrwt>
</event>
<event>
 6    1  0.2553587E-003  0.6417207E+03  0.7818608E-02  0.9822440E-01
          3   -1    0    0  502    0  0.00000000000E+00  0.00000000000E+00  0.10295136234E+03  0.10295136234E+03  0.00000000000E+00 0.  1.
         13   -1    0    0    0    0 -0.00000000000E+00 -0.00000000000E+00 -0.10000000000E+04  0.10000000000E+04  0.00000000000E+00 0.  1.
    9000005    2    1    2  501    0 -0.16783746645E-04  0.10862815799E-04 -0.89704862988E+03  0.11029513409E+04  0.64172066819E+03 0.  0.
         13    1    3    3    0    0  0.19309283241E+03  0.48145939288E+02 -0.15932374362E+02  0.19964146350E+03  0.00000000000E+00 0.  1.
          3    1    3    3  501    0 -0.19309284919E+03 -0.48145928425E+02 -0.88111625552E+03  0.90330987738E+03  0.00000000000E+00 0.  1.
         21    1    1    2  502  501  0.16783746642E-04 -0.10862815795E-04 -0.77858119611E-05  0.21454924522E-04  0.00000000000E+00 0. -1.
<mgrwt>
<rscale>  1 0.64172067E+03</rscale>
<asrwt>0</asrwt>
<pdfrwt beam="1">  1        3 0.37436938E+00 0.64172067E+03</pdfrwt>
<pdfrwt beam="2">0</pdfrwt>
<totfact> 0.80944657E-02</totfact>
</mgrwt>
</event>
<event>
 6    1  0.1213626E-003  0.6409334E+03  0.7818608E-02  0.9823942E-01
          1   -1    0    0  502    0  0.00000000000E+00  0.00000000000E+00  0.10272077145E+03  0.10272077145E+03  0.00000000000E+00 0.  1.
         13   -1    0    0    0    0 -0.00000000000E+00 -0.00000000000E+00 -0.10000000000E+04  0.10000000000E+04  0.00000000000E+00 0.  1.
    9000005    2    1    2  501    0  0.48936021371E-01  0.81125094930E-02 -0.89726431787E+03  0.11026689750E+04  0.64093338951E+03 0.  0.
         13    1    3    3    0    0 -0.19731054608E+03  0.35414850108E+02 -0.18495580183E+02  0.20131505083E+03  0.00000000000E+00 0.  1.
          1    1    3    3  501    0  0.19735948210E+03 -0.35406737598E+02 -0.87876873768E+03  0.90135392414E+03  0.00000000000E+00 0.  1.
         21    1    1    2  502  501 -0.48936021371E-01 -0.81125094930E-02 -0.14910682145E-01  0.51796480961E-01  0.00000000000E+00 0.  1.
<mgrwt>
<rscale>  1 0.64093339E+03</rscale>
<asrwt>0</asrwt>
<pdfrwt beam="1">  1        1 0.37353087E+00 0.64093339E+03</pdfrwt>
<pdfrwt beam="2">0</pdfrwt>
<totfact> 0.17551861E+00</totfact>
</mgrwt>
</event>
<event>
 6    1  0.1213626E-003  0.6367428E+03  0.7818608E-02  0.9831978E-01
          1   -1    0    0  502    0  0.00000000000E+00  0.00000000000E+00  0.10202226580E+03  0.10202226580E+03  0.00000000000E+00 0.  1.
         13   -1    0    0    0    0 -0.00000000000E+00 -0.00000000000E+00 -0.10000000000E+04  0.10000000000E+04  0.00000000000E+00 0.  1.
    9000005    2    1    2  501    0 -0.59000510232E-01  0.21868415795E-01 -0.89863800264E+03  0.11013590059E+04  0.63674280216E+03 0.  0.
         13    1    3    3    0    0  0.13804529074E+03 -0.27888117197E+03 -0.56550951567E+03  0.64547054363E+03  0.00000000000E+00 0.  1.
          3    1    3    3  501    0 -0.13810429125E+03  0.27890304038E+03 -0.33312848697E+03  0.45588846227E+03  0.00000000000E+00 0.  1.
         21    1    1    2  502  501  0.59000510232E-01 -0.21868415795E-01  0.66026844432E+00  0.66325990862E+00  0.00000000000E+00 0.  1.
<mgrwt>
<rscale>  1 0.63674281E+03</rscale>
<asrwt>0</asrwt>
<pdfrwt beam="1">  1        1 0.37099084E+00 0.63674281E+03</pdfrwt>
<pdfrwt beam="2">0</pdfrwt>
<totfact> 0.18022792E+00</totfact>
</mgrwt>
</event>
<event>
 6    1  0.1956819E-003  0.6509269E+03  0.7818608E-02  0.9805041E-01
          1   -1    0    0  502    0  0.00000000000E+00  0.00000000000E+00  0.10592646240E+03  0.10592646240E+03  0.00000000000E+00 0.  1.
         13   -1    0    0    0    0 -0.00000000000E+00 -0.00000000000E+00 -0.10000000000E+04  0.10000000000E+04  0.00000000000E+00 0.  1.
    9000005    2    1    2  501    0  0.10352067804E-04  0.15612182409E-04 -0.89407353199E+03  0.11059264428E+04  0.65092689020E+03 0.  0.
         13    1    3    3    0    0  0.75378828891E+02 -0.23739027135E+03 -0.80297816758E+03  0.84071995717E+03  0.00000000000E+00 0.  1.
          1    1    3    3  501    0 -0.75378818539E+02  0.23739028696E+03 -0.91095364405E+02  0.26520648567E+03  0.00000000000E+00 0.  1.
         21    1    1    2  502  501 -0.10352067802E-04 -0.15612182393E-04 -0.56100987078E-05  0.19554507264E-04  0.00000000000E+00 0.  1.
<mgrwt>
<rscale>  1 0.65092689E+03</rscale>
<asrwt>0</asrwt>
<pdfrwt beam="1">  1        1 0.38518795E+00 0.65092689E+03</pdfrwt>
<pdfrwt beam="2">0</pdfrwt>
<totfact> 0.15563474E+00</totfact>
</mgrwt>
</event>
<event>
 6    1  0.1213626E-003  0.6513902E+03  0.7818608E-02  0.9804174E-01
          1   -1    0    0  502    0  0.00000000000E+00  0.00000000000E+00  0.11197723139E+03  0.11197723139E+03  0.00000000000E+00 0.  1.
         13   -1    0    0    0    0 -0.00000000000E+00 -0.00000000000E+00 -0.10000000000E+04  0.10000000000E+04  0.00000000000E+00 0.  1.
    9000005    2    1    2  501    0 -0.75921428060E+00 -0.21354991446E+01 -0.89368100134E+03  0.11058819578E+04  0.65138624148E+03 0.  0.
         13    1    3    3    0    0 -0.24461271461E+03  0.16167532449E+03 -0.20675905655E+03  0.35878071041E+03  0.00000000000E+00 0.  1.
          1    1    3    3  501    0  0.24385350033E+03 -0.16381082363E+03 -0.68692194479E+03  0.74710124735E+03  0.00000000000E+00 0.  1.
         21    1    1    2  502  501  0.75921428060E+00  0.21354991446E+01  0.56582327320E+01  0.60952736255E+01  0.00000000000E+00 0.  1.
<mgrwt>
<rscale>  1 0.65139018E+03</rscale>
<asrwt>0</asrwt>
<pdfrwt beam="1">  1        1 0.40719079E+00 0.65139018E+03</pdfrwt>
<pdfrwt beam="2">0</pdfrwt>
<totfact> 0.12421763E+00</totfact>
</mgrwt>
</event>
<event>
 6    1  0.1213626E-003  0.6536780E+03  0.7818608E-02  0.9799902E-01
          1   -1    0    0  502    0  0.00000000000E+00  0.00000000000E+00  0.10682495487E+03  0.10682495487E+03  0.00000000000E+00 0.  1.
         13   -1    0    0    0    0 -0.00000000000E+00 -0.00000000000E+00 -0.10000000000E+04  0.10000000000E+04  0.00000000000E+00 0.  1.
    9000005    2    1    2  501    0  0.22011638578E-03 -0.18779456957E-03 -0.89317625734E+03  0.11068237086E+04  0.65367797518E+03 0.  0.
         13    1    3    3    0    0 -0.74783313197E+02 -0.28906052834E+03 -0.22147699818E+03  0.37175340442E+03  0.00000000000E+00 0.  1.
          1    1    3    3  501    0  0.74783533314E+02  0.28906034054E+03 -0.67169925917E+03  0.73507030419E+03  0.00000000000E+00 0.  1.
         21    1    1    2  502  501 -0.22011638578E-03  0.18779456959E-03  0.12122130752E-02  0.12462658477E-02  0.00000000000E+00 0. -1.
<mgrwt>
<rscale>  1 0.65367798E+03</rscale>
<asrwt>0</asrwt>
<pdfrwt beam="1">  1        1 0.38845520E+00 0.65367798E+03</pdfrwt>
<pdfrwt beam="2">0</pdfrwt>
<totfact> 0.15045968E+00</totfact>
</mgrwt>
</event>
<event>
 6    1  0.1213626E-003  0.5977406E+03  0.7818608E-02  0.9910105E-01
          1   -1    0    0  502    0  0.00000000000E+00  0.00000000000E+00  0.99081307681E+02  0.99081307681E+02  0.00000000000E+00 0.  1.
         13   -1    0    0    0    0 -0.00000000000E+00 -0.00000000000E+00 -0.10000000000E+04  0.10000000000E+04  0.00000000000E+00 0.  1.
    9000005    2    1    2  501    0 -0.17839155209E+02  0.24984895176E+02 -0.86961129509E+03  0.10552334620E+04  0.59695173543E+03 0.  0.
         13    1    3    3    0    0 -0.23527291932E+03  0.13582233113E+03 -0.71860247336E+03  0.76823861327E+03  0.00000000000E+00 0.  1.
          3    1    3    3  501    0  0.21743376411E+03 -0.11083743595E+03 -0.15100882172E+03  0.28699484877E+03  0.00000000000E+00 0.  1.
         21    1    1    2  502  501  0.17839155209E+02 -0.24984895176E+02 -0.31307397233E+02  0.43847845637E+02  0.00000000000E+00 0. -1.
<mgrwt>
<rscale>  1 0.59774063E+03</rscale>
<asrwt>0</asrwt>
<pdfrwt beam="1">  1        1 0.36029642E+00 0.59774063E+03</pdfrwt>
<pdfrwt beam="2">0</pdfrwt>
<totfact> 0.20221798E+00</totfact>
</mgrwt>
</event>
<event>
 6    1  0.1213626E-003  0.6535129E+03  0.7818608E-02  0.9800210E-01
          1   -1    0    0  502    0  0.00000000000E+00  0.00000000000E+00  0.10677787979E+03  0.10677787979E+03  0.00000000000E+00 0.  1.
         13   -1    0    0    0    0 -0.00000000000E+00 -0.00000000000E+00 -0.10000000000E+04  0.10000000000E+04  0.00000000000E+00 0.  1.
    9000005    2    1    2  501    0 -0.25545780600E-03 -0.29172972972E-04 -0.89323022741E+03  0.11067697685E+04  0.65351287773E+03 0.  0.
         13    1    3    3    0    0 -0.63054116844E+01 -0.26296408915E+03 -0.77492278219E+03  0.81834906290E+03  0.00000000000E+00 0.  1.
          1    1    3    3  501    0  0.63051562266E+01  0.26296405997E+03 -0.11830744521E+03  0.28842070561E+03  0.00000000000E+00 0.  1.
         21    1    1    2  502  501  0.25545780600E-03  0.29172972969E-04  0.81071943345E-02  0.81112705374E-02  0.00000000000E+00 0.  1.
<mgrwt>
<rscale>  1 0.65351288E+03</rscale>
<asrwt>0</asrwt>
<pdfrwt beam="1">  1        1 0.38828402E+00 0.65351288E+03</pdfrwt>
<pdfrwt beam="2">0</pdfrwt>
<totfact> 0.15072730E+00</totfact>
</mgrwt>
</event>
<event>
 6    1  0.1213626E-003  0.6361802E+03  0.7818608E-02  0.9833062E-01
          1   -1    0    0  502    0  0.00000000000E+00  0.00000000000E+00  0.10118184419E+03  0.10118184419E+03  0.00000000000E+00 0.  1.
         13   -1    0    0    0    0 -0.00000000000E+00 -0.00000000000E+00 -0.10000000000E+04  0.10000000000E+04  0.00000000000E+00 0.  1.
    9000005    2    1    2  501    0  0.27004257376E-04 -0.56110018477E-04 -0.89881869830E+03  0.11011812981E+04  0.63618016236E+03 0.  0.
         13    1    3    3    0    0  0.20262527610E+02 -0.29029784520E+03 -0.22708191026E+03  0.36912003863E+03  0.00000000000E+00 0.  1.
          1    1    3    3  501    0 -0.20262500606E+02  0.29029778909E+03 -0.67173678804E+03  0.73206125951E+03  0.00000000000E+00 0.  1.
         21    1    1    2  502  501 -0.27004257376E-04  0.56110018469E-04  0.54248198800E-03  0.54604420278E-03  0.00000000000E+00 0.  1.
<mgrwt>
<rscale>  1 0.63618016E+03</rscale>
<asrwt>0</asrwt>
<pdfrwt beam="1">  1        1 0.36793475E+00 0.63618016E+03</pdfrwt>
<pdfrwt beam="2">0</pdfrwt>
<totfact> 0.18590232E+00</totfact>
</mgrwt>
</event>
<event>
 6    1  0.1213626E-003  0.6425603E+03  0.7818608E-02  0.9820840E-01
          1   -1    0    0  502    0  0.00000000000E+00  0.00000000000E+00  0.11604082942E+03  0.11604082942E+03  0.00000000000E+00 0.  1.
         13   -1    0    0    0    0 -0.00000000000E+00 -0.00000000000E+00 -0.10000000000E+04  0.10000000000E+04  0.00000000000E+00 0.  1.
    9000005    2    1    2  501    0  0.28428206525E-01  0.22617488287E+00 -0.89677794897E+03  0.11032200244E+04  0.64256025430E+03 0.  0.
         13    1    3    3    0    0  0.27980158073E+03 -0.15361127517E+03 -0.51044340217E+03  0.60202808511E+03  0.00000000000E+00 0.  1.
          3    1    3    3  501    0 -0.27977315253E+03  0.15383745005E+03 -0.38633454680E+03  0.50119193924E+03  0.00000000000E+00 0.  1.
         21    1    1    2  502  501 -0.28428206525E-01 -0.22617488287E+00  0.12818778390E+02  0.12820805070E+02  0.00000000000E+00 0.  1.
<mgrwt>
<rscale>  1 0.64256029E+03</rscale>
<asrwt>0</asrwt>
<pdfrwt beam="1">  1        1 0.42196754E+00 0.64256029E+03</pdfrwt>
<pdfrwt beam="2">0</pdfrwt>
<totfact> 0.10678775E+00</totfact>
</mgrwt>
</event>
<event>
 6    1  0.1213626E-003  0.6461941E+03  0.7818608E-02  0.9813947E-01
          1   -1    0    0  502    0  0.00000000000E+00  0.00000000000E+00  0.10439981170E+03  0.10439981170E+03  0.00000000000E+00 0.  1.
         13   -1    0    0    0    0 -0.00000000000E+00 -0.00000000000E+00 -0.10000000000E+04  0.10000000000E+04  0.00000000000E+00 0.  1.
    9000005    2    1    2  501    0  0.77233985786E-03 -0.25045638784E-03 -0.89560826514E+03  0.11043916942E+04  0.64619412681E+03 0.  0.
         13    1    3    3    0    0 -0.28241928788E+03  0.39936105962E+02 -0.70719952178E+03  0.76255275905E+03  0.00000000000E+00 0.  1.
          1    1    3    3  501    0  0.28242006022E+03 -0.39936356419E+02 -0.18840874336E+03  0.34183893510E+03  0.00000000000E+00 0.  1.
         21    1    1    2  502  501 -0.77233985786E-03  0.25045638784E-03  0.80768398050E-02  0.81175475665E-02  0.00000000000E+00 0.  1.
<mgrwt>
<rscale>  1 0.64619413E+03</rscale>
<asrwt>0</asrwt>
<pdfrwt beam="1">  1        1 0.37963648E+00 0.64619413E+03</pdfrwt>
<pdfrwt beam="2">0</pdfrwt>
<totfact> 0.16481960E+00</totfact>
</mgrwt>
</event>
<event>
 6    1  0.1213626E-003  0.6530539E+03  0.7818608E-02  0.9801066E-01
          1   -1    0    0  502    0  0.00000000000E+00  0.00000000000E+00  0.13427572085E+03  0.13427572085E+03  0.00000000000E+00 0.  1.
         13   -1    0    0    0    0 -0.00000000000E+00 -0.00000000000E+00 -0.10000000000E+04  0.10000000000E+04  0.00000000000E+00 0.  1.
    9000005    2    1    2  501    0  0.55913689763E+00 -0.36104375098E+00 -0.89337572553E+03  0.11066162654E+04  0.65305354220E+03 0.  0.
         13    1    3    3    0    0 -0.99397174703E+02  0.20903790777E+03 -0.83619776629E+03  0.86764240881E+03  0.00000000000E+00 0.  1.
          3    1    3    3  501    0  0.99956311601E+02 -0.20939895152E+03 -0.57177959240E+02  0.23897385662E+03  0.00000000000E+00 0.  1.
         21    1    1    2  502  501 -0.55913689763E+00  0.36104375098E+00  0.27651446382E+02  0.27659455412E+02  0.00000000000E+00 0.  1.
<mgrwt>
<rscale>  1 0.65305388E+03</rscale>
<asrwt>0</asrwt>
<pdfrwt beam="1">  1        1 0.48827638E+00 0.65305388E+03</pdfrwt>
<pdfrwt beam="2">0</pdfrwt>
<totfact> 0.52572174E-01</totfact>
</mgrwt>
</event>
<event>
 6    1  0.1213626E-003  0.6440674E+03  0.7818608E-02  0.9817975E-01
          1   -1    0    0  502    0  0.00000000000E+00  0.00000000000E+00  0.10370571705E+03  0.10370571705E+03  0.00000000000E+00 0.  1.
         13   -1    0    0    0    0 -0.00000000000E+00 -0.00000000000E+00 -0.10000000000E+04  0.10000000000E+04  0.00000000000E+00 0.  1.
    9000005    2    1    2  501    0  0.35167206534E-05 -0.58947453567E-05 -0.89629428603E+03  0.11037057095E+04  0.64406742354E+03 0.  0.
         13    1    3    3    0    0 -0.14327338820E+03  0.28838292876E+03 -0.44179692956E+03  0.54669598895E+03  0.00000000000E+00 0.  1.
          3    1    3    3  501    0  0.14327339171E+03 -0.28838293466E+03 -0.45449735648E+03  0.55700972058E+03  0.00000000000E+00 0.  1.
         21    1    1    2  502  501 -0.35167206582E-05  0.58947453723E-05  0.30858407697E-05  0.75258062989E-05  0.00000000000E+00 0.  1.
<mgrwt>
<rscale>  1 0.64406742E+03</rscale>
<asrwt>0</asrwt>
<pdfrwt beam="1">  1        1 0.37711249E+00 0.64406742E+03</pdfrwt>
<pdfrwt beam="2">0</pdfrwt>
<totfact> 0.16916327E+00</totfact>
</mgrwt>
</event>
<event>
 6    1  0.1213626E-003  0.6516587E+03  0.7818608E-02  0.9803672E-01
          1   -1    0    0  502    0  0.00000000000E+00  0.00000000000E+00  0.10988095676E+03  0.10988095676E+03  0.00000000000E+00 0.  1.
         13   -1    0    0    0    0 -0.00000000000E+00 -0.00000000000E+00 -0.10000000000E+04  0.10000000000E+04  0.00000000000E+00 0.  1.
    9000005    2    1    2  501    0  0.10985354703E+02  0.26777884978E+01 -0.87481471031E+03  0.10908527888E+04  0.65156057349E+03 0.  0.
         13    1    3    3    0    0  0.28071620641E+03 -0.66205534151E+02 -0.17416821200E+03  0.33692629367E+03  0.00000000000E+00 0.  1.
          1    1    3    3  501    0 -0.26973085170E+03  0.68883322649E+02 -0.70064649831E+03  0.75392649515E+03  0.00000000000E+00 0.  1.
         21    1    1    2  502  501 -0.10985354703E+02 -0.26777884978E+01 -0.15304332925E+02  0.19028167949E+02  0.00000000000E+00 0. -1.
<mgrwt>
<rscale>  1 0.65165868E+03</rscale>
<asrwt>0</asrwt>
<pdfrwt beam="1">  1        1 0.39956796E+00 0.65165868E+03</pdfrwt>
<pdfrwt beam="2">0</pdfrwt>
<totfact> 0.13433944E+00</totfact>
</mgrwt>
</event>
<event>
 6    1  0.1213626E-003  0.6599117E+03  0.7818608E-02  0.9788356E-01
          3   -1    0    0  502    0  0.00000000000E+00  0.00000000000E+00  0.10887484121E+03  0.10887484121E+03  0.00000000000E+00 0.  1.
         13   -1    0    0    0    0 -0.00000000000E+00 -0.00000000000E+00 -0.10000000000E+04  0.10000000000E+04  0.00000000000E+00 0.  1.
    9000005    2    1    2  501    0  0.91084767996E-02 -0.40965010614E-02 -0.89112014432E+03  0.11088636658E+04  0.65991174981E+03 0.  0.
         13    1    3    3    0    0 -0.19759144987E+03 -0.15500988987E+03 -0.85956135801E+02  0.26544096199E+03  0.00000000000E+00 0.  1.
          1    1    3    3  501    0  0.19760055834E+03  0.15500579337E+03 -0.80516400852E+03  0.84342270378E+03  0.00000000000E+00 0.  1.
         21    1    1    2  502  501 -0.91084767996E-02  0.40965010613E-02 -0.50144643375E-02  0.11175442861E-01  0.00000000000E+00 0.  1.
<mgrwt>
<rscale>  1 0.65991175E+03</rscale>
<asrwt>0</asrwt>
<pdfrwt beam="1">  1        3 0.39590935E+00 0.65991175E+03</pdfrwt>
<pdfrwt beam="2">0</pdfrwt>
<totfact> 0.62133777E-02</totfact>
</mgrwt>
</event>
<event>
 6    1  0.1213626E-003  0.6339404E+03  0.7818608E-02  0.9837389E-01
          1   -1    0    0  502    0  0.00000000000E+00  0.00000000000E+00  0.10048054179E+03  0.10048054179E+03  0.00000000000E+00 0.  1.
         13   -1    0    0    0    0 -0.00000000000E+00 -0.00000000000E+00 -0.10000000000E+04  0.10000000000E+04  0.00000000000E+00 0.  1.
    9000005    2    1    2  501    0 -0.72962928357E-05 -0.32925449356E-03 -0.89952989332E+03  0.11004701015E+04  0.63394038780E+03 0.  0.
         13    1    3    3    0    0  0.28590217861E+03 -0.17346022207E+02 -0.68542322307E+03  0.74286333531E+03  0.00000000000E+00 0.  1.
          3    1    3    3  501    0 -0.28590218590E+03  0.17345692952E+02 -0.21410667025E+03  0.35760676618E+03  0.00000000000E+00 0.  1.
         21    1    1    2  502  501  0.72962928026E-05  0.32925449356E-03  0.10435111902E-01  0.10440307570E-01  0.00000000000E+00 0. -1.
<mgrwt>
<rscale>  1 0.63394039E+03</rscale>
<asrwt>0</asrwt>
<pdfrwt beam="1">  1        1 0.36538456E+00 0.63394039E+03</pdfrwt>
<pdfrwt beam="2">0</pdfrwt>
<totfact> 0.19082938E+00</totfact>
</mgrwt>
</event>
<event>
 6    1  0.1213626E-003  0.6676656E+03  0.7818608E-02  0.9774184E-01
          1   -1    0    0  502    0  0.00000000000E+00  0.00000000000E+00  0.12862924157E+03  0.12862924157E+03  0.00000000000E+00 0.  1.
         13   -1    0    0    0    0 -0.00000000000E+00 -0.00000000000E+00 -0.10000000000E+04  0.10000000000E+04  0.00000000000E+00 0.  1.
    9000005    2    1    2  501    0  0.28160846581E+00  0.19984223515E+00 -0.88855371953E+03  0.11114428111E+04  0.66766555297E+03 0.  0.
         13    1    3    3    0    0 -0.11608367019E+03 -0.24832540783E+03 -0.12729549840E+03  0.30223347030E+03  0.00000000000E+00 0.  1.
          1    1    3    3  501    0  0.11636527865E+03  0.24852525007E+03 -0.76125822113E+03  0.80920934080E+03  0.00000000000E+00 0.  1.
         21    1    1    2  502  501 -0.28160846581E+00 -0.19984223515E+00  0.17182961098E+02  0.17186430472E+02  0.00000000000E+00 0. -1.
<mgrwt>
<rscale>  1 0.66766564E+03</rscale>
<asrwt>0</asrwt>
<pdfrwt beam="1">  1        1 0.46774368E+00 0.66766564E+03</pdfrwt>
<pdfrwt beam="2">0</pdfrwt>
<totfact> 0.65489597E-01</totfact>
</mgrwt>
</event>
<event>
 6    1  0.1213626E-003  0.6276615E+03  0.7818608E-02  0.9849623E-01
          1   -1    0    0  502    0  0.00000000000E+00  0.00000000000E+00  0.98565132363E+02  0.98565132363E+02  0.00000000000E+00 0.  1.
         13   -1    0    0    0    0 -0.00000000000E+00 -0.00000000000E+00 -0.10000000000E+04  0.10000000000E+04  0.00000000000E+00 0.  1.
    9000005    2    1    2  501    0  0.29314624511E-02 -0.14158411323E-02 -0.90151023598E+03  0.10984896937E+04  0.62766145467E+03 0.  0.
         13    1    3    3    0    0  0.97494183587E+02  0.27094033515E+03 -0.66917688327E+03  0.72849947299E+03  0.00000000000E+00 0.  1.
          3    1    3    3  501    0 -0.97491252124E+02 -0.27094175099E+03 -0.23233335271E+03  0.36999022075E+03  0.00000000000E+00 0.  1.
         21    1    1    2  502  501 -0.29314624511E-02  0.14158411323E-02  0.75368343120E-01  0.75438618909E-01  0.00000000000E+00 0. -1.
<mgrwt>
<rscale>  1 0.62766145E+03</rscale>
<asrwt>0</asrwt>
<pdfrwt beam="1">  1        1 0.35841942E+00 0.62766145E+03</pdfrwt>
<pdfrwt beam="2">0</pdfrwt>
<totfact> 0.20493839E+00</totfact>
</mgrwt>
</event>
<event>
 6    1  0.1213626E-003  0.6379793E+03  0.7818608E-02  0.9829600E-01
          1   -1    0    0  502    0  0.00000000000E+00  0.00000000000E+00  0.10175643933E+03  0.10175643933E+03  0.00000000000E+00 0.  1.
         13   -1    0    0    0    0 -0.00000000000E+00 -0.00000000000E+00 -0.10000000000E+04  0.10000000000E+04  0.00000000000E+00 0.  1.
    9000005    2    1    2  501    0  0.56564350473E-04  0.82383367243E-04 -0.89824560367E+03  0.11017543939E+04  0.63797929429E+03 0.  0.
         13    1    3    3    0    0 -0.26182545107E+03  0.17566313481E+03 -0.53273775543E+03  0.61904734861E+03  0.00000000000E+00 0.  1.
          1    1    3    3  501    0  0.26182550764E+03 -0.17566305242E+03 -0.36550784824E+03  0.48270704528E+03  0.00000000000E+00 0.  1.
         21    1    1    2  502  501 -0.56564350461E-04 -0.82383367233E-04  0.20429952084E-02  0.20454378423E-02  0.00000000000E+00 0.  1.
<mgrwt>
<rscale>  1 0.63797929E+03</rscale>
<asrwt>0</asrwt>
<pdfrwt beam="1">  1        1 0.37002420E+00 0.63797929E+03</pdfrwt>
<pdfrwt beam="2">0</pdfrwt>
<totfact> 0.18195762E+00</totfact>
</mgrwt>
</event>
<event>
 6    1  0.1213626E-003  0.6795974E+03  0.7818608E-02  0.9752774E-01
          1   -1    0    0  502    0  0.00000000000E+00  0.00000000000E+00  0.12445312428E+03  0.12445312428E+03  0.00000000000E+00 0.  1.
         13   -1    0    0    0    0 -0.00000000000E+00 -0.00000000000E+00 -0.10000000000E+04  0.10000000000E+04  0.00000000000E+00 0.  1.
    9000005    2    1    2  501    0  0.17574407732E+01 -0.38673568405E+01 -0.88397340309E+03  0.11150164188E+04  0.67958413146E+03 0.  0.
         13    1    3    3    0    0  0.63567669856E+02  0.87517165864E+01  0.10552832628E+03  0.12350574417E+03  0.00000000000E+00 0.  1.
          3    1    3    3  501    0 -0.61810229083E+02 -0.12619073427E+02 -0.98950172938E+03  0.99151067462E+03  0.00000000000E+00 0.  1.
         21    1    1    2  502  501 -0.17574407732E+01  0.38673568405E+01  0.84265273696E+01  0.94367054905E+01  0.00000000000E+00 0.  1.
<mgrwt>
<rscale>  1 0.67959741E+03</rscale>
<asrwt>0</asrwt>
<pdfrwt beam="1">  1        1 0.45255777E+00 0.67959741E+03</pdfrwt>
<pdfrwt beam="2">0</pdfrwt>
<totfact> 0.76850998E-01</totfact>
</mgrwt>
</event>
<event>
 6    1  0.1213626E-003  0.6534911E+03  0.7818608E-02  0.9800250E-01
          1   -1    0    0  502    0  0.00000000000E+00  0.00000000000E+00  0.10676355539E+03  0.10676355539E+03  0.00000000000E+00 0.  1.
         13   -1    0    0    0    0 -0.00000000000E+00 -0.00000000000E+00 -0.10000000000E+04  0.10000000000E+04  0.00000000000E+00 0.  1.
    9000005    2    1    2  501    0 -0.15435269935E-03  0.41027346786E-03 -0.89323729132E+03  0.11067626019E+04  0.65349108521E+03 0.  0.
         13    1    3    3    0    0  0.22559047337E+03  0.98607263460E+02 -0.81044337163E+03  0.84701411600E+03  0.00000000000E+00 0.  1.
          1    1    3    3  501    0 -0.22559062772E+03 -0.98606853186E+02 -0.82793919693E+02  0.25974848594E+03  0.00000000000E+00 0.  1.
         21    1    1    2  502  501  0.15435269936E-03 -0.41027346787E-03  0.84671358896E-03  0.95345318499E-03  0.00000000000E+00 0. -1.
<mgrwt>
<rscale>  1 0.65349109E+03</rscale>
<asrwt>0</asrwt>
<pdfrwt beam="1">  1        1 0.38823193E+00 0.65349109E+03</pdfrwt>
<pdfrwt beam="2">0</pdfrwt>
<totfact> 0.15080802E+00</totfact>
</mgrwt>
</event>
<event>
 6    1  0.1213626E-003  0.6389068E+03  0.7818608E-02  0.9827820E-01
          1   -1    0    0  502    0  0.00000000000E+00  0.00000000000E+00  0.10859414639E+03  0.10859414639E+03  0.00000000000E+00 0.  1.
         13   -1    0    0    0    0 -0.00000000000E+00 -0.00000000000E+00 -0.10000000000E+04  0.10000000000E+04  0.00000000000E+00 0.  1.
    9000005    2    1    2  501    0 -0.18950378827E+00 -0.94329428886E-03 -0.89794801726E+03  0.11020492386E+04  0.63890675901E+03 0.  0.
         13    1    3    3    0    0 -0.20226835127E+03 -0.12653109541E+03 -0.82476863057E+02  0.25243818446E+03  0.00000000000E+00 0.  1.
          1    1    3    3  501    0  0.20207884748E+03  0.12653015212E+03 -0.81547115421E+03  0.84961105415E+03  0.00000000000E+00 0.  1.
         21    1    1    2  502  501  0.18950378827E+00  0.94329428887E-03  0.65421636552E+01  0.65449077814E+01  0.00000000000E+00 0.  1.
<mgrwt>
<rscale>  1 0.63890679E+03</rscale>
<asrwt>0</asrwt>
<pdfrwt beam="1">  1        1 0.39488864E+00 0.63890679E+03</pdfrwt>
<pdfrwt beam="2">0</pdfrwt>
<totfact> 0.14128007E+00</totfact>
</mgrwt>
</event>
<event>
 6    1  0.1213626E-003  0.6532335E+03  0.7818608E-02  0.9800731E-01
          1   -1    0    0  502    0  0.00000000000E+00  0.00000000000E+00  0.15252047466E+03  0.15252047466E+03  0.00000000000E+00 0.  1.
         13   -1    0    0    0    0 -0.00000000000E+00 -0.00000000000E+00 -0.10000000000E+04  0.10000000000E+04  0.00000000000E+00 0.  1.
    9000005    2    1    2  501    0  0.61758794851E-01  0.69488786986E+00 -0.89331857356E+03  0.11066761181E+04  0.65323309004E+03 0.  0.
         13    1    3    3    0    0 -0.30717719911E+03  0.74902187412E+02 -0.30760989183E+03  0.44112584926E+03  0.00000000000E+00 0.  1.
          3    1    3    3  501    0  0.30723895790E+03 -0.74207299542E+02 -0.58570868173E+03  0.66555026888E+03  0.00000000000E+00 0.  1.
         21    1    1    2  502  501 -0.61758794851E-01 -0.69488786986E+00  0.45839048212E+02  0.45844356515E+02  0.00000000000E+00 0. -1.
<mgrwt>
<rscale>  1 0.65323346E+03</rscale>
<asrwt>0</asrwt>
<pdfrwt beam="1">  1        1 0.55462108E+00 0.65323346E+03</pdfrwt>
<pdfrwt beam="2">0</pdfrwt>
<totfact> 0.24780069E-01</totfact>
</mgrwt>
</event>
<event>
 6    1  0.1213626E-003  0.6477131E+03  0.7818608E-02  0.9811080E-01
          1   -1    0    0  502    0  0.00000000000E+00  0.00000000000E+00  0.10493360055E+03  0.10493360055E+03  0.00000000000E+00 0.  1.
         13   -1    0    0    0    0 -0.00000000000E+00 -0.00000000000E+00 -0.10000000000E+04  0.10000000000E+04  0.00000000000E+00 0.  1.
    9000005    2    1    2  501    0 -0.18561716634E-01  0.88402079064E-03 -0.89511504032E+03  0.11048815309E+04  0.64771310122E+03 0.  0.
         13    1    3    3    0    0 -0.12871514567E+03 -0.26778224996E+03 -0.66740970434E+03  0.73055501885E+03  0.00000000000E+00 0.  1.
          3    1    3    3  501    0  0.12869658395E+03  0.26778313398E+03 -0.22770533598E+03  0.37432651201E+03  0.00000000000E+00 0.  1.
         21    1    1    2  502  501  0.18561716634E-01 -0.88402079060E-03  0.48640866238E-01  0.52069690661E-01  0.00000000000E+00 0.  1.
<mgrwt>
<rscale>  1 0.64771310E+03</rscale>
<asrwt>0</asrwt>
<pdfrwt beam="1">  1        1 0.38157753E+00 0.64771310E+03</pdfrwt>
<pdfrwt beam="2">0</pdfrwt>
<totfact> 0.16155507E+00</totfact>
</mgrwt>
</event>
<event>
 6    1  0.2524276E-003  0.6428985E+03  0.7818608E-02  0.9820197E-01
          1   -1    0    0  502    0  0.00000000000E+00  0.00000000000E+00  0.10332963922E+03  0.10332963922E+03  0.00000000000E+00 0.  1.
         13   -1    0    0    0    0 -0.00000000000E+00 -0.00000000000E+00 -0.10000000000E+04  0.10000000000E+04  0.00000000000E+00 0.  1.
    9000005    2    1    2  501    0  0.57702774683E-05 -0.61096059198E-05 -0.89667035520E+03  0.11033296291E+04  0.64289854925E+03 0.  0.
         13    1    3    3    0    0 -0.12346262554E+03  0.13536900053E+03 -0.90162067222E+03  0.92004761985E+03  0.00000000000E+00 0.  1.
          3    1    3    3  501    0  0.12346263131E+03 -0.13536900664E+03  0.49503170222E+01  0.18328200929E+03  0.00000000000E+00 0.  1.
         21    1    1    2  502  501 -0.57702774745E-05  0.61096059357E-05 -0.55757879869E-05  0.10085276322E-04  0.00000000000E+00 0. -1.
<mgrwt>
<rscale>  1 0.64289855E+03</rscale>
<asrwt>0</asrwt>
<pdfrwt beam="1">  1        1 0.37574493E+00 0.64289855E+03</pdfrwt>
<pdfrwt beam="2">0</pdfrwt>
<totfact> 0.17156266E+00</totfact>
</mgrwt>
</event>
<event>
 6    1  0.1213626E-003  0.6628805E+03  0.7818608E-02  0.9782906E-01
          1   -1    0    0  502    0  0.00000000000E+00  0.00000000000E+00  0.11102289727E+03  0.11102289727E+03  0.00000000000E+00 0.  1.
         13   -1    0    0    0    0 -0.00000000000E+00 -0.00000000000E+00 -0.10000000000E+04  0.10000000000E+04  0.00000000000E+00 0.  1.
    9000005    2    1    2  501    0 -0.24259555281E+01 -0.25282538819E+01 -0.88486399532E+03  0.11056196593E+04  0.66287122694E+03 0.  0.
         13    1    3    3    0    0  0.23653934557E+03 -0.17913130751E+03 -0.68779808597E+03  0.74906948569E+03  0.00000000000E+00 0.  1.
          3    1    3    3  501    0 -0.23896530109E+03  0.17660305363E+03 -0.19706590935E+03  0.35655017361E+03  0.00000000000E+00 0.  1.
         21    1    1    2  502  501  0.24259555281E+01  0.25282538819E+01 -0.41131074110E+01  0.54032379635E+01  0.00000000000E+00 0. -1.
<mgrwt>
<rscale>  1 0.66288049E+03</rscale>
<asrwt>0</asrwt>
<pdfrwt beam="1">  1        1 0.40372048E+00 0.66288049E+03</pdfrwt>
<pdfrwt beam="2">0</pdfrwt>
<totfact> 0.12845519E+00</totfact>
</mgrwt>
</event>
<event>
 6    1  0.1213626E-003  0.6638026E+03  0.7818608E-02  0.9781219E-01
          1   -1    0    0  502    0  0.00000000000E+00  0.00000000000E+00  0.11025073885E+03  0.11025073885E+03  0.00000000000E+00 0.  1.
         13   -1    0    0    0    0 -0.00000000000E+00 -0.00000000000E+00 -0.10000000000E+04  0.10000000000E+04  0.00000000000E+00 0.  1.
    9000005    2    1    2  501    0  0.10024860441E-03  0.13845739282E-02 -0.88984153141E+03  0.11101584581E+04  0.66380256942E+03 0.  0.
         13    1    3    3    0    0  0.24812482113E+03  0.95382271405E+02 -0.11255504802E+03  0.28867341997E+03  0.00000000000E+00 0.  1.
          1    1    3    3  501    0 -0.24812472088E+03 -0.95380886831E+02 -0.77728648340E+03  0.82148503818E+03  0.00000000000E+00 0.  1.
         21    1    1    2  502  501 -0.10024860442E-03 -0.13845739282E-02  0.92270257211E-01  0.92280699285E-01  0.00000000000E+00 0. -1.
<mgrwt>
<rscale>  1 0.66380257E+03</rscale>
<asrwt>0</asrwt>
<pdfrwt beam="1">  1        1 0.40091262E+00 0.66380257E+03</pdfrwt>
<pdfrwt beam="2">0</pdfrwt>
<totfact> 0.13219460E+00</totfact>
</mgrwt>
</event>
<event>
 6    1  0.1317339E-003  0.6543602E+03  0.7818608E-02  0.9798632E-01
          1   -1    0    0  502    0  0.00000000000E+00  0.00000000000E+00  0.10704682546E+03  0.10704682546E+03  0.00000000000E+00 0.  1.
         13   -1    0    0    0    0 -0.00000000000E+00 -0.00000000000E+00 -0.10000000000E+04  0.10000000000E+04  0.00000000000E+00 0.  1.
    9000005    2    1    2  501    0  0.49853451003E-05  0.36841991005E-05 -0.89295317616E+03  0.11070468191E+04  0.65436021026E+03 0.  0.
         13    1    3    3    0    0 -0.22506391410E+03  0.85963908289E+02 -0.71968156395E+02  0.25144179146E+03  0.00000000000E+00 0.  1.
          1    1    3    3  501    0  0.22506391909E+03 -0.85963904605E+02 -0.82098501976E+03  0.85560502759E+03  0.00000000000E+00 0.  1.
         21    1    1    2  502  501 -0.49853451181E-05 -0.36841991094E-05  0.16202357561E-05  0.64071954028E-05  0.00000000000E+00 0. -1.
<mgrwt>
<rscale>  1 0.65436021E+03</rscale>
<asrwt>0</asrwt>
<pdfrwt beam="1">  1        1 0.38926200E+00 0.65436021E+03</pdfrwt>
<pdfrwt beam="2">0</pdfrwt>
<totfact> 0.14920707E+00</totfact>
</mgrwt>
</event>
<event>
 6    1  0.1213626E-003  0.6476362E+03  0.7818608E-02  0.9811225E-01
          1   -1    0    0  502    0  0.00000000000E+00  0.00000000000E+00  0.10839738516E+03  0.10839738516E+03  0.00000000000E+00 0.  1.
         13   -1    0    0    0    0 -0.00000000000E+00 -0.00000000000E+00 -0.10000000000E+04  0.10000000000E+04  0.00000000000E+00 0.  1.
    9000005    2    1    2  501    0 -0.65079097508E+01 -0.60528876372E+00 -0.89143780006E+03  0.11018593099E+04  0.64760317190E+03 0.  0.
         13    1    3    3    0    0  0.14677909730E+02 -0.11424304770E+03 -0.96038223829E+03  0.96726467867E+03  0.00000000000E+00 0.  1.
          1    1    3    3  501    0 -0.21185819480E+02  0.11363775893E+03  0.68944438230E+02  0.13459463126E+03  0.00000000000E+00 0.  1.
         21    1    1    2  502  501  0.65079097508E+01  0.60528876372E+00 -0.16481478171E+00  0.65380752309E+01  0.00000000000E+00 0.  1.
<mgrwt>
<rscale>  1 0.64763615E+03</rscale>
<asrwt>0</asrwt>
<pdfrwt beam="1">  1        1 0.39417314E+00 0.64763615E+03</pdfrwt>
<pdfrwt beam="2">0</pdfrwt>
<totfact> 0.14208218E+00</totfact>
</mgrwt>
</event>
<event>
 6    1  0.1213626E-003  0.6160550E+03  0.7818608E-02  0.9872646E-01
          1   -1    0    0  502    0  0.00000000000E+00  0.00000000000E+00  0.94899190188E+02  0.94899190188E+02  0.00000000000E+00 0.  1.
         13   -1    0    0    0    0 -0.00000000000E+00 -0.00000000000E+00 -0.10000000000E+04  0.10000000000E+04  0.00000000000E+00 0.  1.
    9000005    2    1    2  501    0  0.22866365622E-01  0.37906842082E-02 -0.90511065312E+03  0.10948740082E+04  0.61605502918E+03 0.  0.
         13    1    3    3    0    0 -0.18194740754E+03 -0.86174948676E+02 -0.38233724566E+02  0.20492144491E+03  0.00000000000E+00 0.  1.
          3    1    3    3  501    0  0.18197027391E+03  0.86178739360E+02 -0.86687692855E+03  0.88995256332E+03  0.00000000000E+00 0.  1.
         21    1    1    2  502  501 -0.22866365622E-01 -0.37906842082E-02  0.98433080089E-02  0.25181951396E-01  0.00000000000E+00 0. -1.
<mgrwt>
<rscale>  1 0.61605503E+03</rscale>
<asrwt>0</asrwt>
<pdfrwt beam="1">  1        1 0.34508869E+00 0.61605503E+03</pdfrwt>
<pdfrwt beam="2">0</pdfrwt>
<totfact> 0.23477426E+00</totfact>
</mgrwt>
</event>
<event>
 6    1  0.1213626E-003  0.6388082E+03  0.7818608E-02  0.9828009E-01
          1   -1    0    0  502    0  0.00000000000E+00  0.00000000000E+00  0.16412905234E+03  0.16412905234E+03  0.00000000000E+00 0.  1.
         13   -1    0    0    0    0 -0.00000000000E+00 -0.00000000000E+00 -0.10000000000E+04  0.10000000000E+04  0.00000000000E+00 0.  1.
    9000005    2    1    2  501    0 -0.12662329958E+02  0.47493332863E+01 -0.89716870925E+03  0.11013571929E+04  0.63866507861E+03 0.  0.
         13    1    3    3    0    0 -0.16508059846E+03  0.96815490282E+02 -0.90313736415E+03  0.92319117288E+03  0.00000000000E+00 0.  1.
          3    1    3    3  501    0  0.15241826850E+03 -0.92066156995E+02  0.59686549034E+01  0.17816601998E+03  0.00000000000E+00 0.  1.
         21    1    1    2  502  501  0.12662329958E+02 -0.47493332863E+01  0.61297761587E+02  0.62771859477E+02  0.00000000000E+00 0.  1.
<mgrwt>
<rscale>  1 0.63880824E+03</rscale>
<asrwt>0</asrwt>
<pdfrwt beam="1">  1        1 0.59683418E+00 0.63880824E+03</pdfrwt>
<pdfrwt beam="2">0</pdfrwt>
<totfact> 0.14915716E-01</totfact>
</mgrwt>
</event>
<event>
 6    1  0.1213626E-003  0.6446788E+03  0.7818608E-02  0.9816816E-01
          1   -1    0    0  502    0  0.00000000000E+00  0.00000000000E+00  0.10390330828E+03  0.10390330828E+03  0.00000000000E+00 0.  1.
         13   -1    0    0    0    0 -0.00000000000E+00 -0.00000000000E+00 -0.10000000000E+04  0.10000000000E+04  0.00000000000E+00 0.  1.
    9000005    2    1    2  501    0  0.11978116214E-03 -0.39610308678E-03 -0.89609724674E+03  0.11039026160E+04  0.64467876490E+03 0.  0.
         13    1    3    3    0    0  0.19073127292E+03 -0.84007632075E+01 -0.33249273727E+01  0.19094513986E+03  0.00000000000E+00 0.  1.
          3    1    3    3  501    0 -0.19073115314E+03  0.84003671045E+01 -0.89277231937E+03  0.91295747611E+03  0.00000000000E+00 0.  1.
         21    1    1    2  502  501 -0.11978116213E-03  0.39610308678E-03  0.55501968581E-03  0.69230920389E-03  0.00000000000E+00 0.  1.
<mgrwt>
<rscale>  1 0.64467876E+03</rscale>
<asrwt>0</asrwt>
<pdfrwt beam="1">  1        1 0.37783101E+00 0.64467876E+03</pdfrwt>
<pdfrwt beam="2">0</pdfrwt>
<totfact> 0.16791558E+00</totfact>
</mgrwt>
</event>
<event>
 6    1  0.1213626E-003  0.6525926E+03  0.7818608E-02  0.9801927E-01
          1   -1    0    0  502    0  0.00000000000E+00  0.00000000000E+00  0.10647027998E+03  0.10647027998E+03  0.00000000000E+00 0.  1.
         13   -1    0    0    0    0 -0.00000000000E+00 -0.00000000000E+00 -0.10000000000E+04  0.10000000000E+04  0.00000000000E+00 0.  1.
    9000005    2    1    2  501    0  0.13306644809E-03 -0.86698164350E-03 -0.89353052717E+03  0.11064690880E+04  0.65259255258E+03 0.  0.
         13    1    3    3    0    0 -0.19405123245E+03  0.24095154568E+03 -0.27092690122E+03  0.41123583743E+03  0.00000000000E+00 0.  1.
          3    1    3    3  501    0  0.19405136552E+03 -0.24095241266E+03 -0.62260362595E+03  0.69523325055E+03  0.00000000000E+00 0.  1.
         21    1    1    2  502  501 -0.13306644809E-03  0.86698164350E-03  0.80715389740E-03  0.11919988523E-02  0.00000000000E+00 0.  1.
<mgrwt>
<rscale>  1 0.65259255E+03</rscale>
<asrwt>0</asrwt>
<pdfrwt beam="1">  1        1 0.38716547E+00 0.65259255E+03</pdfrwt>
<pdfrwt beam="2">0</pdfrwt>
<totfact> 0.15248266E+00</totfact>
</mgrwt>
</event>
<event>
 6    1  0.1213626E-003  0.6458592E+03  0.7818608E-02  0.9814580E-01
          1   -1    0    0  502    0  0.00000000000E+00  0.00000000000E+00  0.10430515959E+03  0.10430515959E+03  0.00000000000E+00 0.  1.
         13   -1    0    0    0    0 -0.00000000000E+00 -0.00000000000E+00 -0.10000000000E+04  0.10000000000E+04  0.00000000000E+00 0.  1.
    9000005    2    1    2  501    0 -0.13619294595E-01 -0.49295465230E-02 -0.89571376088E+03  0.11042813317E+04  0.64585920899E+03 0.  0.
         13    1    3    3    0    0 -0.30554689197E+03 -0.57187696108E+02 -0.59749605543E+03  0.67352124839E+03  0.00000000000E+00 0.  1.
          3    1    3    3  501    0  0.30553327267E+03  0.57182766561E+02 -0.29821770545E+03  0.43076008328E+03  0.00000000000E+00 0.  1.
         21    1    1    2  502  501  0.13619294596E-01  0.49295465230E-02  0.18920474835E-01  0.23827924420E-01  0.00000000000E+00 0.  1.
<mgrwt>
<rscale>  1 0.64585921E+03</rscale>
<asrwt>0</asrwt>
<pdfrwt beam="1">  1        1 0.37929229E+00 0.64585921E+03</pdfrwt>
<pdfrwt beam="2">0</pdfrwt>
<totfact> 0.16540698E+00</totfact>
</mgrwt>
</event>
<event>
 6    1  0.1213626E-003  0.6589927E+03  0.7818608E-02  0.9790050E-01
          1   -1    0    0  502    0  0.00000000000E+00  0.00000000000E+00  0.10856802574E+03  0.10856802574E+03  0.00000000000E+00 0.  1.
         13   -1    0    0    0    0 -0.00000000000E+00 -0.00000000000E+00 -0.10000000000E+04  0.10000000000E+04  0.00000000000E+00 0.  1.
    9000005    2    1    2  501    0 -0.14967877635E-03 -0.86851139258E-05 -0.89143212525E+03  0.11085678130E+04  0.65899268735E+03 0.  0.
         13    1    3    3    0    0  0.10614484632E+03  0.29482843919E+03 -0.61708158433E+03  0.69208396794E+03  0.00000000000E+00 0.  1.
          1    1    3    3  501    0 -0.10614499600E+03 -0.29482844788E+03 -0.27435054092E+03  0.41648384501E+03  0.00000000000E+00 0.  1.
         21    1    1    2  502  501  0.14967877635E-03  0.86851139244E-05  0.15098991293E-03  0.21278421253E-03  0.00000000000E+00 0. -1.
<mgrwt>
<rscale>  1 0.65899269E+03</rscale>
<asrwt>0</asrwt>
<pdfrwt beam="1">  1        1 0.39479365E+00 0.65899269E+03</pdfrwt>
<pdfrwt beam="2">0</pdfrwt>
<totfact> 0.14088254E+00</totfact>
</mgrwt>
</event>
<event>
 6    1  0.1213626E-003  0.6086562E+03  0.7818608E-02  0.9887608E-01
          1   -1    0    0  502    0  0.00000000000E+00  0.00000000000E+00  0.92769748321E+02  0.92769748321E+02  0.00000000000E+00 0.  1.
         13   -1    0    0    0    0 -0.00000000000E+00 -0.00000000000E+00 -0.10000000000E+04  0.10000000000E+04  0.00000000000E+00 0.  1.
    9000005    2    1    2  501    0  0.36268934026E-01  0.14606934906E-01 -0.90738168456E+03  0.10926133491E+04  0.60865623109E+03 0.  0.
         13    1    3    3    0    0 -0.18228025618E+03 -0.23122808703E+03 -0.31562738007E+03  0.43164008511E+03  0.00000000000E+00 0.  1.
          1    1    3    3  501    0  0.18231652511E+03  0.23124269396E+03 -0.59175430449E+03  0.66097326400E+03  0.00000000000E+00 0.  1.
         21    1    1    2  502  501 -0.36268934026E-01 -0.14606934906E-01  0.15143287841E+00  0.15639921606E+00  0.00000000000E+00 0. -1.
<mgrwt>
<rscale>  1 0.60865623E+03</rscale>
<asrwt>0</asrwt>
<pdfrwt beam="1">  1        1 0.33734525E+00 0.60865623E+03</pdfrwt>
<pdfrwt beam="2">0</pdfrwt>
<totfact> 0.25401876E+00</totfact>
</mgrwt>
</event>
<event>
 6    1  0.1239944E-003  0.6297284E+03  0.7818608E-02  0.9845579E-01
          1   -1    0    0  502    0  0.00000000000E+00  0.00000000000E+00  0.99139554724E+02  0.99139554724E+02  0.00000000000E+00 0.  1.
         13   -1    0    0    0    0 -0.00000000000E+00 -0.00000000000E+00 -0.10000000000E+04  0.10000000000E+04  0.00000000000E+00 0.  1.
    9000005    2    1    2  501    0  0.85918783412E-04 -0.12549753185E-03 -0.90086045540E+03  0.10991394023E+04  0.62972840620E+03 0.  0.
         13    1    3    3    0    0  0.15483647356E+03 -0.22715688220E+03 -0.18249342259E+03  0.32996731954E+03  0.00000000000E+00 0.  1.
          3    1    3    3  501    0 -0.15483638764E+03  0.22715675671E+03 -0.71836703281E+03  0.76917208275E+03  0.00000000000E+00 0.  1.
         21    1    1    2  502  501 -0.85918783433E-04  0.12549753186E-03  0.10125795613E-04  0.15242768642E-03  0.00000000000E+00 0. -1.
<mgrwt>
<rscale>  1 0.62972841E+03</rscale>
<asrwt>0</asrwt>
<pdfrwt beam="1">  1        1 0.36050823E+00 0.62972841E+03</pdfrwt>
<pdfrwt beam="2">0</pdfrwt>
<totfact> 0.20059866E+00</totfact>
</mgrwt>
</event>
<event>
 6    1  0.1213626E-003  0.6612412E+03  0.7818608E-02  0.9785912E-01
          1   -1    0    0  502    0  0.00000000000E+00  0.00000000000E+00  0.10979179426E+03  0.10979179426E+03  0.00000000000E+00 0.  1.
         13   -1    0    0    0    0 -0.00000000000E+00 -0.00000000000E+00 -0.10000000000E+04  0.10000000000E+04  0.00000000000E+00 0.  1.
    9000005    2    1    2  501    0 -0.88838524009E-02  0.19829080487E-01 -0.89068974420E+03  0.11093097658E+04  0.66124120839E+03 0.  0.
         13    1    3    3    0    0 -0.35646165908E+02 -0.26907707406E+03 -0.12866089069E+03  0.30037767181E+03  0.00000000000E+00 0.  1.
          1    1    3    3  501    0  0.35637282055E+02  0.26909690314E+03 -0.76202885351E+03  0.80893209402E+03  0.00000000000E+00 0.  1.
         21    1    1    2  502  501  0.88838524009E-02 -0.19829080487E-01  0.48153846243E+00  0.48202842869E+00  0.00000000000E+00 0. -1.
<mgrwt>
<rscale>  1 0.66124121E+03</rscale>
<asrwt>0</asrwt>
<pdfrwt beam="1">  1        1 0.39924373E+00 0.66124121E+03</pdfrwt>
<pdfrwt beam="2">0</pdfrwt>
<totfact> 0.13454398E+00</totfact>
</mgrwt>
</event>
<event>
 6    1  0.1213626E-003  0.6535065E+03  0.7818608E-02  0.9800222E-01
          1   -1    0    0  502    0  0.00000000000E+00  0.00000000000E+00  0.10681534335E+03  0.10681534335E+03  0.00000000000E+00 0.  1.
         13   -1    0    0    0    0 -0.00000000000E+00 -0.00000000000E+00 -0.10000000000E+04  0.10000000000E+04  0.00000000000E+00 0.  1.
    9000005    2    1    2  501    0  0.90175526267E-03 -0.90665575205E-03 -0.89323229302E+03  0.11067676898E+04  0.65350653397E+03 0.  0.
         13    1    3    3    0    0 -0.21210574434E+03  0.21206106838E+02 -0.86602617995E+03  0.89187436902E+03  0.00000000000E+00 0.  1.
          3    1    3    3  501    0  0.21210664610E+03 -0.21207013494E+02 -0.27206113068E+02  0.21489332081E+03  0.00000000000E+00 0.  1.
         21    1    1    2  502  501 -0.90175526267E-03  0.90665575205E-03  0.47636368144E-01  0.47653528276E-01  0.00000000000E+00 0.  1.
<mgrwt>
<rscale>  1 0.65350653E+03</rscale>
<asrwt>0</asrwt>
<pdfrwt beam="1">  1        1 0.38842025E+00 0.65350653E+03</pdfrwt>
<pdfrwt beam="2">0</pdfrwt>
<totfact> 0.15051812E+00</totfact>
</mgrwt>
</event>
<event>
 6    1  0.1213626E-003  0.6509656E+03  0.7818608E-02  0.9804969E-01
          1   -1    0    0  502    0  0.00000000000E+00  0.00000000000E+00  0.10593994803E+03  0.10593994803E+03  0.00000000000E+00 0.  1.
         13   -1    0    0    0    0 -0.00000000000E+00 -0.00000000000E+00 -0.10000000000E+04  0.10000000000E+04  0.00000000000E+00 0.  1.
    9000005    2    1    2  501    0  0.13575869832E-03 -0.22831466396E-04 -0.89406095171E+03  0.11059390378E+04  0.65096556744E+03 0.  0.
         13    1    3    3    0    0 -0.18298877921E+02 -0.15434036169E+03  0.38823033959E+02  0.16019682938E+03  0.00000000000E+00 0.  1.
          3    1    3    3  501    0  0.18299013680E+02  0.15434033885E+03 -0.93288398567E+03  0.94574220844E+03  0.00000000000E+00 0.  1.
         21    1    1    2  502  501 -0.13575869832E-03  0.22831466388E-04  0.89974433093E-03  0.91021511802E-03  0.00000000000E+00 0. -1.
<mgrwt>
<rscale>  1 0.65096557E+03</rscale>
<asrwt>0</asrwt>
<pdfrwt beam="1">  1        1 0.38523699E+00 0.65096557E+03</pdfrwt>
<pdfrwt beam="2">0</pdfrwt>
<totfact> 0.15555590E+00</totfact>
</mgrwt>
</event>
<event>
 6    1  0.1213626E-003  0.6658490E+03  0.7818608E-02  0.9777486E-01
          1   -1    0    0  502    0  0.00000000000E+00  0.00000000000E+00  0.11084015607E+03  0.11084015607E+03  0.00000000000E+00 0.  1.
         13   -1    0    0    0    0 -0.00000000000E+00 -0.00000000000E+00 -0.10000000000E+04  0.10000000000E+04  0.00000000000E+00 0.  1.
    9000005    2    1    2  501    0 -0.62335244894E-03  0.10473912633E-02 -0.88916099875E+03  0.11108384770E+04  0.66584896211E+03 0.  0.
         13    1    3    3    0    0 -0.19251052742E+03 -0.27161769126E+03 -0.44698173099E+03  0.55734113540E+03  0.00000000000E+00 0.  1.
          3    1    3    3  501    0  0.19250990407E+03  0.27161873865E+03 -0.44217926776E+03  0.55349734162E+03  0.00000000000E+00 0.  1.
         21    1    1    2  502  501  0.62335244895E-03 -0.10473912633E-02  0.11548202026E-02  0.16790492651E-02  0.00000000000E+00 0. -1.
<mgrwt>
<rscale>  1 0.66584896E+03</rscale>
<asrwt>0</asrwt>
<pdfrwt beam="1">  1        1 0.40305596E+00 0.66584896E+03</pdfrwt>
<pdfrwt beam="2">0</pdfrwt>
<totfact> 0.12926423E+00</totfact>
</mgrwt>
</event>
<event>
 6    1  0.1213626E-003  0.6580360E+03  0.7818608E-02  0.9791816E-01
          1   -1    0    0  502    0  0.00000000000E+00  0.00000000000E+00  0.11184700157E+03  0.11184700157E+03  0.00000000000E+00 0.  1.
         13   -1    0    0    0    0 -0.00000000000E+00 -0.00000000000E+00 -0.10000000000E+04  0.10000000000E+04  0.00000000000E+00 0.  1.
    9000005    2    1    2  501    0  0.58980049923E-02  0.16749905140E+00 -0.89174497573E+03  0.11082511162E+04  0.65803602235E+03 0.  0.
         13    1    3    3    0    0  0.15792269595E+03  0.25636422802E+03 -0.66961357549E+03  0.73419652395E+03  0.00000000000E+00 0.  1.
          3    1    3    3  501    0 -0.15791679794E+03 -0.25619672897E+03 -0.22213140024E+03  0.37405459224E+03  0.00000000000E+00 0.  1.
         21    1    1    2  502  501 -0.58980049923E-02 -0.16749905140E+00  0.35919772966E+01  0.35958853733E+01  0.00000000000E+00 0.  1.
<mgrwt>
<rscale>  1 0.65803604E+03</rscale>
<asrwt>0</asrwt>
<pdfrwt beam="1">  1        1 0.40671723E+00 0.65803604E+03</pdfrwt>
<pdfrwt beam="2">0</pdfrwt>
<totfact> 0.12466640E+00</totfact>
</mgrwt>
</event>
<event>
 6    1  0.1213626E-003  0.6441854E+03  0.7818608E-02  0.9817751E-01
          1   -1    0    0  502    0  0.00000000000E+00  0.00000000000E+00  0.10376454509E+03  0.10376454509E+03  0.00000000000E+00 0.  1.
         13   -1    0    0    0    0 -0.00000000000E+00 -0.00000000000E+00 -0.10000000000E+04  0.10000000000E+04  0.00000000000E+00 0.  1.
    9000005    2    1    2  501    0 -0.89149033221E-03  0.18919311253E-02 -0.89625624044E+03  0.11037436546E+04  0.64418538212E+03 0.  0.
         13    1    3    3    0    0 -0.30862462824E+03  0.25776895212E+02 -0.29651116545E+03  0.42875690166E+03  0.00000000000E+00 0.  1.
          3    1    3    3  501    0  0.30862373675E+03 -0.25775003281E+02 -0.59974507499E+03  0.67498675294E+03  0.00000000000E+00 0.  1.
         21    1    1    2  502  501  0.89149033225E-03 -0.18919311253E-02  0.20785534375E-01  0.20890490603E-01  0.00000000000E+00 0. -1.
<mgrwt>
<rscale>  1 0.64418538E+03</rscale>
<asrwt>0</asrwt>
<pdfrwt beam="1">  1        1 0.37732641E+00 0.64418538E+03</pdfrwt>
<pdfrwt beam="2">0</pdfrwt>
<totfact> 0.16879286E+00</totfact>
</mgrwt>
</event>
<event>
 6    1  0.1213626E-003  0.6571358E+03  0.7818608E-02  0.9793481E-01
          1   -1    0    0  502    0  0.00000000000E+00  0.00000000000E+00  0.10840449102E+03  0.10840449102E+03  0.00000000000E+00 0.  1.
         13   -1    0    0    0    0 -0.00000000000E+00 -0.00000000000E+00 -0.10000000000E+04  0.10000000000E+04  0.00000000000E+00 0.  1.
    9000005    2    1    2  501    0 -0.14079848607E+00 -0.11300303285E+00 -0.89202286092E+03  0.11079405691E+04  0.65713582127E+03 0.  0.
         13    1    3    3    0    0 -0.13875584293E+03  0.23965526420E+03 -0.14789295425E+03  0.31394291762E+03  0.00000000000E+00 0.  1.
          1    1    3    3  501    0  0.13861504444E+03 -0.23976826723E+03 -0.74412990666E+03  0.79399765145E+03  0.00000000000E+00 0.  1.
         21    1    1    2  502  501  0.14079848607E+00  0.11300303285E+00  0.42735193818E+00  0.46392195268E+00  0.00000000000E+00 0. -1.
<mgrwt>
<rscale>  1 0.65713585E+03</rscale>
<asrwt>0</asrwt>
<pdfrwt beam="1">  1        1 0.39419898E+00 0.65713585E+03</pdfrwt>
<pdfrwt beam="2">0</pdfrwt>
<totfact> 0.14179176E+00</totfact>
</mgrwt>
</event>
<event>
 6    1  0.1213626E-003  0.6524315E+03  0.7818608E-02  0.9802227E-01
          1   -1    0    0  502    0  0.00000000000E+00  0.00000000000E+00  0.10641694608E+03  0.10641694608E+03  0.00000000000E+00 0.  1.
         13   -1    0    0    0    0 -0.00000000000E+00 -0.00000000000E+00 -0.10000000000E+04  0.10000000000E+04  0.00000000000E+00 0.  1.
    9000005    2    1    2  501    0 -0.39931154174E-03  0.33694435263E-04 -0.89358309465E+03  0.11064165433E+04  0.65243146782E+03 0.  0.
         13    1    3    3    0    0  0.95096298371E+02  0.19258173604E+02  0.81380307174E+02  0.12663703096E+03  0.00000000000E+00 0.  1.
          3    1    3    3  501    0 -0.95096697683E+02 -0.19258139910E+02 -0.97496340183E+03  0.97977951232E+03  0.00000000000E+00 0.  1.
         21    1    1    2  502  501  0.39931154175E-03 -0.33694435266E-04  0.40730060099E-04  0.40279518385E-03  0.00000000000E+00 0. -1.
<mgrwt>
<rscale>  1 0.65243147E+03</rscale>
<asrwt>0</asrwt>
<pdfrwt beam="1">  1        1 0.38697153E+00 0.65243147E+03</pdfrwt>
<pdfrwt beam="2">0</pdfrwt>
<totfact> 0.15278903E+00</totfact>
</mgrwt>
</event>
<event>
 6    1  0.1213626E-003  0.6495429E+03  0.7818608E-02  0.9807637E-01
          1   -1    0    0  502    0  0.00000000000E+00  0.00000000000E+00  0.10547651571E+03  0.10547651571E+03  0.00000000000E+00 0.  1.
         13   -1    0    0    0    0 -0.00000000000E+00 -0.00000000000E+00 -0.10000000000E+04  0.10000000000E+04  0.00000000000E+00 0.  1.
    9000005    2    1    2  501    0  0.17652314796E-04 -0.55995798647E-05 -0.89452348413E+03  0.11054764972E+04  0.64954293329E+03 0.  0.
         13    1    3    3    0    0  0.31616647876E+03 -0.65415238094E+02 -0.38742455848E+03  0.50431952588E+03  0.00000000000E+00 0.  1.
          1    1    3    3  501    0 -0.31616646111E+03  0.65415232494E+02 -0.50709892564E+03  0.60115697131E+03  0.00000000000E+00 0.  1.
         21    1    1    2  502  501 -0.17652314745E-04  0.55995798575E-05 -0.16231227185E-06  0.18519877313E-04  0.00000000000E+00 0.  1.
<mgrwt>
<rscale>  1 0.64954293E+03</rscale>
<asrwt>0</asrwt>
<pdfrwt beam="1">  1        1 0.38355178E+00 0.64954293E+03</pdfrwt>
<pdfrwt beam="2">0</pdfrwt>
<totfact> 0.15828959E+00</totfact>
</mgrwt>
</event>
<event>
 6    1  0.1213626E-003  0.6477863E+03  0.7818608E-02  0.9810942E-01
          1   -1    0    0  502    0  0.00000000000E+00  0.00000000000E+00  0.10497681081E+03  0.10497681081E+03  0.00000000000E+00 0.  1.
         13   -1    0    0    0    0 -0.00000000000E+00 -0.00000000000E+00 -0.10000000000E+04  0.10000000000E+04  0.00000000000E+00 0.  1.
    9000005    2    1    2  501    0 -0.68871547632E-02 -0.14061169441E-03 -0.89509303229E+03  0.11049066288E+04  0.64778632428E+03 0.  0.
         13    1    3    3    0    0  0.22241268265E+02  0.18744263993E+03  0.13945011821E+01  0.18876271324E+03  0.00000000000E+00 0.  1.
          1    1    3    3  501    0 -0.22248155420E+02 -0.18744278054E+03 -0.89648753347E+03  0.91614391558E+03  0.00000000000E+00 0.  1.
         21    1    1    2  502  501  0.68871547632E-02  0.14061169440E-03  0.69843102890E-01  0.70181989810E-01  0.00000000000E+00 0.  1.
<mgrwt>
<rscale>  1 0.64778632E+03</rscale>
<asrwt>0</asrwt>
<pdfrwt beam="1">  1        1 0.38173466E+00 0.64778632E+03</pdfrwt>
<pdfrwt beam="2">0</pdfrwt>
<totfact> 0.16129500E+00</totfact>
</mgrwt>
</event>
<event>
 6    1  0.1213626E-003  0.6508105E+03  0.7818608E-02  0.9805259E-01
          1   -1    0    0  502    0  0.00000000000E+00  0.00000000000E+00  0.10588898235E+03  0.10588898235E+03  0.00000000000E+00 0.  1.
         13   -1    0    0    0    0 -0.00000000000E+00 -0.00000000000E+00 -0.10000000000E+04  0.10000000000E+04  0.00000000000E+00 0.  1.
    9000005    2    1    2  501    0 -0.11897798538E-03 -0.26750060783E-04 -0.89411140072E+03  0.11058885803E+04  0.65081053711E+03 0.  0.
         13    1    3    3    0    0  0.13495939570E+03  0.29277811224E+03 -0.37191307246E+03  0.49219142105E+03  0.00000000000E+00 0.  1.
          1    1    3    3  501    0 -0.13495951467E+03 -0.29277813899E+03 -0.52219832826E+03  0.61369715928E+03  0.00000000000E+00 0.  1.
         21    1    1    2  502  501  0.11897798536E-03  0.26750060788E-04  0.38307307064E-03  0.40201530344E-03  0.00000000000E+00 0.  1.
<mgrwt>
<rscale>  1 0.65081054E+03</rscale>
<asrwt>0</asrwt>
<pdfrwt beam="1">  1        1 0.38505166E+00 0.65081054E+03</pdfrwt>
<pdfrwt beam="2">0</pdfrwt>
<totfact> 0.15585429E+00</totfact>
</mgrwt>
</event>
<event>
 6    1  0.1213626E-003  0.6680596E+03  0.7818608E-02  0.9773469E-01
          1   -1    0    0  502    0  0.00000000000E+00  0.00000000000E+00  0.11287282795E+03  0.11287282795E+03  0.00000000000E+00 0.  1.
         13   -1    0    0    0    0 -0.00000000000E+00 -0.00000000000E+00 -0.10000000000E+04  0.10000000000E+04  0.00000000000E+00 0.  1.
    9000005    2    1    2  501    0 -0.10568012152E-01  0.18623469979E-01 -0.88842398105E+03  0.11115758422E+04  0.66805963980E+03 0.  0.
         13    1    3    3    0    0 -0.17094539342E+03 -0.12122150641E+02 -0.92128447617E+03  0.93708823496E+03  0.00000000000E+00 0.  1.
          3    1    3    3  501    0  0.17093482541E+03  0.12140774111E+02  0.32860495113E+02  0.17448760721E+03  0.00000000000E+00 0.  1.
         21    1    1    2  502  501  0.10568012152E-01 -0.18623469979E-01  0.12968090031E+01  0.12969857775E+01  0.00000000000E+00 0. -1.
<mgrwt>
<rscale>  1 0.66805964E+03</rscale>
<asrwt>0</asrwt>
<pdfrwt beam="1">  1        1 0.41044751E+00 0.66805964E+03</pdfrwt>
<pdfrwt beam="2">0</pdfrwt>
<totfact> 0.11973099E+00</totfact>
</mgrwt>
</event>
<event>
 6    1  0.1213626E-003  0.6290645E+03  0.7818608E-02  0.9846876E-01
          1   -1    0    0  502    0  0.00000000000E+00  0.00000000000E+00  0.12580443957E+03  0.12580443957E+03  0.00000000000E+00 0.  1.
         13   -1    0    0    0    0 -0.00000000000E+00 -0.00000000000E+00 -0.10000000000E+04  0.10000000000E+04  0.00000000000E+00 0.  1.
    9000005    2    1    2  501    0 -0.25894572205E+02 -0.19267799135E+02 -0.88999494423E+03  0.10898684203E+04  0.62823593962E+03 0.  0.
         13    1    3    3    0    0  0.14620149445E+03 -0.25632002208E+03 -0.25280431789E+03  0.38856769531E+03  0.00000000000E+00 0.  1.
          1    1    3    3  501    0 -0.17209606665E+03  0.23705222294E+03 -0.63719062634E+03  0.70130072498E+03  0.00000000000E+00 0.  1.
         21    1    1    2  502  501  0.25894572205E+02  0.19267799135E+02  0.15799383801E+02  0.35936019280E+02  0.00000000000E+00 0. -1.
<mgrwt>
<rscale>  1 0.62906452E+03</rscale>
<asrwt>0</asrwt>
<pdfrwt beam="1">  1        1 0.45747165E+00 0.62906452E+03</pdfrwt>
<pdfrwt beam="2">0</pdfrwt>
<totfact> 0.73709765E-01</totfact>
</mgrwt>
</event>
<event>
 6    1  0.1213626E-003  0.6485092E+03  0.7818608E-02  0.9809581E-01
          1   -1    0    0  502    0  0.00000000000E+00  0.00000000000E+00  0.10514149619E+03  0.10514149619E+03  0.00000000000E+00 0.  1.
         13   -1    0    0    0    0 -0.00000000000E+00 -0.00000000000E+00 -0.10000000000E+04  0.10000000000E+04  0.00000000000E+00 0.  1.
    9000005    2    1    2  501    0  0.55491930542E-03  0.43550413386E-03 -0.89485860421E+03  0.11051407837E+04  0.64850923679E+03 0.  0.
         13    1    3    3    0    0 -0.16636283738E+03  0.27214744016E+03 -0.54679987759E+03  0.63303311839E+03  0.00000000000E+00 0.  1.
          1    1    3    3  501    0  0.16636339230E+03 -0.27214700465E+03 -0.34805872662E+03  0.47210766528E+03  0.00000000000E+00 0.  1.
         21    1    1    2  502  501 -0.55491930541E-03 -0.43550413384E-03  0.10040006726E-03  0.71251628726E-03  0.00000000000E+00 0. -1.
<mgrwt>
<rscale>  1 0.64850924E+03</rscale>
<asrwt>0</asrwt>
<pdfrwt beam="1">  1        1 0.38233352E+00 0.64850924E+03</pdfrwt>
<pdfrwt beam="2">0</pdfrwt>
<totfact> 0.16029432E+00</totfact>
</mgrwt>
</event>
<event>
 6    1  0.1213626E-003  0.6400763E+03  0.7818608E-02  0.9825581E-01
          1   -1    0    0  502    0  0.00000000000E+00  0.00000000000E+00  0.10242795103E+03  0.10242795103E+03  0.00000000000E+00 0.  1.
         13   -1    0    0    0    0 -0.00000000000E+00 -0.00000000000E+00 -0.10000000000E+04  0.10000000000E+04  0.00000000000E+00 0.  1.
    9000005    2    1    2  501    0  0.31781762577E-03  0.44730434132E-03 -0.89757557151E+03  0.11024243860E+04  0.64007626133E+03 0.  0.
         13    1    3    3    0    0 -0.29771088165E+02 -0.20680671496E+03 -0.86632086737E+03  0.89116058052E+03  0.00000000000E+00 0.  1.
          1    1    3    3  501    0  0.29771405982E+02  0.20680716227E+03 -0.31254704138E+02  0.21126380549E+03  0.00000000000E+00 0.  1.
         21    1    1    2  502  501 -0.31781762577E-03 -0.44730434131E-03  0.35225306320E-02  0.35650120996E-02  0.00000000000E+00 0. -1.
<mgrwt>
<rscale>  1 0.64007626E+03</rscale>
<asrwt>0</asrwt>
<pdfrwt beam="1">  1        1 0.37246606E+00 0.64007626E+03</pdfrwt>
<pdfrwt beam="2">0</pdfrwt>
<totfact> 0.17744915E+00</totfact>
</mgrwt>
</event>
<event>
 6    1  0.1213626E-003  0.6393056E+03  0.7818608E-02  0.9827056E-01
          1   -1    0    0  502    0  0.00000000000E+00  0.00000000000E+00  0.12486185884E+03  0.12486185884E+03  0.00000000000E+00 0.  1.
         13   -1    0    0    0    0 -0.00000000000E+00 -0.00000000000E+00 -0.10000000000E+04  0.10000000000E+04  0.00000000000E+00 0.  1.
    9000005    2    1    2  501    0 -0.20065244660E-02  0.26446141368E+01 -0.89773708790E+03  0.11021086968E+04  0.63930016943E+03 0.  0.
         13    1    3    3    0    0  0.73348948323E+02  0.17586752788E+03 -0.58929848832E+01  0.19064150350E+03  0.00000000000E+00 0.  1.
          1    1    3    3  501    0 -0.73350954848E+02 -0.17322291375E+03 -0.89184410302E+03  0.91146719333E+03  0.00000000000E+00 0.  1.
         21    1    1    2  502  501  0.20065244660E-02 -0.26446141368E+01  0.22598946743E+02  0.22753162019E+02  0.00000000000E+00 0.  1.
<mgrwt>
<rscale>  1 0.63930564E+03</rscale>
<asrwt>0</asrwt>
<pdfrwt beam="1">  1        1 0.45404408E+00 0.63930564E+03</pdfrwt>
<pdfrwt beam="2">0</pdfrwt>
<totfact> 0.76280393E-01</totfact>
</mgrwt>
</event>
<event>
 6    1  0.1213626E-003  0.6488022E+03  0.7818608E-02  0.9809029E-01
          1   -1    0    0  502    0  0.00000000000E+00  0.00000000000E+00  0.10738016455E+03  0.10738016455E+03  0.00000000000E+00 0.  1.
         13   -1    0    0    0    0 -0.00000000000E+00 -0.00000000000E+00 -0.10000000000E+04  0.10000000000E+04  0.00000000000E+00 0.  1.
    9000005    2    1    2  501    0  0.24928387881E+01 -0.58962309961E+01 -0.88619583925E+03  0.10983111231E+04  0.64877058956E+03 0.  0.
         13    1    3    3    0    0 -0.16331537652E+03 -0.18773577739E+03 -0.89437869351E+02  0.26441589739E+03  0.00000000000E+00 0.  1.
          1    1    3    3  501    0  0.16580821531E+03  0.18183954639E+03 -0.79675796990E+03  0.83389522573E+03  0.00000000000E+00 0.  1.
         21    1    1    2  502  501 -0.24928387881E+01  0.58962309961E+01 -0.64239962064E+01  0.90690414291E+01  0.00000000000E+00 0.  1.
<mgrwt>
<rscale>  1 0.64880217E+03</rscale>
<asrwt>0</asrwt>
<pdfrwt beam="1">  1        1 0.39047415E+00 0.64880217E+03</pdfrwt>
<pdfrwt beam="2">0</pdfrwt>
<totfact> 0.14752449E+00</totfact>
</mgrwt>
</event>
<event>
 6    1  0.1213626E-003  0.6325503E+03  0.7818608E-02  0.9840085E-01
          1   -1    0    0  502    0  0.00000000000E+00  0.00000000000E+00  0.10014849284E+03  0.10014849284E+03  0.00000000000E+00 0.  1.
         13   -1    0    0    0    0 -0.00000000000E+00 -0.00000000000E+00 -0.10000000000E+04  0.10000000000E+04  0.00000000000E+00 0.  1.
    9000005    2    1    2  501    0 -0.17364569728E-01 -0.52360273019E-02 -0.89996927364E+03  0.11000293379E+04  0.63255027510E+03 0.  0.
         13    1    3    3    0    0 -0.15204498653E+03  0.87576453223E+01 -0.93204676960E+03  0.94440751533E+03  0.00000000000E+00 0.  1.
          3    1    3    3  501    0  0.15202762196E+03 -0.87628813496E+01  0.32077495962E+02  0.15562182262E+03  0.00000000000E+00 0.  1.
         21    1    1    2  502  501  0.17364569728E-01  0.52360273019E-02  0.11776648440E+00  0.11915489546E+00  0.00000000000E+00 0.  1.
<mgrwt>
<rscale>  1 0.63255028E+03</rscale>
<asrwt>0</asrwt>
<pdfrwt beam="1">  1        1 0.36417711E+00 0.63255028E+03</pdfrwt>
<pdfrwt beam="2">0</pdfrwt>
<totfact> 0.19321715E+00</totfact>
</mgrwt>
</event>
<event>
 6    1  0.1213626E-003  0.6528159E+03  0.7818608E-02  0.9801510E-01
          1   -1    0    0  502    0  0.00000000000E+00  0.00000000000E+00  0.10668120801E+03  0.10668120801E+03  0.00000000000E+00 0.  1.
         13   -1    0    0    0    0 -0.00000000000E+00 -0.00000000000E+00 -0.10000000000E+04  0.10000000000E+04  0.00000000000E+00 0.  1.
    9000005    2    1    2  501    0 -0.12378369282E+00 -0.15665932835E+00 -0.89337360839E+03  0.11064741588E+04  0.65281591587E+03 0.  0.
         13    1    3    3    0    0 -0.30746796597E+01  0.28708927219E+03 -0.18364569782E+03  0.34081585378E+03  0.00000000000E+00 0.  1.
          3    1    3    3  501    0  0.29508959669E+01 -0.28724593152E+03 -0.70972791057E+03  0.76565830499E+03  0.00000000000E+00 0.  1.
         21    1    1    2  502  501  0.12378369282E+00  0.15665932835E+00  0.54816407299E-01  0.20704923636E+00  0.00000000000E+00 0.  1.
<mgrwt>
<rscale>  1 0.65281595E+03</rscale>
<asrwt>0</asrwt>
<pdfrwt beam="1">  1        1 0.38793248E+00 0.65281595E+03</pdfrwt>
<pdfrwt beam="2">0</pdfrwt>
<totfact> 0.15128831E+00</totfact>
</mgrwt>
</event>
<event>
 6    1  0.1213626E-003  0.6555352E+03  0.7818608E-02  0.9796448E-01
          1   -1    0    0  502    0  0.00000000000E+00  0.00000000000E+00  0.10765765875E+03  0.10765765875E+03  0.00000000000E+00 0.  1.
         13   -1    0    0    0    0 -0.00000000000E+00 -0.00000000000E+00 -0.10000000000E+04  0.10000000000E+04  0.00000000000E+00 0.  1.
    9000005    2    1    2  501    0  0.10113716121E-01  0.15882501379E-01 -0.89256795783E+03  0.11074312578E+04  0.65553522490E+03 0.  0.
         13    1    3    3    0    0  0.17256703206E+03 -0.26751613517E+03 -0.57805752213E+03  0.65992026944E+03  0.00000000000E+00 0.  1.
          3    1    3    3  501    0 -0.17255691835E+03  0.26753201767E+03 -0.31451043570E+03  0.44751098837E+03  0.00000000000E+00 0.  1.
         21    1    1    2  502  501 -0.10113716121E-01 -0.15882501379E-01  0.22561658389E+00  0.22640093646E+00  0.00000000000E+00 0.  1.
<mgrwt>
<rscale>  1 0.65553523E+03</rscale>
<asrwt>0</asrwt>
<pdfrwt beam="1">  1        1 0.39148322E+00 0.65553523E+03</pdfrwt>
<pdfrwt beam="2">0</pdfrwt>
<totfact> 0.14582843E+00</totfact>
</mgrwt>
</event>
<event>
 6    1  0.1213626E-003  0.6332910E+03  0.7818608E-02  0.9838648E-01
          1   -1    0    0  502    0  0.00000000000E+00  0.00000000000E+00  0.10028911516E+03  0.10028911516E+03  0.00000000000E+00 0.  1.
         13   -1    0    0    0    0 -0.00000000000E+00 -0.00000000000E+00 -0.10000000000E+04  0.10000000000E+04  0.00000000000E+00 0.  1.
    9000005    2    1    2  501    0  0.57638325272E-02 -0.62771601458E-02 -0.89973480628E+03  0.11002637211E+04  0.63329103435E+03 0.  0.
         13    1    3    3    0    0 -0.29783202576E+03 -0.10730132471E+03 -0.46162935594E+03  0.55974918679E+03  0.00000000000E+00 0.  1.
          3    1    3    3  501    0  0.29783778959E+03  0.10729504755E+03 -0.43810545034E+03  0.54051453427E+03  0.00000000000E+00 0.  1.
         21    1    1    2  502  501 -0.57638325272E-02  0.62771601458E-02  0.23921439615E-01  0.25394089433E-01  0.00000000000E+00 0. -1.
<mgrwt>
<rscale>  1 0.63329103E+03</rscale>
<asrwt>0</asrwt>
<pdfrwt beam="1">  1        1 0.36468846E+00 0.63329103E+03</pdfrwt>
<pdfrwt beam="2">0</pdfrwt>
<totfact> 0.19219716E+00</totfact>
</mgrwt>
</event>
<event>
 6    1  0.1213626E-003  0.6559994E+03  0.7818608E-02  0.9795586E-01
          1   -1    0    0  502    0  0.00000000000E+00  0.00000000000E+00  0.10790458665E+03  0.10790458665E+03  0.00000000000E+00 0.  1.
         13   -1    0    0    0    0 -0.00000000000E+00 -0.00000000000E+00 -0.10000000000E+04  0.10000000000E+04  0.00000000000E+00 0.  1.
    9000005    2    1    2  501    0 -0.29058328727E-01 -0.31082214436E-01 -0.89241462332E+03  0.11075825533E+04  0.65599942881E+03 0.  0.
         13    1    3    3    0    0 -0.58570159330E+02  0.49393486311E+02 -0.98467898095E+03  0.98765524125E+03  0.00000000000E+00 0.  1.
          3    1    3    3  501    0  0.58541101001E+02 -0.49424568526E+02  0.92264357631E+02  0.11992731202E+03  0.00000000000E+00 0.  1.
         21    1    1    2  502  501  0.29058328727E-01  0.31082214436E-01  0.31920996359E+00  0.32203336998E+00  0.00000000000E+00 0. -1.
<mgrwt>
<rscale>  1 0.65599943E+03</rscale>
<asrwt>0</asrwt>
<pdfrwt beam="1">  1        1 0.39238114E+00 0.65599943E+03</pdfrwt>
<pdfrwt beam="2">0</pdfrwt>
<totfact> 0.14448362E+00</totfact>
</mgrwt>
</event>
<event>
 6    1  0.1213626E-003  0.6510069E+03  0.7818608E-02  0.9804892E-01
          1   -1    0    0  502    0  0.00000000000E+00  0.00000000000E+00  0.11060895917E+03  0.11060895917E+03  0.00000000000E+00 0.  1.
         13   -1    0    0    0    0 -0.00000000000E+00 -0.00000000000E+00 -0.10000000000E+04  0.10000000000E+04  0.00000000000E+00 0.  1.
    9000005    2    1    2  501    0  0.18036434306E+01 -0.48951794066E-01 -0.89385343831E+03  0.11057955906E+04  0.65100434979E+03 0.  0.
         13    1    3    3    0    0  0.35488020228E+02  0.32362872123E+03 -0.45045326517E+03  0.55579051170E+03  0.00000000000E+00 0.  1.
          1    1    3    3  501    0 -0.33684376797E+02 -0.32367767303E+03 -0.44340017314E+03  0.55000507888E+03  0.00000000000E+00 0.  1.
         21    1    1    2  502  501 -0.18036434306E+01  0.48951794066E-01  0.44623974770E+01  0.48133685861E+01  0.00000000000E+00 0. -1.
<mgrwt>
<rscale>  1 0.65100685E+03</rscale>
<asrwt>0</asrwt>
<pdfrwt beam="1">  1        1 0.40221525E+00 0.65100685E+03</pdfrwt>
<pdfrwt beam="2">0</pdfrwt>
<totfact> 0.13075293E+00</totfact>
</mgrwt>
</event>
<event>
 6    1  0.1213626E-003  0.6417671E+03  0.7818608E-02  0.9822351E-01
          1   -1    0    0  502    0  0.00000000000E+00  0.00000000000E+00  0.10301854296E+03  0.10301854296E+03  0.00000000000E+00 0.  1.
         13   -1    0    0    0    0 -0.00000000000E+00 -0.00000000000E+00 -0.10000000000E+04  0.10000000000E+04  0.00000000000E+00 0.  1.
    9000005    2    1    2  501    0  0.14987589835E+00 -0.61513118647E-01 -0.89672453217E+03  0.11027148045E+04  0.64176711297E+03 0.  0.
         13    1    3    3    0    0 -0.12490918798E+03  0.21628834664E+03 -0.10228304469E+03  0.26989771278E+03  0.00000000000E+00 0.  1.
          3    1    3    3  501    0  0.12505906388E+03 -0.21634985975E+03 -0.79444148748E+03  0.83281709175E+03  0.00000000000E+00 0.  1.
         21    1    1    2  502  501 -0.14987589835E+00  0.61513118647E-01 -0.25692486888E+00  0.30373843504E+00  0.00000000000E+00 0. -1.
<mgrwt>
<rscale>  1 0.64176713E+03</rscale>
<asrwt>0</asrwt>
<pdfrwt beam="1">  1        1 0.37461367E+00 0.64176713E+03</pdfrwt>
<pdfrwt beam="2">0</pdfrwt>
<totfact> 0.17357721E+00</totfact>
</mgrwt>
</event>
<event>
 6    1  0.1213626E-003  0.6487662E+03  0.7818608E-02  0.9809097E-01
          1   -1    0    0  502    0  0.00000000000E+00  0.00000000000E+00  0.11516814918E+03  0.11516814918E+03  0.00000000000E+00 0.  1.
         13   -1    0    0    0    0 -0.00000000000E+00 -0.00000000000E+00 -0.10000000000E+04  0.10000000000E+04  0.00000000000E+00 0.  1.
    9000005    2    1    2  501    0  0.16629942877E+00 -0.14248007931E+00 -0.89477427780E+03  0.11052233108E+04  0.64876614474E+03 0.  0.
         13    1    3    3    0    0 -0.16044870639E+03 -0.25595519918E+03 -0.24600139093E+03  0.38958123121E+03  0.00000000000E+00 0.  1.
          3    1    3    3  501    0  0.16061500582E+03  0.25581271910E+03 -0.64877288687E+03  0.71564207960E+03  0.00000000000E+00 0.  1.
         21    1    1    2  502  501 -0.16629942877E+00  0.14248007931E+00  0.99424269866E+01  0.99448383827E+01  0.00000000000E+00 0.  1.
<mgrwt>
<rscale>  1 0.64876618E+03</rscale>
<asrwt>0</asrwt>
<pdfrwt beam="1">  1        1 0.41879415E+00 0.64876618E+03</pdfrwt>
<pdfrwt beam="2">0</pdfrwt>
<totfact> 0.11022963E+00</totfact>
</mgrwt>
</event>
<event>
 6    1  0.1213626E-003  0.6431505E+03  0.7818608E-02  0.9819717E-01
          1   -1    0    0  502    0  0.00000000000E+00  0.00000000000E+00  0.10429676995E+03  0.10429676995E+03  0.00000000000E+00 0.  1.
         13   -1    0    0    0    0 -0.00000000000E+00 -0.00000000000E+00 -0.10000000000E+04  0.10000000000E+04  0.00000000000E+00 0.  1.
    9000005    2    1    2  501    0 -0.14027006654E+01  0.20831091606E+01 -0.89380199095E+03  0.11011469092E+04  0.64314555864E+03 0.  0.
         13    1    3    3    0    0 -0.32485361933E+02 -0.24184037463E+03 -0.80261476320E+03  0.83888767046E+03  0.00000000000E+00 0.  1.
          1    1    3    3  501    0  0.31082661267E+02  0.24392348379E+03 -0.91187227749E+02  0.26225923869E+03  0.00000000000E+00 0.  1.
         21    1    1    2  502  501  0.14027006654E+01 -0.20831091606E+01 -0.19012390955E+01  0.31498607953E+01  0.00000000000E+00 0. -1.
<mgrwt>
<rscale>  1 0.64315046E+03</rscale>
<asrwt>0</asrwt>
<pdfrwt beam="1">  1        1 0.37926178E+00 0.64315046E+03</pdfrwt>
<pdfrwt beam="2">0</pdfrwt>
<totfact> 0.16554071E+00</totfact>
</mgrwt>
</event>
<event>
 6    1  0.1213626E-003  0.6459427E+03  0.7818608E-02  0.9814422E-01
          1   -1    0    0  502    0  0.00000000000E+00  0.00000000000E+00  0.10644086013E+03  0.10644086013E+03  0.00000000000E+00 0.  1.
         13   -1    0    0    0    0 -0.00000000000E+00 -0.00000000000E+00 -0.10000000000E+04  0.10000000000E+04  0.00000000000E+00 0.  1.
    9000005    2    1    2  501    0  0.33962859109E+00 -0.16506650023E+00 -0.89567100711E+03  0.11042954982E+04  0.64594260721E+03 0.  0.
         13    1    3    3    0    0 -0.11573375395E+03 -0.72871395620E+02  0.52342842444E+02  0.14643877648E+03  0.00000000000E+00 0.  1.
          1    1    3    3  501    0  0.11607338254E+03  0.72706329120E+02 -0.94801384955E+03  0.95785672173E+03  0.00000000000E+00 0.  1.
         21    1    1    2  502  501 -0.33962859109E+00  0.16506650023E+00  0.21118672345E+01  0.21453619148E+01  0.00000000000E+00 0. -1.
<mgrwt>
<rscale>  1 0.64594272E+03</rscale>
<asrwt>0</asrwt>
<pdfrwt beam="1">  1        1 0.38705849E+00 0.64594272E+03</pdfrwt>
<pdfrwt beam="2">0</pdfrwt>
<totfact> 0.15283769E+00</totfact>
</mgrwt>
</event>
<event>
 6    1  0.1213626E-003  0.5333290E+03  0.7818608E-02  0.1005428E+00
          1   -1    0    0  502    0  0.00000000000E+00  0.00000000000E+00  0.71111893735E+02  0.71111893735E+02  0.00000000000E+00 0.  1.
         13   -1    0    0    0    0 -0.00000000000E+00 -0.00000000000E+00 -0.10000000000E+04  0.10000000000E+04  0.00000000000E+00 0.  1.
    9000005    2    1    2  501    0  0.21442414729E-02 -0.45287030841E-02 -0.92888599072E+03  0.10711064548E+04  0.53332902945E+03 0.  0.
         13    1    3    3    0    0 -0.22254774461E+03 -0.10535242222E+03 -0.67007328097E+03  0.71388012535E+03  0.00000000000E+00 0.  1.
          3    1    3    3  501    0  0.22254988885E+03  0.10534789352E+03 -0.25881270974E+03  0.35722632940E+03  0.00000000000E+00 0.  1.
         21    1    1    2  502  501 -0.21442414729E-02  0.45287030841E-02 -0.21155502756E-02  0.54389774854E-02  0.00000000000E+00 0.  1.
<mgrwt>
<rscale>  1 0.53332903E+03</rscale>
<asrwt>0</asrwt>
<pdfrwt beam="1">  1        1 0.25858925E+00 0.53332903E+03</pdfrwt>
<pdfrwt beam="2">0</pdfrwt>
<totfact> 0.56357654E+00</totfact>
</mgrwt>
</event>
<event>
 6    1  0.1213626E-003  0.6668111E+03  0.7818608E-02  0.9775736E-01
          1   -1    0    0  502    0  0.00000000000E+00  0.00000000000E+00  0.13762920883E+03  0.13762920883E+03  0.00000000000E+00 0.  1.
         13   -1    0    0    0    0 -0.00000000000E+00 -0.00000000000E+00 -0.10000000000E+04  0.10000000000E+04  0.00000000000E+00 0.  1.
    9000005    2    1    2  501    0 -0.35509696280E+02  0.93176270086E+00 -0.87483152419E+03  0.10999851312E+04  0.66586431536E+03 0.  0.
         13    1    3    3    0    0  0.17827171648E+03  0.24013186703E+03 -0.62673207476E+03  0.69443301476E+03  0.00000000000E+00 0.  1.
          1    1    3    3  501    0 -0.21378141276E+03 -0.23920010433E+03 -0.24809944943E+03  0.40555211646E+03  0.00000000000E+00 0.  1.
         21    1    1    2  502  501  0.35509696280E+02 -0.93176270086E+00  0.12460733016E+02  0.37644077607E+02  0.00000000000E+00 0.  1.
<mgrwt>
<rscale>  1 0.66681114E+03</rscale>
<asrwt>0</asrwt>
<pdfrwt beam="1">  1        1 0.50047091E+00 0.66681114E+03</pdfrwt>
<pdfrwt beam="2">0</pdfrwt>
<totfact> 0.45822882E-01</totfact>
</mgrwt>
</event>
<event>
 6    1  0.1213626E-003  0.6492644E+03  0.7818608E-02  0.9808160E-01
          1   -1    0    0  502    0  0.00000000000E+00  0.00000000000E+00  0.11136241978E+03  0.11136241978E+03  0.00000000000E+00 0.  1.
         13   -1    0    0    0    0 -0.00000000000E+00 -0.00000000000E+00 -0.10000000000E+04  0.10000000000E+04  0.00000000000E+00 0.  1.
    9000005    2    1    2  501    0 -0.38466374643E+01 -0.45243680976E+01 -0.89293809710E+03  0.11040302324E+04  0.64923727731E+03 0.  0.
         13    1    3    3    0    0 -0.65842610209E+02  0.98781820785E+01 -0.98766522627E+03  0.98990677692E+03  0.00000000000E+00 0.  1.
          1    1    3    3  501    0  0.61995972744E+02 -0.14402550176E+02  0.94727129172E+02  0.11412345547E+03  0.00000000000E+00 0.  1.
         21    1    1    2  502  501  0.38466374643E+01  0.45243680976E+01  0.43005168787E+01  0.73321873877E+01  0.00000000000E+00 0.  1.
<mgrwt>
<rscale>  1 0.64926444E+03</rscale>
<asrwt>0</asrwt>
<pdfrwt beam="1">  1        1 0.40495511E+00 0.64926444E+03</pdfrwt>
<pdfrwt beam="2">0</pdfrwt>
<totfact> 0.12716274E+00</totfact>
</mgrwt>
</event>
<event>
 6    1  0.1213626E-003  0.6356558E+03  0.7818608E-02  0.9834074E-01
          1   -1    0    0  502    0  0.00000000000E+00  0.00000000000E+00  0.10103894826E+03  0.10103894826E+03  0.00000000000E+00 0.  1.
         13   -1    0    0    0    0 -0.00000000000E+00 -0.00000000000E+00 -0.10000000000E+04  0.10000000000E+04  0.00000000000E+00 0.  1.
    9000005    2    1    2  501    0 -0.20054816633E-02  0.96993443011E-02 -0.89898430820E+03  0.11010136706E+04  0.63565581590E+03 0.  0.
         13    1    3    3    0    0  0.31415373842E+03  0.45805860537E+02 -0.47539475854E+03  0.57165629942E+03  0.00000000000E+00 0.  1.
          3    1    3    3  501    0 -0.31415574390E+03 -0.45796161192E+02 -0.42358954965E+03  0.52935737114E+03  0.00000000000E+00 0.  1.
         21    1    1    2  502  501  0.20054816633E-02 -0.96993443011E-02  0.23256460753E-01  0.25277701702E-01  0.00000000000E+00 0. -1.
<mgrwt>
<rscale>  1 0.63565582E+03</rscale>
<asrwt>0</asrwt>
<pdfrwt beam="1">  1        1 0.36741513E+00 0.63565582E+03</pdfrwt>
<pdfrwt beam="2">0</pdfrwt>
<totfact> 0.18689857E+00</totfact>
</mgrwt>
</event>
<event>
 6    1  0.1213626E-003  0.6438847E+03  0.7818608E-02  0.9818322E-01
          1   -1    0    0  502    0  0.00000000000E+00  0.00000000000E+00  0.10364691629E+03  0.10364691629E+03  0.00000000000E+00 0.  1.
         13   -1    0    0    0    0 -0.00000000000E+00 -0.00000000000E+00 -0.10000000000E+04  0.10000000000E+04  0.00000000000E+00 0.  1.
    9000005    2    1    2  501    0  0.26414936038E-04  0.33363311275E-04 -0.89635312026E+03  0.11036468602E+04  0.64388467586E+03 0.  0.
         13    1    3    3    0    0 -0.61987979263E+02  0.29727312889E+03 -0.26490159849E+03  0.40297230626E+03  0.00000000000E+00 0.  1.
          1    1    3    3  501    0  0.61988005678E+02 -0.29727309553E+03 -0.63145152178E+03  0.70067455393E+03  0.00000000000E+00 0.  1.
         21    1    1    2  502  501 -0.26414936035E-04 -0.33363311274E-04  0.36550364115E-04  0.56096243206E-04  0.00000000000E+00 0.  1.
<mgrwt>
<rscale>  1 0.64388468E+03</rscale>
<asrwt>0</asrwt>
<pdfrwt beam="1">  1        1 0.37689867E+00 0.64388468E+03</pdfrwt>
<pdfrwt beam="2">0</pdfrwt>
<totfact> 0.16953630E+00</totfact>
</mgrwt>
</event>
<event>
 6    1  0.1213626E-003  0.6523638E+03  0.7818608E-02  0.9802354E-01
          1   -1    0    0  502    0  0.00000000000E+00  0.00000000000E+00  0.10743306096E+03  0.10743306096E+03  0.00000000000E+00 0.  1.
         13   -1    0    0    0    0 -0.00000000000E+00 -0.00000000000E+00 -0.10000000000E+04  0.10000000000E+04  0.00000000000E+00 0.  1.
    9000005    2    1    2  501    0  0.22398651770E+00  0.23837974617E+01 -0.89176355226E+03  0.11049075728E+04  0.65235939371E+03 0.  0.
         13    1    3    3    0    0 -0.81080145465E+02 -0.11291272646E+03 -0.94421487969E+03  0.95439248363E+03  0.00000000000E+00 0.  1.
          3    1    3    3  501    0  0.81304131982E+02  0.11529652393E+03  0.52451327432E+02  0.15051508913E+03  0.00000000000E+00 0.  1.
         21    1    1    2  502  501 -0.22398651770E+00 -0.23837974617E+01 -0.80338678270E+00  0.25254881946E+01  0.00000000000E+00 0.  1.
<mgrwt>
<rscale>  1 0.65236379E+03</rscale>
<asrwt>0</asrwt>
<pdfrwt beam="1">  1        1 0.39066650E+00 0.65236379E+03</pdfrwt>
<pdfrwt beam="2">0</pdfrwt>
<totfact> 0.14713712E+00</totfact>
</mgrwt>
</event>
<event>
 6    1  0.1213626E-003  0.6451989E+03  0.7818608E-02  0.9815830E-01
          1   -1    0    0  502    0  0.00000000000E+00  0.00000000000E+00  0.10415848619E+03  0.10415848619E+03  0.00000000000E+00 0.  1.
         13   -1    0    0    0    0 -0.00000000000E+00 -0.00000000000E+00 -0.10000000000E+04  0.10000000000E+04  0.00000000000E+00 0.  1.
    9000005    2    1    2  501    0  0.64213917443E-02  0.46814287720E-03 -0.89592946391E+03  0.11040703007E+04  0.64519890314E+03 0.  0.
         13    1    3    3    0    0 -0.31411703709E+03 -0.70874475223E+02 -0.48112652372E+03  0.57894337898E+03  0.00000000000E+00 0.  1.
          1    1    3    3  501    0  0.31412345848E+03  0.70874943366E+02 -0.41480294019E+03  0.52512692176E+03  0.00000000000E+00 0.  1.
         21    1    1    2  502  501 -0.64213917443E-02 -0.46814287720E-03  0.87950100723E-01  0.88185450313E-01  0.00000000000E+00 0.  1.
<mgrwt>
<rscale>  1 0.64519890E+03</rscale>
<asrwt>0</asrwt>
<pdfrwt beam="1">  1        1 0.37875893E+00 0.64519890E+03</pdfrwt>
<pdfrwt beam="2">0</pdfrwt>
<totfact> 0.16632544E+00</totfact>
</mgrwt>
</event>
<event>
 6    1  0.1213626E-003  0.6425732E+03  0.7818608E-02  0.9820816E-01
          1   -1    0    0  502    0  0.00000000000E+00  0.00000000000E+00  0.10322513244E+03  0.10322513244E+03  0.00000000000E+00 0.  1.
         13   -1    0    0    0    0 -0.00000000000E+00 -0.00000000000E+00 -0.10000000000E+04  0.10000000000E+04  0.00000000000E+00 0.  1.
    9000005    2    1    2  501    0 -0.25197851301E-04 -0.10257391081E-03 -0.89677485414E+03  0.11032250260E+04  0.64257320120E+03 0.  0.
         13    1    3    3    0    0 -0.31216465923E+03 -0.75308313641E+02 -0.46614530489E+03  0.56604731414E+03  0.00000000000E+00 0.  1.
          3    1    3    3  501    0  0.31216463403E+03  0.75308211067E+02 -0.43062954925E+03  0.53717771183E+03  0.00000000000E+00 0.  1.
         21    1    1    2  502  501  0.25197851270E-04  0.10257391080E-03 -0.13413403626E-04  0.10647186615E-03  0.00000000000E+00 0.  1.
<mgrwt>
<rscale>  1 0.64257320E+03</rscale>
<asrwt>0</asrwt>
<pdfrwt beam="1">  1        1 0.37536491E+00 0.64257320E+03</pdfrwt>
<pdfrwt beam="2">0</pdfrwt>
<totfact> 0.17223517E+00</totfact>
</mgrwt>
</event>
<event>
 6    1  0.1213626E-003  0.5782433E+03  0.7818608E-02  0.9951601E-01
          1   -1    0    0  502    0  0.00000000000E+00  0.00000000000E+00  0.83778532076E+02  0.83778532076E+02  0.00000000000E+00 0.  1.
         13   -1    0    0    0    0 -0.00000000000E+00 -0.00000000000E+00 -0.10000000000E+04  0.10000000000E+04  0.00000000000E+00 0.  1.
    9000005    2    1    2  501    0 -0.66145333009E-01 -0.16326117415E-01 -0.91640192463E+03  0.10835856425E+04  0.57824333341E+03 0.  0.
         13    1    3    3    0    0  0.58237865536E+02 -0.23195221166E+03 -0.76266511034E+03  0.79928189521E+03  0.00000000000E+00 0.  1.
          3    1    3    3  501    0 -0.58304010869E+02  0.23193588554E+03 -0.15373681429E+03  0.28430374734E+03  0.00000000000E+00 0.  1.
         21    1    1    2  502  501  0.66145333009E-01  0.16326117415E-01  0.18045670416E+00  0.19288952606E+00  0.00000000000E+00 0.  1.
<mgrwt>
<rscale>  1 0.57824334E+03</rscale>
<asrwt>0</asrwt>
<pdfrwt beam="1">  1        1 0.30464985E+00 0.57824334E+03</pdfrwt>
<pdfrwt beam="2">0</pdfrwt>
<totfact> 0.35368865E+00</totfact>
</mgrwt>
</event>
<event>
 6    1  0.1213626E-003  0.6464957E+03  0.7818608E-02  0.9813377E-01
          1   -1    0    0  502    0  0.00000000000E+00  0.00000000000E+00  0.10498276471E+03  0.10498276471E+03  0.00000000000E+00 0.  1.
         13   -1    0    0    0    0 -0.00000000000E+00 -0.00000000000E+00 -0.10000000000E+04  0.10000000000E+04  0.00000000000E+00 0.  1.
    9000005    2    1    2  501    0  0.67239360714E-01 -0.72312846986E-01 -0.89550538166E+03  0.11044847314E+04  0.64649564857E+03 0.  0.
         13    1    3    3    0    0  0.19812181564E+03  0.13122109878E+03 -0.82214130720E+03  0.85579644753E+03  0.00000000000E+00 0.  1.
          3    1    3    3  501    0 -0.19805457628E+03 -0.13129341163E+03 -0.73364074454E+02  0.24868828389E+03  0.00000000000E+00 0.  1.
         21    1    1    2  502  501 -0.67239360714E-01  0.72312846986E-01  0.48814636784E+00  0.49803328795E+00  0.00000000000E+00 0.  1.
<mgrwt>
<rscale>  1 0.64649566E+03</rscale>
<asrwt>0</asrwt>
<pdfrwt beam="1">  1        1 0.38175631E+00 0.64649566E+03</pdfrwt>
<pdfrwt beam="2">0</pdfrwt>
<totfact> 0.16129784E+00</totfact>
</mgrwt>
</event>
<event>
 6    1  0.1213626E-003  0.6480957E+03  0.7818608E-02  0.9810359E-01
          1   -1    0    0  502    0  0.00000000000E+00  0.00000000000E+00  0.10500717635E+03  0.10500717635E+03  0.00000000000E+00 0.  1.
         13   -1    0    0    0    0 -0.00000000000E+00 -0.00000000000E+00 -0.10000000000E+04  0.10000000000E+04  0.00000000000E+00 0.  1.
    9000005    2    1    2  501    0  0.36721694755E-04 -0.17649478792E-04 -0.89499299410E+03  0.11050070011E+04  0.64809568197E+03 0.  0.
         13    1    3    3    0    0  0.17445097310E+03 -0.22651707709E+03 -0.70755260819E+03  0.76313420942E+03  0.00000000000E+00 0.  1.
          3    1    3    3  501    0 -0.17445093638E+03  0.22651705944E+03 -0.18744038591E+03  0.34187279168E+03  0.00000000000E+00 0.  1.
         21    1    1    2  502  501 -0.36721694772E-04  0.17649478805E-04  0.17044961783E-03  0.17525141708E-03  0.00000000000E+00 0. -1.
<mgrwt>
<rscale>  1 0.64809568E+03</rscale>
<asrwt>0</asrwt>
<pdfrwt beam="1">  1        1 0.38184508E+00 0.64809568E+03</pdfrwt>
<pdfrwt beam="2">0</pdfrwt>
<totfact> 0.16110482E+00</totfact>
</mgrwt>
</event>
<event>
 6    1  0.1213626E-003  0.6438200E+03  0.7818608E-02  0.9818445E-01
          1   -1    0    0  502    0  0.00000000000E+00  0.00000000000E+00  0.10362604296E+03  0.10362604296E+03  0.00000000000E+00 0.  1.
         13   -1    0    0    0    0 -0.00000000000E+00 -0.00000000000E+00 -0.10000000000E+04  0.10000000000E+04  0.00000000000E+00 0.  1.
    9000005    2    1    2  501    0  0.78326143722E-05 -0.18815605358E-05 -0.89637396487E+03  0.11036260317E+04  0.64381995388E+03 0.  0.
         13    1    3    3    0    0 -0.84877357649E+02 -0.30472579825E+03 -0.34585068147E+03  0.46869464669E+03  0.00000000000E+00 0.  1.
          1    1    3    3  501    0  0.84877365482E+02  0.30472579637E+03 -0.55052328340E+03  0.63493138504E+03  0.00000000000E+00 0.  1.
         21    1    1    2  502  501 -0.78326143762E-05  0.18815605411E-05  0.78333883702E-05  0.11236195593E-04  0.00000000000E+00 0. -1.
<mgrwt>
<rscale>  1 0.64381995E+03</rscale>
<asrwt>0</asrwt>
<pdfrwt beam="1">  1        1 0.37682277E+00 0.64381995E+03</pdfrwt>
<pdfrwt beam="2">0</pdfrwt>
<totfact> 0.16966890E+00</totfact>
</mgrwt>
</event>
<event>
 6    1  0.1213626E-003  0.6461673E+03  0.7818608E-02  0.9813998E-01
          1   -1    0    0  502    0  0.00000000000E+00  0.00000000000E+00  0.10440035874E+03  0.10440035874E+03  0.00000000000E+00 0.  1.
         13   -1    0    0    0    0 -0.00000000000E+00 -0.00000000000E+00 -0.10000000000E+04  0.10000000000E+04  0.00000000000E+00 0.  1.
    9000005    2    1    2  501    0 -0.48512236560E-04 -0.33028979111E-03 -0.89561694368E+03  0.11043830531E+04  0.64616732985E+03 0.  0.
         13    1    3    3    0    0  0.25107971348E+03 -0.96102332219E+02 -0.75405456551E+03  0.80054666856E+03  0.00000000000E+00 0.  1.
          3    1    3    3  501    0 -0.25107976199E+03  0.96102001929E+02 -0.14156237817E+03  0.30383638454E+03  0.00000000000E+00 0.  1.
         21    1    1    2  502  501  0.48512236556E-04  0.33028979111E-03  0.17302422562E-01  0.17305642759E-01  0.00000000000E+00 0. -1.
<mgrwt>
<rscale>  1 0.64616733E+03</rscale>
<asrwt>0</asrwt>
<pdfrwt beam="1">  1        1 0.37963847E+00 0.64616733E+03</pdfrwt>
<pdfrwt beam="2">0</pdfrwt>
<totfact> 0.16481708E+00</totfact>
</mgrwt>
</event>
<event>
 6    1  0.1213626E-003  0.6479770E+03  0.7818608E-02  0.9810583E-01
          1   -1    0    0  502    0  0.00000000000E+00  0.00000000000E+00  0.10654167760E+03  0.10654167760E+03  0.00000000000E+00 0.  1.
         13   -1    0    0    0    0 -0.00000000000E+00 -0.00000000000E+00 -0.10000000000E+04  0.10000000000E+04  0.00000000000E+00 0.  1.
    9000005    2    1    2  501    0 -0.36396351763E+00 -0.30840820386E+00 -0.89499137921E+03  0.11049361097E+04  0.64797685924E+03 0.  0.
         13    1    3    3    0    0 -0.32043399036E+03  0.48836043197E+02 -0.45226637885E+03  0.55642409970E+03  0.00000000000E+00 0.  1.
          3    1    3    3  501    0  0.32007002684E+03 -0.49144451401E+02 -0.44272500036E+03  0.54851201001E+03  0.00000000000E+00 0.  1.
         21    1    1    2  502  501  0.36396351763E+00  0.30840820386E+00  0.15330568094E+01  0.16055678880E+01  0.00000000000E+00 0. -1.
<mgrwt>
<rscale>  1 0.64797703E+03</rscale>
<asrwt>0</asrwt>
<pdfrwt beam="1">  1        1 0.38742510E+00 0.64797703E+03</pdfrwt>
<pdfrwt beam="2">0</pdfrwt>
<totfact> 0.15220983E+00</totfact>
</mgrwt>
</event>
<event>
 6    1  0.1213626E-003  0.4960366E+03  0.7818608E-02  0.1014819E+00
          1   -1    0    0  502    0  0.00000000000E+00  0.00000000000E+00  0.77552543639E+02  0.77552543639E+02  0.00000000000E+00 0.  1.
         13   -1    0    0    0    0 -0.00000000000E+00 -0.00000000000E+00 -0.10000000000E+04  0.10000000000E+04  0.00000000000E+00 0.  1.
    9000005    2    1    2  501    0 -0.66821536767E+00 -0.98184103587E+00 -0.93846357266E+03  0.10614924532E+04  0.49603522098E+03 0.  0.
         13    1    3    3    0    0  0.18792122186E+03  0.71357444099E+02 -0.77793028153E+03  0.80348104730E+03  0.00000000000E+00 0.  1.
          1    1    3    3  501    0 -0.18858943723E+03 -0.72339285135E+02 -0.16053329114E+03  0.25801140590E+03  0.00000000000E+00 0.  1.
         21    1    1    2  502  501  0.66821536767E+00  0.98184103587E+00  0.16016116302E+02  0.16060090442E+02  0.00000000000E+00 0. -1.
<mgrwt>
<rscale>  1 0.49603664E+03</rscale>
<asrwt>0</asrwt>
<pdfrwt beam="1">  1        1 0.28200984E+00 0.49603664E+03</pdfrwt>
<pdfrwt beam="2">0</pdfrwt>
<totfact> 0.44947416E+00</totfact>
</mgrwt>
</event>
<event>
 6    1  0.1213626E-003  0.6367670E+03  0.7818608E-02  0.9831932E-01
          3   -1    0    0  502    0  0.00000000000E+00  0.00000000000E+00  0.10261480004E+03  0.10261480004E+03  0.00000000000E+00 0.  1.
         13   -1    0    0    0    0 -0.00000000000E+00 -0.00000000000E+00 -0.10000000000E+04  0.10000000000E+04  0.00000000000E+00 0.  1.
    9000005    2    1    2  501    0  0.65011395672E-02  0.40233889213E-01 -0.89863158236E+03  0.11013677515E+04  0.63676699153E+03 0.  0.
         13    1    3    3    0    0 -0.17349259464E+03 -0.16348735325E+03 -0.81429680162E+03  0.84847337978E+03  0.00000000000E+00 0.  1.
          3    1    3    3  501    0  0.17349909578E+03  0.16352758714E+03 -0.84334780744E+02  0.25289437169E+03  0.00000000000E+00 0.  1.
         21    1    1    2  502  501 -0.65011395672E-02 -0.40233889213E-01  0.12463824000E+01  0.12470485627E+01  0.00000000000E+00 0. -1.
<mgrwt>
<rscale>  1 0.63676699E+03</rscale>
<asrwt>0</asrwt>
<pdfrwt beam="1">  1        3 0.37314551E+00 0.63676699E+03</pdfrwt>
<pdfrwt beam="2">0</pdfrwt>
<totfact> 0.82227508E-02</totfact>
</mgrwt>
</event>
<event>
 6    1  0.1213626E-003  0.6605750E+03  0.7818608E-02  0.9787136E-01
          3   -1    0    0  502    0  0.00000000000E+00  0.00000000000E+00  0.10909472032E+03  0.10909472032E+03  0.00000000000E+00 0.  1.
         13   -1    0    0    0    0 -0.00000000000E+00 -0.00000000000E+00 -0.10000000000E+04  0.10000000000E+04  0.00000000000E+00 0.  1.
    9000005    2    1    2  501    0  0.63192101509E-02  0.41700440813E-02 -0.89090669043E+03  0.11090870189E+04  0.66057496499E+03 0.  0.
         13    1    3    3    0    0  0.70661891909E+02  0.26799222820E+03 -0.14380896721E+03  0.31224022225E+03  0.00000000000E+00 0.  1.
          3    1    3    3  501    0 -0.70655572699E+02 -0.26798805816E+03 -0.74709772323E+03  0.79684679664E+03  0.00000000000E+00 0.  1.
         21    1    1    2  502  501 -0.63192101509E-02 -0.41700440813E-02  0.14107499495E-02  0.77014219461E-02  0.00000000000E+00 0.  1.
<mgrwt>
<rscale>  1 0.66057497E+03</rscale>
<asrwt>0</asrwt>
<pdfrwt beam="1">  1        3 0.39670891E+00 0.66057497E+03</pdfrwt>
<pdfrwt beam="2">0</pdfrwt>
<totfact> 0.61529306E-02</totfact>
</mgrwt>
</event>
<event>
 6    1  0.1213626E-003  0.6449109E+03  0.7818608E-02  0.9816376E-01
          1   -1    0    0  502    0  0.00000000000E+00  0.00000000000E+00  0.10400526266E+03  0.10400526266E+03  0.00000000000E+00 0.  1.
         13   -1    0    0    0    0 -0.00000000000E+00 -0.00000000000E+00 -0.10000000000E+04  0.10000000000E+04  0.00000000000E+00 0.  1.
    9000005    2    1    2  501    0 -0.47721303966E-01  0.67799362256E-01 -0.89591460473E+03  0.11038899574E+04  0.64491088696E+03 0.  0.
         13    1    3    3    0    0  0.12297763285E+03  0.17713038664E+03 -0.85836665823E+03  0.88503784779E+03  0.00000000000E+00 0.  1.
          1    1    3    3  501    0 -0.12302535416E+03 -0.17706258727E+03 -0.37547946497E+02  0.21885210957E+03  0.00000000000E+00 0.  1.
         21    1    1    2  502  501  0.47721303967E-01 -0.67799362256E-01 -0.80132613556E-01  0.11530529966E+00  0.00000000000E+00 0.  1.
<mgrwt>
<rscale>  1 0.64491089E+03</rscale>
<asrwt>0</asrwt>
<pdfrwt beam="1">  1        1 0.37820175E+00 0.64491089E+03</pdfrwt>
<pdfrwt beam="2">0</pdfrwt>
<totfact> 0.16727777E+00</totfact>
</mgrwt>
</event>
<event>
 6    1  0.1213626E-003  0.6515252E+03  0.7818608E-02  0.9803922E-01
          1   -1    0    0  502    0  0.00000000000E+00  0.00000000000E+00  0.10612325242E+03  0.10612325242E+03  0.00000000000E+00 0.  1.
         13   -1    0    0    0    0 -0.00000000000E+00 -0.00000000000E+00 -0.10000000000E+04  0.10000000000E+04  0.00000000000E+00 0.  1.
    9000005    2    1    2  501    0  0.25327507547E-03 -0.61719837671E-04 -0.89387873463E+03  0.11061212483E+04  0.65152515208E+03 0.  0.
         13    1    3    3    0    0  0.29629348127E+03 -0.96492204547E+01 -0.67621884517E+03  0.73834603071E+03  0.00000000000E+00 0.  1.
          1    1    3    3  501    0 -0.29629322800E+03  0.96491587349E+01 -0.21765988946E+03  0.36777521763E+03  0.00000000000E+00 0.  1.
         21    1    1    2  502  501 -0.25327507543E-03  0.61719837671E-04  0.19870504977E-02  0.20040776638E-02  0.00000000000E+00 0. -1.
<mgrwt>
<rscale>  1 0.65152515E+03</rscale>
<asrwt>0</asrwt>
<pdfrwt beam="1">  1        1 0.38590355E+00 0.65152515E+03</pdfrwt>
<pdfrwt beam="2">0</pdfrwt>
<totfact> 0.15448715E+00</totfact>
</mgrwt>
</event>
<event>
 6    1  0.1213626E-003  0.6556984E+03  0.7818608E-02  0.9796145E-01
          1   -1    0    0  502    0  0.00000000000E+00  0.00000000000E+00  0.10781869487E+03  0.10781869487E+03  0.00000000000E+00 0.  1.
         13   -1    0    0    0    0 -0.00000000000E+00 -0.00000000000E+00 -0.10000000000E+04  0.10000000000E+04  0.00000000000E+00 0.  1.
    9000005    2    1    2  501    0  0.85312636862E-02  0.60333025230E+00 -0.89218011867E+03  0.11072153031E+04  0.65569810071E+03 0.  0.
         13    1    3    3    0    0 -0.18177169227E+03  0.87951183126E+02 -0.88249772828E+03  0.90530580421E+03  0.00000000000E+00 0.  1.
          3    1    3    3  501    0  0.18178022354E+03 -0.87347852874E+02 -0.96823903866E+01  0.20190949892E+03  0.00000000000E+00 0.  1.
         21    1    1    2  502  501 -0.85312636862E-02 -0.60333025230E+00 -0.11864679068E-02  0.60339173304E+00  0.00000000000E+00 0. -1.
<mgrwt>
<rscale>  1 0.65569838E+03</rscale>
<asrwt>0</asrwt>
<pdfrwt beam="1">  1        1 0.39206881E+00 0.65569838E+03</pdfrwt>
<pdfrwt beam="2">0</pdfrwt>
<totfact> 0.14495382E+00</totfact>
</mgrwt>
</event>
<event>
 6    1  0.1213626E-003  0.6402396E+03  0.7818608E-02  0.9825268E-01
          1   -1    0    0  502    0  0.00000000000E+00  0.00000000000E+00  0.10248989272E+03  0.10248989272E+03  0.00000000000E+00 0.  1.
         13   -1    0    0    0    0 -0.00000000000E+00 -0.00000000000E+00 -0.10000000000E+04  0.10000000000E+04  0.00000000000E+00 0.  1.
    9000005    2    1    2  501    0 -0.23027892135E-03 -0.19550882257E-03 -0.89752332200E+03  0.11024766745E+04  0.64023956796E+03 0.  0.
         13    1    3    3    0    0  0.13764094747E+03 -0.17103695768E+03 -0.47582062660E+02  0.22463909722E+03  0.00000000000E+00 0.  1.
          1    1    3    3  501    0 -0.13764117775E+03  0.17103676217E+03 -0.84994125934E+03  0.87783757732E+03  0.00000000000E+00 0.  1.
         21    1    1    2  502  501  0.23027892134E-03  0.19550882255E-03  0.13214724232E-01  0.13218176448E-01  0.00000000000E+00 0. -1.
<mgrwt>
<rscale>  1 0.64023957E+03</rscale>
<asrwt>0</asrwt>
<pdfrwt beam="1">  1        1 0.37269130E+00 0.64023957E+03</pdfrwt>
<pdfrwt beam="2">0</pdfrwt>
<totfact> 0.17703967E+00</totfact>
</mgrwt>
</event>
<event>
 6    1  0.1213626E-003  0.6285723E+03  0.7818608E-02  0.9847839E-01
          1   -1    0    0  502    0  0.00000000000E+00  0.00000000000E+00  0.99996513346E+02  0.99996513346E+02  0.00000000000E+00 0.  1.
         13   -1    0    0    0    0 -0.00000000000E+00 -0.00000000000E+00 -0.10000000000E+04  0.10000000000E+04  0.00000000000E+00 0.  1.
    9000005    2    1    2  501    0  0.72640874755E-01  0.34317529893E+00 -0.90119648620E+03  0.10987530127E+04  0.62857215424E+03 0.  0.
         13    1    3    3    0    0 -0.11361492395E+03  0.24613192523E+03 -0.72915465812E+03  0.77791759912E+03  0.00000000000E+00 0.  1.
          1    1    3    3  501    0  0.11368756482E+03 -0.24578874993E+03 -0.17204182809E+03  0.32083541357E+03  0.00000000000E+00 0.  1.
         21    1    1    2  502  501 -0.72640874755E-01 -0.34317529893E+00  0.11929995483E+01  0.12435006654E+01  0.00000000000E+00 0. -1.
<mgrwt>
<rscale>  1 0.62857225E+03</rscale>
<asrwt>0</asrwt>
<pdfrwt beam="1">  1        1 0.36362445E+00 0.62857225E+03</pdfrwt>
<pdfrwt beam="2">0</pdfrwt>
<totfact> 0.19443754E+00</totfact>
</mgrwt>
</event>
<event>
 6    1  0.1213626E-003  0.6470582E+03  0.7818608E-02  0.9812315E-01
          1   -1    0    0  502    0  0.00000000000E+00  0.00000000000E+00  0.10467132612E+03  0.10467132612E+03  0.00000000000E+00 0.  1.
         13   -1    0    0    0    0 -0.00000000000E+00 -0.00000000000E+00 -0.10000000000E+04  0.10000000000E+04  0.00000000000E+00 0.  1.
    9000005    2    1    2  501    0 -0.25622587358E-04 -0.10427037330E-03 -0.89532891791E+03  0.11046710595E+04  0.64705817242E+03 0.  0.
         13    1    3    3    0    0 -0.71590191431E+02  0.21075502072E+03 -0.46819281990E+02  0.22745302687E+03  0.00000000000E+00 0.  1.
          3    1    3    3  501    0  0.71590165809E+02 -0.21075512499E+03 -0.84850963592E+03  0.87721803264E+03  0.00000000000E+00 0.  1.
         21    1    1    2  502  501  0.25622587353E-04  0.10427037329E-03  0.24402541668E-03  0.26660313523E-03  0.00000000000E+00 0. -1.
<mgrwt>
<rscale>  1 0.64705817E+03</rscale>
<asrwt>0</asrwt>
<pdfrwt beam="1">  1        1 0.38062381E+00 0.64705817E+03</pdfrwt>
<pdfrwt beam="2">0</pdfrwt>
<totfact> 0.16314857E+00</totfact>
</mgrwt>
</event>
<event>
 6    1  0.1213626E-003  0.6365392E+03  0.7818608E-02  0.9832371E-01
          1   -1    0    0  502    0  0.00000000000E+00  0.00000000000E+00  0.10129617033E+03  0.10129617033E+03  0.00000000000E+00 0.  1.
         13   -1    0    0    0    0 -0.00000000000E+00 -0.00000000000E+00 -0.10000000000E+04  0.10000000000E+04  0.00000000000E+00 0.  1.
    9000005    2    1    2  501    0 -0.13951458335E-02 -0.73245595316E-03 -0.89870315851E+03  0.11012944576E+04  0.63653917026E+03 0.  0.
         13    1    3    3    0    0 -0.20605305646E+01 -0.54398560921E+02 -0.99188450742E+03  0.99337723211E+03  0.00000000000E+00 0.  1.
          3    1    3    3  501    0  0.20591354187E+01  0.54397828465E+02  0.93181348902E+02  0.10791722552E+03  0.00000000000E+00 0.  1.
         21    1    1    2  502  501  0.13951458335E-02  0.73245595315E-03 -0.67115264599E-03  0.17127082338E-02  0.00000000000E+00 0. -1.
<mgrwt>
<rscale>  1 0.63653917E+03</rscale>
<asrwt>0</asrwt>
<pdfrwt beam="1">  1        1 0.36835049E+00 0.63653917E+03</pdfrwt>
<pdfrwt beam="2">0</pdfrwt>
<totfact> 0.18511095E+00</totfact>
</mgrwt>
</event>
<event>
 6    1  0.1213626E-003  0.5311646E+03  0.7818608E-02  0.1005950E+00
          1   -1    0    0  502    0  0.00000000000E+00  0.00000000000E+00  0.70667193432E+02  0.70667193432E+02  0.00000000000E+00 0.  1.
         13   -1    0    0    0    0 -0.00000000000E+00 -0.00000000000E+00 -0.10000000000E+04  0.10000000000E+04  0.00000000000E+00 0.  1.
    9000005    2    1    2  501    0 -0.43169089010E-02  0.91814996736E-03 -0.92946601393E+03  0.10705339130E+04  0.53116455808E+03 0.  0.
         13    1    3    3    0    0  0.67180193637E+02  0.16560930916E+03 -0.86067520715E+03  0.87903437583E+03  0.00000000000E+00 0.  1.
          3    1    3    3  501    0 -0.67184510546E+02 -0.16560839101E+03 -0.68790806785E+02  0.19149953715E+03  0.00000000000E+00 0.  1.
         21    1    1    2  502  501  0.43169089010E-02 -0.91814996736E-03  0.13320736194E+00  0.13328045609E+00  0.00000000000E+00 0. -1.
<mgrwt>
<rscale>  1 0.53116456E+03</rscale>
<asrwt>0</asrwt>
<pdfrwt beam="1">  1        1 0.25697215E+00 0.53116456E+03</pdfrwt>
<pdfrwt beam="2">0</pdfrwt>
<totfact> 0.57296403E+00</totfact>
</mgrwt>
</event>
<event>
 6    1  0.1213626E-003  0.6480200E+03  0.7818608E-02  0.9810502E-01
          1   -1    0    0  502    0  0.00000000000E+00  0.00000000000E+00  0.10700195053E+03  0.10700195053E+03  0.00000000000E+00 0.  1.
         13   -1    0    0    0    0 -0.00000000000E+00 -0.00000000000E+00 -0.10000000000E+04  0.10000000000E+04  0.00000000000E+00 0.  1.
    9000005    2    1    2  501    0 -0.24709316755E+00 -0.97917000750E-02 -0.89500914661E+03  0.11049757071E+04  0.64801996845E+03 0.  0.
         13    1    3    3    0    0  0.16218148675E+03 -0.26336436710E+03 -0.61169888822E+03  0.68544814125E+03  0.00000000000E+00 0.  1.
          1    1    3    3  501    0 -0.16242857992E+03  0.26335457540E+03 -0.28331025839E+03  0.41952756580E+03  0.00000000000E+00 0.  1.
         21    1    1    2  502  501  0.24709316755E+00  0.97917000751E-02  0.20110971426E+01  0.20262434769E+01  0.00000000000E+00 0.  1.
<mgrwt>
<rscale>  1 0.64802002E+03</rscale>
<asrwt>0</asrwt>
<pdfrwt beam="1">  1        1 0.38909882E+00 0.64802002E+03</pdfrwt>
<pdfrwt beam="2">0</pdfrwt>
<totfact> 0.14963213E+00</totfact>
</mgrwt>
</event>
<event>
 6    1  0.1213626E-003  0.6563466E+03  0.7818608E-02  0.9794943E-01
          1   -1    0    0  502    0  0.00000000000E+00  0.00000000000E+00  0.10776514703E+03  0.10776514703E+03  0.00000000000E+00 0.  1.
         13   -1    0    0    0    0 -0.00000000000E+00 -0.00000000000E+00 -0.10000000000E+04  0.10000000000E+04  0.00000000000E+00 0.  1.
    9000005    2    1    2  501    0  0.79305371463E-01 -0.11783057443E+00 -0.89220608979E+03  0.11076202308E+04  0.65634659206E+03 0.  0.
         13    1    3    3    0    0 -0.19266650418E+03  0.25890475342E+03 -0.34617298397E+03  0.47327348120E+03  0.00000000000E+00 0.  1.
          1    1    3    3  501    0  0.19274580955E+03 -0.25902258399E+03 -0.54603310582E+03  0.63434674963E+03  0.00000000000E+00 0.  1.
         21    1    1    2  502  501 -0.79305371463E-01  0.11783057443E+00 -0.28763176894E-01  0.14491620530E+00  0.00000000000E+00 0.  1.
<mgrwt>
<rscale>  1 0.65634661E+03</rscale>
<asrwt>0</asrwt>
<pdfrwt beam="1">  1        1 0.39187409E+00 0.65634661E+03</pdfrwt>
<pdfrwt beam="2">0</pdfrwt>
<totfact> 0.14522514E+00</totfact>
</mgrwt>
</event>
<event>
 6    1  0.1213626E-003  0.6498394E+03  0.7818608E-02  0.9807081E-01
          1   -1    0    0  502    0  0.00000000000E+00  0.00000000000E+00  0.10564345692E+03  0.10564345692E+03  0.00000000000E+00 0.  1.
         13   -1    0    0    0    0 -0.00000000000E+00 -0.00000000000E+00 -0.10000000000E+04  0.10000000000E+04  0.00000000000E+00 0.  1.
    9000005    2    1    2  501    0  0.92126412445E-01  0.17645288666E+00 -0.89420614346E+03  0.11053939716E+04  0.64983933841E+03 0.  0.
         13    1    3    3    0    0 -0.30559549098E+03 -0.79226321097E+02 -0.31674096273E+03  0.44720269625E+03  0.00000000000E+00 0.  1.
          3    1    3    3  501    0  0.30568761739E+03  0.79402773983E+02 -0.57746518073E+03  0.65819127531E+03  0.00000000000E+00 0.  1.
         21    1    1    2  502  501 -0.92126412445E-01 -0.17645288666E+00 -0.15039961940E+00  0.24948535547E+00  0.00000000000E+00 0.  1.
<mgrwt>
<rscale>  1 0.64983937E+03</rscale>
<asrwt>0</asrwt>
<pdfrwt beam="1">  1        1 0.38415884E+00 0.64983937E+03</pdfrwt>
<pdfrwt beam="2">0</pdfrwt>
<totfact> 0.15730589E+00</totfact>
</mgrwt>
</event>
<event>
 6    1  0.1213626E-003  0.6525682E+03  0.7818608E-02  0.9801972E-01
          1   -1    0    0  502    0  0.00000000000E+00  0.00000000000E+00  0.10691195696E+03  0.10691195696E+03  0.00000000000E+00 0.  1.
         13   -1    0    0    0    0 -0.00000000000E+00 -0.00000000000E+00 -0.10000000000E+04  0.10000000000E+04  0.00000000000E+00 0.  1.
    9000005    2    1    2  501    0  0.52758963365E+00 -0.60781514293E+00 -0.89309989071E+03  0.11061070157E+04  0.65256774943E+03 0.  0.
         13    1    3    3    0    0  0.39342588988E+02  0.15414017380E+03 -0.92904474286E+03  0.94256626649E+03  0.00000000000E+00 0.  1.
          3    1    3    3  501    0 -0.38814999354E+02 -0.15474798894E+03  0.35944852145E+02  0.16354074921E+03  0.00000000000E+00 0.  1.
         21    1    1    2  502  501 -0.52758963365E+00  0.60781514293E+00  0.11847675062E-01  0.80494126302E+00  0.00000000000E+00 0. -1.
<mgrwt>
<rscale>  1 0.65256825E+03</rscale>
<asrwt>0</asrwt>
<pdfrwt beam="1">  1        1 0.38877157E+00 0.65256825E+03</pdfrwt>
<pdfrwt beam="2">0</pdfrwt>
<totfact> 0.15000559E+00</totfact>
</mgrwt>
</event>
<event>
 6    1  0.1213626E-003  0.6514935E+03  0.7818608E-02  0.9803981E-01
          1   -1    0    0  502    0  0.00000000000E+00  0.00000000000E+00  0.10611512113E+03  0.10611512113E+03  0.00000000000E+00 0.  1.
         13   -1    0    0    0    0 -0.00000000000E+00 -0.00000000000E+00 -0.10000000000E+04  0.10000000000E+04  0.00000000000E+00 0.  1.
    9000005    2    1    2  501    0 -0.38249013247E-02  0.77658393449E-02 -0.89388337434E+03  0.11061063347E+04  0.65149346629E+03 0.  0.
         13    1    3    3    0    0  0.24423037526E+03 -0.13615265561E+02 -0.81710777314E+02  0.25789630239E+03  0.00000000000E+00 0.  1.
          3    1    3    3  501    0 -0.24423420016E+03  0.13623031400E+02 -0.81217259703E+03  0.84821003229E+03  0.00000000000E+00 0.  1.
         21    1    1    2  502  501  0.38249013247E-02 -0.77658393449E-02 -0.15045227852E-02  0.87864509153E-02  0.00000000000E+00 0.  1.
<mgrwt>
<rscale>  1 0.65149347E+03</rscale>
<asrwt>0</asrwt>
<pdfrwt beam="1">  1        1 0.38587398E+00 0.65149347E+03</pdfrwt>
<pdfrwt beam="2">0</pdfrwt>
<totfact> 0.15453461E+00</totfact>
</mgrwt>
</event>
<event>
 6    1  0.1213626E-003  0.6415532E+03  0.7818608E-02  0.9822759E-01
          1   -1    0    0  502    0  0.00000000000E+00  0.00000000000E+00  0.12982897293E+03  0.12982897293E+03  0.00000000000E+00 0.  1.
         13   -1    0    0    0    0 -0.00000000000E+00 -0.00000000000E+00 -0.10000000000E+04  0.10000000000E+04  0.00000000000E+00 0.  1.
    9000005    2    1    2  501    0  0.24603228322E+02  0.54416297589E+02 -0.85367569345E+03  0.10678729537E+04  0.63876756600E+03 0.  0.
         13    1    3    3    0    0  0.21478385914E+03  0.99028050839E+02 -0.83931537590E+03  0.87200284474E+03  0.00000000000E+00 0.  1.
          1    1    3    3  501    0 -0.19018063082E+03 -0.44611753250E+02 -0.14360317543E+02  0.19587010896E+03  0.00000000000E+00 0.  1.
         21    1    1    2  502  501 -0.24603228322E+02 -0.54416297589E+02 -0.16495333625E+02  0.61956019228E+02  0.00000000000E+00 0. -1.
<mgrwt>
<rscale>  1 0.64155316E+03</rscale>
<asrwt>0</asrwt>
<pdfrwt beam="1">  1        1 0.47210635E+00 0.64155316E+03</pdfrwt>
<pdfrwt beam="2">0</pdfrwt>
<totfact> 0.62833250E-01</totfact>
</mgrwt>
</event>
<event>
 6    1  0.1213626E-003  0.6472768E+03  0.7818608E-02  0.9811903E-01
          3   -1    0    0  502    0  0.00000000000E+00  0.00000000000E+00  0.10479152457E+03  0.10479152457E+03  0.00000000000E+00 0.  1.
         13   -1    0    0    0    0 -0.00000000000E+00 -0.00000000000E+00 -0.10000000000E+04  0.10000000000E+04  0.00000000000E+00 0.  1.
    9000005    2    1    2  501    0 -0.12308992323E-02  0.49430904021E-03 -0.89525817252E+03  0.11047418098E+04  0.64727681159E+03 0.  0.
         13    1    3    3    0    0 -0.19572462264E+03 -0.39617296184E+02 -0.88231378513E+03  0.90462990968E+03  0.00000000000E+00 0.  1.
          1    1    3    3  501    0  0.19572339174E+03  0.39617790493E+02 -0.12944387390E+02  0.20011190010E+03  0.00000000000E+00 0.  1.
         21    1    1    2  502  501  0.12308992323E-02 -0.49430904021E-03  0.49697088746E-01  0.49714787379E-01  0.00000000000E+00 0.  1.
<mgrwt>
<rscale>  1 0.64727681E+03</rscale>
<asrwt>0</asrwt>
<pdfrwt beam="1">  1        3 0.38106089E+00 0.64727681E+03</pdfrwt>
<pdfrwt beam="2">0</pdfrwt>
<totfact> 0.74545265E-02</totfact>
</mgrwt>
</event>
<event>
 6    1  0.1213626E-003  0.6509285E+03  0.7818608E-02  0.9805039E-01
          1   -1    0    0  502    0  0.00000000000E+00  0.00000000000E+00  0.10721576128E+03  0.10721576128E+03  0.00000000000E+00 0.  1.
         13   -1    0    0    0    0 -0.00000000000E+00 -0.00000000000E+00 -0.10000000000E+04  0.10000000000E+04  0.00000000000E+00 0.  1.
    9000005    2    1    2  501    0 -0.60081718120E-01 -0.11339284312E+00 -0.89406950425E+03  0.11059241053E+04  0.65092843825E+03 0.  0.
         13    1    3    3    0    0 -0.23145099365E+03  0.15175151972E+03 -0.15607983776E+03  0.31774046320E+03  0.00000000000E+00 0.  1.
          3    1    3    3  501    0  0.23139091193E+03 -0.15186491256E+03 -0.73798966649E+03  0.78818364208E+03  0.00000000000E+00 0.  1.
         21    1    1    2  502  501  0.60081718120E-01  0.11339284312E+00  0.12852655271E+01  0.12916560010E+01  0.00000000000E+00 0.  1.
<mgrwt>
<rscale>  1 0.65092845E+03</rscale>
<asrwt>0</asrwt>
<pdfrwt beam="1">  1        1 0.38987632E+00 0.65092845E+03</pdfrwt>
<pdfrwt beam="2">0</pdfrwt>
<totfact> 0.14836885E+00</totfact>
</mgrwt>
</event>
<event>
 6    1  0.1213626E-003  0.6425894E+03  0.7818608E-02  0.9820785E-01
          1   -1    0    0  502    0  0.00000000000E+00  0.00000000000E+00  0.10409693621E+03  0.10409693621E+03  0.00000000000E+00 0.  1.
         13   -1    0    0    0    0 -0.00000000000E+00 -0.00000000000E+00 -0.10000000000E+04  0.10000000000E+04  0.00000000000E+00 0.  1.
    9000005    2    1    2  501    0  0.64692213370E-01  0.18020240626E+00 -0.89675803866E+03  0.11032207855E+04  0.64258935960E+03 0.  0.
         13    1    3    3    0    0  0.31079356805E+03  0.18383136622E+02 -0.58494909848E+03  0.66264321430E+03  0.00000000000E+00 0.  1.
          3    1    3    3  501    0 -0.31072887583E+03 -0.18202934216E+02 -0.31180894018E+03  0.44057757123E+03  0.00000000000E+00 0.  1.
         21    1    1    2  502  501 -0.64692213370E-01 -0.18020240626E+00  0.85497486634E+00  0.87615067869E+00  0.00000000000E+00 0.  1.
<mgrwt>
<rscale>  1 0.64258939E+03</rscale>
<asrwt>0</asrwt>
<pdfrwt beam="1">  1        1 0.37853511E+00 0.64258939E+03</pdfrwt>
<pdfrwt beam="2">0</pdfrwt>
<totfact> 0.16678383E+00</totfact>
</mgrwt>
</event>
<event>
 6    1  0.1213626E-003  0.6559153E+03  0.7818608E-02  0.9795742E-01
          1   -1    0    0  502    0  0.00000000000E+00  0.00000000000E+00  0.10755636520E+03  0.10755636520E+03  0.00000000000E+00 0.  1.
         13   -1    0    0    0    0 -0.00000000000E+00 -0.00000000000E+00 -0.10000000000E+04  0.10000000000E+04  0.00000000000E+00 0.  1.
    9000005    2    1    2  501    0  0.29616160901E-04  0.10663069338E-03 -0.89244376014E+03  0.11075561980E+04  0.65591528928E+03 0.  0.
         13    1    3    3    0    0 -0.24745637075E+03  0.12952016428E+03 -0.15597467884E+03  0.31990346797E+03  0.00000000000E+00 0.  1.
          3    1    3    3  501    0  0.24745640036E+03 -0.12952005765E+03 -0.73646908130E+03  0.78765273003E+03  0.00000000000E+00 0.  1.
         21    1    1    2  502  501 -0.29616160926E-04 -0.10663069340E-03  0.12533902664E-03  0.16720374805E-03  0.00000000000E+00 0. -1.
<mgrwt>
<rscale>  1 0.65591529E+03</rscale>
<asrwt>0</asrwt>
<pdfrwt beam="1">  1        1 0.39111488E+00 0.65591529E+03</pdfrwt>
<pdfrwt beam="2">0</pdfrwt>
<totfact> 0.14636802E+00</totfact>
</mgrwt>
</event>
<event>
 6    1  0.1213626E-003  0.6009846E+03  0.7818608E-02  0.9903365E-01
          1   -1    0    0  502    0  0.00000000000E+00  0.00000000000E+00  0.90894031497E+02  0.90894031497E+02  0.00000000000E+00 0.  1.
         13   -1    0    0    0    0 -0.00000000000E+00 -0.00000000000E+00 -0.10000000000E+04  0.10000000000E+04  0.00000000000E+00 0.  1.
    9000005    2    1    2  501    0  0.92886452547E-01  0.51072961689E-01 -0.90969925066E+03  0.10902913541E+04  0.60098460789E+03 0.  0.
         13    1    3    3    0    0  0.99700035174E+02  0.10883780175E+03 -0.92978753129E+03  0.94143009165E+03  0.00000000000E+00 0.  1.
          1    1    3    3  501    0 -0.99607148722E+02 -0.10878672879E+03  0.20088280637E+02  0.14886126245E+03  0.00000000000E+00 0.  1.
         21    1    1    2  502  501 -0.92886452547E-01 -0.51072961689E-01  0.59328215437E+00  0.60267740557E+00  0.00000000000E+00 0. -1.
<mgrwt>
<rscale>  1 0.60098462E+03</rscale>
<asrwt>0</asrwt>
<pdfrwt beam="1">  1        1 0.33052445E+00 0.60098462E+03</pdfrwt>
<pdfrwt beam="2">0</pdfrwt>
<totfact> 0.27228841E+00</totfact>
</mgrwt>
</event>
<event>
 6    1  0.1213626E-003  0.5900261E+03  0.7818608E-02  0.9926318E-01
          1   -1    0    0  502    0  0.00000000000E+00  0.00000000000E+00  0.87059269832E+02  0.87059269832E+02  0.00000000000E+00 0.  1.
         13   -1    0    0    0    0 -0.00000000000E+00 -0.00000000000E+00 -0.10000000000E+04  0.10000000000E+04  0.00000000000E+00 0.  1.
    9000005    2    1    2  501    0 -0.83649172928E-01 -0.22781371594E-01 -0.91275646870E+03  0.10868556318E+04  0.59002608893E+03 0.  0.
         13    1    3    3    0    0  0.24857176234E+03  0.13166267922E+03 -0.29273709909E+03  0.40597782121E+03  0.00000000000E+00 0.  1.
          1    1    3    3  501    0 -0.24865541151E+03 -0.13168546059E+03 -0.62001936961E+03  0.68087781055E+03  0.00000000000E+00 0.  1.
         21    1    1    2  502  501  0.83649172928E-01  0.22781371594E-01 -0.18426146823E+00  0.20363807035E+00  0.00000000000E+00 0.  1.
<mgrwt>
<rscale>  1 0.59002610E+03</rscale>
<asrwt>0</asrwt>
<pdfrwt beam="1">  1        1 0.31657983E+00 0.59002610E+03</pdfrwt>
<pdfrwt beam="2">0</pdfrwt>
<totfact> 0.31347466E+00</totfact>
</mgrwt>
</event>
<event>
 6    1  0.1213626E-003  0.6439123E+03  0.7818608E-02  0.9818270E-01
          1   -1    0    0  502    0  0.00000000000E+00  0.00000000000E+00  0.10365860741E+03  0.10365860741E+03  0.00000000000E+00 0.  1.
         13   -1    0    0    0    0 -0.00000000000E+00 -0.00000000000E+00 -0.10000000000E+04  0.10000000000E+04  0.00000000000E+00 0.  1.
    9000005    2    1    2  501    0  0.28415691540E-02 -0.19627058381E-02 -0.89634302361E+03  0.11036547881E+04  0.64391231962E+03 0.  0.
         13    1    3    3    0    0 -0.10385765531E+02 -0.71835735055E+02  0.89449955607E+02  0.11519345257E+03  0.00000000000E+00 0.  1.
          1    1    3    3  501    0  0.10388607100E+02  0.71833772349E+02 -0.98579297922E+03  0.98846133555E+03  0.00000000000E+00 0.  1.
         21    1    1    2  502  501 -0.28415691540E-02  0.19627058381E-02  0.16310186738E-02  0.38192867630E-02  0.00000000000E+00 0.  1.
<mgrwt>
<rscale>  1 0.64391232E+03</rscale>
<asrwt>0</asrwt>
<pdfrwt beam="1">  1        1 0.37694119E+00 0.64391232E+03</pdfrwt>
<pdfrwt beam="2">0</pdfrwt>
<totfact> 0.16946234E+00</totfact>
</mgrwt>
</event>
<event>
 6    1  0.1213626E-003  0.6482595E+03  0.7818608E-02  0.9810051E-01
          1   -1    0    0  502    0  0.00000000000E+00  0.00000000000E+00  0.12029817249E+03  0.12029817249E+03  0.00000000000E+00 0.  1.
         13   -1    0    0    0    0 -0.00000000000E+00 -0.00000000000E+00 -0.10000000000E+04  0.10000000000E+04  0.00000000000E+00 0.  1.
    9000005    2    1    2  501    0  0.52166095965E+00  0.20957307351E+00 -0.89493416292E+03  0.11050554663E+04  0.64825929342E+03 0.  0.
         13    1    3    3    0    0  0.20580519785E+03  0.14495315407E+03 -0.79640381622E+03  0.83524022581E+03  0.00000000000E+00 0.  1.
          1    1    3    3  501    0 -0.20528353689E+03 -0.14474358099E+03 -0.98530346706E+02  0.26981524045E+03  0.00000000000E+00 0.  1.
         21    1    1    2  502  501 -0.52166095965E+00 -0.20957307351E+00  0.15232335409E+02  0.15242706224E+02  0.00000000000E+00 0. -1.
<mgrwt>
<rscale>  1 0.64825954E+03</rscale>
<asrwt>0</asrwt>
<pdfrwt beam="1">  1        1 0.43744882E+00 0.64825954E+03</pdfrwt>
<pdfrwt beam="2">0</pdfrwt>
<totfact> 0.90732971E-01</totfact>
</mgrwt>
</event>
<event>
 6    1  0.1213626E-003  0.6559714E+03  0.7818608E-02  0.9795638E-01
          1   -1    0    0  502    0  0.00000000000E+00  0.00000000000E+00  0.10760212731E+03  0.10760212731E+03  0.00000000000E+00 0.  1.
         13   -1    0    0    0    0 -0.00000000000E+00 -0.00000000000E+00 -0.10000000000E+04  0.10000000000E+04  0.00000000000E+00 0.  1.
    9000005    2    1    2  501    0 -0.33880479958E-03  0.20734558592E-03 -0.89242537177E+03  0.11075746254E+04  0.65597142207E+03 0.  0.
         13    1    3    3    0    0  0.27078674551E+03  0.14651762911E+03 -0.63710212251E+03  0.70759592402E+03  0.00000000000E+00 0.  1.
          3    1    3    3  501    0 -0.27078708432E+03 -0.14651742176E+03 -0.25532324926E+03  0.39997870134E+03  0.00000000000E+00 0.  1.
         21    1    1    2  502  501  0.33880479960E-03 -0.20734558592E-03  0.27499084346E-01  0.27501953036E-01  0.00000000000E+00 0. -1.
<mgrwt>
<rscale>  1 0.65597142E+03</rscale>
<asrwt>0</asrwt>
<pdfrwt beam="1">  1        1 0.39128129E+00 0.65597142E+03</pdfrwt>
<pdfrwt beam="2">0</pdfrwt>
<totfact> 0.14611783E+00</totfact>
</mgrwt>
</event>
<event>
 6    1  0.1213626E-003  0.6392047E+03  0.7818608E-02  0.9827249E-01
          1   -1    0    0  502    0  0.00000000000E+00  0.00000000000E+00  0.10220555273E+03  0.10220555273E+03  0.00000000000E+00 0.  1.
         13   -1    0    0    0    0 -0.00000000000E+00 -0.00000000000E+00 -0.10000000000E+04  0.10000000000E+04  0.00000000000E+00 0.  1.
    9000005    2    1    2  501    0  0.10648391187E-01 -0.40256435845E-02 -0.89785374741E+03  0.11021451698E+04  0.63920468038E+03 0.  0.
         13    1    3    3    0    0 -0.42984300223E+02 -0.57719649596E+02  0.87993018668E+02  0.11367488443E+03  0.00000000000E+00 0.  1.
          3    1    3    3  501    0  0.42994948615E+02  0.57715623953E+02 -0.98584676607E+03  0.98847028536E+03  0.00000000000E+00 0.  1.
         21    1    1    2  502  501 -0.10648391187E-01  0.40256435845E-02  0.59300138322E-01  0.60382948306E-01  0.00000000000E+00 0. -1.
<mgrwt>
<rscale>  1 0.63920468E+03</rscale>
<asrwt>0</asrwt>
<pdfrwt beam="1">  1        1 0.37165734E+00 0.63920468E+03</pdfrwt>
<pdfrwt beam="2">0</pdfrwt>
<totfact> 0.17893614E+00</totfact>
</mgrwt>
</event>
<event>
 6    1  0.1213626E-003  0.6599820E+03  0.7818608E-02  0.9788227E-01
          1   -1    0    0  502    0  0.00000000000E+00  0.00000000000E+00  0.11029659634E+03  0.11029659634E+03  0.00000000000E+00 0.  1.
         13   -1    0    0    0    0 -0.00000000000E+00 -0.00000000000E+00 -0.10000000000E+04  0.10000000000E+04  0.00000000000E+00 0.  1.
    9000005    2    1    2  501    0  0.14036805966E+01 -0.28009241985E+00 -0.89068876475E+03  0.11085588658E+04  0.65998048039E+03 0.  0.
         13    1    3    3    0    0  0.23823028843E+03  0.16557908228E+03 -0.18029122179E+03  0.34157726428E+03  0.00000000000E+00 0.  1.
          3    1    3    3  501    0 -0.23682660783E+03 -0.16585917470E+03 -0.71039754296E+03  0.76698160151E+03  0.00000000000E+00 0.  1.
         21    1    1    2  502  501 -0.14036805966E+01  0.28009241985E+00  0.98536109673E+00  0.17377305522E+01  0.00000000000E+00 0. -1.
<mgrwt>
<rscale>  1 0.65998203E+03</rscale>
<asrwt>0</asrwt>
<pdfrwt beam="1">  1        1 0.40107938E+00 0.65998203E+03</pdfrwt>
<pdfrwt beam="2">0</pdfrwt>
<totfact> 0.13206299E+00</totfact>
</mgrwt>
</event>
<event>
 6    1  0.1213626E-003  0.6400484E+03  0.7818608E-02  0.9825634E-01
          1   -1    0    0  502    0  0.00000000000E+00  0.00000000000E+00  0.10242035792E+03  0.10242035792E+03  0.00000000000E+00 0.  1.
         13   -1    0    0    0    0 -0.00000000000E+00 -0.00000000000E+00 -0.10000000000E+04  0.10000000000E+04  0.00000000000E+00 0.  1.
    9000005    2    1    2  501    0 -0.13151269714E-01  0.73667344179E-02 -0.89755511020E+03  0.11023915649E+04  0.64004842497E+03 0.  0.
         13    1    3    3    0    0 -0.11720196442E+03  0.13979391383E+03 -0.90166610835E+03  0.91993500300E+03  0.00000000000E+00 0.  1.
          3    1    3    3  501    0  0.11718881315E+03 -0.13978654710E+03  0.41109981454E+01  0.18245656191E+03  0.00000000000E+00 0.  1.
         21    1    1    2  502  501  0.13151269714E-01 -0.73667344179E-02 -0.24531875795E-01  0.28793013061E-01  0.00000000000E+00 0.  1.
<mgrwt>
<rscale>  1 0.64004843E+03</rscale>
<asrwt>0</asrwt>
<pdfrwt beam="1">  1        1 0.37243845E+00 0.64004843E+03</pdfrwt>
<pdfrwt beam="2">0</pdfrwt>
<totfact> 0.17749966E+00</totfact>
</mgrwt>
</event>
<event>
 6    1  0.1213626E-003  0.6544593E+03  0.7818608E-02  0.9798447E-01
          1   -1    0    0  502    0  0.00000000000E+00  0.00000000000E+00  0.10707998306E+03  0.10707998306E+03  0.00000000000E+00 0.  1.
         13   -1    0    0    0    0 -0.00000000000E+00 -0.00000000000E+00 -0.10000000000E+04  0.10000000000E+04  0.00000000000E+00 0.  1.
    9000005    2    1    2  501    0  0.21363118998E-03  0.10502949888E-03 -0.89292074553E+03  0.11070792166E+04  0.65445926835E+03 0.  0.
         13    1    3    3    0    0  0.29528062275E+03 -0.84059092863E+02 -0.63801217824E+03  0.70803680473E+03  0.00000000000E+00 0.  1.
          3    1    3    3  501    0 -0.29528040912E+03  0.84059197892E+02 -0.25490856729E+03  0.39904241183E+03  0.00000000000E+00 0.  1.
         21    1    1    2  502  501 -0.21363118999E-03 -0.10502949889E-03  0.72859047682E-03  0.76649433389E-03  0.00000000000E+00 0.  1.
<mgrwt>
<rscale>  1 0.65445927E+03</rscale>
<asrwt>0</asrwt>
<pdfrwt beam="1">  1        1 0.38938258E+00 0.65445927E+03</pdfrwt>
<pdfrwt beam="2">0</pdfrwt>
<totfact> 0.14902080E+00</totfact>
</mgrwt>
</event>
<event>
 6    1  0.1213626E-003  0.6476648E+03  0.7818608E-02  0.9811171E-01
          1   -1    0    0  502    0  0.00000000000E+00  0.00000000000E+00  0.10596948278E+03  0.10596948278E+03  0.00000000000E+00 0.  1.
         13   -1    0    0    0    0 -0.00000000000E+00 -0.00000000000E+00 -0.10000000000E+04  0.10000000000E+04  0.00000000000E+00 0.  1.
    9000005    2    1    2  501    0 -0.14758528943E-01  0.66392311505E-02 -0.89513249960E+03  0.11048673816E+04  0.64766483522E+03 0.  0.
         13    1    3    3    0    0 -0.13700713388E+03  0.26770169299E+03 -0.24260708686E+03  0.38638497610E+03  0.00000000000E+00 0.  1.
          3    1    3    3  501    0  0.13699237535E+03 -0.26769505376E+03 -0.65252541274E+03  0.71848240548E+03  0.00000000000E+00 0.  1.
         21    1    1    2  502  501  0.14758528943E-01 -0.66392311505E-02  0.11019823735E+01  0.11021011955E+01  0.00000000000E+00 0. -1.
<mgrwt>
<rscale>  1 0.64766484E+03</rscale>
<asrwt>0</asrwt>
<pdfrwt beam="1">  1        1 0.38534439E+00 0.64766484E+03</pdfrwt>
<pdfrwt beam="2">0</pdfrwt>
<totfact> 0.15548075E+00</totfact>
</mgrwt>
</event>
<event>
 6    1  0.1213626E-003  0.6469502E+03  0.7818608E-02  0.9812519E-01
          1   -1    0    0  502    0  0.00000000000E+00  0.00000000000E+00  0.10463641139E+03  0.10463641139E+03  0.00000000000E+00 0.  1.
         13   -1    0    0    0    0 -0.00000000000E+00 -0.00000000000E+00 -0.10000000000E+04  0.10000000000E+04  0.00000000000E+00 0.  1.
    9000005    2    1    2  501    0 -0.19998549305E-06  0.10508525068E-03 -0.89536385231E+03  0.11046361275E+04  0.64695018836E+03 0.  0.
         13    1    3    3    0    0  0.17980162572E+03 -0.26133945742E+02  0.92792309306E+01  0.18192776550E+03  0.00000000000E+00 0.  1.
          3    1    3    3  501    0 -0.17980162592E+03  0.26134050828E+02 -0.90464308324E+03  0.92270836202E+03  0.00000000000E+00 0.  1.
         21    1    1    2  502  501  0.19998547691E-06 -0.10508525069E-03  0.26369915030E-03  0.28386650344E-03  0.00000000000E+00 0. -1.
<mgrwt>
<rscale>  1 0.64695019E+03</rscale>
<asrwt>0</asrwt>
<pdfrwt beam="1">  1        1 0.38049684E+00 0.64695019E+03</pdfrwt>
<pdfrwt beam="2">0</pdfrwt>
<totfact> 0.16336245E+00</totfact>
</mgrwt>
</event>
<event>
 6    1  0.1213626E-003  0.6449699E+03  0.7818608E-02  0.9816264E-01
          1   -1    0    0  502    0  0.00000000000E+00  0.00000000000E+00  0.12052707145E+03  0.12052707145E+03  0.00000000000E+00 0.  1.
         13   -1    0    0    0    0 -0.00000000000E+00 -0.00000000000E+00 -0.10000000000E+04  0.10000000000E+04  0.00000000000E+00 0.  1.
    9000005    2    1    2  501    0 -0.24970414566E-01 -0.50001105076E+01 -0.89558500387E+03  0.11036569588E+04  0.64495052670E+03 0.  0.
         13    1    3    3    0    0 -0.31727360674E+03 -0.39497830713E+02 -0.52409863425E+03  0.61392344685E+03  0.00000000000E+00 0.  1.
          1    1    3    3  501    0  0.31724863632E+03  0.34497720206E+02 -0.37148636962E+03  0.48973351198E+03  0.00000000000E+00 0.  1.
         21    1    1    2  502  501  0.24970414566E-01  0.50001105076E+01  0.16112075323E+02  0.16870112621E+02  0.00000000000E+00 0.  1.
<mgrwt>
<rscale>  1 0.64496991E+03</rscale>
<asrwt>0</asrwt>
<pdfrwt beam="1">  1        1 0.43828118E+00 0.64496991E+03</pdfrwt>
<pdfrwt beam="2">0</pdfrwt>
<totfact> 0.90003539E-01</totfact>
</mgrwt>
</event>
<event>
 6    1  0.1213626E-003  0.6518762E+03  0.7818608E-02  0.9803265E-01
          1   -1    0    0  502    0  0.00000000000E+00  0.00000000000E+00  0.10624329656E+03  0.10624329656E+03  0.00000000000E+00 0.  1.
         13   -1    0    0    0    0 -0.00000000000E+00 -0.00000000000E+00 -0.10000000000E+04  0.10000000000E+04  0.00000000000E+00 0.  1.
    9000005    2    1    2  501    0 -0.34882316510E-03  0.13859427111E-01 -0.89375663398E+03  0.11062294326E+04  0.65187624325E+03 0.  0.
         13    1    3    3    0    0 -0.28625222859E+03 -0.15550714716E+03 -0.42901178109E+03  0.53867793672E+03  0.00000000000E+00 0.  1.
          1    1    3    3  501    0  0.28625187976E+03  0.15552100659E+03 -0.46474485289E+03  0.56755149585E+03  0.00000000000E+00 0.  1.
         21    1    1    2  502  501  0.34882316510E-03 -0.13859427111E-01 -0.69456721564E-04  0.13863990106E-01  0.00000000000E+00 0. -1.
<mgrwt>
<rscale>  1 0.65187624E+03</rscale>
<asrwt>0</asrwt>
<pdfrwt beam="1">  1        1 0.38634007E+00 0.65187624E+03</pdfrwt>
<pdfrwt beam="2">0</pdfrwt>
<totfact> 0.15379146E+00</totfact>
</mgrwt>
</event>
<event>
 6    1  0.1213626E-003  0.5412468E+03  0.7818608E-02  0.1003540E+00
          1   -1    0    0  502    0  0.00000000000E+00  0.00000000000E+00  0.83303271162E+02  0.83303271162E+02  0.00000000000E+00 0.  1.
         13   -1    0    0    0    0 -0.00000000000E+00 -0.00000000000E+00 -0.10000000000E+04  0.10000000000E+04  0.00000000000E+00 0.  1.
    9000005    2    1    2  501    0 -0.12503140612E+01  0.13092342456E+01 -0.92667556317E+03  0.10731615497E+04  0.54124378519E+03 0.  0.
         13    1    3    3    0    0 -0.14481198041E+03 -0.22749514373E+03 -0.42360139713E+03  0.50215803661E+03  0.00000000000E+00 0.  1.
          3    1    3    3  501    0  0.14356166634E+03  0.22880437797E+03 -0.50307416604E+03  0.57100351309E+03  0.00000000000E+00 0.  1.
         21    1    1    2  502  501  0.12503140612E+01 -0.13092342456E+01  0.99788343298E+01  0.10141721459E+02  0.00000000000E+00 0.  1.
<mgrwt>
<rscale>  1 0.54124681E+03</rscale>
<asrwt>0</asrwt>
<pdfrwt beam="1">  1        1 0.30292162E+00 0.54124681E+03</pdfrwt>
<pdfrwt beam="2">0</pdfrwt>
<totfact> 0.36223991E+00</totfact>
</mgrwt>
</event>
<event>
 6    1  0.1213626E-003  0.6402691E+03  0.7818608E-02  0.9825212E-01
          1   -1    0    0  502    0  0.00000000000E+00  0.00000000000E+00  0.12578655444E+03  0.12578655444E+03  0.00000000000E+00 0.  1.
         13   -1    0    0    0    0 -0.00000000000E+00 -0.00000000000E+00 -0.10000000000E+04  0.10000000000E+04  0.00000000000E+00 0.  1.
    9000005    2    1    2  501    0  0.30618770007E+01  0.71191050122E+01 -0.89680137458E+03  0.11019062009E+04  0.64022223753E+03 0.  0.
         13    1    3    3    0    0 -0.69983471660E+02 -0.30545034611E+03 -0.36840941189E+03  0.48365596762E+03  0.00000000000E+00 0.  1.
          1    1    3    3  501    0  0.73045348661E+02  0.31256945113E+03 -0.52839196269E+03  0.61825023330E+03  0.00000000000E+00 0.  1.
         21    1    1    2  502  501 -0.30618770007E+01 -0.71191050122E+01  0.22587929016E+02  0.23880353519E+02  0.00000000000E+00 0.  1.
<mgrwt>
<rscale>  1 0.64026914E+03</rscale>
<asrwt>0</asrwt>
<pdfrwt beam="1">  1        1 0.45740662E+00 0.64026914E+03</pdfrwt>
<pdfrwt beam="2">0</pdfrwt>
<totfact> 0.73582782E-01</totfact>
</mgrwt>
</event>
<event>
 6    1  0.1213626E-003  0.6540235E+03  0.7818608E-02  0.9799259E-01
          1   -1    0    0  502    0  0.00000000000E+00  0.00000000000E+00  0.10693832656E+03  0.10693832656E+03  0.00000000000E+00 0.  1.
         13   -1    0    0    0    0 -0.00000000000E+00 -0.00000000000E+00 -0.10000000000E+04  0.10000000000E+04  0.00000000000E+00 0.  1.
    9000005    2    1    2  501    0 -0.40059201262E-03  0.24601311125E-04 -0.89306328601E+03  0.11069366648E+04  0.65402350650E+03 0.  0.
         13    1    3    3    0    0 -0.29745450921E+03  0.10383013064E+03 -0.59482574412E+03  0.67311035273E+03  0.00000000000E+00 0.  1.
          3    1    3    3  501    0  0.29745410862E+03 -0.10383010604E+03 -0.29823754189E+03  0.43382631207E+03  0.00000000000E+00 0.  1.
         21    1    1    2  502  501  0.40059201262E-03 -0.24601311116E-04  0.16125655999E-02  0.16617602111E-02  0.00000000000E+00 0.  1.
<mgrwt>
<rscale>  1 0.65402351E+03</rscale>
<asrwt>0</asrwt>
<pdfrwt beam="1">  1        1 0.38886746E+00 0.65402351E+03</pdfrwt>
<pdfrwt beam="2">0</pdfrwt>
<totfact> 0.14981846E+00</totfact>
</mgrwt>
</event>
<event>
 6    1  0.1213626E-003  0.6570024E+03  0.7818608E-02  0.9793728E-01
          1   -1    0    0  502    0  0.00000000000E+00  0.00000000000E+00  0.10795499242E+03  0.10795499242E+03  0.00000000000E+00 0.  1.
         13   -1    0    0    0    0 -0.00000000000E+00 -0.00000000000E+00 -0.10000000000E+04  0.10000000000E+04  0.00000000000E+00 0.  1.
    9000005    2    1    2  501    0 -0.14562465529E-02 -0.13837339862E-02 -0.89208692121E+03  0.11079130307E+04  0.65700244183E+03 0.  0.
         13    1    3    3    0    0 -0.27014234709E+02 -0.44740749003E+02  0.10085727809E+03  0.11359442786E+03  0.00000000000E+00 0.  1.
          3    1    3    3  501    0  0.27012778462E+02  0.44739365269E+02 -0.99294419929E+03  0.99431860282E+03  0.00000000000E+00 0.  1.
         21    1    1    2  502  501  0.14562465529E-02  0.13837339862E-02  0.41913622889E-01  0.41961734443E-01  0.00000000000E+00 0.  1.
<mgrwt>
<rscale>  1 0.65700244E+03</rscale>
<asrwt>0</asrwt>
<pdfrwt beam="1">  1        1 0.39256444E+00 0.65700244E+03</pdfrwt>
<pdfrwt beam="2">0</pdfrwt>
<totfact> 0.14418620E+00</totfact>
</mgrwt>
</event>
<event>
 6    1  0.1213626E-003  0.6506327E+03  0.7818608E-02  0.9805593E-01
          1   -1    0    0  502    0  0.00000000000E+00  0.00000000000E+00  0.10646491132E+03  0.10646491132E+03  0.00000000000E+00 0.  1.
         13   -1    0    0    0    0 -0.00000000000E+00 -0.00000000000E+00 -0.10000000000E+04  0.10000000000E+04  0.00000000000E+00 0.  1.
    9000005    2    1    2  501    0  0.11793181200E-01  0.17709992045E-01 -0.89416908776E+03  0.11058305553E+04  0.65063266062E+03 0.  0.
         13    1    3    3    0    0  0.28303292355E+03  0.14123640096E+03 -0.31786739206E+03  0.44843621141E+03  0.00000000000E+00 0.  1.
          1    1    3    3  501    0 -0.28302113036E+03 -0.14121869097E+03 -0.57630169570E+03  0.65739434389E+03  0.00000000000E+00 0.  1.
         21    1    1    2  502  501 -0.11793181200E-01 -0.17709992045E-01  0.63399908074E+00  0.63435601780E+00  0.00000000000E+00 0. -1.
<mgrwt>
<rscale>  1 0.65063266E+03</rscale>
<asrwt>0</asrwt>
<pdfrwt beam="1">  1        1 0.38714595E+00 0.65063266E+03</pdfrwt>
<pdfrwt beam="2">0</pdfrwt>
<totfact> 0.15256837E+00</totfact>
</mgrwt>
</event>
<event>
 6    1  0.1213626E-003  0.6549116E+03  0.7818608E-02  0.9797606E-01
          1   -1    0    0  502    0  0.00000000000E+00  0.00000000000E+00  0.10731342288E+03  0.10731342288E+03  0.00000000000E+00 0.  1.
         13   -1    0    0    0    0 -0.00000000000E+00 -0.00000000000E+00 -0.10000000000E+04  0.10000000000E+04  0.00000000000E+00 0.  1.
    9000005    2    1    2  501    0 -0.75806870222E-02 -0.29898230057E-01 -0.89276963069E+03  0.11072248268E+04  0.65491159909E+03 0.  0.
         13    1    3    3    0    0  0.18069700547E+03  0.13760160249E+03 -0.47594755196E+02  0.23205790122E+03  0.00000000000E+00 0.  1.
          3    1    3    3  501    0 -0.18070458616E+03 -0.13763150072E+03 -0.84517487550E+03  0.87516692558E+03  0.00000000000E+00 0.  1.
         21    1    1    2  502  501  0.75806870222E-02  0.29898230057E-01  0.83053573948E-01  0.88596089766E-01  0.00000000000E+00 0. -1.
<mgrwt>
<rscale>  1 0.65491160E+03</rscale>
<asrwt>0</asrwt>
<pdfrwt beam="1">  1        1 0.39023145E+00 0.65491160E+03</pdfrwt>
<pdfrwt beam="2">0</pdfrwt>
<totfact> 0.14772238E+00</totfact>
</mgrwt>
</event>
<event>
 6    1  0.1213626E-003  0.6488609E+03  0.7818608E-02  0.9808919E-01
          1   -1    0    0  502    0  0.00000000000E+00  0.00000000000E+00  0.10525691638E+03  0.10525691638E+03  0.00000000000E+00 0.  1.
         13   -1    0    0    0    0 -0.00000000000E+00 -0.00000000000E+00 -0.10000000000E+04  0.10000000000E+04  0.00000000000E+00 0.  1.
    9000005    2    1    2  501    0  0.11095069662E-03 -0.38865850286E-04 -0.89474487131E+03  0.11052551248E+04  0.64886092979E+03 0.  0.
         13    1    3    3    0    0 -0.81343257443E+02  0.26879926798E+03 -0.17068318659E+03  0.32863737186E+03  0.00000000000E+00 0.  1.
          3    1    3    3  501    0  0.81343368393E+02 -0.26879930684E+03 -0.72406168472E+03  0.77661775297E+03  0.00000000000E+00 0.  1.
         21    1    1    2  502  501 -0.11095069663E-03  0.38865850312E-04  0.17876897329E-02  0.17915510578E-02  0.00000000000E+00 0. -1.
<mgrwt>
<rscale>  1 0.64886093E+03</rscale>
<asrwt>0</asrwt>
<pdfrwt beam="1">  1        1 0.38275323E+00 0.64886093E+03</pdfrwt>
<pdfrwt beam="2">0</pdfrwt>
<totfact> 0.15960107E+00</totfact>
</mgrwt>
</event>
<event>
 6    1  0.1213626E-003  0.6274404E+03  0.7818608E-02  0.9850056E-01
          1   -1    0    0  502    0  0.00000000000E+00  0.00000000000E+00  0.98497705258E+02  0.98497705258E+02  0.00000000000E+00 0.  1.
         13   -1    0    0    0    0 -0.00000000000E+00 -0.00000000000E+00 -0.10000000000E+04  0.10000000000E+04  0.00000000000E+00 0.  1.
    9000005    2    1    2  501    0  0.56084786257E-02 -0.69296632305E-02 -0.90157934876E+03  0.10984201372E+04  0.62744041605E+03 0.  0.
         13    1    3    3    0    0 -0.20666581219E+03 -0.85747059977E+02 -0.83575526402E+03  0.86518794349E+03  0.00000000000E+00 0.  1.
          3    1    3    3  501    0  0.20667142067E+03  0.85740130314E+02 -0.65824084748E+02  0.23323219375E+03  0.00000000000E+00 0.  1.
         21    1    1    2  502  501 -0.56084786257E-02  0.69296632305E-02  0.77054022716E-01  0.77568019709E-01  0.00000000000E+00 0.  1.
<mgrwt>
<rscale>  1 0.62744042E+03</rscale>
<asrwt>0</asrwt>
<pdfrwt beam="1">  1        1 0.35817423E+00 0.62744042E+03</pdfrwt>
<pdfrwt beam="2">0</pdfrwt>
<totfact> 0.20545287E+00</totfact>
</mgrwt>
</event>
<event>
 6    1  0.1213626E-003  0.6617338E+03  0.7818608E-02  0.9785007E-01
          1   -1    0    0  502    0  0.00000000000E+00  0.00000000000E+00  0.11719831978E+03  0.11719831978E+03  0.00000000000E+00 0.  1.
         13   -1    0    0    0    0 -0.00000000000E+00 -0.00000000000E+00 -0.10000000000E+04  0.10000000000E+04  0.00000000000E+00 0.  1.
    9000005    2    1    2  501    0  0.74759643152E+01  0.21417644562E+01 -0.88829139072E+03  0.11076791749E+04  0.66168805530E+03 0.  0.
         13    1    3    3    0    0 -0.27469155725E+03 -0.12570536216E+03 -0.65027897508E+03  0.71702164203E+03  0.00000000000E+00 0.  1.
          3    1    3    3  501    0  0.28216752156E+03  0.12784712662E+03 -0.23801241564E+03  0.39065753290E+03  0.00000000000E+00 0.  1.
         21    1    1    2  502  501 -0.74759643152E+01 -0.21417644562E+01  0.54897105075E+01  0.95191448609E+01  0.00000000000E+00 0. -1.
<mgrwt>
<rscale>  1 0.66173375E+03</rscale>
<asrwt>0</asrwt>
<pdfrwt beam="1">  1        1 0.42617661E+00 0.66173375E+03</pdfrwt>
<pdfrwt beam="2">0</pdfrwt>
<totfact> 0.10182022E+00</totfact>
</mgrwt>
</event>
<event>
 6    1  0.1213626E-003  0.5598486E+03  0.7818608E-02  0.9992397E-01
          1   -1    0    0  502    0  0.00000000000E+00  0.00000000000E+00  0.78357729449E+02  0.78357729449E+02  0.00000000000E+00 0.  1.
         13   -1    0    0    0    0 -0.00000000000E+00 -0.00000000000E+00 -0.10000000000E+04  0.10000000000E+04  0.00000000000E+00 0.  1.
    9000005    2    1    2  501    0 -0.20491056461E-04  0.24366079600E-04 -0.92164237443E+03  0.10783576208E+04  0.55984863310E+03 0.  0.
         13    1    3    3    0    0 -0.14501558653E+03 -0.19343209682E+03 -0.73262214620E+03  0.77147955612E+03  0.00000000000E+00 0.  1.
          3    1    3    3  501    0  0.14501556604E+03  0.19343212118E+03 -0.18902022824E+03  0.30687806468E+03  0.00000000000E+00 0.  1.
         21    1    1    2  502  501  0.20491056464E-04 -0.24366079609E-04  0.10388124720E-03  0.10865036931E-03  0.00000000000E+00 0. -1.
<mgrwt>
<rscale>  1 0.55984863E+03</rscale>
<asrwt>0</asrwt>
<pdfrwt beam="1">  1        1 0.28493780E+00 0.55984863E+03</pdfrwt>
<pdfrwt beam="2">0</pdfrwt>
<totfact> 0.43157297E+00</totfact>
</mgrwt>
</event>
<event>
 6    1  0.1213626E-003  0.6439063E+03  0.7818608E-02  0.9818281E-01
          1   -1    0    0  502    0  0.00000000000E+00  0.00000000000E+00  0.10419994401E+03  0.10419994401E+03  0.00000000000E+00 0.  1.
         13   -1    0    0    0    0 -0.00000000000E+00 -0.00000000000E+00 -0.10000000000E+04  0.10000000000E+04  0.00000000000E+00 0.  1.
    9000005    2    1    2  501    0  0.82747309550E-01 -0.16303564869E-01 -0.89634257657E+03  0.11036509071E+04  0.64390628442E+03 0.  0.
         13    1    3    3    0    0  0.41094926460E+02 -0.16928609841E+03 -0.91227305142E+03  0.92875653238E+03  0.00000000000E+00 0.  1.
          1    1    3    3  501    0 -0.41012179150E+02  0.16926979485E+03  0.15930474854E+02  0.17489437474E+03  0.00000000000E+00 0.  1.
         21    1    1    2  502  501 -0.82747309550E-01  0.16303564869E-01  0.54252058198E+00  0.54903688887E+00  0.00000000000E+00 0.  1.
<mgrwt>
<rscale>  1 0.64390629E+03</rscale>
<asrwt>0</asrwt>
<pdfrwt beam="1">  1        1 0.37890969E+00 0.64390629E+03</pdfrwt>
<pdfrwt beam="2">0</pdfrwt>
<totfact> 0.16611050E+00</totfact>
</mgrwt>
</event>
<event>
 6    1  0.1213626E-003  0.6502335E+03  0.7818608E-02  0.9806341E-01
          1   -1    0    0  502    0  0.00000000000E+00  0.00000000000E+00  0.10613549565E+03  0.10613549565E+03  0.00000000000E+00 0.  1.
         13   -1    0    0    0    0 -0.00000000000E+00 -0.00000000000E+00 -0.10000000000E+04  0.10000000000E+04  0.00000000000E+00 0.  1.
    9000005    2    1    2  501    0  0.63310340174E+00 -0.46205223311E+00 -0.89386734922E+03  0.11053517098E+04  0.65023299671E+03 0.  0.
         13    1    3    3    0    0 -0.28414083802E+01 -0.24259199371E+03 -0.81551393425E+03  0.85083601591E+03  0.00000000000E+00 0.  1.
          3    1    3    3  501    0  0.34745117819E+01  0.24212994148E+03 -0.78353414973E+02  0.25451569388E+03  0.00000000000E+00 0.  1.
         21    1    1    2  502  501 -0.63310340174E+00  0.46205223311E+00  0.28448663687E-02  0.78378586150E+00  0.00000000000E+00 0.  1.
<mgrwt>
<rscale>  1 0.65023347E+03</rscale>
<asrwt>0</asrwt>
<pdfrwt beam="1">  1        1 0.38594807E+00 0.65023347E+03</pdfrwt>
<pdfrwt beam="2">0</pdfrwt>
<totfact> 0.15445396E+00</totfact>
</mgrwt>
</event>
<event>
 6    1  0.1213626E-003  0.6716341E+03  0.7818608E-02  0.9767010E-01
          1   -1    0    0  502    0  0.00000000000E+00  0.00000000000E+00  0.11278137612E+03  0.11278137612E+03  0.00000000000E+00 0.  1.
         13   -1    0    0    0    0 -0.00000000000E+00 -0.00000000000E+00 -0.10000000000E+04  0.10000000000E+04  0.00000000000E+00 0.  1.
    9000005    2    1    2  501    0 -0.45529987781E-03 -0.14385537520E-03 -0.88722689809E+03  0.11127730881E+04  0.67163410948E+03 0.  0.
         13    1    3    3    0    0 -0.21309491625E+03 -0.84586902467E+02 -0.37073073423E+02  0.23224728238E+03  0.00000000000E+00 0.  1.
          1    1    3    3  501    0  0.21309446095E+03  0.84586758611E+02 -0.85015382466E+03  0.88052580576E+03  0.00000000000E+00 0.  1.
         21    1    1    2  502  501  0.45529987780E-03  0.14385537520E-03  0.82742090145E-02  0.82879748529E-02  0.00000000000E+00 0. -1.
<mgrwt>
<rscale>  1 0.67163411E+03</rscale>
<asrwt>0</asrwt>
<pdfrwt beam="1">  1        1 0.41011496E+00 0.67163411E+03</pdfrwt>
<pdfrwt beam="2">0</pdfrwt>
<totfact> 0.12006185E+00</totfact>
</mgrwt>
</event>
<event>
 6    1  0.1213626E-003  0.6480567E+03  0.7818608E-02  0.9810432E-01
          1   -1    0    0  502    0  0.00000000000E+00  0.00000000000E+00  0.10499587916E+03  0.10499587916E+03  0.00000000000E+00 0.  1.
         13   -1    0    0    0    0 -0.00000000000E+00 -0.00000000000E+00 -0.10000000000E+04  0.10000000000E+04  0.00000000000E+00 0.  1.
    9000005    2    1    2  501    0  0.15056130408E-03  0.32301393250E-03 -0.89500559624E+03  0.11049943613E+04  0.64805672688E+03 0.  0.
         13    1    3    3    0    0  0.14348137077E+03  0.63243921344E+02  0.35996497535E+02  0.16088021998E+03  0.00000000000E+00 0.  1.
          1    1    3    3  501    0 -0.14348122021E+03 -0.63243598330E+02 -0.93100209378E+03  0.94411414135E+03  0.00000000000E+00 0.  1.
         21    1    1    2  502  501 -0.15056130409E-03 -0.32301393250E-03  0.14754058465E-02  0.15178369869E-02  0.00000000000E+00 0.  1.
<mgrwt>
<rscale>  1 0.64805673E+03</rscale>
<asrwt>0</asrwt>
<pdfrwt beam="1">  1        1 0.38180400E+00 0.64805673E+03</pdfrwt>
<pdfrwt beam="2">0</pdfrwt>
<totfact> 0.16117329E+00</totfact>
</mgrwt>
</event>
