<event>
 6    1  0.3653484E-003  0.6541959E+03  0.7818608E-02  0.9798938E-01
          1   -1    0    0  502    0  0.00000000000E+00  0.00000000000E+00  0.10699633873E+03  0.10699633873E+03  0.00000000000E+00 0.  1.
         13   -1    0    0    0    0 -0.00000000000E+00 -0.00000000000E+00 -0.10000000000E+04  0.10000000000E+04  0.00000000000E+00 0.  1.
    9000005    2    1    2  501    0  0.95693984835E-03 -0.42175361705E-03 -0.89300685466E+03  0.11069929785E+04  0.65419585135E+03 0.  0.
         13    1    3    3    0    0 -0.23895953818E+03  0.16018463031E+03 -0.18309324966E+03  0.34100427380E+03  0.00000000000E+00 0.  1.
          3    1    3    3  501    0  0.23896049512E+03 -0.16018505206E+03 -0.70991360499E+03  0.76598870467E+03  0.00000000000E+00 0.  1.
         21    1    1    2  502  501 -0.95693984836E-03  0.42175361706E-03  0.31933820254E-02  0.33602527803E-02  0.00000000000E+00 0.  1.
<mgrwt>
<rscale>  1 0.65419585E+03</rscale>
<asrwt>0</asrwt>
<pdfrwt beam="1">  1        1 0.38907842E+00 0.65419585E+03</pdfrwt>
<pdfrwt beam="2">0</pdfrwt>
<totfact> 0.14949148E+00</totfact>
</mgrwt>
</event>
<event>
 6    1  0.3653484E-003  0.6628531E+03  0.7818608E-02  0.9782956E-01
          1   -1    0    0  502    0  0.00000000000E+00  0.00000000000E+00  0.11414402210E+03  0.11414402210E+03  0.00000000000E+00 0.  1.
         13   -1    0    0    0    0 -0.00000000000E+00 -0.00000000000E+00 -0.10000000000E+04  0.10000000000E+04  0.00000000000E+00 0.  1.
    9000005    2    1    2  501    0  0.67820650824E+01  0.69742078273E+01 -0.88279040474E+03  0.11039443299E+04  0.66278167514E+03 0.  0.
         13    1    3    3    0    0  0.14298405891E+03 -0.27211220174E+03 -0.23971514200E+03  0.38981128863E+03  0.00000000000E+00 0.  1.
          1    1    3    3  501    0 -0.13620199383E+03  0.27908640957E+03 -0.64307526275E+03  0.71413304131E+03  0.00000000000E+00 0.  1.
         21    1    1    2  502  501 -0.67820650824E+01 -0.69742078273E+01 -0.30655731528E+01  0.10199692170E+02  0.00000000000E+00 0. -1.
<mgrwt>
<rscale>  1 0.66285306E+03</rscale>
<asrwt>0</asrwt>
<pdfrwt beam="1">  1        1 0.41507005E+00 0.66285306E+03</pdfrwt>
<pdfrwt beam="2">0</pdfrwt>
<totfact> 0.11425422E+00</totfact>
</mgrwt>
</event>
<event>
 6    1  0.3653484E-003  0.6379297E+03  0.7818608E-02  0.9829696E-01
          1   -1    0    0  502    0  0.00000000000E+00  0.00000000000E+00  0.10173963757E+03  0.10173963757E+03  0.00000000000E+00 0.  1.
         13   -1    0    0    0    0 -0.00000000000E+00 -0.00000000000E+00 -0.10000000000E+04  0.10000000000E+04  0.00000000000E+00 0.  1.
    9000005    2    1    2  501    0 -0.23413910469E-04  0.10532376702E-03 -0.89826141166E+03  0.11017385828E+04  0.63792973060E+03 0.  0.
         13    1    3    3    0    0  0.30267620603E+03  0.48992083669E+02 -0.60092947660E+03  0.67463274884E+03  0.00000000000E+00 0.  1.
          1    1    3    3  501    0 -0.30267622944E+03 -0.48991978345E+02 -0.29733193505E+03  0.42710583397E+03  0.00000000000E+00 0.  1.
         21    1    1    2  502  501  0.23413910469E-04 -0.10532376702E-03  0.10492247328E-02  0.10547577196E-02  0.00000000000E+00 0. -1.
<mgrwt>
<rscale>  1 0.63792973E+03</rscale>
<asrwt>0</asrwt>
<pdfrwt beam="1">  1        1 0.36996310E+00 0.63792973E+03</pdfrwt>
<pdfrwt beam="2">0</pdfrwt>
<totfact> 0.18207172E+00</totfact>
</mgrwt>
</event>
<event>
 6    1  0.3653484E-003  0.6816059E+03  0.7818608E-02  0.9749216E-01
          1   -1    0    0  502    0  0.00000000000E+00  0.00000000000E+00  0.11614869101E+03  0.11614869101E+03  0.00000000000E+00 0.  1.
         13   -1    0    0    0    0 -0.00000000000E+00 -0.00000000000E+00 -0.10000000000E+04  0.10000000000E+04  0.00000000000E+00 0.  1.
    9000005    2    1    2  501    0 -0.39092139232E-04  0.56191437864E-04 -0.88385334609E+03  0.11161466528E+04  0.68160590744E+03 0.  0.
         13    1    3    3    0    0 -0.10055839922E+03  0.25395924624E+03 -0.10817928083E+03  0.29378571648E+03  0.00000000000E+00 0.  1.
          1    1    3    3  501    0  0.10055836013E+03 -0.25395919005E+03 -0.77567406526E+03  0.82236093628E+03  0.00000000000E+00 0.  1.
         21    1    1    2  502  501  0.39092139227E-04 -0.56191437884E-04  0.20371030207E-02  0.20382527787E-02  0.00000000000E+00 0.  1.
<mgrwt>
<rscale>  1 0.68160591E+03</rscale>
<asrwt>0</asrwt>
<pdfrwt beam="1">  1        1 0.42235977E+00 0.68160591E+03</pdfrwt>
<pdfrwt beam="2">0</pdfrwt>
<totfact> 0.10554475E+00</totfact>
</mgrwt>
</event>
<event>
 6    1  0.3653484E-003  0.6235508E+03  0.7818608E-02  0.9857715E-01
          1   -1    0    0  502    0  0.00000000000E+00  0.00000000000E+00  0.98173576462E+02  0.98173576462E+02  0.00000000000E+00 0.  1.
         13   -1    0    0    0    0 -0.00000000000E+00 -0.00000000000E+00 -0.10000000000E+04  0.10000000000E+04  0.00000000000E+00 0.  1.
    9000005    2    1    2  501    0  0.14048713654E+00  0.72601433497E+00 -0.90263916387E+03  0.10970747679E+04  0.62355035029E+03 0.  0.
         13    1    3    3    0    0  0.16906764333E+03  0.26235757030E+03 -0.44897642536E+03  0.54680452929E+03  0.00000000000E+00 0.  1.
          1    1    3    3  501    0 -0.16892715620E+03 -0.26163155596E+03 -0.45366273850E+03  0.55027023860E+03  0.00000000000E+00 0.  1.
         21    1    1    2  502  501 -0.14048713654E+00 -0.72601433497E+00  0.81274033045E+00  0.10988085797E+01  0.00000000000E+00 0.  1.
<mgrwt>
<rscale>  1 0.62355079E+03</rscale>
<asrwt>0</asrwt>
<pdfrwt beam="1">  1        1 0.35699558E+00 0.62355079E+03</pdfrwt>
<pdfrwt beam="2">0</pdfrwt>
<totfact> 0.20804952E+00</totfact>
</mgrwt>
</event>
<event>
 6    1  0.3653484E-003  0.6513206E+03  0.7818608E-02  0.9804304E-01
          1   -1    0    0  502    0  0.00000000000E+00  0.00000000000E+00  0.10610384884E+03  0.10610384884E+03  0.00000000000E+00 0.  1.
         13   -1    0    0    0    0 -0.00000000000E+00 -0.00000000000E+00 -0.10000000000E+04  0.10000000000E+04  0.00000000000E+00 0.  1.
    9000005    2    1    2  501    0 -0.29810482821E-02  0.16654701257E-02 -0.89394531687E+03  0.11060545647E+04  0.65132055896E+03 0.  0.
         13    1    3    3    0    0 -0.27636050482E+03  0.64839295013E+02 -0.71802488253E+03  0.77210037866E+03  0.00000000000E+00 0.  1.
          3    1    3    3  501    0  0.27635752377E+03 -0.64837629542E+02 -0.17592043434E+03  0.33395418603E+03  0.00000000000E+00 0.  1.
         21    1    1    2  502  501  0.29810482821E-02 -0.16654701257E-02  0.49165709713E-01  0.49284150101E-01  0.00000000000E+00 0.  1.
<mgrwt>
<rscale>  1 0.65132056E+03</rscale>
<asrwt>0</asrwt>
<pdfrwt beam="1">  1        1 0.38583299E+00 0.65132056E+03</pdfrwt>
<pdfrwt beam="2">0</pdfrwt>
<totfact> 0.15460410E+00</totfact>
</mgrwt>
</event>
<event>
 6    1  0.3653484E-003  0.6194049E+03  0.7818608E-02  0.9865945E-01
          1   -1    0    0  502    0  0.00000000000E+00  0.00000000000E+00  0.95916539001E+02  0.95916539001E+02  0.00000000000E+00 0.  1.
         13   -1    0    0    0    0 -0.00000000000E+00 -0.00000000000E+00 -0.10000000000E+04  0.10000000000E+04  0.00000000000E+00 0.  1.
    9000005    2    1    2  501    0  0.35501655461E-04  0.26269989021E-04 -0.90408438058E+03  0.10959156184E+04  0.61940493650E+03 0.  0.
         13    1    3    3    0    0  0.11839631195E+03  0.10107563269E+03  0.21661155992E+02  0.15717243997E+03  0.00000000000E+00 0.  1.
          1    1    3    3  501    0 -0.11839627645E+03 -0.10107560642E+03 -0.92574553657E+03  0.93874317839E+03  0.00000000000E+00 0.  1.
         21    1    1    2  502  501 -0.35501655462E-04 -0.26269989026E-04  0.91958012212E-03  0.92064003871E-03  0.00000000000E+00 0. -1.
<mgrwt>
<rscale>  1 0.61940494E+03</rscale>
<asrwt>0</asrwt>
<pdfrwt beam="1">  1        1 0.34878815E+00 0.61940494E+03</pdfrwt>
<pdfrwt beam="2">0</pdfrwt>
<totfact> 0.22609344E+00</totfact>
</mgrwt>
</event>
<event>
 6    1  0.3653484E-003  0.6482963E+03  0.7818608E-02  0.9809981E-01
          1   -1    0    0  502    0  0.00000000000E+00  0.00000000000E+00  0.10516570347E+03  0.10516570347E+03  0.00000000000E+00 0.  1.
         13   -1    0    0    0    0 -0.00000000000E+00 -0.00000000000E+00 -0.10000000000E+04  0.10000000000E+04  0.00000000000E+00 0.  1.
    9000005    2    1    2  501    0 -0.88847512413E-02  0.12964168457E+00 -0.89487535471E+03  0.11050294255E+04  0.64829631645E+03 0.  0.
         13    1    3    3    0    0  0.16200960026E+02 -0.30228337862E+03 -0.25007922284E+03  0.39265421147E+03  0.00000000000E+00 0.  1.
          1    1    3    3  501    0 -0.16209844777E+02  0.30241302030E+03 -0.64479613187E+03  0.71237521405E+03  0.00000000000E+00 0.  1.
         21    1    1    2  502  501  0.88847512413E-02 -0.12964168457E+00  0.41058176323E-01  0.13627794769E+00  0.00000000000E+00 0.  1.
<mgrwt>
<rscale>  1 0.64829633E+03</rscale>
<asrwt>0</asrwt>
<pdfrwt beam="1">  1        1 0.38242155E+00 0.64829633E+03</pdfrwt>
<pdfrwt beam="2">0</pdfrwt>
<totfact> 0.16015714E+00</totfact>
</mgrwt>
</event>
<event>
 6    1  0.3653484E-003  0.6424019E+03  0.7818608E-02  0.9821142E-01
          1   -1    0    0  502    0  0.00000000000E+00  0.00000000000E+00  0.10327886371E+03  0.10327886371E+03  0.00000000000E+00 0.  1.
         13   -1    0    0    0    0 -0.00000000000E+00 -0.00000000000E+00 -0.10000000000E+04  0.10000000000E+04  0.00000000000E+00 0.  1.
    9000005    2    1    2  501    0  0.31605264135E-01 -0.69169600430E-01 -0.89681509686E+03  0.11031579840E+04  0.64240190990E+03 0.  0.
         13    1    3    3    0    0  0.31270528878E+03 -0.31822739088E+02 -0.56214634595E+03  0.64405418920E+03  0.00000000000E+00 0.  1.
          1    1    3    3  501    0 -0.31267368351E+03  0.31753569487E+02 -0.33466875090E+03  0.45910379476E+03  0.00000000000E+00 0.  1.
         21    1    1    2  502  501 -0.31605264135E-01  0.69169600430E-01  0.93960568228E-01  0.12087975317E+00  0.00000000000E+00 0. -1.
<mgrwt>
<rscale>  1 0.64240191E+03</rscale>
<asrwt>0</asrwt>
<pdfrwt beam="1">  1        1 0.37556030E+00 0.64240191E+03</pdfrwt>
<pdfrwt beam="2">0</pdfrwt>
<totfact> 0.17189974E+00</totfact>
</mgrwt>
</event>
<event>
 6    1  0.3653484E-003  0.6708114E+03  0.7818608E-02  0.9768493E-01
          1   -1    0    0  502    0  0.00000000000E+00  0.00000000000E+00  0.11255716109E+03  0.11255716109E+03  0.00000000000E+00 0.  1.
         13   -1    0    0    0    0 -0.00000000000E+00 -0.00000000000E+00 -0.10000000000E+04  0.10000000000E+04  0.00000000000E+00 0.  1.
    9000005    2    1    2  501    0  0.11120747638E-01 -0.10268789279E-01 -0.88750196440E+03  0.11124961288E+04  0.67081137400E+03 0.  0.
         13    1    3    3    0    0 -0.15247293373E+03 -0.73900884358E+02  0.36299941712E+02  0.17328306899E+03  0.00000000000E+00 0.  1.
          3    1    3    3  501    0  0.15248405448E+03  0.73890615568E+02 -0.92380190612E+03  0.93921305979E+03  0.00000000000E+00 0.  1.
         21    1    1    2  502  501 -0.11120747638E-01  0.10268789279E-01  0.59125496868E-01  0.61032314729E-01  0.00000000000E+00 0. -1.
<mgrwt>
<rscale>  1 0.67081137E+03</rscale>
<asrwt>0</asrwt>
<pdfrwt beam="1">  1        1 0.40929963E+00 0.67081137E+03</pdfrwt>
<pdfrwt beam="2">0</pdfrwt>
<totfact> 0.12109585E+00</totfact>
</mgrwt>
</event>
<event>
 6    1  0.3653484E-003  0.6441410E+03  0.7818608E-02  0.9817836E-01
          1   -1    0    0  502    0  0.00000000000E+00  0.00000000000E+00  0.10403800167E+03  0.10403800167E+03  0.00000000000E+00 0.  1.
         13   -1    0    0    0    0 -0.00000000000E+00 -0.00000000000E+00 -0.10000000000E+04  0.10000000000E+04  0.00000000000E+00 0.  1.
    9000005    2    1    2  501    0  0.14963374961E+00 -0.16050278563E+00 -0.89622697032E+03  0.11036939645E+04  0.64414092935E+03 0.  0.
         13    1    3    3    0    0  0.17629876064E+03 -0.56030751025E+02 -0.90004343068E+03  0.91885737477E+03  0.00000000000E+00 0.  1.
          1    1    3    3  501    0 -0.17614912689E+03  0.55870248239E+02  0.38164603644E+01  0.18483658975E+03  0.00000000000E+00 0.  1.
         21    1    1    2  502  501 -0.14963374961E+00  0.16050278563E+00  0.26497198621E+00  0.34403714436E+00  0.00000000000E+00 0. -1.
<mgrwt>
<rscale>  1 0.64414097E+03</rscale>
<asrwt>0</asrwt>
<pdfrwt beam="1">  1        1 0.37832080E+00 0.64414097E+03</pdfrwt>
<pdfrwt beam="2">0</pdfrwt>
<totfact> 0.16709936E+00</totfact>
</mgrwt>
</event>
<event>
 6    1  0.3653484E-003  0.6461937E+03  0.7818608E-02  0.9813948E-01
          1   -1    0    0  502    0  0.00000000000E+00  0.00000000000E+00  0.16142177102E+03  0.16142177102E+03  0.00000000000E+00 0.  1.
         13   -1    0    0    0    0 -0.00000000000E+00 -0.00000000000E+00 -0.10000000000E+04  0.10000000000E+04  0.00000000000E+00 0.  1.
    9000005    2    1    2  501    0 -0.50317565686E+02 -0.11471640728E+02 -0.88240722129E+03  0.10937133039E+04  0.64412951407E+03 0.  0.
         13    1    3    3    0    0 -0.12359874415E+03  0.17172233192E+03 -0.24014664666E+02  0.21293640589E+03  0.00000000000E+00 0.  1.
          3    1    3    3  501    0  0.73281178462E+02 -0.18319397265E+03 -0.85839255663E+03  0.88077689797E+03  0.00000000000E+00 0.  1.
         21    1    1    2  502  501  0.50317565686E+02  0.11471640728E+02  0.43828992317E+02  0.67708467159E+02  0.00000000000E+00 0. -1.
<mgrwt>
<rscale>  1 0.64619369E+03</rscale>
<asrwt>0</asrwt>
<pdfrwt beam="1">  1        1 0.58698950E+00 0.64619369E+03</pdfrwt>
<pdfrwt beam="2">0</pdfrwt>
<totfact> 0.16817913E-01</totfact>
</mgrwt>
</event>
<event>
 6    1  0.3653484E-003  0.6621915E+03  0.7818608E-02  0.9784168E-01
          1   -1    0    0  502    0  0.00000000000E+00  0.00000000000E+00  0.10963217851E+03  0.10963217851E+03  0.00000000000E+00 0.  1.
         13   -1    0    0    0    0 -0.00000000000E+00 -0.00000000000E+00 -0.10000000000E+04  0.10000000000E+04  0.00000000000E+00 0.  1.
    9000005    2    1    2  501    0 -0.10936801954E-02  0.48030560032E-03 -0.89037554534E+03  0.11096243628E+04  0.66219152431E+03 0.  0.
         13    1    3    3    0    0 -0.64168733121E+02 -0.28673260019E+03 -0.18945414472E+03  0.34960847139E+03  0.00000000000E+00 0.  1.
          1    1    3    3  501    0  0.64167639441E+02  0.28673308049E+03 -0.70092140062E+03  0.76001589145E+03  0.00000000000E+00 0.  1.
         21    1    1    2  502  501  0.10936801954E-02 -0.48030560035E-03  0.77238460652E-02  0.78156655429E-02  0.00000000000E+00 0.  1.
<mgrwt>
<rscale>  1 0.66219152E+03</rscale>
<asrwt>0</asrwt>
<pdfrwt beam="1">  1        1 0.39866331E+00 0.66219152E+03</pdfrwt>
<pdfrwt beam="2">0</pdfrwt>
<totfact> 0.13532369E+00</totfact>
</mgrwt>
</event>
<event>
 6    1  0.3653484E-003  0.6577676E+03  0.7818608E-02  0.9792312E-01
          1   -1    0    0  502    0  0.00000000000E+00  0.00000000000E+00  0.10816545532E+03  0.10816545532E+03  0.00000000000E+00 0.  1.
         13   -1    0    0    0    0 -0.00000000000E+00 -0.00000000000E+00 -0.10000000000E+04  0.10000000000E+04  0.00000000000E+00 0.  1.
    9000005    2    1    2  501    0 -0.16001441328E-03  0.12953369136E-03 -0.89183542000E+03  0.11081645561E+04  0.65776763912E+03 0.  0.
         13    1    3    3    0    0 -0.46142987604E+02  0.90801162919E+02  0.80924041554E+02  0.13008738215E+03  0.00000000000E+00 0.  1.
          3    1    3    3  501    0  0.46142827590E+02 -0.90801033385E+02 -0.97275946155E+03  0.97807717397E+03  0.00000000000E+00 0.  1.
         21    1    1    2  502  501  0.16001441328E-03 -0.12953369137E-03  0.87531395981E-03  0.89919859759E-03  0.00000000000E+00 0.  1.
<mgrwt>
<rscale>  1 0.65776764E+03</rscale>
<asrwt>0</asrwt>
<pdfrwt beam="1">  1        1 0.39332976E+00 0.65776764E+03</pdfrwt>
<pdfrwt beam="2">0</pdfrwt>
<totfact> 0.14304165E+00</totfact>
</mgrwt>
</event>
<event>
 6    1  0.3653484E-003  0.6528163E+03  0.7818608E-02  0.9801509E-01
          1   -1    0    0  502    0  0.00000000000E+00  0.00000000000E+00  0.10656668971E+03  0.10656668971E+03  0.00000000000E+00 0.  1.
         13   -1    0    0    0    0 -0.00000000000E+00 -0.00000000000E+00 -0.10000000000E+04  0.10000000000E+04  0.00000000000E+00 0.  1.
    9000005    2    1    2  501    0  0.69708672729E-03  0.85212628477E-04 -0.89345770848E+03  0.11065422814E+04  0.65281631699E+03 0.  0.
         13    1    3    3    0    0  0.18661159266E+03  0.12878911271E+03 -0.84472497049E+03  0.87462609030E+03  0.00000000000E+00 0.  1.
          1    1    3    3  501    0 -0.18661089557E+03 -0.12878902750E+03 -0.48732737989E+02  0.23191619112E+03  0.00000000000E+00 0.  1.
         21    1    1    2  502  501 -0.69708672729E-03 -0.85212628483E-04  0.24398192283E-01  0.24408297314E-01  0.00000000000E+00 0. -1.
<mgrwt>
<rscale>  1 0.65281632E+03</rscale>
<asrwt>0</asrwt>
<pdfrwt beam="1">  1        1 0.38751605E+00 0.65281632E+03</pdfrwt>
<pdfrwt beam="2">0</pdfrwt>
<totfact> 0.15193222E+00</totfact>
</mgrwt>
</event>
<event>
 6    1  0.3653484E-003  0.6464422E+03  0.7818608E-02  0.9813478E-01
          1   -1    0    0  502    0  0.00000000000E+00  0.00000000000E+00  0.10466281417E+03  0.10466281417E+03  0.00000000000E+00 0.  1.
         13   -1    0    0    0    0 -0.00000000000E+00 -0.00000000000E+00 -0.10000000000E+04  0.10000000000E+04  0.00000000000E+00 0.  1.
    9000005    2    1    2  501    0  0.22638522938E-02  0.30513703218E-02 -0.89552810886E+03  0.11044718533E+04  0.64644217146E+03 0.  0.
         13    1    3    3    0    0 -0.68996991493E+02  0.28536330760E+03 -0.67876479108E+03  0.73953664126E+03  0.00000000000E+00 0.  1.
          1    1    3    3  501    0  0.68999255345E+02 -0.28536025623E+03 -0.21676331778E+03  0.36493521207E+03  0.00000000000E+00 0.  1.
         21    1    1    2  502  501 -0.22638522938E-02 -0.30513703218E-02  0.19092303284E+00  0.19096083461E+00  0.00000000000E+00 0.  1.
<mgrwt>
<rscale>  1 0.64644217E+03</rscale>
<asrwt>0</asrwt>
<pdfrwt beam="1">  1        1 0.38059285E+00 0.64644217E+03</pdfrwt>
<pdfrwt beam="2">0</pdfrwt>
<totfact> 0.16321839E+00</totfact>
</mgrwt>
</event>
<event>
 6    1  0.3653484E-003  0.6547121E+03  0.7818608E-02  0.9797977E-01
          1   -1    0    0  502    0  0.00000000000E+00  0.00000000000E+00  0.10719319948E+03  0.10719319948E+03  0.00000000000E+00 0.  1.
         13   -1    0    0    0    0 -0.00000000000E+00 -0.00000000000E+00 -0.10000000000E+04  0.10000000000E+04  0.00000000000E+00 0.  1.
    9000005    2    1    2  501    0 -0.68430033655E-02 -0.48702007904E-01 -0.89281492361E+03  0.11071433527E+04  0.65471208427E+03 0.  0.
         13    1    3    3    0    0  0.30263245036E+03 -0.91486382030E+02 -0.30284132160E+03  0.43780021035E+03  0.00000000000E+00 0.  1.
          3    1    3    3  501    0 -0.30263929336E+03  0.91437680022E+02 -0.58997360201E+03  0.66934314240E+03  0.00000000000E+00 0.  1.
         21    1    1    2  502  501  0.68430033655E-02  0.48702007904E-01  0.81230968135E-02  0.49846734806E-01  0.00000000000E+00 0.  1.
<mgrwt>
<rscale>  1 0.65471209E+03</rscale>
<asrwt>0</asrwt>
<pdfrwt beam="1">  1        1 0.38979427E+00 0.65471209E+03</pdfrwt>
<pdfrwt beam="2">0</pdfrwt>
<totfact> 0.14838881E+00</totfact>
</mgrwt>
</event>
<event>
 6    1  0.3653484E-003  0.6587129E+03  0.7818608E-02  0.9790566E-01
          1   -1    0    0  502    0  0.00000000000E+00  0.00000000000E+00  0.11315484617E+03  0.11315484617E+03  0.00000000000E+00 0.  1.
         13   -1    0    0    0    0 -0.00000000000E+00 -0.00000000000E+00 -0.10000000000E+04  0.10000000000E+04  0.00000000000E+00 0.  1.
    9000005    2    1    2  501    0 -0.11820461184E+01  0.12716470540E+02 -0.87796477733E+03  0.10975995595E+04  0.65858905014E+03 0.  0.
         13    1    3    3    0    0  0.69519030397E+01  0.72459626572E+01  0.10956346874E+03  0.11002266409E+03  0.00000000000E+00 0.  1.
          1    1    3    3  501    0 -0.81339491581E+01  0.54705078832E+01 -0.98752824607E+03  0.98757689542E+03  0.00000000000E+00 0.  1.
         21    1    1    2  502  501  0.11820461184E+01 -0.12716470540E+02 -0.88803765068E+01  0.15555286655E+02  0.00000000000E+00 0. -1.
<mgrwt>
<rscale>  1 0.65871287E+03</rscale>
<asrwt>0</asrwt>
<pdfrwt beam="1">  1        1 0.41147304E+00 0.65871287E+03</pdfrwt>
<pdfrwt beam="2">0</pdfrwt>
<totfact> 0.11868063E+00</totfact>
</mgrwt>
</event>
<event>
 6    1  0.3653484E-003  0.6391719E+03  0.7818608E-02  0.9827312E-01
          3   -1    0    0  502    0  0.00000000000E+00  0.00000000000E+00  0.10214128517E+03  0.10214128517E+03  0.00000000000E+00 0.  1.
         13   -1    0    0    0    0 -0.00000000000E+00 -0.00000000000E+00 -0.10000000000E+04  0.10000000000E+04  0.00000000000E+00 0.  1.
    9000005    2    1    2  501    0 -0.13217399186E-04  0.12714047031E-02 -0.89786475377E+03  0.11021351138E+04  0.63917188071E+03 0.  0.
         13    1    3    3    0    0 -0.19712624347E+03  0.22688052449E+03 -0.26160885067E+03  0.39846294559E+03  0.00000000000E+00 0.  1.
          1    1    3    3  501    0  0.19712623025E+03 -0.22687925309E+03 -0.63625590310E+03  0.70367216825E+03  0.00000000000E+00 0.  1.
         21    1    1    2  502  501  0.13217399179E-04 -0.12714047030E-02  0.60389332619E-02  0.61713336938E-02  0.00000000000E+00 0.  1.
<mgrwt>
<rscale>  1 0.63917188E+03</rscale>
<asrwt>0</asrwt>
<pdfrwt beam="1">  1        3 0.37142364E+00 0.63917188E+03</pdfrwt>
<pdfrwt beam="2">0</pdfrwt>
<totfact> 0.83938349E-02</totfact>
</mgrwt>
</event>
<event>
 6    1  0.3653484E-003  0.6253499E+03  0.7818608E-02  0.9854165E-01
          1   -1    0    0  502    0  0.00000000000E+00  0.00000000000E+00  0.97767670878E+02  0.97767670878E+02  0.00000000000E+00 0.  1.
         13   -1    0    0    0    0 -0.00000000000E+00 -0.00000000000E+00 -0.10000000000E+04  0.10000000000E+04  0.00000000000E+00 0.  1.
    9000005    2    1    2  501    0  0.73488093960E-04  0.71258091054E-04 -0.90223438770E+03  0.10977656098E+04  0.62534985698E+03 0.  0.
         13    1    3    3    0    0  0.21501314200E+03 -0.35766018958E+02 -0.84464873242E+03  0.87231951745E+03  0.00000000000E+00 0.  1.
          3    1    3    3  501    0 -0.21501306852E+03  0.35766090216E+02 -0.57585655276E+02  0.22544609231E+03  0.00000000000E+00 0.  1.
         21    1    1    2  502  501 -0.73488093971E-04 -0.71258091056E-04  0.20585759628E-02  0.20611194070E-02  0.00000000000E+00 0.  1.
<mgrwt>
<rscale>  1 0.62534986E+03</rscale>
<asrwt>0</asrwt>
<pdfrwt beam="1">  1        1 0.35551955E+00 0.62534986E+03</pdfrwt>
<pdfrwt beam="2">0</pdfrwt>
<totfact> 0.21109196E+00</totfact>
</mgrwt>
</event>
<event>
 6    1  0.3653484E-003  0.6592017E+03  0.7818608E-02  0.9789664E-01
          1   -1    0    0  502    0  0.00000000000E+00  0.00000000000E+00  0.10943687984E+03  0.10943687984E+03  0.00000000000E+00 0.  1.
         13   -1    0    0    0    0 -0.00000000000E+00 -0.00000000000E+00 -0.10000000000E+04  0.10000000000E+04  0.00000000000E+00 0.  1.
    9000005    2    1    2  501    0 -0.23585727574E-01  0.12876044834E+00 -0.89135734028E+03  0.11086319444E+04  0.65920168600E+03 0.  0.
         13    1    3    3    0    0 -0.39940068904E+02  0.13012406111E+03 -0.95060447264E+03  0.96030013214E+03  0.00000000000E+00 0.  1.
          3    1    3    3  501    0  0.39916483176E+02 -0.12999530066E+03  0.59247132357E+02  0.14833181221E+03  0.00000000000E+00 0.  1.
         21    1    1    2  502  501  0.23585727574E-01 -0.12876044834E+00  0.79422012270E+00  0.80493548991E+00  0.00000000000E+00 0.  1.
<mgrwt>
<rscale>  1 0.65920170E+03</rscale>
<asrwt>0</asrwt>
<pdfrwt beam="1">  1        1 0.39795313E+00 0.65920170E+03</pdfrwt>
<pdfrwt beam="2">0</pdfrwt>
<totfact> 0.13638933E+00</totfact>
</mgrwt>
</event>
<event>
 6    1  0.3653484E-003  0.6498414E+03  0.7818608E-02  0.9807077E-01
          1   -1    0    0  502    0  0.00000000000E+00  0.00000000000E+00  0.10557731839E+03  0.10557731839E+03  0.00000000000E+00 0.  1.
         13   -1    0    0    0    0 -0.00000000000E+00 -0.00000000000E+00 -0.10000000000E+04  0.10000000000E+04  0.00000000000E+00 0.  1.
    9000005    2    1    2  501    0 -0.19018165315E-02  0.17911408802E-02 -0.89442603881E+03  0.11055730645E+04  0.64984141294E+03 0.  0.
         13    1    3    3    0    0  0.12351521485E+03  0.14058660977E+03  0.46818403522E+01  0.18719648174E+03  0.00000000000E+00 0.  1.
          1    1    3    3  501    0 -0.12351711667E+03 -0.14058481863E+03 -0.89910787916E+03  0.91837658273E+03  0.00000000000E+00 0.  1.
         21    1    1    2  502  501  0.19018165315E-02 -0.17911408802E-02  0.33571901941E-02  0.42539179320E-02  0.00000000000E+00 0. -1.
<mgrwt>
<rscale>  1 0.64984141E+03</rscale>
<asrwt>0</asrwt>
<pdfrwt beam="1">  1        1 0.38391833E+00 0.64984141E+03</pdfrwt>
<pdfrwt beam="2">0</pdfrwt>
<totfact> 0.15769143E+00</totfact>
</mgrwt>
</event>
<event>
 6    1  0.3653484E-003  0.6548684E+03  0.7818608E-02  0.9797687E-01
          1   -1    0    0  502    0  0.00000000000E+00  0.00000000000E+00  0.10721515029E+03  0.10721515029E+03  0.00000000000E+00 0.  1.
         13   -1    0    0    0    0 -0.00000000000E+00 -0.00000000000E+00 -0.10000000000E+04  0.10000000000E+04  0.00000000000E+00 0.  1.
    9000005    2    1    2  501    0  0.41976322109E-04  0.85710369376E-04 -0.89278684383E+03  0.11072131539E+04  0.65486839872E+03 0.  0.
         13    1    3    3    0    0  0.18003492016E+03  0.26017111340E+03 -0.30381270380E+03  0.43863850688E+03  0.00000000000E+00 0.  1.
          3    1    3    3  501    0 -0.18003487818E+03 -0.26017102769E+03 -0.58897414003E+03  0.66857464701E+03  0.00000000000E+00 0.  1.
         21    1    1    2  502  501 -0.41976322112E-04 -0.85710369398E-04  0.19941207911E-02  0.19964032680E-02  0.00000000000E+00 0.  1.
<mgrwt>
<rscale>  1 0.65486840E+03</rscale>
<asrwt>0</asrwt>
<pdfrwt beam="1">  1        1 0.38987410E+00 0.65486840E+03</pdfrwt>
<pdfrwt beam="2">0</pdfrwt>
<totfact> 0.14826362E+00</totfact>
</mgrwt>
</event>
<event>
 6    1  0.3653484E-003  0.6228745E+03  0.7818608E-02  0.9859053E-01
          1   -1    0    0  502    0  0.00000000000E+00  0.00000000000E+00  0.99184256963E+02  0.99184256963E+02  0.00000000000E+00 0.  1.
         13   -1    0    0    0    0 -0.00000000000E+00 -0.00000000000E+00 -0.10000000000E+04  0.10000000000E+04  0.00000000000E+00 0.  1.
    9000005    2    1    2  501    0  0.90938555273E+00 -0.51575175757E+00 -0.90286926094E+03  0.10968799311E+04  0.62287365325E+03 0.  0.
         13    1    3    3    0    0 -0.18717320381E+03 -0.10639756341E+03 -0.84699010237E+03  0.87392590260E+03  0.00000000000E+00 0.  1.
          3    1    3    3  501    0  0.18808258936E+03  0.10588181166E+03 -0.55879158568E+02  0.22295402849E+03  0.00000000000E+00 0.  1.
         21    1    1    2  502  501 -0.90938555273E+00  0.51575175757E+00  0.20535178989E+01  0.23043258711E+01  0.00000000000E+00 0.  1.
<mgrwt>
<rscale>  1 0.62287453E+03</rscale>
<asrwt>0</asrwt>
<pdfrwt beam="1">  1        1 0.36067079E+00 0.62287453E+03</pdfrwt>
<pdfrwt beam="2">0</pdfrwt>
<totfact> 0.20051974E+00</totfact>
</mgrwt>
</event>
<event>
 6    1  0.3653484E-003  0.6518556E+03  0.7818608E-02  0.9803304E-01
          1   -1    0    0  502    0  0.00000000000E+00  0.00000000000E+00  0.11223710448E+03  0.11223710448E+03  0.00000000000E+00 0.  1.
         13   -1    0    0    0    0 -0.00000000000E+00 -0.00000000000E+00 -0.10000000000E+04  0.10000000000E+04  0.00000000000E+00 0.  1.
    9000005    2    1    2  501    0  0.17311129837E+01 -0.27865216953E+01 -0.89327171569E+03  0.11058255091E+04  0.65184732654E+03 0.  0.
         13    1    3    3    0    0  0.21740622920E+02 -0.10047229714E+03 -0.97283987971E+03  0.97825598323E+03  0.00000000000E+00 0.  1.
          3    1    3    3  501    0 -0.20009509937E+02  0.97685775443E+02  0.79568164016E+02  0.12756952589E+03  0.00000000000E+00 0.  1.
         21    1    1    2  502  501 -0.17311129837E+01  0.27865216953E+01  0.55088201700E+01  0.64115953542E+01  0.00000000000E+00 0.  1.
<mgrwt>
<rscale>  1 0.65185558E+03</rscale>
<asrwt>0</asrwt>
<pdfrwt beam="1">  1        1 0.40813579E+00 0.65185558E+03</pdfrwt>
<pdfrwt beam="2">0</pdfrwt>
<totfact> 0.12300247E+00</totfact>
</mgrwt>
</event>
<event>
 6    1  0.3653484E-003  0.6481627E+03  0.7818608E-02  0.9810233E-01
          1   -1    0    0  502    0  0.00000000000E+00  0.00000000000E+00  0.10660096083E+03  0.10660096083E+03  0.00000000000E+00 0.  1.
         13   -1    0    0    0    0 -0.00000000000E+00 -0.00000000000E+00 -0.10000000000E+04  0.10000000000E+04  0.00000000000E+00 0.  1.
    9000005    2    1    2  501    0  0.58905711080E+00 -0.13427775041E+01 -0.89458442275E+03  0.11047154439E+04  0.64816106996E+03 0.  0.
         13    1    3    3    0    0 -0.34252485713E+01  0.80618940247E+02 -0.98171518606E+03  0.98502581306E+03  0.00000000000E+00 0.  1.
          3    1    3    3  501    0  0.40143056821E+01 -0.81961717751E+02  0.87130763305E+02  0.11968963088E+03  0.00000000000E+00 0.  1.
         21    1    1    2  502  501 -0.58905711080E+00  0.13427775041E+01  0.11853835844E+01  0.18855168913E+01  0.00000000000E+00 0.  1.
<mgrwt>
<rscale>  1 0.64816273E+03</rscale>
<asrwt>0</asrwt>
<pdfrwt beam="1">  1        1 0.38764067E+00 0.64816273E+03</pdfrwt>
<pdfrwt beam="2">0</pdfrwt>
<totfact> 0.15187037E+00</totfact>
</mgrwt>
</event>
<event>
 6    1  0.3653484E-003  0.6545318E+03  0.7818608E-02  0.9798313E-01
          1   -1    0    0  502    0  0.00000000000E+00  0.00000000000E+00  0.10710340547E+03  0.10710340547E+03  0.00000000000E+00 0.  1.
         13   -1    0    0    0    0 -0.00000000000E+00 -0.00000000000E+00 -0.10000000000E+04  0.10000000000E+04  0.00000000000E+00 0.  1.
    9000005    2    1    2  501    0  0.40800591651E-03  0.12903220064E-02 -0.89289511712E+03  0.11071014019E+04  0.65453175935E+03 0.  0.
         13    1    3    3    0    0 -0.87176249908E+01 -0.32399137467E+03 -0.52314424835E+03  0.61540743612E+03  0.00000000000E+00 0.  1.
          1    1    3    3  501    0  0.87180329967E+01  0.32399266499E+03 -0.36975086877E+03  0.49169396582E+03  0.00000000000E+00 0.  1.
         21    1    1    2  502  501 -0.40800591651E-03 -0.12903220064E-02 -0.14774074404E-02  0.20035299980E-02  0.00000000000E+00 0. -1.
<mgrwt>
<rscale>  1 0.65453176E+03</rscale>
<asrwt>0</asrwt>
<pdfrwt beam="1">  1        1 0.38946775E+00 0.65453176E+03</pdfrwt>
<pdfrwt beam="2">0</pdfrwt>
<totfact> 0.14888929E+00</totfact>
</mgrwt>
</event>
<event>
 6    1  0.3653484E-003  0.6496912E+03  0.7818608E-02  0.9807359E-01
          1   -1    0    0  502    0  0.00000000000E+00  0.00000000000E+00  0.10573860094E+03  0.10573860094E+03  0.00000000000E+00 0.  1.
         13   -1    0    0    0    0 -0.00000000000E+00 -0.00000000000E+00 -0.10000000000E+04  0.10000000000E+04  0.00000000000E+00 0.  1.
    9000005    2    1    2  501    0  0.23236875672E-01 -0.18038977117E-04 -0.89447464332E+03  0.11055240944E+04  0.64969118446E+03 0.  0.
         13    1    3    3    0    0 -0.22355220941E+03  0.55437428266E+02 -0.83700591075E+03  0.86811738458E+03  0.00000000000E+00 0.  1.
          1    1    3    3  501    0  0.22357544628E+03 -0.55437446305E+02 -0.57468732574E+02  0.23740670980E+03  0.00000000000E+00 0.  1.
         21    1    1    2  502  501 -0.23236875672E-01  0.18038977121E-04  0.21324425581E+00  0.21450656250E+00  0.00000000000E+00 0. -1.
<mgrwt>
<rscale>  1 0.64969118E+03</rscale>
<asrwt>0</asrwt>
<pdfrwt beam="1">  1        1 0.38450481E+00 0.64969118E+03</pdfrwt>
<pdfrwt beam="2">0</pdfrwt>
<totfact> 0.15675703E+00</totfact>
</mgrwt>
</event>
<event>
 6    1  0.3653484E-003  0.6443651E+03  0.7818608E-02  0.9817411E-01
          1   -1    0    0  502    0  0.00000000000E+00  0.00000000000E+00  0.11871651141E+03  0.11871651141E+03  0.00000000000E+00 0.  1.
         13   -1    0    0    0    0 -0.00000000000E+00 -0.00000000000E+00 -0.10000000000E+04  0.10000000000E+04  0.00000000000E+00 0.  1.
    9000005    2    1    2  501    0  0.40034486342E+02  0.13632330870E+02 -0.80134679128E+03  0.10282815839E+04  0.64297568795E+03 0.  0.
         13    1    3    3    0    0 -0.13680848105E+03  0.19543941302E+03 -0.72525644596E+03  0.76348545307E+03  0.00000000000E+00 0.  1.
          3    1    3    3  501    0  0.17684296739E+03 -0.18180708215E+03 -0.76090345321E+02  0.26479613080E+03  0.00000000000E+00 0.  1.
         21    1    1    2  502  501 -0.40034486342E+02 -0.13632330870E+02 -0.79936697314E+02  0.90434927540E+02  0.00000000000E+00 0.  1.
<mgrwt>
<rscale>  1 0.64436506E+03</rscale>
<asrwt>0</asrwt>
<pdfrwt beam="1">  1        1 0.43169732E+00 0.64436506E+03</pdfrwt>
<pdfrwt beam="2">0</pdfrwt>
<totfact> 0.96449027E-01</totfact>
</mgrwt>
</event>
<event>
 6    1  0.3653484E-003  0.6554014E+03  0.7818608E-02  0.9796696E-01
          1   -1    0    0  502    0  0.00000000000E+00  0.00000000000E+00  0.11751858346E+03  0.11751858346E+03  0.00000000000E+00 0.  1.
         13   -1    0    0    0    0 -0.00000000000E+00 -0.00000000000E+00 -0.10000000000E+04  0.10000000000E+04  0.00000000000E+00 0.  1.
    9000005    2    1    2  501    0 -0.41343817644E+01  0.24323412564E+01 -0.89197961457E+03  0.11068778522E+04  0.65538380925E+03 0.  0.
         13    1    3    3    0    0  0.21682112565E+02  0.26866494908E+03 -0.12987549180E+03  0.29919661134E+03  0.00000000000E+00 0.  1.
          3    1    3    3  501    0 -0.25816494330E+02 -0.26623260782E+03 -0.76210412277E+03  0.80768124083E+03  0.00000000000E+00 0.  1.
         21    1    1    2  502  501  0.41343817644E+01 -0.24323412564E+01  0.94981980330E+01  0.10640731292E+02  0.00000000000E+00 0. -1.
<mgrwt>
<rscale>  1 0.65540136E+03</rscale>
<asrwt>0</asrwt>
<pdfrwt beam="1">  1        1 0.42734120E+00 0.65540136E+03</pdfrwt>
<pdfrwt beam="2">0</pdfrwt>
<totfact> 0.10071669E+00</totfact>
</mgrwt>
</event>
<event>
 6    1  0.3653484E-003  0.6623887E+03  0.7818608E-02  0.9783806E-01
          1   -1    0    0  502    0  0.00000000000E+00  0.00000000000E+00  0.10970231326E+03  0.10970231326E+03  0.00000000000E+00 0.  1.
         13   -1    0    0    0    0 -0.00000000000E+00 -0.00000000000E+00 -0.10000000000E+04  0.10000000000E+04  0.00000000000E+00 0.  1.
    9000005    2    1    2  501    0 -0.10677060300E-03 -0.42094924935E-03 -0.89031030623E+03  0.11096896863E+04  0.66238867630E+03 0.  0.
         13    1    3    3    0    0  0.26843921811E+03  0.47951620556E+02 -0.76004919560E+03  0.80748606890E+03  0.00000000000E+00 0.  1.
          3    1    3    3  501    0 -0.26843932488E+03 -0.47952041505E+02 -0.13026111063E+03  0.30220361740E+03  0.00000000000E+00 0.  1.
         21    1    1    2  502  501  0.10677060303E-03  0.42094924935E-03  0.12619490239E-01  0.12626960526E-01  0.00000000000E+00 0. -1.
<mgrwt>
<rscale>  1 0.66238868E+03</rscale>
<asrwt>0</asrwt>
<pdfrwt beam="1">  1        1 0.39891834E+00 0.66238868E+03</pdfrwt>
<pdfrwt beam="2">0</pdfrwt>
<totfact> 0.13496505E+00</totfact>
</mgrwt>
</event>
<event>
 6    1  0.3653484E-003  0.6514249E+03  0.7818608E-02  0.9804109E-01
          1   -1    0    0  502    0  0.00000000000E+00  0.00000000000E+00  0.10609231713E+03  0.10609231713E+03  0.00000000000E+00 0.  1.
         13   -1    0    0    0    0 -0.00000000000E+00 -0.00000000000E+00 -0.10000000000E+04  0.10000000000E+04  0.00000000000E+00 0.  1.
    9000005    2    1    2  501    0  0.11980188625E-02  0.10014123592E-02 -0.89391121391E+03  0.11060884563E+04  0.65142491102E+03 0.  0.
         13    1    3    3    0    0 -0.11053704859E+03  0.74230268346E+02 -0.95167870627E+03  0.96094793398E+03  0.00000000000E+00 0.  1.
          3    1    3    3  501    0  0.11053824661E+03 -0.74229266933E+02  0.57767492359E+02  0.14514052228E+03  0.00000000000E+00 0.  1.
         21    1    1    2  502  501 -0.11980188625E-02 -0.10014123592E-02  0.35310395545E-02  0.38608698817E-02  0.00000000000E+00 0.  1.
<mgrwt>
<rscale>  1 0.65142491E+03</rscale>
<asrwt>0</asrwt>
<pdfrwt beam="1">  1        1 0.38579106E+00 0.65142491E+03</pdfrwt>
<pdfrwt beam="2">0</pdfrwt>
<totfact> 0.15466719E+00</totfact>
</mgrwt>
</event>
<event>
 6    1  0.3653484E-003  0.4564919E+03  0.7818608E-02  0.1025804E+00
          1   -1    0    0  502    0  0.00000000000E+00  0.00000000000E+00  0.52691246735E+02  0.52691246735E+02  0.00000000000E+00 0.  1.
         13   -1    0    0    0    0 -0.00000000000E+00 -0.00000000000E+00 -0.10000000000E+04  0.10000000000E+04  0.00000000000E+00 0.  1.
    9000005    2    1    2  501    0  0.98319654098E-01 -0.53916021259E-02 -0.94789951001E+03  0.10520923399E+04  0.45649184107E+03 0.  0.
         13    1    3    3    0    0  0.15767504964E+01 -0.20332867589E+03 -0.23496869424E+03  0.31073352547E+03  0.00000000000E+00 0.  1.
          3    1    3    3  501    0 -0.14784308423E+01  0.20332328429E+03 -0.71293081578E+03  0.74135881446E+03  0.00000000000E+00 0.  1.
         21    1    1    2  502  501 -0.98319654098E-01  0.53916021258E-02  0.59075674722E+00  0.59890680255E+00  0.00000000000E+00 0.  1.
<mgrwt>
<rscale>  1 0.45649185E+03</rscale>
<asrwt>0</asrwt>
<pdfrwt beam="1">  1        1 0.19160494E+00 0.45649185E+03</pdfrwt>
<pdfrwt beam="2">0</pdfrwt>
<totfact> 0.11303967E+01</totfact>
</mgrwt>
</event>
<event>
 6    1  0.3653484E-003  0.6488797E+03  0.7818608E-02  0.9808884E-01
          1   -1    0    0  502    0  0.00000000000E+00  0.00000000000E+00  0.10556269670E+03  0.10556269670E+03  0.00000000000E+00 0.  1.
         13   -1    0    0    0    0 -0.00000000000E+00 -0.00000000000E+00 -0.10000000000E+04  0.10000000000E+04  0.00000000000E+00 0.  1.
    9000005    2    1    2  501    0 -0.88247657706E-03  0.56285188875E-02 -0.89473874071E+03  0.11052612055E+04  0.64887974087E+03 0.  0.
         13    1    3    3    0    0 -0.18358968209E+03  0.13864423726E+03 -0.83704040833E+03  0.86808066507E+03  0.00000000000E+00 0.  1.
          3    1    3    3  501    0  0.18358879961E+03 -0.13863860874E+03 -0.57698332386E+02  0.23718054038E+03  0.00000000000E+00 0.  1.
         21    1    1    2  502  501  0.88247657707E-03 -0.56285188875E-02  0.30143741428E+00  0.30149124982E+00  0.00000000000E+00 0.  1.
<mgrwt>
<rscale>  1 0.64887974E+03</rscale>
<asrwt>0</asrwt>
<pdfrwt beam="1">  1        1 0.38386516E+00 0.64887974E+03</pdfrwt>
<pdfrwt beam="2">0</pdfrwt>
<totfact> 0.15780480E+00</totfact>
</mgrwt>
</event>
<event>
 6    1  0.3653484E-003  0.6588166E+03  0.7818608E-02  0.9790375E-01
          1   -1    0    0  502    0  0.00000000000E+00  0.00000000000E+00  0.11787047451E+03  0.11787047451E+03  0.00000000000E+00 0.  1.
         13   -1    0    0    0    0 -0.00000000000E+00 -0.00000000000E+00 -0.10000000000E+04  0.10000000000E+04  0.00000000000E+00 0.  1.
    9000005    2    1    2  501    0 -0.57246183757E-01  0.17221795919E+00 -0.89148920036E+03  0.11085090403E+04  0.65881656414E+03 0.  0.
         13    1    3    3    0    0 -0.30897508513E+03 -0.64065037132E+02 -0.60490654574E+03  0.68226231121E+03  0.00000000000E+00 0.  1.
          1    1    3    3  501    0  0.30891783894E+03  0.64237255091E+02 -0.28658265462E+03  0.42624672912E+03  0.00000000000E+00 0.  1.
         21    1    1    2  502  501  0.57246183757E-01 -0.17221795919E+00  0.93596748764E+01  0.93614341820E+01  0.00000000000E+00 0.  1.
<mgrwt>
<rscale>  1 0.65881659E+03</rscale>
<asrwt>0</asrwt>
<pdfrwt beam="1">  1        1 0.42862081E+00 0.65881659E+03</pdfrwt>
<pdfrwt beam="2">0</pdfrwt>
<totfact> 0.99312624E-01</totfact>
</mgrwt>
</event>
<event>
 6    1  0.3653484E-003  0.6503930E+03  0.7818608E-02  0.9806042E-01
          1   -1    0    0  502    0  0.00000000000E+00  0.00000000000E+00  0.10578586039E+03  0.10578586039E+03  0.00000000000E+00 0.  1.
         13   -1    0    0    0    0 -0.00000000000E+00 -0.00000000000E+00 -0.10000000000E+04  0.10000000000E+04  0.00000000000E+00 0.  1.
    9000005    2    1    2  501    0 -0.71140307905E-01  0.54446424914E-01 -0.89415630874E+03  0.11056792313E+04  0.65039299659E+03 0.  0.
         13    1    3    3    0    0 -0.98205722962E+02  0.55086019878E+02 -0.96576862991E+03  0.97231058830E+03  0.00000000000E+00 0.  1.
          1    1    3    3  501    0  0.98134582654E+02 -0.55031573453E+02  0.71612321165E+02  0.13336864299E+03  0.00000000000E+00 0.  1.
         21    1    1    2  502  501  0.71140307905E-01 -0.54446424914E-01 -0.57830866613E-01  0.10662910357E+00  0.00000000000E+00 0. -1.
<mgrwt>
<rscale>  1 0.65039300E+03</rscale>
<asrwt>0</asrwt>
<pdfrwt beam="1">  1        1 0.38467667E+00 0.65039300E+03</pdfrwt>
<pdfrwt beam="2">0</pdfrwt>
<totfact> 0.15646269E+00</totfact>
</mgrwt>
</event>
<event>
 6    1  0.3724776E-003  0.6242627E+03  0.7818608E-02  0.9856309E-01
          1   -1    0    0  502    0  0.00000000000E+00  0.00000000000E+00  0.97425991958E+02  0.97425991958E+02  0.00000000000E+00 0.  1.
         13   -1    0    0    0    0 -0.00000000000E+00 -0.00000000000E+00 -0.10000000000E+04  0.10000000000E+04  0.00000000000E+00 0.  1.
    9000005    2    1    2  501    0 -0.77572997839E-05  0.52552404668E-05 -0.90257400906E+03  0.10974259825E+04  0.62426272138E+03 0.  0.
         13    1    3    3    0    0  0.21082599029E+03  0.18259818615E+03 -0.69762848756E+03  0.75131564767E+03  0.00000000000E+00 0.  1.
          3    1    3    3  501    0 -0.21082599804E+03 -0.18259818090E+03 -0.20494552150E+03  0.34611033487E+03  0.00000000000E+00 0.  1.
         21    1    1    2  502  501  0.77572997903E-05 -0.52552404655E-05  0.10216443603E-05  0.94253386987E-05  0.00000000000E+00 0. -1.
<mgrwt>
<rscale>  1 0.62426272E+03</rscale>
<asrwt>0</asrwt>
<pdfrwt beam="1">  1        1 0.35427708E+00 0.62426272E+03</pdfrwt>
<pdfrwt beam="2">0</pdfrwt>
<totfact> 0.21378633E+00</totfact>
</mgrwt>
</event>
<event>
 6    1  0.3653484E-003  0.6224734E+03  0.7818608E-02  0.9859847E-01
          3   -1    0    0  502    0  0.00000000000E+00  0.00000000000E+00  0.97219519951E+02  0.97219519951E+02  0.00000000000E+00 0.  1.
         13   -1    0    0    0    0 -0.00000000000E+00 -0.00000000000E+00 -0.10000000000E+04  0.10000000000E+04  0.00000000000E+00 0.  1.
    9000005    2    1    2  501    0 -0.50582859688E-01  0.21789001594E-01 -0.90312933283E+03  0.10968663463E+04  0.62247344258E+03 0.  0.
         13    1    3    3    0    0  0.10501788118E+01 -0.12388744107E+03  0.51542804787E+02  0.13418592197E+03  0.00000000000E+00 0.  1.
          3    1    3    3  501    0 -0.11007616715E+01  0.12390923007E+03 -0.95467213762E+03  0.96268042429E+03  0.00000000000E+00 0.  1.
         21    1    1    2  502  501  0.50582859688E-01 -0.21789001594E-01  0.34885278223E+00  0.35317368242E+00  0.00000000000E+00 0. -1.
<mgrwt>
<rscale>  1 0.62247345E+03</rscale>
<asrwt>0</asrwt>
<pdfrwt beam="1">  1        3 0.35352627E+00 0.62247345E+03</pdfrwt>
<pdfrwt beam="2">0</pdfrwt>
<totfact> 0.10474826E-01</totfact>
</mgrwt>
</event>
<event>
 6    1  0.4976124E-003  0.6610008E+03  0.7818608E-02  0.9786353E-01
          1   -1    0    0  502    0  0.00000000000E+00  0.00000000000E+00  0.10923057974E+03  0.10923057974E+03  0.00000000000E+00 0.  1.
         13   -1    0    0    0    0 -0.00000000000E+00 -0.00000000000E+00 -0.10000000000E+04  0.10000000000E+04  0.00000000000E+00 0.  1.
    9000005    2    1    2  501    0  0.41745898272E-04 -0.16453583510E-03 -0.89076935836E+03  0.11092303991E+04  0.66100077790E+03 0.  0.
         13    1    3    3    0    0 -0.28261494364E+03  0.10143701025E+03 -0.67712030867E+03  0.74071086521E+03  0.00000000000E+00 0.  1.
          1    1    3    3  501    0  0.28261498538E+03 -0.10143717479E+03 -0.21364904969E+03  0.36851953385E+03  0.00000000000E+00 0.  1.
         21    1    1    2  502  501 -0.41745898282E-04  0.16453583510E-03 -0.61900700934E-04  0.18068330811E-03  0.00000000000E+00 0.  1.
<mgrwt>
<rscale>  1 0.66100078E+03</rscale>
<asrwt>0</asrwt>
<pdfrwt beam="1">  1        1 0.39720295E+00 0.66100078E+03</pdfrwt>
<pdfrwt beam="2">0</pdfrwt>
<totfact> 0.13739628E+00</totfact>
</mgrwt>
</event>
<event>
 6    1  0.3653484E-003  0.6592936E+03  0.7818608E-02  0.9789495E-01
          1   -1    0    0  502    0  0.00000000000E+00  0.00000000000E+00  0.10867442600E+03  0.10867442600E+03  0.00000000000E+00 0.  1.
         13   -1    0    0    0    0 -0.00000000000E+00 -0.00000000000E+00 -0.10000000000E+04  0.10000000000E+04  0.00000000000E+00 0.  1.
    9000005    2    1    2  501    0  0.53513760777E-03 -0.12105496448E-02 -0.89133290825E+03  0.11086669733E+04  0.65929364044E+03 0.  0.
         13    1    3    3    0    0  0.12467543535E+03 -0.11947472573E+03  0.26527143145E+02  0.17470507603E+03  0.00000000000E+00 0.  1.
          1    1    3    3  501    0 -0.12467490021E+03  0.11947351518E+03 -0.91786005139E+03  0.93396189725E+03  0.00000000000E+00 0.  1.
         21    1    1    2  502  501 -0.53513760778E-03  0.12105496448E-02  0.73342504355E-02  0.74527197822E-02  0.00000000000E+00 0. -1.
<mgrwt>
<rscale>  1 0.65929364E+03</rscale>
<asrwt>0</asrwt>
<pdfrwt beam="1">  1        1 0.39518056E+00 0.65929364E+03</pdfrwt>
<pdfrwt beam="2">0</pdfrwt>
<totfact> 0.14031766E+00</totfact>
</mgrwt>
</event>
<event>
 6    1  0.3653484E-003  0.6598724E+03  0.7818608E-02  0.9788429E-01
          1   -1    0    0  502    0  0.00000000000E+00  0.00000000000E+00  0.10911315119E+03  0.10911315119E+03  0.00000000000E+00 0.  1.
         13   -1    0    0    0    0 -0.00000000000E+00 -0.00000000000E+00 -0.10000000000E+04  0.10000000000E+04  0.00000000000E+00 0.  1.
    9000005    2    1    2  501    0  0.24287316931E+00  0.17838574449E+00 -0.89103942589E+03  0.11087753811E+04  0.65987233348E+03 0.  0.
         13    1    3    3    0    0 -0.11224552881E+03 -0.28942723040E+03 -0.25816031710E+03  0.40374983562E+03  0.00000000000E+00 0.  1.
          3    1    3    3  501    0  0.11248840198E+03  0.28960561614E+03 -0.63287910878E+03  0.70502554551E+03  0.00000000000E+00 0.  1.
         21    1    1    2  502  501 -0.24287316931E+00 -0.17838574449E+00  0.15257707267E+00  0.33777005982E+00  0.00000000000E+00 0.  1.
<mgrwt>
<rscale>  1 0.65987240E+03</rscale>
<asrwt>0</asrwt>
<pdfrwt beam="1">  1        1 0.39677593E+00 0.65987240E+03</pdfrwt>
<pdfrwt beam="2">0</pdfrwt>
<totfact> 0.13802805E+00</totfact>
</mgrwt>
</event>
<event>
 6    1  0.3653484E-003  0.6571316E+03  0.7818608E-02  0.9793488E-01
          1   -1    0    0  502    0  0.00000000000E+00  0.00000000000E+00  0.10795646712E+03  0.10795646712E+03  0.00000000000E+00 0.  1.
         13   -1    0    0    0    0 -0.00000000000E+00 -0.00000000000E+00 -0.10000000000E+04  0.10000000000E+04  0.00000000000E+00 0.  1.
    9000005    2    1    2  501    0 -0.29306937648E-04  0.92054061270E-04 -0.89204450849E+03  0.11079554867E+04  0.65713161198E+03 0.  0.
         13    1    3    3    0    0  0.20874828881E+03  0.21732443272E+03 -0.22522242285E+03  0.37620592352E+03  0.00000000000E+00 0.  1.
          1    1    3    3  501    0 -0.20874831812E+03 -0.21732434067E+03 -0.66682208564E+03  0.73174956321E+03  0.00000000000E+00 0.  1.
         21    1    1    2  502  501  0.29306937658E-04 -0.92054061263E-04  0.97560868038E-03  0.98038010181E-03  0.00000000000E+00 0.  1.
<mgrwt>
<rscale>  1 0.65713161E+03</rscale>
<asrwt>0</asrwt>
<pdfrwt beam="1">  1        1 0.39256980E+00 0.65713161E+03</pdfrwt>
<pdfrwt beam="2">0</pdfrwt>
<totfact> 0.14417483E+00</totfact>
</mgrwt>
</event>
<event>
 6    1  0.3653484E-003  0.6765181E+03  0.7818608E-02  0.9758254E-01
          1   -1    0    0  502    0  0.00000000000E+00  0.00000000000E+00  0.11441921420E+03  0.11441921420E+03  0.00000000000E+00 0.  1.
         13   -1    0    0    0    0 -0.00000000000E+00 -0.00000000000E+00 -0.10000000000E+04  0.10000000000E+04  0.00000000000E+00 0.  1.
    9000005    2    1    2  501    0  0.10460611136E-04 -0.36555888983E-07 -0.88558081993E+03  0.11144191785E+04  0.67651808313E+03 0.  0.
         13    1    3    3    0    0  0.40062952600E+02 -0.28086325531E+03 -0.13935873629E+03  0.31608553547E+03  0.00000000000E+00 0.  1.
          1    1    3    3  501    0 -0.40062942139E+02  0.28086325527E+03 -0.74622208364E+03  0.79833364304E+03  0.00000000000E+00 0.  1.
         21    1    1    2  502  501 -0.10460611131E-04  0.36555871799E-07  0.34129927510E-04  0.35697026115E-04  0.00000000000E+00 0.  1.
<mgrwt>
<rscale>  1 0.67651808E+03</rscale>
<asrwt>0</asrwt>
<pdfrwt beam="1">  1        1 0.41607075E+00 0.67651808E+03</pdfrwt>
<pdfrwt beam="2">0</pdfrwt>
<totfact> 0.11278070E+00</totfact>
</mgrwt>
</event>
<event>
 6    1  0.3653484E-003  0.6345659E+03  0.7818608E-02  0.9836179E-01
          1   -1    0    0  502    0  0.00000000000E+00  0.00000000000E+00  0.10071720243E+03  0.10071720243E+03  0.00000000000E+00 0.  1.
         13   -1    0    0    0    0 -0.00000000000E+00 -0.00000000000E+00 -0.10000000000E+04  0.10000000000E+04  0.00000000000E+00 0.  1.
    9000005    2    1    2  501    0  0.13759310513E-02  0.12044324966E-03 -0.89933152614E+03  0.11006684543E+04  0.63456587708E+03 0.  0.
         13    1    3    3    0    0 -0.23272704276E+03 -0.11129409137E+03 -0.77005840324E+03  0.81211956977E+03  0.00000000000E+00 0.  1.
          3    1    3    3  501    0  0.23272841869E+03  0.11129421182E+03 -0.12927312290E+03  0.28854888452E+03  0.00000000000E+00 0.  1.
         21    1    1    2  502  501 -0.13759310513E-02 -0.12044324966E-03  0.48728567343E-01  0.48748138099E-01  0.00000000000E+00 0. -1.
<mgrwt>
<rscale>  1 0.63456588E+03</rscale>
<asrwt>0</asrwt>
<pdfrwt beam="1">  1        1 0.36624514E+00 0.63456588E+03</pdfrwt>
<pdfrwt beam="2">0</pdfrwt>
<totfact> 0.18915736E+00</totfact>
</mgrwt>
</event>
<event>
 6    1  0.3653484E-003  0.6466049E+03  0.7818608E-02  0.9813171E-01
          1   -1    0    0  502    0  0.00000000000E+00  0.00000000000E+00  0.11187983893E+03  0.11187983893E+03  0.00000000000E+00 0.  1.
         13   -1    0    0    0    0 -0.00000000000E+00 -0.00000000000E+00 -0.10000000000E+04  0.10000000000E+04  0.00000000000E+00 0.  1.
    9000005    2    1    2  501    0  0.79050995094E+01  0.43639876665E+01 -0.89228221111E+03  0.11019371206E+04  0.64654183049E+03 0.  0.
         13    1    3    3    0    0 -0.20453380050E+03  0.21630587178E+03 -0.23458259242E+03  0.37901358601E+03  0.00000000000E+00 0.  1.
          3    1    3    3  501    0  0.21243890001E+03 -0.21194188412E+03 -0.65769961869E+03  0.72292353462E+03  0.00000000000E+00 0.  1.
         21    1    1    2  502  501 -0.79050995094E+01 -0.43639876665E+01  0.41620500462E+01  0.99427183001E+01  0.00000000000E+00 0. -1.
<mgrwt>
<rscale>  1 0.64660488E+03</rscale>
<asrwt>0</asrwt>
<pdfrwt beam="1">  1        1 0.40683664E+00 0.64660488E+03</pdfrwt>
<pdfrwt beam="2">0</pdfrwt>
<totfact> 0.12478702E+00</totfact>
</mgrwt>
</event>
<event>
 6    1  0.3653484E-003  0.6498176E+03  0.7818608E-02  0.9807122E-01
          1   -1    0    0  502    0  0.00000000000E+00  0.00000000000E+00  0.10560481596E+03  0.10560481596E+03  0.00000000000E+00 0.  1.
         13   -1    0    0    0    0 -0.00000000000E+00 -0.00000000000E+00 -0.10000000000E+04  0.10000000000E+04  0.00000000000E+00 0.  1.
    9000005    2    1    2  501    0 -0.23510886209E-01  0.15584141925E-01 -0.89442858332E+03  0.11055610994E+04  0.64981755364E+03 0.  0.
         13    1    3    3    0    0  0.50261850848E+02  0.16639179240E+03 -0.91424893342E+03  0.93062537817E+03  0.00000000000E+00 0.  1.
          3    1    3    3  501    0 -0.50285361734E+02 -0.16637620826E+03  0.19820350101E+02  0.17493572122E+03  0.00000000000E+00 0.  1.
         21    1    1    2  502  501  0.23510886209E-01 -0.15584141925E-01  0.33399272772E-01  0.43716572048E-01  0.00000000000E+00 0. -1.
<mgrwt>
<rscale>  1 0.64981755E+03</rscale>
<asrwt>0</asrwt>
<pdfrwt beam="1">  1        1 0.38401832E+00 0.64981755E+03</pdfrwt>
<pdfrwt beam="2">0</pdfrwt>
<totfact> 0.15753170E+00</totfact>
</mgrwt>
</event>
<event>
 6    1  0.3653484E-003  0.6651724E+03  0.7818608E-02  0.9778719E-01
          1   -1    0    0  502    0  0.00000000000E+00  0.00000000000E+00  0.11061493004E+03  0.11061493004E+03  0.00000000000E+00 0.  1.
         13   -1    0    0    0    0 -0.00000000000E+00 -0.00000000000E+00 -0.10000000000E+04  0.10000000000E+04  0.00000000000E+00 0.  1.
    9000005    2    1    2  501    0 -0.57762413235E-04 -0.21825575152E-03 -0.88938641871E+03  0.11106135625E+04  0.66517237126E+03 0.  0.
         13    1    3    3    0    0  0.17429914136E+03 -0.92964588229E+02  0.20499297879E+01  0.19755203759E+03  0.00000000000E+00 0.  1.
          3    1    3    3  501    0 -0.17429919912E+03  0.92964369973E+02 -0.89143634850E+03  0.91306152494E+03  0.00000000000E+00 0.  1.
         21    1    1    2  502  501  0.57762413241E-04  0.21825575152E-03  0.13487477613E-02  0.13675132881E-02  0.00000000000E+00 0. -1.
<mgrwt>
<rscale>  1 0.66517237E+03</rscale>
<asrwt>0</asrwt>
<pdfrwt beam="1">  1        1 0.40223696E+00 0.66517237E+03</pdfrwt>
<pdfrwt beam="2">0</pdfrwt>
<totfact> 0.13037409E+00</totfact>
</mgrwt>
</event>
<event>
 6    1  0.3653484E-003  0.6523436E+03  0.7818608E-02  0.9802391E-01
          1   -1    0    0  502    0  0.00000000000E+00  0.00000000000E+00  0.10638811893E+03  0.10638811893E+03  0.00000000000E+00 0.  1.
         13   -1    0    0    0    0 -0.00000000000E+00 -0.00000000000E+00 -0.10000000000E+04  0.10000000000E+04  0.00000000000E+00 0.  1.
    9000005    2    1    2  501    0 -0.68524050889E-04 -0.12385152331E-04 -0.89361193085E+03  0.11063880333E+04  0.65234361907E+03 0.  0.
         13    1    3    3    0    0  0.10066540179E+03 -0.35550255681E+02 -0.96952893193E+03  0.97538899607E+03  0.00000000000E+00 0.  1.
          1    1    3    3  501    0 -0.10066547031E+03  0.35550243296E+02  0.75917001079E+02  0.13099903727E+03  0.00000000000E+00 0.  1.
         21    1    1    2  502  501  0.68524050898E-04  0.12385152326E-04  0.49782795490E-04  0.85599440865E-04  0.00000000000E+00 0. -1.
<mgrwt>
<rscale>  1 0.65234362E+03</rscale>
<asrwt>0</asrwt>
<pdfrwt beam="1">  1        1 0.38686670E+00 0.65234362E+03</pdfrwt>
<pdfrwt beam="2">0</pdfrwt>
<totfact> 0.15295489E+00</totfact>
</mgrwt>
</event>
<event>
 6    1  0.3653484E-003  0.6544064E+03  0.7818608E-02  0.9798546E-01
          1   -1    0    0  502    0  0.00000000000E+00  0.00000000000E+00  0.10727936219E+03  0.10727936219E+03  0.00000000000E+00 0.  1.
         13   -1    0    0    0    0 -0.00000000000E+00 -0.00000000000E+00 -0.10000000000E+04  0.10000000000E+04  0.00000000000E+00 0.  1.
    9000005    2    1    2  501    0 -0.16786408748E+00 -0.46853113654E-01 -0.89289869949E+03  0.11070302046E+04  0.65440641490E+03 0.  0.
         13    1    3    3    0    0 -0.26878676823E+03 -0.17753155980E+03 -0.54449566509E+03  0.63264469554E+03  0.00000000000E+00 0.  1.
          3    1    3    3  501    0  0.26861890414E+03  0.17748470669E+03 -0.34840303441E+03  0.47438550901E+03  0.00000000000E+00 0.  1.
         21    1    1    2  502  501  0.16786408748E+00  0.46853113654E-01  0.17806168127E+00  0.24915763778E+00  0.00000000000E+00 0. -1.
<mgrwt>
<rscale>  1 0.65440644E+03</rscale>
<asrwt>0</asrwt>
<pdfrwt beam="1">  1        1 0.39010759E+00 0.65440644E+03</pdfrwt>
<pdfrwt beam="2">0</pdfrwt>
<totfact> 0.14792321E+00</totfact>
</mgrwt>
</event>
<event>
 6    1  0.3653484E-003  0.6475406E+03  0.7818608E-02  0.9811405E-01
          1   -1    0    0  502    0  0.00000000000E+00  0.00000000000E+00  0.10496892380E+03  0.10496892380E+03  0.00000000000E+00 0.  1.
         13   -1    0    0    0    0 -0.00000000000E+00 -0.00000000000E+00 -0.10000000000E+04  0.10000000000E+04  0.00000000000E+00 0.  1.
    9000005    2    1    2  501    0  0.16301955273E+00 -0.17939841361E+00 -0.89504780236E+03  0.11047259445E+04  0.64754056646E+03 0.  0.
         13    1    3    3    0    0  0.30984411377E+03  0.84770121532E+02 -0.51738283051E+03  0.60899453335E+03  0.00000000000E+00 0.  1.
          1    1    3    3  501    0 -0.30968109422E+03 -0.84949519946E+02 -0.37766497186E+03  0.49573141117E+03  0.00000000000E+00 0.  1.
         21    1    1    2  502  501 -0.16301955273E+00  0.17939841361E+00  0.16726161181E-01  0.24297927863E+00  0.00000000000E+00 0. -1.
<mgrwt>
<rscale>  1 0.64754061E+03</rscale>
<asrwt>0</asrwt>
<pdfrwt beam="1">  1        1 0.38170598E+00 0.64754061E+03</pdfrwt>
<pdfrwt beam="2">0</pdfrwt>
<totfact> 0.16134934E+00</totfact>
</mgrwt>
</event>
<event>
 6    1  0.3653484E-003  0.6369195E+03  0.7818608E-02  0.9831638E-01
          1   -1    0    0  502    0  0.00000000000E+00  0.00000000000E+00  0.10148017834E+03  0.10148017834E+03  0.00000000000E+00 0.  1.
         13   -1    0    0    0    0 -0.00000000000E+00 -0.00000000000E+00 -0.10000000000E+04  0.10000000000E+04  0.00000000000E+00 0.  1.
    9000005    2    1    2  501    0 -0.16716166967E+00  0.10585351840E+00 -0.89819342782E+03  0.11010984966E+04  0.63691948185E+03 0.  0.
         13    1    3    3    0    0  0.18413907365E+03  0.12287948848E+03 -0.53349009639E+02  0.22771184414E+03  0.00000000000E+00 0.  1.
          1    1    3    3  501    0 -0.18430623532E+03 -0.12277363496E+03 -0.84484441818E+03  0.87338665249E+03  0.00000000000E+00 0.  1.
         21    1    1    2  502  501  0.16716166967E+00 -0.10585351840E+00 -0.32639383413E+00  0.38168170787E+00  0.00000000000E+00 0.  1.
<mgrwt>
<rscale>  1 0.63691951E+03</rscale>
<asrwt>0</asrwt>
<pdfrwt beam="1">  1        1 0.36901961E+00 0.63691951E+03</pdfrwt>
<pdfrwt beam="2">0</pdfrwt>
<totfact> 0.18385062E+00</totfact>
</mgrwt>
</event>
<event>
 6    1  0.3653484E-003  0.6408217E+03  0.7818608E-02  0.9824156E-01
          1   -1    0    0  502    0  0.00000000000E+00  0.00000000000E+00  0.10266310765E+03  0.10266310765E+03  0.00000000000E+00 0.  1.
         13   -1    0    0    0    0 -0.00000000000E+00 -0.00000000000E+00 -0.10000000000E+04  0.10000000000E+04  0.00000000000E+00 0.  1.
    9000005    2    1    2  501    0 -0.52945745210E-06  0.20759671884E-05 -0.89733689329E+03  0.11026631053E+04  0.64082167859E+03 0.  0.
         13    1    3    3    0    0  0.23091475451E+03  0.16144387966E+03 -0.18614235562E+03  0.33769028219E+03  0.00000000000E+00 0.  1.
          1    1    3    3  501    0 -0.23091475503E+03 -0.16144387759E+03 -0.71119453767E+03  0.76497282312E+03  0.00000000000E+00 0.  1.
         21    1    1    2  502  501  0.52945746517E-06 -0.20759671704E-05  0.93943344041E-06  0.23393375321E-05  0.00000000000E+00 0.  1.
<mgrwt>
<rscale>  1 0.64082168E+03</rscale>
<asrwt>0</asrwt>
<pdfrwt beam="1">  1        1 0.37332118E+00 0.64082168E+03</pdfrwt>
<pdfrwt beam="2">0</pdfrwt>
<totfact> 0.17589536E+00</totfact>
</mgrwt>
</event>
<event>
 6    1  0.3653484E-003  0.6350421E+03  0.7818608E-02  0.9835259E-01
          1   -1    0    0  502    0  0.00000000000E+00  0.00000000000E+00  0.10083957255E+03  0.10083957255E+03  0.00000000000E+00 0.  1.
         13   -1    0    0    0    0 -0.00000000000E+00 -0.00000000000E+00 -0.10000000000E+04  0.10000000000E+04  0.00000000000E+00 0.  1.
    9000005    2    1    2  501    0 -0.13842450800E-02  0.22053429573E-02 -0.89918029058E+03  0.11008195395E+04  0.63504209588E+03 0.  0.
         13    1    3    3    0    0 -0.22851522975E+03  0.12060726875E+03 -0.76948335435E+03  0.81170804857E+03  0.00000000000E+00 0.  1.
          3    1    3    3  501    0  0.22851384551E+03 -0.12060506341E+03 -0.12969693624E+03  0.28911149091E+03  0.00000000000E+00 0.  1.
         21    1    1    2  502  501  0.13842450800E-02 -0.22053429573E-02  0.19863134287E-01  0.20033067057E-01  0.00000000000E+00 0.  1.
<mgrwt>
<rscale>  1 0.63504210E+03</rscale>
<asrwt>0</asrwt>
<pdfrwt beam="1">  1        1 0.36669013E+00 0.63504210E+03</pdfrwt>
<pdfrwt beam="2">0</pdfrwt>
<totfact> 0.18829310E+00</totfact>
</mgrwt>
</event>
<event>
 6    1  0.3653484E-003  0.5963520E+03  0.7818608E-02  0.9913003E-01
          1   -1    0    0  502    0  0.00000000000E+00  0.00000000000E+00  0.89344635221E+02  0.89344635221E+02  0.00000000000E+00 0.  1.
         13   -1    0    0    0    0 -0.00000000000E+00 -0.00000000000E+00 -0.10000000000E+04  0.10000000000E+04  0.00000000000E+00 0.  1.
    9000005    2    1    2  501    0 -0.25598004141E+00 -0.14546568577E+00 -0.91103633827E+03  0.10888631512E+04  0.59635196463E+03 0.  0.
         13    1    3    3    0    0  0.15566762836E+02 -0.14571212852E+03 -0.92976835262E+03  0.94124573733E+03  0.00000000000E+00 0.  1.
          3    1    3    3  501    0 -0.15822742878E+02  0.14556666283E+03  0.18732014345E+02  0.14761741388E+03  0.00000000000E+00 0.  1.
         21    1    1    2  502  501  0.25598004141E+00  0.14546568577E+00  0.38097349536E+00  0.48148400960E+00  0.00000000000E+00 0.  1.
<mgrwt>
<rscale>  1 0.59635204E+03</rscale>
<asrwt>0</asrwt>
<pdfrwt beam="1">  1        1 0.32489027E+00 0.59635204E+03</pdfrwt>
<pdfrwt beam="2">0</pdfrwt>
<totfact> 0.28825381E+00</totfact>
</mgrwt>
</event>
<event>
 6    1  0.3653484E-003  0.6224214E+03  0.7818608E-02  0.9859951E-01
          1   -1    0    0  502    0  0.00000000000E+00  0.00000000000E+00  0.97076137129E+02  0.97076137129E+02  0.00000000000E+00 0.  1.
         13   -1    0    0    0    0 -0.00000000000E+00 -0.00000000000E+00 -0.10000000000E+04  0.10000000000E+04  0.00000000000E+00 0.  1.
    9000005    2    1    2  501    0 -0.10831814725E-02 -0.49943314781E-02 -0.90314788122E+03  0.10968520605E+04  0.62242135829E+03 0.  0.
         13    1    3    3    0    0  0.75502782770E+01  0.29789041461E+03 -0.60972920978E+03  0.67864969983E+03  0.00000000000E+00 0.  1.
          1    1    3    3  501    0 -0.75513614584E+01 -0.29789540894E+03 -0.29341867144E+03  0.41820236067E+03  0.00000000000E+00 0.  1.
         21    1    1    2  502  501  0.10831814725E-02  0.49943314781E-02  0.22401834519E+00  0.22407662888E+00  0.00000000000E+00 0.  1.
<mgrwt>
<rscale>  1 0.62242136E+03</rscale>
<asrwt>0</asrwt>
<pdfrwt beam="1">  1        1 0.35300488E+00 0.62242136E+03</pdfrwt>
<pdfrwt beam="2">0</pdfrwt>
<totfact> 0.21660777E+00</totfact>
</mgrwt>
</event>
<event>
 6    1  0.3653484E-003  0.6417619E+03  0.7818608E-02  0.9822361E-01
          1   -1    0    0  502    0  0.00000000000E+00  0.00000000000E+00  0.10475577271E+03  0.10475577271E+03  0.00000000000E+00 0.  1.
         13   -1    0    0    0    0 -0.00000000000E+00 -0.00000000000E+00 -0.10000000000E+04  0.10000000000E+04  0.00000000000E+00 0.  1.
    9000005    2    1    2  501    0 -0.10374812030E+01  0.19227385439E+01 -0.89627000710E+03  0.11023421623E+04  0.64175816626E+03 0.  0.
         13    1    3    3    0    0 -0.10257450384E+03 -0.79238643875E+02  0.56032607968E+02  0.14120886897E+03  0.00000000000E+00 0.  1.
          3    1    3    3  501    0  0.10153702264E+03  0.81161382419E+02 -0.95230261507E+03  0.96113329337E+03  0.00000000000E+00 0.  1.
         21    1    1    2  502  501  0.10374812030E+01 -0.19227385439E+01  0.10257798088E+01  0.24136103602E+01  0.00000000000E+00 0. -1.
<mgrwt>
<rscale>  1 0.64176189E+03</rscale>
<asrwt>0</asrwt>
<pdfrwt beam="1">  1        1 0.38093089E+00 0.64176189E+03</pdfrwt>
<pdfrwt beam="2">0</pdfrwt>
<totfact> 0.16279930E+00</totfact>
</mgrwt>
</event>
<event>
 6    1  0.3653484E-003  0.5738954E+03  0.7818608E-02  0.9961095E-01
          1   -1    0    0  502    0  0.00000000000E+00  0.00000000000E+00  0.82339126993E+02  0.82339126993E+02  0.00000000000E+00 0.  1.
         13   -1    0    0    0    0 -0.00000000000E+00 -0.00000000000E+00 -0.10000000000E+04  0.10000000000E+04  0.00000000000E+00 0.  1.
    9000005    2    1    2  501    0  0.75562192990E-04 -0.20770790428E-04 -0.91766100367E+03  0.10823389746E+04  0.57389540716E+03 0.  0.
         13    1    3    3    0    0  0.20947119822E+03 -0.13196298648E+03 -0.73243391182E+03  0.77314413137E+03  0.00000000000E+00 0.  1.
          3    1    3    3  501    0 -0.20947112266E+03  0.13196296571E+03 -0.18522709185E+03  0.30919484327E+03  0.00000000000E+00 0.  1.
         21    1    1    2  502  501 -0.75562192995E-04  0.20770790443E-04  0.13065976967E-03  0.15235828220E-03  0.00000000000E+00 0.  1.
<mgrwt>
<rscale>  1 0.57389541E+03</rscale>
<asrwt>0</asrwt>
<pdfrwt beam="1">  1        1 0.29941564E+00 0.57389541E+03</pdfrwt>
<pdfrwt beam="2">0</pdfrwt>
<totfact> 0.37285140E+00</totfact>
</mgrwt>
</event>
<event>
 6    1  0.3653484E-003  0.5663305E+03  0.7818608E-02  0.9977832E-01
          1   -1    0    0  502    0  0.00000000000E+00  0.00000000000E+00  0.81071701136E+02  0.81071701136E+02  0.00000000000E+00 0.  1.
         13   -1    0    0    0    0 -0.00000000000E+00 -0.00000000000E+00 -0.10000000000E+04  0.10000000000E+04  0.00000000000E+00 0.  1.
    9000005    2    1    2  501    0  0.10719962745E-01 -0.58400274796E-02 -0.91981740945E+03  0.10801825067E+04  0.56633045211E+03 0.  0.
         13    1    3    3    0    0 -0.33469685415E+02 -0.27952838253E+03 -0.51799950633E+03  0.58955900895E+03  0.00000000000E+00 0.  1.
          3    1    3    3  501    0  0.33480405378E+02  0.27952254250E+03 -0.40181790313E+03  0.49062349779E+03  0.00000000000E+00 0.  1.
         21    1    1    2  502  501 -0.10719962745E-01  0.58400274796E-02  0.88911059068E+00  0.88919439156E+00  0.00000000000E+00 0.  1.
<mgrwt>
<rscale>  1 0.56633045E+03</rscale>
<asrwt>0</asrwt>
<pdfrwt beam="1">  1        1 0.29480681E+00 0.56633045E+03</pdfrwt>
<pdfrwt beam="2">0</pdfrwt>
<totfact> 0.39083420E+00</totfact>
</mgrwt>
</event>
<event>
 6    1  0.3653484E-003  0.6771695E+03  0.7818608E-02  0.9757092E-01
          1   -1    0    0  502    0  0.00000000000E+00  0.00000000000E+00  0.11471053178E+03  0.11471053178E+03  0.00000000000E+00 0.  1.
         13   -1    0    0    0    0 -0.00000000000E+00 -0.00000000000E+00 -0.10000000000E+04  0.10000000000E+04  0.00000000000E+00 0.  1.
    9000005    2    1    2  501    0  0.11652896287E-02  0.14668032190E-02 -0.88536036137E+03  0.11146396139E+04  0.67716947609E+03 0.  0.
         13    1    3    3    0    0 -0.98524111869E+01  0.31699633694E+03 -0.63783309056E+03  0.71233054058E+03  0.00000000000E+00 0.  1.
          3    1    3    3  501    0  0.98535764766E+01 -0.31699487014E+03 -0.24752727081E+03  0.40230907330E+03  0.00000000000E+00 0.  1.
         21    1    1    2  502  501 -0.11652896287E-02 -0.14668032190E-02  0.70893145147E-01  0.70917892245E-01  0.00000000000E+00 0.  1.
<mgrwt>
<rscale>  1 0.67716948E+03</rscale>
<asrwt>0</asrwt>
<pdfrwt beam="1">  1        1 0.41713009E+00 0.67716948E+03</pdfrwt>
<pdfrwt beam="2">0</pdfrwt>
<totfact> 0.11153448E+00</totfact>
</mgrwt>
</event>
<event>
 6    1  0.3653484E-003  0.6442598E+03  0.7818608E-02  0.9817610E-01
          3   -1    0    0  502    0  0.00000000000E+00  0.00000000000E+00  0.10787490073E+03  0.10787490073E+03  0.00000000000E+00 0.  1.
         13   -1    0    0    0    0 -0.00000000000E+00 -0.00000000000E+00 -0.10000000000E+04  0.10000000000E+04  0.00000000000E+00 0.  1.
    9000005    2    1    2  501    0 -0.82896072187E-02  0.65197200900E-01 -0.89623203964E+03  0.11037674345E+04  0.64425978947E+03 0.  0.
         13    1    3    3    0    0  0.30593218543E+03  0.86309818306E+02 -0.35865855840E+03  0.47924925491E+03  0.00000000000E+00 0.  1.
          3    1    3    3  501    0 -0.30594047504E+03 -0.86244621106E+02 -0.53757348124E+03  0.62451817962E+03  0.00000000000E+00 0.  1.
         21    1    1    2  502  501  0.82896072187E-02 -0.65197200900E-01  0.41069403745E+01  0.41074662058E+01  0.00000000000E+00 0.  1.
<mgrwt>
<rscale>  1 0.64425979E+03</rscale>
<asrwt>0</asrwt>
<pdfrwt beam="1">  1        3 0.39227319E+00 0.64425979E+03</pdfrwt>
<pdfrwt beam="2">0</pdfrwt>
<totfact> 0.65099609E-02</totfact>
</mgrwt>
</event>
<event>
 6    1  0.3653484E-003  0.6487240E+03  0.7818608E-02  0.9809176E-01
          1   -1    0    0  502    0  0.00000000000E+00  0.00000000000E+00  0.10522516945E+03  0.10522516945E+03  0.00000000000E+00 0.  1.
         13   -1    0    0    0    0 -0.00000000000E+00 -0.00000000000E+00 -0.10000000000E+04  0.10000000000E+04  0.00000000000E+00 0.  1.
    9000005    2    1    2  501    0 -0.20294410884E-03  0.35037323516E-03 -0.89478928256E+03  0.11052107118E+04  0.64872402239E+03 0.  0.
         13    1    3    3    0    0  0.51940170085E+02 -0.51510356718E+02  0.90974350867E+02  0.11673658652E+03  0.00000000000E+00 0.  1.
          1    1    3    3  501    0 -0.51940373029E+02  0.51510707091E+02 -0.98576363343E+03  0.98847412525E+03  0.00000000000E+00 0.  1.
         21    1    1    2  502  501  0.20294410884E-03 -0.35037323516E-03  0.14452010116E-01  0.14457681145E-01  0.00000000000E+00 0. -1.
<mgrwt>
<rscale>  1 0.64872402E+03</rscale>
<asrwt>0</asrwt>
<pdfrwt beam="1">  1        1 0.38263779E+00 0.64872402E+03</pdfrwt>
<pdfrwt beam="2">0</pdfrwt>
<totfact> 0.15979265E+00</totfact>
</mgrwt>
</event>
<event>
 6    1  0.3653484E-003  0.6590572E+03  0.7818608E-02  0.9789931E-01
          1   -1    0    0  502    0  0.00000000000E+00  0.00000000000E+00  0.10858914899E+03  0.10858914899E+03  0.00000000000E+00 0.  1.
         13   -1    0    0    0    0 -0.00000000000E+00 -0.00000000000E+00 -0.10000000000E+04  0.10000000000E+04  0.00000000000E+00 0.  1.
    9000005    2    1    2  501    0  0.41237745734E-05  0.20033868225E-04 -0.89141088449E+03  0.11085891098E+04  0.65905724280E+03 0.  0.
         13    1    3    3    0    0  0.19467045327E+03 -0.26259017565E+03 -0.37556191580E+03  0.49789249675E+03  0.00000000000E+00 0.  1.
          3    1    3    3  501    0 -0.19467044915E+03  0.26259019568E+03 -0.51584896869E+03  0.61069661301E+03  0.00000000000E+00 0.  1.
         21    1    1    2  502  501 -0.41237745561E-05 -0.20033868231E-04  0.33474362697E-04  0.39228743937E-04  0.00000000000E+00 0. -1.
<mgrwt>
<rscale>  1 0.65905724E+03</rscale>
<asrwt>0</asrwt>
<pdfrwt beam="1">  1        1 0.39487047E+00 0.65905724E+03</pdfrwt>
<pdfrwt beam="2">0</pdfrwt>
<totfact> 0.14077010E+00</totfact>
</mgrwt>
</event>
<event>
 6    1  0.3653484E-003  0.6355913E+03  0.7818608E-02  0.9834198E-01
          1   -1    0    0  502    0  0.00000000000E+00  0.00000000000E+00  0.10135183643E+03  0.10135183643E+03  0.00000000000E+00 0.  1.
         13   -1    0    0    0    0 -0.00000000000E+00 -0.00000000000E+00 -0.10000000000E+04  0.10000000000E+04  0.00000000000E+00 0.  1.
    9000005    2    1    2  501    0 -0.46737557596E+00 -0.27311190129E+00 -0.89876565513E+03  0.11007979102E+04  0.63559109745E+03 0.  0.
         13    1    3    3    0    0 -0.27506025160E+03  0.15756577152E+03 -0.49179645448E+03  0.58510585965E+03  0.00000000000E+00 0.  1.
          3    1    3    3  501    0  0.27459287602E+03 -0.15783888342E+03 -0.40696920065E+03  0.51569205051E+03  0.00000000000E+00 0.  1.
         21    1    1    2  502  501  0.46737557596E+00  0.27311190129E+00  0.11749155172E+00  0.55392626256E+00  0.00000000000E+00 0.  1.
<mgrwt>
<rscale>  1 0.63559133E+03</rscale>
<asrwt>0</asrwt>
<pdfrwt beam="1">  1        1 0.36855291E+00 0.63559133E+03</pdfrwt>
<pdfrwt beam="2">0</pdfrwt>
<totfact> 0.18476455E+00</totfact>
</mgrwt>
</event>
<event>
 6    1  0.3653484E-003  0.6509904E+03  0.7818608E-02  0.9804923E-01
          1   -1    0    0  502    0  0.00000000000E+00  0.00000000000E+00  0.10617958678E+03  0.10617958678E+03  0.00000000000E+00 0.  1.
         13   -1    0    0    0    0 -0.00000000000E+00 -0.00000000000E+00 -0.10000000000E+04  0.10000000000E+04  0.00000000000E+00 0.  1.
    9000005    2    1    2  501    0  0.34951557308E-01  0.90123582454E-02 -0.89405131838E+03  0.11059458775E+04  0.65099041681E+03 0.  0.
         13    1    3    3    0    0 -0.54044555794E+02  0.94873168036E+02  0.73906658207E+02  0.13184811774E+03  0.00000000000E+00 0.  1.
          1    1    3    3  501    0  0.54079507351E+02 -0.94864155678E+02 -0.96795797658E+03  0.97409775977E+03  0.00000000000E+00 0.  1.
         21    1    1    2  502  501 -0.34951557308E-01 -0.90123582454E-02  0.23090515587E+00  0.23370927445E+00  0.00000000000E+00 0. -1.
<mgrwt>
<rscale>  1 0.65099042E+03</rscale>
<asrwt>0</asrwt>
<pdfrwt beam="1">  1        1 0.38610840E+00 0.65099042E+03</pdfrwt>
<pdfrwt beam="2">0</pdfrwt>
<totfact> 0.15418024E+00</totfact>
</mgrwt>
</event>
<event>
 6    1  0.3653484E-003  0.6560534E+03  0.7818608E-02  0.9795486E-01
          1   -1    0    0  502    0  0.00000000000E+00  0.00000000000E+00  0.10761770726E+03  0.10761770726E+03  0.00000000000E+00 0.  1.
         13   -1    0    0    0    0 -0.00000000000E+00 -0.00000000000E+00 -0.10000000000E+04  0.10000000000E+04  0.00000000000E+00 0.  1.
    9000005    2    1    2  501    0 -0.10651127587E-02  0.42284058900E-01 -0.89227228610E+03  0.11074998491E+04  0.65605341360E+03 0.  0.
         13    1    3    3    0    0  0.16208050071E+03 -0.26324456626E+03 -0.63121019972E+03  0.70284714313E+03  0.00000000000E+00 0.  1.
          1    1    3    3  501    0 -0.16208156582E+03  0.26328685032E+03 -0.26106208638E+03  0.40465270600E+03  0.00000000000E+00 0.  1.
         21    1    1    2  502  501  0.10651127587E-02 -0.42284058900E-01 -0.11000664372E+00  0.11785812558E+00  0.00000000000E+00 0. -1.
<mgrwt>
<rscale>  1 0.65605341E+03</rscale>
<asrwt>0</asrwt>
<pdfrwt beam="1">  1        1 0.39133794E+00 0.65605341E+03</pdfrwt>
<pdfrwt beam="2">0</pdfrwt>
<totfact> 0.14603104E+00</totfact>
</mgrwt>
</event>
<event>
 6    1  0.3653484E-003  0.6464611E+03  0.7818608E-02  0.9813442E-01
          1   -1    0    0  502    0  0.00000000000E+00  0.00000000000E+00  0.10453847845E+03  0.10453847845E+03  0.00000000000E+00 0.  1.
         13   -1    0    0    0    0 -0.00000000000E+00 -0.00000000000E+00 -0.10000000000E+04  0.10000000000E+04  0.00000000000E+00 0.  1.
    9000005    2    1    2  501    0  0.10101298596E-01 -0.60260631703E-02 -0.89552137098E+03  0.11044774842E+04  0.64646112567E+03 0.  0.
         13    1    3    3    0    0  0.32857786100E+01  0.46573932896E+02  0.98686341115E+02  0.10917381320E+03  0.00000000000E+00 0.  1.
          3    1    3    3  501    0 -0.32756773114E+01 -0.46579958959E+02 -0.99420771209E+03  0.99530367096E+03  0.00000000000E+00 0.  1.
         21    1    1    2  502  501 -0.10101298596E-01  0.60260631703E-02  0.59849426704E-01  0.60994291106E-01  0.00000000000E+00 0.  1.
<mgrwt>
<rscale>  1 0.64646113E+03</rscale>
<asrwt>0</asrwt>
<pdfrwt beam="1">  1        1 0.38014072E+00 0.64646113E+03</pdfrwt>
<pdfrwt beam="2">0</pdfrwt>
<totfact> 0.16396941E+00</totfact>
</mgrwt>
</event>
<event>
 6    1  0.3653484E-003  0.6920058E+03  0.7818608E-02  0.9731002E-01
          1   -1    0    0  502    0  0.00000000000E+00  0.00000000000E+00  0.11972200595E+03  0.11972200595E+03  0.00000000000E+00 0.  1.
         13   -1    0    0    0    0 -0.00000000000E+00 -0.00000000000E+00 -0.10000000000E+04  0.10000000000E+04  0.00000000000E+00 0.  1.
    9000005    2    1    2  501    0 -0.60720011533E-04  0.51778108161E-03 -0.88028198225E+03  0.11197179838E+04  0.69200577672E+03 0.  0.
         13    1    3    3    0    0  0.19119748261E+03 -0.27704761885E+03 -0.56964728534E+03  0.66167204125E+03  0.00000000000E+00 0.  1.
          3    1    3    3  501    0 -0.19119754333E+03  0.27704813663E+03 -0.31063469691E+03  0.45804594257E+03  0.00000000000E+00 0.  1.
         21    1    1    2  502  501  0.60720011515E-04 -0.51778108160E-03  0.39882002928E-02  0.40221295036E-02  0.00000000000E+00 0. -1.
<mgrwt>
<rscale>  1 0.69200578E+03</rscale>
<asrwt>0</asrwt>
<pdfrwt beam="1">  1        1 0.43535367E+00 0.69200578E+03</pdfrwt>
<pdfrwt beam="2">0</pdfrwt>
<totfact> 0.91950680E-01</totfact>
</mgrwt>
</event>
<event>
 6    1  0.3653484E-003  0.6490953E+03  0.7818608E-02  0.9808478E-01
          1   -1    0    0  502    0  0.00000000000E+00  0.00000000000E+00  0.10547564879E+03  0.10547564879E+03  0.00000000000E+00 0.  1.
         13   -1    0    0    0    0 -0.00000000000E+00 -0.00000000000E+00 -0.10000000000E+04  0.10000000000E+04  0.00000000000E+00 0.  1.
    9000005    2    1    2  501    0  0.58431882910E-01  0.36894661109E+00 -0.89432295916E+03  0.11050512732E+04  0.64909523304E+03 0.  0.
         13    1    3    3    0    0  0.19464416077E+03  0.25307749801E+02 -0.71133440698E+01  0.19641138253E+03  0.00000000000E+00 0.  1.
          1    1    3    3  501    0 -0.19458572889E+03 -0.24938803190E+02 -0.88720961509E+03  0.90863989066E+03  0.00000000000E+00 0.  1.
         21    1    1    2  502  501 -0.58431882910E-01 -0.36894661109E+00 -0.20139205312E+00  0.42437559524E+00  0.00000000000E+00 0. -1.
<mgrwt>
<rscale>  1 0.64909534E+03</rscale>
<asrwt>0</asrwt>
<pdfrwt beam="1">  1        1 0.38354862E+00 0.64909534E+03</pdfrwt>
<pdfrwt beam="2">0</pdfrwt>
<totfact> 0.15830773E+00</totfact>
</mgrwt>
</event>
<event>
 6    1  0.3653484E-003  0.6526182E+03  0.7818608E-02  0.9801879E-01
          1   -1    0    0  502    0  0.00000000000E+00  0.00000000000E+00  0.10647817918E+03  0.10647817918E+03  0.00000000000E+00 0.  1.
         13   -1    0    0    0    0 -0.00000000000E+00 -0.00000000000E+00 -0.10000000000E+04  0.10000000000E+04  0.00000000000E+00 0.  1.
    9000005    2    1    2  501    0  0.32714641236E-04 -0.14411538899E-04 -0.89352236389E+03  0.11064776349E+04  0.65261822057E+03 0.  0.
         13    1    3    3    0    0 -0.16288849427E+03 -0.20494465526E+03 -0.11650775129E+03  0.28654673161E+03  0.00000000000E+00 0.  1.
          1    1    3    3  501    0  0.16288852698E+03  0.20494464084E+03 -0.77701461260E+03  0.81993090333E+03  0.00000000000E+00 0.  1.
         21    1    1    2  502  501 -0.32714641232E-04  0.14411538880E-04  0.54306888541E-03  0.54424420484E-03  0.00000000000E+00 0.  1.
<mgrwt>
<rscale>  1 0.65261822E+03</rscale>
<asrwt>0</asrwt>
<pdfrwt beam="1">  1        1 0.38719420E+00 0.65261822E+03</pdfrwt>
<pdfrwt beam="2">0</pdfrwt>
<totfact> 0.15243728E+00</totfact>
</mgrwt>
</event>
<event>
 6    1  0.3653484E-003  0.6361256E+03  0.7818608E-02  0.9833168E-01
          1   -1    0    0  502    0  0.00000000000E+00  0.00000000000E+00  0.10117277021E+03  0.10117277021E+03  0.00000000000E+00 0.  1.
         13   -1    0    0    0    0 -0.00000000000E+00 -0.00000000000E+00 -0.10000000000E+04  0.10000000000E+04  0.00000000000E+00 0.  1.
    9000005    2    1    2  501    0  0.42364928843E-02  0.56171347547E-02 -0.89883450148E+03  0.11011626520E+04  0.63612555766E+03 0.  0.
         13    1    3    3    0    0  0.20292482715E+03  0.24147125528E+03 -0.37848529150E+03  0.49268445123E+03  0.00000000000E+00 0.  1.
          1    1    3    3  501    0 -0.20292059066E+03 -0.24146563814E+03 -0.52034920999E+03  0.60847820080E+03  0.00000000000E+00 0.  1.
         21    1    1    2  502  501 -0.42364928843E-02 -0.56171347547E-02  0.72716972668E-02  0.10118184420E-01  0.00000000000E+00 0.  1.
<mgrwt>
<rscale>  1 0.63612556E+03</rscale>
<asrwt>0</asrwt>
<pdfrwt beam="1">  1        1 0.36790176E+00 0.63612556E+03</pdfrwt>
<pdfrwt beam="2">0</pdfrwt>
<totfact> 0.18596615E+00</totfact>
</mgrwt>
</event>
<event>
 6    1  0.3653484E-003  0.5926229E+03  0.7818608E-02  0.9920831E-01
          1   -1    0    0  502    0  0.00000000000E+00  0.00000000000E+00  0.92296570664E+02  0.92296570664E+02  0.00000000000E+00 0.  1.
         13   -1    0    0    0    0 -0.00000000000E+00 -0.00000000000E+00 -0.10000000000E+04  0.10000000000E+04  0.00000000000E+00 0.  1.
    9000005    2    1    2  501    0 -0.33768034461E+00 -0.17679124152E+01 -0.91200289149E+03  0.10876355711E+04  0.59262013283E+03 0.  0.
         13    1    3    3    0    0  0.29316920651E+03  0.96554101405E+01 -0.38134032774E+03  0.48110482865E+03  0.00000000000E+00 0.  1.
          1    1    3    3  501    0 -0.29350688686E+03 -0.11423322556E+02 -0.53066256376E+03  0.60653074242E+03  0.00000000000E+00 0.  1.
         21    1    1    2  502  501  0.33768034461E+00  0.17679124152E+01  0.42994621582E+01  0.46609995895E+01  0.00000000000E+00 0. -1.
<mgrwt>
<rscale>  1 0.59262287E+03</rscale>
<asrwt>0</asrwt>
<pdfrwt beam="1">  1        1 0.33562460E+00 0.59262287E+03</pdfrwt>
<pdfrwt beam="2">0</pdfrwt>
<totfact> 0.25916956E+00</totfact>
</mgrwt>
</event>
<event>
 6    1  0.3653484E-003  0.6467920E+03  0.7818608E-02  0.9812817E-01
          1   -1    0    0  502    0  0.00000000000E+00  0.00000000000E+00  0.11147795126E+03  0.11147795126E+03  0.00000000000E+00 0.  1.
         13   -1    0    0    0    0 -0.00000000000E+00 -0.00000000000E+00 -0.10000000000E+04  0.10000000000E+04  0.00000000000E+00 0.  1.
    9000005    2    1    2  501    0 -0.18977374264E+01  0.58195572258E+01 -0.89388140588E+03  0.11033421438E+04  0.64676305547E+03 0.  0.
         13    1    3    3    0    0 -0.62599780223E+02 -0.31304146430E+03 -0.49602469230E+03  0.58987641606E+03  0.00000000000E+00 0.  1.
          1    1    3    3  501    0  0.60702042797E+02  0.31886102153E+03 -0.39785671358E+03  0.51346572777E+03  0.00000000000E+00 0.  1.
         21    1    1    2  502  501  0.18977374264E+01 -0.58195572258E+01  0.53593571402E+01  0.81358074338E+01  0.00000000000E+00 0. -1.
<mgrwt>
<rscale>  1 0.64679202E+03</rscale>
<asrwt>0</asrwt>
<pdfrwt beam="1">  1        1 0.40537522E+00 0.64679202E+03</pdfrwt>
<pdfrwt beam="2">0</pdfrwt>
<totfact> 0.12667445E+00</totfact>
</mgrwt>
</event>
<event>
 6    1  0.3653484E-003  0.6434661E+03  0.7818608E-02  0.9819117E-01
          1   -1    0    0  502    0  0.00000000000E+00  0.00000000000E+00  0.10387477133E+03  0.10387477133E+03  0.00000000000E+00 0.  1.
         13   -1    0    0    0    0 -0.00000000000E+00 -0.00000000000E+00 -0.10000000000E+04  0.10000000000E+04  0.00000000000E+00 0.  1.
    9000005    2    1    2  501    0 -0.12017026844E-01 -0.67461087621E-01 -0.89648426378E+03  0.11035092558E+04  0.64346611230E+03 0.  0.
         13    1    3    3    0    0  0.10027346187E+03 -0.28179239495E+03 -0.65168970773E+03  0.71705034423E+03  0.00000000000E+00 0.  1.
          1    1    3    3  501    0 -0.10028547889E+03  0.28172493386E+03 -0.24479455606E+03  0.38645891154E+03  0.00000000000E+00 0.  1.
         21    1    1    2  502  501  0.12017026844E-01  0.67461087621E-01  0.35903511680E+00  0.36551555695E+00  0.00000000000E+00 0. -1.
<mgrwt>
<rscale>  1 0.64346612E+03</rscale>
<asrwt>0</asrwt>
<pdfrwt beam="1">  1        1 0.37772724E+00 0.64346612E+03</pdfrwt>
<pdfrwt beam="2">0</pdfrwt>
<totfact> 0.16812992E+00</totfact>
</mgrwt>
</event>
<event>
 6    1  0.3653484E-003  0.6444239E+03  0.7818608E-02  0.9817299E-01
          1   -1    0    0  502    0  0.00000000000E+00  0.00000000000E+00  0.10393793527E+03  0.10393793527E+03  0.00000000000E+00 0.  1.
         13   -1    0    0    0    0 -0.00000000000E+00 -0.00000000000E+00 -0.10000000000E+04  0.10000000000E+04  0.00000000000E+00 0.  1.
    9000005    2    1    2  501    0  0.10311794034E-01  0.13253144648E-01 -0.89617881145E+03  0.11038199871E+04  0.64442385236E+03 0.  0.
         13    1    3    3    0    0 -0.11697179293E+03  0.24521892025E+03 -0.74481194751E+03  0.79281747984E+03  0.00000000000E+00 0.  1.
          3    1    3    3  501    0  0.11698210472E+03 -0.24520566711E+03 -0.15136686395E+03  0.31100250724E+03  0.00000000000E+00 0.  1.
         21    1    1    2  502  501 -0.10311794034E-01 -0.13253144648E-01  0.11674672190E+00  0.11794819208E+00  0.00000000000E+00 0.  1.
<mgrwt>
<rscale>  1 0.64442385E+03</rscale>
<asrwt>0</asrwt>
<pdfrwt beam="1">  1        1 0.37795693E+00 0.64442385E+03</pdfrwt>
<pdfrwt beam="2">0</pdfrwt>
<totfact> 0.16770897E+00</totfact>
</mgrwt>
</event>
<event>
 6    1  0.3653484E-003  0.6453130E+03  0.7818608E-02  0.9815614E-01
          1   -1    0    0  502    0  0.00000000000E+00  0.00000000000E+00  0.10411297786E+03  0.10411297786E+03  0.00000000000E+00 0.  1.
         13   -1    0    0    0    0 -0.00000000000E+00 -0.00000000000E+00 -0.10000000000E+04  0.10000000000E+04  0.00000000000E+00 0.  1.
    9000005    2    1    2  501    0 -0.30340108977E-02  0.25803971770E-02 -0.89589199625E+03  0.11041066056E+04  0.64531304621E+03 0.  0.
         13    1    3    3    0    0  0.46967009764E+02 -0.75010140067E+02 -0.97882500308E+03  0.98281778971E+03  0.00000000000E+00 0.  1.
          1    1    3    3  501    0 -0.46970043775E+02  0.75012720464E+02  0.82933006825E+02  0.12128881591E+03  0.00000000000E+00 0.  1.
         21    1    1    2  502  501  0.30340108977E-02 -0.25803971770E-02  0.49741165963E-02  0.63722451014E-02  0.00000000000E+00 0. -1.
<mgrwt>
<rscale>  1 0.64531305E+03</rscale>
<asrwt>0</asrwt>
<pdfrwt beam="1">  1        1 0.37859345E+00 0.64531305E+03</pdfrwt>
<pdfrwt beam="2">0</pdfrwt>
<totfact> 0.16660164E+00</totfact>
</mgrwt>
</event>
<event>
 6    1  0.3653484E-003  0.6410847E+03  0.7818608E-02  0.9823653E-01
          1   -1    0    0  502    0  0.00000000000E+00  0.00000000000E+00  0.10279458638E+03  0.10279458638E+03  0.00000000000E+00 0.  1.
         13   -1    0    0    0    0 -0.00000000000E+00 -0.00000000000E+00 -0.10000000000E+04  0.10000000000E+04  0.00000000000E+00 0.  1.
    9000005    2    1    2  501    0 -0.83510140266E-03  0.53173387715E-03 -0.89725260245E+03  0.11027473872E+04  0.64108468028E+03 0.  0.
         13    1    3    3    0    0  0.20092449952E+03  0.12880377619E+03 -0.81669408232E+03  0.85085268488E+03  0.00000000000E+00 0.  1.
          3    1    3    3  501    0 -0.20092533462E+03 -0.12880324445E+03 -0.80558520130E+02  0.25189470228E+03  0.00000000000E+00 0.  1.
         21    1    1    2  502  501  0.83510140265E-03 -0.53173387714E-03  0.47188833719E-01  0.47199217822E-01  0.00000000000E+00 0.  1.
<mgrwt>
<rscale>  1 0.64108468E+03</rscale>
<asrwt>0</asrwt>
<pdfrwt beam="1">  1        1 0.37379928E+00 0.64108468E+03</pdfrwt>
<pdfrwt beam="2">0</pdfrwt>
<totfact> 0.17503720E+00</totfact>
</mgrwt>
</event>
<event>
 6    1  0.3653484E-003  0.6459365E+03  0.7818608E-02  0.9814434E-01
          3   -1    0    0  502    0  0.00000000000E+00  0.00000000000E+00  0.10432846915E+03  0.10432846915E+03  0.00000000000E+00 0.  1.
         13   -1    0    0    0    0 -0.00000000000E+00 -0.00000000000E+00 -0.10000000000E+04  0.10000000000E+04  0.00000000000E+00 0.  1.
    9000005    2    1    2  501    0  0.37567130584E-01  0.30641258166E-01 -0.89565148332E+03  0.11042760089E+04  0.64593646890E+03 0.  0.
         13    1    3    3    0    0 -0.26190134420E+03 -0.19273468792E+02 -0.76915896559E+03  0.81275414182E+03  0.00000000000E+00 0.  1.
          3    1    3    3  501    0  0.26193891133E+03  0.19304110050E+02 -0.12649251773E+03  0.29152186706E+03  0.00000000000E+00 0.  1.
         21    1    1    2  502  501 -0.37567130584E-01 -0.30641258166E-01 -0.20047533371E-01  0.52460266837E-01  0.00000000000E+00 0.  1.
<mgrwt>
<rscale>  1 0.64593647E+03</rscale>
<asrwt>0</asrwt>
<pdfrwt beam="1">  1        3 0.37937705E+00 0.64593647E+03</pdfrwt>
<pdfrwt beam="2">0</pdfrwt>
<totfact> 0.76104399E-02</totfact>
</mgrwt>
</event>
<event>
 6    1  0.3653484E-003  0.6542803E+03  0.7818608E-02  0.9798781E-01
          1   -1    0    0  502    0  0.00000000000E+00  0.00000000000E+00  0.10716123641E+03  0.10716123641E+03  0.00000000000E+00 0.  1.
         13   -1    0    0    0    0 -0.00000000000E+00 -0.00000000000E+00 -0.10000000000E+04  0.10000000000E+04  0.00000000000E+00 0.  1.
    9000005    2    1    2  501    0  0.97866288736E-01 -0.51210927107E-01 -0.89295490572E+03  0.11070009574E+04  0.65428024869E+03 0.  0.
         13    1    3    3    0    0 -0.27886447347E+03  0.15701093243E+03 -0.33205707048E+03  0.46117212136E+03  0.00000000000E+00 0.  1.
          3    1    3    3  501    0  0.27896233976E+03 -0.15706214336E+03 -0.56089783524E+03  0.64582883603E+03  0.00000000000E+00 0.  1.
         21    1    1    2  502  501 -0.97866288736E-01  0.51210927107E-01  0.11614212938E+00  0.16027901841E+00  0.00000000000E+00 0.  1.
<mgrwt>
<rscale>  1 0.65428026E+03</rscale>
<asrwt>0</asrwt>
<pdfrwt beam="1">  1        1 0.38967805E+00 0.65428026E+03</pdfrwt>
<pdfrwt beam="2">0</pdfrwt>
<totfact> 0.14857690E+00</totfact>
</mgrwt>
</event>
<event>
 6    1  0.3653484E-003  0.6409981E+03  0.7818608E-02  0.9823819E-01
          3   -1    0    0  502    0  0.00000000000E+00  0.00000000000E+00  0.10271967492E+03  0.10271967492E+03  0.00000000000E+00 0.  1.
         13   -1    0    0    0    0 -0.00000000000E+00 -0.00000000000E+00 -0.10000000000E+04  0.10000000000E+04  0.00000000000E+00 0.  1.
    9000005    2    1    2  501    0 -0.73744122346E-05  0.83223407827E-05 -0.89728035074E+03  0.11027196470E+04  0.64099812165E+03 0.  0.
         13    1    3    3    0    0 -0.30923084596E+03  0.98241862820E+01 -0.30471414232E+03  0.43424755527E+03  0.00000000000E+00 0.  1.
          1    1    3    3  501    0  0.30923083858E+03 -0.98241779597E+01 -0.59256620842E+03  0.66847209169E+03  0.00000000000E+00 0.  1.
         21    1    1    2  502  501  0.73744122276E-05 -0.83223407824E-05  0.25663965111E-04  0.27969312058E-04  0.00000000000E+00 0. -1.
<mgrwt>
<rscale>  1 0.64099812E+03</rscale>
<asrwt>0</asrwt>
<pdfrwt beam="1">  1        3 0.37352688E+00 0.64099812E+03</pdfrwt>
<pdfrwt beam="2">0</pdfrwt>
<totfact> 0.81789441E-02</totfact>
</mgrwt>
</event>
<event>
 6    1  0.3653484E-003  0.6489510E+03  0.7818608E-02  0.9808750E-01
          1   -1    0    0  502    0  0.00000000000E+00  0.00000000000E+00  0.10528439066E+03  0.10528439066E+03  0.00000000000E+00 0.  1.
         13   -1    0    0    0    0 -0.00000000000E+00 -0.00000000000E+00 -0.10000000000E+04  0.10000000000E+04  0.00000000000E+00 0.  1.
    9000005    2    1    2  501    0  0.13361733465E-04 -0.22785160013E-04 -0.89471564798E+03  0.11052843439E+04  0.64895099200E+03 0.  0.
         13    1    3    3    0    0 -0.21434376472E+03 -0.11708258384E+03 -0.81118950763E+03  0.84715996022E+03  0.00000000000E+00 0.  1.
          3    1    3    3  501    0  0.21434377808E+03  0.11708256105E+03 -0.83526140356E+02  0.25812438364E+03  0.00000000000E+00 0.  1.
         21    1    1    2  502  501 -0.13361733467E-04  0.22785160015E-04  0.38637680767E-04  0.46803523512E-04  0.00000000000E+00 0. -1.
<mgrwt>
<rscale>  1 0.64895099E+03</rscale>
<asrwt>0</asrwt>
<pdfrwt beam="1">  1        1 0.38285314E+00 0.64895099E+03</pdfrwt>
<pdfrwt beam="2">0</pdfrwt>
<totfact> 0.15943629E+00</totfact>
</mgrwt>
</event>
<event>
 6    1  0.3653484E-003  0.6516823E+03  0.7818608E-02  0.9803627E-01
          1   -1    0    0  502    0  0.00000000000E+00  0.00000000000E+00  0.10617454257E+03  0.10617454257E+03  0.00000000000E+00 0.  1.
         13   -1    0    0    0    0 -0.00000000000E+00 -0.00000000000E+00 -0.10000000000E+04  0.10000000000E+04  0.00000000000E+00 0.  1.
    9000005    2    1    2  501    0  0.29589025101E-03  0.46977863201E-03 -0.89382748826E+03  0.11061724372E+04  0.65168234754E+03 0.  0.
         13    1    3    3    0    0  0.20734416679E+02 -0.17592867135E+03 -0.91112223578E+03  0.92818346353E+03  0.00000000000E+00 0.  1.
          3    1    3    3  501    0 -0.20734120789E+02  0.17592914113E+03  0.17294747519E+02  0.17798897369E+03  0.00000000000E+00 0.  1.
         21    1    1    2  502  501 -0.29589025101E-03 -0.46977863199E-03  0.20308280541E-02  0.21053516545E-02  0.00000000000E+00 0.  1.
<mgrwt>
<rscale>  1 0.65168235E+03</rscale>
<asrwt>0</asrwt>
<pdfrwt beam="1">  1        1 0.38609006E+00 0.65168235E+03</pdfrwt>
<pdfrwt beam="2">0</pdfrwt>
<totfact> 0.15418934E+00</totfact>
</mgrwt>
</event>
<event>
 6    1  0.3653484E-003  0.6391947E+03  0.7818608E-02  0.9827269E-01
          1   -1    0    0  502    0  0.00000000000E+00  0.00000000000E+00  0.10214410390E+03  0.10214410390E+03  0.00000000000E+00 0.  1.
         13   -1    0    0    0    0 -0.00000000000E+00 -0.00000000000E+00 -0.10000000000E+04  0.10000000000E+04  0.00000000000E+00 0.  1.
    9000005    2    1    2  501    0 -0.21648644988E-02  0.22735264485E-02 -0.89785568895E+03  0.11021409577E+04  0.63919469060E+03 0.  0.
         13    1    3    3    0    0  0.14347021789E+03  0.19341715150E+03 -0.86632648796E+02  0.25592794641E+03  0.00000000000E+00 0.  1.
          3    1    3    3  501    0 -0.14347238275E+03 -0.19341487797E+03 -0.81122304015E+03  0.84621301131E+03  0.00000000000E+00 0.  1.
         21    1    1    2  502  501  0.21648644988E-02 -0.22735264485E-02 -0.20715848606E-03  0.31461842680E-02  0.00000000000E+00 0.  1.
<mgrwt>
<rscale>  1 0.63919469E+03</rscale>
<asrwt>0</asrwt>
<pdfrwt beam="1">  1        1 0.37143389E+00 0.63919469E+03</pdfrwt>
<pdfrwt beam="2">0</pdfrwt>
<totfact> 0.17934154E+00</totfact>
</mgrwt>
</event>
<event>
 6    1  0.3653484E-003  0.6505576E+03  0.7818608E-02  0.9805733E-01
          1   -1    0    0  502    0  0.00000000000E+00  0.00000000000E+00  0.10580633150E+03  0.10580633150E+03  0.00000000000E+00 0.  1.
         13   -1    0    0    0    0 -0.00000000000E+00 -0.00000000000E+00 -0.10000000000E+04  0.10000000000E+04  0.00000000000E+00 0.  1.
    9000005    2    1    2  501    0 -0.27084843651E-04  0.71742722639E-04 -0.89419364681E+03  0.11058062518E+04  0.65055759817E+03 0.  0.
         13    1    3    3    0    0 -0.10040837664E+03 -0.21607165578E+03 -0.82350351566E+03  0.85727874279E+03  0.00000000000E+00 0.  1.
          3    1    3    3  501    0  0.10040834956E+03  0.21607172752E+03 -0.70690131147E+02  0.24852750901E+03  0.00000000000E+00 0.  1.
         21    1    1    2  502  501  0.27084843653E-04 -0.71742722641E-04 -0.21698894681E-04  0.79695978807E-04  0.00000000000E+00 0.  1.
<mgrwt>
<rscale>  1 0.65055760E+03</rscale>
<asrwt>0</asrwt>
<pdfrwt beam="1">  1        1 0.38475111E+00 0.65055760E+03</pdfrwt>
<pdfrwt beam="2">0</pdfrwt>
<totfact> 0.15633937E+00</totfact>
</mgrwt>
</event>
<event>
 6    1  0.3653484E-003  0.6549903E+03  0.7818608E-02  0.9797460E-01
          1   -1    0    0  502    0  0.00000000000E+00  0.00000000000E+00  0.12265030953E+03  0.12265030953E+03  0.00000000000E+00 0.  1.
         13   -1    0    0    0    0 -0.00000000000E+00 -0.00000000000E+00 -0.10000000000E+04  0.10000000000E+04  0.00000000000E+00 0.  1.
    9000005    2    1    2  501    0 -0.29492470073E+01 -0.67027107614E+00 -0.89258231226E+03  0.11071203357E+04  0.65498328697E+03 0.  0.
         13    1    3    3    0    0 -0.13274081854E+03  0.27154542773E+03 -0.66119740296E+03  0.72700691187E+03  0.00000000000E+00 0.  1.
          1    1    3    3  501    0  0.12979157153E+03 -0.27221569880E+03 -0.23138490930E+03  0.38011342381E+03  0.00000000000E+00 0.  1.
         21    1    1    2  502  501  0.29492470073E+01  0.67027107614E+00  0.15232621791E+02  0.15529973852E+02  0.00000000000E+00 0. -1.
<mgrwt>
<rscale>  1 0.65499027E+03</rscale>
<asrwt>0</asrwt>
<pdfrwt beam="1">  1        1 0.44600207E+00 0.65499027E+03</pdfrwt>
<pdfrwt beam="2">0</pdfrwt>
<totfact> 0.82797382E-01</totfact>
</mgrwt>
</event>
<event>
 6    1  0.3653484E-003  0.6394570E+03  0.7818608E-02  0.9826766E-01
          1   -1    0    0  502    0  0.00000000000E+00  0.00000000000E+00  0.10255447806E+03  0.10255447806E+03  0.00000000000E+00 0.  1.
         13   -1    0    0    0    0 -0.00000000000E+00 -0.00000000000E+00 -0.10000000000E+04  0.10000000000E+04  0.00000000000E+00 0.  1.
    9000005    2    1    2  501    0  0.30517710464E+00  0.35219849476E+00 -0.89758077978E+03  0.11020692240E+04  0.63945687973E+03 0.  0.
         13    1    3    3    0    0  0.44494995384E+02 -0.29228537253E+03 -0.65773770129E+03  0.72113065897E+03  0.00000000000E+00 0.  1.
          1    1    3    3  501    0 -0.44189818280E+02  0.29263757102E+03 -0.23984307849E+03  0.38093856501E+03  0.00000000000E+00 0.  1.
         21    1    1    2  502  501 -0.30517710464E+00 -0.35219849476E+00  0.13525784293E+00  0.48525408703E+00  0.00000000000E+00 0.  1.
<mgrwt>
<rscale>  1 0.63945705E+03</rscale>
<asrwt>0</asrwt>
<pdfrwt beam="1">  1        1 0.37292616E+00 0.63945705E+03</pdfrwt>
<pdfrwt beam="2">0</pdfrwt>
<totfact> 0.17664443E+00</totfact>
</mgrwt>
</event>
<event>
 6    1  0.3653484E-003  0.6505612E+03  0.7818608E-02  0.9805727E-01
          1   -1    0    0  502    0  0.00000000000E+00  0.00000000000E+00  0.11046019822E+03  0.11046019822E+03  0.00000000000E+00 0.  1.
         13   -1    0    0    0    0 -0.00000000000E+00 -0.00000000000E+00 -0.10000000000E+04  0.10000000000E+04  0.00000000000E+00 0.  1.
    9000005    2    1    2  501    0  0.42989471914E-01  0.15000702342E+00 -0.89419108641E+03  0.11058062968E+04  0.65056117512E+03 0.  0.
         13    1    3    3    0    0  0.90620829762E+02  0.15799526791E+03 -0.90533773384E+03  0.92347769426E+03  0.00000000000E+00 0.  1.
          3    1    3    3  501    0 -0.90577840290E+02 -0.15784526089E+03  0.11146647437E+02  0.18232860249E+03  0.00000000000E+00 0.  1.
         21    1    1    2  502  501 -0.42989471914E-01 -0.15000702342E+00  0.46512846266E+01  0.46539014686E+01  0.00000000000E+00 0. -1.
<mgrwt>
<rscale>  1 0.65056119E+03</rscale>
<asrwt>0</asrwt>
<pdfrwt beam="1">  1        1 0.40167430E+00 0.65056119E+03</pdfrwt>
<pdfrwt beam="2">0</pdfrwt>
<totfact> 0.13149286E+00</totfact>
</mgrwt>
</event>
<event>
 6    1  0.3653484E-003  0.6270115E+03  0.7818608E-02  0.9850898E-01
          1   -1    0    0  502    0  0.00000000000E+00  0.00000000000E+00  0.10467823801E+03  0.10467823801E+03  0.00000000000E+00 0.  1.
         13   -1    0    0    0    0 -0.00000000000E+00 -0.00000000000E+00 -0.10000000000E+04  0.10000000000E+04  0.00000000000E+00 0.  1.
    9000005    2    1    2  501    0 -0.35359964159E+00  0.23801735573E+00 -0.90170634529E+03  0.10982794421E+04  0.62701133813E+03 0.  0.
         13    1    3    3    0    0  0.22361398706E+03 -0.20381809028E+03 -0.59300391114E+03  0.66573167850E+03  0.00000000000E+00 0.  1.
          3    1    3    3  501    0 -0.22396758670E+03  0.20405610763E+03 -0.30870243415E+03  0.43254776361E+03  0.00000000000E+00 0.  1.
         21    1    1    2  502  501  0.35359964159E+00 -0.23801735573E+00  0.63845833004E+01  0.63987958936E+01  0.00000000000E+00 0.  1.
<mgrwt>
<rscale>  1 0.62701148E+03</rscale>
<asrwt>0</asrwt>
<pdfrwt beam="1">  1        1 0.38064894E+00 0.62701148E+03</pdfrwt>
<pdfrwt beam="2">0</pdfrwt>
<totfact> 0.16371757E+00</totfact>
</mgrwt>
</event>
<event>
 6    1  0.3653484E-003  0.6614743E+03  0.7818608E-02  0.9785484E-01
          1   -1    0    0  502    0  0.00000000000E+00  0.00000000000E+00  0.10955429964E+03  0.10955429964E+03  0.00000000000E+00 0.  1.
         13   -1    0    0    0    0 -0.00000000000E+00 -0.00000000000E+00 -0.10000000000E+04  0.10000000000E+04  0.00000000000E+00 0.  1.
    9000005    2    1    2  501    0  0.13172635236E-01 -0.45794954148E-02 -0.89061261101E+03  0.11093868074E+04  0.66147431190E+03 0.  0.
         13    1    3    3    0    0  0.42642909263E+02  0.24188026144E+02  0.10325956231E+03  0.11430667316E+03  0.00000000000E+00 0.  1.
          3    1    3    3  501    0 -0.42629736628E+02 -0.24192605639E+02 -0.99387217333E+03  0.99508013422E+03  0.00000000000E+00 0.  1.
         21    1    1    2  502  501 -0.13172635236E-01  0.45794954147E-02  0.16691065352E+00  0.16749225760E+00  0.00000000000E+00 0. -1.
<mgrwt>
<rscale>  1 0.66147431E+03</rscale>
<asrwt>0</asrwt>
<pdfrwt beam="1">  1        1 0.39838011E+00 0.66147431E+03</pdfrwt>
<pdfrwt beam="2">0</pdfrwt>
<totfact> 0.13573561E+00</totfact>
</mgrwt>
</event>
<event>
 6    1  0.3653484E-003  0.6367099E+03  0.7818608E-02  0.9832042E-01
          1   -1    0    0  502    0  0.00000000000E+00  0.00000000000E+00  0.10135198061E+03  0.10135198061E+03  0.00000000000E+00 0.  1.
         13   -1    0    0    0    0 -0.00000000000E+00 -0.00000000000E+00 -0.10000000000E+04  0.10000000000E+04  0.00000000000E+00 0.  1.
    9000005    2    1    2  501    0  0.23880591285E-03 -0.35167417386E-02 -0.89864839085E+03  0.11013484363E+04  0.63670986143E+03 0.  0.
         13    1    3    3    0    0 -0.47459087818E+02 -0.80554993954E+02 -0.97571641909E+03  0.98018569799E+03  0.00000000000E+00 0.  1.
          3    1    3    3  501    0  0.47459326623E+02  0.80551477213E+02  0.77068028242E+02  0.12116273826E+03  0.00000000000E+00 0.  1.
         21    1    1    2  502  501 -0.23880591285E-03  0.35167417386E-02  0.37145938147E-03  0.35443592922E-02  0.00000000000E+00 0.  1.
<mgrwt>
<rscale>  1 0.63670986E+03</rscale>
<asrwt>0</asrwt>
<pdfrwt beam="1">  1        1 0.36855343E+00 0.63670986E+03</pdfrwt>
<pdfrwt beam="2">0</pdfrwt>
<totfact> 0.18472596E+00</totfact>
</mgrwt>
</event>
<event>
 6    1  0.3653484E-003  0.6430835E+03  0.7818608E-02  0.9819845E-01
          1   -1    0    0  502    0  0.00000000000E+00  0.00000000000E+00  0.10340121690E+03  0.10340121690E+03  0.00000000000E+00 0.  1.
         13   -1    0    0    0    0 -0.00000000000E+00 -0.00000000000E+00 -0.10000000000E+04  0.10000000000E+04  0.00000000000E+00 0.  1.
    9000005    2    1    2  501    0 -0.28272673686E-03 -0.11273715381E-03 -0.89661090719E+03  0.11033890890E+04  0.64308348044E+03 0.  0.
         13    1    3    3    0    0 -0.68456286516E+02 -0.16853761591E+03 -0.90322301646E+03  0.92135932654E+03  0.00000000000E+00 0.  1.
          3    1    3    3  501    0  0.68456003789E+02  0.16853750317E+03  0.66121092684E+01  0.18202976245E+03  0.00000000000E+00 0.  1.
         21    1    1    2  502  501  0.28272673686E-03  0.11273715381E-03  0.12124091841E-01  0.12127911900E-01  0.00000000000E+00 0. -1.
<mgrwt>
<rscale>  1 0.64308348E+03</rscale>
<asrwt>0</asrwt>
<pdfrwt beam="1">  1        1 0.37600522E+00 0.64308348E+03</pdfrwt>
<pdfrwt beam="2">0</pdfrwt>
<totfact> 0.17110468E+00</totfact>
</mgrwt>
</event>
<event>
 6    1  0.3653484E-003  0.6478948E+03  0.7818608E-02  0.9810738E-01
          1   -1    0    0  502    0  0.00000000000E+00  0.00000000000E+00  0.10494258361E+03  0.10494258361E+03  0.00000000000E+00 0.  1.
         13   -1    0    0    0    0 -0.00000000000E+00 -0.00000000000E+00 -0.10000000000E+04  0.10000000000E+04  0.00000000000E+00 0.  1.
    9000005    2    1    2  501    0 -0.27455288276E-04 -0.88453067477E-04 -0.89505809360E+03  0.11049419001E+04  0.64789475353E+03 0.  0.
         13    1    3    3    0    0 -0.74233501693E+02 -0.93523112341E+02 -0.96110191863E+03  0.96849062117E+03  0.00000000000E+00 0.  1.
          1    1    3    3  501    0  0.74233474238E+02  0.93523023888E+02  0.66043825022E+02  0.13645127892E+03  0.00000000000E+00 0.  1.
         21    1    1    2  502  501  0.27455288282E-04  0.88453067476E-04  0.67721547259E-03  0.68351922747E-03  0.00000000000E+00 0. -1.
<mgrwt>
<rscale>  1 0.64789475E+03</rscale>
<asrwt>0</asrwt>
<pdfrwt beam="1">  1        1 0.38161020E+00 0.64789475E+03</pdfrwt>
<pdfrwt beam="2">0</pdfrwt>
<totfact> 0.16149603E+00</totfact>
</mgrwt>
</event>
<event>
 6    1  0.3653484E-003  0.6594978E+03  0.7818608E-02  0.9789119E-01
          1   -1    0    0  502    0  0.00000000000E+00  0.00000000000E+00  0.10873457028E+03  0.10873457028E+03  0.00000000000E+00 0.  1.
         13   -1    0    0    0    0 -0.00000000000E+00 -0.00000000000E+00 -0.10000000000E+04  0.10000000000E+04  0.00000000000E+00 0.  1.
    9000005    2    1    2  501    0 -0.36154158192E-03  0.84610910946E-04 -0.89126545939E+03  0.11087341978E+04  0.65949784097E+03 0.  0.
         13    1    3    3    0    0 -0.29877289771E+03  0.12160093889E+02 -0.21194691339E+03  0.36651685689E+03  0.00000000000E+00 0.  1.
          3    1    3    3  501    0  0.29877253617E+03 -0.12160009278E+02 -0.67931854600E+03  0.74221734090E+03  0.00000000000E+00 0.  1.
         21    1    1    2  502  501  0.36154158194E-03 -0.84610910947E-04  0.29663335364E-04  0.37249326865E-03  0.00000000000E+00 0. -1.
<mgrwt>
<rscale>  1 0.65949784E+03</rscale>
<asrwt>0</asrwt>
<pdfrwt beam="1">  1        1 0.39539927E+00 0.65949784E+03</pdfrwt>
<pdfrwt beam="2">0</pdfrwt>
<totfact> 0.13999841E+00</totfact>
</mgrwt>
</event>
<event>
 6    1  0.3653484E-003  0.6467298E+03  0.7818608E-02  0.9812935E-01
          3   -1    0    0  502    0  0.00000000000E+00  0.00000000000E+00  0.10460364042E+03  0.10460364042E+03  0.00000000000E+00 0.  1.
         13   -1    0    0    0    0 -0.00000000000E+00 -0.00000000000E+00 -0.10000000000E+04  0.10000000000E+04  0.00000000000E+00 0.  1.
    9000005    2    1    2  501    0 -0.38567443696E-03  0.42092320817E-02 -0.89543501037E+03  0.11045647592E+04  0.64672981176E+03 0.  0.
         13    1    3    3    0    0  0.24998883811E+03 -0.19074547192E+03 -0.31893196566E+03  0.44787928391E+03  0.00000000000E+00 0.  1.
          3    1    3    3  501    0 -0.24998922379E+03  0.19074968115E+03 -0.57650304472E+03  0.65668547528E+03  0.00000000000E+00 0.  1.
         21    1    1    2  502  501  0.38567443696E-03 -0.42092320817E-02  0.38650797899E-01  0.38881236577E-01  0.00000000000E+00 0.  1.
<mgrwt>
<rscale>  1 0.64672981E+03</rscale>
<asrwt>0</asrwt>
<pdfrwt beam="1">  1        3 0.38037768E+00 0.64672981E+03</pdfrwt>
<pdfrwt beam="2">0</pdfrwt>
<totfact> 0.75173925E-02</totfact>
</mgrwt>
</event>
<event>
 6    1  0.3653484E-003  0.6493700E+03  0.7818608E-02  0.9807962E-01
          1   -1    0    0  502    0  0.00000000000E+00  0.00000000000E+00  0.10545798871E+03  0.10545798871E+03  0.00000000000E+00 0.  1.
         13   -1    0    0    0    0 -0.00000000000E+00 -0.00000000000E+00 -0.10000000000E+04  0.10000000000E+04  0.00000000000E+00 0.  1.
    9000005    2    1    2  501    0  0.72909510033E-03  0.14369928020E-02 -0.89457961890E+03  0.11054203466E+04  0.64937003942E+03 0.  0.
         13    1    3    3    0    0  0.22223477407E+03 -0.23648571897E+03 -0.46484820139E+03  0.56691943027E+03  0.00000000000E+00 0.  1.
          1    1    3    3  501    0 -0.22223404497E+03  0.23648715596E+03 -0.42973141752E+03  0.53850091632E+03  0.00000000000E+00 0.  1.
         21    1    1    2  502  501 -0.72909510032E-03 -0.14369928020E-02  0.37607611772E-01  0.37642117252E-01  0.00000000000E+00 0. -1.
<mgrwt>
<rscale>  1 0.64937004E+03</rscale>
<asrwt>0</asrwt>
<pdfrwt beam="1">  1        1 0.38348440E+00 0.64937004E+03</pdfrwt>
<pdfrwt beam="2">0</pdfrwt>
<totfact> 0.15840320E+00</totfact>
</mgrwt>
</event>
<event>
 6    1  0.3653484E-003  0.6447060E+03  0.7818608E-02  0.9816764E-01
          1   -1    0    0  502    0  0.00000000000E+00  0.00000000000E+00  0.12240331661E+03  0.12240331661E+03  0.00000000000E+00 0.  1.
         13   -1    0    0    0    0 -0.00000000000E+00 -0.00000000000E+00 -0.10000000000E+04  0.10000000000E+04  0.00000000000E+00 0.  1.
    9000005    2    1    2  501    0  0.61223898289E+01 -0.17799892883E+02 -0.89064668099E+03  0.10994986821E+04  0.64443116140E+03 0.  0.
         13    1    3    3    0    0  0.29222947001E+03 -0.74961910760E+02 -0.66642083405E+03  0.73152859088E+03  0.00000000000E+00 0.  1.
          1    1    3    3  501    0 -0.28610708018E+03  0.57162017876E+02 -0.22422584693E+03  0.36797009124E+03  0.00000000000E+00 0.  1.
         21    1    1    2  502  501 -0.61223898289E+01  0.17799892883E+02  0.13049997603E+02  0.22904634494E+02  0.00000000000E+00 0. -1.
<mgrwt>
<rscale>  1 0.64470601E+03</rscale>
<asrwt>0</asrwt>
<pdfrwt beam="1">  1        1 0.44510391E+00 0.64470601E+03</pdfrwt>
<pdfrwt beam="2">0</pdfrwt>
<totfact> 0.83765174E-01</totfact>
</mgrwt>
</event>
<event>
 6    1  0.3653484E-003  0.6494377E+03  0.7818608E-02  0.9807835E-01
          3   -1    0    0  502    0  0.00000000000E+00  0.00000000000E+00  0.10545481710E+03  0.10545481710E+03  0.00000000000E+00 0.  1.
         13   -1    0    0    0    0 -0.00000000000E+00 -0.00000000000E+00 -0.10000000000E+04  0.10000000000E+04  0.00000000000E+00 0.  1.
    9000005    2    1    2  501    0  0.27904325224E-01 -0.55178695351E-02 -0.89453627500E+03  0.11054250102E+04  0.64943768382E+03 0.  0.
         13    1    3    3    0    0  0.12453497797E+03 -0.13761340395E+02  0.62645548236E+02  0.14008140469E+03  0.00000000000E+00 0.  1.
          3    1    3    3  501    0 -0.12450707364E+03  0.13755822525E+02 -0.95718182324E+03  0.96534360555E+03  0.00000000000E+00 0.  1.
         21    1    1    2  502  501 -0.27904325224E-01  0.55178695351E-02 -0.89078925813E-02  0.29806858282E-01  0.00000000000E+00 0.  1.
<mgrwt>
<rscale>  1 0.64943768E+03</rscale>
<asrwt>0</asrwt>
<pdfrwt beam="1">  1        3 0.38347287E+00 0.64943768E+03</pdfrwt>
<pdfrwt beam="2">0</pdfrwt>
<totfact> 0.72366042E-02</totfact>
</mgrwt>
</event>
<event>
 6    1  0.3653484E-003  0.6337535E+03  0.7818608E-02  0.9837751E-01
          1   -1    0    0  502    0  0.00000000000E+00  0.00000000000E+00  0.10041087550E+03  0.10041087550E+03  0.00000000000E+00 0.  1.
         13   -1    0    0    0    0 -0.00000000000E+00 -0.00000000000E+00 -0.10000000000E+04  0.10000000000E+04  0.00000000000E+00 0.  1.
    9000005    2    1    2  501    0  0.14639199662E-04 -0.69041786332E-05 -0.89958911963E+03  0.11004108586E+04  0.63375348012E+03 0.  0.
         13    1    3    3    0    0  0.66042592358E+02 -0.16982826355E+03  0.34141479989E+00  0.18221794552E+03  0.00000000000E+00 0.  1.
          3    1    3    3  501    0 -0.66042577719E+02  0.16982825665E+03 -0.89993053443E+03  0.91819291308E+03  0.00000000000E+00 0.  1.
         21    1    1    2  502  501 -0.14639199655E-04  0.69041786263E-05 -0.48641070198E-05  0.16900691883E-04  0.00000000000E+00 0. -1.
<mgrwt>
<rscale>  1 0.63375348E+03</rscale>
<asrwt>0</asrwt>
<pdfrwt beam="1">  1        1 0.36513123E+00 0.63375348E+03</pdfrwt>
<pdfrwt beam="2">0</pdfrwt>
<totfact> 0.19132436E+00</totfact>
</mgrwt>
</event>
<event>
 6    1  0.3653484E-003  0.6233617E+03  0.7818608E-02  0.9858089E-01
          1   -1    0    0  502    0  0.00000000000E+00  0.00000000000E+00  0.97147344242E+02  0.97147344242E+02  0.00000000000E+00 0.  1.
         13   -1    0    0    0    0 -0.00000000000E+00 -0.00000000000E+00 -0.10000000000E+04  0.10000000000E+04  0.00000000000E+00 0.  1.
    9000005    2    1    2  501    0  0.59546696883E-03  0.58554142427E-03 -0.90285496705E+03  0.10971448867E+04  0.62336170150E+03 0.  0.
         13    1    3    3    0    0 -0.23215199695E+03 -0.19996776016E+03 -0.35088773333E+03  0.46583672697E+03  0.00000000000E+00 0.  1.
          3    1    3    3  501    0  0.23215259242E+03  0.19996834570E+03 -0.55196723371E+03  0.63130815973E+03  0.00000000000E+00 0.  1.
         21    1    1    2  502  501 -0.59546696885E-03 -0.58554142430E-03  0.23112880366E-02  0.24575378042E-02  0.00000000000E+00 0. -1.
<mgrwt>
<rscale>  1 0.62336170E+03</rscale>
<asrwt>0</asrwt>
<pdfrwt beam="1">  1        1 0.35326381E+00 0.62336170E+03</pdfrwt>
<pdfrwt beam="2">0</pdfrwt>
<totfact> 0.21600871E+00</totfact>
</mgrwt>
</event>
<event>
 6    1  0.3653484E-003  0.6502923E+03  0.7818608E-02  0.9806231E-01
          1   -1    0    0  502    0  0.00000000000E+00  0.00000000000E+00  0.10572002554E+03  0.10572002554E+03  0.00000000000E+00 0.  1.
         13   -1    0    0    0    0 -0.00000000000E+00 -0.00000000000E+00 -0.10000000000E+04  0.10000000000E+04  0.00000000000E+00 0.  1.
    9000005    2    1    2  501    0 -0.74731783926E-05  0.19527070350E-04 -0.89427998350E+03  0.11057200028E+04  0.65029226939E+03 0.  0.
         13    1    3    3    0    0 -0.51045074598E+02 -0.21847751263E+03 -0.46991826063E+02  0.22922969896E+03  0.00000000000E+00 0.  1.
          3    1    3    3  501    0  0.51045067124E+02  0.21847753216E+03 -0.84728815743E+03  0.87649030380E+03  0.00000000000E+00 0.  1.
         21    1    1    2  502  501  0.74731783913E-05 -0.19527070355E-04  0.90327007664E-05  0.22775964415E-04  0.00000000000E+00 0. -1.
<mgrwt>
<rscale>  1 0.65029227E+03</rscale>
<asrwt>0</asrwt>
<pdfrwt beam="1">  1        1 0.38443727E+00 0.65029227E+03</pdfrwt>
<pdfrwt beam="2">0</pdfrwt>
<totfact> 0.15684748E+00</totfact>
</mgrwt>
</event>
<event>
 6    1  0.3653484E-003  0.6450530E+03  0.7818608E-02  0.9816106E-01
          1   -1    0    0  502    0  0.00000000000E+00  0.00000000000E+00  0.10428527201E+03  0.10428527201E+03  0.00000000000E+00 0.  1.
         13   -1    0    0    0    0 -0.00000000000E+00 -0.00000000000E+00 -0.10000000000E+04  0.10000000000E+04  0.00000000000E+00 0.  1.
    9000005    2    1    2  501    0 -0.53807024320E+00  0.39764905283E+00 -0.89537432750E+03  0.11035345944E+04  0.64505268552E+03 0.  0.
         13    1    3    3    0    0 -0.10573862507E+03 -0.28035474094E+03 -0.24378613188E+03  0.38627854677E+03  0.00000000000E+00 0.  1.
          1    1    3    3  501    0  0.10520055483E+03  0.28075238999E+03 -0.65158819562E+03  0.71725604766E+03  0.00000000000E+00 0.  1.
         21    1    1    2  502  501  0.53807024320E+00 -0.39764905283E+00 -0.34040048201E+00  0.75067758991E+00  0.00000000000E+00 0. -1.
<mgrwt>
<rscale>  1 0.64505303E+03</rscale>
<asrwt>0</asrwt>
<pdfrwt beam="1">  1        1 0.37921997E+00 0.64505303E+03</pdfrwt>
<pdfrwt beam="2">0</pdfrwt>
<totfact> 0.16555303E+00</totfact>
</mgrwt>
</event>
<event>
 6    1  0.3653484E-003  0.6613287E+03  0.7818608E-02  0.9785751E-01
          1   -1    0    0  502    0  0.00000000000E+00  0.00000000000E+00  0.10933914784E+03  0.10933914784E+03  0.00000000000E+00 0.  1.
         13   -1    0    0    0    0 -0.00000000000E+00 -0.00000000000E+00 -0.10000000000E+04  0.10000000000E+04  0.00000000000E+00 0.  1.
    9000005    2    1    2  501    0 -0.20966599967E-03 -0.17047667887E-03 -0.89066098506E+03  0.11093388467E+04  0.66132872801E+03 0.  0.
         13    1    3    3    0    0 -0.30248080177E+02 -0.18058503877E+03  0.16538453835E+02  0.18384619397E+03  0.00000000000E+00 0.  1.
          1    1    3    3  501    0  0.30247870511E+02  0.18058486830E+03 -0.90719943889E+03  0.92549265273E+03  0.00000000000E+00 0.  1.
         21    1    1    2  502  501  0.20966599967E-03  0.17047667887E-03  0.13290251812E-03  0.30113984921E-03  0.00000000000E+00 0.  1.
<mgrwt>
<rscale>  1 0.66132873E+03</rscale>
<asrwt>0</asrwt>
<pdfrwt beam="1">  1        1 0.39759774E+00 0.66132873E+03</pdfrwt>
<pdfrwt beam="2">0</pdfrwt>
<totfact> 0.13683288E+00</totfact>
</mgrwt>
</event>
<event>
 6    1  0.3653484E-003  0.6422592E+03  0.7818608E-02  0.9821414E-01
          1   -1    0    0  502    0  0.00000000000E+00  0.00000000000E+00  0.10317210102E+03  0.10317210102E+03  0.00000000000E+00 0.  1.
         13   -1    0    0    0    0 -0.00000000000E+00 -0.00000000000E+00 -0.10000000000E+04  0.10000000000E+04  0.00000000000E+00 0.  1.
    9000005    2    1    2  501    0 -0.83181225824E-03  0.10381146462E-03 -0.89687578068E+03  0.11031242120E+04  0.64225918530E+03 0.  0.
         13    1    3    3    0    0  0.28431668599E+03  0.33775485891E+02 -0.69820765399E+03  0.75463281765E+03  0.00000000000E+00 0.  1.
          1    1    3    3  501    0 -0.28431751780E+03 -0.33775382080E+02 -0.19866812668E+03  0.34849139433E+03  0.00000000000E+00 0.  1.
         21    1    1    2  502  501  0.83181225828E-03 -0.10381146462E-03  0.47881700072E-01  0.47889037266E-01  0.00000000000E+00 0.  1.
<mgrwt>
<rscale>  1 0.64225919E+03</rscale>
<asrwt>0</asrwt>
<pdfrwt beam="1">  1        1 0.37517207E+00 0.64225919E+03</pdfrwt>
<pdfrwt beam="2">0</pdfrwt>
<totfact> 0.17258211E+00</totfact>
</mgrwt>
</event>
<event>
 6    1  0.3653484E-003  0.6530612E+03  0.7818608E-02  0.9801052E-01
          1   -1    0    0  502    0  0.00000000000E+00  0.00000000000E+00  0.10666743276E+03  0.10666743276E+03  0.00000000000E+00 0.  1.
         13   -1    0    0    0    0 -0.00000000000E+00 -0.00000000000E+00 -0.10000000000E+04  0.10000000000E+04  0.00000000000E+00 0.  1.
    9000005    2    1    2  501    0 -0.14214655566E-01 -0.18764361085E-01 -0.89337433788E+03  0.11066194855E+04  0.65306123559E+03 0.  0.
         13    1    3    3    0    0 -0.23385787888E+02  0.14673423012E+03  0.46015733747E+02  0.15554831119E+03  0.00000000000E+00 0.  1.
          1    1    3    3  501    0  0.23371573233E+02 -0.14675299448E+03 -0.93939007163E+03  0.95107117426E+03  0.00000000000E+00 0.  1.
         21    1    1    2  502  501  0.14214655566E-01  0.18764361085E-01  0.41770644348E-01  0.47947308674E-01  0.00000000000E+00 0. -1.
<mgrwt>
<rscale>  1 0.65306124E+03</rscale>
<asrwt>0</asrwt>
<pdfrwt beam="1">  1        1 0.38788239E+00 0.65306124E+03</pdfrwt>
<pdfrwt beam="2">0</pdfrwt>
<totfact> 0.15135875E+00</totfact>
</mgrwt>
</event>
<event>
 6    1  0.3653484E-003  0.6514563E+03  0.7818608E-02  0.9804050E-01
          1   -1    0    0  502    0  0.00000000000E+00  0.00000000000E+00  0.10610201474E+03  0.10610201474E+03  0.00000000000E+00 0.  1.
         13   -1    0    0    0    0 -0.00000000000E+00 -0.00000000000E+00 -0.10000000000E+04  0.10000000000E+04  0.00000000000E+00 0.  1.
    9000005    2    1    2  501    0 -0.21438469774E-02  0.93371114069E-04 -0.89390075374E+03  0.11060985120E+04  0.65145633828E+03 0.  0.
         13    1    3    3    0    0 -0.16338541051E+03 -0.38191303630E+02  0.27077886840E+02  0.16996052482E+03  0.00000000000E+00 0.  1.
          3    1    3    3  501    0  0.16338326666E+03  0.38191397001E+02 -0.92097864058E+03  0.93613798717E+03  0.00000000000E+00 0.  1.
         21    1    1    2  502  501  0.21438469774E-02 -0.93371114068E-04  0.27684766903E-02  0.35027505210E-02  0.00000000000E+00 0. -1.
<mgrwt>
<rscale>  1 0.65145634E+03</rscale>
<asrwt>0</asrwt>
<pdfrwt beam="1">  1        1 0.38582632E+00 0.65145634E+03</pdfrwt>
<pdfrwt beam="2">0</pdfrwt>
<totfact> 0.15461073E+00</totfact>
</mgrwt>
</event>
<event>
 6    1  0.3653484E-003  0.6507057E+03  0.7818608E-02  0.9805456E-01
          1   -1    0    0  502    0  0.00000000000E+00  0.00000000000E+00  0.10585449140E+03  0.10585449140E+03  0.00000000000E+00 0.  1.
         13   -1    0    0    0    0 -0.00000000000E+00 -0.00000000000E+00 -0.10000000000E+04  0.10000000000E+04  0.00000000000E+00 0.  1.
    9000005    2    1    2  501    0 -0.61358462631E-05 -0.16773152822E-05 -0.89414552673E+03  0.11058544722E+04  0.65070568669E+03 0.  0.
         13    1    3    3    0    0  0.20839779505E+03 -0.24359977740E+03 -0.35269512403E+03  0.47661760673E+03  0.00000000000E+00 0.  1.
          3    1    3    3  501    0 -0.20839780119E+03  0.24359977572E+03 -0.54145040269E+03  0.62923686546E+03  0.00000000000E+00 0.  1.
         21    1    1    2  502  501  0.61358462552E-05  0.16773152717E-05  0.18128989491E-04  0.19212554638E-04  0.00000000000E+00 0.  1.
<mgrwt>
<rscale>  1 0.65070569E+03</rscale>
<asrwt>0</asrwt>
<pdfrwt beam="1">  1        1 0.38492623E+00 0.65070569E+03</pdfrwt>
<pdfrwt beam="2">0</pdfrwt>
<totfact> 0.15605652E+00</totfact>
</mgrwt>
</event>
<event>
 6    1  0.3653484E-003  0.6486842E+03  0.7818608E-02  0.9809251E-01
          1   -1    0    0  502    0  0.00000000000E+00  0.00000000000E+00  0.10527102979E+03  0.10527102979E+03  0.00000000000E+00 0.  1.
         13   -1    0    0    0    0 -0.00000000000E+00 -0.00000000000E+00 -0.10000000000E+04  0.10000000000E+04  0.00000000000E+00 0.  1.
    9000005    2    1    2  501    0  0.12852758514E-01 -0.15024798020E-01 -0.89480071801E+03  0.11051966074E+04  0.64868421884E+03 0.  0.
         13    1    3    3    0    0  0.29933110281E+03  0.61359722804E+02 -0.26204497539E+03  0.40253160599E+03  0.00000000000E+00 0.  1.
          3    1    3    3  501    0 -0.29931825005E+03 -0.61374747602E+02 -0.63275574262E+03  0.70266500146E+03  0.00000000000E+00 0.  1.
         21    1    1    2  502  501 -0.12852758514E-01  0.15024798020E-01  0.71747799325E-01  0.74422339824E-01  0.00000000000E+00 0.  1.
<mgrwt>
<rscale>  1 0.64868422E+03</rscale>
<asrwt>0</asrwt>
<pdfrwt beam="1">  1        1 0.38280455E+00 0.64868422E+03</pdfrwt>
<pdfrwt beam="2">0</pdfrwt>
<totfact> 0.15952296E+00</totfact>
</mgrwt>
</event>
<event>
 6    1  0.3653484E-003  0.6517080E+03  0.7818608E-02  0.9803579E-01
          1   -1    0    0  502    0  0.00000000000E+00  0.00000000000E+00  0.10691989900E+03  0.10691989900E+03  0.00000000000E+00 0.  1.
         13   -1    0    0    0    0 -0.00000000000E+00 -0.00000000000E+00 -0.10000000000E+04  0.10000000000E+04  0.00000000000E+00 0.  1.
    9000005    2    1    2  501    0 -0.68693820885E+00 -0.13561600536E+00 -0.89363111161E+03  0.11060288948E+04  0.65170765086E+03 0.  0.
         13    1    3    3    0    0  0.26818772770E+03  0.17842651532E+03 -0.36656494445E+03  0.48798620591E+03  0.00000000000E+00 0.  1.
          1    1    3    3  501    0 -0.26887466591E+03 -0.17856213132E+03 -0.52706616716E+03  0.61804268888E+03  0.00000000000E+00 0.  1.
         21    1    1    2  502  501  0.68693820885E+00  0.13561600536E+00  0.55101060979E+00  0.89100420638E+00  0.00000000000E+00 0.  1.
<mgrwt>
<rscale>  1 0.65170803E+03</rscale>
<asrwt>0</asrwt>
<pdfrwt beam="1">  1        1 0.38880045E+00 0.65170803E+03</pdfrwt>
<pdfrwt beam="2">0</pdfrwt>
<totfact> 0.14998534E+00</totfact>
</mgrwt>
</event>
<event>
 6    1  0.3653484E-003  0.6526590E+03  0.7818608E-02  0.9801803E-01
          1   -1    0    0  502    0  0.00000000000E+00  0.00000000000E+00  0.10682913487E+03  0.10682913487E+03  0.00000000000E+00 0.  1.
         13   -1    0    0    0    0 -0.00000000000E+00 -0.00000000000E+00 -0.10000000000E+04  0.10000000000E+04  0.00000000000E+00 0.  1.
    9000005    2    1    2  501    0 -0.72255958048E-02  0.15740631511E-01 -0.89350881715E+03  0.11064907393E+04  0.65265898415E+03 0.  0.
         13    1    3    3    0    0  0.78799721008E+02  0.18853702515E+02 -0.98267424262E+03  0.98600888700E+03  0.00000000000E+00 0.  1.
          1    1    3    3  501    0 -0.78806946604E+02 -0.18837961884E+02  0.89165425471E+02  0.12048185233E+03  0.00000000000E+00 0.  1.
         21    1    1    2  502  501  0.72255958048E-02 -0.15740631511E-01  0.33795201439E+00  0.33839553889E+00  0.00000000000E+00 0.  1.
<mgrwt>
<rscale>  1 0.65265898E+03</rscale>
<asrwt>0</asrwt>
<pdfrwt beam="1">  1        1 0.38847040E+00 0.65265898E+03</pdfrwt>
<pdfrwt beam="2">0</pdfrwt>
<totfact> 0.15046474E+00</totfact>
</mgrwt>
</event>
<event>
 6    1  0.3653484E-003  0.6600485E+03  0.7818608E-02  0.9788104E-01
          1   -1    0    0  502    0  0.00000000000E+00  0.00000000000E+00  0.10903467117E+03  0.10903467117E+03  0.00000000000E+00 0.  1.
         13   -1    0    0    0    0 -0.00000000000E+00 -0.00000000000E+00 -0.10000000000E+04  0.10000000000E+04  0.00000000000E+00 0.  1.
    9000005    2    1    2  501    0  0.63399558440E-02 -0.33207697126E-01 -0.89108132410E+03  0.11089138496E+04  0.66004848197E+03 0.  0.
         13    1    3    3    0    0  0.11617378271E+03  0.30793050285E+03 -0.48629379927E+03  0.58719605038E+03  0.00000000000E+00 0.  1.
          3    1    3    3  501    0 -0.11616744276E+03 -0.30796371055E+03 -0.40478752483E+03  0.52171779923E+03  0.00000000000E+00 0.  1.
         21    1    1    2  502  501 -0.63399558440E-02  0.33207697126E-01  0.11599526619E+00  0.12082155423E+00  0.00000000000E+00 0. -1.
<mgrwt>
<rscale>  1 0.66004848E+03</rscale>
<asrwt>0</asrwt>
<pdfrwt beam="1">  1        1 0.39649055E+00 0.66004848E+03</pdfrwt>
<pdfrwt beam="2">0</pdfrwt>
<totfact> 0.13842779E+00</totfact>
</mgrwt>
</event>
<event>
 6    1  0.3653484E-003  0.6430446E+03  0.7818608E-02  0.9819919E-01
          1   -1    0    0  502    0  0.00000000000E+00  0.00000000000E+00  0.10338093908E+03  0.10338093908E+03  0.00000000000E+00 0.  1.
         13   -1    0    0    0    0 -0.00000000000E+00 -0.00000000000E+00 -0.10000000000E+04  0.10000000000E+04  0.00000000000E+00 0.  1.
    9000005    2    1    2  501    0  0.76130611942E-02 -0.68667559475E-02 -0.89661533565E+03  0.11033700309E+04  0.64304460563E+03 0.  0.
         13    1    3    3    0    0 -0.77975225949E+02 -0.17949606719E+02 -0.98263384914E+03  0.98588620323E+03  0.00000000000E+00 0.  1.
          3    1    3    3  501    0  0.77982839010E+02  0.17942739963E+02  0.86018513491E+02  0.11748382766E+03  0.00000000000E+00 0.  1.
         21    1    1    2  502  501 -0.76130611942E-02  0.68667559475E-02 -0.37252657634E-02  0.10908191555E-01  0.00000000000E+00 0.  1.
<mgrwt>
<rscale>  1 0.64304461E+03</rscale>
<asrwt>0</asrwt>
<pdfrwt beam="1">  1        1 0.37593148E+00 0.64304461E+03</pdfrwt>
<pdfrwt beam="2">0</pdfrwt>
<totfact> 0.17123388E+00</totfact>
</mgrwt>
</event>
<event>
 6    1  0.3653484E-003  0.6523120E+03  0.7818608E-02  0.9802451E-01
          1   -1    0    0  502    0  0.00000000000E+00  0.00000000000E+00  0.11428531919E+03  0.11428531919E+03  0.00000000000E+00 0.  1.
         13   -1    0    0    0    0 -0.00000000000E+00 -0.00000000000E+00 -0.10000000000E+04  0.10000000000E+04  0.00000000000E+00 0.  1.
    9000005    2    1    2  501    0  0.10923303650E+00  0.10876859050E+00 -0.89362144649E+03  0.11063770510E+04  0.65231193883E+03 0.  0.
         13    1    3    3    0    0  0.10097571890E+03 -0.30944139147E+03 -0.48089681376E+03  0.58069941970E+03  0.00000000000E+00 0.  1.
          1    1    3    3  501    0 -0.10086648586E+03  0.30955016006E+03 -0.41272463273E+03  0.52567763128E+03  0.00000000000E+00 0.  1.
         21    1    1    2  502  501 -0.10923303650E+00 -0.10876859050E+00  0.79067656794E+01  0.79082682031E+01  0.00000000000E+00 0. -1.
<mgrwt>
<rscale>  1 0.65231196E+03</rscale>
<asrwt>0</asrwt>
<pdfrwt beam="1">  1        1 0.41558386E+00 0.65231196E+03</pdfrwt>
<pdfrwt beam="2">0</pdfrwt>
<totfact> 0.11388044E+00</totfact>
</mgrwt>
</event>
<event>
 6    1  0.3653484E-003  0.6520219E+03  0.7818608E-02  0.9802993E-01
          1   -1    0    0  502    0  0.00000000000E+00  0.00000000000E+00  0.10641717329E+03  0.10641717329E+03  0.00000000000E+00 0.  1.
         13   -1    0    0    0    0 -0.00000000000E+00 -0.00000000000E+00 -0.10000000000E+04  0.10000000000E+04  0.00000000000E+00 0.  1.
    9000005    2    1    2  501    0 -0.81512161538E-02 -0.14411675468E-02 -0.89371671156E+03  0.11062830328E+04  0.65202192298E+03 0.  0.
         13    1    3    3    0    0  0.18362411816E+03 -0.23676597274E+03 -0.22887142529E+03  0.37703855497E+03  0.00000000000E+00 0.  1.
          3    1    3    3  501    0 -0.18363226937E+03  0.23676453157E+03 -0.66484528627E+03  0.72924447783E+03  0.00000000000E+00 0.  1.
         21    1    1    2  502  501  0.81512161538E-02  0.14411675468E-02  0.13388485610E+00  0.13414050090E+00  0.00000000000E+00 0.  1.
<mgrwt>
<rscale>  1 0.65202192E+03</rscale>
<asrwt>0</asrwt>
<pdfrwt beam="1">  1        1 0.38697236E+00 0.65202192E+03</pdfrwt>
<pdfrwt beam="2">0</pdfrwt>
<totfact> 0.15279931E+00</totfact>
</mgrwt>
</event>
<event>
 6    1  0.3653484E-003  0.6523243E+03  0.7818608E-02  0.9802427E-01
          1   -1    0    0  502    0  0.00000000000E+00  0.00000000000E+00  0.10638974201E+03  0.10638974201E+03  0.00000000000E+00 0.  1.
         13   -1    0    0    0    0 -0.00000000000E+00 -0.00000000000E+00 -0.10000000000E+04  0.10000000000E+04  0.00000000000E+00 0.  1.
    9000005    2    1    2  501    0  0.20593863783E-02 -0.15788233516E-02 -0.89361800667E+03  0.11063815704E+04  0.65232433450E+03 0.  0.
         13    1    3    3    0    0 -0.13116317795E+03  0.19126395863E+03 -0.57838191095E+02  0.23902078878E+03  0.00000000000E+00 0.  1.
          1    1    3    3  501    0  0.13116523734E+03 -0.19126553745E+03 -0.83577981558E+03  0.86736078158E+03  0.00000000000E+00 0.  1.
         21    1    1    2  502  501 -0.20593863783E-02  0.15788233515E-02  0.77486784971E-02  0.81716445029E-02  0.00000000000E+00 0.  1.
<mgrwt>
<rscale>  1 0.65232433E+03</rscale>
<asrwt>0</asrwt>
<pdfrwt beam="1">  1        1 0.38687260E+00 0.65232433E+03</pdfrwt>
<pdfrwt beam="2">0</pdfrwt>
<totfact> 0.15294623E+00</totfact>
</mgrwt>
</event>
<event>
 6    1  0.3653484E-003  0.6835509E+03  0.7818608E-02  0.9745783E-01
          1   -1    0    0  502    0  0.00000000000E+00  0.00000000000E+00  0.13108426756E+03  0.13108426756E+03  0.00000000000E+00 0.  1.
         13   -1    0    0    0    0 -0.00000000000E+00 -0.00000000000E+00 -0.10000000000E+04  0.10000000000E+04  0.00000000000E+00 0.  1.
    9000005    2    1    2  501    0 -0.28840041431E+00  0.10408074864E+00 -0.88318769184E+03  0.11168090151E+04  0.68355086364E+03 0.  0.
         13    1    3    3    0    0 -0.24015947871E+03  0.20941722576E+03 -0.23921423710E+03  0.39844146483E+03  0.00000000000E+00 0.  1.
          3    1    3    3  501    0  0.23987107830E+03 -0.20931314501E+03 -0.64397345474E+03  0.71836755028E+03  0.00000000000E+00 0.  1.
         21    1    1    2  502  501  0.28840041431E+00 -0.10408074864E+00  0.14271959405E+02  0.14275252463E+02  0.00000000000E+00 0.  1.
<mgrwt>
<rscale>  1 0.68355093E+03</rscale>
<asrwt>0</asrwt>
<pdfrwt beam="1">  1        1 0.47667107E+00 0.68355093E+03</pdfrwt>
<pdfrwt beam="2">0</pdfrwt>
<totfact> 0.59270190E-01</totfact>
</mgrwt>
</event>
<event>
 6    1  0.3653484E-003  0.6016975E+03  0.7818608E-02  0.9901891E-01
          1   -1    0    0  502    0  0.00000000000E+00  0.00000000000E+00  0.90553800804E+02  0.90553800804E+02  0.00000000000E+00 0.  1.
         13   -1    0    0    0    0 -0.00000000000E+00 -0.00000000000E+00 -0.10000000000E+04  0.10000000000E+04  0.00000000000E+00 0.  1.
    9000005    2    1    2  501    0 -0.50089906013E-03  0.51088370221E-03 -0.90949002782E+03  0.10905099663E+04  0.60169749543E+03 0.  0.
         13    1    3    3    0    0 -0.88054219466E+01  0.22129713286E+02  0.88798633682E+02  0.91937244953E+02  0.00000000000E+00 0.  1.
          1    1    3    3  501    0  0.88049210475E+01 -0.22129202402E+02 -0.99828866150E+03  0.99857272139E+03  0.00000000000E+00 0.  1.
         21    1    1    2  502  501  0.50089906013E-03 -0.51088370221E-03  0.43828619068E-01  0.43834458494E-01  0.00000000000E+00 0.  1.
<mgrwt>
<rscale>  1 0.60169750E+03</rscale>
<asrwt>0</asrwt>
<pdfrwt beam="1">  1        1 0.32928724E+00 0.60169750E+03</pdfrwt>
<pdfrwt beam="2">0</pdfrwt>
<totfact> 0.27563482E+00</totfact>
</mgrwt>
</event>
<event>
 6    1  0.3653484E-003  0.6177256E+03  0.7818608E-02  0.9869298E-01
          1   -1    0    0  502    0  0.00000000000E+00  0.00000000000E+00  0.95996236326E+02  0.95996236326E+02  0.00000000000E+00 0.  1.
         13   -1    0    0    0    0 -0.00000000000E+00 -0.00000000000E+00 -0.10000000000E+04  0.10000000000E+04  0.00000000000E+00 0.  1.
    9000005    2    1    2  501    0  0.71451112492E-01  0.11413509619E-01 -0.90460137736E+03  0.10953942582E+04  0.61772560555E+03 0.  0.
         13    1    3    3    0    0  0.10445332960E+03 -0.12850112545E+03 -0.91465636165E+03  0.92952638328E+03  0.00000000000E+00 0.  1.
          3    1    3    3  501    0 -0.10438187849E+03  0.12851253896E+03  0.10054984284E+02  0.16586787493E+03  0.00000000000E+00 0.  1.
         21    1    1    2  502  501 -0.71451112492E-01 -0.11413509619E-01  0.59761368972E+00  0.60197811573E+00  0.00000000000E+00 0. -1.
<mgrwt>
<rscale>  1 0.61772561E+03</rscale>
<asrwt>0</asrwt>
<pdfrwt beam="1">  1        1 0.34907796E+00 0.61772561E+03</pdfrwt>
<pdfrwt beam="2">0</pdfrwt>
<totfact> 0.22550496E+00</totfact>
</mgrwt>
</event>
<event>
 6    1  0.3653484E-003  0.4606273E+03  0.7818608E-02  0.1024599E+00
          1   -1    0    0  502    0  0.00000000000E+00  0.00000000000E+00  0.55160179037E+02  0.55160179037E+02  0.00000000000E+00 0.  1.
         13   -1    0    0    0    0 -0.00000000000E+00 -0.00000000000E+00 -0.10000000000E+04  0.10000000000E+04  0.00000000000E+00 0.  1.
    9000005    2    1    2  501    0 -0.10223487139E+00 -0.12656156306E+00 -0.94695233847E+03  0.10530414058E+04  0.46062722945E+03 0.  0.
         13    1    3    3    0    0 -0.19268090889E+03 -0.10073375367E+02 -0.76127308647E+03  0.78534331201E+03  0.00000000000E+00 0.  1.
          1    1    3    3  501    0  0.19257867402E+03  0.99468138043E+01 -0.18567925201E+03  0.26769809379E+03  0.00000000000E+00 0.  1.
         21    1    1    2  502  501  0.10223487139E+00  0.12656156306E+00  0.21125175119E+01  0.21187732386E+01  0.00000000000E+00 0. -1.
<mgrwt>
<rscale>  1 0.46062726E+03</rscale>
<asrwt>0</asrwt>
<pdfrwt beam="1">  1        1 0.20058289E+00 0.46062726E+03</pdfrwt>
<pdfrwt beam="2">0</pdfrwt>
<totfact> 0.10281598E+01</totfact>
</mgrwt>
</event>
<event>
 6    1  0.3653484E-003  0.5928309E+03  0.7818608E-02  0.9920392E-01
          1   -1    0    0  502    0  0.00000000000E+00  0.00000000000E+00  0.87862423113E+02  0.87862423113E+02  0.00000000000E+00 0.  1.
         13   -1    0    0    0    0 -0.00000000000E+00 -0.00000000000E+00 -0.10000000000E+04  0.10000000000E+04  0.00000000000E+00 0.  1.
    9000005    2    1    2  501    0 -0.49917107643E-03 -0.78216361430E-04 -0.91213762049E+03  0.10878619160E+04  0.59283092828E+03 0.  0.
         13    1    3    3    0    0  0.18855053260E+03  0.22754726692E+03 -0.41370543712E+03  0.50841051398E+03  0.00000000000E+00 0.  1.
          3    1    3    3  501    0 -0.18855103177E+03 -0.22754734513E+03 -0.49843218337E+03  0.57945140199E+03  0.00000000000E+00 0.  1.
         21    1    1    2  502  501  0.49917107643E-03  0.78216361441E-04  0.43598182048E-04  0.50713939328E-03  0.00000000000E+00 0. -1.
<mgrwt>
<rscale>  1 0.59283093E+03</rscale>
<asrwt>0</asrwt>
<pdfrwt beam="1">  1        1 0.31950039E+00 0.59283093E+03</pdfrwt>
<pdfrwt beam="2">0</pdfrwt>
<totfact> 0.30434157E+00</totfact>
</mgrwt>
</event>
<event>
 6    1  0.3653484E-003  0.6544155E+03  0.7818608E-02  0.9798529E-01
          1   -1    0    0  502    0  0.00000000000E+00  0.00000000000E+00  0.10706989529E+03  0.10706989529E+03  0.00000000000E+00 0.  1.
         13   -1    0    0    0    0 -0.00000000000E+00 -0.00000000000E+00 -0.10000000000E+04  0.10000000000E+04  0.00000000000E+00 0.  1.
    9000005    2    1    2  501    0 -0.35243186034E-03 -0.20769844714E-03 -0.89293509054E+03  0.11070648927E+04  0.65441546495E+03 0.  0.
         13    1    3    3    0    0  0.35179405112E+02  0.70288863574E+02  0.90856968017E+02  0.12013785217E+03  0.00000000000E+00 0.  1.
          3    1    3    3  501    0 -0.35179757543E+02 -0.70289071272E+02 -0.98379205855E+03  0.98692704054E+03  0.00000000000E+00 0.  1.
         21    1    1    2  502  501  0.35243186033E-03  0.20769844714E-03  0.49858217247E-02  0.50025758496E-02  0.00000000000E+00 0. -1.
<mgrwt>
<rscale>  1 0.65441546E+03</rscale>
<asrwt>0</asrwt>
<pdfrwt beam="1">  1        1 0.38934589E+00 0.65441546E+03</pdfrwt>
<pdfrwt beam="2">0</pdfrwt>
<totfact> 0.14907782E+00</totfact>
</mgrwt>
</event>
<event>
 6    1  0.3653484E-003  0.6497887E+03  0.7818608E-02  0.9807176E-01
          1   -1    0    0  502    0  0.00000000000E+00  0.00000000000E+00  0.10555746286E+03  0.10555746286E+03  0.00000000000E+00 0.  1.
         13   -1    0    0    0    0 -0.00000000000E+00 -0.00000000000E+00 -0.10000000000E+04  0.10000000000E+04  0.00000000000E+00 0.  1.
    9000005    2    1    2  501    0  0.18407188819E-04  0.84926814338E-04 -0.89444364943E+03  0.11055563472E+04  0.64978873088E+03 0.  0.
         13    1    3    3    0    0 -0.11026039562E+03  0.24545417160E+03 -0.13743803661E+03  0.30214949794E+03  0.00000000000E+00 0.  1.
          3    1    3    3  501    0  0.11026041403E+03 -0.24545408667E+03 -0.75700561282E+03  0.80340684924E+03  0.00000000000E+00 0.  1.
         21    1    1    2  502  501 -0.18407188808E-04 -0.84926814340E-04  0.11122917488E-02  0.11156811027E-02  0.00000000000E+00 0. -1.
<mgrwt>
<rscale>  1 0.64978873E+03</rscale>
<asrwt>0</asrwt>
<pdfrwt beam="1">  1        1 0.38384613E+00 0.64978873E+03</pdfrwt>
<pdfrwt beam="2">0</pdfrwt>
<totfact> 0.15780891E+00</totfact>
</mgrwt>
</event>
<event>
 6    1  0.3653484E-003  0.5002557E+03  0.7818608E-02  0.1013712E+00
          1   -1    0    0  502    0  0.00000000000E+00  0.00000000000E+00  0.89329139832E+02  0.89329139832E+02  0.00000000000E+00 0.  1.
         13   -1    0    0    0    0 -0.00000000000E+00 -0.00000000000E+00 -0.10000000000E+04  0.10000000000E+04  0.00000000000E+00 0.  1.
    9000005    2    1    2  501    0 -0.59802600236E+00 -0.18433744361E+00 -0.93743218248E+03  0.10625605017E+04  0.50025526627E+03 0.  0.
         13    1    3    3    0    0  0.55040180249E+01  0.12199766480E+03 -0.50911264431E+01  0.12222783644E+03  0.00000000000E+00 0.  1.
          1    1    3    3  501    0 -0.61020440273E+01 -0.12218200225E+03 -0.93234105603E+03  0.94033266527E+03  0.00000000000E+00 0.  1.
         21    1    1    2  502  501  0.59802600236E+00  0.18433744361E+00  0.26761322307E+02  0.26768638124E+02  0.00000000000E+00 0.  1.
<mgrwt>
<rscale>  1 0.50025566E+03</rscale>
<asrwt>0</asrwt>
<pdfrwt beam="1">  1        1 0.32483392E+00 0.50025566E+03</pdfrwt>
<pdfrwt beam="2">0</pdfrwt>
<totfact> 0.29389979E+00</totfact>
</mgrwt>
</event>
<event>
 6    1  0.3653484E-003  0.6534276E+03  0.7818608E-02  0.9800369E-01
          3   -1    0    0  502    0  0.00000000000E+00  0.00000000000E+00  0.10674294119E+03  0.10674294119E+03  0.00000000000E+00 0.  1.
         13   -1    0    0    0    0 -0.00000000000E+00 -0.00000000000E+00 -0.10000000000E+04  0.10000000000E+04  0.00000000000E+00 0.  1.
    9000005    2    1    2  501    0  0.80429934765E-03 -0.88998518981E-03 -0.89325770571E+03  0.11067415783E+04  0.65342757237E+03 0.  0.
         13    1    3    3    0    0 -0.64674700947E+02  0.31565867583E+03 -0.53812736768E+03  0.62721948345E+03  0.00000000000E+00 0.  1.
          1    1    3    3  501    0  0.64675505247E+02 -0.31565956581E+03 -0.35513033803E+03  0.47952209486E+03  0.00000000000E+00 0.  1.
         21    1    1    2  502  501 -0.80429934764E-03  0.88998518978E-03  0.64690682143E-03  0.13628864642E-02  0.00000000000E+00 0.  1.
<mgrwt>
<rscale>  1 0.65342757E+03</rscale>
<asrwt>0</asrwt>
<pdfrwt beam="1">  1        3 0.38815697E+00 0.65342757E+03</pdfrwt>
<pdfrwt beam="2">0</pdfrwt>
<totfact> 0.68321715E-02</totfact>
</mgrwt>
</event>
<event>
 6    1  0.3653484E-003  0.6606021E+03  0.7818608E-02  0.9787086E-01
          1   -1    0    0  502    0  0.00000000000E+00  0.00000000000E+00  0.11856849664E+03  0.11856849664E+03  0.00000000000E+00 0.  1.
         13   -1    0    0    0    0 -0.00000000000E+00 -0.00000000000E+00 -0.10000000000E+04  0.10000000000E+04  0.00000000000E+00 0.  1.
    9000005    2    1    2  501    0 -0.48928021347E+01 -0.12166747135E+02 -0.88556666698E+03  0.11048182666E+04  0.66047188529E+03 0.  0.
         13    1    3    3    0    0 -0.12534358290E+02  0.17373238204E+03 -0.90141358415E+03  0.91808850358E+03  0.00000000000E+00 0.  1.
          3    1    3    3  501    0  0.76415561553E+01 -0.18589912917E+03  0.15846917175E+02  0.18672976300E+03  0.00000000000E+00 0.  1.
         21    1    1    2  502  501  0.48928021347E+01  0.12166747135E+02  0.41351636218E+01  0.13750230062E+02  0.00000000000E+00 0.  1.
<mgrwt>
<rscale>  1 0.66060206E+03</rscale>
<asrwt>0</asrwt>
<pdfrwt beam="1">  1        1 0.43115908E+00 0.66060206E+03</pdfrwt>
<pdfrwt beam="2">0</pdfrwt>
<totfact> 0.96677410E-01</totfact>
</mgrwt>
</event>
<event>
 6    1  0.3653484E-003  0.6416336E+03  0.7818608E-02  0.9822606E-01
          1   -1    0    0  502    0  0.00000000000E+00  0.00000000000E+00  0.10292735980E+03  0.10292735980E+03  0.00000000000E+00 0.  1.
         13   -1    0    0    0    0 -0.00000000000E+00 -0.00000000000E+00 -0.10000000000E+04  0.10000000000E+04  0.00000000000E+00 0.  1.
    9000005    2    1    2  501    0 -0.15128359709E-02 -0.39730670517E-02 -0.89707527021E+03  0.11029223607E+04  0.64163361300E+03 0.  0.
         13    1    3    3    0    0 -0.13366150947E+03 -0.13993093740E+03 -0.88839062699E+03  0.90922163001E+03  0.00000000000E+00 0.  1.
          1    1    3    3  501    0  0.13365999663E+03  0.13992696433E+03 -0.86846432129E+01  0.19370073070E+03  0.00000000000E+00 0.  1.
         21    1    1    2  502  501  0.15128359709E-02  0.39730670517E-02  0.26300061869E-02  0.49990866181E-02  0.00000000000E+00 0. -1.
<mgrwt>
<rscale>  1 0.64163361E+03</rscale>
<asrwt>0</asrwt>
<pdfrwt beam="1">  1        1 0.37428210E+00 0.64163361E+03</pdfrwt>
<pdfrwt beam="2">0</pdfrwt>
<totfact> 0.17416563E+00</totfact>
</mgrwt>
</event>
<event>
 6    1  0.3653484E-003  0.6512633E+03  0.7818608E-02  0.9804411E-01
          1   -1    0    0  502    0  0.00000000000E+00  0.00000000000E+00  0.10603916717E+03  0.10603916717E+03  0.00000000000E+00 0.  1.
         13   -1    0    0    0    0 -0.00000000000E+00 -0.00000000000E+00 -0.10000000000E+04  0.10000000000E+04  0.00000000000E+00 0.  1.
    9000005    2    1    2  501    0 -0.94124309056E-02  0.26234372652E-02 -0.89394724026E+03  0.11060224270E+04  0.65126334190E+03 0.  0.
         13    1    3    3    0    0  0.22554779090E+02  0.23990236848E+02 -0.99714951012E+03  0.99769303649E+03  0.00000000000E+00 0.  1.
          3    1    3    3  501    0 -0.22564191520E+02 -0.23987613410E+02  0.10320226987E+03  0.10832939048E+03  0.00000000000E+00 0.  1.
         21    1    1    2  502  501  0.94124309056E-02 -0.26234372652E-02 -0.13592571706E-01  0.16740199647E-01  0.00000000000E+00 0. -1.
<mgrwt>
<rscale>  1 0.65126334E+03</rscale>
<asrwt>0</asrwt>
<pdfrwt beam="1">  1        1 0.38559778E+00 0.65126334E+03</pdfrwt>
<pdfrwt beam="2">0</pdfrwt>
<totfact> 0.15497669E+00</totfact>
</mgrwt>
</event>
<event>
 6    1  0.3653484E-003  0.6454699E+03  0.7818608E-02  0.9815317E-01
          1   -1    0    0  502    0  0.00000000000E+00  0.00000000000E+00  0.10415805195E+03  0.10415805195E+03  0.00000000000E+00 0.  1.
         13   -1    0    0    0    0 -0.00000000000E+00 -0.00000000000E+00 -0.10000000000E+04  0.10000000000E+04  0.00000000000E+00 0.  1.
    9000005    2    1    2  501    0 -0.82625963955E-05 -0.18436932645E-03 -0.89584211293E+03  0.11041578045E+04  0.64546987990E+03 0.  0.
         13    1    3    3    0    0 -0.29384108225E+03  0.50259692145E+02 -0.23640282400E+03  0.38046670481E+03  0.00000000000E+00 0.  1.
          1    1    3    3  501    0  0.29384107398E+03 -0.50259876514E+02 -0.65943928893E+03  0.72369109966E+03  0.00000000000E+00 0.  1.
         21    1    1    2  502  501  0.82625963981E-05  0.18436932646E-03  0.16488612251E-03  0.24748283261E-03  0.00000000000E+00 0.  1.
<mgrwt>
<rscale>  1 0.64546988E+03</rscale>
<asrwt>0</asrwt>
<pdfrwt beam="1">  1        1 0.37875735E+00 0.64546988E+03</pdfrwt>
<pdfrwt beam="2">0</pdfrwt>
<totfact> 0.16631984E+00</totfact>
</mgrwt>
</event>
<event>
 6    1  0.3653484E-003  0.6566708E+03  0.7818608E-02  0.9794342E-01
          1   -1    0    0  502    0  0.00000000000E+00  0.00000000000E+00  0.10781853583E+03  0.10781853583E+03  0.00000000000E+00 0.  1.
         13   -1    0    0    0    0 -0.00000000000E+00 -0.00000000000E+00 -0.10000000000E+04  0.10000000000E+04  0.00000000000E+00 0.  1.
    9000005    2    1    2  501    0  0.26436972576E-04  0.56731241945E-03 -0.89219587047E+03  0.11078041183E+04  0.65667076480E+03 0.  0.
         13    1    3    3    0    0  0.22990950672E+03  0.78249923004E+02 -0.81885552843E+03  0.85411112167E+03  0.00000000000E+00 0.  1.
          3    1    3    3  501    0 -0.22990948028E+03 -0.78249355692E+02 -0.73340342038E+02  0.25369299667E+03  0.00000000000E+00 0.  1.
         21    1    1    2  502  501 -0.26436972565E-04 -0.56731241944E-03  0.14406299087E-01  0.14417489229E-01  0.00000000000E+00 0.  1.
<mgrwt>
<rscale>  1 0.65667076E+03</rscale>
<asrwt>0</asrwt>
<pdfrwt beam="1">  1        1 0.39206823E+00 0.65667076E+03</pdfrwt>
<pdfrwt beam="2">0</pdfrwt>
<totfact> 0.14492849E+00</totfact>
</mgrwt>
</event>
<event>
 6    1  0.3653484E-003  0.6365711E+03  0.7818608E-02  0.9832309E-01
          1   -1    0    0  502    0  0.00000000000E+00  0.00000000000E+00  0.10130722589E+03  0.10130722589E+03  0.00000000000E+00 0.  1.
         13   -1    0    0    0    0 -0.00000000000E+00 -0.00000000000E+00 -0.10000000000E+04  0.10000000000E+04  0.00000000000E+00 0.  1.
    9000005    2    1    2  501    0 -0.12568888885E-02 -0.21242767596E-02 -0.89869314384E+03  0.11013047301E+04  0.63657108144E+03 0.  0.
         13    1    3    3    0    0 -0.25490721473E+03  0.19059776491E+03 -0.45044715185E+03  0.55155039001E+03  0.00000000000E+00 0.  1.
          1    1    3    3  501    0  0.25490595784E+03 -0.19059988918E+03 -0.44824599199E+03  0.54975434008E+03  0.00000000000E+00 0.  1.
         21    1    1    2  502  501  0.12568888884E-02  0.21242767596E-02  0.36973647019E-03  0.24958017723E-02  0.00000000000E+00 0. -1.
<mgrwt>
<rscale>  1 0.63657108E+03</rscale>
<asrwt>0</asrwt>
<pdfrwt beam="1">  1        1 0.36839069E+00 0.63657108E+03</pdfrwt>
<pdfrwt beam="2">0</pdfrwt>
<totfact> 0.18503469E+00</totfact>
</mgrwt>
</event>
<event>
 6    1  0.3653484E-003  0.6556842E+03  0.7818608E-02  0.9796171E-01
          1   -1    0    0  502    0  0.00000000000E+00  0.00000000000E+00  0.10831513685E+03  0.10831513685E+03  0.00000000000E+00 0.  1.
         13   -1    0    0    0    0 -0.00000000000E+00 -0.00000000000E+00 -0.10000000000E+04  0.10000000000E+04  0.00000000000E+00 0.  1.
    9000005    2    1    2  501    0  0.13972606136E-01  0.14835135207E-01 -0.89251943168E+03  0.11074803195E+04  0.65568416315E+03 0.  0.
         13    1    3    3    0    0  0.29646647549E+03 -0.44210070868E+02 -0.22195424940E+03  0.37297532127E+03  0.00000000000E+00 0.  1.
          3    1    3    3  501    0 -0.29645250288E+03  0.44224906003E+02 -0.67056518229E+03  0.73450499826E+03  0.00000000000E+00 0.  1.
         21    1    1    2  502  501 -0.13972606136E-01 -0.14835135207E-01  0.83456852972E+00  0.83481731281E+00  0.00000000000E+00 0.  1.
<mgrwt>
<rscale>  1 0.65568416E+03</rscale>
<asrwt>0</asrwt>
<pdfrwt beam="1">  1        1 0.39387406E+00 0.65568416E+03</pdfrwt>
<pdfrwt beam="2">0</pdfrwt>
<totfact> 0.14230252E+00</totfact>
</mgrwt>
</event>
<event>
 6    1  0.3653484E-003  0.6511335E+03  0.7818608E-02  0.9804655E-01
          1   -1    0    0  502    0  0.00000000000E+00  0.00000000000E+00  0.10599381233E+03  0.10599381233E+03  0.00000000000E+00 0.  1.
         13   -1    0    0    0    0 -0.00000000000E+00 -0.00000000000E+00 -0.10000000000E+04  0.10000000000E+04  0.00000000000E+00 0.  1.
    9000005    2    1    2  501    0  0.89249910218E-05 -0.25599369280E-04 -0.89400628638E+03  0.11059937100E+04  0.65113350888E+03 0.  0.
         13    1    3    3    0    0 -0.17854071816E+03  0.26787057058E+03 -0.52955892919E+03  0.61972904572E+03  0.00000000000E+00 0.  1.
          3    1    3    3  501    0  0.17854072709E+03 -0.26787059618E+03 -0.36444735719E+03  0.48626466424E+03  0.00000000000E+00 0.  1.
         21    1    1    2  502  501 -0.89249910126E-05  0.25599369311E-04  0.98711502957E-04  0.10236671329E-03  0.00000000000E+00 0. -1.
<mgrwt>
<rscale>  1 0.65113351E+03</rscale>
<asrwt>0</asrwt>
<pdfrwt beam="1">  1        1 0.38543286E+00 0.65113351E+03</pdfrwt>
<pdfrwt beam="2">0</pdfrwt>
<totfact> 0.15524102E+00</totfact>
</mgrwt>
</event>
<event>
 6    1  0.3653484E-003  0.6555819E+03  0.7818608E-02  0.9796361E-01
          1   -1    0    0  502    0  0.00000000000E+00  0.00000000000E+00  0.10751282939E+03  0.10751282939E+03  0.00000000000E+00 0.  1.
         13   -1    0    0    0    0 -0.00000000000E+00 -0.00000000000E+00 -0.10000000000E+04  0.10000000000E+04  0.00000000000E+00 0.  1.
    9000005    2    1    2  501    0 -0.29500601544E-01  0.99968919434E-02 -0.89254899835E+03  0.11074435987E+04  0.65558188565E+03 0.  0.
         13    1    3    3    0    0 -0.12866986888E+03 -0.10135741739E+03  0.33361727036E+02  0.16715940311E+03  0.00000000000E+00 0.  1.
          1    1    3    3  501    0  0.12864036827E+03  0.10136741428E+03 -0.92591072539E+03  0.94028419556E+03  0.00000000000E+00 0.  1.
         21    1    1    2  502  501  0.29500601544E-01 -0.99968919434E-02  0.61827748328E-01  0.69230728751E-01  0.00000000000E+00 0.  1.
<mgrwt>
<rscale>  1 0.65558189E+03</rscale>
<asrwt>0</asrwt>
<pdfrwt beam="1">  1        1 0.39095657E+00 0.65558189E+03</pdfrwt>
<pdfrwt beam="2">0</pdfrwt>
<totfact> 0.14661403E+00</totfact>
</mgrwt>
</event>
<event>
 6    1  0.3653484E-003  0.7056538E+03  0.7818608E-02  0.9707612E-01
          1   -1    0    0  502    0  0.00000000000E+00  0.00000000000E+00  0.12448795808E+03  0.12448795808E+03  0.00000000000E+00 0.  1.
         13   -1    0    0    0    0 -0.00000000000E+00 -0.00000000000E+00 -0.10000000000E+04  0.10000000000E+04  0.00000000000E+00 0.  1.
    9000005    2    1    2  501    0 -0.27366465343E-03  0.38671649463E-04 -0.87551315875E+03  0.11244868076E+04  0.70565380266E+03 0.  0.
         13    1    3    3    0    0 -0.22989551870E+03 -0.16565454939E+03 -0.10275894025E+03  0.30141794746E+03  0.00000000000E+00 0.  1.
          3    1    3    3  501    0  0.22989524503E+03  0.16565458807E+03 -0.77275421851E+03  0.82306886009E+03  0.00000000000E+00 0.  1.
         21    1    1    2  502  501  0.27366465343E-03 -0.38671649470E-04  0.11168322779E-02  0.11505225665E-02  0.00000000000E+00 0.  1.
<mgrwt>
<rscale>  1 0.70565380E+03</rscale>
<asrwt>0</asrwt>
<pdfrwt beam="1">  1        1 0.45268444E+00 0.70565380E+03</pdfrwt>
<pdfrwt beam="2">0</pdfrwt>
<totfact> 0.76351703E-01</totfact>
</mgrwt>
</event>
<event>
 6    1  0.3653484E-003  0.6412985E+03  0.7818608E-02  0.9823245E-01
          1   -1    0    0  502    0  0.00000000000E+00  0.00000000000E+00  0.10290631767E+03  0.10290631767E+03  0.00000000000E+00 0.  1.
         13   -1    0    0    0    0 -0.00000000000E+00 -0.00000000000E+00 -0.10000000000E+04  0.10000000000E+04  0.00000000000E+00 0.  1.
    9000005    2    1    2  501    0  0.33290486159E-02  0.12748982288E-01 -0.89718353569E+03  0.11028155033E+04  0.64129847770E+03 0.  0.
         13    1    3    3    0    0 -0.25824802968E+03  0.11621089562E+03 -0.70722647669E+03  0.76181776458E+03  0.00000000000E+00 0.  1.
          3    1    3    3  501    0  0.25825135873E+03 -0.11619814664E+03 -0.18995705900E+03  0.34099773875E+03  0.00000000000E+00 0.  1.
         21    1    1    2  502  501 -0.33290486158E-02 -0.12748982288E-01  0.89853357126E-01  0.90814343035E-01  0.00000000000E+00 0. -1.
<mgrwt>
<rscale>  1 0.64129848E+03</rscale>
<asrwt>0</asrwt>
<pdfrwt beam="1">  1        1 0.37420558E+00 0.64129848E+03</pdfrwt>
<pdfrwt beam="2">0</pdfrwt>
<totfact> 0.17431139E+00</totfact>
</mgrwt>
</event>
<event>
 6    1  0.3653484E-003  0.6285177E+03  0.7818608E-02  0.9847946E-01
          1   -1    0    0  502    0  0.00000000000E+00  0.00000000000E+00  0.10280662717E+03  0.10280662717E+03  0.00000000000E+00 0.  1.
         13   -1    0    0    0    0 -0.00000000000E+00 -0.00000000000E+00 -0.10000000000E+04  0.10000000000E+04  0.00000000000E+00 0.  1.
    9000005    2    1    2  501    0  0.49909215670E+01 -0.44455341694E+01 -0.89797110192E+03  0.10960778134E+04  0.62848214063E+03 0.  0.
         13    1    3    3    0    0  0.31169492619E+03  0.39622940794E+02 -0.38689548251E+03  0.49840928848E+03  0.00000000000E+00 0.  1.
          3    1    3    3  501    0 -0.30670400462E+03 -0.44068474964E+02 -0.51107561941E+03  0.59766852493E+03  0.00000000000E+00 0.  1.
         21    1    1    2  502  501 -0.49909215670E+01  0.44455341694E+01  0.77772909091E+00  0.67288137646E+01  0.00000000000E+00 0.  1.
<mgrwt>
<rscale>  1 0.62851768E+03</rscale>
<asrwt>0</asrwt>
<pdfrwt beam="1">  1        1 0.37384307E+00 0.62851768E+03</pdfrwt>
<pdfrwt beam="2">0</pdfrwt>
<totfact> 0.17536547E+00</totfact>
</mgrwt>
</event>
<event>
 6    1  0.3653484E-003  0.6358081E+03  0.7818608E-02  0.9833780E-01
          1   -1    0    0  502    0  0.00000000000E+00  0.00000000000E+00  0.10259670740E+03  0.10259670740E+03  0.00000000000E+00 0.  1.
         13   -1    0    0    0    0 -0.00000000000E+00 -0.00000000000E+00 -0.10000000000E+04  0.10000000000E+04  0.00000000000E+00 0.  1.
    9000005    2    1    2  501    0 -0.61830076932E-02  0.24651123259E-01 -0.89893688931E+03  0.11010629001E+04  0.63580813018E+03 0.  0.
         13    1    3    3    0    0 -0.85766876612E+02 -0.29885065935E+03 -0.33473213700E+03  0.45685148272E+03  0.00000000000E+00 0.  1.
          1    1    3    3  501    0  0.85760693604E+02  0.29887531048E+03 -0.56420475231E+03  0.64421141740E+03  0.00000000000E+00 0.  1.
         21    1    1    2  502  501  0.61830076932E-02 -0.24651123259E-01  0.15335967093E+01  0.15338072807E+01  0.00000000000E+00 0.  1.
<mgrwt>
<rscale>  1 0.63580813E+03</rscale>
<asrwt>0</asrwt>
<pdfrwt beam="1">  1        1 0.37307972E+00 0.63580813E+03</pdfrwt>
<pdfrwt beam="2">0</pdfrwt>
<totfact> 0.17648802E+00</totfact>
</mgrwt>
</event>
<event>
 6    1  0.3653484E-003  0.6516359E+03  0.7818608E-02  0.9803714E-01
          1   -1    0    0  502    0  0.00000000000E+00  0.00000000000E+00  0.10637870644E+03  0.10637870644E+03  0.00000000000E+00 0.  1.
         13   -1    0    0    0    0 -0.00000000000E+00 -0.00000000000E+00 -0.10000000000E+04  0.10000000000E+04  0.00000000000E+00 0.  1.
    9000005    2    1    2  501    0 -0.25770589303E-02  0.32934293481E-02 -0.89384264440E+03  0.11061573161E+04  0.65163589141E+03 0.  0.
         13    1    3    3    0    0  0.32474993730E+03 -0.16260157475E+02 -0.48210043643E+03  0.58150472509E+03  0.00000000000E+00 0.  1.
          3    1    3    3  501    0 -0.32475251436E+03  0.16263450904E+02 -0.41174220798E+03  0.52465259101E+03  0.00000000000E+00 0.  1.
         21    1    1    2  502  501  0.25770589303E-02 -0.32934293481E-02  0.22135083978E+00  0.22139033895E+00  0.00000000000E+00 0. -1.
<mgrwt>
<rscale>  1 0.65163589E+03</rscale>
<asrwt>0</asrwt>
<pdfrwt beam="1">  1        1 0.38683248E+00 0.65163589E+03</pdfrwt>
<pdfrwt beam="2">0</pdfrwt>
<totfact> 0.15302829E+00</totfact>
</mgrwt>
</event>
<event>
 6    1  0.3653484E-003  0.6497639E+03  0.7818608E-02  0.9807222E-01
          1   -1    0    0  502    0  0.00000000000E+00  0.00000000000E+00  0.10599974094E+03  0.10599974094E+03  0.00000000000E+00 0.  1.
         13   -1    0    0    0    0 -0.00000000000E+00 -0.00000000000E+00 -0.10000000000E+04  0.10000000000E+04  0.00000000000E+00 0.  1.
    9000005    2    1    2  501    0 -0.37279973802E-02 -0.86369151221E-02 -0.89445166624E+03  0.11055482357E+04  0.64976389422E+03 0.  0.
         13    1    3    3    0    0  0.10619518459E+03  0.87007753942E+02  0.53767778617E+02  0.14744063379E+03  0.00000000000E+00 0.  1.
          3    1    3    3  501    0 -0.10619891258E+03 -0.87016390857E+02 -0.94821944486E+03  0.95810760196E+03  0.00000000000E+00 0.  1.
         21    1    1    2  502  501  0.37279973802E-02  0.86369151221E-02  0.45140718883E+00  0.45150519863E+00  0.00000000000E+00 0.  1.
<mgrwt>
<rscale>  1 0.64976389E+03</rscale>
<asrwt>0</asrwt>
<pdfrwt beam="1">  1        1 0.38545442E+00 0.64976389E+03</pdfrwt>
<pdfrwt beam="2">0</pdfrwt>
<totfact> 0.15524622E+00</totfact>
</mgrwt>
</event>
<event>
 6    1  0.3653484E-003  0.6467815E+03  0.7818608E-02  0.9812837E-01
          1   -1    0    0  502    0  0.00000000000E+00  0.00000000000E+00  0.10459347982E+03  0.10459347982E+03  0.00000000000E+00 0.  1.
         13   -1    0    0    0    0 -0.00000000000E+00 -0.00000000000E+00 -0.10000000000E+04  0.10000000000E+04  0.00000000000E+00 0.  1.
    9000005    2    1    2  501    0  0.30589707922E-02  0.82540201569E-02 -0.89541661393E+03  0.11045800869E+04  0.64678145910E+03 0.  0.
         13    1    3    3    0    0 -0.31397178758E+03 -0.71983199044E+02 -0.39879640830E+03  0.51263870281E+03  0.00000000000E+00 0.  1.
          1    1    3    3  501    0  0.31397484655E+03  0.71991453064E+02 -0.49662020563E+03  0.59194138411E+03  0.00000000000E+00 0.  1.
         21    1    1    2  502  501 -0.30589707922E-02 -0.82540201569E-02  0.10093745723E-01  0.13392903112E-01  0.00000000000E+00 0. -1.
<mgrwt>
<rscale>  1 0.64678146E+03</rscale>
<asrwt>0</asrwt>
<pdfrwt beam="1">  1        1 0.38034073E+00 0.64678146E+03</pdfrwt>
<pdfrwt beam="2">0</pdfrwt>
<totfact> 0.16362689E+00</totfact>
</mgrwt>
</event>
<event>
 6    1  0.3653484E-003  0.6489409E+03  0.7818608E-02  0.9808769E-01
          1   -1    0    0  502    0  0.00000000000E+00  0.00000000000E+00  0.10528157330E+03  0.10528157330E+03  0.00000000000E+00 0.  1.
         13   -1    0    0    0    0 -0.00000000000E+00 -0.00000000000E+00 -0.10000000000E+04  0.10000000000E+04  0.00000000000E+00 0.  1.
    9000005    2    1    2  501    0  0.85098556042E-05  0.54435596176E-04 -0.89471893439E+03  0.11052810626E+04  0.64894087238E+03 0.  0.
         13    1    3    3    0    0 -0.25674670514E+03 -0.40308137702E+02 -0.77822674912E+03  0.82047577028E+03  0.00000000000E+00 0.  1.
          1    1    3    3  501    0  0.25674671365E+03  0.40308192138E+02 -0.11649218527E+03  0.28480529235E+03  0.00000000000E+00 0.  1.
         21    1    1    2  502  501 -0.85098556033E-05 -0.54435596177E-04  0.50768950058E-03  0.51067042285E-03  0.00000000000E+00 0. -1.
<mgrwt>
<rscale>  1 0.64894087E+03</rscale>
<asrwt>0</asrwt>
<pdfrwt beam="1">  1        1 0.38284289E+00 0.64894087E+03</pdfrwt>
<pdfrwt beam="2">0</pdfrwt>
<totfact> 0.15945321E+00</totfact>
</mgrwt>
</event>
<event>
 6    1  0.3653484E-003  0.6397391E+03  0.7818608E-02  0.9826226E-01
          1   -1    0    0  502    0  0.00000000000E+00  0.00000000000E+00  0.10233113567E+03  0.10233113567E+03  0.00000000000E+00 0.  1.
         13   -1    0    0    0    0 -0.00000000000E+00 -0.00000000000E+00 -0.10000000000E+04  0.10000000000E+04  0.00000000000E+00 0.  1.
    9000005    2    1    2  501    0 -0.46571242150E-02 -0.22212356668E-01 -0.89767304442E+03  0.11023080586E+04  0.63973913504E+03 0.  0.
         13    1    3    3    0    0 -0.33094054880E+02 -0.30868671635E+03 -0.31604391042E+03  0.44301970456E+03  0.00000000000E+00 0.  1.
          1    1    3    3  501    0  0.33089397755E+02  0.30866450399E+03 -0.58162913400E+03  0.65928835405E+03  0.00000000000E+00 0.  1.
         21    1    1    2  502  501  0.46571242150E-02  0.22212356668E-01  0.41800914877E-02  0.23077061328E-01  0.00000000000E+00 0.  1.
<mgrwt>
<rscale>  1 0.63973914E+03</rscale>
<asrwt>0</asrwt>
<pdfrwt beam="1">  1        1 0.37211401E+00 0.63973914E+03</pdfrwt>
<pdfrwt beam="2">0</pdfrwt>
<totfact> 0.17809364E+00</totfact>
</mgrwt>
</event>
<event>
 6    1  0.3653484E-003  0.6460528E+03  0.7818608E-02  0.9814214E-01
          1   -1    0    0  502    0  0.00000000000E+00  0.00000000000E+00  0.10434637477E+03  0.10434637477E+03  0.00000000000E+00 0.  1.
         13   -1    0    0    0    0 -0.00000000000E+00 -0.00000000000E+00 -0.10000000000E+04  0.10000000000E+04  0.00000000000E+00 0.  1.
    9000005    2    1    2  501    0 -0.12115066163E-03 -0.13691681573E-04 -0.89565394032E+03  0.11043460369E+04  0.64605277528E+03 0.  0.
         13    1    3    3    0    0 -0.36182819602E+02 -0.21156414197E+03 -0.86048238513E+03  0.88684751661E+03  0.00000000000E+00 0.  1.
          3    1    3    3  501    0  0.36182698451E+02  0.21156412828E+03 -0.35171555186E+02  0.21749852031E+03  0.00000000000E+00 0.  1.
         21    1    1    2  502  501  0.12115066163E-03  0.13691681597E-04  0.31508425049E-03  0.33785060288E-03  0.00000000000E+00 0. -1.
<mgrwt>
<rscale>  1 0.64605278E+03</rscale>
<asrwt>0</asrwt>
<pdfrwt beam="1">  1        1 0.37944216E+00 0.64605278E+03</pdfrwt>
<pdfrwt beam="2">0</pdfrwt>
<totfact> 0.16514952E+00</totfact>
</mgrwt>
</event>
<event>
 6    1  0.3653484E-003  0.6627557E+03  0.7818608E-02  0.9783134E-01
          1   -1    0    0  502    0  0.00000000000E+00  0.00000000000E+00  0.10993243153E+03  0.10993243153E+03  0.00000000000E+00 0.  1.
         13   -1    0    0    0    0 -0.00000000000E+00 -0.00000000000E+00 -0.10000000000E+04  0.10000000000E+04  0.00000000000E+00 0.  1.
    9000005    2    1    2  501    0 -0.12795295196E-01 -0.46816778169E-02 -0.89018827991E+03  0.11098109536E+04  0.66275574600E+03 0.  0.
         13    1    3    3    0    0 -0.75123578455E+02 -0.27995019475E+03 -0.71405875109E+03  0.77064619871E+03  0.00000000000E+00 0.  1.
          3    1    3    3  501    0  0.75110783160E+02  0.27994551307E+03 -0.17612952882E+03  0.33916475488E+03  0.00000000000E+00 0.  1.
         21    1    1    2  502  501  0.12795295196E-01  0.46816778169E-02  0.12071143173E+00  0.12147792984E+00  0.00000000000E+00 0. -1.
<mgrwt>
<rscale>  1 0.66275575E+03</rscale>
<asrwt>0</asrwt>
<pdfrwt beam="1">  1        1 0.39975514E+00 0.66275575E+03</pdfrwt>
<pdfrwt beam="2">0</pdfrwt>
<totfact> 0.13380162E+00</totfact>
</mgrwt>
</event>
<event>
 6    1  0.3653484E-003  0.6574353E+03  0.7818608E-02  0.9792927E-01
          3   -1    0    0  502    0  0.00000000000E+00  0.00000000000E+00  0.10806925524E+03  0.10806925524E+03  0.00000000000E+00 0.  1.
         13   -1    0    0    0    0 -0.00000000000E+00 -0.00000000000E+00 -0.10000000000E+04  0.10000000000E+04  0.00000000000E+00 0.  1.
    9000005    2    1    2  501    0  0.20749411127E-03  0.71894758378E-05 -0.89194469968E+03  0.11080552988E+04  0.65743531839E+03 0.  0.
         13    1    3    3    0    0 -0.11119232794E+03 -0.31417538930E+02 -0.96464533274E+03  0.97154074208E+03  0.00000000000E+00 0.  1.
          1    1    3    3  501    0  0.11119253544E+03  0.31417546119E+02  0.72700633065E+02  0.13651455669E+03  0.00000000000E+00 0.  1.
         21    1    1    2  502  501 -0.20749411125E-03 -0.71894758363E-05  0.13954917125E-01  0.13956461495E-01  0.00000000000E+00 0. -1.
<mgrwt>
<rscale>  1 0.65743532E+03</rscale>
<asrwt>0</asrwt>
<pdfrwt beam="1">  1        3 0.39297994E+00 0.65743532E+03</pdfrwt>
<pdfrwt beam="2">0</pdfrwt>
<totfact> 0.64401639E-02</totfact>
</mgrwt>
</event>
